FOO
135168
    1MOL0     O    1   5.840   7.070   4.809  0.9365  0.7624  0.7289
    1MOL0     C    2   5.866   7.072   4.688 -0.5623  0.0038 -0.3400
    1MOL0     O    3   5.791   7.017   4.582 -0.5395 -0.2397  0.4587
    1MOL0     C    4   5.692   6.939   4.624  0.6527  0.5044 -0.3056
    1MOL0     C    5   5.583   6.986   4.698  0.6339 -0.0792 -0.2035
    1MOL0     C    6   5.480   6.900   4.741  0.2317  0.6850  0.0161
    1MOL0     C    7   5.498   6.752   4.730 -1.0111 -0.5139  0.1757
    1MOL0     O    8   5.404   6.652   4.761  0.2536 -0.1310  0.1556
    1MOL0     C    9   5.268   6.681   4.720 -0.9751 -0.3777 -0.0740
    1MOL0     C   10   5.177   6.606   4.815  0.1632  0.3922  0.2216
    1MOL0     C   11   5.026   6.619   4.776 -0.0020  0.0869  0.0013
    1MOL0     C   12   4.983   6.536   4.650 -0.1884  0.2553  0.0534
    1MOL0     C   13   4.840   6.579   4.597  0.5935 -0.9909 -0.5190
    1MOL0     C   14   4.781   6.468   4.511 -0.4557  0.6409 -0.1716
    1MOL0     C   15   4.655   6.534   4.442  0.0160  1.3299 -0.2436
    1MOL0     C   16   4.563   6.417   4.387  0.2982 -0.1609 -0.5658
    1MOL0     N   17   4.425   6.458   4.341 -0.3451  0.1924 -0.3275
    1MOL0     C   18   4.318   6.464   4.426 -0.2337  1.5466  0.8199
    1MOL0     C   19   4.218   6.457   4.343 -0.4876 -0.2331  0.0264
    1MOL0     C   20   4.080   6.450   4.400 -0.2218 -0.6485  0.5286
    1MOL0     C   21   3.976   6.504   4.300 -0.3398  0.3402  0.7238
    1MOL0     C   22   3.834   6.523   4.360 -0.6481 -0.1648 -0.6261
    1MOL0     C   23   3.770   6.394   4.411 -0.3622 -0.4509 -0.1013
    1MOL0     O   24   3.645   6.430   4.472 -0.0074 -0.6847 -0.7828
    1MOL0     C   25   3.548   6.340   4.465 -0.2359  0.0120  0.6582
    1MOL0     C   26   3.419   6.388   4.475  1.1294 -0.3779 -0.1507
    1MOL0     C   27   3.298   6.301   4.467  0.3262 -1.1667  0.1793
    1MOL0     C   28   3.318   6.165   4.455  0.0109 -0.6597  0.8551
    1MOL0     C   29   3.196   6.082   4.442 -0.5028 -0.3951  0.2748
    1MOL0     O   30   3.084   6.133   4.412 -0.2209 -0.0403  0.0196
    1MOL0     C   31   2.977   6.050   4.404  0.3666  0.5326 -0.5286
    1MOL0     C   32   2.958   5.950   4.307  0.9614 -0.2494  0.0847
    1MOL0     C   33   2.839   5.876   4.308 -0.8122  0.0714  0.4086
    1MOL0     C   34   2.735   5.902   4.392  0.2455  0.4174 -0.1207
    1MOL0     O   35   2.614   5.842   4.372  0.0381  0.1675 -0.1336
    1MOL0     C   36   2.602   5.702   4.388 -0.1893  0.1118 -0.3875
    1MOL0     C   37   2.456   5.682   4.423 -0.5276  0.9582 -0.5776
    1MOL0     C   38   2.424   5.522   4.426 -0.4446  0.2245 -0.3071
    1MOL0     C   39   2.277   5.487   4.456  0.3363  0.0094  0.5408
    1MOL0     C   40   2.252   5.337   4.464 -0.4928 -0.0653 -0.3975
    1MOL0     C   41   2.109   5.319   4.519 -0.3298 -0.2211  0.6818
    1MOL0     C   42   1.989   5.370   4.428  0.6316  0.2065  0.1110
    1MOL0     C   43   1.854   5.325   4.491  0.1926 -0.0133 -0.1224
    1MOL0    Cl   44   1.739   5.373   4.370  0.4627 -0.0039  0.0199
    1MOL0     C   45   2.745   6.007   4.478 -0.9043 -1.3252  0.0097
    1MOL0     C   46   2.866   6.080   4.486  0.0017 -1.1447 -1.0166
    1MOL0     O   47   3.219   5.961   4.460  0.4138  0.2443  0.1284
    1MOL0     C   48   3.451   6.116   4.455 -0.6031 -0.3432  0.6466
    1MOL0     C   49   3.559   6.199   4.459 -0.4563  0.2178  0.2504
    1MOL0     N   50   4.255   6.453   4.212 -0.2020 -0.1813  0.6617
    1MOL0     N   51   4.381   6.451   4.214 -0.3680 -0.0046  1.1575
    1MOL0     C   52   5.610   6.707   4.664  0.5585 -0.2926 -1.1240
    1MOL0     C   53   5.696   6.799   4.608  0.2026 -1.1228  0.1177
    1MOL0     C   54   5.990   7.144   4.654 -0.2236 -0.6880 -0.7422
    1MOL0     C   55   6.087   7.176   4.751 -0.8811 -0.5061  0.2766
    1MOL0     C   56   6.203   7.248   4.723 -0.1002 -0.2924 -0.3055
    1MOL0     C   57   6.233   7.276   4.595 -0.7274  0.1401  0.1725
    1MOL0     O   58   6.358   7.321   4.565  0.6079  0.0368  0.0770
    1MOL0     C   59   6.384   7.371   4.435  0.5375  0.4979  0.3240
    1MOL0     C   60   6.509   7.440   4.419 -0.0626 -0.0171  0.0596
    1MOL0     C   61   6.635   7.369   4.461 -0.1685  0.5430 -0.7025
    1MOL0     C   62   6.766   7.455   4.452  0.7649  0.3276 -0.4142
    1MOL0     C   63   6.831   7.443   4.323 -1.1952  0.3294  0.1049
    1MOL0     C   64   6.883   7.443   4.205 -0.3194 -0.2928  0.8701
    1MOL0     C   65   6.138   7.238   4.489  0.0260  0.5195 -0.1852
    1MOL0     C   66   6.022   7.174   4.525  0.3817  0.1352  0.3582
    1MOL0     H   67   5.568   7.091   4.722 -0.2295  0.0780 -1.3702
    1MOL0     H   68   5.391   6.939   4.788 -0.7842 -2.4525  0.9171
    1MOL0     H   69   5.253   6.658   4.614  2.4335 -1.2944 -0.4630
    1MOL0     H   70   5.243   6.788   4.721  0.7115  0.1005 -2.1893
    1MOL0     H   71   5.186   6.639   4.919  4.0194 -2.0033  0.8229
    1MOL0     H   72   5.196   6.499   4.803  1.9548  0.9448 -3.0712
    1MOL0     H   73   4.995   6.723   4.763  0.3054  0.1492 -0.2790
    1MOL0     H   74   4.977   6.574   4.862  0.1125  3.4127  2.0022
    1MOL0     H   75   5.065   6.538   4.578  2.5036  1.4405  2.8830
    1MOL0     H   76   4.977   6.432   4.684  1.0928  1.0050  2.9346
    1MOL0     H   77   4.848   6.674   4.543 -1.9855  2.1931  4.0063
    1MOL0     H   78   4.770   6.594   4.680 -1.2109 -0.1469 -2.1201
    1MOL0     H   79   4.742   6.382   4.567 -1.2093 -0.8557 -2.8500
    1MOL0     H   80   4.859   6.440   4.440 -0.3492  0.8840 -0.1518
    1MOL0     H   81   4.597   6.587   4.519 -1.2876 -1.5935  0.9320
    1MOL0     H   82   4.666   6.605   4.360  1.4743 -0.0158 -1.2748
    1MOL0     H   83   4.533   6.348   4.466 -1.8426 -0.4810 -1.6025
    1MOL0     H   84   4.612   6.356   4.311  0.0250 -1.8059  0.5210
    1MOL0     H   85   4.306   6.463   4.534 -0.7764  1.1782  0.7559
    1MOL0     H   86   4.074   6.503   4.496 -0.5797 -0.2116  0.2688
    1MOL0     H   87   4.063   6.347   4.431  1.8055 -1.8394 -2.0020
    1MOL0     H   88   3.975   6.441   4.211  2.8603  1.4799 -0.2584
    1MOL0     H   89   4.026   6.591   4.255 -0.6190 -0.1778 -0.6235
    1MOL0     H   90   3.830   6.595   4.442 -3.4344  0.6744 -1.3601
    1MOL0     H   91   3.771   6.582   4.292 -0.4976  1.8505  0.8721
    1MOL0     H   92   3.842   6.344   4.476 -0.5470 -1.5257 -0.7008
    1MOL0     H   93   3.746   6.323   4.331  0.1896  1.6145 -2.2152
    1MOL0     H   94   3.393   6.494   4.481 -0.5239 -0.7484 -0.3142
    1MOL0     H   95   3.201   6.350   4.462  1.7225  1.8303  0.3725
    1MOL0     H   96   3.037   5.915   4.242  1.2403 -2.0893  1.3188
    1MOL0     H   97   2.830   5.796   4.235  1.2869  1.6415 -1.7013
    1MOL0     H   98   2.655   5.667   4.476 -2.2783  1.9135  1.7315
    1MOL0     H   99   2.631   5.642   4.301 -1.4435 -1.8669  0.4764
    1MOL0     H  100   2.399   5.730   4.343 -1.6523 -1.0104 -1.0214
    1MOL0     H  101   2.420   5.726   4.516 -3.1329 -2.1285  0.0178
    1MOL0     H  102   2.484   5.479   4.507 -0.7884  0.1111 -0.1119
    1MOL0     H  103   2.458   5.486   4.329 -0.4990 -0.0197 -0.2338
    1MOL0     H  104   2.247   5.540   4.546 -1.4719 -1.0391  0.6017
    1MOL0     H  105   2.225   5.544   4.378 -1.4824  1.1153  2.4646
    1MOL0     H  106   2.324   5.299   4.537 -0.6775 -0.6808 -0.5304
    1MOL0     H  107   2.263   5.300   4.361 -0.6499  1.9167 -1.1742
    1MOL0     H  108   2.097   5.370   4.615 -2.0026 -0.3453  0.5557
    1MOL0     H  109   2.101   5.211   4.535 -0.9288 -0.0367  1.6559
    1MOL0     H  110   1.990   5.478   4.412 -3.1208  0.2707 -0.5748
    1MOL0     H  111   1.996   5.340   4.323 -0.3906  1.9820 -0.5082
    1MOL0     H  112   1.842   5.375   4.588  1.9813 -0.5326  0.4033
    1MOL0     H  113   1.847   5.216   4.498 -0.7457 -0.0112 -0.8619
    1MOL0     H  114   2.667   6.027   4.551 -0.4077 -1.1369  0.4931
    1MOL0     H  115   2.877   6.154   4.565  0.2151 -0.7027 -1.4512
    1MOL0     H  116   3.470   6.009   4.447 -3.4509 -0.9267  0.8133
    1MOL0     H  117   3.662   6.168   4.451  0.2790  2.1957  1.1746
    1MOL0     H  118   5.614   6.600   4.645  1.2420 -0.3338 -0.7574
    1MOL0     H  119   5.778   6.754   4.553 -0.9693 -3.0214 -0.1615
    1MOL0     H  120   6.062   7.157   4.855  2.1265 -2.4408  0.7767
    1MOL0     H  121   6.270   7.278   4.802 -1.1925  3.5653 -0.6680
    1MOL0     H  122   6.307   7.440   4.400  1.1517  0.7120 -0.6105
    1MOL0     H  123   6.385   7.285   4.367 -0.0295 -1.0627  2.1863
    1MOL0     H  124   6.538   7.465   4.316  2.8329  0.8578  0.9799
    1MOL0     H  125   6.502   7.533   4.476  0.2080 -0.3822  0.6999
    1MOL0     H  126   6.644   7.281   4.397 -0.0005  1.6163 -2.2050
    1MOL0     H  127   6.635   7.346   4.568  2.1758  0.3955 -0.6753
    1MOL0     H  128   6.753   7.560   4.480 -0.3777 -0.4177  2.1533
    1MOL0     H  129   6.829   7.420   4.535 -1.9033 -1.8344  0.8701
    1MOL0     H  130   6.915   7.441   4.103 -0.4265 -1.7904  0.8412
    1MOL0     H  131   6.159   7.247   4.383  1.6727  1.3583  0.1813
    1MOL0     H  132   5.951   7.142   4.449 -0.0281  0.0862  0.7523
    2MOL0     O  133   8.064   8.410   9.043 -0.8724 -0.0203  0.7240
    2MOL0     C  134   8.055   8.362   8.929 -0.5700 -0.3131  0.8866
    2MOL0     O  135   7.946   8.311   8.873  0.5320  0.6182  0.2624
    2MOL0     C  136   7.817   8.338   8.924  0.5389  0.4015  0.7294
    2MOL0     C  137   7.783   8.397   9.051  1.1746 -0.4746 -0.1445
    2MOL0     C  138   7.645   8.415   9.086  0.0761 -0.0484 -0.6731
    2MOL0     C  139   7.547   8.378   9.000  0.4258  0.6970 -0.8021
    2MOL0     O  140   7.421   8.418   9.030 -0.2087 -0.1795 -0.1340
    2MOL0     C  141   7.314   8.393   8.936  0.5323 -1.6244 -0.3694
    2MOL0     C  142   7.182   8.449   8.979  1.0283  0.0920  0.6489
    2MOL0     C  143   7.175   8.607   8.982  0.4800 -0.3741  0.0855
    2MOL0     C  144   7.055   8.664   9.058  0.2559  0.4827 -0.0302
    2MOL0     C  145   7.077   8.800   9.109  0.5986  0.0614  0.2020
    2MOL0     C  146   6.980   8.834   9.227  0.7705  1.2345 -0.1181
    2MOL0     C  147   6.831   8.841   9.199 -0.6121 -0.2015 -0.7299
    2MOL0     C  148   6.761   8.886   9.327 -0.3515 -0.7965  0.2816
    2MOL0     N  149   6.617   8.877   9.309 -0.2000  0.3797 -0.5592
    2MOL0     C  150   6.544   8.766   9.283  0.4303 -0.1200 -0.7918
    2MOL0     C  151   6.419   8.811   9.269  0.0947 -0.4884  0.7654
    2MOL0     C  152   6.297   8.735   9.246  0.2601 -0.3905  0.2826
    2MOL0     C  153   6.186   8.775   9.345 -0.5038  0.3529  0.4304
    2MOL0     C  154   6.120   8.910   9.315 -0.2002  0.3839  0.8146
    2MOL0     C  155   6.080   8.936   9.167  0.1900  0.2731  0.2388
    2MOL0     O  156   5.993   8.833   9.124  0.0931  1.1873  0.1759
    2MOL0     C  157   5.864   8.868   9.088 -0.0725 -0.1252 -0.5723
    2MOL0     C  158   5.758   8.837   9.171  0.0584 -0.1444 -0.2016
    2MOL0     C  159   5.625   8.852   9.132 -0.0001  0.5463  0.6113
    2MOL0     C  160   5.589   8.911   9.004  0.5168  0.4723 -0.2681
    2MOL0     C  161   5.448   8.939   8.964  0.6513  0.5151 -0.9197
    2MOL0     O  162   5.352   8.893   9.051  0.2026  0.3895 -0.2071
    2MOL0     C  163   5.221   8.923   9.024  0.4829  0.4564 -0.0089
    2MOL0     C  164   5.148   8.821   8.953 -0.7724 -0.9619  0.4986
    2MOL0     C  165   5.013   8.835   8.922  1.1680  0.2642 -0.6029
    2MOL0     C  166   4.943   8.951   8.974 -0.0724  0.3187  0.1668
    2MOL0     O  167   4.802   8.973   8.964 -0.3236  0.4915  0.1827
    2MOL0     C  168   4.710   8.863   8.969  0.0415  0.9050  0.2365
    2MOL0     C  169   4.626   8.858   8.846 -0.5795 -0.7785 -0.2090
    2MOL0     C  170   4.497   8.786   8.837 -0.6929  0.1700  0.0251
    2MOL0     C  171   4.513   8.632   8.847  0.8702 -0.4324 -0.2060
    2MOL0     C  172   4.385   8.554   8.816  0.1447 -0.1137  0.2039
    2MOL0     C  173   4.400   8.402   8.788  0.0642 -0.1124 -0.2544
    2MOL0     C  174   4.429   8.331   8.918  0.0240  0.1283 -0.0990
    2MOL0     C  175   4.463   8.188   8.902  0.3276  0.4071  0.2429
    2MOL0    Cl  176   4.512   8.098   9.045  0.1206 -0.1380 -0.1732
    2MOL0     C  177   5.014   9.055   9.039 -0.1779  0.3593 -0.1408
    2MOL0     C  178   5.151   9.038   9.054  0.0926 -0.1720  0.2471
    2MOL0     O  179   5.431   8.977   8.848  0.1117  0.0384 -0.5659
    2MOL0     C  180   5.703   8.948   8.927  0.0297 -0.4038  0.0135
    2MOL0     C  181   5.837   8.928   8.966 -0.3711  0.6892  0.2523
    2MOL0     N  182   6.420   8.951   9.275  1.1734  0.2984  0.9041
    2MOL0     N  183   6.540   8.980   9.292 -0.2253  0.2904  0.0043
    2MOL0     C  184   7.582   8.296   8.889 -0.6736  0.1109  0.1506
    2MOL0     C  185   7.710   8.276   8.849  0.1031  0.0902  0.1252
    2MOL0     C  186   8.179   8.340   8.847 -0.9580  0.6687  0.8157
    2MOL0     C  187   8.306   8.340   8.910 -0.6855 -0.4572 -0.3191
    2MOL0     C  188   8.423   8.330   8.835 -1.0046 -0.0060 -0.5831
    2MOL0     C  189   8.418   8.319   8.694  0.5528  0.3928 -0.1976
    2MOL0     O  190   8.521   8.305   8.600 -0.5119 -0.5448 -0.2057
    2MOL0     C  191   8.656   8.323   8.655  0.1579 -0.3964 -0.1500
    2MOL0     C  192   8.693   8.470   8.671 -1.0358 -0.2298 -0.3591
    2MOL0     C  193   8.842   8.488   8.683 -0.3316  0.4815 -0.1262
    2MOL0     C  194   8.891   8.629   8.708  0.1761  0.1018  0.2951
    2MOL0     C  195   8.846   8.681   8.840 -0.4933  0.5779  0.2189
    2MOL0     C  196   8.816   8.715   8.949  0.0816  0.3454 -0.2317
    2MOL0     C  197   8.290   8.302   8.638 -0.4147 -0.0993  0.5423
    2MOL0     C  198   8.172   8.310   8.714 -0.1509 -0.5552  0.9168
    2MOL0     H  199   7.850   8.436   9.127 -0.2636 -0.6850  1.2639
    2MOL0     H  200   7.626   8.466   9.180  2.3358 -0.7127  0.2056
    2MOL0     H  201   7.300   8.285   8.923  2.8414 -1.9899 -0.2768
    2MOL0     H  202   7.345   8.444   8.844  2.1009 -0.3780  0.7809
    2MOL0     H  203   7.158   8.406   9.077  1.9897 -0.2960  0.7259
    2MOL0     H  204   7.106   8.412   8.908 -0.0518  1.2427  1.1686
    2MOL0     H  205   7.171   8.652   8.882 -0.8476 -0.1883  0.2017
    2MOL0     H  206   7.266   8.639   9.033  0.2923 -0.2000  0.3098
    2MOL0     H  207   6.961   8.667   9.002  0.1627 -0.1904  0.0860
    2MOL0     H  208   7.044   8.590   9.138  1.1348  1.5398  1.1154
    2MOL0     H  209   7.064   8.873   9.027  0.1680 -1.1627 -0.8615
    2MOL0     H  210   7.177   8.810   9.152  0.8856  2.9500 -0.8754
    2MOL0     H  211   7.009   8.931   9.268 -0.1496  1.1336  0.8279
    2MOL0     H  212   7.004   8.759   9.303  0.1163 -1.5255 -2.4332
    2MOL0     H  213   6.800   8.904   9.115 -1.7819 -0.8774 -0.8262
    2MOL0     H  214   6.796   8.743   9.165 -1.0107  0.1028 -1.2133
    2MOL0     H  215   6.787   8.992   9.339 -1.4026  0.0006 -3.3543
    2MOL0     H  216   6.798   8.840   9.419  2.0376 -2.6675 -1.4733
    2MOL0     H  217   6.578   8.664   9.283 -1.4318 -0.8294 -2.5563
    2MOL0     H  218   6.321   8.628   9.245 -0.1014 -0.4674 -0.0886
    2MOL0     H  219   6.259   8.746   9.144  0.2064 -0.8936  0.2465
    2MOL0     H  220   6.217   8.769   9.449 -1.0783  0.8667  0.6366
    2MOL0     H  221   6.103   8.706   9.327 -1.0896  1.2309 -0.3450
    2MOL0     H  222   6.029   8.928   9.372  0.8914 -1.5742  3.3689
    2MOL0     H  223   6.188   8.981   9.362  2.4467 -1.5388  0.1537
    2MOL0     H  224   6.166   8.942   9.099 -0.4910 -3.1461 -1.1120
    2MOL0     H  225   6.032   9.032   9.147  0.4287  0.0549 -1.5320
    2MOL0     H  226   5.786   8.787   9.264 -2.1624 -1.8506 -0.3744
    2MOL0     H  227   5.545   8.817   9.197  0.2847  1.0822  1.2629
    2MOL0     H  228   5.209   8.743   8.906  2.5328  1.0793  1.0707
    2MOL0     H  229   4.955   8.755   8.877  0.8192  0.0467  0.2026
    2MOL0     H  230   4.643   8.873   9.055 -3.3181  0.4321 -2.1416
    2MOL0     H  231   4.761   8.767   8.979 -1.6376 -0.0604 -0.2941
    2MOL0     H  232   4.694   8.823   8.768  0.5913 -0.2116  0.5264
    2MOL0     H  233   4.611   8.965   8.829 -0.9804 -0.8204 -0.1257
    2MOL0     H  234   4.444   8.808   8.744 -2.1390  3.7827  1.5471
    2MOL0     H  235   4.429   8.815   8.918 -3.3095  1.8026 -2.5723
    2MOL0     H  236   4.585   8.600   8.772  0.4988  0.9059 -1.1759
    2MOL0     H  237   4.557   8.607   8.944 -0.9630 -1.6944  0.3700
    2MOL0     H  238   4.339   8.586   8.722  0.4791 -1.7792 -0.5728
    2MOL0     H  239   4.299   8.567   8.883  0.8369  0.9192  0.9107
    2MOL0     H  240   4.477   8.377   8.715  0.6366 -0.4649  0.4591
    2MOL0     H  241   4.304   8.368   8.750  0.1206  0.3192 -0.7834
    2MOL0     H  242   4.505   8.392   8.967 -0.9877  1.8380 -0.5643
    2MOL0     H  243   4.338   8.331   8.980 -0.8333 -1.6757 -1.2891
    2MOL0     H  244   4.522   8.167   8.812 -0.9760  0.6451 -0.7078
    2MOL0     H  245   4.369   8.147   8.863 -0.1579  2.4007 -0.8569
    2MOL0     H  246   4.966   9.147   9.073 -0.8714  0.7049 -1.9535
    2MOL0     H  247   5.208   9.117   9.102  0.1182 -0.2123  0.2837
    2MOL0     H  248   5.683   9.015   8.843 -1.5934  2.0551  2.1922
    2MOL0     H  249   5.920   8.949   8.900  0.4241 -1.9600  0.3069
    2MOL0     H  250   7.503   8.255   8.826 -1.2321  0.4236  0.6367
    2MOL0     H  251   7.738   8.218   8.761  3.1979 -0.9263  1.6508
    2MOL0     H  252   8.316   8.377   9.012 -1.4727  2.0137 -1.0547
    2MOL0     H  253   8.515   8.327   8.893 -1.7373 -0.6211  0.6150
    2MOL0     H  254   8.719   8.274   8.580 -0.1692  0.7360 -1.2034
    2MOL0     H  255   8.675   8.274   8.751  0.9762  2.2021  1.1091
    2MOL0     H  256   8.659   8.525   8.583  1.3386  1.3406 -0.3805
    2MOL0     H  257   8.646   8.508   8.763 -1.1847 -0.5458 -0.3030
    2MOL0     H  258   8.892   8.447   8.595  1.3606  0.4562  0.8011
    2MOL0     H  259   8.884   8.434   8.769  0.8475  0.6074 -0.6021
    2MOL0     H  260   8.999   8.646   8.702 -0.3133  3.4182 -1.8461
    2MOL0     H  261   8.855   8.689   8.624  2.3581 -2.1089 -2.4707
    2MOL0     H  262   8.796   8.751   9.047 -1.9715 -2.8675  0.6966
    2MOL0     H  263   8.293   8.291   8.530  2.7009  1.8862  0.2816
    2MOL0     H  264   8.076   8.306   8.664 -0.8544 -0.1869  2.1928
    3MOL0     O  265   2.380   2.763   5.402 -0.8343 -0.6790  0.6309
    3MOL0     C  266   2.460   2.717   5.483 -0.2188  0.1474  0.0170
    3MOL0     O  267   2.435   2.672   5.608  0.4271 -0.2758  0.0977
    3MOL0     C  268   2.320   2.628   5.666  1.5825  0.0471 -0.7744
    3MOL0     C  269   2.325   2.541   5.774 -0.1708 -0.8184  0.3026
    3MOL0     C  270   2.204   2.488   5.827  0.3990  0.1963  0.3769
    3MOL0     C  271   2.075   2.530   5.787 -0.3333 -0.8766  1.0183
    3MOL0     O  272   1.964   2.485   5.861  0.4764 -0.5402 -0.6713
    3MOL0     C  273   1.842   2.566   5.862 -0.0441 -0.5575 -0.6732
    3MOL0     C  274   1.743   2.486   5.959 -0.0403  0.5012  0.2502
    3MOL0     C  275   1.623   2.580   5.970  0.0336  0.0537 -0.3098
    3MOL0     C  276   1.519   2.542   6.078  0.6524 -0.0528  0.6318
    3MOL0     C  277   1.395   2.631   6.069 -0.1785  0.4484  0.0829
    3MOL0     C  278   1.298   2.605   6.188 -0.3863 -0.0528  0.6223
    3MOL0     C  279   1.195   2.717   6.182  0.4949  0.4151 -0.3392
    3MOL0     C  280   1.088   2.705   6.296 -0.7744  0.2427  0.1880
    3MOL0     N  281   0.982   2.611   6.265  0.7329 -0.3289 -0.1046
    3MOL0     C  282   0.912   2.610   6.142 -0.0853 -0.1474  0.4253
    3MOL0     C  283   0.812   2.527   6.159  0.5108  0.2663 -0.2192
    3MOL0     C  284   0.695   2.494   6.057 -0.5277 -0.1850  0.2820
    3MOL0     C  285   0.556   2.488   6.123 -0.0975  1.2454  0.3221
    3MOL0     C  286   0.509   2.630   6.133  0.9555 -0.0243 -0.1267
    3MOL0     C  287   0.375   2.630   6.194  0.7836  0.3460 -0.1656
    3MOL0     O  288   0.339   2.770   6.214 -0.8008 -0.0692 -0.1376
    3MOL0     C  289   0.214   2.812   6.235 -0.4019  0.0141  0.1396
    3MOL0     C  290   0.112   2.721   6.268 -0.0174 -1.1327  0.3905
    3MOL0     C  291  -0.016   2.765   6.292 -0.4552 -0.2238 -0.0738
    3MOL0     C  292  -0.051   2.901   6.296 -0.1644  0.4396  0.7505
    3MOL0     C  293  -0.183   2.954   6.322 -0.6657  0.9006 -0.1220
    3MOL0     O  294  -0.263   2.861   6.370  0.0656  0.6813 -0.3852
    3MOL0     C  295  -0.367   2.899   6.457 -0.3864 -0.0235  0.6821
    3MOL0     C  296  -0.498   2.867   6.437  0.8142 -0.9970 -0.1492
    3MOL0     C  297  -0.601   2.914   6.523  0.5118  0.6057  0.0832
    3MOL0     C  298  -0.569   2.978   6.646 -0.3121  0.5512  0.9106
    3MOL0     O  299  -0.657   3.017   6.746 -0.3213  0.3581 -0.1790
    3MOL0     C  300  -0.786   2.958   6.738  0.4609 -1.2847 -0.0587
    3MOL0     C  301  -0.887   3.002   6.850 -0.2274  0.0890 -0.4817
    3MOL0     C  302  -0.836   2.976   6.991  0.6208 -0.2111 -0.5596
    3MOL0     C  303  -0.928   3.006   7.105 -0.4129  0.8318  0.9452
    3MOL0     C  304  -1.065   2.932   7.110 -0.2582  0.5672 -0.7007
    3MOL0     C  305  -1.038   2.785   7.131  0.1480 -0.1614 -0.1980
    3MOL0     C  306  -1.162   2.704   7.157  0.1226  0.0156 -0.4972
    3MOL0     C  307  -1.225   2.647   7.023 -0.0880 -0.1415 -0.6153
    3MOL0    Cl  308  -1.361   2.535   7.070 -0.3106  0.2513  0.5332
    3MOL0     C  309  -0.428   2.999   6.672 -0.5955  1.5098 -0.6190
    3MOL0     C  310  -0.328   2.952   6.583 -0.2617  0.6466  0.2448
    3MOL0     O  311  -0.214   3.065   6.308 -0.3430  0.5156 -0.3228
    3MOL0     C  312   0.053   2.991   6.254  0.6049 -0.3726  0.1786
    3MOL0     C  313   0.185   2.952   6.233 -0.4092  0.1399 -0.0355
    3MOL0     N  314   0.833   2.462   6.280  0.1426 -0.3117  0.9130
    3MOL0     N  315   0.930   2.515   6.344 -0.0754  0.4759 -0.0876
    3MOL0     C  316   2.079   2.635   5.691  0.3017 -0.3509  0.8350
    3MOL0     C  317   2.193   2.679   5.634  0.2113  0.1687  0.3598
    3MOL0     C  318   2.606   2.706   5.450  0.0523 -0.2269 -0.0243
    3MOL0     C  319   2.663   2.782   5.352  0.2439  0.5749  0.1623
    3MOL0     C  320   2.802   2.772   5.334  1.3338  0.0101  0.5378
    3MOL0     C  321   2.883   2.693   5.412 -1.2312  0.9089 -0.9498
    3MOL0     O  322   3.015   2.682   5.379  0.0130 -0.4429 -0.0046
    3MOL0     C  323   3.109   2.676   5.489  0.2238  0.4294  0.4614
    3MOL0     C  324   3.249   2.733   5.447 -1.0093 -0.2175  0.2053
    3MOL0     C  325   3.264   2.881   5.447  0.0522  1.1872  0.5231
    3MOL0     C  326   3.381   2.934   5.369  0.4677 -0.1725  0.2479
    3MOL0     C  327   3.507   2.867   5.407 -0.1094  0.9801  0.7093
    3MOL0     C  328   3.593   2.790   5.440  0.2654  0.0518 -0.9466
    3MOL0     C  329   2.825   2.619   5.517 -0.2230  0.2244  0.0676
    3MOL0     C  330   2.690   2.631   5.535  0.2076  0.1092 -0.1063
    3MOL0     H  331   2.419   2.504   5.813  0.2423 -0.9160 -0.7445
    3MOL0     H  332   2.207   2.416   5.909  0.7147  0.2664  0.4291
    3MOL0     H  333   1.795   2.578   5.763  2.0352  0.1295 -1.6274
    3MOL0     H  334   1.863   2.669   5.893  0.2821 -0.4517 -1.2192
    3MOL0     H  335   1.789   2.479   6.058  0.3841  1.8771  0.1852
    3MOL0     H  336   1.723   2.387   5.919  2.6537 -0.3935  0.8940
    3MOL0     H  337   1.569   2.579   5.874  0.3762  1.7715 -0.5423
    3MOL0     H  338   1.660   2.680   5.993  1.6172 -0.3976 -0.8046
    3MOL0     H  339   1.492   2.439   6.056  1.1068  0.0793 -0.6338
    3MOL0     H  340   1.571   2.559   6.173  1.3623 -1.2862  0.4843
    3MOL0     H  341   1.333   2.613   5.980 -0.8426 -0.1741  0.6600
    3MOL0     H  342   1.425   2.736   6.067  2.7079 -0.3189 -0.3886
    3MOL0     H  343   1.338   2.595   6.289 -0.4768  1.4322  0.8181
    3MOL0     H  344   1.255   2.507   6.164 -2.2869  0.8515  0.1612
    3MOL0     H  345   1.240   2.817   6.191 -0.3209  0.8975 -1.4432
    3MOL0     H  346   1.140   2.707   6.089 -0.5057 -0.7515  0.3517
    3MOL0     H  347   1.054   2.808   6.302  1.1857  1.1291 -2.0431
    3MOL0     H  348   1.128   2.687   6.397  1.2319  2.1471 -0.1944
    3MOL0     H  349   0.924   2.670   6.052  0.7911 -0.0326  0.6075
    3MOL0     H  350   0.710   2.402   5.999 -2.5681 -0.6077  0.3581
    3MOL0     H  351   0.689   2.578   5.988  0.2619  1.2028  1.8354
    3MOL0     H  352   0.563   2.438   6.219  1.2261  1.0607  0.1452
    3MOL0     H  353   0.478   2.433   6.069 -0.4011  1.1999  0.8088
    3MOL0     H  354   0.573   2.685   6.202 -2.0957  0.9579  2.1565
    3MOL0     H  355   0.501   2.689   6.041  0.7988  1.1342  0.6102
    3MOL0     H  356   0.376   2.581   6.292 -1.4072  0.3912 -0.0604
    3MOL0     H  357   0.308   2.578   6.125  0.8804  0.2190 -0.1647
    3MOL0     H  358   0.135   2.615   6.270  0.0815 -1.1544 -0.9296
    3MOL0     H  359  -0.092   2.691   6.315  2.6735 -3.1439  1.7590
    3MOL0     H  360  -0.527   2.822   6.343 -1.4397  0.3933 -0.1839
    3MOL0     H  361  -0.703   2.911   6.486  0.6866 -0.9486 -0.3685
    3MOL0     H  362  -0.781   2.849   6.736  3.6359 -1.2207  0.3760
    3MOL0     H  363  -0.824   2.989   6.640  1.3700  0.8828  0.2120
    3MOL0     H  364  -0.977   2.941   6.834 -2.2932  2.3641  1.5527
    3MOL0     H  365  -0.914   3.106   6.830 -0.2903  0.0498 -0.5986
    3MOL0     H  366  -0.751   3.043   7.002  0.6857 -0.1716 -1.2419
    3MOL0     H  367  -0.806   2.872   7.008 -0.8067 -0.4364  0.7162
    3MOL0     H  368  -0.868   3.008   7.196  2.3001 -2.0398 -0.5825
    3MOL0     H  369  -0.970   3.106   7.090 -2.1354  0.1236  0.8748
    3MOL0     H  370  -1.131   2.930   7.023 -2.6063 -1.4972  0.9753
    3MOL0     H  371  -1.119   2.975   7.195  2.0817 -0.8695  1.6932
    3MOL0     H  372  -0.981   2.789   7.225 -2.5410 -3.8597  1.8605
    3MOL0     H  373  -0.982   2.740   7.049 -2.3095 -1.7213 -1.1478
    3MOL0     H  374  -1.141   2.618   7.222 -0.5481 -0.5901 -1.0648
    3MOL0     H  375  -1.231   2.773   7.205 -1.7013 -1.4353 -0.9242
    3MOL0     H  376  -1.146   2.594   6.968 -0.5021 -0.9003 -0.4951
    3MOL0     H  377  -1.274   2.726   6.967  1.2711  3.2013  2.5414
    3MOL0     H  378  -0.405   3.025   6.775 -0.2907  1.6814 -0.7296
    3MOL0     H  379  -0.224   2.961   6.612 -0.2160  0.4920  0.1302
    3MOL0     H  380   0.040   3.097   6.273  1.8291 -0.0290 -0.7480
    3MOL0     H  381   0.258   3.031   6.217  0.4346 -0.5199  0.4429
    3MOL0     H  382   1.987   2.687   5.670  1.6997  1.4261 -1.2390
    3MOL0     H  383   2.187   2.760   5.563  4.2740  0.3186 -0.0291
    3MOL0     H  384   2.605   2.846   5.286  1.5233 -0.1772 -1.7978
    3MOL0     H  385   2.843   2.833   5.253  1.2089 -2.2059 -1.2926
    3MOL0     H  386   3.114   2.573   5.527 -0.0870  0.6326  1.0643
    3MOL0     H  387   3.071   2.736   5.572  1.1229 -0.1717  1.3448
    3MOL0     H  388   3.322   2.692   5.517 -0.0387 -1.0187 -1.2303
    3MOL0     H  389   3.276   2.698   5.347 -1.9486 -0.1831 -0.0741
    3MOL0     H  390   3.259   2.913   5.552  2.7468  0.3390  0.9896
    3MOL0     H  391   3.178   2.922   5.392 -0.1761 -1.5375 -1.3290
    3MOL0     H  392   3.355   2.924   5.264 -0.8348 -0.0623  0.5444
    3MOL0     H  393   3.386   3.041   5.391 -0.4708 -0.0916  0.1256
    3MOL0     H  394   3.665   2.722   5.483 -2.1095 -1.9247  0.1368
    3MOL0     H  395   2.875   2.556   5.590  0.5296  1.9854  1.1571
    3MOL0     H  396   2.657   2.566   5.615 -2.1765  0.7029 -0.5193
    4MOL0     O  397   3.426   4.876   3.359 -0.0011 -0.1562  0.7832
    4MOL0     C  398   3.376   4.957   3.289  0.2794 -0.8529 -0.5032
    4MOL0     O  399   3.253   4.998   3.302  1.0819  0.0210  0.0328
    4MOL0     C  400   3.175   4.969   3.412 -0.3009 -1.2014 -0.2858
    4MOL0     C  401   3.041   5.002   3.375  0.3233 -0.2701 -0.1483
    4MOL0     C  402   2.936   4.960   3.452  0.4798 -0.1299 -0.2545
    4MOL0     C  403   2.964   4.889   3.574  0.6771 -0.0721  0.0045
    4MOL0     O  404   2.874   4.845   3.672 -0.1484  0.2111  0.3030
    4MOL0     C  405   2.745   4.806   3.621 -0.0694  0.6079  0.2359
    4MOL0     C  406   2.753   4.666   3.554 -0.9143  0.4434  0.1606
    4MOL0     C  407   2.619   4.608   3.523  0.0841 -0.3529  0.7665
    4MOL0     C  408   2.609   4.459   3.569 -0.2300 -0.4557  0.3427
    4MOL0     C  409   2.478   4.395   3.570 -0.8348  0.3808 -0.4462
    4MOL0     C  410   2.425   4.412   3.709 -0.1272 -0.0611  1.5659
    4MOL0     C  411   2.275   4.380   3.727 -0.1141  0.3080  0.0789
    4MOL0     C  412   2.194   4.489   3.660 -0.0916 -0.0570 -0.4235
    4MOL0     N  413   2.057   4.488   3.702  0.1517  0.0904  0.5645
    4MOL0     C  414   2.014   4.556   3.813 -0.0473  0.7502  0.4069
    4MOL0     C  415   1.883   4.540   3.821  0.3585 -0.5143  0.2925
    4MOL0     C  416   1.811   4.566   3.947  0.3774  0.5187  0.4128
    4MOL0     C  417   1.704   4.669   3.952 -0.5797  0.7324  0.3789
    4MOL0     C  418   1.591   4.655   3.856  0.1218 -0.0710  0.7593
    4MOL0     C  419   1.489   4.552   3.897  0.0029  0.1029 -0.4106
    4MOL0     O  420   1.457   4.550   4.038  0.0501 -0.0621  0.3457
    4MOL0     C  421   1.330   4.514   4.086  0.1191 -1.9669  0.2477
    4MOL0     C  422   1.288   4.566   4.208 -0.0563  0.4138  0.0993
    4MOL0     C  423   1.171   4.526   4.270  0.4791 -0.4858  0.8954
    4MOL0     C  424   1.094   4.429   4.205 -0.3544 -0.1455 -0.4932
    4MOL0     C  425   0.967   4.387   4.271 -1.2063 -0.0731 -0.4730
    4MOL0     O  426   0.921   4.264   4.239 -0.0606  0.2498 -0.4334
    4MOL0     C  427   0.823   4.220   4.321 -1.7015  0.5203 -0.0792
    4MOL0     C  428   0.844   4.104   4.384  0.5644 -0.0086 -0.3844
    4MOL0     C  429   0.736   4.052   4.465 -1.3440  0.0373  0.3363
    4MOL0     C  430   0.608   4.113   4.463  0.0496 -0.6058 -0.6011
    4MOL0     O  431   0.508   4.059   4.534  0.4192 -0.5705 -0.4236
    4MOL0     C  432   0.374   4.091   4.494  0.4968  0.6636  0.0949
    4MOL0     C  433   0.269   4.003   4.553 -0.3883  0.6545  0.4290
    4MOL0     C  434   0.256   3.875   4.480 -0.0804 -0.3245 -0.3665
    4MOL0     C  435   0.243   3.871   4.334  0.4915 -0.2905  0.0621
    4MOL0     C  436   0.176   3.738   4.278 -0.3145  0.0116 -1.0232
    4MOL0     C  437   0.022   3.754   4.293  0.3219  0.0038  0.5950
    4MOL0     C  438  -0.048   3.637   4.228  1.0996  0.7096  0.2422
    4MOL0     C  439  -0.197   3.640   4.283 -0.3721  0.6168  0.5911
    4MOL0    Cl  440  -0.280   3.796   4.259 -0.1436  0.3139  0.2805
    4MOL0     C  441   0.592   4.228   4.380 -0.4563 -0.4132  0.0442
    4MOL0     C  442   0.706   4.284   4.316  0.0683  1.3587 -0.8963
    4MOL0     O  443   0.944   4.455   4.367  0.6311  0.0871 -0.2106
    4MOL0     C  444   1.136   4.377   4.085  0.0191  0.2029 -0.0925
    4MOL0     C  445   1.252   4.421   4.026 -1.1240 -0.4242 -0.0357
    4MOL0     N  446   1.847   4.480   3.704 -0.5017 -0.0704  0.3905
    4MOL0     N  447   1.949   4.452   3.628 -0.4974 -0.2322  0.0651
    4MOL0     C  448   3.093   4.864   3.614 -0.1597  0.0276 -0.4477
    4MOL0     C  449   3.198   4.900   3.530  0.4638 -0.1042  0.0012
    4MOL0     C  450   3.458   5.015   3.185 -0.0521  0.3455  0.3661
    4MOL0     C  451   3.396   5.093   3.088 -0.1364 -0.2819 -0.2237
    4MOL0     C  452   3.476   5.164   2.994  0.6147  0.6860 -0.6590
    4MOL0     C  453   3.617   5.154   2.995  0.4691  0.1308  0.0145
    4MOL0     O  454   3.674   5.227   2.894 -0.2122 -0.5012  0.6674
    4MOL0     C  455   3.811   5.242   2.903 -0.0370 -0.0376 -0.5017
    4MOL0     C  456   3.871   5.334   2.801  0.2999  0.1674 -0.4523
    4MOL0     C  457   4.024   5.319   2.803  0.1946 -0.2384  0.0650
    4MOL0     C  458   4.070   5.293   2.662  0.0833  0.2682  0.6256
    4MOL0     C  459   4.036   5.154   2.632  0.6365 -0.0425 -0.3679
    4MOL0     C  460   3.996   5.050   2.591  0.2362 -0.0682 -0.2540
    4MOL0     C  461   3.676   5.064   3.084  0.3306 -0.3235  0.6141
    4MOL0     C  462   3.598   4.991   3.179 -0.2306 -1.2038 -0.5292
    4MOL0     H  463   3.026   5.048   3.278 -1.6764 -1.7266 -0.6087
    4MOL0     H  464   2.835   4.981   3.419  0.6541  1.4647  0.1704
    4MOL0     H  465   2.713   4.882   3.549  0.1655 -0.4035 -0.9814
    4MOL0     H  466   2.675   4.803   3.705  0.5437 -0.2247  0.7230
    4MOL0     H  467   2.794   4.606   3.636 -0.9045  0.6865  0.3346
    4MOL0     H  468   2.815   4.655   3.465  0.0781 -2.8321  1.1112
    4MOL0     H  469   2.596   4.619   3.417 -0.2257 -0.6050  0.8042
    4MOL0     H  470   2.544   4.669   3.574 -0.3323  2.3038 -2.6425
    4MOL0     H  471   2.671   4.403   3.499  0.0670 -2.4506  2.1080
    4MOL0     H  472   2.654   4.453   3.668 -2.7504  2.3756  1.8358
    4MOL0     H  473   2.485   4.289   3.542  0.0716  1.4492 -5.0202
    4MOL0     H  474   2.414   4.436   3.491 -2.5756 -1.1582  0.0881
    4MOL0     H  475   2.442   4.508   3.757 -3.0573  1.0949  0.4975
    4MOL0     H  476   2.486   4.342   3.766  0.7243 -0.1882  0.5310
    4MOL0     H  477   2.256   4.279   3.689  1.8302 -1.3883  3.1843
    4MOL0     H  478   2.248   4.374   3.833 -2.7308  0.1544 -0.5193
    4MOL0     H  479   2.210   4.488   3.552  0.6722  0.7272 -0.3345
    4MOL0     H  480   2.232   4.584   3.699  1.3392 -1.0801  0.7976
    4MOL0     H  481   2.082   4.609   3.879 -0.2263 -0.5935  1.7421
    4MOL0     H  482   1.884   4.600   4.021  0.9962 -0.5481  0.3115
    4MOL0     H  483   1.759   4.480   3.991  1.8682  1.0684  3.5174
    4MOL0     H  484   1.763   4.752   3.912  1.1210 -1.2587 -1.5598
    4MOL0     H  485   1.676   4.692   4.055 -2.8324 -0.4327  0.0735
    4MOL0     H  486   1.544   4.753   3.846 -0.1679 -0.2781 -0.0243
    4MOL0     H  487   1.628   4.622   3.759  2.3729  3.2957  0.3179
    4MOL0     H  488   1.538   4.457   3.875 -2.4154 -1.1169 -0.7397
    4MOL0     H  489   1.395   4.566   3.844 -0.3095  1.9544  0.5483
    4MOL0     H  490   1.346   4.638   4.265 -0.1946  0.8643 -0.3200
    4MOL0     H  491   1.145   4.561   4.369  2.0859  1.0790  0.8131
    4MOL0     H  492   0.941   4.054   4.380  0.1358 -0.7780 -2.3583
    4MOL0     H  493   0.752   3.964   4.527 -0.0650 -0.9084 -1.2733
    4MOL0     H  494   0.362   4.099   4.386 -0.1102 -0.4615  0.0636
    4MOL0     H  495   0.366   4.185   4.551 -1.9999 -2.0412  4.8774
    4MOL0     H  496   0.175   4.057   4.537  0.1927  1.3330 -0.9424
    4MOL0     H  497   0.282   3.983   4.659 -0.6930 -1.7525  0.0676
    4MOL0     H  498   0.164   3.828   4.518  0.8766 -1.2369  0.8990
    4MOL0     H  499   0.337   3.809   4.510 -0.3662  0.1198  1.5076
    4MOL0     H  500   0.187   3.960   4.307 -0.9435 -1.1603  0.0608
    4MOL0     H  501   0.347   3.862   4.302  0.8895 -0.5452  1.3448
    4MOL0     H  502   0.214   3.653   4.335  1.5437  2.4860  1.7134
    4MOL0     H  503   0.204   3.714   4.175  0.3237 -0.8849 -0.6526
    4MOL0     H  504  -0.001   3.838   4.227  2.4017  1.9248  2.1591
    4MOL0     H  505  -0.014   3.787   4.391  2.8130 -0.1513  1.6201
    4MOL0     H  506  -0.037   3.649   4.119  0.9313  2.5675  0.3928
    4MOL0     H  507  -0.006   3.539   4.252 -2.3338 -1.1776 -0.8622
    4MOL0     H  508  -0.192   3.607   4.387  1.4797 -0.7736  0.1122
    4MOL0     H  509  -0.252   3.558   4.236 -0.1838 -0.4216  2.1056
    4MOL0     H  510   0.493   4.272   4.371  0.2829  1.3097 -0.1201
    4MOL0     H  511   0.691   4.371   4.253  2.9837  1.0665 -2.1124
    4MOL0     H  512   1.071   4.299   4.045  0.2787 -1.1838  2.0244
    4MOL0     H  513   1.284   4.362   3.941 -1.1079 -2.1965  1.1323
    4MOL0     H  514   3.102   4.826   3.716 -0.7718  1.2388  0.0825
    4MOL0     H  515   3.298   4.874   3.561  0.3804  0.5192  0.8311
    4MOL0     H  516   3.288   5.104   3.088 -0.2751 -1.5069 -0.7091
    4MOL0     H  517   3.431   5.235   2.927  0.2618  0.4741 -0.6496
    4MOL0     H  518   3.854   5.144   2.881  2.2243  0.7936 -0.0561
    4MOL0     H  519   3.839   5.287   2.999 -2.0060  1.0015 -0.3614
    4MOL0     H  520   3.833   5.305   2.703 -2.0166  2.1326 -0.2098
    4MOL0     H  521   3.857   5.439   2.827  2.2621  0.7217 -1.4408
    4MOL0     H  522   4.066   5.245   2.872  2.9639 -0.4970 -1.7230
    4MOL0     H  523   4.066   5.417   2.828 -0.8945 -0.3785  2.7689
    4MOL0     H  524   4.023   5.359   2.588  0.3381 -0.8665 -0.5782
    4MOL0     H  525   4.179   5.303   2.653  0.0019  2.1236  1.2275
    4MOL0     H  526   3.968   4.958   2.542 -0.4081  0.4087 -0.7938
    4MOL0     H  527   3.784   5.058   3.094  0.2799 -3.2190  0.5202
    4MOL0     H  528   3.647   4.930   3.254  3.1123  0.7064 -0.9827
    5MOL0     O  529   1.459   2.431   8.563  0.1817  0.6499 -0.1461
    5MOL0     C  530   1.561   2.465   8.625 -0.1509  0.3565  0.1791
    5MOL0     O  531   1.570   2.544   8.738 -0.0784  0.1118 -0.1104
    5MOL0     C  532   1.460   2.614   8.784 -0.1097 -0.0169  0.4157
    5MOL0     C  533   1.443   2.625   8.921  0.5090  1.0558  0.3608
    5MOL0     C  534   1.331   2.682   8.979  0.9869  0.5871  0.8143
    5MOL0     C  535   1.231   2.738   8.897 -0.2057 -0.7859 -0.1697
    5MOL0     O  536   1.122   2.786   8.967 -0.7822 -0.3092 -0.9869
    5MOL0     C  537   1.028   2.865   8.893 -0.2037  0.1834  0.2227
    5MOL0     C  538   0.913   2.908   8.990 -0.6306 -0.0343  0.3728
    5MOL0     C  539   0.798   2.985   8.929  0.0196 -0.3023  1.0274
    5MOL0     C  540   0.701   3.034   9.030  0.6785 -0.4472 -0.3244
    5MOL0     C  541   0.562   3.056   8.971 -0.2304 -0.0885 -0.0416
    5MOL0     C  542   0.480   3.128   9.078 -0.3842  0.5433  0.4838
    5MOL0     C  543   0.343   3.168   9.027 -0.1533  0.4503  0.0448
    5MOL0     C  544   0.255   3.215   9.147 -0.0067  0.1127  0.1863
    5MOL0     N  545   0.126   3.254   9.096 -0.9876 -0.6330 -0.0234
    5MOL0     C  546   0.066   3.378   9.133 -0.0500 -0.1908 -0.2555
    5MOL0     C  547  -0.043   3.379   9.057 -0.1219 -0.1885  0.5950
    5MOL0     C  548  -0.157   3.494   9.067 -0.2341 -0.8477  0.4533
    5MOL0     C  549  -0.231   3.480   9.202 -0.5436 -0.1971  0.0701
    5MOL0     C  550  -0.322   3.355   9.202 -0.6257  0.4777  0.2937
    5MOL0     C  551  -0.414   3.350   9.326  0.8334 -0.0405 -0.3552
    5MOL0     O  552  -0.453   3.212   9.362 -0.0779 -0.3014  0.1389
    5MOL0     C  553  -0.574   3.201   9.421 -0.4819  0.0299 -0.1605
    5MOL0     C  554  -0.658   3.308   9.461 -0.1299  0.2562 -0.5815
    5MOL0     C  555  -0.790   3.290   9.501  0.2952  0.7681 -0.2944
    5MOL0     C  556  -0.843   3.163   9.505 -0.3066  0.1903 -0.1030
    5MOL0     C  557  -0.970   3.141   9.567 -0.1991 -0.1789 -0.7545
    5MOL0     O  558  -1.016   3.008   9.580  0.1375  0.4394  0.3329
    5MOL0     C  559  -1.124   2.969   9.653 -0.0752  0.4062 -0.0952
    5MOL0     C  560  -1.152   2.834   9.641 -0.5680 -0.1954  1.1003
    5MOL0     C  561  -1.255   2.774   9.718  0.1223 -1.3145 -0.2966
    5MOL0     C  562  -1.326   2.852   9.817 -0.3983 -0.0798 -0.9411
    5MOL0     O  563  -1.427   2.804   9.893 -0.2786  0.4989 -0.4504
    5MOL0     C  564  -1.399   2.677   9.960  0.1199  0.0015 -0.1635
    5MOL0     C  565  -1.503   2.683  10.078  0.7184 -0.0990  0.1504
    5MOL0     C  566  -1.477   2.795  10.184  0.3793  0.5742  1.2418
    5MOL0     C  567  -1.362   2.761  10.283 -0.0716 -0.1538 -1.1516
    5MOL0     C  568  -1.394   2.637  10.371  0.5252 -0.7703  0.1892
    5MOL0     C  569  -1.485   2.669  10.492  0.7883  0.2114  1.3094
    5MOL0     C  570  -1.541   2.537  10.557  0.2183  0.0985  0.0895
    5MOL0     C  571  -1.436   2.450  10.617  0.5120  0.2177  0.9315
    5MOL0    Cl  572  -1.503   2.312  10.729  0.5003  0.0779  0.0093
    5MOL0     C  573  -1.295   2.984   9.843 -0.7062  0.0811  1.0844
    5MOL0     C  574  -1.201   3.048   9.751  0.1994 -0.7544 -0.5855
    5MOL0     O  575  -1.021   3.241   9.617  0.2446  0.6415 -0.1328
    5MOL0     C  576  -0.762   3.054   9.460  0.5058 -0.2253  1.0442
    5MOL0     C  577  -0.627   3.077   9.420 -0.1882 -0.6504 -0.3589
    5MOL0     N  578  -0.049   3.265   8.978 -0.2063 -0.2216  0.2322
    5MOL0     N  579   0.048   3.187   9.012 -0.6626 -0.3462 -0.2198
    5MOL0     C  580   1.253   2.736   8.757 -0.6800  0.0019 -0.2260
    5MOL0     C  581   1.368   2.671   8.702 -0.0611 -0.3158  1.2813
    5MOL0     C  582   1.681   2.386   8.601  0.3188  0.1944  0.1821
    5MOL0     C  583   1.697   2.312   8.476 -0.8268  0.0025  0.8060
    5MOL0     C  584   1.838   2.270   8.441 -0.1238  0.2432 -0.2386
    5MOL0     C  585   1.942   2.284   8.529 -0.2206  0.0192 -0.3688
    5MOL0     O  586   2.070   2.256   8.495 -0.1409  0.0511 -1.2374
    5MOL0     C  587   2.174   2.342   8.551 -0.1367  0.9347  0.1056
    5MOL0     C  588   2.308   2.321   8.487 -0.3013 -0.1070  0.4223
    5MOL0     C  589   2.330   2.383   8.349 -0.1025  0.3858  0.6323
    5MOL0     C  590   2.264   2.521   8.329 -0.5346  0.2129 -0.0089
    5MOL0     C  591   2.310   2.573   8.197  1.2175  0.9667 -0.4698
    5MOL0     C  592   2.334   2.633   8.094 -0.7552  0.5782  0.4000
    5MOL0     C  593   1.910   2.340   8.650 -0.7064 -0.0359  0.1960
    5MOL0     C  594   1.788   2.395   8.685  0.2757 -0.1538 -0.5922
    5MOL0     H  595   1.515   2.575   8.986  1.7118  1.7426 -0.4018
    5MOL0     H  596   1.305   2.679   9.084 -0.4894  1.2146  0.4819
    5MOL0     H  597   0.983   2.809   8.811  1.4032 -2.5565  1.0807
    5MOL0     H  598   1.078   2.952   8.849 -2.3575  1.0267 -0.7225
    5MOL0     H  599   0.966   2.968   9.065  3.3332 -1.8054 -0.7676
    5MOL0     H  600   0.875   2.823   9.048 -1.3711 -0.5859 -0.8838
    5MOL0     H  601   0.737   2.921   8.865  0.0322  1.0283 -0.3693
    5MOL0     H  602   0.841   3.063   8.865 -1.0313 -1.8599 -1.7633
    5MOL0     H  603   0.695   2.961   9.110  0.4651 -0.7898 -0.6491
    5MOL0     H  604   0.733   3.128   9.077 -1.4624  0.1657 -0.0067
    5MOL0     H  605   0.526   2.955   8.951  0.9162 -0.2340 -1.5502
    5MOL0     H  606   0.568   3.109   8.875 -0.4911  0.7627  0.4018
    5MOL0     H  607   0.531   3.216   9.119  1.8530 -0.9246  1.0186
    5MOL0     H  608   0.459   3.059   9.159  2.0120 -3.2314 -1.8110
    5MOL0     H  609   0.349   3.243   8.947 -0.4767  0.6986  0.2543
    5MOL0     H  610   0.303   3.077   8.981  1.9690  0.3029 -1.7237
    5MOL0     H  611   0.293   3.305   9.196  0.3024  0.1530 -0.1228
    5MOL0     H  612   0.236   3.147   9.230 -1.3170  1.6268  1.1855
    5MOL0     H  613   0.107   3.448   9.205  1.1227 -1.5222  0.4164
    5MOL0     H  614  -0.227   3.488   8.983 -1.5692 -0.5887  1.5088
    5MOL0     H  615  -0.096   3.583   9.051 -1.5126  0.1486  0.9381
    5MOL0     H  616  -0.283   3.575   9.214 -1.4877 -0.6021 -0.6698
    5MOL0     H  617  -0.156   3.479   9.281 -0.1342 -0.6787 -0.3156
    5MOL0     H  618  -0.392   3.358   9.118  1.3724  0.7396 -1.4293
    5MOL0     H  619  -0.267   3.261   9.203 -4.1275 -1.7422  1.4280
    5MOL0     H  620  -0.499   3.414   9.302  0.0259 -0.4381  1.3241
    5MOL0     H  621  -0.363   3.391   9.413 -0.1847 -0.4176  0.4383
    5MOL0     H  622  -0.616   3.408   9.461 -0.1083  0.3115  2.1254
    5MOL0     H  623  -0.840   3.375   9.545  0.0136 -0.0773  1.0780
    5MOL0     H  624  -1.084   2.785   9.572  0.0786 -2.0034  2.9225
    5MOL0     H  625  -1.273   2.667   9.705 -0.1647 -1.0803 -2.1137
    5MOL0     H  626  -1.297   2.675  10.000 -0.3771  0.5650  1.2057
    5MOL0     H  627  -1.425   2.593   9.895  0.3477 -0.5340  0.4217
    5MOL0     H  628  -1.513   2.581  10.115 -1.4056 -0.5355 -1.4455
    5MOL0     H  629  -1.602   2.697  10.034  0.8433 -0.5634 -0.2814
    5MOL0     H  630  -1.575   2.808  10.231 -1.4459  0.5176 -2.2226
    5MOL0     H  631  -1.449   2.888  10.135  1.1280  1.2041  2.8137
    5MOL0     H  632  -1.268   2.750  10.227  3.3259  3.7872  2.9159
    5MOL0     H  633  -1.332   2.845  10.347  1.4709 -1.1134 -0.5379
    5MOL0     H  634  -1.301   2.599  10.413  1.8872  2.1978  0.0638
    5MOL0     H  635  -1.441   2.555  10.315 -1.1470 -1.0826  1.9201
    5MOL0     H  636  -1.578   2.717  10.459 -1.4769 -3.0381  2.4868
    5MOL0     H  637  -1.443   2.725  10.576  1.4189 -0.7213  1.6351
    5MOL0     H  638  -1.609   2.568  10.637 -0.2362 -1.2314  0.2377
    5MOL0     H  639  -1.594   2.478  10.482 -0.0658  0.1266  0.2657
    5MOL0     H  640  -1.371   2.507  10.685  1.3456 -0.0891  0.4106
    5MOL0     H  641  -1.375   2.405  10.538 -1.4896 -0.9609 -0.0099
    5MOL0     H  642  -1.349   3.042   9.917 -0.6542  0.9660  0.4462
    5MOL0     H  643  -1.198   3.156   9.744 -1.4043 -0.6559 -0.0075
    5MOL0     H  644  -0.803   2.954   9.463  0.9847 -0.5417 -1.2454
    5MOL0     H  645  -0.572   2.989   9.391  0.9442 -0.4019  0.9387
    5MOL0     H  646   1.179   2.767   8.683  2.3236  2.9407 -2.3198
    5MOL0     H  647   1.392   2.662   8.596  1.8874  0.7334  1.5804
    5MOL0     H  648   1.619   2.296   8.403  0.6408 -0.7095 -0.6824
    5MOL0     H  649   1.863   2.228   8.344 -1.6775  2.6421 -1.7952
    5MOL0     H  650   2.189   2.324   8.657 -0.2390 -1.3767 -0.2288
    5MOL0     H  651   2.157   2.450   8.540  0.3134  1.0512  0.5084
    5MOL0     H  652   2.385   2.351   8.559 -0.5060 -0.5252  0.8210
    5MOL0     H  653   2.332   2.216   8.469 -1.1604 -0.1697 -0.4350
    5MOL0     H  654   2.295   2.320   8.267 -0.3517  2.7605 -1.1847
    5MOL0     H  655   2.436   2.399   8.328 -0.5725  0.7665 -1.6740
    5MOL0     H  656   2.156   2.506   8.330 -0.7569  0.8702 -3.0358
    5MOL0     H  657   2.298   2.580   8.415  2.0361 -1.3895  0.1958
    5MOL0     H  658   2.355   2.682   8.002 -0.8053 -2.6447 -1.4793
    5MOL0     H  659   1.989   2.348   8.724  0.7065  1.0676 -1.3562
    5MOL0     H  660   1.784   2.456   8.775 -1.2497  0.9101 -1.3343
    6MOL0     O  661   5.109   3.344   3.809  0.6262  0.2150 -0.0079
    6MOL0     C  662   5.049   3.239   3.772 -0.2401 -0.3250  0.1841
    6MOL0     O  663   4.917   3.216   3.783  0.1605 -0.4054 -0.1553
    6MOL0     C  664   4.834   3.315   3.823 -0.6211 -0.8348  0.2593
    6MOL0     C  665   4.788   3.410   3.733 -1.0099 -0.2655  0.0095
    6MOL0     C  666   4.684   3.496   3.769 -0.3136 -0.5811  0.0944
    6MOL0     C  667   4.617   3.487   3.896 -0.6479 -0.6100 -0.2851
    6MOL0     O  668   4.513   3.561   3.938 -0.8041 -0.3303  0.8740
    6MOL0     C  669   4.465   3.664   3.858 -0.3827 -0.5981 -0.6812
    6MOL0     C  670   4.354   3.739   3.935  0.0651 -0.1992  0.6053
    6MOL0     C  671   4.307   3.860   3.851 -0.3915  0.3472  0.2280
    6MOL0     C  672   4.167   3.905   3.899 -0.3705 -0.9031  0.0569
    6MOL0     C  673   4.170   4.012   4.010 -0.8499 -0.3680 -0.8779
    6MOL0     C  674   4.073   4.127   3.985  0.4981  0.2594 -0.0003
    6MOL0     C  675   3.933   4.083   3.998  1.0219 -0.7344 -0.1812
    6MOL0     C  676   3.846   4.211   3.972 -0.3900 -0.0341  0.0907
    6MOL0     N  677   3.698   4.180   3.985 -0.5672 -0.1114  0.0571
    6MOL0     C  678   3.614   4.144   3.887  0.1434  0.6163 -0.0207
    6MOL0     C  679   3.508   4.092   3.959  1.0134  0.2940 -0.3728
    6MOL0     C  680   3.387   4.034   3.906  0.3869 -0.4886  0.3877
    6MOL0     C  681   3.265   4.018   4.008  0.3789 -0.8204  0.5139
    6MOL0     C  682   3.145   3.950   3.945  0.1936 -0.1645 -0.2525
    6MOL0     C  683   3.186   3.805   3.902  1.0202 -0.0068 -0.3326
    6MOL0     O  684   3.067   3.718   3.868  0.1361  0.0109 -0.1341
    6MOL0     C  685   2.984   3.682   3.964  0.7131 -0.7969  0.7460
    6MOL0     C  686   3.005   3.699   4.103  0.2577 -0.0321  0.0900
    6MOL0     C  687   2.920   3.649   4.197 -0.2272 -0.1552  0.3125
    6MOL0     C  688   2.797   3.587   4.157  0.2414 -0.0197  0.2552
    6MOL0     C  689   2.689   3.544   4.241 -0.0891  0.9788  0.1434
    6MOL0     O  690   2.564   3.556   4.195 -0.0164 -0.3312 -0.2442
    6MOL0     C  691   2.458   3.520   4.279 -0.4754 -0.5315 -0.5053
    6MOL0     C  692   2.361   3.608   4.328 -0.9115  0.0378  0.0838
    6MOL0     C  693   2.266   3.572   4.425 -0.3824 -0.0947 -0.2150
    6MOL0     C  694   2.254   3.443   4.475  0.6110 -0.0432  0.0863
    6MOL0     O  695   2.152   3.393   4.554  0.1482 -0.7608  0.0768
    6MOL0     C  696   2.183   3.316   4.674  0.3510 -0.0371  0.3721
    6MOL0     C  697   2.069   3.319   4.781  0.1818 -0.4047  0.0095
    6MOL0     C  698   1.947   3.238   4.739  0.0281  0.2570 -0.5603
    6MOL0     C  699   1.836   3.257   4.837  0.0673  0.2439 -0.0668
    6MOL0     C  700   1.699   3.213   4.788  0.4741  0.3724 -0.2233
    6MOL0     C  701   1.596   3.216   4.905 -0.7575 -0.5348 -0.1945
    6MOL0     C  702   1.451   3.212   4.852 -0.2674  0.1227  0.2035
    6MOL0     C  703   1.351   3.197   4.956 -0.3028  0.3209 -0.4037
    6MOL0    Cl  704   1.186   3.198   4.889 -0.1490  0.1582 -0.1742
    6MOL0     C  705   2.340   3.346   4.424 -0.2600 -0.7752  1.1741
    6MOL0     C  706   2.439   3.388   4.333  0.1482  0.0326  0.2743
    6MOL0     O  707   2.718   3.490   4.348  0.0110  0.3048 -0.3102
    6MOL0     C  708   2.771   3.569   4.017 -0.5486 -0.2623  0.3425
    6MOL0     C  709   2.865   3.616   3.921 -0.0180  0.8378 -0.2368
    6MOL0     N  710   3.536   4.109   4.097  0.0042  0.0321  0.5105
    6MOL0     N  711   3.653   4.155   4.108 -0.4722 -0.1596 -0.4842
    6MOL0     C  712   4.669   3.399   3.992  0.2897  0.6317 -0.3579
    6MOL0     C  713   4.778   3.312   3.953  0.4798 -0.1759 -0.7658
    6MOL0     C  714   5.139   3.124   3.721 -0.5007  0.1937  0.1052
    6MOL0     C  715   5.274   3.133   3.692 -0.2093  0.2833 -0.7140
    6MOL0     C  716   5.354   3.021   3.653  0.0417 -0.1438  0.1465
    6MOL0     C  717   5.293   2.897   3.627 -0.1245  0.0227 -0.0839
    6MOL0     O  718   5.366   2.787   3.583 -0.3415 -0.4903 -0.5694
    6MOL0     C  719   5.306   2.662   3.559  0.2425  0.9632 -0.1164
    6MOL0     C  720   5.408   2.569   3.492  0.3058  0.0648  0.8090
    6MOL0     C  721   5.326   2.446   3.456 -0.8104  0.1125 -0.4198
    6MOL0     C  722   5.380   2.388   3.323 -0.3779 -0.3856  0.0961
    6MOL0     C  723   5.523   2.366   3.337  0.8417  0.3707  0.6700
    6MOL0     C  724   5.643   2.343   3.354 -0.1397 -0.1731  0.1509
    6MOL0     C  725   5.157   2.891   3.645  0.2398  0.0059 -0.5629
    6MOL0     C  726   5.079   3.000   3.697 -0.5489 -0.2341  0.0901
    6MOL0     H  727   4.839   3.412   3.637 -0.2087  2.1973  0.4149
    6MOL0     H  728   4.658   3.575   3.699  2.4242  0.5376  0.2026
    6MOL0     H  729   4.433   3.636   3.757  0.8179 -2.1704 -0.6703
    6MOL0     H  730   4.545   3.738   3.864 -2.9162  2.2211  2.1810
    6MOL0     H  731   4.389   3.769   4.035 -0.3510  1.0546  0.3918
    6MOL0     H  732   4.270   3.671   3.954  0.0710 -0.3233  0.1990
    6MOL0     H  733   4.310   3.841   3.744 -1.7125  2.1593 -0.1906
    6MOL0     H  734   4.370   3.946   3.873 -0.4367  0.0546  1.5951
    6MOL0     H  735   4.109   3.953   3.821 -0.3060 -1.1741 -0.1603
    6MOL0     H  736   4.110   3.823   3.944 -0.3492 -1.0483 -0.1781
    6MOL0     H  737   4.271   4.055   4.011 -0.9869  0.0204 -1.7538
    6MOL0     H  738   4.152   3.971   4.109  0.3154 -1.6336 -1.1605
    6MOL0     H  739   4.082   4.173   3.886 -0.3217 -1.9943 -1.2042
    6MOL0     H  740   4.099   4.205   4.056  0.8178 -0.0596  0.2374
    6MOL0     H  741   3.915   4.004   3.925  0.5561  0.1557 -1.0617
    6MOL0     H  742   3.923   4.037   4.097  2.3301 -2.9707 -1.0272
    6MOL0     H  743   3.875   4.255   3.877  0.1693 -2.0283 -0.7225
    6MOL0     H  744   3.867   4.263   4.065  1.6866 -3.5691  1.8214
    6MOL0     H  745   3.635   4.148   3.781 -2.8386  1.7336 -0.6564
    6MOL0     H  746   3.413   3.943   3.852  3.0293  0.7314 -0.5659
    6MOL0     H  747   3.354   4.112   3.837 -0.3364 -0.9856  0.1643
    6MOL0     H  748   3.243   4.116   4.052 -0.4234 -1.4964  1.6956
    6MOL0     H  749   3.304   3.955   4.088  0.8001 -1.2547 -0.0274
    6MOL0     H  750   3.063   3.950   4.018  1.1565 -1.0480  0.8700
    6MOL0     H  751   3.103   4.005   3.860 -1.0542  1.3370  1.2627
    6MOL0     H  752   3.237   3.755   3.985 -2.4482  0.5543  2.3630
    6MOL0     H  753   3.248   3.811   3.812  0.7104  0.9901 -0.4901
    6MOL0     H  754   3.092   3.751   4.139  0.7826  0.4651 -1.7739
    6MOL0     H  755   2.942   3.676   4.300 -0.0665  1.1808 -0.0491
    6MOL0     H  756   2.375   3.711   4.296  1.1532 -0.3580 -0.4793
    6MOL0     H  757   2.189   3.636   4.467 -1.0258 -0.9631 -0.0410
    6MOL0     H  758   2.270   3.363   4.720  1.0949  0.3729 -1.3486
    6MOL0     H  759   2.202   3.213   4.643  0.0650  0.1010 -0.2936
    6MOL0     H  760   2.049   3.426   4.792 -2.1777 -0.6698 -0.8762
    6MOL0     H  761   2.105   3.289   4.879 -0.0976  0.7750  0.4908
    6MOL0     H  762   1.972   3.131   4.743  2.9292  0.8976  1.2053
    6MOL0     H  763   1.911   3.263   4.639  0.4265  0.2851 -0.6986
    6MOL0     H  764   1.857   3.197   4.926  1.1329  0.0328 -0.4508
    6MOL0     H  765   1.824   3.363   4.859 -2.1461  0.1965 -0.7960
    6MOL0     H  766   1.707   3.109   4.756  2.0240 -0.1142  1.5429
    6MOL0     H  767   1.669   3.275   4.704 -0.8196  0.1618  0.0581
    6MOL0     H  768   1.610   3.307   4.964 -0.7995 -0.1661 -0.7409
    6MOL0     H  769   1.629   3.132   4.966  3.2578  0.8713 -0.1628
    6MOL0     H  770   1.428   3.300   4.792 -2.5176  0.2251  1.1447
    6MOL0     H  771   1.458   3.121   4.791  3.0266 -0.6078  1.4151
    6MOL0     H  772   1.360   3.288   5.017  1.3052 -0.1741  0.1525
    6MOL0     H  773   1.377   3.107   5.013 -0.5889  1.9144  2.4703
    6MOL0     H  774   2.324   3.242   4.452 -1.1064 -1.1109 -0.4096
    6MOL0     H  775   2.504   3.312   4.290 -1.0602 -3.4938  4.0686
    6MOL0     H  776   2.686   3.512   3.981  1.3916 -1.7948 -2.1276
    6MOL0     H  777   2.864   3.583   3.818 -0.5915 -2.6781  0.7778
    6MOL0     H  778   4.616   3.389   4.087 -1.2082  2.2331 -0.9672
    6MOL0     H  779   4.813   3.239   4.024  0.0017  0.5743  0.2673
    6MOL0     H  780   5.317   3.229   3.718  0.4186 -0.4190  0.9817
    6MOL0     H  781   5.451   3.043   3.610  1.6026 -1.6848  2.6576
    6MOL0     H  782   5.214   2.668   3.500 -1.3200  2.4811  2.2676
    6MOL0     H  783   5.281   2.613   3.654  2.1588  3.4837  1.8047
    6MOL0     H  784   5.449   2.615   3.401  0.4496  0.4698  1.0769
    6MOL0     H  785   5.487   2.531   3.557  0.5214 -0.7752  0.0758
    6MOL0     H  786   5.220   2.474   3.450 -0.7454  0.7544  0.8949
    6MOL0     H  787   5.347   2.380   3.541 -3.0736  1.5111  1.3617
    6MOL0     H  788   5.316   2.302   3.301  1.8698 -2.0952 -0.1007
    6MOL0     H  789   5.367   2.455   3.238 -2.3523 -3.6307 -2.4000
    6MOL0     H  790   5.747   2.333   3.381 -0.4038 -0.4704  1.0763
    6MOL0     H  791   5.107   2.799   3.619  2.7447 -1.5055 -0.4068
    6MOL0     H  792   4.972   2.983   3.701 -0.4722 -1.6037 -2.2252
    7MOL0     O  793   8.627   5.073   9.592 -0.3662  0.1701  0.5339
    7MOL0     C  794   8.594   4.961   9.548 -0.0272  0.4403  0.4713
    7MOL0     O  795   8.475   4.892   9.571  0.0900 -0.6225  0.3052
    7MOL0     C  796   8.385   4.937   9.671 -0.8214  0.2314  0.3808
    7MOL0     C  797   8.365   5.074   9.703  0.3604 -0.0615  0.6773
    7MOL0     C  798   8.272   5.115   9.795  1.1514 -0.0803  0.0262
    7MOL0     C  799   8.188   5.020   9.855  0.1977 -0.0187  0.1298
    7MOL0     O  800   8.108   5.066   9.961  0.6100 -0.4675 -0.7541
    7MOL0     C  801   8.025   4.981  10.044  0.0705  0.6689 -0.0919
    7MOL0     C  802   7.935   5.075  10.134 -0.7955  1.1181  0.7047
    7MOL0     C  803   8.018   5.160  10.233 -0.0538 -0.3922  0.3691
    7MOL0     C  804   7.928   5.255  10.314 -0.4672  0.4912  0.0518
    7MOL0     C  805   8.011   5.328  10.419 -0.2212 -0.9005 -0.1715
    7MOL0     C  806   7.922   5.411  10.513 -0.2048 -0.0533 -0.8274
    7MOL0     C  807   7.822   5.318  10.594  0.1303  0.0440  0.1608
    7MOL0     C  808   7.677   5.322  10.545 -0.7994 -0.0723 -0.3244
    7MOL0     N  809   7.602   5.214  10.593  0.5978  0.1543 -0.1970
    7MOL0     C  810   7.556   5.200  10.721  0.2011  0.4726  0.1909
    7MOL0     C  811   7.473   5.097  10.707  0.5059 -0.1628 -0.2394
    7MOL0     C  812   7.390   5.048  10.823  0.1829 -0.0732  0.1409
    7MOL0     C  813   7.239   5.061  10.811 -0.5327  0.4354 -0.3870
    7MOL0     C  814   7.190   5.010  10.671  0.3914  0.8153  0.2088
    7MOL0     C  815   7.035   5.005  10.653 -0.0080  0.4682 -1.1549
    7MOL0     O  816   6.987   4.905  10.737  0.0796  0.5368  0.7801
    7MOL0     C  817   6.854   4.883  10.736 -0.0188 -0.1678 -1.1423
    7MOL0     C  818   6.805   4.753  10.759  0.2197  0.3579 -0.0889
    7MOL0     C  819   6.668   4.727  10.775 -0.7598 -0.3431  0.4339
    7MOL0     C  820   6.575   4.829  10.760 -0.2870 -0.1372 -0.0852
    7MOL0     C  821   6.431   4.792  10.785  0.4574 -0.8271  0.3658
    7MOL0     O  822   6.404   4.688  10.877  0.7886 -0.0903 -0.2680
    7MOL0     C  823   6.273   4.663  10.890 -0.1815 -0.2929 -0.3301
    7MOL0     C  824   6.209   4.723  10.995  0.6327 -0.7166 -0.1491
    7MOL0     C  825   6.067   4.713  11.001 -0.2726 -0.2721  0.0693
    7MOL0     C  826   5.992   4.633  10.917 -0.0998 -0.2728  0.0428
    7MOL0     O  827   5.858   4.639  10.921  0.0457  0.4127  0.3758
    7MOL0     C  828   5.798   4.554  11.021 -0.0203 -0.4066 -0.5961
    7MOL0     C  829   5.648   4.576  11.046  0.9066  0.0817  0.2575
    7MOL0     C  830   5.558   4.558  10.924 -0.4887  0.3301 -0.7155
    7MOL0     C  831   5.420   4.521  10.975 -0.5191 -0.0647 -0.3238
    7MOL0     C  832   5.320   4.499  10.861  0.6329  0.2041 -0.1926
    7MOL0     C  833   5.175   4.476  10.918 -0.2859  0.7657 -0.1530
    7MOL0     C  834   5.080   4.424  10.806 -0.2787 -0.3329  0.0420
    7MOL0     C  835   4.935   4.422  10.848 -0.6169  0.1441 -0.3010
    7MOL0    Cl  836   4.837   4.351  10.710 -0.2060  0.4267  0.7169
    7MOL0     C  837   6.064   4.562  10.819 -0.3879  0.5286 -0.1616
    7MOL0     C  838   6.196   4.581  10.806 -0.2282  0.2971 -0.1101
    7MOL0     O  839   6.350   4.852  10.711  1.1224 -0.4378  0.4538
    7MOL0     C  840   6.621   4.963  10.740  0.0311  0.7608  0.6750
    7MOL0     C  841   6.768   4.986  10.739 -0.2531  0.0747  0.5899
    7MOL0     N  842   7.476   5.041  10.582 -0.5016  0.0336 -0.1198
    7MOL0     N  843   7.554   5.112  10.516 -0.1361 -0.1073 -0.3223
    7MOL0     C  844   8.206   4.884   9.821 -0.5139  0.4289 -0.4278
    7MOL0     C  845   8.290   4.845   9.723 -0.0135  0.1479 -0.0723
    7MOL0     C  846   8.693   4.888   9.462 -0.3805 -0.6220  0.8145
    7MOL0     C  847   8.679   4.751   9.421 -0.3179 -0.5849  0.0962
    7MOL0     C  848   8.788   4.688   9.361 -0.2370  0.4379 -0.8113
    7MOL0     C  849   8.916   4.754   9.346 -0.1864 -0.6537  1.1911
    7MOL0     O  850   9.028   4.700   9.286 -0.0808  0.0233 -1.1681
    7MOL0     C  851   9.001   4.588   9.197 -0.0186 -0.3440 -0.6324
    7MOL0     C  852   9.135   4.535   9.143  0.3346  0.3488  0.2423
    7MOL0     C  853   9.119   4.389   9.088  0.2109 -0.0581  0.1164
    7MOL0     C  854   9.058   4.389   8.947 -0.4272  0.2359 -0.5431
    7MOL0     C  855   9.065   4.250   8.901  0.2156  0.7677  0.5865
    7MOL0     C  856   9.070   4.133   8.863 -0.2375  0.3249  0.4304
    7MOL0     C  857   8.925   4.887   9.386  0.4234 -0.7219 -0.7022
    7MOL0     C  858   8.816   4.948   9.440  0.1943  0.5757  0.1001
    7MOL0     H  859   8.421   5.156   9.661 -0.6269  0.5521  0.5359
    7MOL0     H  860   8.261   5.218   9.826 -0.3099 -0.3860  0.5739
    7MOL0     H  861   8.074   4.904  10.104  0.2244  0.9829  0.1832
    7MOL0     H  862   7.948   4.942   9.977  0.7804 -0.9205 -0.0269
    7MOL0     H  863   7.876   5.006  10.196  1.4146  1.6268  3.5703
    7MOL0     H  864   7.867   5.129  10.068 -0.9464 -0.6058 -0.6316
    7MOL0     H  865   8.093   5.210  10.170 -1.0694  0.5034 -0.1794
    7MOL0     H  866   8.061   5.091  10.306  0.8693 -0.7537 -0.4960
    7MOL0     H  867   7.881   5.324  10.243  0.4748  0.7405 -0.3400
    7MOL0     H  868   7.841   5.204  10.358 -0.1502  1.2222  1.5897
    7MOL0     H  869   8.074   5.397  10.361  2.6591 -3.3918 -0.2487
    7MOL0     H  870   8.079   5.258  10.467  0.1926 -0.5145 -0.1852
    7MOL0     H  871   7.860   5.482  10.457 -1.5289 -1.2315 -0.8906
    7MOL0     H  872   8.002   5.454  10.574  2.4055 -2.6578 -2.1854
    7MOL0     H  873   7.855   5.215  10.580 -1.6911 -1.0398  3.0076
    7MOL0     H  874   7.820   5.342  10.700 -1.2517  5.7875 -0.8265
    7MOL0     H  875   7.681   5.340  10.437 -3.5447  1.5922 -0.2462
    7MOL0     H  876   7.635   5.415  10.585 -0.6836 -0.3176  0.3762
    7MOL0     H  877   7.552   5.268  10.805  0.9466  2.4897 -1.2983
    7MOL0     H  878   7.420   5.104  10.912 -1.1963  0.1684  0.4668
    7MOL0     H  879   7.415   4.943  10.846 -0.2346 -0.1550  0.2214
    7MOL0     H  880   7.213   5.163  10.839  2.5263  1.6254 -1.4414
    7MOL0     H  881   7.195   4.999  10.889 -0.1525  2.9134  1.9247
    7MOL0     H  882   7.230   5.080  10.597  0.0587 -0.4300 -1.2122
    7MOL0     H  883   7.231   4.911  10.650 -0.8662  0.3801 -0.3257
    7MOL0     H  884   7.000   4.984  10.551 -3.0195  1.5174 -0.4491
    7MOL0     H  885   6.995   5.105  10.676 -0.9543 -0.0755 -0.3484
    7MOL0     H  886   6.880   4.675  10.760  1.5007  1.5627 -0.1153
    7MOL0     H  887   6.641   4.626  10.807 -1.3036 -1.1808 -2.3943
    7MOL0     H  888   6.259   4.784  11.070  0.9449 -1.7312  0.4777
    7MOL0     H  889   6.015   4.771  11.077  0.0609 -1.0441  0.8852
    7MOL0     H  890   5.839   4.567  11.122 -1.5910  0.7640 -0.0582
    7MOL0     H  891   5.813   4.448  10.997 -1.9462 -0.3960 -2.1297
    7MOL0     H  892   5.627   4.678  11.080 -1.5128  0.0633 -0.9552
    7MOL0     H  893   5.608   4.519  11.129  1.3617  0.3328  0.6560
    7MOL0     H  894   5.604   4.480  10.863 -0.9495 -0.1514 -0.4511
    7MOL0     H  895   5.559   4.649  10.863  1.7538  0.4395 -0.5826
    7MOL0     H  896   5.426   4.432  11.039  1.3353  0.2911  0.0452
    7MOL0     H  897   5.381   4.594  11.046  0.4567 -0.3219  0.5010
    7MOL0     H  898   5.345   4.405  10.810  0.8678 -0.9798  1.9709
    7MOL0     H  899   5.317   4.580  10.788  3.3192 -1.2801 -2.1079
    7MOL0     H  900   5.135   4.571  10.954 -0.9877  0.1906  0.6082
    7MOL0     H  901   5.168   4.402  10.997  0.0121  0.7388 -0.1492
    7MOL0     H  902   5.083   4.491  10.719 -3.7734  1.2619  0.9862
    7MOL0     H  903   5.110   4.323  10.775 -0.0341 -0.1301 -0.3961
    7MOL0     H  904   4.896   4.523  10.860 -1.2466 -0.3966  3.5471
    7MOL0     H  905   4.917   4.364  10.939  0.3382 -0.8955 -0.7445
    7MOL0     H  906   6.025   4.488  10.751  1.8906 -1.3905  0.4692
    7MOL0     H  907   6.244   4.514  10.736 -1.3735 -2.2107  1.3480
    7MOL0     H  908   6.548   5.044  10.735  0.1783  0.8517 -2.3414
    7MOL0     H  909   6.799   5.089  10.732 -0.6564  0.2889  1.6800
    7MOL0     H  910   8.162   4.807   9.884 -0.3877 -0.9916 -2.0325
    7MOL0     H  911   8.295   4.739   9.697  1.1619 -0.6457  2.9964
    7MOL0     H  912   8.589   4.695   9.446 -0.9597  0.1167 -0.6075
    7MOL0     H  913   8.765   4.583   9.344 -1.8004  0.0977  2.5258
    7MOL0     H  914   8.927   4.621   9.122 -0.6147 -0.3176 -0.0416
    7MOL0     H  915   8.957   4.512   9.262  1.8835 -1.9584 -1.1368
    7MOL0     H  916   9.182   4.597   9.066  1.5469 -0.1130  0.5819
    7MOL0     H  917   9.197   4.532   9.233  1.8567 -2.1289 -0.7533
    7MOL0     H  918   9.054   4.337   9.159 -0.7131  1.1106  0.1544
    7MOL0     H  919   9.209   4.326   9.085  0.6538  0.5997 -1.0082
    7MOL0     H  920   8.951   4.413   8.942 -0.0409  2.1633 -0.4813
    7MOL0     H  921   9.112   4.446   8.871  1.4200 -2.2738 -1.2422
    7MOL0     H  922   9.074   4.033   8.824  0.7691 -0.0220  1.3898
    7MOL0     H  923   9.025   4.928   9.383  0.2024 -0.1983 -3.7220
    7MOL0     H  924   8.826   5.048   9.481 -1.0441 -0.4380  3.0740
    8MOL0     O  925   4.125   0.290   2.240 -0.1895 -0.0925 -0.2071
    8MOL0     C  926   4.243   0.313   2.230 -0.1715 -0.3359 -0.1903
    8MOL0     O  927   4.344   0.229   2.181 -0.1627  0.8971 -0.0862
    8MOL0     C  928   4.301   0.097   2.170 -0.4505 -0.1972 -0.1927
    8MOL0     C  929   4.270   0.021   2.282 -0.4528  0.5448  0.3495
    8MOL0     C  930   4.236  -0.109   2.262  0.7639  0.2615 -0.0954
    8MOL0     C  931   4.223  -0.163   2.139  0.3441  0.3174  0.0621
    8MOL0     O  932   4.178  -0.290   2.118  0.1606  1.3611 -0.2664
    8MOL0     C  933   4.150  -0.382   2.223  0.4069  0.1649 -1.4661
    8MOL0     C  934   4.103  -0.503   2.135 -0.5807 -0.4060  0.5290
    8MOL0     C  935   4.103  -0.639   2.202  0.2282  0.2653  0.4110
    8MOL0     C  936   4.096  -0.752   2.092  0.1919  0.3606 -0.2131
    8MOL0     C  937   4.134  -0.893   2.153 -0.2843 -0.8227 -0.1517
    8MOL0     C  938   4.062  -0.927   2.291 -0.0834 -0.0684 -0.6722
    8MOL0     C  939   3.912  -0.951   2.269 -0.1272 -0.2335 -0.8178
    8MOL0     C  940   3.838  -0.975   2.400 -1.7047 -0.4293  0.4931
    8MOL0     N  941   3.838  -0.852   2.488  0.1905  0.7675 -0.6169
    8MOL0     C  942   3.913  -0.834   2.602 -0.1686  0.1392 -0.2831
    8MOL0     C  943   3.900  -0.708   2.639  0.7021 -0.2532 -0.2317
    8MOL0     C  944   3.968  -0.654   2.759  0.1241 -0.0467 -0.3301
    8MOL0     C  945   4.089  -0.573   2.721  0.0047 -0.6827  0.0031
    8MOL0     C  946   4.120  -0.466   2.819  0.3062 -0.0402 -0.5357
    8MOL0     C  947   4.176  -0.531   2.941 -0.5612  0.2837  0.1400
    8MOL0     O  948   4.321  -0.542   2.930  0.7137 -0.1986  0.4694
    8MOL0     C  949   4.402  -0.560   3.035 -0.3686 -0.1323  0.0553
    8MOL0     C  950   4.532  -0.573   3.014  0.0946 -0.5956 -0.3240
    8MOL0     C  951   4.624  -0.594   3.116  0.3825  1.4406 -0.2593
    8MOL0     C  952   4.585  -0.597   3.255  0.1335 -0.6931 -0.2241
    8MOL0     C  953   4.681  -0.609   3.364 -0.4189 -0.4254  0.2861
    8MOL0     O  954   4.809  -0.642   3.323 -0.2484 -0.4962  0.0983
    8MOL0     C  955   4.908  -0.630   3.414 -0.4257 -0.0977 -0.1433
    8MOL0     C  956   4.924  -0.710   3.524  0.5217 -0.7548 -0.1091
    8MOL0     C  957   5.028  -0.699   3.614  0.3344 -0.4613 -0.9616
    8MOL0     C  958   5.133  -0.609   3.580  0.6799 -1.2481  0.2129
    8MOL0     O  959   5.241  -0.602   3.666 -0.1741  0.1720 -0.4376
    8MOL0     C  960   5.368  -0.542   3.626  0.3992  0.3568 -0.0747
    8MOL0     C  961   5.475  -0.572   3.732  0.0791  0.1679 -0.1632
    8MOL0     C  962   5.611  -0.507   3.693  0.2910 -0.8498  1.0399
    8MOL0     C  963   5.704  -0.497   3.811  0.2069  0.4781 -0.3641
    8MOL0     C  964   5.829  -0.594   3.800 -0.1001  1.0956 -0.1470
    8MOL0     C  965   5.939  -0.576   3.906  0.4155 -0.7706  0.3957
    8MOL0     C  966   5.884  -0.588   4.055  0.7155  0.6637  0.2874
    8MOL0     C  967   5.989  -0.641   4.151  0.0562  0.0744  0.3963
    8MOL0    Cl  968   6.106  -0.508   4.178 -0.0865  0.2297 -0.5569
    8MOL0     C  969   5.120  -0.534   3.460 -0.4507  0.5923  0.4482
    8MOL0     C  970   5.010  -0.545   3.375 -0.8703 -0.0694  0.0024
    8MOL0     O  971   4.648  -0.599   3.480  0.0500 -0.2456 -0.3681
    8MOL0     C  972   4.447  -0.584   3.276 -0.5456 -0.3513 -0.2939
    8MOL0     C  973   4.360  -0.564   3.171  0.7849 -0.2067 -0.5605
    8MOL0     N  974   3.808  -0.649   2.553 -0.4985  0.5506 -0.1921
    8MOL0     N  975   3.782  -0.733   2.463 -0.4451 -0.0696  0.2550
    8MOL0     C  976   4.241  -0.085   2.025  0.3458  0.3614  0.1906
    8MOL0     C  977   4.284   0.042   2.041  0.0616  0.5042 -0.6196
    8MOL0     C  978   4.285   0.443   2.273 -0.4856  0.1973 -0.2643
    8MOL0     C  979   4.199   0.553   2.273  0.7707  0.6426  0.0590
    8MOL0     C  980   4.247   0.682   2.298 -0.1234 -0.4464  0.1420
    8MOL0     C  981   4.383   0.695   2.332 -0.7764  0.4202 -1.2650
    8MOL0     O  982   4.429   0.830   2.350 -0.0300 -0.1132 -0.1670
    8MOL0     C  983   4.557   0.857   2.400 -0.6917  0.7869 -0.1148
    8MOL0     C  984   4.661   0.883   2.290 -0.7926  0.0129  0.0557
    8MOL0     C  985   4.807   0.851   2.330 -0.0509 -0.9358 -0.1428
    8MOL0     C  986   4.906   0.873   2.223  0.3666 -0.0116 -0.3896
    8MOL0     C  987   4.980   0.754   2.192  0.7538 -0.1731 -1.3913
    8MOL0     C  988   5.058   0.662   2.175  0.1125  0.6189  0.4434
    8MOL0     C  989   4.467   0.588   2.338  0.1925  0.1232 -0.0846
    8MOL0     C  990   4.423   0.459   2.304 -0.0611 -0.2380 -0.1584
    8MOL0     H  991   4.266   0.061   2.383  0.3282  0.6742  0.3319
    8MOL0     H  992   4.226  -0.163   2.356  2.1633 -1.0147 -0.6422
    8MOL0     H  993   4.069  -0.344   2.285  0.7803 -1.5214  0.1406
    8MOL0     H  994   4.245  -0.407   2.271  0.8509 -1.9621 -3.2470
    8MOL0     H  995   4.168  -0.510   2.048  0.5770  1.1496  1.1974
    8MOL0     H  996   4.002  -0.474   2.104  0.4381  1.2183 -1.4837
    8MOL0     H  997   4.020  -0.648   2.272 -0.9052 -1.3584 -1.0457
    8MOL0     H  998   4.196  -0.654   2.259  0.6671  1.5210  0.0493
    8MOL0     H  999   3.994  -0.758   2.054  0.2536  1.7283 -0.6681
    8MOL0     H 1000   4.149  -0.741   1.997  2.5088 -1.1767  0.7988
    8MOL0     H 1001   4.243  -0.890   2.165 -0.6265  0.7032  3.9858
    8MOL0     H 1002   4.117  -0.974   2.082  0.0538 -0.2235 -0.9395
    8MOL0     H 1003   4.091  -0.853   2.365  1.1693  1.0959 -2.2507
    8MOL0     H 1004   4.104  -1.024   2.318 -0.3559 -0.4532 -1.5722
    8MOL0     H 1005   3.860  -0.868   2.220 -0.1901 -2.0568 -4.1221
    8MOL0     H 1006   3.904  -1.043   2.210  3.2341 -2.4008  1.7141
    8MOL0     H 1007   3.894  -1.050   2.457  2.7275  2.3378  0.2359
    8MOL0     H 1008   3.735  -1.010   2.392 -2.1915  1.0249  0.1818
    8MOL0     H 1009   3.953  -0.915   2.662 -0.9169 -0.2683 -0.3246
    8MOL0     H 1010   4.001  -0.734   2.826 -0.5052  0.8805  1.1320
    8MOL0     H 1011   3.892  -0.604   2.819 -0.2206 -2.6987  1.6338
    8MOL0     H 1012   4.081  -0.534   2.620 -0.1563 -1.1738 -0.1759
    8MOL0     H 1013   4.173  -0.643   2.713  0.7625  0.4338 -2.6423
    8MOL0     H 1014   4.183  -0.386   2.781  0.5958  0.0745  0.1647
    8MOL0     H 1015   4.027  -0.423   2.858  0.0980 -0.5084 -0.5074
    8MOL0     H 1016   4.142  -0.634   2.953  0.5473 -0.0426  0.6727
    8MOL0     H 1017   4.164  -0.475   3.035  2.3976  3.6979 -1.2789
    8MOL0     H 1018   4.564  -0.554   2.911  0.3745 -0.0902 -0.1486
    8MOL0     H 1019   4.727  -0.614   3.085 -0.0164 -1.6899  0.1950
    8MOL0     H 1020   4.848  -0.786   3.543 -0.3857 -0.4295 -2.1336
    8MOL0     H 1021   5.017  -0.753   3.707 -2.4864  0.5341 -0.5953
    8MOL0     H 1022   5.359  -0.433   3.615  0.0090  0.2497 -0.8759
    8MOL0     H 1023   5.388  -0.591   3.531 -3.1963 -0.9545 -0.2858
    8MOL0     H 1024   5.501  -0.677   3.753  0.3067  0.1167 -0.6779
    8MOL0     H 1025   5.440  -0.530   3.827  0.2169  1.0503 -0.4996
    8MOL0     H 1026   5.600  -0.405   3.656  1.5353 -0.9612  0.3234
    8MOL0     H 1027   5.658  -0.568   3.615 -0.3365 -0.4691  0.3476
    8MOL0     H 1028   5.739  -0.393   3.817 -0.1815  0.5396  1.3138
    8MOL0     H 1029   5.655  -0.511   3.908  1.1301  0.2168  0.0791
    8MOL0     H 1030   5.872  -0.574   3.701  1.2061 -1.2837 -0.1414
    8MOL0     H 1031   5.797  -0.698   3.796  1.3821  0.5701  0.8326
    8MOL0     H 1032   5.975  -0.473   3.905  1.2268 -1.0549 -0.8176
    8MOL0     H 1033   6.028  -0.637   3.890  0.2605 -0.9333  0.1376
    8MOL0     H 1034   5.828  -0.502   4.094 -1.8987 -1.2772  1.1236
    8MOL0     H 1035   5.813  -0.669   4.039 -0.2950  1.5465  0.1850
    8MOL0     H 1036   6.044  -0.724   4.105  0.0246  1.5209 -2.5114
    8MOL0     H 1037   5.934  -0.678   4.238 -0.7308  1.2537  0.4333
    8MOL0     H 1038   5.204  -0.475   3.426 -1.0691  0.6093 -1.1164
    8MOL0     H 1039   5.005  -0.503   3.275  0.8384 -0.8673 -0.4525
    8MOL0     H 1040   4.405  -0.593   3.376  0.8119 -1.9265  0.1813
    8MOL0     H 1041   4.256  -0.550   3.199  0.8801  1.4768 -0.9509
    8MOL0     H 1042   4.221  -0.122   1.925 -1.7335  0.1133  0.6445
    8MOL0     H 1043   4.300   0.107   1.956  3.0578  2.5445  1.3050
    8MOL0     H 1044   4.096   0.544   2.239  0.9255  2.6858 -1.0836
    8MOL0     H 1045   4.180   0.767   2.292  2.3412  1.7508  1.7646
    8MOL0     H 1046   4.595   0.778   2.465  0.7704  1.7482  0.2384
    8MOL0     H 1047   4.551   0.956   2.446 -1.3144  1.5236 -1.6766
    8MOL0     H 1048   4.639   0.837   2.194  0.5431 -0.2688 -0.1421
    8MOL0     H 1049   4.654   0.990   2.268  0.9580 -0.2682 -2.2285
    8MOL0     H 1050   4.813   0.752   2.376 -2.1825 -0.7043  0.7643
    8MOL0     H 1051   4.836   0.921   2.409 -0.8072 -1.8735  0.9915
    8MOL0     H 1052   4.853   0.901   2.132 -2.1459 -2.0139  0.3295
    8MOL0     H 1053   4.974   0.953   2.255 -2.0370  1.5014  1.3052
    8MOL0     H 1054   5.115   0.577   2.142  0.8030  1.1682  0.2120
    8MOL0     H 1055   4.574   0.593   2.353  0.0924 -0.0430  0.7581
    8MOL0     H 1056   4.491   0.378   2.282  1.1124  0.2202  1.5255
    9MOL0     O 1057  11.006   8.767   8.488  0.0904  0.5422 -0.2527
    9MOL0     C 1058  11.011   8.656   8.537  0.2264  0.6822  1.1912
    9MOL0     O 1059  10.909   8.582   8.596 -0.0343  0.3256  0.3008
    9MOL0     C 1060  10.785   8.642   8.614 -0.5034 -0.3599 -0.8457
    9MOL0     C 1061  10.675   8.553   8.617 -0.7021 -0.4122 -0.6203
    9MOL0     C 1062  10.542   8.592   8.649  0.4645  0.2824  0.2305
    9MOL0     C 1063  10.516   8.728   8.655 -0.0417  0.2890 -0.3326
    9MOL0     O 1064  10.393   8.775   8.690 -1.0299 -0.4652  1.0431
    9MOL0     C 1065  10.273   8.698   8.668 -0.3210  0.2693 -0.0393
    9MOL0     C 1066  10.152   8.780   8.640 -0.2542 -0.5395 -0.3081
    9MOL0     C 1067  10.101   8.835   8.771  1.0610 -0.1133 -0.0654
    9MOL0     C 1068  10.018   8.964   8.746  0.2587  0.0170 -0.0364
    9MOL0     C 1069   9.954   9.006   8.869  0.2941 -0.6609  0.0081
    9MOL0     C 1070   9.926   9.161   8.880 -0.3080  0.2727  0.5886
    9MOL0     C 1071   9.880   9.192   9.024  0.1314 -0.2132  0.7136
    9MOL0     C 1072   9.870   9.345   9.036 -0.5278 -0.6906 -0.5719
    9MOL0     N 1073   9.769   9.406   8.946 -0.0352  0.7331 -0.5009
    9MOL0     C 1074   9.634   9.365   8.955 -0.2480  0.0154 -0.4279
    9MOL0     C 1075   9.577   9.433   8.852  0.2229  0.4633 -0.3674
    9MOL0     C 1076   9.428   9.435   8.823 -0.9511 -0.0216  0.4297
    9MOL0     C 1077   9.392   9.326   8.718 -0.3655  0.8260 -0.3419
    9MOL0     C 1078   9.248   9.339   8.667 -1.1519 -0.2488 -1.1805
    9MOL0     C 1079   9.146   9.287   8.778 -0.4447 -0.1058  0.7042
    9MOL0     O 1080   9.012   9.324   8.728 -0.2087  0.1574 -0.5996
    9MOL0     C 1081   8.902   9.280   8.793  0.3705 -0.1254 -0.2439
    9MOL0     C 1082   8.782   9.326   8.753 -0.5050 -0.8059  0.0864
    9MOL0     C 1083   8.663   9.283   8.812 -0.2159 -0.0650 -0.0028
    9MOL0     C 1084   8.657   9.195   8.915  0.2318 -0.0291 -0.7322
    9MOL0     C 1085   8.526   9.147   8.968 -0.0425 -0.3121  0.1321
    9MOL0     O 1086   8.511   9.034   9.035 -0.0487 -0.1408  0.1895
    9MOL0     C 1087   8.381   9.000   9.084  0.5944 -0.1201 -0.0325
    9MOL0     C 1088   8.260   9.006   9.010 -0.5245  0.2948  0.7769
    9MOL0     C 1089   8.132   8.964   9.052  0.3687 -0.0686 -0.7445
    9MOL0     C 1090   8.132   8.909   9.186 -0.6601 -0.3613 -0.4918
    9MOL0     O 1091   8.018   8.874   9.248  0.2117 -0.0084  0.3807
    9MOL0     C 1092   7.896   8.935   9.198 -0.3797 -0.0278  0.7331
    9MOL0     C 1093   7.778   8.882   9.291 -0.3105 -0.1808  0.0706
    9MOL0     C 1094   7.636   8.916   9.238 -0.9200 -0.4343 -0.0119
    9MOL0     C 1095   7.539   8.921   9.356  0.4098  0.8817  0.3320
    9MOL0     C 1096   7.501   8.791   9.424  0.6475 -0.5358  0.4909
    9MOL0     C 1097   7.391   8.719   9.343  1.0502  0.4397 -0.4734
    9MOL0     C 1098   7.378   8.573   9.399  0.1571 -0.4962  0.9050
    9MOL0     C 1099   7.261   8.505   9.342 -0.0530 -0.2328 -0.3323
    9MOL0    Cl 1100   7.255   8.331   9.396  0.0451 -0.1094  0.3675
    9MOL0     C 1101   8.249   8.906   9.261 -0.5059  0.2777  0.0640
    9MOL0     C 1102   8.370   8.949   9.210  0.3220  0.8369  0.8517
    9MOL0     O 1103   8.434   9.226   8.942 -0.4888  0.0502 -0.0670
    9MOL0     C 1104   8.775   9.142   8.962  0.2945  0.3023  0.0800
    9MOL0     C 1105   8.888   9.187   8.900 -0.3281  0.5372 -0.0212
    9MOL0     N 1106   9.678   9.515   8.789 -0.0015 -0.0277 -0.0281
    9MOL0     N 1107   9.789   9.490   8.842  0.2496  0.6198 -0.0161
    9MOL0     C 1108  10.618   8.817   8.643  0.0293 -0.0375  0.0745
    9MOL0     C 1109  10.752   8.772   8.634  0.0158  0.4993 -0.4711
    9MOL0     C 1110  11.146   8.584   8.526 -0.4852  0.2224  0.8109
    9MOL0     C 1111  11.174   8.461   8.590 -0.7582  0.2023  0.7641
    9MOL0     C 1112  11.302   8.410   8.582 -0.3539 -0.0368  0.6472
    9MOL0     C 1113  11.403   8.476   8.512 -0.3016  0.5871  0.1724
    9MOL0     O 1114  11.517   8.399   8.520  0.5487  0.4960  0.1635
    9MOL0     C 1115  11.630   8.430   8.432  0.5403 -0.1294 -0.0554
    9MOL0     C 1116  11.748   8.339   8.465  1.0719  0.0156  1.1106
    9MOL0     C 1117  11.873   8.382   8.379 -0.0239  0.5148  0.0524
    9MOL0     C 1118  11.851   8.323   8.235  0.0369  0.5768  0.2071
    9MOL0     C 1119  11.882   8.180   8.219 -0.7367  1.5357 -0.1023
    9MOL0     C 1120  11.905   8.057   8.231  0.6644  0.3415  0.3289
    9MOL0     C 1121  11.375   8.596   8.439  1.0653  0.6988  0.0278
    9MOL0     C 1122  11.242   8.644   8.456 -0.8862 -0.3756  0.5410
    9MOL0     H 1123  10.698   8.447   8.625  0.1284 -0.1102  2.2663
    9MOL0     H 1124  10.460   8.521   8.660  0.6686 -0.4159 -2.2984
    9MOL0     H 1125  10.259   8.620   8.743  0.2503  0.6662  0.4802
    9MOL0     H 1126  10.288   8.638   8.577 -2.5832 -0.8835  0.2702
    9MOL0     H 1127  10.074   8.717   8.596 -1.3825 -1.4011  2.6788
    9MOL0     H 1128  10.182   8.849   8.561 -2.0746  0.5159 -0.1175
    9MOL0     H 1129  10.190   8.870   8.823  1.5998 -0.3822 -0.7954
    9MOL0     H 1130  10.060   8.750   8.826 -0.6762  1.3607  1.0796
    9MOL0     H 1131  10.086   9.044   8.718 -0.2361  0.3492 -0.3098
    9MOL0     H 1132   9.940   8.943   8.672 -1.4042  1.3970  1.2433
    9MOL0     H 1133  10.023   8.978   8.949  1.3162  1.2285 -0.1435
    9MOL0     H 1134   9.861   8.953   8.890  0.5817 -1.7920 -1.4375
    9MOL0     H 1135   9.851   9.192   8.806 -2.0540  2.1908  2.9964
    9MOL0     H 1136  10.015   9.218   8.856  0.2307 -1.3449 -1.5880
    9MOL0     H 1137   9.788   9.144   9.060 -1.8896  1.9566 -1.1910
    9MOL0     H 1138   9.956   9.171   9.099  1.1192  0.0199 -0.2039
    9MOL0     H 1139   9.965   9.397   9.023 -0.4276  0.2870  3.0071
    9MOL0     H 1140   9.852   9.357   9.143  1.5187 -3.0273  0.1354
    9MOL0     H 1141   9.581   9.296   9.020  0.7129 -0.6804 -0.3420
    9MOL0     H 1142   9.404   9.535   8.785 -1.9523  0.1516  1.4514
    9MOL0     H 1143   9.368   9.427   8.914 -2.3479  2.9926 -0.0827
    9MOL0     H 1144   9.402   9.227   8.763  0.7662  1.0963  0.0502
    9MOL0     H 1145   9.462   9.335   8.634  0.2842 -2.7865 -0.3649
    9MOL0     H 1146   9.235   9.444   8.638  0.7384  0.0959 -0.8901
    9MOL0     H 1147   9.234   9.284   8.573  0.6137  1.3185 -2.4424
    9MOL0     H 1148   9.170   9.331   8.875  1.1495 -1.4592  0.9641
    9MOL0     H 1149   9.163   9.180   8.772 -0.5886 -0.1114  0.3933
    9MOL0     H 1150   8.781   9.399   8.673  1.2821 -1.1639 -0.3177
    9MOL0     H 1151   8.567   9.320   8.776 -0.4258 -0.6322 -0.0331
    9MOL0     H 1152   8.267   9.042   8.908  0.7453  1.9641  1.4002
    9MOL0     H 1153   8.047   8.959   8.985 -0.8617  1.0379  0.6699
    9MOL0     H 1154   7.879   8.920   9.092  0.6266  1.6989  0.2823
    9MOL0     H 1155   7.903   9.044   9.202  0.9954 -0.0182 -0.9329
    9MOL0     H 1156   7.788   8.906   9.397  1.6304 -3.4328  0.7584
    9MOL0     H 1157   7.803   8.776   9.293  3.3892  0.5393  0.8031
    9MOL0     H 1158   7.613   8.846   9.157 -0.9426 -0.1126 -0.2864
    9MOL0     H 1159   7.649   9.013   9.190  1.2660 -1.4138 -1.5720
    9MOL0     H 1160   7.578   8.981   9.438 -0.7805  0.6842  1.0748
    9MOL0     H 1161   7.445   8.968   9.325  0.0657 -1.2832 -2.2784
    9MOL0     H 1162   7.458   8.802   9.524  0.1710 -3.4846  0.7131
    9MOL0     H 1163   7.595   8.736   9.425  0.5791 -0.6854 -0.4707
    9MOL0     H 1164   7.428   8.712   9.240 -0.0355  0.7182 -0.8995
    9MOL0     H 1165   7.295   8.771   9.353  1.3932  1.1398 -0.7815
    9MOL0     H 1166   7.475   8.527   9.378  0.6437 -0.1534  2.2748
    9MOL0     H 1167   7.373   8.570   9.509  0.7102 -1.2971  0.9217
    9MOL0     H 1168   7.259   8.512   9.233  1.2156  0.4860 -0.3219
    9MOL0     H 1169   7.166   8.551   9.370 -0.5437 -1.6114  0.3804
    9MOL0     H 1170   8.234   8.867   9.361  0.5538 -0.1008  0.0821
    9MOL0     H 1171   8.456   8.935   9.275 -0.5257 -2.8558  1.3715
    9MOL0     H 1172   8.779   9.061   9.034  2.0051  0.9446  0.7770
    9MOL0     H 1173   8.985   9.147   8.926  0.9165  1.5008 -2.7304
    9MOL0     H 1174  10.598   8.923   8.656 -0.3582 -0.0383 -0.4800
    9MOL0     H 1175  10.831   8.846   8.631  0.1026  0.3647 -1.8090
    9MOL0     H 1176  11.112   8.423   8.671 -0.9229  0.7594  0.9070
    9MOL0     H 1177  11.336   8.324   8.638  1.3267  1.0831  1.4275
    9MOL0     H 1178  11.659   8.534   8.449  0.6810  0.0080 -1.1032
    9MOL0     H 1179  11.600   8.414   8.328 -1.2809 -0.2654  0.4592
    9MOL0     H 1180  11.766   8.349   8.573 -2.9878 -1.6001  2.1122
    9MOL0     H 1181  11.728   8.234   8.442 -1.8481  0.3239  1.7904
    9MOL0     H 1182  11.967   8.346   8.421  0.8052 -0.2764 -2.2747
    9MOL0     H 1183  11.884   8.490   8.370  1.9000  0.2965 -0.7642
    9MOL0     H 1184  11.746   8.332   8.208  0.1211 -0.3007 -0.4818
    9MOL0     H 1185  11.902   8.382   8.159  3.0515 -0.4606  1.2339
    9MOL0     H 1186  11.909   7.951   8.240  1.5477  0.3706  0.3653
    9MOL0     H 1187  11.447   8.653   8.383 -0.9976  3.1895 -0.2393
    9MOL0     H 1188  11.222   8.742   8.413  1.1568 -1.1288 -2.4323
   10MOL0     O 1189   9.224   2.751   6.532 -0.5730  1.1024 -0.1390
   10MOL0     C 1190   9.325   2.816   6.555  0.1827  0.3708  0.5753
   10MOL0     O 1191   9.326   2.906   6.664  0.1813  0.0310 -0.1424
   10MOL0     C 1192   9.230   2.919   6.766  0.6488 -0.2675  0.3982
   10MOL0     C 1193   9.245   3.030   6.850 -0.2109  0.0993 -0.3922
   10MOL0     C 1194   9.144   3.069   6.931 -0.0964  0.6058  0.3468
   10MOL0     C 1195   9.030   2.989   6.938  0.1961 -0.2744  0.0094
   10MOL0     O 1196   8.928   3.037   7.021 -0.2586 -0.5465  0.0401
   10MOL0     C 1197   8.808   2.955   7.042  0.2788 -0.0872  0.4602
   10MOL0     C 1198   8.702   3.062   7.075 -0.4320  0.3853  0.6251
   10MOL0     C 1199   8.602   3.017   7.176  0.2394 -0.1580  1.0629
   10MOL0     C 1200   8.497   2.911   7.139 -0.3795  0.0452  0.0557
   10MOL0     C 1201   8.381   2.991   7.075 -0.3670 -0.4582 -0.3680
   10MOL0     C 1202   8.278   3.054   7.175 -0.1904 -0.7633 -0.8290
   10MOL0     C 1203   8.159   2.962   7.196  0.2845  0.5443  0.6198
   10MOL0     C 1204   8.065   3.026   7.292  0.5537 -0.0903  0.9277
   10MOL0     N 1205   7.956   2.949   7.340  0.2362 -0.8088 -0.6858
   10MOL0     C 1206   7.880   2.988   7.440  0.3058  0.5598 -0.2369
   10MOL0     C 1207   7.780   2.896   7.451  0.0889  0.5322  0.1572
   10MOL0     C 1208   7.667   2.893   7.549 -0.1089  0.4605 -0.3987
   10MOL0     C 1209   7.546   2.974   7.495  0.3931 -0.6645 -0.6529
   10MOL0     C 1210   7.420   2.945   7.573  0.8370 -1.3514  0.1884
   10MOL0     C 1211   7.304   3.044   7.553  0.4278  0.4357  0.3769
   10MOL0     O 1212   7.194   3.006   7.634 -0.4120 -0.4915  0.6056
   10MOL0     C 1213   7.086   3.086   7.634  0.3797 -0.1699  0.7875
   10MOL0     C 1214   7.072   3.221   7.593 -0.2052  0.3494  0.2325
   10MOL0     C 1215   6.952   3.285   7.596  0.1443  0.0550 -0.9545
   10MOL0     C 1216   6.840   3.239   7.665  0.0540 -0.3668 -0.1531
   10MOL0     C 1217   6.721   3.328   7.693  0.2365 -0.4237  0.2503
   10MOL0     O 1218   6.641   3.289   7.791  0.2450  0.1602  0.6004
   10MOL0     C 1219   6.529   3.361   7.824  0.5485 -0.0694  0.4187
   10MOL0     C 1220   6.528   3.500   7.855  0.2140 -0.7299  0.3163
   10MOL0     C 1221   6.409   3.566   7.887 -0.3274  0.3492  0.5479
   10MOL0     C 1222   6.289   3.500   7.879  0.3980 -0.9789 -0.6928
   10MOL0     O 1223   6.177   3.577   7.915 -1.0710  0.1510 -0.3086
   10MOL0     C 1224   6.054   3.518   7.886 -0.0170  0.1729 -0.3523
   10MOL0     C 1225   5.941   3.614   7.909 -0.8673  0.5186 -0.5055
   10MOL0     C 1226   5.810   3.579   7.844 -0.1355 -0.1796  0.0308
   10MOL0     C 1227   5.706   3.690   7.874 -0.8951  0.5199  0.7920
   10MOL0     C 1228   5.576   3.644   7.824 -0.6196  0.2473  0.8606
   10MOL0     C 1229   5.459   3.734   7.866  0.4592 -0.4490  0.7613
   10MOL0     C 1230   5.349   3.707   7.773  0.4394 -0.1917 -0.5942
   10MOL0     C 1231   5.224   3.801   7.791  0.0572  0.2607 -0.1538
   10MOL0    Cl 1232   5.275   3.972   7.759  0.0856  0.4817  0.1001
   10MOL0     C 1233   6.289   3.363   7.848  0.2764 -0.2065 -0.6958
   10MOL0     C 1234   6.406   3.294   7.814 -0.2225 -0.1406  0.0008
   10MOL0     O 1235   6.710   3.428   7.626  0.1393 -0.7186  0.0472
   10MOL0     C 1236   6.844   3.102   7.710 -1.0345 -0.5770  0.2339
   10MOL0     C 1237   6.969   3.024   7.695 -0.0587  0.4973 -0.2544
   10MOL0     N 1238   7.796   2.802   7.347  0.2790  0.0825 -0.2182
   10MOL0     N 1239   7.909   2.836   7.288  0.4328  0.6781  1.4670
   10MOL0     C 1240   9.031   2.860   6.886 -0.4153  0.0871 -0.1095
   10MOL0     C 1241   9.131   2.823   6.795 -0.1121 -0.2377 -0.4339
   10MOL0     C 1242   9.434   2.814   6.451 -0.7555  0.2651 -0.7508
   10MOL0     C 1243   9.416   2.761   6.325 -0.5565 -0.5772 -0.9069
   10MOL0     C 1244   9.509   2.780   6.216 -0.0280 -0.0843  0.3015
   10MOL0     C 1245   9.628   2.857   6.235 -0.2121 -0.0947 -0.7907
   10MOL0     O 1246   9.717   2.896   6.134  0.4018 -0.2093 -0.0037
   10MOL0     C 1247   9.844   2.967   6.162  0.6511 -0.6661  0.4436
   10MOL0     C 1248   9.941   2.929   6.043 -0.2489  0.6245 -0.3323
   10MOL0     C 1249   9.983   2.784   6.038 -1.0683  0.3330 -0.2269
   10MOL0     C 1250  10.073   2.735   6.164  0.2861  0.3395 -0.4815
   10MOL0     C 1251  10.193   2.813   6.158 -0.8745 -0.4426 -0.1248
   10MOL0     C 1252  10.289   2.886   6.145 -0.2303  0.4177 -0.5826
   10MOL0     C 1253   9.648   2.913   6.365 -0.2747  0.3930 -0.5230
   10MOL0     C 1254   9.547   2.889   6.463  0.4370  0.6700 -0.1612
   10MOL0     H 1255   9.332   3.093   6.832 -0.4367  0.7657  0.7545
   10MOL0     H 1256   9.133   3.160   6.989 -0.5354  0.9520 -0.2756
   10MOL0     H 1257   8.821   2.887   7.127 -2.5682  1.3810  2.2189
   10MOL0     H 1258   8.775   2.905   6.950  1.2045  1.3861 -0.7048
   10MOL0     H 1259   8.657   3.093   6.980 -1.7134  0.2996  1.1882
   10MOL0     H 1260   8.759   3.149   7.110 -0.2895  1.4156 -1.9143
   10MOL0     H 1261   8.554   3.108   7.215  2.4112  0.7127  1.8324
   10MOL0     H 1262   8.656   2.979   7.263 -0.5432  1.8326  2.4909
   10MOL0     H 1263   8.532   2.834   7.069 -1.3577 -2.4345  2.1455
   10MOL0     H 1264   8.461   2.855   7.226 -0.1146  0.0845  0.1903
   10MOL0     H 1265   8.327   2.932   7.001 -0.7986  1.7208 -1.8935
   10MOL0     H 1266   8.422   3.069   7.009 -0.0666 -2.5468 -2.8083
   10MOL0     H 1267   8.233   3.137   7.121  1.5975 -2.0530 -4.6941
   10MOL0     H 1268   8.318   3.082   7.273 -1.1017  1.9640 -1.1714
   10MOL0     H 1269   8.125   2.935   7.096  0.4647 -1.5872  1.0818
   10MOL0     H 1270   8.191   2.868   7.242  1.6805  1.1822  1.0081
   10MOL0     H 1271   8.019   3.111   7.241  0.4612 -2.0741 -2.6443
   10MOL0     H 1272   8.122   3.056   7.381  0.5324 -0.6209  1.1218
   10MOL0     H 1273   7.895   3.077   7.499  3.5668  1.1224 -1.6613
   10MOL0     H 1274   7.688   2.923   7.652  1.2844 -0.9890 -0.2403
   10MOL0     H 1275   7.642   2.787   7.558  0.8682  0.2710  0.2348
   10MOL0     H 1276   7.530   2.944   7.391 -1.4585  0.7569 -0.8438
   10MOL0     H 1277   7.567   3.082   7.496 -0.4168 -0.4533  1.9639
   10MOL0     H 1278   7.387   2.842   7.556  0.7697 -1.9831  3.4498
   10MOL0     H 1279   7.440   2.958   7.680 -2.8414 -0.4540  0.8861
   10MOL0     H 1280   7.274   3.036   7.448  1.7601 -0.1443  0.0165
   10MOL0     H 1281   7.342   3.143   7.579  0.2125  0.3687  0.9759
   10MOL0     H 1282   7.156   3.270   7.545  0.3764 -0.1823  0.7005
   10MOL0     H 1283   6.946   3.385   7.553  0.8128 -0.0161 -1.2211
   10MOL0     H 1284   6.622   3.555   7.863 -0.1774 -0.1584  1.1408
   10MOL0     H 1285   6.410   3.668   7.923 -1.9516  0.8955 -0.8218
   10MOL0     H 1286   6.042   3.426   7.944 -0.4863  0.6808  0.3619
   10MOL0     H 1287   6.046   3.489   7.780  0.8763 -1.2140 -0.0713
   10MOL0     H 1288   5.975   3.708   7.865  0.9053 -0.5420 -1.5600
   10MOL0     H 1289   5.920   3.628   8.015 -0.9423 -1.9204 -0.1298
   10MOL0     H 1290   5.776   3.484   7.885 -1.1991 -0.6224 -1.7866
   10MOL0     H 1291   5.826   3.566   7.736  2.4037  1.7079  0.0936
   10MOL0     H 1292   5.701   3.707   7.982 -0.1631  1.1305  0.7360
   10MOL0     H 1293   5.729   3.784   7.823 -1.8876 -0.0326 -0.7428
   10MOL0     H 1294   5.564   3.540   7.854  1.5098 -0.9272 -1.9490
   10MOL0     H 1295   5.588   3.639   7.716 -0.1067  0.7645  0.8869
   10MOL0     H 1296   5.479   3.842   7.858  1.6168 -0.6788  0.5074
   10MOL0     H 1297   5.437   3.717   7.972 -1.8100  2.9366  1.0196
   10MOL0     H 1298   5.386   3.711   7.670  2.9994 -0.6056  0.2535
   10MOL0     H 1299   5.314   3.604   7.788 -0.8551 -0.1313 -2.6511
   10MOL0     H 1300   5.185   3.808   7.893 -1.3200 -1.3189 -0.5328
   10MOL0     H 1301   5.137   3.763   7.736 -0.7014  0.4763  0.8487
   10MOL0     H 1302   6.200   3.301   7.841  1.2285 -1.7537  0.3584
   10MOL0     H 1303   6.400   3.187   7.796  2.3191 -0.3851  0.2459
   10MOL0     H 1304   6.760   3.055   7.760 -0.3902 -4.6239 -2.0350
   10MOL0     H 1305   6.972   2.921   7.729  0.5567  1.3230  2.3855
   10MOL0     H 1306   8.942   2.797   6.886  0.9829 -2.0306 -1.7074
   10MOL0     H 1307   9.124   2.724   6.750 -1.2144  0.6252 -2.2447
   10MOL0     H 1308   9.329   2.703   6.296  1.7616 -3.8204 -1.9064
   10MOL0     H 1309   9.477   2.743   6.119 -1.6227  2.3820 -0.2054
   10MOL0     H 1310   9.880   2.936   6.260  0.1358  1.0504  1.2092
   10MOL0     H 1311   9.816   3.073   6.149  0.9365 -0.7817 -1.4416
   10MOL0     H 1312   9.888   2.953   5.950 -1.2233  0.0412  0.0566
   10MOL0     H 1313  10.029   2.993   6.057 -0.2920  1.0019 -1.6364
   10MOL0     H 1314  10.047   2.768   5.950  1.9566 -1.0758  2.0552
   10MOL0     H 1315   9.895   2.719   6.040  0.0756 -1.2220  1.2583
   10MOL0     H 1316  10.015   2.753   6.255 -0.6218  3.3902 -1.5127
   10MOL0     H 1317  10.095   2.628   6.158 -0.4491  0.1633 -0.1714
   10MOL0     H 1318  10.387   2.928   6.130  0.2450 -0.7967 -1.0719
   10MOL0     H 1319   9.722   2.987   6.396 -2.6078  2.4074  0.5994
   10MOL0     H 1320   9.554   2.935   6.561 -1.3502  2.1750 -0.6714
   11MOL0     O 1321  10.294   0.190   0.282  0.0728 -0.0376 -0.2670
   11MOL0     C 1322  10.310   0.249   0.169 -0.5792  0.0134 -0.1243
   11MOL0     O 1323  10.251   0.217   0.052  0.6674  0.8188  0.5246
   11MOL0     C 1324  10.166   0.105   0.061 -0.2494  0.1970  0.0501
   11MOL0     C 1325  10.215  -0.027   0.037 -0.2797 -0.4378 -0.0645
   11MOL0     C 1326  10.124  -0.134   0.052 -0.7807 -0.0413 -0.6239
   11MOL0     C 1327   9.992  -0.108   0.093 -0.0278  0.4602  0.5219
   11MOL0     O 1328   9.887  -0.201   0.103 -0.3385  0.1951 -0.1874
   11MOL0     C 1329   9.923  -0.340   0.074 -0.3751 -0.5197 -0.8635
   11MOL0     C 1330   9.798  -0.426   0.093  0.8565 -0.6778 -0.1916
   11MOL0     C 1331   9.708  -0.437  -0.032 -0.3298  0.2473  0.0465
   11MOL0     C 1332   9.586  -0.515  -0.009 -0.1931  0.9402 -0.3014
   11MOL0     C 1333   9.526  -0.563  -0.142  0.2341 -0.1190 -0.0200
   11MOL0     C 1334   9.376  -0.637  -0.131  0.4599  0.0741 -0.1381
   11MOL0     C 1335   9.255  -0.555  -0.119  0.3317 -0.7878  0.3113
   11MOL0     C 1336   9.249  -0.447  -0.241 -0.3862 -0.0706  0.0011
   11MOL0     N 1337   9.225  -0.504  -0.375  0.5926  1.0538 -0.1013
   11MOL0     C 1338   9.326  -0.553  -0.452 -0.0645  0.4464  0.2179
   11MOL0     C 1339   9.273  -0.575  -0.576  0.3496 -0.4344  0.3062
   11MOL0     C 1340   9.338  -0.649  -0.691 -0.8057  0.9048 -0.4528
   11MOL0     C 1341   9.465  -0.589  -0.746  0.1318 -0.0123  0.1901
   11MOL0     C 1342   9.544  -0.692  -0.836 -0.1129  0.4319 -0.1301
   11MOL0     C 1343   9.622  -0.604  -0.931 -0.7584 -0.5050  0.5054
   11MOL0     O 1344   9.657  -0.676  -1.044 -0.1896  0.5970 -0.6110
   11MOL0     C 1345   9.773  -0.653  -1.110  0.6278 -0.4281 -0.5679
   11MOL0     C 1346   9.872  -0.751  -1.149  0.5179  0.0070 -0.8327
   11MOL0     C 1347   9.989  -0.718  -1.218  0.1482  0.1587 -0.0563
   11MOL0     C 1348  10.010  -0.587  -1.260 -0.5152 -0.4207  0.0885
   11MOL0     C 1349  10.124  -0.541  -1.334  0.5812  0.3486 -0.2582
   11MOL0     O 1350  10.150  -0.414  -1.347  0.8970 -0.3345  0.0857
   11MOL0     C 1351  10.272  -0.389  -1.394 -0.6222 -0.4858 -0.2022
   11MOL0     C 1352  10.322  -0.421  -1.526  0.5591  0.0238  0.3089
   11MOL0     C 1353  10.456  -0.392  -1.549  0.8948  0.0104  1.1823
   11MOL0     C 1354  10.537  -0.316  -1.458  0.5190  0.9007  0.4749
   11MOL0     O 1355  10.670  -0.287  -1.478 -0.2764  0.0132 -0.1317
   11MOL0     C 1356  10.706  -0.192  -1.581 -0.8947 -0.2447 -0.1876
   11MOL0     C 1357  10.856  -0.189  -1.624  0.2052 -0.1360  0.0010
   11MOL0     C 1358  10.906  -0.327  -1.672  0.2328  0.7872 -0.1399
   11MOL0     C 1359  11.063  -0.327  -1.694  0.2030  0.1162  0.0053
   11MOL0     C 1360  11.108  -0.461  -1.748  0.1283 -0.0718 -0.2982
   11MOL0     C 1361  11.260  -0.462  -1.770 -0.0839 -0.3370 -0.2634
   11MOL0     C 1362  11.293  -0.600  -1.813 -0.6972  0.0317 -0.3781
   11MOL0     C 1363  11.292  -0.705  -1.696  0.1823  0.2289  0.9948
   11MOL0    Cl 1364  11.404  -0.848  -1.707  0.1160 -0.0468  0.2230
   11MOL0     C 1365  10.481  -0.273  -1.337  0.6459 -0.3328  0.7970
   11MOL0     C 1366  10.345  -0.309  -1.314 -0.4606 -0.2992 -0.9160
   11MOL0     O 1367  10.196  -0.631  -1.367  0.6755 -0.3185 -0.3491
   11MOL0     C 1368   9.906  -0.490  -1.237 -1.1661  0.9217 -0.4855
   11MOL0     C 1369   9.797  -0.524  -1.158 -0.6050  0.0207  1.0805
   11MOL0     N 1370   9.141  -0.542  -0.571  0.8472 -0.1414 -0.2775
   11MOL0     N 1371   9.114  -0.508  -0.448 -0.0967  0.3582  0.3375
   11MOL0     C 1372   9.945   0.022   0.101  0.0108 -0.3009  0.9312
   11MOL0     C 1373  10.033   0.130   0.080 -0.1502  0.2886 -0.6163
   11MOL0     C 1374  10.387   0.372   0.173  0.6592 -0.1288 -0.7374
   11MOL0     C 1375  10.414   0.448   0.054 -0.6146 -0.4932  0.3941
   11MOL0     C 1376  10.479   0.576   0.061  0.9618  0.0261  0.8289
   11MOL0     C 1377  10.523   0.628   0.188 -0.3672 -0.1319 -0.2444
   11MOL0     O 1378  10.592   0.745   0.195  0.1607 -0.1779  0.2822
   11MOL0     C 1379  10.655   0.796   0.320  0.7819 -0.6643  0.0222
   11MOL0     C 1380  10.750   0.917   0.280  0.4468 -0.2512 -0.6587
   11MOL0     C 1381  10.682   1.022   0.198  0.2779 -0.3745 -0.2054
   11MOL0     C 1382  10.761   1.151   0.193  0.1641  0.0108  0.0379
   11MOL0     C 1383  10.721   1.253   0.097  0.2748 -0.6881 -0.8358
   11MOL0     C 1384  10.698   1.351   0.036 -0.4156 -0.0442  0.0254
   11MOL0     C 1385  10.494   0.557   0.307  0.0344  0.0370  0.1331
   11MOL0     C 1386  10.420   0.441   0.293  0.1926 -0.3751 -0.0890
   11MOL0     H 1387  10.316  -0.052   0.009 -0.3587 -0.8211 -0.0069
   11MOL0     H 1388  10.154  -0.237   0.035  3.2095  1.1352 -1.8114
   11MOL0     H 1389  10.005  -0.375   0.138 -0.2730 -1.2751 -1.3948
   11MOL0     H 1390   9.963  -0.343  -0.028  1.4943 -0.8454 -0.1553
   11MOL0     H 1391   9.755  -0.377   0.181  3.2323  2.7431 -0.7304
   11MOL0     H 1392   9.840  -0.519   0.132  1.7762  1.3492  4.2186
   11MOL0     H 1393   9.772  -0.487  -0.104 -1.6483  1.6826 -2.2424
   11MOL0     H 1394   9.683  -0.341  -0.079 -1.1138  0.7474  1.4000
   11MOL0     H 1395   9.608  -0.603   0.051 -1.0751 -1.5853 -3.3969
   11MOL0     H 1396   9.518  -0.449   0.046  0.9058  3.1644 -1.4601
   11MOL0     H 1397   9.593  -0.637  -0.188 -1.2044 -2.1271  0.9628
   11MOL0     H 1398   9.525  -0.470  -0.199  0.5784  1.0263  1.7488
   11MOL0     H 1399   9.372  -0.704  -0.045  0.1676  1.3600  0.8858
   11MOL0     H 1400   9.367  -0.702  -0.218  1.9677 -2.5646  1.5453
   11MOL0     H 1401   9.172  -0.625  -0.111  1.3323 -1.9792  0.6597
   11MOL0     H 1402   9.255  -0.498  -0.026 -0.9540 -2.2728  1.2513
   11MOL0     H 1403   9.341  -0.391  -0.223 -0.5314 -0.1300  0.9598
   11MOL0     H 1404   9.160  -0.387  -0.216 -1.5314 -1.5146 -0.4600
   11MOL0     H 1405   9.424  -0.588  -0.422 -0.8926 -0.3163  2.1881
   11MOL0     H 1406   9.270  -0.641  -0.777 -2.1879  0.9232  0.6063
   11MOL0     H 1407   9.354  -0.755  -0.668 -0.1829  1.0330 -0.2731
   11MOL0     H 1408   9.534  -0.565  -0.664 -3.1058  0.1466  3.0805
   11MOL0     H 1409   9.440  -0.502  -0.808  0.3949 -0.1408 -0.1023
   11MOL0     H 1410   9.611  -0.754  -0.776 -2.0171 -1.3585  0.2903
   11MOL0     H 1411   9.476  -0.761  -0.888 -0.3425 -0.6208  1.4937
   11MOL0     H 1412   9.710  -0.556  -0.887 -0.3240  1.0750 -1.9020
   11MOL0     H 1413   9.564  -0.525  -0.979 -1.1426 -1.7853 -1.2222
   11MOL0     H 1414   9.842  -0.852  -1.123 -2.7013  1.4768  1.9959
   11MOL0     H 1415  10.055  -0.799  -1.249  0.3053 -0.2568  1.3104
   11MOL0     H 1416  10.266  -0.475  -1.602  1.1064 -1.0994  0.6744
   11MOL0     H 1417  10.505  -0.419  -1.642  2.2272  1.9545  1.2709
   11MOL0     H 1418  10.676  -0.099  -1.532 -1.0821  0.5928 -1.8508
   11MOL0     H 1419  10.642  -0.207  -1.668 -0.1835 -1.0159 -0.5903
   11MOL0     H 1420  10.916  -0.156  -1.539  0.1079  1.0306 -0.3726
   11MOL0     H 1421  10.886  -0.120  -1.703  1.3367  1.4855  1.7542
   11MOL0     H 1422  10.864  -0.352  -1.770  2.1953 -0.1289 -0.8166
   11MOL0     H 1423  10.872  -0.405  -1.603  0.4892 -0.2744 -1.1688
   11MOL0     H 1424  11.093  -0.250  -1.764  0.0065  1.4459  1.3293
   11MOL0     H 1425  11.114  -0.309  -1.599  1.5052 -2.2160 -0.1723
   11MOL0     H 1426  11.057  -0.494  -1.839  1.5467  0.4054 -1.2949
   11MOL0     H 1427  11.092  -0.535  -1.669 -0.9025  1.7483  1.2996
   11MOL0     H 1428  11.314  -0.422  -1.683  1.6819 -0.2511 -1.3640
   11MOL0     H 1429  11.272  -0.394  -1.855  1.4957  1.7895  1.5139
   11MOL0     H 1430  11.221  -0.637  -1.886 -0.8187  0.1075 -0.2964
   11MOL0     H 1431  11.395  -0.603  -1.854 -0.3281 -1.0479  0.5716
   11MOL0     H 1432  11.190  -0.746  -1.689 -1.0106  3.1305  2.0494
   11MOL0     H 1433  11.307  -0.665  -1.595  0.2318  0.0324  1.0655
   11MOL0     H 1434  10.539  -0.210  -1.271  1.0253  1.9427 -1.5445
   11MOL0     H 1435  10.309  -0.295  -1.212  0.6290 -2.1886 -0.2223
   11MOL0     H 1436   9.905  -0.391  -1.282 -1.0184 -0.4829 -3.8668
   11MOL0     H 1437   9.721  -0.447  -1.153 -0.2617  0.4742 -0.2157
   11MOL0     H 1438   9.840   0.049   0.111  0.5992  1.8186  1.8986
   11MOL0     H 1439  10.013   0.235   0.097  1.4481  0.5430 -0.0639
   11MOL0     H 1440  10.388   0.391  -0.036 -0.7801 -0.8643  0.6748
   11MOL0     H 1441  10.513   0.630  -0.027 -0.5926 -0.5685 -0.1838
   11MOL0     H 1442  10.726   0.721   0.358  1.8102 -0.0880 -0.7195
   11MOL0     H 1443  10.576   0.813   0.394 -0.6911 -2.8607 -0.9298
   11MOL0     H 1444  10.783   0.956   0.377 -1.9577  1.5594 -0.4745
   11MOL0     H 1445  10.837   0.880   0.226  2.1605  3.1350 -0.5108
   11MOL0     H 1446  10.584   1.046   0.239  0.4157  3.8622 -1.8819
   11MOL0     H 1447  10.676   0.978   0.098  1.1276 -2.7599  0.6999
   11MOL0     H 1448  10.748   1.188   0.296 -0.3429  0.6596 -0.2531
   11MOL0     H 1449  10.868   1.138   0.174  0.9083  1.8185  2.4780
   11MOL0     H 1450  10.683   1.432  -0.032  0.2640  1.3203  1.4425
   11MOL0     H 1451  10.526   0.587   0.406  1.2026 -0.7484  0.0016
   11MOL0     H 1452  10.395   0.396   0.389  2.9404 -0.4411  0.6709
   12MOL0     O 1453   7.779   5.180   8.767 -0.2066 -0.0224  0.0048
   12MOL0     C 1454   7.841   5.229   8.675 -0.0797  0.3279  0.0925
   12MOL0     O 1455   7.966   5.188   8.632 -0.6405  0.1936  0.1783
   12MOL0     C 1456   8.032   5.124   8.731 -0.3720 -0.1062 -0.0954
   12MOL0     C 1457   8.038   4.982   8.733 -0.6470  0.2723 -0.1411
   12MOL0     C 1458   8.118   4.914   8.823 -0.2367 -0.0500 -0.0641
   12MOL0     C 1459   8.212   4.977   8.898  0.2314 -0.1005  0.2108
   12MOL0     O 1460   8.295   4.920   8.989 -0.6025  0.5290 -0.2050
   12MOL0     C 1461   8.289   4.779   9.000  0.1142 -0.6470 -0.2424
   12MOL0     C 1462   8.379   4.735   9.113  1.1183 -0.3143 -0.1331
   12MOL0     C 1463   8.324   4.778   9.255  0.7139 -0.2359  0.2757
   12MOL0     C 1464   8.187   4.722   9.291  0.7887 -0.2303 -0.0261
   12MOL0     C 1465   8.132   4.758   9.431 -0.0084  0.2671  0.3219
   12MOL0     C 1466   7.983   4.718   9.447  0.2348 -0.5674 -0.5140
   12MOL0     C 1467   7.924   4.741   9.582  0.3162 -0.2942 -0.9021
   12MOL0     C 1468   7.765   4.766   9.578 -0.1893 -0.3287 -0.6869
   12MOL0     N 1469   7.704   4.755   9.708  0.2179 -0.1596 -0.4889
   12MOL0     C 1470   7.642   4.645   9.770  0.5319  0.2268 -0.3172
   12MOL0     C 1471   7.589   4.690   9.883 -0.6181 -0.0129 -0.7539
   12MOL0     C 1472   7.525   4.602   9.983 -0.7836 -0.0612 -0.5929
   12MOL0     C 1473   7.401   4.537   9.925  0.0883 -1.3223 -1.1299
   12MOL0     C 1474   7.296   4.486  10.020 -0.2610  0.2507 -0.5746
   12MOL0     C 1475   7.160   4.472   9.941 -0.2954  0.8952  1.4807
   12MOL0     O 1476   7.112   4.591   9.878 -0.3378  0.2199 -0.0103
   12MOL0     C 1477   7.027   4.567   9.773 -0.1691 -0.1367  0.6458
   12MOL0     C 1478   6.920   4.480   9.781  0.4976 -0.1503  0.3253
   12MOL0     C 1479   6.834   4.463   9.677  0.0370  0.1679 -0.1305
   12MOL0     C 1480   6.843   4.541   9.562 -0.3578  0.6074 -0.6391
   12MOL0     C 1481   6.737   4.521   9.455 -0.0783  0.0865 -0.4195
   12MOL0     O 1482   6.625   4.444   9.491 -0.8243  0.5106  1.3426
   12MOL0     C 1483   6.529   4.426   9.396  0.1836  0.0111 -0.3249
   12MOL0     C 1484   6.505   4.297   9.342  0.2643 -0.1006 -0.5563
   12MOL0     C 1485   6.395   4.269   9.259  1.0056  0.1185  0.3320
   12MOL0     C 1486   6.301   4.374   9.229  0.9731 -0.3574 -0.2548
   12MOL0     O 1487   6.204   4.362   9.127 -0.2832  0.1435  0.2919
   12MOL0     C 1488   6.123   4.243   9.130  0.5802  0.9510  0.8219
   12MOL0     C 1489   5.997   4.283   9.046  0.5392 -1.3403 -0.0447
   12MOL0     C 1490   5.903   4.171   9.012  0.3984 -0.0085  0.7021
   12MOL0     C 1491   5.785   4.219   8.933 -0.5631 -0.3528  0.2651
   12MOL0     C 1492   5.698   4.104   8.893  0.7663  0.0645 -0.3804
   12MOL0     C 1493   5.573   4.144   8.807 -0.2175  0.0260 -0.4606
   12MOL0     C 1494   5.504   4.016   8.751  0.3177  0.3690  0.1555
   12MOL0     C 1495   5.378   4.062   8.670 -0.1733  0.5694  0.3982
   12MOL0    Cl 1496   5.282   3.914   8.613 -0.2090 -0.2517  0.0155
   12MOL0     C 1497   6.331   4.503   9.281  0.0466 -0.2367  0.3319
   12MOL0     C 1498   6.439   4.528   9.367  0.7345 -0.6891 -0.7589
   12MOL0     O 1499   6.755   4.578   9.348  0.6624  0.4312 -0.5608
   12MOL0     C 1500   6.950   4.623   9.549  0.3115  0.3154 -0.0489
   12MOL0     C 1501   7.044   4.642   9.659  0.9816 -0.1785  0.6509
   12MOL0     N 1502   7.617   4.821   9.901  0.0125 -0.1722  0.3740
   12MOL0     N 1503   7.687   4.862   9.799  0.2550  0.1515  0.9122
   12MOL0     C 1504   8.221   5.115   8.892  1.3593 -0.5470  0.1509
   12MOL0     C 1505   8.125   5.192   8.812 -1.1127  0.5313  0.2416
   12MOL0     C 1506   7.795   5.364   8.626  0.3052  0.5580  0.5383
   12MOL0     C 1507   7.680   5.418   8.689 -0.1515 -0.4270  0.7210
   12MOL0     C 1508   7.630   5.536   8.638 -0.2138  0.1479  0.7212
   12MOL0     C 1509   7.696   5.611   8.540 -0.9290 -0.7675 -0.3405
   12MOL0     O 1510   7.660   5.730   8.484 -0.7947 -0.0617 -0.2575
   12MOL0     C 1511   7.556   5.798   8.551  0.8250  0.0525 -0.3975
   12MOL0     C 1512   7.575   5.854   8.693 -0.5860 -0.5718 -0.2574
   12MOL0     C 1513   7.724   5.895   8.724  0.3281 -0.5220  0.7919
   12MOL0     C 1514   7.749   5.963   8.863  0.0518  0.5114  0.5964
   12MOL0     C 1515   7.675   6.089   8.878 -0.0863  0.0186  0.3764
   12MOL0     C 1516   7.609   6.191   8.863  0.0229  0.3216  0.4163
   12MOL0     C 1517   7.809   5.564   8.488 -0.6918  0.1071  0.3880
   12MOL0     C 1518   7.857   5.438   8.528 -0.0106 -0.3225 -0.0743
   12MOL0     H 1519   7.972   4.927   8.668  1.5243  0.9370 -3.1190
   12MOL0     H 1520   8.115   4.806   8.807 -0.6135  0.2786 -2.7173
   12MOL0     H 1521   8.314   4.734   8.904  1.9532 -0.0470 -0.0896
   12MOL0     H 1522   8.189   4.737   9.012  1.0758 -3.5271 -1.4143
   12MOL0     H 1523   8.479   4.778   9.107  0.2118  1.9833  0.1342
   12MOL0     H 1524   8.389   4.626   9.110 -0.3512 -0.4578 -1.3607
   12MOL0     H 1525   8.320   4.887   9.250 -0.3067 -0.3165 -2.7290
   12MOL0     H 1526   8.389   4.740   9.335 -2.3622 -2.6341  1.8502
   12MOL0     H 1527   8.117   4.769   9.222  1.2394  1.2270  0.4597
   12MOL0     H 1528   8.176   4.614   9.279 -0.6775 -0.0094 -0.9040
   12MOL0     H 1529   8.147   4.864   9.454 -0.7113  0.8258 -1.6376
   12MOL0     H 1530   8.195   4.704   9.503  2.2753  1.3000 -0.8092
   12MOL0     H 1531   7.975   4.617   9.408 -1.6121 -0.0062 -1.7030
   12MOL0     H 1532   7.931   4.785   9.378  0.9199  0.0830 -0.4166
   12MOL0     H 1533   7.939   4.659   9.652  1.9550 -0.4048 -1.3376
   12MOL0     H 1534   7.975   4.833   9.613 -2.2158  1.5604 -1.8307
   12MOL0     H 1535   7.713   4.695   9.513 -1.4081 -2.3003  2.2152
   12MOL0     H 1536   7.737   4.863   9.536  0.5861  0.9532  1.5757
   12MOL0     H 1537   7.635   4.542   9.738 -3.1254  0.0031  0.7336
   12MOL0     H 1538   7.492   4.656  10.072 -1.1313 -0.3419 -0.5499
   12MOL0     H 1539   7.591   4.523  10.021  0.6573  1.5747  0.4626
   12MOL0     H 1540   7.424   4.461   9.850 -0.6482 -0.9890 -1.7000
   12MOL0     H 1541   7.352   4.621   9.875 -0.8968  0.1647  2.0838
   12MOL0     H 1542   7.333   4.392  10.061  2.2460  0.3575 -2.3861
   12MOL0     H 1543   7.281   4.560  10.100 -2.2512 -0.0447 -0.6186
   12MOL0     H 1544   7.087   4.427  10.008 -0.8800 -0.5290 -0.0374
   12MOL0     H 1545   7.173   4.395   9.864  0.0473  1.8779  0.5244
   12MOL0     H 1546   6.910   4.419   9.870 -1.6504  1.9728  1.6668
   12MOL0     H 1547   6.748   4.397   9.682  0.1384  0.0270 -0.2553
   12MOL0     H 1548   6.565   4.213   9.377 -1.7647 -0.8650  1.3654
   12MOL0     H 1549   6.386   4.179   9.200  1.0169  1.7999 -2.4061
   12MOL0     H 1550   6.093   4.221   9.232 -2.3071  0.3200 -0.0668
   12MOL0     H 1551   6.176   4.160   9.083 -2.9151  0.1063 -2.0741
   12MOL0     H 1552   6.029   4.323   8.950 -1.1348  1.0591  0.3143
   12MOL0     H 1553   5.935   4.359   9.094  0.1857  1.1346 -3.9793
   12MOL0     H 1554   5.875   4.117   9.103 -0.5964 -1.0155 -0.1715
   12MOL0     H 1555   5.950   4.103   8.941  2.3713  2.4174 -0.4824
   12MOL0     H 1556   5.737   4.283   9.008  1.1463 -0.5087  1.5393
   12MOL0     H 1557   5.811   4.285   8.850 -1.0038 -0.4297  0.0611
   12MOL0     H 1558   5.665   4.055   8.984 -0.3563 -0.4431 -1.0391
   12MOL0     H 1559   5.756   4.029   8.838  0.8753 -0.5949  0.6169
   12MOL0     H 1560   5.609   4.209   8.727  0.0160 -0.6032 -0.8691
   12MOL0     H 1561   5.506   4.207   8.867 -0.1902 -1.1191  0.8279
   12MOL0     H 1562   5.568   3.971   8.675  1.8637  3.5654 -0.6270
   12MOL0     H 1563   5.476   3.951   8.834  2.6508 -0.1169  0.6330
   12MOL0     H 1564   5.411   4.105   8.575 -2.1889  0.8303 -0.2280
   12MOL0     H 1565   5.315   4.134   8.722 -1.7962  1.1047 -2.1367
   12MOL0     H 1566   6.267   4.583   9.245  0.0417 -0.5883 -0.4441
   12MOL0     H 1567   6.441   4.631   9.401 -0.4557 -0.7543 -0.4355
   12MOL0     H 1568   6.972   4.689   9.465 -1.8316  0.8336 -0.2699
   12MOL0     H 1569   7.124   4.715   9.650 -0.7304  1.6523 -0.4565
   12MOL0     H 1570   8.291   5.173   8.951  0.8060  0.4872 -0.1896
   12MOL0     H 1571   8.129   5.300   8.805  2.5875  0.4800 -0.5700
   12MOL0     H 1572   7.618   5.364   8.759 -0.7641 -1.8642 -0.8739
   12MOL0     H 1573   7.531   5.572   8.666  0.0037  3.4871 -2.0621
   12MOL0     H 1574   7.463   5.743   8.535 -1.0047  1.6461  3.3077
   12MOL0     H 1575   7.565   5.893   8.498  3.8596  0.8026  1.2359
   12MOL0     H 1576   7.506   5.938   8.701  1.2251  0.8890  0.6913
   12MOL0     H 1577   7.549   5.791   8.779 -1.2573  0.2315  0.1433
   12MOL0     H 1578   7.746   5.967   8.644  0.1094  3.2824  3.8832
   12MOL0     H 1579   7.792   5.811   8.713 -0.8740 -1.2617 -1.9074
   12MOL0     H 1580   7.718   5.894   8.942 -0.7753  0.3125  0.1115
   12MOL0     H 1581   7.856   5.989   8.859 -0.2389  1.6530 -0.3124
   12MOL0     H 1582   7.540   6.273   8.862  1.0127  1.2615 -2.6518
   12MOL0     H 1583   7.858   5.625   8.413 -1.4720  0.1551 -0.0958
   12MOL0     H 1584   7.948   5.398   8.484 -0.7786 -1.1203 -1.0013
   13MOL0     O 1585   2.597   0.461   5.401 -0.1108  0.3515  0.1125
   13MOL0     C 1586   2.624   0.346   5.413  0.4650 -0.3372  0.6884
   13MOL0     O 1587   2.551   0.248   5.353 -0.2599 -0.0304  0.6176
   13MOL0     C 1588   2.417   0.271   5.322  0.9320  0.6851  0.5705
   13MOL0     C 1589   2.380   0.279   5.186 -0.3948  0.4145  0.1028
   13MOL0     C 1590   2.248   0.290   5.150 -0.2611 -0.5762 -0.2195
   13MOL0     C 1591   2.145   0.283   5.247  0.6407 -0.5580  1.0063
   13MOL0     O 1592   2.012   0.278   5.216  0.1774  0.4970  0.2311
   13MOL0     C 1593   1.957   0.310   5.082  0.6664  0.2437  0.1673
   13MOL0     C 1594   1.914   0.188   4.999 -0.6256 -1.0932 -0.0634
   13MOL0     C 1595   1.811   0.109   5.070 -0.3954  0.1765 -0.2462
   13MOL0     C 1596   1.788  -0.023   5.012 -1.1541  0.7801 -0.0738
   13MOL0     C 1597   1.727  -0.127   5.118  0.2587  0.0445  0.3857
   13MOL0     C 1598   1.679  -0.256   5.060  0.5056  0.9560 -1.4181
   13MOL0     C 1599   1.553  -0.258   4.967 -0.3454  0.4546 -0.2826
   13MOL0     C 1600   1.526  -0.397   4.919  1.3346  1.0797 -0.2228
   13MOL0     N 1601   1.438  -0.396   4.804  0.3445 -0.4472 -0.3207
   13MOL0     C 1602   1.315  -0.332   4.797  0.5062  0.3601 -0.8067
   13MOL0     C 1603   1.275  -0.363   4.668 -0.2123 -0.7506 -0.9194
   13MOL0     C 1604   1.140  -0.319   4.610 -1.2064  0.2446  0.2538
   13MOL0     C 1605   1.042  -0.436   4.627  0.0371 -0.0998  0.3395
   13MOL0     C 1606   1.036  -0.485   4.776  0.2031  0.9722 -0.4749
   13MOL0     C 1607   0.906  -0.533   4.825  0.9420  0.8386  0.0801
   13MOL0     O 1608   0.883  -0.666   4.782  0.0407  0.4331 -0.0302
   13MOL0     C 1609   0.794  -0.750   4.846  0.4807  0.6315  0.6029
   13MOL0     C 1610   0.802  -0.887   4.815  0.3231  0.6442 -0.0077
   13MOL0     C 1611   0.726  -0.986   4.875 -0.2956 -0.6796 -0.0324
   13MOL0     C 1612   0.626  -0.948   4.962  0.1172 -0.6368 -0.4436
   13MOL0     C 1613   0.545  -1.048   5.036 -0.0983 -0.3964  0.1262
   13MOL0     O 1614   0.423  -1.015   5.085 -0.7309 -0.0811 -0.6544
   13MOL0     C 1615   0.361  -1.113   5.156 -0.0035  0.3116  0.1117
   13MOL0     C 1616   0.226  -1.137   5.140  0.2240 -0.2540  0.0523
   13MOL0     C 1617   0.151  -1.213   5.228  0.0093 -0.2721 -0.6973
   13MOL0     C 1618   0.209  -1.279   5.334 -0.0591  0.3957 -0.6042
   13MOL0     O 1619   0.120  -1.354   5.411  0.1822  0.0261  0.4212
   13MOL0     C 1620   0.169  -1.373   5.548  0.1052  1.2738  1.3159
   13MOL0     C 1621   0.077  -1.461   5.629  0.4108 -0.5084  0.1296
   13MOL0     C 1622   0.154  -1.504   5.758  0.8349 -0.2944  0.0723
   13MOL0     C 1623   0.093  -1.623   5.849 -0.5782 -0.4822 -0.0984
   13MOL0     C 1624  -0.056  -1.612   5.867  0.0729  0.0926  0.2581
   13MOL0     C 1625  -0.095  -1.734   5.938  0.1498  0.7001  0.5243
   13MOL0     C 1626  -0.245  -1.769   5.919 -0.2242 -1.1193  0.3915
   13MOL0     C 1627  -0.260  -1.915   5.954  0.6357 -0.1939 -0.1092
   13MOL0    Cl 1628  -0.417  -1.974   5.908 -0.2535 -0.0377 -0.3791
   13MOL0     C 1629   0.343  -1.257   5.363  0.0277  0.1830  0.3802
   13MOL0     C 1630   0.414  -1.166   5.278 -0.3472  0.5924 -0.6835
   13MOL0     O 1631   0.594  -1.161   5.046  0.0740 -0.9289  0.6190
   13MOL0     C 1632   0.611  -0.816   4.999 -0.1593  0.0175  0.0782
   13MOL0     C 1633   0.696  -0.717   4.949 -0.6778  0.4071  0.2809
   13MOL0     N 1634   1.369  -0.446   4.612  0.0166 -0.2523  0.1756
   13MOL0     N 1635   1.469  -0.461   4.691 -0.3879  0.3714 -0.3561
   13MOL0     C 1636   2.190   0.283   5.381 -0.0546  0.0754  0.2923
   13MOL0     C 1637   2.321   0.268   5.423 -0.3640 -0.0111  0.2783
   13MOL0     C 1638   2.757   0.310   5.474 -1.2724  0.0719  1.0556
   13MOL0     C 1639   2.785   0.176   5.502 -0.0213 -0.1300  0.7710
   13MOL0     C 1640   2.911   0.142   5.550  0.3878  0.4198  0.6750
   13MOL0     C 1641   3.000   0.243   5.586 -0.7315  0.0664  0.2818
   13MOL0     O 1642   3.123   0.213   5.629 -0.3790 -0.3213  0.3843
   13MOL0     C 1643   3.202   0.305   5.702  0.6601 -0.7646 -0.5533
   13MOL0     C 1644   3.280   0.220   5.806  0.2927  0.1553  0.0248
   13MOL0     C 1645   3.338   0.302   5.919 -0.2947  0.1000  0.3568
   13MOL0     C 1646   3.424   0.216   6.014  0.3897 -0.0377 -0.1699
   13MOL0     C 1647   3.472   0.277   6.141 -0.2455 -0.1169  0.2796
   13MOL0     C 1648   3.505   0.325   6.248  0.3317  0.9449  0.5796
   13MOL0     C 1649   2.969   0.368   5.563  0.4005 -0.6038  0.2389
   13MOL0     C 1650   2.853   0.405   5.498 -0.4432 -0.3730  0.3490
   13MOL0     H 1651   2.449   0.278   5.103  0.4137 -0.3795  0.7601
   13MOL0     H 1652   2.234   0.297   5.043  1.7988  0.6518 -0.4692
   13MOL0     H 1653   2.033   0.360   5.021 -1.6953  1.1130 -2.2682
   13MOL0     H 1654   1.871   0.378   5.081 -0.6723 -1.3538  0.6494
   13MOL0     H 1655   2.002   0.126   4.983  0.2106  0.3175 -1.2098
   13MOL0     H 1656   1.874   0.230   4.906 -3.2441  1.2868  1.9621
   13MOL0     H 1657   1.719   0.168   5.079 -1.9683 -2.0566 -0.6489
   13MOL0     H 1658   1.840   0.085   5.173 -1.1530  0.7778  0.1192
   13MOL0     H 1659   1.732  -0.023   4.918  1.8905  0.6116 -2.0500
   13MOL0     H 1660   1.884  -0.067   4.983 -1.3557  0.2071  0.1155
   13MOL0     H 1661   1.631  -0.090   5.152  1.7937  1.8874  3.0899
   13MOL0     H 1662   1.791  -0.141   5.206  0.2535 -1.1570  0.2254
   13MOL0     H 1663   1.654  -0.321   5.145  3.7093  0.9465 -0.3409
   13MOL0     H 1664   1.756  -0.309   5.004 -1.3202 -2.6375 -0.8557
   13MOL0     H 1665   1.466  -0.211   5.014 -0.0902 -1.7353  2.6563
   13MOL0     H 1666   1.585  -0.199   4.881 -0.7333  0.3994 -0.4690
   13MOL0     H 1667   1.474  -0.454   4.996  1.5002  1.5057  0.2144
   13MOL0     H 1668   1.617  -0.453   4.894  0.8214 -0.1340  0.5213
   13MOL0     H 1669   1.258  -0.276   4.870 -0.7514  0.7294 -2.0237
   13MOL0     H 1670   1.154  -0.310   4.502 -1.4883 -0.3950  0.1572
   13MOL0     H 1671   1.119  -0.221   4.652  1.0518  1.0422 -0.3318
   13MOL0     H 1672   1.088  -0.515   4.566  0.8812 -0.4557  1.4034
   13MOL0     H 1673   0.944  -0.412   4.584  0.4823 -0.1487 -0.7268
   13MOL0     H 1674   1.112  -0.559   4.803 -0.2903  1.1047  1.4625
   13MOL0     H 1675   1.059  -0.396   4.835 -2.5377  1.8914 -0.6201
   13MOL0     H 1676   0.833  -0.461   4.785 -1.7663 -2.6812 -1.8783
   13MOL0     H 1677   0.911  -0.529   4.934  0.8467  3.4979  0.0664
   13MOL0     H 1678   0.878  -0.918   4.743  1.8204  1.1917  1.2670
   13MOL0     H 1679   0.730  -1.092   4.851  1.7022 -1.0188  1.5628
   13MOL0     H 1680   0.184  -1.089   5.052  0.0011 -1.9561 -0.8173
   13MOL0     H 1681   0.044  -1.223   5.211 -0.1365 -0.1735  0.1224
   13MOL0     H 1682   0.181  -1.273   5.590 -2.4274  2.5016 -0.5676
   13MOL0     H 1683   0.256  -1.438   5.540 -2.1155 -1.7235 -1.2594
   13MOL0     H 1684   0.043  -1.547   5.571  0.0844  0.0593 -0.5296
   13MOL0     H 1685  -0.014  -1.409   5.659 -1.4557 -3.1597 -0.6053
   13MOL0     H 1686   0.168  -1.415   5.821 -0.1805 -0.6175  0.7856
   13MOL0     H 1687   0.252  -1.539   5.726  0.8162  1.0420 -1.5563
   13MOL0     H 1688   0.106  -1.714   5.791 -0.9488  0.0493 -1.0417
   13MOL0     H 1689   0.143  -1.622   5.946  1.7702  0.7065 -1.2402
   13MOL0     H 1690  -0.100  -1.614   5.767 -0.4355 -1.8942  0.4747
   13MOL0     H 1691  -0.079  -1.519   5.919  2.6795  2.0531 -1.7714
   13MOL0     H 1692  -0.070  -1.714   6.042 -0.2682  0.2274  0.7198
   13MOL0     H 1693  -0.036  -1.820   5.904 -1.0505 -0.1926  0.6095
   13MOL0     H 1694  -0.311  -1.709   5.982  1.1542 -1.2966  2.0888
   13MOL0     H 1695  -0.276  -1.756   5.815  1.1563 -1.6728 -0.1068
   13MOL0     H 1696  -0.256  -1.931   6.062 -0.5307 -0.6167 -0.1076
   13MOL0     H 1697  -0.184  -1.973   5.902  0.5510 -1.5900  1.2442
   13MOL0     H 1698   0.394  -1.300   5.448  1.1854  2.9333  1.1964
   13MOL0     H 1699   0.511  -1.133   5.313 -0.4163 -1.2934  1.4487
   13MOL0     H 1700   0.528  -0.785   5.062  0.1416 -0.0095  0.4914
   13MOL0     H 1701   0.671  -0.616   4.979 -2.3693 -0.6881  2.9517
   13MOL0     H 1702   2.112   0.284   5.457  0.3411  0.4239  0.7009
   13MOL0     H 1703   2.339   0.258   5.530 -1.0461 -0.2190  0.3782
   13MOL0     H 1704   2.713   0.097   5.486 -0.5174 -0.2380  3.2194
   13MOL0     H 1705   2.930   0.039   5.577  0.0322  0.3849  0.7931
   13MOL0     H 1706   3.152   0.382   5.760  3.2698 -0.8935  2.1192
   13MOL0     H 1707   3.269   0.356   5.632 -1.3846  1.5212 -0.9593
   13MOL0     H 1708   3.202   0.157   5.849 -1.5206  1.3034 -1.4407
   13MOL0     H 1709   3.352   0.157   5.754  1.9323  0.7304  1.4868
   13MOL0     H 1710   3.253   0.353   5.965 -1.3324 -0.0416 -1.3016
   13MOL0     H 1711   3.407   0.376   5.878 -1.1150  0.3591 -0.6082
   13MOL0     H 1712   3.367   0.129   6.046  0.5453 -1.2792 -2.9406
   13MOL0     H 1713   3.509   0.182   5.954  1.3297  1.3778  0.3058
   13MOL0     H 1714   3.529   0.379   6.338 -0.9623  2.5007  0.0432
   13MOL0     H 1715   3.036   0.448   5.592  3.0231 -2.0821 -1.3459
   13MOL0     H 1716   2.838   0.512   5.484  0.5573  0.0984  2.4480
   14MOL0     O 1717   6.870   0.841   0.994 -0.1365  0.0086  0.5820
   14MOL0     C 1718   6.826   0.874   1.105  0.5561  0.5130 -0.4202
   14MOL0     O 1719   6.691   0.887   1.146 -0.0298  0.0077  0.1462
   14MOL0     C 1720   6.601   0.877   1.048  0.4381  0.4289  0.0758
   14MOL0     C 1721   6.493   0.789   1.077 -0.4980  0.1071 -0.6739
   14MOL0     C 1722   6.390   0.764   0.986  0.0174 -0.1056 -0.5092
   14MOL0     C 1723   6.384   0.837   0.869 -0.1404 -0.0711  0.2631
   14MOL0     O 1724   6.286   0.824   0.771 -0.2749 -0.2329  0.3826
   14MOL0     C 1725   6.176   0.738   0.800  0.0949 -0.2981  0.1693
   14MOL0     C 1726   6.067   0.769   0.698 -0.1292 -0.5975  0.3671
   14MOL0     C 1727   5.938   0.683   0.715 -0.3379 -0.5770  0.4589
   14MOL0     C 1728   5.821   0.752   0.640 -0.6602 -1.2768  0.3963
   14MOL0     C 1729   5.699   0.666   0.652  1.1772  0.7788 -0.5901
   14MOL0     C 1730   5.586   0.718   0.560  1.0251  0.0486  0.3523
   14MOL0     C 1731   5.450   0.634   0.571 -0.2816 -0.4500 -0.0129
   14MOL0     C 1732   5.334   0.706   0.500  0.0210  0.2011  0.2844
   14MOL0     N 1733   5.219   0.619   0.518 -0.4320 -0.0096 -0.1620
   14MOL0     C 1734   5.127   0.645   0.618  0.0760 -0.7927  0.3187
   14MOL0     C 1735   5.021   0.556   0.589  0.0791  0.0393  0.3681
   14MOL0     C 1736   4.905   0.522   0.671 -0.2609 -0.5397 -0.4491
   14MOL0     C 1737   4.767   0.565   0.621  0.1036  0.5823 -0.1900
   14MOL0     C 1738   4.665   0.550   0.732  0.0087 -0.5455  0.0229
   14MOL0     C 1739   4.590   0.419   0.752 -0.6243 -0.6065  1.0716
   14MOL0     O 1740   4.501   0.400   0.649  0.5043 -0.5198  0.2585
   14MOL0     C 1741   4.371   0.449   0.656  0.1785 -0.3378  0.7284
   14MOL0     C 1742   4.287   0.401   0.552 -0.1502 -0.4599  1.1446
   14MOL0     C 1743   4.153   0.438   0.537  0.0455 -0.7335  0.4064
   14MOL0     C 1744   4.095   0.530   0.634 -0.5172 -0.5684  0.1673
   14MOL0     C 1745   3.951   0.571   0.621 -0.0934  0.0991 -0.3766
   14MOL0     O 1746   3.875   0.541   0.517 -0.8380  0.4449  0.0157
   14MOL0     C 1747   3.741   0.541   0.528 -0.9717 -0.4818 -0.2666
   14MOL0     C 1748   3.669   0.658   0.531 -0.2078  0.2603 -0.3163
   14MOL0     C 1749   3.534   0.651   0.561 -0.0692 -0.0210  0.6256
   14MOL0     C 1750   3.464   0.532   0.577  0.3115 -0.6514  0.0178
   14MOL0     O 1751   3.331   0.518   0.593  0.2840  0.1048  0.4266
   14MOL0     C 1752   3.252   0.633   0.591  0.3563 -0.5095  0.4005
   14MOL0     C 1753   3.102   0.591   0.581 -0.1948 -0.0335 -0.4569
   14MOL0     C 1754   3.078   0.502   0.461 -0.3216  0.1938  0.2478
   14MOL0     C 1755   2.931   0.471   0.445 -0.3219 -0.4291  0.5882
   14MOL0     C 1756   2.835   0.596   0.442 -0.0756 -0.3387 -0.3785
   14MOL0     C 1757   2.865   0.678   0.314 -0.5896  0.0033 -0.3157
   14MOL0     C 1758   2.838   0.618   0.175  0.4551  0.6283 -0.5814
   14MOL0     C 1759   2.815   0.708   0.063  0.9743 -0.4002  0.1851
   14MOL0    Cl 1760   2.683   0.834   0.098 -0.0270  0.4160 -0.3410
   14MOL0     C 1761   3.539   0.413   0.587  0.2628  0.5847  0.0798
   14MOL0     C 1762   3.676   0.418   0.555 -0.2035  0.1587  0.1403
   14MOL0     O 1763   3.907   0.619   0.723  0.0506  0.2340 -0.8771
   14MOL0     C 1764   4.189   0.586   0.735  0.3482  0.6587  0.0406
   14MOL0     C 1765   4.324   0.548   0.744  0.2576  0.1737  0.9093
   14MOL0     N 1766   5.051   0.502   0.463  0.0542  0.2121 -0.1566
   14MOL0     N 1767   5.173   0.531   0.429  0.1369 -0.3683  0.1615
   14MOL0     C 1768   6.480   0.932   0.844  0.6163 -0.7245 -0.4915
   14MOL0     C 1769   6.588   0.948   0.935  0.4766 -0.0660 -0.1039
   14MOL0     C 1770   6.928   0.901   1.205  0.8566  0.3796  0.2317
   14MOL0     C 1771   7.067   0.889   1.171  0.4887 -0.2700  0.5633
   14MOL0     C 1772   7.160   0.930   1.263 -0.8324 -0.8040  0.7783
   14MOL0     C 1773   7.132   0.982   1.386  0.3134  0.0272 -0.9389
   14MOL0     O 1774   7.237   1.002   1.476  0.2826  0.4244  0.6801
   14MOL0     C 1775   7.219   1.005   1.616  0.6394  0.3849  1.1953
   14MOL0     C 1776   7.351   0.962   1.673 -0.2695  0.2161  0.4676
   14MOL0     C 1777   7.474   1.012   1.596 -0.4710  0.1576  0.4011
   14MOL0     C 1778   7.596   0.968   1.676  0.5569 -0.4353 -0.5888
   14MOL0     C 1779   7.612   1.061   1.789  0.8492 -0.3355  0.3443
   14MOL0     C 1780   7.604   1.130   1.892 -0.2326 -0.1033  1.3493
   14MOL0     C 1781   6.999   0.995   1.424  0.7207  0.4326 -0.1395
   14MOL0     C 1782   6.898   0.953   1.334 -0.2006  0.0441  0.1153
   14MOL0     H 1783   6.495   0.736   1.172 -2.1981 -0.6436 -1.0176
   14MOL0     H 1784   6.310   0.691   0.997 -2.0715  1.7012 -2.7248
   14MOL0     H 1785   6.143   0.752   0.904  0.8183 -2.4918  0.7382
   14MOL0     H 1786   6.199   0.632   0.789 -0.6142 -0.4936  0.5060
   14MOL0     H 1787   6.095   0.748   0.595 -0.1568 -0.6574  0.3719
   14MOL0     H 1788   6.033   0.873   0.698 -1.6332 -0.9669 -3.1662
   14MOL0     H 1789   5.908   0.671   0.819  5.8064 -2.5901  2.4012
   14MOL0     H 1790   5.949   0.590   0.658 -0.0340  0.0847 -0.6048
   14MOL0     H 1791   5.812   0.851   0.686 -0.2830 -0.6294 -0.8888
   14MOL0     H 1792   5.842   0.767   0.534 -0.6851  2.1625  0.7650
   14MOL0     H 1793   5.672   0.649   0.757 -1.8139  3.0058 -0.8654
   14MOL0     H 1794   5.724   0.568   0.611  0.7581 -0.2791  1.5317
   14MOL0     H 1795   5.621   0.712   0.456 -1.9770  0.8264 -0.7854
   14MOL0     H 1796   5.546   0.815   0.588 -2.2858 -1.6901  2.3194
   14MOL0     H 1797   5.459   0.532   0.533 -1.5068 -0.7054  0.3478
   14MOL0     H 1798   5.450   0.623   0.680  0.5393 -4.2183 -0.2700
   14MOL0     H 1799   5.362   0.729   0.397  1.0138 -0.2391  0.4477
   14MOL0     H 1800   5.315   0.805   0.543  0.9404  1.3227 -1.7386
   14MOL0     H 1801   5.137   0.707   0.707  3.2214  0.4764 -0.7898
   14MOL0     H 1802   4.925   0.571   0.766  1.3041  1.1519 -1.5917
   14MOL0     H 1803   4.909   0.415   0.696 -1.4084  0.0207  2.5594
   14MOL0     H 1804   4.744   0.506   0.531  1.8600 -1.9349  0.8802
   14MOL0     H 1805   4.767   0.672   0.602 -1.3779  0.7451  0.5432
   14MOL0     H 1806   4.705   0.580   0.829  0.3605  0.3236 -0.3886
   14MOL0     H 1807   4.587   0.621   0.704  1.7844  1.2889 -0.5129
   14MOL0     H 1808   4.537   0.427   0.847 -2.1276 -2.2157  0.4317
   14MOL0     H 1809   4.665   0.340   0.760 -0.6305 -0.7224  0.1653
   14MOL0     H 1810   4.344   0.339   0.484  0.5516  1.1906  0.1761
   14MOL0     H 1811   4.096   0.411   0.448  0.0714  0.0701  0.1447
   14MOL0     H 1812   3.713   0.755   0.510  1.8944 -0.6516 -0.4491
   14MOL0     H 1813   3.485   0.748   0.564  1.6746  0.9132  0.3138
   14MOL0     H 1814   3.274   0.704   0.510 -3.3895 -0.3185 -0.6676
   14MOL0     H 1815   3.271   0.689   0.683 -1.8882 -0.1287  0.6809
   14MOL0     H 1816   3.050   0.687   0.573  0.9899  0.5937 -1.0768
   14MOL0     H 1817   3.063   0.548   0.673 -0.2260 -0.4675 -0.6736
   14MOL0     H 1818   3.128   0.405   0.466 -1.0406 -0.1545  0.8167
   14MOL0     H 1819   3.103   0.550   0.366  0.0778  1.3214  0.9075
   14MOL0     H 1820   2.915   0.435   0.343 -1.6001 -0.2980  0.7228
   14MOL0     H 1821   2.908   0.396   0.521  1.5396 -3.3712 -1.5311
   14MOL0     H 1822   2.850   0.657   0.531 -0.6682  1.0845 -1.2252
   14MOL0     H 1823   2.728   0.570   0.446  0.2398 -1.6197  2.4306
   14MOL0     H 1824   2.971   0.706   0.317 -0.3648 -0.8478  1.0778
   14MOL0     H 1825   2.805   0.767   0.334 -3.4278 -1.9938  0.6913
   14MOL0     H 1826   2.927   0.564   0.138 -0.4125 -1.9235  0.7888
   14MOL0     H 1827   2.746   0.560   0.181  0.0560  1.3928  1.4026
   14MOL0     H 1828   2.797   0.661  -0.034  1.6299  0.2231 -0.2460
   14MOL0     H 1829   2.902   0.774   0.058 -0.8244  2.3423  1.9836
   14MOL0     H 1830   3.488   0.319   0.602 -1.4628  1.3895 -0.4344
   14MOL0     H 1831   3.731   0.325   0.548 -1.1055 -0.3277 -0.6044
   14MOL0     H 1832   4.144   0.662   0.798 -1.5652 -0.2922 -0.0886
   14MOL0     H 1833   4.385   0.602   0.815 -1.3989  2.0366  0.9982
   14MOL0     H 1834   6.480   0.991   0.753  3.2035  1.4547  0.7962
   14MOL0     H 1835   6.671   1.011   0.903 -0.7418  0.9365 -1.4486
   14MOL0     H 1836   7.099   0.850   1.075 -1.2162 -0.3565 -0.0079
   14MOL0     H 1837   7.262   0.908   1.231 -0.8531 -0.0285  0.1432
   14MOL0     H 1838   7.135   0.948   1.655  1.6324 -1.4676  0.7784
   14MOL0     H 1839   7.208   1.111   1.639  1.0827  0.5527  0.6683
   14MOL0     H 1840   7.351   0.998   1.776 -0.7204  2.6920 -0.3226
   14MOL0     H 1841   7.348   0.853   1.670 -0.9269  0.2379 -1.5825
   14MOL0     H 1842   7.476   1.121   1.595  3.4483  0.3272  3.0387
   14MOL0     H 1843   7.489   0.970   1.496  0.7015  1.5696 -0.0461
   14MOL0     H 1844   7.587   0.871   1.725 -0.5945  0.2057  0.5490
   14MOL0     H 1845   7.684   0.976   1.613  0.1335 -2.7032 -1.5575
   14MOL0     H 1846   7.615   1.192   1.979  3.7328 -0.5778  1.3636
   14MOL0     H 1847   6.966   1.024   1.523  1.4150  1.4923 -0.2084
   14MOL0     H 1848   6.796   0.948   1.371 -0.1264 -0.7040  0.2358
   15MOL0     O 1849  11.020   7.849   4.095 -0.6452  0.7540  0.6336
   15MOL0     C 1850  11.014   7.827   3.971 -0.1898 -0.1804 -0.2247
   15MOL0     O 1851  10.913   7.767   3.908  0.2006 -0.0911  0.2676
   15MOL0     C 1852  10.787   7.764   3.959  0.5482  0.6861 -0.1767
   15MOL0     C 1853  10.740   7.841   4.061  0.4741  0.7680 -0.3469
   15MOL0     C 1854  10.604   7.851   4.090 -0.7024 -0.1078  0.1514
   15MOL0     C 1855  10.508   7.769   4.030  0.1535 -0.1732 -0.4719
   15MOL0     O 1856  10.372   7.765   4.066 -0.0832  0.5116  0.1738
   15MOL0     C 1857  10.328   7.865   4.155  1.4773 -0.5709 -0.4820
   15MOL0     C 1858  10.192   7.838   4.224  0.0185 -0.0763 -0.2143
   15MOL0     C 1859  10.104   7.956   4.243  0.0773  0.1447 -0.0388
   15MOL0     C 1860   9.995   7.934   4.340  0.3959  0.2121 -0.8791
   15MOL0     C 1861  10.042   7.942   4.490  0.5071  0.2866  0.9119
   15MOL0     C 1862   9.947   7.875   4.587  0.2275  0.1453  0.3016
   15MOL0     C 1863   9.821   7.959   4.609 -0.2371  0.2648  0.1837
   15MOL0     C 1864   9.719   7.877   4.693  0.2199  0.6061  0.0387
   15MOL0     N 1865   9.583   7.919   4.694  0.2455 -0.1042  0.2016
   15MOL0     C 1866   9.533   8.034   4.735 -1.1374 -0.2753 -0.4556
   15MOL0     C 1867   9.400   8.007   4.750  0.7005  0.2324 -0.0519
   15MOL0     C 1868   9.298   8.117   4.784 -0.1148 -0.6863 -0.8139
   15MOL0     C 1869   9.212   8.164   4.663  0.5092 -0.4604 -0.1398
   15MOL0     C 1870   9.150   8.301   4.695 -0.5923 -0.5928  0.2655
   15MOL0     C 1871   9.073   8.318   4.821 -0.1361 -0.2082 -0.6387
   15MOL0     O 1872   9.017   8.448   4.816  0.2144  0.2345 -0.0524
   15MOL0     C 1873   8.882   8.452   4.832 -0.0729  0.4326  0.2866
   15MOL0     C 1874   8.809   8.428   4.950  0.2208  1.2677  0.4282
   15MOL0     C 1875   8.674   8.458   4.959  0.4058  0.3899 -0.0766
   15MOL0     C 1876   8.609   8.498   4.848  0.2395 -0.1247 -0.2370
   15MOL0     C 1877   8.463   8.478   4.836 -0.1822 -0.0312 -0.2552
   15MOL0     O 1878   8.395   8.528   4.731 -0.2672  0.1819  0.2500
   15MOL0     C 1879   8.258   8.512   4.726 -0.0701 -0.1852 -0.3044
   15MOL0     C 1880   8.160   8.591   4.799 -0.4600  1.0329  0.0699
   15MOL0     C 1881   8.025   8.575   4.766  0.4473 -0.4065  0.2269
   15MOL0     C 1882   7.982   8.476   4.683  0.6015 -0.5178 -0.1838
   15MOL0     O 1883   7.847   8.481   4.663  0.2621 -0.2290 -0.1880
   15MOL0     C 1884   7.783   8.360   4.639 -0.0329 -0.0821 -0.2188
   15MOL0     C 1885   7.646   8.389   4.689  0.1100 -0.2744  0.1533
   15MOL0     C 1886   7.564   8.265   4.668  0.3287 -0.1863 -0.0856
   15MOL0     C 1887   7.427   8.272   4.747  0.5931 -0.3524  0.2098
   15MOL0     C 1888   7.330   8.351   4.664 -0.0129 -0.2726 -0.3128
   15MOL0     C 1889   7.187   8.332   4.721 -0.3068  0.1909 -0.3884
   15MOL0     C 1890   7.075   8.354   4.616  0.0771  0.2207 -0.0082
   15MOL0     C 1891   6.953   8.267   4.659 -0.6679 -0.3695  0.4237
   15MOL0    Cl 1892   6.986   8.091   4.657  0.0628 -0.5854 -0.3950
   15MOL0     C 1893   8.074   8.392   4.620  0.3390 -0.3177 -0.5177
   15MOL0     C 1894   8.211   8.408   4.648  0.4262  0.0230 -0.2831
   15MOL0     O 1895   8.412   8.415   4.930 -0.6046 -0.5865  0.0245
   15MOL0     C 1896   8.680   8.521   4.728 -0.0414  0.2078  0.0558
   15MOL0     C 1897   8.816   8.500   4.719 -0.0520  0.1757 -0.6607
   15MOL0     N 1898   9.371   7.882   4.698  0.2332 -0.4482 -0.5896
   15MOL0     N 1899   9.481   7.832   4.665  0.3351 -0.0667 -0.3745
   15MOL0     C 1900  10.554   7.688   3.925  0.6430  0.3517  0.3470
   15MOL0     C 1901  10.690   7.690   3.888 -0.1656  0.6392 -0.6754
   15MOL0     C 1902  11.135   7.840   3.888 -0.5481  0.7830 -0.0425
   15MOL0     C 1903  11.252   7.900   3.936 -0.2622 -0.0843  0.1257
   15MOL0     C 1904  11.362   7.918   3.861 -0.5056 -0.7851  0.2517
   15MOL0     C 1905  11.367   7.885   3.730 -0.2159  0.3970  0.0741
   15MOL0     O 1906  11.485   7.923   3.667  0.3978 -0.8409 -0.2599
   15MOL0     C 1907  11.537   7.856   3.557 -1.1728  0.3088  0.3062
   15MOL0     C 1908  11.673   7.907   3.534 -1.3775  0.4082  0.0568
   15MOL0     C 1909  11.724   7.831   3.400  0.3214 -0.6088  0.6205
   15MOL0     C 1910  11.866   7.877   3.351  0.5161  0.6870  0.2087
   15MOL0     C 1911  11.842   7.986   3.254 -0.9605  0.2679  0.0326
   15MOL0     C 1912  11.836   8.073   3.172  0.2645 -0.6537 -0.4123
   15MOL0     C 1913  11.257   7.815   3.674 -0.0535 -0.0500  0.2762
   15MOL0     C 1914  11.143   7.786   3.756  0.1064 -0.3961  0.3247
   15MOL0     H 1915  10.804   7.910   4.116 -1.6737  3.2064 -0.7144
   15MOL0     H 1916  10.584   7.929   4.163  0.6151 -0.4451  0.8966
   15MOL0     H 1917  10.323   7.959   4.100  0.8052 -0.0753  0.3943
   15MOL0     H 1918  10.393   7.881   4.242 -1.3555 -1.4673  2.0044
   15MOL0     H 1919  10.213   7.794   4.322 -0.5956 -1.5109 -0.6961
   15MOL0     H 1920  10.133   7.768   4.164 -1.0968  0.5228  0.1460
   15MOL0     H 1921  10.067   7.991   4.146 -0.8713 -1.5076 -0.3005
   15MOL0     H 1922  10.169   8.039   4.273 -0.5239  0.8089 -0.5489
   15MOL0     H 1923   9.910   8.001   4.320 -0.6495 -0.4241  1.1676
   15MOL0     H 1924   9.953   7.836   4.316  1.7380  0.0031 -2.5211
   15MOL0     H 1925  10.066   8.043   4.524 -0.8874 -0.2847  3.8815
   15MOL0     H 1926  10.139   7.891   4.494 -0.7227 -2.1706  1.5827
   15MOL0     H 1927  10.005   7.861   4.678 -1.9040  0.0784  1.7270
   15MOL0     H 1928   9.920   7.779   4.543  0.5410 -0.2936  1.0711
   15MOL0     H 1929   9.858   8.052   4.652  2.2287 -1.7742  2.8862
   15MOL0     H 1930   9.776   7.966   4.509 -0.4200 -3.4863 -0.1481
   15MOL0     H 1931   9.749   7.861   4.797 -0.0449  2.2048  0.3901
   15MOL0     H 1932   9.717   7.783   4.637 -1.3885  0.1403  0.8045
   15MOL0     H 1933   9.576   8.127   4.769 -0.6629 -0.9173  0.7608
   15MOL0     H 1934   9.348   8.207   4.821 -1.0959 -0.3632 -0.2416
   15MOL0     H 1935   9.242   8.076   4.868  2.4087  2.0682  2.4767
   15MOL0     H 1936   9.134   8.090   4.648  0.0915 -0.9875  3.6338
   15MOL0     H 1937   9.275   8.172   4.574  2.6369  3.9052  1.4513
   15MOL0     H 1938   9.227   8.378   4.694 -0.0605 -1.1260 -1.0876
   15MOL0     H 1939   9.092   8.327   4.606 -0.9816  0.4626  0.8085
   15MOL0     H 1940   9.134   8.313   4.912 -3.4038 -1.1150  1.6698
   15MOL0     H 1941   9.000   8.237   4.828 -0.6047  0.1542 -1.2176
   15MOL0     H 1942   8.859   8.400   5.042 -1.1658  1.0595  1.1415
   15MOL0     H 1943   8.623   8.445   5.054  2.4457 -2.6499  0.7440
   15MOL0     H 1944   8.191   8.665   4.872  2.6189 -0.2678  0.2371
   15MOL0     H 1945   7.941   8.626   4.813 -1.6220 -3.4908  0.1232
   15MOL0     H 1946   7.821   8.273   4.694 -1.4338  0.1472  1.1813
   15MOL0     H 1947   7.789   8.337   4.532 -3.1112 -0.8851 -0.2909
   15MOL0     H 1948   7.600   8.465   4.625  0.0282 -0.1708  0.3366
   15MOL0     H 1949   7.655   8.422   4.792  1.9624 -1.7546  0.5198
   15MOL0     H 1950   7.627   8.184   4.706  1.7834  0.9929  0.1395
   15MOL0     H 1951   7.545   8.242   4.563  2.5583  0.2347 -0.6470
   15MOL0     H 1952   7.393   8.168   4.757 -0.4437 -0.1610 -1.0158
   15MOL0     H 1953   7.446   8.317   4.844 -1.2142 -0.7614  0.7952
   15MOL0     H 1954   7.329   8.309   4.563 -0.5409  1.2165 -0.9532
   15MOL0     H 1955   7.361   8.455   4.652  2.2598 -1.1403 -2.7606
   15MOL0     H 1956   7.167   8.389   4.813 -0.6369 -3.4855  2.0288
   15MOL0     H 1957   7.171   8.233   4.765  1.1619  0.8259  1.6925
   15MOL0     H 1958   7.055   8.461   4.609 -0.6324  0.0822 -0.2493
   15MOL0     H 1959   7.102   8.321   4.516  0.2288 -2.6010  0.8868
   15MOL0     H 1960   6.865   8.290   4.599 -1.6511 -2.5369  0.9479
   15MOL0     H 1961   6.920   8.294   4.759 -1.7691 -1.4340  0.3613
   15MOL0     H 1962   8.038   8.311   4.556  1.7500  0.8807 -3.0050
   15MOL0     H 1963   8.284   8.348   4.595 -1.0021  0.4518 -2.9136
   15MOL0     H 1964   8.627   8.542   4.636 -0.1048 -1.0241 -0.2015
   15MOL0     H 1965   8.872   8.512   4.627  2.0942 -0.6090  0.4672
   15MOL0     H 1966  10.482   7.635   3.865  0.2621 -2.4017  3.0181
   15MOL0     H 1967  10.736   7.636   3.806  1.1193  0.4814  0.1056
   15MOL0     H 1968  11.251   7.949   4.033 -0.0878  2.4090 -1.0578
   15MOL0     H 1969  11.447   7.972   3.901 -0.6695 -0.3854  0.0651
   15MOL0     H 1970  11.471   7.871   3.471 -0.1814  1.3953 -0.2893
   15MOL0     H 1971  11.549   7.750   3.584  0.4417  0.2229 -0.6227
   15MOL0     H 1972  11.675   8.015   3.517  1.0748  0.3485 -0.5071
   15MOL0     H 1973  11.733   7.874   3.620 -2.4842  0.8539  1.0166
   15MOL0     H 1974  11.659   7.816   3.313  1.1766 -1.2464  0.0826
   15MOL0     H 1975  11.742   7.731   3.439 -0.1620 -0.6220  0.8081
   15MOL0     H 1976  11.934   7.903   3.433  1.5760 -1.0215 -0.0713
   15MOL0     H 1977  11.916   7.793   3.301  1.0515  0.0767  1.6955
   15MOL0     H 1978  11.810   8.159   3.113 -0.8463 -0.2512  0.6173
   15MOL0     H 1979  11.254   7.786   3.569 -2.6033 -0.2834  0.3418
   15MOL0     H 1980  11.065   7.719   3.721  1.2344 -1.4692 -0.2171
   16MOL0     O 1981   1.605   0.883   2.343  0.0897 -0.3493  0.4756
   16MOL0     C 1982   1.550   0.781   2.301 -0.2983  0.0112  0.8630
   16MOL0     O 1983   1.464   0.773   2.193 -0.1893  0.7073  0.3469
   16MOL0     C 1984   1.407   0.891   2.162 -0.0613  0.7079 -0.4287
   16MOL0     C 1985   1.474   0.983   2.077  0.0450 -0.1208 -0.1647
   16MOL0     C 1986   1.407   1.096   2.034 -0.4151 -0.8384  0.3579
   16MOL0     C 1987   1.271   1.116   2.065 -0.2249 -0.3067 -0.5288
   16MOL0     O 1988   1.214   1.230   2.016 -0.2787  0.5705  0.1689
   16MOL0     C 1989   1.131   1.201   1.899  0.8412 -0.2310 -0.5363
   16MOL0     C 1990   1.101   1.330   1.815 -0.5180 -0.2560 -0.3086
   16MOL0     C 1991   0.970   1.337   1.747 -0.0503  0.4728 -0.7916
   16MOL0     C 1992   0.958   1.230   1.636 -0.1250 -0.7839  0.5612
   16MOL0     C 1993   0.829   1.220   1.567 -0.1882  0.8549 -0.3169
   16MOL0     C 1994   0.722   1.137   1.639  0.4706  0.4952 -0.2853
   16MOL0     C 1995   0.604   1.088   1.552  0.2765 -0.6807 -0.2200
   16MOL0     C 1996   0.516   0.984   1.612 -0.5188  0.2682 -0.4369
   16MOL0     N 1997   0.397   1.039   1.681  0.2493 -0.4399  0.0609
   16MOL0     C 1998   0.277   1.070   1.618  0.2062  0.0752  0.8872
   16MOL0     C 1999   0.210   1.140   1.706 -0.3857  0.4930 -0.9344
   16MOL0     C 2000   0.071   1.194   1.707 -0.6236 -0.0618 -0.1058
   16MOL0     C 2001  -0.018   1.131   1.824  0.6843  0.0614  0.2301
   16MOL0     C 2002  -0.166   1.185   1.827  0.2506 -0.3719  0.2471
   16MOL0     C 2003  -0.249   1.108   1.924  0.3079  0.2017  0.1843
   16MOL0     O 2004  -0.257   0.965   1.910 -0.5502  0.1047  0.1593
   16MOL0     C 2005  -0.342   0.881   1.972  0.1193 -0.0355 -0.0068
   16MOL0     C 2006  -0.341   0.742   1.935 -0.6365 -0.3837  0.3769
   16MOL0     C 2007  -0.426   0.649   2.002 -0.1418 -0.6780 -0.4393
   16MOL0     C 2008  -0.508   0.698   2.103  0.0774 -0.9006 -0.2243
   16MOL0     C 2009  -0.606   0.613   2.172 -0.2813  0.1597  0.6748
   16MOL0     O 2010  -0.653   0.661   2.291 -0.2105 -0.1740 -0.1544
   16MOL0     C 2011  -0.730   0.585   2.380  0.4276 -0.1602 -1.2853
   16MOL0     C 2012  -0.715   0.607   2.517 -0.4772  0.9366  0.1508
   16MOL0     C 2013  -0.782   0.529   2.610 -0.1697 -0.6904  0.6040
   16MOL0     C 2014  -0.878   0.432   2.569  0.1278  0.2729  0.3547
   16MOL0     O 2015  -0.965   0.361   2.646 -0.1544  0.8243 -0.1071
   16MOL0     C 2016  -0.969   0.382   2.791  0.2553 -0.2395  0.3715
   16MOL0     C 2017  -1.085   0.296   2.844 -0.9135  0.3640  0.4962
   16MOL0     C 2018  -1.128   0.327   2.979  1.0618  0.1327  0.7034
   16MOL0     C 2019  -1.028   0.316   3.093  0.4142 -1.0475 -0.2660
   16MOL0     C 2020  -1.099   0.359   3.223 -0.0733  0.1731 -0.5539
   16MOL0     C 2021  -0.990   0.353   3.335 -0.2182  0.4597  0.2906
   16MOL0     C 2022  -1.058   0.416   3.464  0.6033  0.3366  0.3943
   16MOL0     C 2023  -1.166   0.337   3.533  0.0645 -0.4750  0.1057
   16MOL0    Cl 2024  -1.098   0.204   3.630  0.0286  0.5114 -0.1634
   16MOL0     C 2025  -0.895   0.413   2.431 -0.2551 -0.4011  0.7635
   16MOL0     C 2026  -0.831   0.495   2.337 -0.4127  0.2687 -0.4382
   16MOL0     O 2027  -0.642   0.504   2.119 -0.2440 -0.2111 -0.1549
   16MOL0     C 2028  -0.511   0.839   2.129 -0.3533  0.1407  0.5982
   16MOL0     C 2029  -0.433   0.927   2.064  0.3170 -0.4634 -0.1530
   16MOL0     N 2030   0.292   1.147   1.819  0.5782 -0.1148  0.0561
   16MOL0     N 2031   0.408   1.098   1.796  0.1330 -0.9950  0.0044
   16MOL0     C 2032   1.212   1.031   2.161  0.3169 -0.8787  0.1841
   16MOL0     C 2033   1.279   0.919   2.213 -0.3171 -0.4515 -0.0894
   16MOL0     C 2034   1.579   0.653   2.379 -0.3924 -0.4292 -0.0001
   16MOL0     C 2035   1.490   0.540   2.371 -0.3950 -0.7033  0.1660
   16MOL0     C 2036   1.523   0.418   2.443  0.1324 -0.2123  0.5451
   16MOL0     C 2037   1.640   0.413   2.526  0.3159  0.3287 -0.6194
   16MOL0     O 2038   1.655   0.301   2.611 -0.0819 -0.5339 -0.0662
   16MOL0     C 2039   1.680   0.325   2.751 -0.1544  0.2089  0.2430
   16MOL0     C 2040   1.747   0.193   2.803  0.0737  0.5138 -0.4513
   16MOL0     C 2041   1.642   0.088   2.803 -0.0386 -0.3907  0.5207
   16MOL0     C 2042   1.715  -0.036   2.854 -0.8032 -0.0713 -0.2571
   16MOL0     C 2043   1.621  -0.144   2.872  0.5360  0.6835 -0.4700
   16MOL0     C 2044   1.530  -0.223   2.884 -0.8043  0.2301  0.0310
   16MOL0     C 2045   1.731   0.520   2.524 -0.1672  0.4561 -0.1683
   16MOL0     C 2046   1.697   0.642   2.456  0.5831  0.4805 -0.1299
   16MOL0     H 2047   1.578   0.960   2.056  0.0401  2.4401 -3.8533
   16MOL0     H 2048   1.469   1.167   1.980 -0.1627 -0.9587  0.4829
   16MOL0     H 2049   1.036   1.155   1.926 -0.8622  2.8265 -0.8873
   16MOL0     H 2050   1.179   1.132   1.828  0.6399  0.9187 -1.8241
   16MOL0     H 2051   1.189   1.341   1.750  1.5733  0.8913  2.4769
   16MOL0     H 2052   1.110   1.419   1.878  0.7674 -0.2857 -0.4191
   16MOL0     H 2053   0.954   1.437   1.704  0.2049  0.8869  0.0434
   16MOL0     H 2054   0.893   1.316   1.822  3.1987 -0.1901  2.6881
   16MOL0     H 2055   1.038   1.256   1.566 -0.6201  1.4249  0.7275
   16MOL0     H 2056   0.988   1.131   1.669 -0.4714 -1.1267 -0.1196
   16MOL0     H 2057   0.841   1.181   1.466 -0.2905  0.0430 -0.0253
   16MOL0     H 2058   0.793   1.321   1.547 -1.4660  0.1287 -1.9211
   16MOL0     H 2059   0.669   1.195   1.715 -2.4194  0.9139 -2.4228
   16MOL0     H 2060   0.770   1.053   1.688 -1.2645 -1.2543 -1.4209
   16MOL0     H 2061   0.543   1.173   1.520 -0.0860 -0.2355  1.5516
   16MOL0     H 2062   0.644   1.046   1.459  1.4730 -1.6134  0.6797
   16MOL0     H 2063   0.567   0.924   1.687 -0.2798  3.7248  2.4283
   16MOL0     H 2064   0.505   0.912   1.530  0.9603  1.7186 -1.9926
   16MOL0     H 2065   0.237   1.047   1.520 -0.8803  2.0503  0.8141
   16MOL0     H 2066   0.028   1.191   1.607  0.2869  0.1708 -0.5153
   16MOL0     H 2067   0.075   1.300   1.733  1.4003 -0.2788  0.6176
   16MOL0     H 2068   0.022   1.165   1.920 -0.3180  0.3259  0.5638
   16MOL0     H 2069  -0.014   1.022   1.819  0.5313  0.1110 -3.5521
   16MOL0     H 2070  -0.165   1.292   1.850  1.6365  0.5076 -3.2349
   16MOL0     H 2071  -0.212   1.175   1.728  0.9761  0.3244 -0.1709
   16MOL0     H 2072  -0.347   1.153   1.945  0.1908 -0.8688  2.2110
   16MOL0     H 2073  -0.199   1.122   2.020  3.4687  3.1856 -1.6834
   16MOL0     H 2074  -0.265   0.704   1.868 -1.6782 -2.2065  0.1585
   16MOL0     H 2075  -0.408   0.545   1.976 -1.1671 -0.9221 -0.2395
   16MOL0     H 2076  -0.648   0.678   2.565 -1.7897  2.0926  0.3420
   16MOL0     H 2077  -0.755   0.542   2.715  0.2765  0.5283  0.3530
   16MOL0     H 2078  -0.985   0.488   2.808 -0.9044 -0.0742 -1.4728
   16MOL0     H 2079  -0.879   0.348   2.844 -1.3188 -2.3306  1.8703
   16MOL0     H 2080  -1.062   0.189   2.838  0.7462  0.6761  0.8266
   16MOL0     H 2081  -1.169   0.297   2.774  1.0058 -2.9925 -2.1857
   16MOL0     H 2082  -1.205   0.253   3.006  1.3907 -0.0212  1.2184
   16MOL0     H 2083  -1.179   0.423   2.975  1.2772  0.2115 -0.9780
   16MOL0     H 2084  -0.982   0.216   3.100  0.8364 -0.7656  1.7027
   16MOL0     H 2085  -0.949   0.386   3.067 -1.5677  0.8275 -1.4989
   16MOL0     H 2086  -1.191   0.303   3.246 -0.5302  0.7828 -0.8732
   16MOL0     H 2087  -1.132   0.463   3.224 -0.0450  0.1880  0.3886
   16MOL0     H 2088  -0.906   0.409   3.294  0.9693 -2.2749 -1.3075
   16MOL0     H 2089  -0.950   0.253   3.354 -0.2004 -0.0355 -2.0063
   16MOL0     H 2090  -0.975   0.453   3.526  1.0804  0.5944 -0.3724
   16MOL0     H 2091  -1.109   0.509   3.437 -0.0024  0.2847  1.2938
   16MOL0     H 2092  -1.238   0.304   3.458 -0.3008  0.7566 -0.1073
   16MOL0     H 2093  -1.222   0.405   3.599 -0.5426 -0.8828  0.0159
   16MOL0     H 2094  -0.975   0.349   2.395 -0.2635  0.5211 -0.9257
   16MOL0     H 2095  -0.849   0.496   2.230  1.8003  0.3125 -0.8738
   16MOL0     H 2096  -0.584   0.880   2.197 -1.8331 -0.2336 -0.7030
   16MOL0     H 2097  -0.449   1.031   2.089  0.5466 -0.2246 -0.9774
   16MOL0     H 2098   1.107   1.052   2.181  0.1188 -2.7967  1.4362
   16MOL0     H 2099   1.223   0.862   2.287  1.1096 -1.0942  0.5281
   16MOL0     H 2100   1.400   0.556   2.312 -1.4999  1.8236  2.3464
   16MOL0     H 2101   1.460   0.330   2.434 -1.4807  0.9902 -0.6930
   16MOL0     H 2102   1.582   0.344   2.796 -0.7968 -0.3753 -0.8643
   16MOL0     H 2103   1.746   0.411   2.768 -0.9206  1.1683 -1.4287
   16MOL0     H 2104   1.832   0.171   2.738 -0.4833  1.4035 -1.5099
   16MOL0     H 2105   1.777   0.209   2.907 -1.2163  1.4719 -0.1977
   16MOL0     H 2106   1.605   0.088   2.701 -1.7238  1.1103  1.0919
   16MOL0     H 2107   1.559   0.108   2.872 -0.0009  3.6395 -0.3540
   16MOL0     H 2108   1.794  -0.067   2.785 -0.3449  2.3659 -0.9210
   16MOL0     H 2109   1.759  -0.012   2.951 -3.0642  1.4282  0.4726
   16MOL0     H 2110   1.445  -0.287   2.875 -2.1931  2.0637 -0.3753
   16MOL0     H 2111   1.823   0.517   2.581  0.5857 -2.8117 -1.3332
   16MOL0     H 2112   1.753   0.732   2.479  1.4706 -0.3902  1.2827
   17MOL0     O 2113   7.934   8.606   6.638  0.1839 -0.0672  0.2178
   17MOL0     C 2114   7.933   8.630   6.759  0.0977  0.4202 -0.9790
   17MOL0     O 2115   7.844   8.592   6.851  0.1271 -0.5631 -0.4441
   17MOL0     C 2116   7.743   8.504   6.827  0.2761 -0.2492  0.2879
   17MOL0     C 2117   7.666   8.521   6.710  0.5910  0.6857 -0.1933
   17MOL0     C 2118   7.550   8.441   6.684  0.0431  0.2679 -0.0030
   17MOL0     C 2119   7.510   8.349   6.776 -0.7688 -0.2881  0.2726
   17MOL0     O 2120   7.411   8.255   6.754  0.4476 -0.6092  0.1673
   17MOL0     C 2121   7.321   8.264   6.645  0.4309 -0.1327 -0.2132
   17MOL0     C 2122   7.360   8.153   6.538  0.0345  0.0329 -0.8283
   17MOL0     C 2123   7.336   8.011   6.596  0.3735  0.2328  0.9149
   17MOL0     C 2124   7.186   7.982   6.634 -0.9481  0.3088  0.4749
   17MOL0     C 2125   7.162   7.846   6.713  0.0983 -0.0214  0.7051
   17MOL0     C 2126   7.014   7.802   6.738  0.0369 -0.0363 -0.2187
   17MOL0     C 2127   7.011   7.656   6.800  0.5386 -0.5221 -0.9046
   17MOL0     C 2128   7.055   7.556   6.692  0.2245  0.0169 -0.5796
   17MOL0     N 2129   6.951   7.550   6.587  0.5333 -0.2875  0.2602
   17MOL0     C 2130   6.839   7.478   6.587 -0.2302  0.2527 -0.4996
   17MOL0     C 2131   6.775   7.506   6.469  0.1488  0.0990 -0.5107
   17MOL0     C 2132   6.649   7.456   6.419  0.6766  0.7324 -0.1869
   17MOL0     C 2133   6.531   7.535   6.488 -0.2878  0.0315 -0.2863
   17MOL0     C 2134   6.390   7.512   6.439  0.1629 -0.2475  0.1387
   17MOL0     C 2135   6.288   7.603   6.491 -0.0871 -0.0463 -0.3475
   17MOL0     O 2136   6.191   7.590   6.389  0.0327  0.2598  0.0956
   17MOL0     C 2137   6.079   7.665   6.383 -0.4102 -0.3932 -0.3587
   17MOL0     C 2138   5.949   7.614   6.336 -0.1579 -0.0106  0.0720
   17MOL0     C 2139   5.840   7.703   6.336  0.0896 -0.1211  1.1020
   17MOL0     C 2140   5.852   7.843   6.370 -0.2191 -0.1953  0.7541
   17MOL0     C 2141   5.739   7.938   6.352 -0.2702 -0.3813  0.2334
   17MOL0     O 2142   5.771   8.079   6.373  0.1696 -0.0626 -0.0021
   17MOL0     C 2143   5.661   8.161   6.363 -0.6470 -0.4559 -0.1986
   17MOL0     C 2144   5.619   8.209   6.491 -0.5790 -0.3761 -0.7859
   17MOL0     C 2145   5.513   8.297   6.502 -0.0688 -0.3841 -0.0305
   17MOL0     C 2146   5.446   8.335   6.388  0.8037 -1.0140  0.8726
   17MOL0     O 2147   5.348   8.432   6.399  0.3342 -0.1613  0.3216
   17MOL0     C 2148   5.232   8.405   6.318  0.4290  0.1176  0.2661
   17MOL0     C 2149   5.116   8.394   6.419  0.6517  0.5062 -0.1033
   17MOL0     C 2150   5.042   8.529   6.458  0.2965  1.0813 -0.3209
   17MOL0     C 2151   4.943   8.519   6.570  0.2101 -0.9199 -0.3716
   17MOL0     C 2152   4.870   8.650   6.595  0.2790  0.4344 -0.1461
   17MOL0     C 2153   4.956   8.760   6.664  0.2087  0.3028  0.1481
   17MOL0     C 2154   4.889   8.886   6.729  0.7296  1.3315 -0.3076
   17MOL0     C 2155   4.862   9.006   6.645 -0.8882  0.0949 -0.1660
   17MOL0    Cl 2156   4.760   8.967   6.515  0.2271  0.5355  0.0758
   17MOL0     C 2157   5.498   8.292   6.261  0.6014 -0.0982  0.6741
   17MOL0     C 2158   5.604   8.211   6.248  0.6969 -0.0907 -0.0392
   17MOL0     O 2159   5.634   7.896   6.312 -0.2506 -0.2997  0.1448
   17MOL0     C 2160   5.982   7.884   6.399 -0.5496  0.1041 -0.2664
   17MOL0     C 2161   6.093   7.799   6.410 -0.2338 -0.5352 -0.0366
   17MOL0     N 2162   6.862   7.582   6.391  0.6951 -0.3264  0.1110
   17MOL0     N 2163   6.962   7.618   6.469  0.0439 -0.0923 -0.2202
   17MOL0     C 2164   7.579   8.345   6.903 -0.1616  0.1739  0.2330
   17MOL0     C 2165   7.692   8.425   6.924 -0.1840  0.2038  0.4973
   17MOL0     C 2166   8.038   8.720   6.819 -0.1717 -0.6334  0.0616
   17MOL0     C 2167   8.024   8.770   6.947  0.0788  0.8991  1.2323
   17MOL0     C 2168   8.133   8.843   6.997 -0.6767  0.0037 -0.1213
   17MOL0     C 2169   8.243   8.877   6.926 -0.3448 -0.8099  0.1144
   17MOL0     O 2170   8.336   8.945   6.998  0.3451  0.2593  0.0241
   17MOL0     C 2171   8.456   8.962   6.940 -0.9702  0.2572  0.4339
   17MOL0     C 2172   8.461   9.097   6.871 -0.4525 -0.3707 -0.4459
   17MOL0     C 2173   8.443   9.207   6.981  0.4039 -0.3602  0.7221
   17MOL0     C 2174   8.466   9.353   6.922  1.1955  0.0922 -0.2867
   17MOL0     C 2175   8.600   9.369   6.863 -0.1152  0.8580  0.1365
   17MOL0     C 2176   8.710   9.382   6.815 -0.4907 -0.3976  0.0726
   17MOL0     C 2177   8.245   8.846   6.791  0.6997  0.7503  0.4483
   17MOL0     C 2178   8.146   8.764   6.743 -0.1239 -0.8713  0.4818
   17MOL0     H 2179   7.692   8.600   6.640 -0.4722 -0.1692 -1.6268
   17MOL0     H 2180   7.502   8.463   6.589  1.9350  0.3169 -0.9968
   17MOL0     H 2181   7.325   8.366   6.605  1.5215  0.7408  1.9516
   17MOL0     H 2182   7.219   8.242   6.678  0.0212  0.7811 -0.8331
   17MOL0     H 2183   7.459   8.173   6.496 -0.4178  3.7402 -0.4360
   17MOL0     H 2184   7.295   8.173   6.452 -0.5477  1.8877 -0.0043
   17MOL0     H 2185   7.399   8.004   6.685 -2.5922  1.9137  3.3642
   17MOL0     H 2186   7.368   7.937   6.523  2.1028  2.3364 -0.6133
   17MOL0     H 2187   7.138   8.046   6.708 -1.6217 -1.8564  2.0198
   17MOL0     H 2188   7.134   7.992   6.538  0.9269 -1.0216 -0.7594
   17MOL0     H 2189   7.207   7.855   6.813 -0.3960  1.8648  0.7893
   17MOL0     H 2190   7.220   7.769   6.661 -1.5905 -1.2356  0.5585
   17MOL0     H 2191   6.947   7.811   6.652 -2.1840  3.7403  1.6651
   17MOL0     H 2192   6.982   7.869   6.818 -0.2274  2.5204 -2.3574
   17MOL0     H 2193   7.075   7.651   6.888  1.3253 -2.8291 -1.5197
   17MOL0     H 2194   6.916   7.611   6.830  0.7933 -0.6427 -0.2688
   17MOL0     H 2195   7.077   7.462   6.744  0.3585  0.7828  0.8189
   17MOL0     H 2196   7.148   7.585   6.644 -0.3748  0.8102 -1.2985
   17MOL0     H 2197   6.805   7.409   6.663 -0.8785  0.0606 -0.9557
   17MOL0     H 2198   6.632   7.353   6.452 -1.6238  0.6630 -1.3287
   17MOL0     H 2199   6.649   7.452   6.309  0.2263 -2.1937 -0.1571
   17MOL0     H 2200   6.555   7.641   6.486  2.3990 -0.5123 -0.6869
   17MOL0     H 2201   6.534   7.509   6.594  1.4482  0.5505 -0.1799
   17MOL0     H 2202   6.393   7.515   6.330  0.2043 -2.1868  0.0524
   17MOL0     H 2203   6.366   7.410   6.470 -0.0249 -0.1495  0.3150
   17MOL0     H 2204   6.330   7.703   6.491  1.0850 -0.5016 -1.7972
   17MOL0     H 2205   6.245   7.584   6.590 -0.0810  1.8514  0.0393
   17MOL0     H 2206   5.949   7.511   6.303 -0.5030 -0.5093  1.5379
   17MOL0     H 2207   5.743   7.664   6.304  1.7508 -1.7952 -2.4668
   17MOL0     H 2208   5.649   8.175   6.590 -5.2935 -0.9146  0.6842
   17MOL0     H 2209   5.470   8.329   6.597 -0.5125  0.9332 -0.6611
   17MOL0     H 2210   5.241   8.320   6.250  2.9117 -1.9136  2.8682
   17MOL0     H 2211   5.220   8.500   6.266  2.9909  0.6764  0.5551
   17MOL0     H 2212   5.157   8.342   6.507  1.7269 -1.7826 -1.8623
   17MOL0     H 2213   5.037   8.325   6.388  2.5400 -2.0043  0.2858
   17MOL0     H 2214   4.993   8.582   6.376 -0.7971  1.9377  0.8495
   17MOL0     H 2215   5.126   8.594   6.488 -0.7171  1.8230  1.0321
   17MOL0     H 2216   4.865   8.448   6.539 -1.6274  1.7230 -2.2132
   17MOL0     H 2217   4.981   8.486   6.668  0.2919 -0.2691 -0.1816
   17MOL0     H 2218   4.777   8.627   6.647 -1.0943 -2.9032 -3.6658
   17MOL0     H 2219   4.834   8.686   6.498 -0.3090  0.1257 -0.0437
   17MOL0     H 2220   5.047   8.775   6.606  0.7907 -1.1621  0.6347
   17MOL0     H 2221   4.990   8.702   6.751 -2.6800 -1.5339  0.2156
   17MOL0     H 2222   4.803   8.855   6.789  0.5997  1.3230 -0.4955
   17MOL0     H 2223   4.961   8.922   6.803  0.7959 -2.6743  1.7965
   17MOL0     H 2224   4.955   9.056   6.614 -2.4039  1.9354 -2.1257
   17MOL0     H 2225   4.811   9.081   6.706 -0.1070  0.9990 -0.5983
   17MOL0     H 2226   5.470   8.328   6.163  0.2292 -5.0506 -1.3726
   17MOL0     H 2227   5.639   8.191   6.147 -0.1841 -0.1701 -0.3385
   17MOL0     H 2228   5.993   7.988   6.428  1.7457 -0.2328  0.2825
   17MOL0     H 2229   6.189   7.842   6.438  2.2684 -2.7769 -4.0878
   17MOL0     H 2230   7.531   8.273   6.969 -2.6622  1.1826 -0.3736
   17MOL0     H 2231   7.750   8.428   7.016  1.1589 -2.1043 -0.1922
   17MOL0     H 2232   7.940   8.744   7.011 -1.9689  1.2071 -1.1641
   17MOL0     H 2233   8.133   8.880   7.100 -0.0279  1.4264 -0.5992
   17MOL0     H 2234   8.476   8.887   6.863 -2.5011 -0.7811  0.9972
   17MOL0     H 2235   8.541   8.953   7.009  0.2121 -4.1897 -1.2531
   17MOL0     H 2236   8.559   9.102   6.824  0.4885 -1.5440  1.2659
   17MOL0     H 2237   8.381   9.120   6.800  2.5147  3.2033 -2.9745
   17MOL0     H 2238   8.523   9.197   7.055  1.5958  2.6219 -0.0136
   17MOL0     H 2239   8.337   9.203   7.009  0.0860 -1.5369 -0.4983
   17MOL0     H 2240   8.385   9.374   6.852  0.4664 -3.2792 -0.6314
   17MOL0     H 2241   8.455   9.408   7.016  1.0508 -1.3959  0.6013
   17MOL0     H 2242   8.810   9.393   6.779 -0.8329 -2.6633 -1.7649
   17MOL0     H 2243   8.326   8.877   6.725  0.7324  1.4495  0.7990
   17MOL0     H 2244   8.146   8.737   6.638  1.2023 -0.5838  0.3952
   18MOL0     O 2245   5.357   0.724   0.880 -0.4734 -0.5011  0.4964
   18MOL0     C 2246   5.384   0.824   0.944 -0.2860 -0.0148 -0.5078
   18MOL0     O 2247   5.310   0.941   0.941 -0.4036  0.5195  0.0225
   18MOL0     C 2248   5.197   0.942   0.874 -0.2851  0.1238  0.4533
   18MOL0     C 2249   5.191   0.997   0.748 -0.4741  0.2849  0.2382
   18MOL0     C 2250   5.073   1.017   0.684 -0.7845 -0.5805  0.0026
   18MOL0     C 2251   4.952   0.974   0.735  0.5138  0.6654  0.0618
   18MOL0     O 2252   4.829   0.963   0.674  1.4278 -0.3165 -0.1691
   18MOL0     C 2253   4.835   0.988   0.534  0.5311  0.5916 -0.8929
   18MOL0     C 2254   4.714   0.928   0.465  0.3713  0.2527  0.1434
   18MOL0     C 2255   4.580   0.963   0.538 -0.9704  0.0862 -0.8784
   18MOL0     C 2256   4.468   0.926   0.437  0.8012 -0.2653  0.0101
   18MOL0     C 2257   4.331   0.971   0.498 -0.5862 -0.6513  0.3745
   18MOL0     C 2258   4.213   0.900   0.413 -0.6394  0.0992  0.0357
   18MOL0     C 2259   4.201   0.954   0.267  0.1123  0.0117 -0.3943
   18MOL0     C 2260   4.102   1.075   0.257 -0.7872  0.1599 -0.0176
   18MOL0     N 2261   3.962   1.026   0.246 -0.7779 -0.2642  0.2862
   18MOL0     C 2262   3.894   1.000   0.131 -0.5582  0.4186  0.8818
   18MOL0     C 2263   3.772   0.966   0.167 -0.1268 -0.0110  0.0829
   18MOL0     C 2264   3.649   0.955   0.083  0.3925 -0.4989 -0.2747
   18MOL0     C 2265   3.507   1.003   0.138  0.3439  0.3915  0.8936
   18MOL0     C 2266   3.441   0.891   0.226  0.4276  0.3485 -0.8283
   18MOL0     C 2267   3.290   0.938   0.252 -0.9212  0.3290  0.1352
   18MOL0     O 2268   3.282   1.078   0.277  0.7355  0.2804  0.3279
   18MOL0     C 2269   3.156   1.125   0.306 -0.0836  0.2451 -0.1140
   18MOL0     C 2270   3.111   1.244   0.247  0.0833  0.0153 -1.0540
   18MOL0     C 2271   2.981   1.289   0.276  0.3619 -0.2455  1.4309
   18MOL0     C 2272   2.904   1.239   0.381 -0.2807 -1.0298 -0.1731
   18MOL0     C 2273   2.771   1.301   0.407 -0.5115  0.1511 -0.0672
   18MOL0     O 2274   2.705   1.365   0.305 -1.0281  0.5348  0.4921
   18MOL0     C 2275   2.572   1.403   0.321  0.6252  0.5407 -0.0639
   18MOL0     C 2276   2.533   1.521   0.262  0.2650  0.3176  0.5320
   18MOL0     C 2277   2.408   1.571   0.282 -0.1754  0.8604  0.0794
   18MOL0     C 2278   2.308   1.496   0.353 -0.1311 -0.3388 -0.4784
   18MOL0     O 2279   2.182   1.551   0.356 -0.0178  0.1682 -0.0955
   18MOL0     C 2280   2.080   1.482   0.426  0.7230 -1.1731 -0.6337
   18MOL0     C 2281   1.960   1.584   0.424 -0.2057  0.0347 -0.3487
   18MOL0     C 2282   1.851   1.519   0.505 -0.1406  0.2559 -0.6737
   18MOL0     C 2283   1.725   1.603   0.508 -0.6412  0.3616  0.4344
   18MOL0     C 2284   1.619   1.528   0.578  0.6539 -0.0240 -1.0032
   18MOL0     C 2285   1.480   1.584   0.538 -0.6473 -0.8808  0.4096
   18MOL0     C 2286   1.372   1.474   0.558 -0.2736  0.8919  0.5959
   18MOL0     C 2287   1.238   1.529   0.555  0.3323  0.4803 -0.4836
   18MOL0    Cl 2288   1.218   1.672   0.655 -0.1933 -0.2779  0.1403
   18MOL0     C 2289   2.350   1.376   0.415  0.5786  0.3507  0.1738
   18MOL0     C 2290   2.477   1.326   0.397  0.0577 -0.6449 -0.0306
   18MOL0     O 2291   2.737   1.301   0.524 -0.9292  0.0425  0.1467
   18MOL0     C 2292   2.951   1.125   0.448  0.4752 -0.2370  0.4348
   18MOL0     C 2293   3.071   1.066   0.405 -0.5216  0.1958 -0.6436
   18MOL0     N 2294   3.766   0.955   0.308 -0.1821 -0.0393  0.5972
   18MOL0     N 2295   3.872   0.992   0.351 -1.3194  0.8146  0.8387
   18MOL0     C 2296   4.960   0.931   0.869  0.0031 -0.0507 -0.9521
   18MOL0     C 2297   5.077   0.910   0.940 -0.2447  0.2334 -1.0847
   18MOL0     C 2298   5.525   0.836   1.011  0.0561 -0.1796  0.8440
   18MOL0     C 2299   5.617   0.732   1.024 -0.5287  0.2005 -0.4584
   18MOL0     C 2300   5.756   0.754   1.068  0.6000  0.4453 -0.4716
   18MOL0     C 2301   5.795   0.879   1.116 -0.2542  0.9704 -0.1951
   18MOL0     O 2302   5.920   0.888   1.170  0.4456 -0.0817 -0.2236
   18MOL0     C 2303   5.924   0.917   1.308  1.6128 -0.4097 -0.7604
   18MOL0     C 2304   6.015   0.833   1.396  0.4137 -0.5265 -0.7608
   18MOL0     C 2305   6.160   0.880   1.379 -0.0831  0.3562  0.2979
   18MOL0     C 2306   6.219   0.985   1.473  0.1023 -0.9434 -0.1736
   18MOL0     C 2307   6.361   1.011   1.439 -0.3017 -0.6915  0.2761
   18MOL0     C 2308   6.480   1.037   1.426  0.0081  0.9257 -0.2908
   18MOL0     C 2309   5.700   0.988   1.100 -0.8125 -0.4258  0.5191
   18MOL0     C 2310   5.576   0.964   1.043 -0.0591  0.9446 -0.0849
   18MOL0     H 2311   5.288   1.020   0.704  0.5843 -0.6997  1.9542
   18MOL0     H 2312   5.070   1.067   0.587 -2.0674 -0.5311  0.0486
   18MOL0     H 2313   4.922   0.941   0.487  1.3299 -1.8143  2.5879
   18MOL0     H 2314   4.839   1.096   0.518  2.9482  1.5615  4.2370
   18MOL0     H 2315   4.714   0.819   0.458 -3.2536  0.2306 -2.3474
   18MOL0     H 2316   4.716   0.961   0.361  2.3987  1.5426  0.5388
   18MOL0     H 2317   4.586   1.070   0.559  2.3327 -0.2941  0.7610
   18MOL0     H 2318   4.574   0.907   0.632 -2.6457  1.3309 -0.2046
   18MOL0     H 2319   4.484   0.975   0.340  2.9410  0.6046  0.7411
   18MOL0     H 2320   4.455   0.819   0.422 -0.7131 -0.0532 -0.4358
   18MOL0     H 2321   4.324   1.080   0.495  2.2245 -0.2042  3.4339
   18MOL0     H 2322   4.332   0.941   0.603  1.0565  0.3557  0.6787
   18MOL0     H 2323   4.121   0.923   0.467 -1.0035  2.0634 -1.3256
   18MOL0     H 2324   4.235   0.794   0.403 -0.3996  0.3737 -3.3417
   18MOL0     H 2325   4.300   0.988   0.234  0.2299  1.5161  1.2953
   18MOL0     H 2326   4.178   0.876   0.194 -0.1093 -2.0043  1.6876
   18MOL0     H 2327   4.124   1.131   0.166  0.9743 -3.6313 -2.1699
   18MOL0     H 2328   4.121   1.140   0.343  1.5073  1.6418 -1.5108
   18MOL0     H 2329   3.933   1.000   0.030  2.1440 -4.5325  1.6315
   18MOL0     H 2330   3.642   0.850   0.053 -0.9532 -1.5663  3.3067
   18MOL0     H 2331   3.664   1.016  -0.007  1.6352  1.1060  0.9506
   18MOL0     H 2332   3.449   1.020   0.047  1.9862  0.1596 -0.2409
   18MOL0     H 2333   3.510   1.100   0.189 -1.1183  1.5358 -1.0674
   18MOL0     H 2334   3.447   0.790   0.184 -0.1416 -0.5378  1.1216
   18MOL0     H 2335   3.490   0.886   0.323 -0.8437  1.5724 -0.0788
   18MOL0     H 2336   3.246   0.888   0.339 -2.2887  3.8040  1.6506
   18MOL0     H 2337   3.224   0.920   0.167 -0.9228 -0.9728  0.3911
   18MOL0     H 2338   3.177   1.293   0.177  0.3372  1.7645  0.3276
   18MOL0     H 2339   2.938   1.372   0.221 -3.0904 -3.6074 -1.4374
   18MOL0     H 2340   2.606   1.562   0.193  1.0297 -2.1482 -0.2446
   18MOL0     H 2341   2.381   1.664   0.232 -0.3613  0.8463  0.1533
   18MOL0     H 2342   2.100   1.460   0.531  0.9503  1.5286 -0.0296
   18MOL0     H 2343   2.052   1.390   0.375 -1.0412 -0.4688 -0.9993
   18MOL0     H 2344   1.927   1.611   0.323 -5.5671 -0.1304  1.0580
   18MOL0     H 2345   1.990   1.678   0.472 -0.1248  0.1670 -0.6568
   18MOL0     H 2346   1.869   1.495   0.610 -2.0883 -1.1190 -0.5930
   18MOL0     H 2347   1.829   1.422   0.459 -1.3979  0.9285 -1.5553
   18MOL0     H 2348   1.752   1.694   0.562  1.8519 -0.3184  0.4548
   18MOL0     H 2349   1.703   1.627   0.404  2.0848 -0.1681 -0.3567
   18MOL0     H 2350   1.629   1.533   0.687 -2.2166 -0.2679 -0.6749
   18MOL0     H 2351   1.635   1.423   0.554  2.7585 -0.5121  1.8620
   18MOL0     H 2352   1.481   1.606   0.431 -3.4338 -1.0839  0.2840
   18MOL0     H 2353   1.463   1.676   0.594 -4.0248 -1.4269  0.4681
   18MOL0     H 2354   1.389   1.405   0.475 -0.1128  1.1816  0.3873
   18MOL0     H 2355   1.383   1.428   0.657 -0.3794  1.7248  1.0088
   18MOL0     H 2356   1.172   1.450   0.592 -1.4060  0.5300 -3.2086
   18MOL0     H 2357   1.211   1.557   0.452  0.6471  1.7635 -0.2318
   18MOL0     H 2358   2.283   1.306   0.463  1.4811  0.1899  1.2386
   18MOL0     H 2359   2.489   1.221   0.424  1.9271  0.2107  2.9641
   18MOL0     H 2360   2.887   1.069   0.515 -0.0731 -2.6419 -1.9248
   18MOL0     H 2361   3.099   0.971   0.451 -0.6977  0.0853 -0.7658
   18MOL0     H 2362   4.869   0.886   0.908 -0.3149  1.4355  0.1014
   18MOL0     H 2363   5.087   0.878   1.043  0.1857  0.9029 -0.9173
   18MOL0     H 2364   5.582   0.630   1.008 -1.9284  0.3517  1.2776
   18MOL0     H 2365   5.817   0.663   1.072  0.4600  0.3015 -1.3737
   18MOL0     H 2366   5.822   0.905   1.345  1.3135  0.2895 -1.3264
   18MOL0     H 2367   5.964   1.018   1.317 -2.1656  1.2705 -0.7422
   18MOL0     H 2368   5.980   0.846   1.499  0.5031  0.0822 -0.8013
   18MOL0     H 2369   6.006   0.730   1.362 -1.5178 -0.6764  0.0509
   18MOL0     H 2370   6.175   0.905   1.273 -0.8109  1.7362  0.4932
   18MOL0     H 2371   6.230   0.796   1.386  1.8263  1.8293 -0.3974
   18MOL0     H 2372   6.159   1.077   1.464 -1.3119 -1.6429  1.4413
   18MOL0     H 2373   6.213   0.952   1.577  2.6910  1.0931  0.7503
   18MOL0     H 2374   6.587   1.048   1.430  0.4900 -2.2810 -1.3443
   18MOL0     H 2375   5.749   1.084   1.112  0.5351 -1.0355  0.0596
   18MOL0     H 2376   5.515   1.052   1.021 -1.2143  0.1877  0.0232
   19MOL0     O 2377   8.691   9.326   9.667  0.2073  0.0894  0.1965
   19MOL0     C 2378   8.768   9.277   9.746 -0.3002  0.7593  0.0891
   19MOL0     O 2379   8.731   9.229   9.872 -0.3686 -0.3447  0.2964
   19MOL0     C 2380   8.591   9.254   9.892  0.3806  0.8516  0.1815
   19MOL0     C 2381   8.540   9.364   9.955  0.2305  0.4389 -0.6128
   19MOL0     C 2382   8.400   9.383   9.959 -0.4106 -0.2806 -0.7884
   19MOL0     C 2383   8.316   9.278   9.921  0.2288  0.6491 -0.2265
   19MOL0     O 2384   8.171   9.300   9.928 -0.4818 -0.0462  0.3795
   19MOL0     C 2385   8.081   9.208   9.878 -0.3568 -0.5842 -1.0557
   19MOL0     C 2386   7.938   9.269   9.903 -0.2429 -0.3660  0.2972
   19MOL0     C 2387   7.817   9.192   9.841 -0.7723 -0.1055 -0.5434
   19MOL0     C 2388   7.691   9.253   9.892  0.3986 -0.0954  0.0446
   19MOL0     C 2389   7.556   9.206   9.833  0.3198 -0.2708 -0.0515
   19MOL0     C 2390   7.532   9.238   9.683  0.2293 -0.2328  0.5449
   19MOL0     C 2391   7.381   9.245   9.653  0.0531  0.1312 -0.9465
   19MOL0     C 2392   7.308   9.113   9.708  0.0223 -0.3277 -0.3962
   19MOL0     N 2393   7.171   9.105   9.676  0.1809 -0.0474 -0.3544
   19MOL0     C 2394   7.063   9.117   9.765 -0.5874 -0.6174 -0.2371
   19MOL0     C 2395   6.957   9.094   9.685 -0.1991  0.8780  0.3488
   19MOL0     C 2396   6.813   9.099   9.714  0.3666 -0.2532  0.6109
   19MOL0     C 2397   6.767   8.951   9.733 -0.8536  0.2113 -0.2175
   19MOL0     C 2398   6.629   8.955   9.787  0.2437  0.0867 -0.0122
   19MOL0     C 2399   6.514   9.002   9.688 -0.0758 -0.8866 -0.0882
   19MOL0     O 2400   6.385   8.966   9.744 -0.2456 -0.1816  1.2934
   19MOL0     C 2401   6.268   9.024   9.684 -0.5511 -0.9370 -0.7149
   19MOL0     C 2402   6.262   9.117   9.584 -0.2234 -0.5260  1.1560
   19MOL0     C 2403   6.142   9.176   9.550 -0.0343 -0.3925 -0.2161
   19MOL0     C 2404   6.018   9.139   9.615 -0.2444  0.4032  0.1649
   19MOL0     C 2405   5.890   9.195   9.579 -0.0009  1.0146 -0.1877
   19MOL0     O 2406   5.787   9.123   9.617  0.0088 -0.1117 -0.9469
   19MOL0     C 2407   5.674   9.175   9.563  0.5074  0.3722  0.7253
   19MOL0     C 2408   5.593   9.275   9.612 -0.2534 -0.1220 -0.0974
   19MOL0     C 2409   5.482   9.310   9.541  0.4019 -0.9283  0.6127
   19MOL0     C 2410   5.449   9.252   9.418  0.2149 -0.6160 -0.2077
   19MOL0     O 2411   5.335   9.282   9.341 -0.3354 -0.3214 -0.2979
   19MOL0     C 2412   5.216   9.316   9.413 -0.4055  0.6545 -0.7092
   19MOL0     C 2413   5.104   9.341   9.307 -1.1781 -0.8162  0.4589
   19MOL0     C 2414   4.976   9.371   9.379 -0.2565 -0.7838 -0.5251
   19MOL0     C 2415   4.854   9.324   9.301  1.2057 -0.3372  0.0619
   19MOL0     C 2416   4.723   9.382   9.358  0.4660  0.2494  0.2876
   19MOL0     C 2417   4.602   9.345   9.273  0.0495  0.2397 -0.5618
   19MOL0     C 2418   4.601   9.191   9.240 -0.2096  0.0241  0.4817
   19MOL0     C 2419   4.462   9.141   9.204  0.0398 -0.5574  0.3133
   19MOL0    Cl 2420   4.428   9.167   9.024 -0.0171 -0.1295  0.4890
   19MOL0     C 2421   5.541   9.163   9.365 -0.4616  0.2870  0.1111
   19MOL0     C 2422   5.655   9.121   9.436 -0.1170 -0.2590  0.0789
   19MOL0     O 2423   5.892   9.293   9.511  0.8401 -0.6896 -0.1382
   19MOL0     C 2424   6.031   9.030   9.709  0.2201  0.2514  0.0416
   19MOL0     C 2425   6.155   8.979   9.746 -0.0848  0.4258 -0.4862
   19MOL0     N 2426   6.999   9.062   9.561 -0.5749 -0.4589 -0.7915
   19MOL0     N 2427   7.125   9.075   9.553  0.1554  0.2096 -0.2830
   19MOL0     C 2428   8.366   9.159   9.872 -0.5378  0.1463  0.5517
   19MOL0     C 2429   8.500   9.152   9.848 -0.6699 -0.0289 -0.1740
   19MOL0     C 2430   8.903   9.273   9.707  0.6190 -1.1463 -1.0963
   19MOL0     C 2431   8.991   9.181   9.762 -0.0404 -0.4257  0.8167
   19MOL0     C 2432   9.119   9.167   9.714 -0.5593 -0.2260  0.4967
   19MOL0     C 2433   9.174   9.247   9.613  0.3983 -0.3631  0.1164
   19MOL0     O 2434   9.304   9.246   9.565 -0.4517 -0.3473  0.3348
   19MOL0     C 2435   9.392   9.149   9.610 -1.0084  1.0043 -1.3435
   19MOL0     C 2436   9.513   9.137   9.519  0.1306 -0.0646 -0.3931
   19MOL0     C 2437   9.473   9.127   9.365 -0.1874 -0.0041  0.2825
   19MOL0     C 2438   9.580   9.041   9.289  0.0053 -0.1873 -0.1144
   19MOL0     C 2439   9.563   9.034   9.142 -0.2206  0.2513  0.3002
   19MOL0     C 2440   9.546   9.028   9.020 -0.1400 -0.3608 -0.0820
   19MOL0     C 2441   9.081   9.336   9.549  0.6166  0.2868  0.3907
   19MOL0     C 2442   8.947   9.358   9.598 -0.7057  0.7602  0.2777
   19MOL0     H 2443   8.607   9.435  10.003  0.1561 -0.4274  0.8591
   19MOL0     H 2444   8.355   9.474   9.998 -1.8218 -0.4032 -2.0503
   19MOL0     H 2445   8.092   9.113   9.930  2.8512  0.2930  0.1035
   19MOL0     H 2446   8.104   9.190   9.773  2.6037  0.1198 -0.6247
   19MOL0     H 2447   7.938   9.368   9.856  0.1640 -0.5925 -0.1896
   19MOL0     H 2448   7.912   9.282  10.008 -0.8584  3.9890 -0.2112
   19MOL0     H 2449   7.823   9.089   9.875 -0.5249 -0.2352 -0.9779
   19MOL0     H 2450   7.821   9.202   9.732  0.8220  1.5432 -0.3849
   19MOL0     H 2451   7.699   9.243  10.000  2.3595  1.2844  0.0820
   19MOL0     H 2452   7.694   9.361   9.875  3.8044 -0.0415  0.4143
   19MOL0     H 2453   7.478   9.255   9.891  0.0493  0.5991 -1.1176
   19MOL0     H 2454   7.540   9.099   9.844 -2.9280  0.2635  1.2011
   19MOL0     H 2455   7.580   9.174   9.608 -0.0371 -0.2196  0.3621
   19MOL0     H 2456   7.575   9.336   9.660  0.7430 -1.0928 -2.7321
   19MOL0     H 2457   7.334   9.331   9.701  1.8329  0.4300  0.3567
   19MOL0     H 2458   7.371   9.253   9.544 -0.5067  2.7145 -0.7582
   19MOL0     H 2459   7.309   9.106   9.817 -0.8844  3.3040 -0.0253
   19MOL0     H 2460   7.355   9.028   9.658 -1.8567 -1.0605 -1.0065
   19MOL0     H 2461   7.049   9.144   9.870  0.0343 -2.5185  0.3715
   19MOL0     H 2462   6.769   9.144   9.625  1.6561  1.5177  0.8316
   19MOL0     H 2463   6.797   9.157   9.805  2.1224  1.1415  0.0927
   19MOL0     H 2464   6.832   8.904   9.808  1.4402  0.1755 -2.1194
   19MOL0     H 2465   6.777   8.887   9.645 -0.7969  0.7682 -0.6193
   19MOL0     H 2466   6.611   8.858   9.835 -1.3748 -0.0171 -0.7650
   19MOL0     H 2467   6.626   9.024   9.872  1.1145  1.3920 -1.0039
   19MOL0     H 2468   6.538   8.975   9.584 -2.0398  2.0577 -1.4478
   19MOL0     H 2469   6.524   9.111   9.697  2.7748 -0.9551 -1.2716
   19MOL0     H 2470   6.355   9.128   9.529 -0.7962  0.2312  0.3220
   19MOL0     H 2471   6.131   9.243   9.466 -0.3477  0.3363  0.3998
   19MOL0     H 2472   5.613   9.310   9.713  1.3520  1.0830 -0.7736
   19MOL0     H 2473   5.421   9.389   9.583  0.1341 -1.0538  0.4616
   19MOL0     H 2474   5.218   9.405   9.476 -0.2508  0.0774  0.1192
   19MOL0     H 2475   5.194   9.227   9.473  0.5706 -0.1341 -1.4812
   19MOL0     H 2476   5.092   9.246   9.255  1.2840 -1.5315  1.0542
   19MOL0     H 2477   5.132   9.422   9.240  2.0211 -0.0800  2.4637
   19MOL0     H 2478   4.970   9.480   9.377  1.5075 -0.6588 -0.9686
   19MOL0     H 2479   4.986   9.344   9.485  2.2467  3.9538  0.7382
   19MOL0     H 2480   4.874   9.354   9.198  0.5179 -1.2999 -0.3570
   19MOL0     H 2481   4.855   9.216   9.313  1.1624 -0.2147  1.2958
   19MOL0     H 2482   4.714   9.491   9.369 -2.7838  0.0103  1.2203
   19MOL0     H 2483   4.711   9.338   9.457  1.2054  1.0759  0.7632
   19MOL0     H 2484   4.607   9.402   9.180 -0.3066  3.1550  1.0786
   19MOL0     H 2485   4.514   9.369   9.333 -0.7807  0.4188 -1.8203
   19MOL0     H 2486   4.681   9.169   9.168 -1.4030 -2.1909 -0.2677
   19MOL0     H 2487   4.624   9.135   9.331 -0.0393 -1.9992 -0.7339
   19MOL0     H 2488   4.386   9.200   9.255  1.1516  0.4199  0.8931
   19MOL0     H 2489   4.468   9.036   9.231  0.8269 -0.6511 -0.1908
   19MOL0     H 2490   5.527   9.112   9.270  2.5867 -3.8169  1.5404
   19MOL0     H 2491   5.717   9.049   9.383 -0.2800  0.6406 -1.3908
   19MOL0     H 2492   5.944   8.984   9.755  0.1499  1.7001  1.4419
   19MOL0     H 2493   6.166   8.909   9.828  0.1736  0.8862 -0.1274
   19MOL0     H 2494   8.297   9.079   9.845 -0.9305  0.6949 -0.1129
   19MOL0     H 2495   8.539   9.062   9.800 -1.0978 -0.6742  0.6716
   19MOL0     H 2496   8.967   9.119   9.848 -1.5973 -0.3174  0.5036
   19MOL0     H 2497   9.176   9.095   9.772 -0.0319  0.5706  0.9805
   19MOL0     H 2498   9.340   9.053   9.621  1.0395 -0.0399 -0.0721
   19MOL0     H 2499   9.431   9.170   9.710  1.6103 -0.2252 -2.0111
   19MOL0     H 2500   9.560   9.234   9.530  0.3399 -0.0925 -0.9891
   19MOL0     H 2501   9.584   9.058   9.544 -0.8582 -1.2648 -1.2260
   19MOL0     H 2502   9.478   9.228   9.322  3.0902 -0.2036 -0.0571
   19MOL0     H 2503   9.371   9.089   9.352  0.4075 -1.9675  1.0025
   19MOL0     H 2504   9.676   9.087   9.316  0.5666  1.3735 -4.0346
   19MOL0     H 2505   9.585   8.937   9.320  2.6003 -0.1475 -0.2125
   19MOL0     H 2506   9.536   9.042   8.914 -1.1041  3.5152  0.3819
   19MOL0     H 2507   9.116   9.400   9.469  1.6492 -0.1961  0.4442
   19MOL0     H 2508   8.869   9.412   9.546 -0.7876 -0.3252 -0.7801
   20MOL0     O 2509   8.160   3.441  10.847 -0.8317 -0.0471  0.0309
   20MOL0     C 2510   8.082   3.351  10.881 -1.1655  0.1270  0.1701
   20MOL0     O 2511   8.056   3.249  10.802  0.3664 -0.7849  0.0488
   20MOL0     C 2512   8.107   3.248  10.679  0.2098 -1.1912 -0.3630
   20MOL0     C 2513   8.037   3.317  10.582  0.2853  0.1458 -0.6947
   20MOL0     C 2514   8.089   3.325  10.457  0.3157 -0.0887 -0.0115
   20MOL0     C 2515   8.191   3.240  10.418 -0.3405 -0.8824  0.5400
   20MOL0     O 2516   8.220   3.228  10.279  0.1886  0.4423 -0.4903
   20MOL0     C 2517   8.268   3.346  10.218 -0.5913 -0.6799  0.0176
   20MOL0     C 2518   8.244   3.335  10.066 -0.3726  0.0958 -0.0117
   20MOL0     C 2519   8.317   3.448   9.988 -0.6916  0.1103  0.2468
   20MOL0     C 2520   8.268   3.416   9.841 -0.3125 -0.4898 -0.1383
   20MOL0     C 2521   8.120   3.466   9.804 -0.7453  0.3763 -0.7971
   20MOL0     C 2522   8.086   3.608   9.855  0.0263 -0.5605 -0.9426
   20MOL0     C 2523   7.965   3.666   9.786 -0.9781  0.0915  0.4397
   20MOL0     C 2524   7.850   3.559   9.768  0.1587 -1.0990 -0.2913
   20MOL0     N 2525   7.732   3.631   9.719 -0.2860 -0.2034 -0.4434
   20MOL0     C 2526   7.603   3.591   9.752 -0.4156 -0.6776 -0.4066
   20MOL0     C 2527   7.520   3.655   9.668 -0.3530  0.4923 -0.0135
   20MOL0     C 2528   7.372   3.624   9.663 -0.6332 -0.9379  0.2427
   20MOL0     C 2529   7.311   3.632   9.793 -0.1854 -0.0496 -0.0975
   20MOL0     C 2530   7.156   3.633   9.786 -0.4539  0.4931 -0.0831
   20MOL0     C 2531   7.101   3.675   9.917  0.1038  0.3516  0.7583
   20MOL0     O 2532   6.975   3.605   9.943 -0.1172 -0.3509  0.0164
   20MOL0     C 2533   6.858   3.655   9.900 -0.5839  0.0663 -0.4248
   20MOL0     C 2534   6.736   3.610   9.954 -0.6722  0.6155 -0.3187
   20MOL0     C 2535   6.616   3.655   9.911  0.2718  0.2310 -0.8886
   20MOL0     C 2536   6.601   3.730   9.798 -0.7450  0.6259  0.3130
   20MOL0     C 2537   6.470   3.760   9.744  0.9378  1.7825 -0.2104
   20MOL0     O 2538   6.362   3.680   9.786  0.6752  0.3171 -0.4595
   20MOL0     C 2539   6.240   3.737   9.759  0.4298 -0.2489  0.5520
   20MOL0     C 2540   6.182   3.824   9.846  0.6985 -0.4053  0.0784
   20MOL0     C 2541   6.055   3.877   9.814 -0.1193 -0.3354 -0.9830
   20MOL0     C 2542   5.989   3.833   9.697  0.0075 -0.2437  0.1445
   20MOL0     O 2543   5.870   3.878   9.656  0.4798  0.2847  0.1401
   20MOL0     C 2544   5.799   3.976   9.730 -0.6458 -0.0560 -1.2549
   20MOL0     C 2545   5.655   3.974   9.684 -1.0986 -0.0690 -0.2420
   20MOL0     C 2546   5.560   4.098   9.742  0.5781  0.4012  0.0413
   20MOL0     C 2547   5.416   4.054   9.683  0.5026 -0.0426 -0.6351
   20MOL0     C 2548   5.299   4.146   9.715  0.4992  0.3934 -0.1836
   20MOL0     C 2549   5.284   4.184   9.862 -0.4063  0.8559 -0.1363
   20MOL0     C 2550   5.176   4.282   9.882 -0.3752  0.3800 -0.2415
   20MOL0     C 2551   5.153   4.307  10.032 -0.3649  0.6731 -0.5984
   20MOL0    Cl 2552   5.016   4.422  10.045 -0.1933 -0.1208 -0.2280
   20MOL0     C 2553   6.052   3.733   9.621  0.3834 -0.6113  0.2049
   20MOL0     C 2554   6.177   3.687   9.650  0.2205 -0.5637  0.1083
   20MOL0     O 2555   6.460   3.861   9.673  0.3907 -0.1101  0.3761
   20MOL0     C 2556   6.712   3.794   9.745  0.5268 -0.7732  0.1082
   20MOL0     C 2557   6.840   3.750   9.792  0.3687  0.3830 -0.5623
   20MOL0     N 2558   7.600   3.748   9.600  0.1573 -0.7378  1.0780
   20MOL0     N 2559   7.722   3.725   9.622 -0.2947  0.1831 -0.4315
   20MOL0     C 2560   8.266   3.180  10.514  0.0856 -1.1892  0.1113
   20MOL0     C 2561   8.225   3.185  10.650  0.9292 -0.2946 -0.4689
   20MOL0     C 2562   8.007   3.371  11.010 -0.5866 -0.0379  1.2011
   20MOL0     C 2563   8.049   3.443  11.114  0.1072  0.4849 -0.1420
   20MOL0     C 2564   7.961   3.455  11.229  0.2664  0.6335 -0.3270
   20MOL0     C 2565   7.838   3.385  11.242 -0.3000  0.2151 -0.5634
   20MOL0     O 2566   7.761   3.416  11.353  0.0803  0.3117 -0.1627
   20MOL0     C 2567   7.631   3.351  11.363  0.0251 -0.2033 -0.0280
   20MOL0     C 2568   7.565   3.368  11.500  0.1786  0.2798  0.2177
   20MOL0     C 2569   7.578   3.523  11.538  0.0140 -0.5895  0.9665
   20MOL0     C 2570   7.512   3.546  11.672 -0.2705  0.6018 -0.7543
   20MOL0     C 2571   7.366   3.557  11.662  1.3017 -0.4097  0.1290
   20MOL0     C 2572   7.248   3.554  11.655 -0.0628 -0.0040 -0.7409
   20MOL0     C 2573   7.803   3.300  11.138  0.6301  0.9036  0.6032
   20MOL0     C 2574   7.885   3.298  11.018 -0.6932 -0.1991  0.1307
   20MOL0     H 2575   7.947   3.374  10.600  0.8165  0.5390  0.9346
   20MOL0     H 2576   8.028   3.383  10.388 -0.5183 -1.4646 -0.4737
   20MOL0     H 2577   8.373   3.373  10.235 -0.7838  0.5574 -0.6455
   20MOL0     H 2578   8.201   3.423  10.258 -0.2255 -0.6234  0.5422
   20MOL0     H 2579   8.139   3.323  10.041  0.0736 -3.1562 -0.8760
   20MOL0     H 2580   8.291   3.239  10.040 -0.0979  0.4287 -0.7602
   20MOL0     H 2581   8.425   3.445  10.001 -0.2610  2.9629 -1.6250
   20MOL0     H 2582   8.276   3.544  10.021 -2.2152 -0.4835  0.1935
   20MOL0     H 2583   8.344   3.460   9.776 -0.5013 -1.1783 -0.8532
   20MOL0     H 2584   8.273   3.308   9.820 -4.2857 -0.9238  0.2134
   20MOL0     H 2585   8.054   3.387   9.841  2.9665 -1.9021  1.6494
   20MOL0     H 2586   8.118   3.457   9.695  1.6202 -2.4709 -0.7276
   20MOL0     H 2587   8.169   3.674   9.830 -1.9244  2.5809  0.3081
   20MOL0     H 2588   8.074   3.596   9.964  1.6969 -2.8160 -0.9334
   20MOL0     H 2589   7.924   3.745   9.850 -2.9708  0.6708 -1.4501
   20MOL0     H 2590   7.996   3.704   9.689 -0.6375 -1.2436  0.0023
   20MOL0     H 2591   7.831   3.508   9.863  0.7607 -2.1911 -0.7352
   20MOL0     H 2592   7.882   3.486   9.693  0.1584 -1.2872 -0.1102
   20MOL0     H 2593   7.577   3.504   9.812  0.9630 -0.4627  0.5513
   20MOL0     H 2594   7.354   3.523   9.625 -2.9550 -0.8663  0.9818
   20MOL0     H 2595   7.320   3.702   9.607 -0.8826  0.0212  1.7722
   20MOL0     H 2596   7.336   3.725   9.846 -1.0562  0.4645 -0.5569
   20MOL0     H 2597   7.353   3.550   9.852 -0.8322 -0.0005  0.4429
   20MOL0     H 2598   7.118   3.703   9.711  0.2399  2.2773  1.1558
   20MOL0     H 2599   7.131   3.530   9.760  0.0972  0.4888 -0.6366
   20MOL0     H 2600   7.094   3.784   9.914  3.5231  0.6915 -0.7929
   20MOL0     H 2601   7.176   3.644   9.991 -0.3323 -0.5469  0.8244
   20MOL0     H 2602   6.740   3.551  10.045  0.5833  0.8761 -0.1926
   20MOL0     H 2603   6.525   3.617   9.955  0.9830 -1.1729 -0.5860
   20MOL0     H 2604   6.230   3.871   9.931  1.7457 -1.4591  0.0935
   20MOL0     H 2605   6.010   3.963   9.862 -2.5182 -1.2791 -1.4415
   20MOL0     H 2606   5.866   4.061   9.712  2.4018 -1.2954  2.8653
   20MOL0     H 2607   5.794   3.958   9.837  1.0613  2.6576 -0.5966
   20MOL0     H 2608   5.617   3.875   9.711 -0.0258 -0.4100  0.0607
   20MOL0     H 2609   5.652   3.962   9.576  1.2929 -1.1213 -0.2485
   20MOL0     H 2610   5.592   4.191   9.695  1.2797 -1.3797 -3.3768
   20MOL0     H 2611   5.548   4.099   9.851  1.3261 -0.9824  0.1557
   20MOL0     H 2612   5.429   4.039   9.575  0.4176 -0.4725 -0.5873
   20MOL0     H 2613   5.392   3.957   9.729  1.5877 -0.9539 -1.8984
   20MOL0     H 2614   5.212   4.097   9.669  0.7516  0.7890 -1.1177
   20MOL0     H 2615   5.305   4.243   9.665 -0.9481 -0.2838 -1.7942
   20MOL0     H 2616   5.374   4.232   9.902  0.8365  0.0277 -1.8125
   20MOL0     H 2617   5.269   4.095   9.923  3.0011  1.4310  1.8223
   20MOL0     H 2618   5.204   4.370   9.823  4.0728 -1.0456 -0.6032
   20MOL0     H 2619   5.094   4.227   9.836  1.4193 -1.9753 -0.7931
   20MOL0     H 2620   5.245   4.352  10.072  0.3440 -2.2733  1.4620
   20MOL0     H 2621   5.143   4.214  10.089  0.5903  0.4192 -0.8338
   20MOL0     H 2622   5.995   3.700   9.535 -1.7673 -1.1330  1.7385
   20MOL0     H 2623   6.228   3.614   9.588 -1.5463  0.0567 -2.2488
   20MOL0     H 2624   6.710   3.862   9.660  3.6392  0.9769  1.2629
   20MOL0     H 2625   6.927   3.794   9.745  0.9799 -0.7039 -0.4584
   20MOL0     H 2626   8.357   3.129  10.484 -0.5235 -0.3109 -3.6571
   20MOL0     H 2627   8.285   3.134  10.726  1.5425  0.3870 -0.4917
   20MOL0     H 2628   8.141   3.500  11.103 -0.5295  1.7693  0.9631
   20MOL0     H 2629   7.983   3.514  11.317 -2.5212  0.1169  0.8407
   20MOL0     H 2630   7.654   3.245  11.352  0.6024 -0.0238 -0.6134
   20MOL0     H 2631   7.567   3.378  11.279  0.0754 -1.3553 -0.4504
   20MOL0     H 2632   7.462   3.332  11.503  0.1282  0.4843  1.2230
   20MOL0     H 2633   7.624   3.319  11.578 -0.1020 -0.3865  0.0206
   20MOL0     H 2634   7.531   3.581  11.458  3.7157  2.0661  0.4851
   20MOL0     H 2635   7.680   3.562  11.551 -0.5291  1.4083 -0.2947
   20MOL0     H 2636   7.548   3.478  11.749  0.5542  2.2866  0.4131
   20MOL0     H 2637   7.549   3.645  11.703 -0.7946  0.5007  0.2209
   20MOL0     H 2638   7.145   3.549  11.626  0.1613  1.5113 -1.9447
   20MOL0     H 2639   7.701   3.264  11.129  0.6986  0.6366  0.8539
   20MOL0     H 2640   7.852   3.238  10.933 -1.3696 -0.4448  0.5645
   21MOL0     O 2641   9.820   7.888   7.681 -0.0514  0.3864 -0.2645
   21MOL0     C 2642   9.914   7.938   7.747  0.7422 -0.4385 -0.1674
   21MOL0     O 2643   9.890   8.000   7.862 -0.1582 -0.3389  0.0258
   21MOL0     C 2644   9.762   8.011   7.919  0.3514  0.1862 -0.6738
   21MOL0     C 2645   9.689   7.898   7.945  0.3183 -0.6163 -0.3309
   21MOL0     C 2646   9.562   7.922   8.012  0.6014  0.2137 -0.3194
   21MOL0     C 2647   9.517   8.042   8.064 -0.1613 -0.2642  1.0329
   21MOL0     O 2648   9.412   8.058   8.146 -0.1221 -0.2779  0.2627
   21MOL0     C 2649   9.315   7.952   8.147 -0.8947 -0.5620 -0.7110
   21MOL0     C 2650   9.210   7.993   8.252 -0.6015  0.1317 -0.1055
   21MOL0     C 2651   9.103   8.080   8.187 -0.1342  0.6697  0.3762
   21MOL0     C 2652   8.992   8.108   8.285  0.3117  0.0132 -0.3622
   21MOL0     C 2653   8.869   8.157   8.209  0.0866 -0.7194 -0.2036
   21MOL0     C 2654   8.813   8.286   8.280  0.6903  0.0025  0.6712
   21MOL0     C 2655   8.718   8.371   8.198 -0.1737 -0.2988 -0.5049
   21MOL0     C 2656   8.572   8.359   8.232  0.8446  0.3498 -0.2001
   21MOL0     N 2657   8.534   8.223   8.216  0.8344  0.4458  0.0567
   21MOL0     C 2658   8.529   8.126   8.318  0.5746  0.8720  0.4878
   21MOL0     C 2659   8.497   8.008   8.255  0.3303 -0.4517  0.0983
   21MOL0     C 2660   8.486   7.873   8.309 -0.4770  0.6644 -0.5508
   21MOL0     C 2661   8.618   7.805   8.338 -0.9171 -0.4969  0.3587
   21MOL0     C 2662   8.688   7.753   8.217 -0.5656 -0.1144 -0.2645
   21MOL0     C 2663   8.839   7.729   8.232  0.1300 -0.6129 -0.3858
   21MOL0     O 2664   8.902   7.714   8.098  0.1273 -0.9422  0.0099
   21MOL0     C 2665   9.026   7.665   8.086  0.4815 -0.8610 -0.3869
   21MOL0     C 2666   9.067   7.629   7.956  0.2395  0.3526 -1.0560
   21MOL0     C 2667   9.200   7.593   7.941 -0.0778  0.6515 -0.0206
   21MOL0     C 2668   9.293   7.573   8.049  0.5043 -0.4105  0.6126
   21MOL0     C 2669   9.437   7.546   8.024  0.4826 -1.6257 -0.5664
   21MOL0     O 2670   9.472   7.465   7.924  0.3107  0.2503 -0.0806
   21MOL0     C 2671   9.606   7.474   7.892  0.3285  0.3212  0.2147
   21MOL0     C 2672   9.644   7.556   7.795  0.3936 -0.8319 -0.0732
   21MOL0     C 2673   9.774   7.560   7.756 -0.3707 -0.2846 -0.6676
   21MOL0     C 2674   9.877   7.503   7.834  0.0129 -0.2167  0.0818
   21MOL0     O 2675  10.011   7.516   7.808 -1.1676 -0.0124  0.0789
   21MOL0     C 2676  10.049   7.584   7.686 -0.4668 -0.6807  0.5187
   21MOL0     C 2677  10.197   7.596   7.694 -0.3686  0.0522  0.0060
   21MOL0     C 2678  10.255   7.575   7.551 -0.5875  0.4344 -0.1145
   21MOL0     C 2679  10.404   7.596   7.550 -0.6598 -0.0106  0.0030
   21MOL0     C 2680  10.471   7.550   7.418  0.6703 -0.8384 -0.1978
   21MOL0     C 2681  10.622   7.578   7.421  0.5045  0.3461 -0.3225
   21MOL0     C 2682  10.676   7.535   7.286  0.1295  0.6128 -0.3652
   21MOL0     C 2683  10.829   7.546   7.279  0.2371 -0.2301 -1.0095
   21MOL0    Cl 2684  10.893   7.431   7.399  0.0463 -0.0162 -0.1014
   21MOL0     C 2685   9.839   7.423   7.945 -0.1123 -0.1533  0.5088
   21MOL0     C 2686   9.702   7.406   7.974  0.5062 -0.8876  0.1512
   21MOL0     O 2687   9.512   7.596   8.109 -0.5911 -0.0589  0.4555
   21MOL0     C 2688   9.241   7.602   8.174 -0.2425 -0.0308  0.0868
   21MOL0     C 2689   9.109   7.638   8.198  0.5868  0.0626  0.7655
   21MOL0     N 2690   8.478   8.048   8.116  0.0783 -0.3893  0.3046
   21MOL0     N 2691   8.484   8.175   8.096 -0.8563 -0.6255  0.3337
   21MOL0     C 2692   9.605   8.147   8.029  0.2025  0.4301  0.4345
   21MOL0     C 2693   9.722   8.136   7.963  0.5434  0.1571  0.6819
   21MOL0     C 2694  10.049   7.966   7.693  0.1891 -0.6460 -0.0812
   21MOL0     C 2695  10.152   8.015   7.775  0.0686  0.2585  0.1239
   21MOL0     C 2696  10.282   8.021   7.714  1.0624  0.2109 -0.0453
   21MOL0     C 2697  10.304   7.985   7.580  1.3272 -0.3744 -1.2676
   21MOL0     O 2698  10.420   7.965   7.521  0.1711 -0.0598  0.6330
   21MOL0     C 2699  10.542   7.997   7.586 -0.4678 -0.3295  0.1930
   21MOL0     C 2700  10.624   8.055   7.472  0.2207 -0.0557 -0.5565
   21MOL0     C 2701  10.770   8.004   7.480  0.5295  0.3578  0.1233
   21MOL0     C 2702  10.830   7.993   7.342 -0.3422 -0.0708 -0.4971
   21MOL0     C 2703  10.976   8.002   7.359  0.1111 -0.5300  0.9214
   21MOL0     C 2704  11.097   7.999   7.393  0.0097  0.2871 -0.0725
   21MOL0     C 2705  10.202   7.942   7.505 -0.8433  0.5622  0.1328
   21MOL0     C 2706  10.072   7.939   7.553 -0.1945 -0.3635 -0.3871
   21MOL0     H 2707   9.706   7.798   7.907 -2.7952 -1.0684 -0.7806
   21MOL0     H 2708   9.493   7.839   8.021 -1.3205  1.5798 -1.6056
   21MOL0     H 2709   9.368   7.863   8.181  1.1769  0.8071 -0.1657
   21MOL0     H 2710   9.272   7.931   8.048 -1.0139  2.1387 -1.2991
   21MOL0     H 2711   9.262   8.051   8.329 -0.8515 -1.1679  1.0939
   21MOL0     H 2712   9.164   7.904   8.297 -0.7561  0.6448  0.7766
   21MOL0     H 2713   9.063   8.036   8.096 -0.0091  1.9961 -0.3571
   21MOL0     H 2714   9.152   8.174   8.159 -2.7256  1.7164 -1.0106
   21MOL0     H 2715   8.962   8.017   8.338  0.3231 -0.1112 -0.5665
   21MOL0     H 2716   9.023   8.178   8.363 -1.4795  2.7544 -1.9223
   21MOL0     H 2717   8.795   8.077   8.214  1.6906 -2.1872  2.1714
   21MOL0     H 2718   8.898   8.182   8.106  1.8150  3.0427  1.0544
   21MOL0     H 2719   8.896   8.353   8.302  0.9228  0.2534 -0.8354
   21MOL0     H 2720   8.755   8.263   8.370  0.1145  1.0523  0.5810
   21MOL0     H 2721   8.742   8.478   8.198  0.5505 -0.4391 -1.5179
   21MOL0     H 2722   8.734   8.348   8.092 -2.3358  3.6697 -1.9200
   21MOL0     H 2723   8.515   8.424   8.165 -1.2958  2.1999  3.1661
   21MOL0     H 2724   8.554   8.388   8.335  0.3251 -0.8314  0.0559
   21MOL0     H 2725   8.549   8.123   8.425  0.4175 -0.3833  0.5037
   21MOL0     H 2726   8.431   7.806   8.242  0.2241  1.9239 -2.4664
   21MOL0     H 2727   8.442   7.884   8.408  1.7837  1.0410  0.4803
   21MOL0     H 2728   8.593   7.715   8.395 -2.1809  0.4001  1.2789
   21MOL0     H 2729   8.684   7.872   8.393 -0.2255 -2.0653  1.5322
   21MOL0     H 2730   8.640   7.658   8.190 -1.7011  0.5560 -0.7007
   21MOL0     H 2731   8.677   7.817   8.130 -1.6426 -1.7793 -1.4137
   21MOL0     H 2732   8.836   7.635   8.288  0.2626 -0.1735  0.3567
   21MOL0     H 2733   8.872   7.807   8.300  0.9630  0.8106 -2.3106
   21MOL0     H 2734   8.994   7.622   7.876 -1.0776  0.0084  0.1490
   21MOL0     H 2735   9.230   7.554   7.844  0.8107  4.6053 -1.4999
   21MOL0     H 2736   9.574   7.613   7.736  1.5854  0.2968 -0.4366
   21MOL0     H 2737   9.792   7.629   7.675  1.1011  0.4545  0.2449
   21MOL0     H 2738  10.008   7.685   7.675  0.4306 -0.5783 -2.9439
   21MOL0     H 2739  10.018   7.522   7.601  1.9618 -0.7523 -0.3954
   21MOL0     H 2740  10.257   7.525   7.753  0.8793 -0.7699 -2.1043
   21MOL0     H 2741  10.218   7.697   7.730  1.9803  0.4340 -2.1362
   21MOL0     H 2742  10.206   7.650   7.488 -2.1003 -1.1758 -0.9336
   21MOL0     H 2743  10.231   7.473   7.518 -0.0036 -0.1529  1.1961
   21MOL0     H 2744  10.424   7.700   7.577 -2.4171 -0.0341  1.5396
   21MOL0     H 2745  10.447   7.532   7.628  0.2415 -0.2926 -0.6952
   21MOL0     H 2746  10.423   7.610   7.341 -1.3875 -1.5830  0.4447
   21MOL0     H 2747  10.439   7.447   7.400 -3.4224  0.2847 -0.2116
   21MOL0     H 2748  10.676   7.522   7.498  1.7224 -1.3219 -2.2764
   21MOL0     H 2749  10.637   7.686   7.436  1.1540  0.5474 -2.1608
   21MOL0     H 2750  10.661   7.427   7.274  1.2751  0.5038 -0.8981
   21MOL0     H 2751  10.629   7.592   7.205 -1.5869 -2.3467 -1.6417
   21MOL0     H 2752  10.860   7.650   7.295 -0.5670 -0.4830  3.4675
   21MOL0     H 2753  10.858   7.516   7.178 -2.6685 -1.4616 -1.5963
   21MOL0     H 2754   9.910   7.368   8.005  0.5182 -0.2713 -0.3252
   21MOL0     H 2755   9.655   7.351   8.055 -0.1458  0.9824  1.0892
   21MOL0     H 2756   9.305   7.579   8.258  1.1052 -3.2130 -1.6195
   21MOL0     H 2757   9.070   7.644   8.299 -1.5425 -1.3745  0.0887
   21MOL0     H 2758   9.570   8.246   8.057  2.2658  0.9896  1.2187
   21MOL0     H 2759   9.779   8.220   7.923 -0.7566  1.0171  0.5945
   21MOL0     H 2760  10.140   8.036   7.881  2.0997 -1.3293  0.7286
   21MOL0     H 2761  10.369   8.044   7.774  2.1801 -0.4077 -1.3719
   21MOL0     H 2762  10.587   7.908   7.632 -2.9529 -2.3991 -1.1597
   21MOL0     H 2763  10.533   8.080   7.658 -0.7412  1.6051 -1.9478
   21MOL0     H 2764  10.591   8.040   7.369 -0.2075 -0.8937 -0.3117
   21MOL0     H 2765  10.624   8.163   7.490  2.9264 -0.1340  0.4556
   21MOL0     H 2766  10.768   7.909   7.533 -1.2771  0.5425  0.4619
   21MOL0     H 2767  10.830   8.075   7.539 -1.0187 -0.8041  3.3712
   21MOL0     H 2768  10.812   7.892   7.303  2.2288 -0.7989  0.0592
   21MOL0     H 2769  10.791   8.076   7.282 -1.3990 -1.0964 -1.2674
   21MOL0     H 2770  11.193   7.983   7.438  0.0918  2.0797  0.4461
   21MOL0     H 2771  10.223   7.913   7.402  1.4418  0.3550  0.6032
   21MOL0     H 2772   9.992   7.906   7.486 -1.4020  1.5610  0.0518
   22MOL0     O 2773   2.777   2.174   3.588  0.2453  0.3462 -0.1157
   22MOL0     C 2774   2.776   2.073   3.656  0.7510  0.4340 -0.0249
   22MOL0     O 2775   2.687   2.047   3.763  0.1481 -0.0402  0.3724
   22MOL0     C 2776   2.566   2.115   3.773  0.2391  0.5639 -0.2445
   22MOL0     C 2777   2.490   2.177   3.668  0.6368 -0.0637 -0.0227
   22MOL0     C 2778   2.361   2.221   3.690 -0.6162  1.0246  0.1832
   22MOL0     C 2779   2.311   2.224   3.820  0.0617  0.7511 -0.3397
   22MOL0     O 2780   2.182   2.269   3.834 -0.6437  0.2159  0.0008
   22MOL0     C 2781   2.154   2.372   3.932  0.0541  0.9335 -0.2623
   22MOL0     C 2782   2.004   2.367   3.959  0.0490 -0.0084  0.6747
   22MOL0     C 2783   1.977   2.251   4.059  0.0999  0.2438  0.4596
   22MOL0     C 2784   1.831   2.222   4.086  0.4615 -0.5942 -0.1218
   22MOL0     C 2785   1.811   2.077   4.149 -0.7769  0.2777  0.5272
   22MOL0     C 2786   1.662   2.052   4.178 -0.0468  0.4125  0.1793
   22MOL0     C 2787   1.644   1.916   4.249  0.1627  0.6081 -0.3383
   22MOL0     C 2788   1.495   1.918   4.304 -0.2924 -0.0051  0.1736
   22MOL0     N 2789   1.449   1.781   4.343  0.5313 -0.1928 -0.4517
   22MOL0     C 2790   1.314   1.733   4.325 -0.3624 -0.2908 -0.1004
   22MOL0     C 2791   1.300   1.638   4.422 -1.1959 -0.5179  0.8906
   22MOL0     C 2792   1.189   1.551   4.463 -0.3364  0.0726  0.3900
   22MOL0     C 2793   1.130   1.600   4.589 -1.0896 -0.0841 -0.9931
   22MOL0     C 2794   1.037   1.497   4.638  0.1553  0.0531  0.2579
   22MOL0     C 2795   0.985   1.532   4.780 -0.5016 -0.4334 -0.0397
   22MOL0     O 2796   0.911   1.653   4.783 -0.1682  0.0474  0.3987
   22MOL0     C 2797   0.780   1.649   4.763  0.8298  0.4999 -0.4134
   22MOL0     C 2798   0.710   1.550   4.690  0.3054 -0.4727  0.7642
   22MOL0     C 2799   0.573   1.545   4.691  0.8606  0.7268  0.1680
   22MOL0     C 2800   0.499   1.644   4.758 -0.1314 -0.1373 -0.1380
   22MOL0     C 2801   0.352   1.623   4.779 -0.3311  0.7799  0.1952
   22MOL0     O 2802   0.290   1.571   4.668  0.5689 -0.7088 -0.2867
   22MOL0     C 2803   0.159   1.540   4.680  0.3789  0.3501 -0.2467
   22MOL0     C 2804   0.120   1.414   4.644 -0.3168 -0.2848 -0.0278
   22MOL0     C 2805  -0.014   1.376   4.650 -1.1196  0.3842 -0.7399
   22MOL0     C 2806  -0.113   1.469   4.689 -0.4647 -0.4313  0.2189
   22MOL0     O 2807  -0.237   1.419   4.686  0.5531 -0.2216 -0.0705
   22MOL0     C 2808  -0.341   1.483   4.769 -0.0209 -0.4525  0.6920
   22MOL0     C 2809  -0.413   1.591   4.668  0.0546 -0.6982 -0.4705
   22MOL0     C 2810  -0.475   1.534   4.546  0.2848  0.4107 -0.6732
   22MOL0     C 2811  -0.595   1.442   4.570  0.4455  0.1618 -0.3389
   22MOL0     C 2812  -0.681   1.440   4.436 -0.3499  0.1504  0.4352
   22MOL0     C 2813  -0.816   1.376   4.454 -0.3393  0.8113 -0.4023
   22MOL0     C 2814  -0.877   1.354   4.324  0.7876  1.1016  0.2219
   22MOL0     C 2815  -1.015   1.290   4.330  0.0584 -0.2763  0.0603
   22MOL0    Cl 2816  -1.132   1.380   4.427  0.0697  0.1157 -0.1885
   22MOL0     C 2817  -0.081   1.602   4.728  0.7578 -0.1830 -0.3004
   22MOL0     C 2818   0.055   1.634   4.719  0.4643 -0.2436 -0.1416
   22MOL0     O 2819   0.302   1.658   4.884 -0.8377  0.3092 -0.0308
   22MOL0     C 2820   0.566   1.747   4.825 -0.3532 -0.6813 -0.0933
   22MOL0     C 2821   0.704   1.750   4.826  0.9809 -0.1501  0.0713
   22MOL0     N 2822   1.419   1.643   4.497 -0.0476 -0.5049 -0.1328
   22MOL0     N 2823   1.502   1.717   4.450 -0.3277 -0.1399  0.1486
   22MOL0     C 2824   2.382   2.163   3.930  0.2283 -1.0528  0.3120
   22MOL0     C 2825   2.506   2.107   3.902 -0.5240  0.9702  0.9459
   22MOL0     C 2826   2.888   1.979   3.648  0.0501  0.5830 -1.0125
   22MOL0     C 2827   2.906   1.891   3.758  0.2934 -0.1210 -0.1879
   22MOL0     C 2828   3.018   1.823   3.778 -0.0539 -0.8072  0.1111
   22MOL0     C 2829   3.122   1.819   3.689 -0.4181  0.4234  0.4514
   22MOL0     O 2830   3.219   1.719   3.696 -0.2493 -0.5446  0.1450
   22MOL0     C 2831   3.354   1.762   3.713  0.3851 -0.8345  0.0265
   22MOL0     C 2832   3.433   1.640   3.743  1.0163  0.2471  0.0569
   22MOL0     C 2833   3.567   1.673   3.804 -0.5885 -1.2810 -0.4461
   22MOL0     C 2834   3.672   1.564   3.767  0.4437  0.0208 -0.5360
   22MOL0     C 2835   3.622   1.433   3.815  0.3562  0.0259 -0.3850
   22MOL0     C 2836   3.585   1.324   3.846 -0.1105  0.3593 -0.0651
   22MOL0     C 2837   3.108   1.905   3.574  0.1948  0.9326 -0.9851
   22MOL0     C 2838   2.992   1.982   3.555  0.0671  0.0510 -0.2702
   22MOL0     H 2839   2.525   2.181   3.566 -0.5653  1.7963 -0.4117
   22MOL0     H 2840   2.302   2.258   3.608  0.2377 -0.9130 -1.3908
   22MOL0     H 2841   2.179   2.470   3.890  1.4296  0.0620 -1.5552
   22MOL0     H 2842   2.215   2.353   4.021 -1.1474  1.6234  0.7434
   22MOL0     H 2843   1.951   2.351   3.865  1.7493  2.8837 -0.8775
   22MOL0     H 2844   1.969   2.459   4.006 -2.1430 -0.9582  1.0576
   22MOL0     H 2845   2.025   2.270   4.155 -1.7249  0.9122  1.2753
   22MOL0     H 2846   2.028   2.161   4.023  1.8970  1.0296  0.8827
   22MOL0     H 2847   1.805   2.302   4.156 -2.0487 -1.4298  0.0025
   22MOL0     H 2848   1.767   2.235   3.998 -0.0986  0.6615  0.4422
   22MOL0     H 2849   1.868   2.087   4.242 -0.5944 -1.4034  0.6100
   22MOL0     H 2850   1.856   1.996   4.092 -1.4870 -0.6476  1.2486
   22MOL0     H 2851   1.598   2.048   4.090  0.9225 -0.8644 -0.5041
   22MOL0     H 2852   1.623   2.133   4.240 -1.5552  0.2231 -0.4884
   22MOL0     H 2853   1.662   1.833   4.180  0.3005  1.1241 -0.9359
   22MOL0     H 2854   1.718   1.913   4.329  1.3160  1.4660 -1.3444
   22MOL0     H 2855   1.428   1.957   4.226  0.6072  0.6260 -0.2975
   22MOL0     H 2856   1.482   1.981   4.392  0.3219 -1.3388  1.2484
   22MOL0     H 2857   1.229   1.775   4.273 -1.3782  0.7256  2.2451
   22MOL0     H 2858   1.232   1.452   4.479 -2.4674 -1.1485 -0.8494
   22MOL0     H 2859   1.114   1.544   4.383  1.7685  0.6516 -1.7506
   22MOL0     H 2860   1.074   1.694   4.583  3.0565  2.6494 -0.5998
   22MOL0     H 2861   1.200   1.617   4.671 -3.6397  3.6941  0.6827
   22MOL0     H 2862   0.952   1.482   4.571  1.8559 -2.3689 -1.5291
   22MOL0     H 2863   1.099   1.407   4.650  2.8076  1.7350  0.0602
   22MOL0     H 2864   1.074   1.533   4.844 -0.2702 -0.2666 -0.3621
   22MOL0     H 2865   0.921   1.453   4.821  1.2090 -1.2558  1.1939
   22MOL0     H 2866   0.763   1.482   4.624 -3.0027 -0.2172 -2.5195
   22MOL0     H 2867   0.532   1.463   4.633 -0.9392  0.8017  1.2449
   22MOL0     H 2868   0.200   1.346   4.617  0.8134  0.4764  1.3085
   22MOL0     H 2869  -0.044   1.279   4.612 -1.8781  1.4449 -3.0090
   22MOL0     H 2870  -0.298   1.538   4.854  2.0855  1.2275 -1.3398
   22MOL0     H 2871  -0.404   1.400   4.802 -0.4254 -0.8639 -1.0269
   22MOL0     H 2872  -0.346   1.674   4.645  1.0975 -0.8846  1.6162
   22MOL0     H 2873  -0.493   1.650   4.713 -0.1874 -0.3736 -1.3079
   22MOL0     H 2874  -0.391   1.487   4.494 -0.3824 -2.5452  0.7231
   22MOL0     H 2875  -0.510   1.622   4.491  0.0286  2.2858  2.2847
   22MOL0     H 2876  -0.564   1.341   4.599 -1.7806 -0.6123 -0.4289
   22MOL0     H 2877  -0.658   1.486   4.648  2.3164  1.8716  0.2885
   22MOL0     H 2878  -0.620   1.398   4.356  2.4022  2.1272  1.3449
   22MOL0     H 2879  -0.697   1.544   4.406  0.0965  0.3502  0.8689
   22MOL0     H 2880  -0.881   1.435   4.520 -2.6000  2.6384 -3.9554
   22MOL0     H 2881  -0.797   1.275   4.492 -0.1020  0.1360 -2.2244
   22MOL0     H 2882  -0.886   1.447   4.267 -0.5016  0.5237 -0.5517
   22MOL0     H 2883  -0.806   1.296   4.264 -0.0283  1.1839 -0.8526
   22MOL0     H 2884  -1.013   1.191   4.376 -1.9145  0.1378  1.1344
   22MOL0     H 2885  -1.040   1.282   4.223  4.9105 -0.5273 -1.2744
   22MOL0     H 2886  -0.148   1.683   4.756 -1.6216 -1.7193 -1.2845
   22MOL0     H 2887   0.082   1.732   4.755 -3.3405  0.0960  2.3566
   22MOL0     H 2888   0.501   1.819   4.874  0.2405  1.5994 -2.4316
   22MOL0     H 2889   0.743   1.835   4.881 -1.0536  0.8888  0.0407
   22MOL0     H 2890   2.346   2.161   4.033 -0.4641 -1.9532  0.0626
   22MOL0     H 2891   2.559   2.056   3.981  3.1017  3.9489  0.7146
   22MOL0     H 2892   2.820   1.868   3.821 -0.0201 -0.7184 -0.8233
   22MOL0     H 2893   3.031   1.760   3.865  0.2647  0.5221  1.0550
   22MOL0     H 2894   3.352   1.839   3.790 -2.1971 -2.1490  1.4012
   22MOL0     H 2895   3.390   1.800   3.617 -2.7687 -0.2779 -1.0664
   22MOL0     H 2896   3.370   1.574   3.804 -3.0657  0.1191 -3.7345
   22MOL0     H 2897   3.446   1.581   3.652  1.6209 -0.4614  0.5938
   22MOL0     H 2898   3.552   1.696   3.910 -1.7502  0.0901 -0.8616
   22MOL0     H 2899   3.614   1.762   3.760  2.2361 -2.7768 -0.6413
   22MOL0     H 2900   3.679   1.550   3.658 -2.1886 -0.9285 -0.6598
   22MOL0     H 2901   3.770   1.585   3.809  0.2465 -0.4532  0.1831
   22MOL0     H 2902   3.539   1.231   3.869  0.0437 -0.2375 -1.9769
   22MOL0     H 2903   3.186   1.906   3.498 -1.3226 -2.2745 -2.8050
   22MOL0     H 2904   2.992   2.044   3.466  2.6023  0.0331 -0.3543
   23MOL0     O 2905   6.115   7.738   5.402 -0.2310  0.1527 -0.7495
   23MOL0     C 2906   6.176   7.721   5.507 -1.1356 -0.1987  0.1098
   23MOL0     O 2907   6.128   7.643   5.611  0.2637 -0.1391 -0.1182
   23MOL0     C 2908   6.000   7.573   5.598  0.2042  0.2878 -0.1888
   23MOL0     C 2909   5.885   7.634   5.542  0.2750 -0.3208  0.0427
   23MOL0     C 2910   5.763   7.564   5.546  0.3474 -0.9012  0.4374
   23MOL0     C 2911   5.740   7.432   5.599  0.6255 -0.6211  0.6087
   23MOL0     O 2912   5.617   7.368   5.607 -0.3887 -0.0981  0.0811
   23MOL0     C 2913   5.497   7.404   5.536 -0.5498  0.0176 -0.1273
   23MOL0     C 2914   5.387   7.299   5.553 -0.5120  0.6424 -0.2351
   23MOL0     C 2915   5.257   7.324   5.477 -0.1406  0.0790  0.6522
   23MOL0     C 2916   5.130   7.235   5.491 -0.6974 -0.1182  0.2623
   23MOL0     C 2917   5.005   7.280   5.409 -0.0167  0.1633 -0.1649
   23MOL0     C 2918   4.896   7.173   5.416  0.3717 -0.1898 -0.1553
   23MOL0     C 2919   4.760   7.221   5.357 -0.8758 -0.2048  0.3100
   23MOL0     C 2920   4.670   7.308   5.451  0.2582  0.2427  0.6939
   23MOL0     N 2921   4.534   7.330   5.397 -0.8483 -0.5833  0.4304
   23MOL0     C 2922   4.456   7.243   5.325  0.7269  0.3316  0.1237
   23MOL0     C 2923   4.343   7.308   5.294 -0.1663 -0.5644 -0.2031
   23MOL0     C 2924   4.233   7.261   5.219  0.1117 -0.1250 -0.4084
   23MOL0     C 2925   4.119   7.365   5.184  0.1164 -0.2436 -0.2474
   23MOL0     C 2926   3.984   7.303   5.132  0.2868 -0.3571 -0.0281
   23MOL0     C 2927   3.921   7.214   5.231  0.4298 -0.1518  0.1790
   23MOL0     O 2928   3.836   7.125   5.148 -0.2033  0.2111  0.8393
   23MOL0     C 2929   3.729   7.052   5.200  0.8490 -0.7258  0.2701
   23MOL0     C 2930   3.665   7.088   5.320 -0.3638  0.1374 -0.2387
   23MOL0     C 2931   3.560   7.009   5.363 -1.0666 -0.0535 -0.4117
   23MOL0     C 2932   3.494   6.906   5.282 -1.5517 -0.7607 -0.3769
   23MOL0     C 2933   3.369   6.839   5.321  0.1272 -0.0452 -0.2760
   23MOL0     O 2934   3.337   6.730   5.255  0.0642  0.1637  0.1729
   23MOL0     C 2935   3.234   6.650   5.300 -0.0230 -0.0480 -0.0463
   23MOL0     C 2936   3.151   6.601   5.198 -1.1397  0.4986  0.0610
   23MOL0     C 2937   3.040   6.525   5.235 -1.0181 -0.1228 -0.0398
   23MOL0     C 2938   3.013   6.489   5.373 -0.0664  0.3997 -0.0140
   23MOL0     O 2939   2.904   6.415   5.418  0.0084  0.3450  0.2996
   23MOL0     C 2940   2.826   6.343   5.321  0.3560  0.2838  0.3329
   23MOL0     C 2941   2.750   6.245   5.411 -0.3693  0.2216  0.5826
   23MOL0     C 2942   2.681   6.131   5.341  0.5554 -0.2950 -0.1833
   23MOL0     C 2943   2.614   6.026   5.432  0.3460  0.4739 -0.0890
   23MOL0     C 2944   2.523   5.926   5.345 -0.7407 -0.1182  0.2141
   23MOL0     C 2945   2.412   5.991   5.279 -0.6443 -0.1833 -0.0306
   23MOL0     C 2946   2.297   5.891   5.248  0.2924 -0.7933  0.6845
   23MOL0     C 2947   2.330   5.757   5.184 -0.4629  0.8255  0.1867
   23MOL0    Cl 2948   2.183   5.673   5.131 -0.1513  0.2664  0.0616
   23MOL0     C 2949   3.098   6.530   5.471  0.0343  0.3034 -0.1796
   23MOL0     C 2950   3.211   6.620   5.431  0.2569  0.5775  0.5644
   23MOL0     O 2951   3.309   6.901   5.409 -0.4768  0.1029  0.4328
   23MOL0     C 2952   3.552   6.878   5.155 -0.1395 -0.4472  0.1161
   23MOL0     C 2953   3.666   6.957   5.119  0.3866  0.2643 -0.6805
   23MOL0     N 2954   4.353   7.439   5.345  0.0505  0.3321 -0.6857
   23MOL0     N 2955   4.468   7.447   5.411 -0.1896  0.3793  0.9258
   23MOL0     C 2956   5.855   7.377   5.658 -0.1012  0.3562  0.8043
   23MOL0     C 2957   5.980   7.446   5.657  0.3456  1.0624 -0.0081
   23MOL0     C 2958   6.307   7.791   5.532 -0.6150  0.6959  0.0108
   23MOL0     C 2959   6.382   7.758   5.650  0.5179 -0.1380  0.6366
   23MOL0     C 2960   6.515   7.808   5.664 -0.7270 -0.4416  1.6034
   23MOL0     C 2961   6.575   7.902   5.573  0.2447  0.5176 -0.7051
   23MOL0     O 2962   6.707   7.933   5.609  0.5564  0.4967 -0.2460
   23MOL0     C 2963   6.770   8.035   5.526  0.4162 -0.0370 -0.0769
   23MOL0     C 2964   6.919   8.030   5.543  0.2725 -0.0862 -0.1639
   23MOL0     C 2965   6.958   8.050   5.689  0.4071  0.0071 -0.0950
   23MOL0     C 2966   7.104   8.034   5.721 -0.9921  0.3918  0.3303
   23MOL0     C 2967   7.187   8.106   5.619  0.6871  0.0489  0.5137
   23MOL0     C 2968   7.269   8.149   5.541 -0.2576 -0.5439 -0.6639
   23MOL0     C 2969   6.501   7.945   5.463 -0.0678 -0.0553 -0.3299
   23MOL0     C 2970   6.373   7.885   5.437  0.2390  0.6323 -0.0803
   23MOL0     H 2971   5.881   7.729   5.491 -2.1265 -0.1854  0.3546
   23MOL0     H 2972   5.681   7.616   5.497  0.4541 -2.0982 -1.0942
   23MOL0     H 2973   5.522   7.413   5.430 -0.2647 -0.7326 -0.1273
   23MOL0     H 2974   5.456   7.502   5.561  0.1533 -0.1579  1.8682
   23MOL0     H 2975   5.352   7.307   5.657 -0.7207  1.6416 -0.3689
   23MOL0     H 2976   5.437   7.204   5.532  0.8507  0.7626  2.0588
   23MOL0     H 2977   5.291   7.332   5.373  0.9096  1.1184  1.0498
   23MOL0     H 2978   5.226   7.425   5.507 -0.8652 -0.8754  3.3711
   23MOL0     H 2979   5.173   7.140   5.457  0.0710 -0.5812  2.3776
   23MOL0     H 2980   5.109   7.222   5.598  0.8926 -1.2697  0.4773
   23MOL0     H 2981   5.040   7.293   5.306  1.2844  1.3992  0.3846
   23MOL0     H 2982   4.971   7.379   5.441 -1.3073 -0.9852  2.2314
   23MOL0     H 2983   4.870   7.155   5.520 -1.7967  1.4790 -0.3047
   23MOL0     H 2984   4.926   7.089   5.353 -1.1603  0.6053 -2.0649
   23MOL0     H 2985   4.766   7.287   5.269  2.1430 -0.1842  0.4326
   23MOL0     H 2986   4.701   7.133   5.329 -0.1938 -0.3756 -0.6620
   23MOL0     H 2987   4.721   7.403   5.468  2.4006 -0.4528 -1.2948
   23MOL0     H 2988   4.652   7.253   5.544 -1.8511 -0.9247 -0.3361
   23MOL0     H 2989   4.466   7.138   5.302 -0.6929  0.1644  0.1480
   23MOL0     H 2990   4.191   7.196   5.297 -3.0059  3.2045  0.9923
   23MOL0     H 2991   4.265   7.215   5.125 -0.7512  1.8155 -1.7058
   23MOL0     H 2992   4.166   7.423   5.105  1.9768 -2.2735 -0.7157
   23MOL0     H 2993   4.105   7.429   5.272  0.8118  0.3496 -0.5593
   23MOL0     H 2994   3.918   7.388   5.115  0.7337 -0.2046 -1.0961
   23MOL0     H 2995   3.995   7.264   5.030  0.8216  0.0414 -0.1319
   23MOL0     H 2996   3.854   7.269   5.298 -1.2181 -0.6877 -0.9574
   23MOL0     H 2997   3.988   7.154   5.293  0.9089 -0.0628 -0.2485
   23MOL0     H 2998   3.696   7.170   5.384 -1.8840 -0.2351  1.0338
   23MOL0     H 2999   3.530   7.025   5.466  0.1427  0.4249 -0.1074
   23MOL0     H 3000   3.171   6.631   5.095 -0.7204 -1.0619 -0.3247
   23MOL0     H 3001   2.978   6.491   5.152  1.4096 -2.5384 -1.0292
   23MOL0     H 3002   2.893   6.292   5.251  0.2507  1.8039 -0.9313
   23MOL0     H 3003   2.763   6.410   5.263 -0.7314 -0.3934  0.7019
   23MOL0     H 3004   2.682   6.288   5.485  2.5181 -0.0311  3.6319
   23MOL0     H 3005   2.825   6.191   5.471 -0.7917  1.3363  2.1650
   23MOL0     H 3006   2.763   6.079   5.291  2.7193  2.3662  0.3437
   23MOL0     H 3007   2.604   6.173   5.275  0.6777  1.6806  0.8662
   23MOL0     H 3008   2.695   5.963   5.470 -1.0982 -3.0822 -2.4156
   23MOL0     H 3009   2.557   6.061   5.519 -0.8022 -1.7082  0.0878
   23MOL0     H 3010   2.495   5.838   5.403  2.4293 -1.4536 -0.0926
   23MOL0     H 3011   2.585   5.884   5.265 -1.0283 -0.5903  0.2355
   23MOL0     H 3012   2.446   6.040   5.187 -1.0931  1.7295  0.7650
   23MOL0     H 3013   2.376   6.068   5.348  1.3365  0.8431 -0.0553
   23MOL0     H 3014   2.242   5.863   5.339  0.4236  0.6918  1.2371
   23MOL0     H 3015   2.233   5.937   5.173  0.4872  1.7282  1.9433
   23MOL0     H 3016   2.385   5.692   5.252 -2.0749 -0.2871  0.4888
   23MOL0     H 3017   2.392   5.777   5.096  0.0648  1.1471  0.6263
   23MOL0     H 3018   3.075   6.510   5.575 -0.4311 -0.0354 -0.3467
   23MOL0     H 3019   3.264   6.669   5.513 -1.0577 -1.9508  3.0765
   23MOL0     H 3020   3.512   6.796   5.096 -0.9351 -0.9753  1.3572
   23MOL0     H 3021   3.714   6.939   5.023  0.4906  2.3317 -1.0701
   23MOL0     H 3022   5.845   7.290   5.722 -1.0302  1.6884  2.5624
   23MOL0     H 3023   6.070   7.405   5.701  1.2882  3.7436  0.7412
   23MOL0     H 3024   6.346   7.692   5.728 -0.7874 -0.7511 -0.4433
   23MOL0     H 3025   6.573   7.771   5.748 -1.8949 -1.6167  1.9425
   23MOL0     H 3026   6.738   8.135   5.556  0.0171 -0.2799  0.3136
   23MOL0     H 3027   6.750   8.016   5.420  0.0979 -2.6523  0.3807
   23MOL0     H 3028   6.958   7.939   5.497  0.6951 -0.7875  1.5135
   23MOL0     H 3029   6.965   8.109   5.483  0.5906 -0.3276 -0.2373
   23MOL0     H 3030   6.903   7.976   5.747 -0.1819  1.6307  1.5186
   23MOL0     H 3031   6.935   8.154   5.716 -0.0032  0.0095 -0.4430
   23MOL0     H 3032   7.119   8.080   5.819  2.1879 -0.5949  0.4245
   23MOL0     H 3033   7.148   7.934   5.725  2.4794  1.8030  1.5230
   23MOL0     H 3034   7.354   8.167   5.479  1.2836 -0.1106  1.4765
   23MOL0     H 3035   6.546   8.018   5.397 -2.3801  0.5832 -1.3074
   23MOL0     H 3036   6.320   7.915   5.348  0.4464  0.4059 -0.2829
   24MOL0     O 3037   4.047  10.119   2.886 -0.1345  0.0853 -0.2111
   24MOL0     C 3038   3.994  10.137   2.993 -0.1828  1.3093 -0.0259
   24MOL0     O 3039   3.867  10.108   3.024  0.1160 -0.1141  0.1622
   24MOL0     C 3040   3.775  10.098   2.922  0.5214 -0.1165 -0.8212
   24MOL0     C 3041   3.726  10.215   2.856 -0.2633  0.0062 -0.2380
   24MOL0     C 3042   3.626  10.213   2.750 -0.4070  0.5742  0.2010
   24MOL0     C 3043   3.578  10.086   2.714  0.8904 -0.3036  0.1760
   24MOL0     O 3044   3.502  10.047   2.608  0.2838  0.5139 -0.2525
   24MOL0     C 3045   3.465  10.155   2.524 -0.0470 -0.9266  0.6196
   24MOL0     C 3046   3.391  10.119   2.395 -0.4698 -0.1771 -0.9118
   24MOL0     C 3047   3.410  10.225   2.289 -0.4278  0.4976  1.0381
   24MOL0     C 3048   3.388  10.180   2.144  0.4344 -0.2163  0.2928
   24MOL0     C 3049   3.299  10.286   2.071  0.1060 -0.5004  0.0342
   24MOL0     C 3050   3.148  10.233   2.073 -0.0880  0.5933  0.4086
   24MOL0     C 3051   3.053  10.311   1.983  0.0521  0.0082  0.4408
   24MOL0     C 3052   3.059  10.277   1.838  0.3226  0.6044  0.2160
   24MOL0     N 3053   2.984  10.167   1.788  0.7514 -0.1421  0.6830
   24MOL0     C 3054   2.946  10.053   1.856  0.1223 -0.8642  0.4784
   24MOL0     C 3055   2.897   9.980   1.743 -0.0036  0.1105 -0.2409
   24MOL0     C 3056   2.849   9.840   1.773 -0.1970 -0.0260  0.2217
   24MOL0     C 3057   2.705   9.825   1.747 -0.4584 -1.0676  0.8082
   24MOL0     C 3058   2.665   9.777   1.603  0.3744  0.1898  0.7380
   24MOL0     C 3059   2.518   9.756   1.588 -0.4475  0.2872 -0.9591
   24MOL0     O 3060   2.483   9.692   1.468 -0.5019 -0.0498 -0.1037
   24MOL0     C 3061   2.352   9.675   1.446  0.2470 -0.3494 -1.0406
   24MOL0     C 3062   2.248   9.707   1.536 -0.0088 -0.0769  0.3798
   24MOL0     C 3063   2.115   9.683   1.499 -0.0002 -0.3788 -0.2489
   24MOL0     C 3064   2.079   9.635   1.376  0.2305 -0.3827  0.4357
   24MOL0     C 3065   1.935   9.603   1.348 -0.6550  0.1508  0.4928
   24MOL0     O 3066   1.902   9.545   1.222  0.7731  0.5242 -0.3294
   24MOL0     C 3067   1.767   9.556   1.184 -0.9173 -0.2023 -0.2777
   24MOL0     C 3068   1.686   9.668   1.216 -0.0340  0.1354 -0.4083
   24MOL0     C 3069   1.556   9.675   1.166  0.4000 -0.2554 -0.9545
   24MOL0     C 3070   1.506   9.565   1.093  0.1903  0.2271  0.0616
   24MOL0     O 3071   1.374   9.556   1.055 -0.0410 -0.4031 -0.1115
   24MOL0     C 3072   1.281   9.578   1.157 -0.2012 -0.3946 -0.1906
   24MOL0     C 3073   1.173   9.676   1.128 -0.0426 -0.5412  0.2758
   24MOL0     C 3074   1.076   9.688   1.240 -0.4245  0.1273  0.5309
   24MOL0     C 3075   0.997   9.563   1.264  0.7337  1.0666 -0.4886
   24MOL0     C 3076   0.875   9.582   1.358 -0.3561 -0.7621  0.0892
   24MOL0     C 3077   0.796   9.705   1.341 -0.6491  0.3111 -0.4719
   24MOL0     C 3078   0.661   9.697   1.427 -0.7746  0.2284 -0.1212
   24MOL0     C 3079   0.677   9.720   1.577 -0.4617  0.7978  0.2011
   24MOL0    Cl 3080   0.730   9.573   1.653 -0.0910  0.1774 -0.3209
   24MOL0     C 3081   1.587   9.468   1.051  1.3034  0.7801  0.5899
   24MOL0     C 3082   1.716   9.463   1.094  0.0959  0.6941 -0.6965
   24MOL0     O 3083   1.857   9.625   1.437 -0.2082 -0.3592 -0.8982
   24MOL0     C 3084   2.184   9.598   1.289 -0.2925  0.0692 -0.3253
   24MOL0     C 3085   2.312   9.625   1.321 -0.4182  0.6137 -0.1944
   24MOL0     N 3086   2.911  10.051   1.616  1.1125  0.1386 -0.4137
   24MOL0     N 3087   2.958  10.163   1.648  0.9343 -0.1992  0.4216
   24MOL0     C 3088   3.627   9.977   2.780 -0.7548  0.8464 -0.2899
   24MOL0     C 3089   3.726   9.980   2.878  0.3844  0.0071  0.3770
   24MOL0     C 3090   4.079  10.195   3.097  0.1172 -0.1857  0.2588
   24MOL0     C 3091   4.031  10.211   3.226  0.0481  0.8741 -0.9925
   24MOL0     C 3092   4.112  10.268   3.326  0.6295 -0.5954  0.2592
   24MOL0     C 3093   4.244  10.310   3.304 -0.8814  0.3417  0.5571
   24MOL0     O 3094   4.325  10.381   3.389 -0.2887  0.1716 -0.1037
   24MOL0     C 3095   4.276  10.373   3.524 -0.1812 -0.3784 -0.0432
   24MOL0     C 3096   4.392  10.405   3.616  0.1855 -0.4014  0.7878
   24MOL0     C 3097   4.364  10.426   3.762  0.5574 -0.4197 -0.3289
   24MOL0     C 3098   4.386  10.298   3.838 -0.8495 -0.1411 -0.3335
   24MOL0     C 3099   4.529  10.276   3.863  0.1535  0.3858 -0.2373
   24MOL0     C 3100   4.643  10.237   3.893  0.1338  0.8778  0.0537
   24MOL0     C 3101   4.293  10.294   3.169  0.3553  0.7280 -0.1788
   24MOL0     C 3102   4.216  10.241   3.066 -0.1745  0.4404 -0.3274
   24MOL0     H 3103   3.765  10.310   2.891  1.2054 -0.8497  0.5419
   24MOL0     H 3104   3.598  10.308   2.706 -1.8707 -0.2519 -0.7455
   24MOL0     H 3105   3.550  10.219   2.498  0.0926 -0.8395  1.2730
   24MOL0     H 3106   3.399  10.225   2.577 -0.5405  0.1576 -1.3179
   24MOL0     H 3107   3.287  10.101   2.424 -0.0527 -0.5023  0.4289
   24MOL0     H 3108   3.428  10.021   2.363  3.2083  0.3211  1.2036
   24MOL0     H 3109   3.512  10.264   2.298  0.6346 -2.2235  1.5966
   24MOL0     H 3110   3.333  10.301   2.307 -0.7161  0.6219 -0.5338
   24MOL0     H 3111   3.490  10.163   2.108  0.4267  3.2504 -1.8337
   24MOL0     H 3112   3.337  10.083   2.145 -0.5335  0.2620 -0.3814
   24MOL0     H 3113   3.341  10.293   1.971  0.3039 -1.3377  0.0475
   24MOL0     H 3114   3.300  10.385   2.116 -2.2209 -0.9542  1.2641
   24MOL0     H 3115   3.106  10.249   2.173  1.3796  0.9042  1.0027
   24MOL0     H 3116   3.132  10.133   2.033 -2.7148  1.2801 -0.4282
   24MOL0     H 3117   2.949  10.308   2.017 -0.1071  0.9915  0.0608
   24MOL0     H 3118   3.088  10.414   1.994  2.2135 -0.5183 -0.8487
   24MOL0     H 3119   3.166  10.267   1.818  0.2556  3.0080 -1.8993
   24MOL0     H 3120   3.026  10.367   1.784  0.0541  1.2643  1.4487
   24MOL0     H 3121   2.957  10.025   1.961  2.7871  0.9282  0.7816
   24MOL0     H 3122   2.867   9.825   1.879 -4.3108  0.8575  1.2012
   24MOL0     H 3123   2.918   9.773   1.720  1.6094  2.6840 -1.1159
   24MOL0     H 3124   2.660   9.924   1.757 -4.1071 -2.3460 -0.9287
   24MOL0     H 3125   2.658   9.766   1.826 -0.2480 -2.3936 -0.0152
   24MOL0     H 3126   2.670   9.845   1.518 -2.0151  0.8091  1.0215
   24MOL0     H 3127   2.718   9.682   1.586 -0.9211 -0.7348  1.6696
   24MOL0     H 3128   2.459   9.848   1.592 -1.4914 -0.2997  3.7910
   24MOL0     H 3129   2.487   9.694   1.673  2.8855 -0.1199  0.0909
   24MOL0     H 3130   2.258   9.747   1.636 -0.0058  0.0791  0.3162
   24MOL0     H 3131   2.035   9.704   1.569  0.4142 -0.6815  0.3258
   24MOL0     H 3132   1.734   9.749   1.271  0.1630  0.3909 -0.9556
   24MOL0     H 3133   1.493   9.760   1.187  1.1768  0.4378 -1.3788
   24MOL0     H 3134   1.331   9.604   1.250  0.2515  0.7465 -0.7398
   24MOL0     H 3135   1.252   9.478   1.192  0.8881 -0.7356 -0.2251
   24MOL0     H 3136   1.122   9.646   1.036  0.0040  2.0848 -0.6946
   24MOL0     H 3137   1.215   9.775   1.108 -0.9747 -0.3509 -0.8864
   24MOL0     H 3138   1.009   9.768   1.208  0.5683  0.4447 -0.8386
   24MOL0     H 3139   1.127   9.717   1.332  0.6534 -2.3836  0.7943
   24MOL0     H 3140   0.965   9.517   1.170  1.9724  0.9092 -0.8487
   24MOL0     H 3141   1.066   9.487   1.302  1.0100  0.5785 -1.9238
   24MOL0     H 3142   0.909   9.574   1.461  3.9918 -3.4728 -1.2749
   24MOL0     H 3143   0.805   9.498   1.348 -1.4709  0.2233 -0.6560
   24MOL0     H 3144   0.778   9.724   1.235  0.5621 -0.1716 -0.7786
   24MOL0     H 3145   0.847   9.792   1.382 -0.1793 -0.5631  0.8795
   24MOL0     H 3146   0.595   9.772   1.383  1.5947  1.9743 -0.9097
   24MOL0     H 3147   0.616   9.599   1.408 -0.1844 -0.6230  2.4899
   24MOL0     H 3148   0.580   9.755   1.614 -0.3646  0.3100  0.9479
   24MOL0     H 3149   0.755   9.791   1.606 -0.6396  2.0659 -2.2168
   24MOL0     H 3150   1.564   9.402   0.968  2.2755 -0.3228  1.1659
   24MOL0     H 3151   1.777   9.381   1.058  2.0489 -0.0910  3.7522
   24MOL0     H 3152   2.162   9.550   1.194  0.0217 -0.1150 -0.3047
   24MOL0     H 3153   2.387   9.591   1.250 -1.5043  0.0078 -1.0882
   24MOL0     H 3154   3.595   9.881   2.743  0.6468  0.2687 -0.0896
   24MOL0     H 3155   3.758   9.885   2.921 -3.7639 -0.2617  3.5487
   24MOL0     H 3156   3.932  10.180   3.257  0.7406 -0.1033  0.4020
   24MOL0     H 3157   4.060  10.280   3.420  1.3503  2.5255  0.3631
   24MOL0     H 3158   4.231  10.277   3.553 -1.2159  0.4630  1.2575
   24MOL0     H 3159   4.196  10.447   3.536 -0.8354 -0.5148 -2.8708
   24MOL0     H 3160   4.480  10.341   3.609  2.7995  2.9765  0.5121
   24MOL0     H 3161   4.427  10.504   3.586 -0.7174 -0.3677 -0.2244
   24MOL0     H 3162   4.262  10.463   3.769  1.2378  1.7079 -1.0381
   24MOL0     H 3163   4.430  10.505   3.798 -0.1727 -0.0029  0.1097
   24MOL0     H 3164   4.338  10.290   3.936 -0.2911 -0.5490 -0.0869
   24MOL0     H 3165   4.343  10.224   3.770 -0.1975  0.1903 -1.1349
   24MOL0     H 3166   4.741  10.200   3.917 -1.8263 -3.0580  3.0555
   24MOL0     H 3167   4.390  10.338   3.145  0.3783 -0.0919 -1.6952
   24MOL0     H 3168   4.275  10.232   2.975  0.7699  2.6622  0.0092
   25MOL0     O 3169   8.635   9.521  10.896  0.4020 -0.5516 -0.0456
   25MOL0     C 3170   8.676   9.642  10.904 -0.4047 -0.4452  0.4204
   25MOL0     O 3171   8.623   9.739  10.979  0.5279 -0.4089 -0.1605
   25MOL0     C 3172   8.489   9.723  11.002  0.3992  0.0535 -0.1457
   25MOL0     C 3173   8.447   9.676  11.130  0.2138 -0.0902  0.0119
   25MOL0     C 3174   8.309   9.669  11.158  0.0909  0.7232 -0.4151
   25MOL0     C 3175   8.210   9.689  11.062  0.7403 -0.6463 -0.2959
   25MOL0     O 3176   8.080   9.650  11.081 -0.9618 -0.1287  0.1973
   25MOL0     C 3177   8.042   9.560  10.972 -0.0642  0.9737 -0.3835
   25MOL0     C 3178   7.929   9.471  11.026  0.2447  0.2035  0.0272
   25MOL0     C 3179   7.811   9.550  11.080  0.0603 -0.4786 -0.7489
   25MOL0     C 3180   7.684   9.462  11.073 -0.0247  0.5089 -0.0730
   25MOL0     C 3181   7.556   9.523  11.130 -0.0858  0.6794 -0.0192
   25MOL0     C 3182   7.432   9.441  11.094  0.8167 -0.2625 -0.2948
   25MOL0     C 3183   7.295   9.511  11.118  0.3793  0.1570  1.0059
   25MOL0     C 3184   7.188   9.407  11.102 -0.0736 -0.0613 -0.2255
   25MOL0     N 3185   7.050   9.458  11.121 -0.4992 -0.7507  0.9961
   25MOL0     C 3186   6.988   9.542  11.212 -0.0100 -0.2247  0.1885
   25MOL0     C 3187   6.852   9.534  11.190  0.0162  0.1898 -0.3128
   25MOL0     C 3188   6.756   9.599  11.276 -0.2312  0.4289  0.0383
   25MOL0     C 3189   6.741   9.750  11.231  0.0949 -0.4917  0.4784
   25MOL0     C 3190   6.609   9.809  11.273 -0.2071 -0.5440 -1.0634
   25MOL0     C 3191   6.491   9.754  11.193  0.5422 -0.3883 -0.2931
   25MOL0     O 3192   6.376   9.715  11.270  0.0938  0.1128  0.0365
   25MOL0     C 3193   6.259   9.752  11.210  0.0792 -0.2136 -0.2223
   25MOL0     C 3194   6.168   9.655  11.174  1.2572 -0.1607 -0.4633
   25MOL0     C 3195   6.043   9.698  11.122 -1.1376 -0.0958 -0.0121
   25MOL0     C 3196   6.018   9.831  11.084 -0.1777 -0.2310  0.3279
   25MOL0     C 3197   5.891   9.864  11.022  0.0666  0.7084  0.2310
   25MOL0     O 3198   5.794   9.769  11.012 -0.6332  0.1596 -0.4577
   25MOL0     C 3199   5.671   9.803  10.969  0.2382  0.2059  0.0866
   25MOL0     C 3200   5.597   9.903  11.031  0.3705  0.3929  0.0711
   25MOL0     C 3201   5.462   9.926  10.996 -0.2362 -0.1272  0.3543
   25MOL0     C 3202   5.395   9.842  10.900  0.2301  0.1696 -0.3062
   25MOL0     O 3203   5.260   9.849  10.868  0.1515  0.3390  0.0347
   25MOL0     C 3204   5.187   9.727  10.838  0.2348 -0.4766  0.3118
   25MOL0     C 3205   5.044   9.751  10.778 -0.5310  0.4337  0.2161
   25MOL0     C 3206   4.953   9.630  10.778  0.1916 -0.3167  0.6559
   25MOL0     C 3207   4.809   9.662  10.743 -0.6332  0.1761 -0.7787
   25MOL0     C 3208   4.719   9.532  10.767  0.0717 -0.6003 -0.1945
   25MOL0     C 3209   4.581   9.527  10.687 -0.1302  0.6043 -0.2982
   25MOL0     C 3210   4.525   9.387  10.673 -0.4351 -0.3045 -0.4022
   25MOL0     C 3211   4.383   9.394  10.603  0.7515  0.2275 -0.1610
   25MOL0    Cl 3212   4.307   9.223  10.600  0.2538  0.4789  0.1711
   25MOL0     C 3213   5.479   9.751  10.833  0.0381  0.3890  0.2976
   25MOL0     C 3214   5.613   9.727  10.867 -0.0439  0.1090 -0.6568
   25MOL0     O 3215   5.889   9.974  10.973  0.2802 -0.4570  0.1350
   25MOL0     C 3216   6.114   9.930  11.118 -0.5456 -1.0545  0.9570
   25MOL0     C 3217   6.231   9.884  11.180 -0.2688  1.3105  0.4786
   25MOL0     N 3218   6.831   9.441  11.096 -0.0070 -0.2721  0.4073
   25MOL0     N 3219   6.943   9.395  11.052 -0.2802  0.0031  0.0513
   25MOL0     C 3220   8.254   9.746  10.940  0.2867  0.1066  0.0759
   25MOL0     C 3221   8.390   9.757  10.908  0.0414 -0.3337 -0.0343
   25MOL0     C 3222   8.785   9.670  10.805  0.6385  0.5879 -0.5258
   25MOL0     C 3223   8.850   9.795  10.784 -0.6314  0.1292  0.5468
   25MOL0     C 3224   8.945   9.819  10.690 -0.0372  0.2453  0.4976
   25MOL0     C 3225   8.974   9.721  10.603 -1.1711  0.1493  0.8622
   25MOL0     O 3226   9.087   9.735  10.515  0.2124  0.1605 -0.1123
   25MOL0     C 3227   9.168   9.853  10.519 -0.0503 -0.2446 -0.5318
   25MOL0     C 3228   9.292   9.824  10.441 -0.4356  0.1130  0.0884
   25MOL0     C 3229   9.375   9.944  10.407  0.0552 -0.0575 -0.3640
   25MOL0     C 3230   9.518   9.908  10.350 -0.0204 -0.0467 -0.5784
   25MOL0     C 3231   9.580  10.041  10.319  0.6735  0.3138  0.6280
   25MOL0     C 3232   9.634  10.146  10.297  1.0101  0.4237 -0.7964
   25MOL0     C 3233   8.910   9.598  10.606 -0.2235 -0.6021  0.6783
   25MOL0     C 3234   8.819   9.580  10.711 -0.0262 -0.4294  0.5477
   25MOL0     H 3235   8.517   9.630  11.199  0.8059 -0.8323 -1.0489
   25MOL0     H 3236   8.267   9.633  11.251  0.5611  1.3753  0.0549
   25MOL0     H 3237   8.125   9.501  10.932  0.6173  1.6470  0.0114
   25MOL0     H 3238   8.012   9.614  10.882 -1.8038 -0.6859 -0.8680
   25MOL0     H 3239   7.974   9.405  11.100 -0.0009 -0.8350 -0.7309
   25MOL0     H 3240   7.906   9.404  10.943  0.4480 -0.6247  0.6307
   25MOL0     H 3241   7.794   9.628  11.006 -1.8740 -0.4281 -0.3094
   25MOL0     H 3242   7.819   9.610  11.172  1.0960 -2.2440  0.3715
   25MOL0     H 3243   7.678   9.424  10.970  3.6404  0.0980 -0.2648
   25MOL0     H 3244   7.703   9.371  11.130  2.1085 -0.2373 -1.8234
   25MOL0     H 3245   7.550   9.626  11.094  1.8405  1.2450  1.1180
   25MOL0     H 3246   7.563   9.539  11.238 -0.4072  3.5962 -0.3696
   25MOL0     H 3247   7.439   9.351  11.156 -0.3785  0.6778  1.2972
   25MOL0     H 3248   7.432   9.410  10.989 -0.7833  0.5488 -0.5697
   25MOL0     H 3249   7.298   9.543  11.223  0.2573 -1.5923  1.5695
   25MOL0     H 3250   7.274   9.591  11.046 -2.6118  0.6652  2.3108
   25MOL0     H 3251   7.210   9.331  11.178  1.1585  1.9192  1.5209
   25MOL0     H 3252   7.183   9.346  11.011  0.4042 -0.2279 -0.1434
   25MOL0     H 3253   7.040   9.601  11.287 -1.4225  1.8787 -0.3935
   25MOL0     H 3254   6.790   9.599  11.380  2.3868  0.0416 -0.7499
   25MOL0     H 3255   6.665   9.538  11.273 -0.4305  0.6702  0.8309
   25MOL0     H 3256   6.753   9.757  11.123 -1.6990  0.6004  0.3087
   25MOL0     H 3257   6.829   9.800  11.275  0.4062 -1.6664  1.2253
   25MOL0     H 3258   6.602   9.784  11.379  2.1772 -0.4187 -0.8303
   25MOL0     H 3259   6.602   9.917  11.253 -0.2862 -0.3526 -0.0548
   25MOL0     H 3260   6.518   9.667  11.132 -1.1637 -2.5452  1.8394
   25MOL0     H 3261   6.464   9.822  11.111 -0.9520 -1.6245 -0.8802
   25MOL0     H 3262   6.189   9.554  11.205 -0.7175 -0.0593  1.4646
   25MOL0     H 3263   5.967   9.622  11.106 -1.2446  0.0163 -0.0337
   25MOL0     H 3264   5.636   9.970  11.107 -0.0049  0.2662  0.3755
   25MOL0     H 3265   5.413  10.003  11.055  0.4930  1.2396 -0.7576
   25MOL0     H 3266   5.168   9.680  10.935 -0.9024  1.1977  0.9501
   25MOL0     H 3267   5.250   9.668  10.771  0.6129  0.2000  0.0691
   25MOL0     H 3268   5.063   9.785  10.676 -1.4693  1.5678  0.3937
   25MOL0     H 3269   4.996   9.835  10.829 -1.0916 -0.6708  1.5528
   25MOL0     H 3270   4.940   9.615  10.885 -1.8905 -0.7709  0.3870
   25MOL0     H 3271   4.994   9.546  10.721 -0.7790 -0.4232  0.0888
   25MOL0     H 3272   4.774   9.742  10.808 -1.3452 -0.2151 -0.6585
   25MOL0     H 3273   4.810   9.698  10.640 -2.1184  1.4269 -0.3879
   25MOL0     H 3274   4.690   9.530  10.872 -2.5357  0.2141 -0.8177
   25MOL0     H 3275   4.780   9.446  10.737  1.2728  0.2082 -0.0964
   25MOL0     H 3276   4.600   9.567  10.587  1.7827  0.4093 -0.0457
   25MOL0     H 3277   4.516   9.602  10.733 -0.1883  0.8061 -0.7054
   25MOL0     H 3278   4.603   9.336  10.617  1.2657  0.4533  1.1563
   25MOL0     H 3279   4.511   9.332  10.767 -1.4757  1.4740  0.5472
   25MOL0     H 3280   4.387   9.440  10.503  0.9816  1.9322  0.6072
   25MOL0     H 3281   4.327   9.456  10.673  0.5282  0.6819 -0.7283
   25MOL0     H 3282   5.437   9.691  10.753 -2.1840  0.0727  1.6293
   25MOL0     H 3283   5.673   9.649  10.820  0.9204  1.4266 -1.7169
   25MOL0     H 3284   6.097  10.036  11.104  0.6362 -0.9069  0.4631
   25MOL0     H 3285   6.292   9.960  11.229 -0.6420  1.5271  0.6109
   25MOL0     H 3286   8.183   9.754  10.858 -0.5085  0.2199  0.7619
   25MOL0     H 3287   8.432   9.800  10.818  2.8154 -1.0284  0.8245
   25MOL0     H 3288   8.827   9.864  10.865 -3.1740  0.8605 -0.6912
   25MOL0     H 3289   8.996   9.914  10.693 -1.0976  0.8527 -0.1295
   25MOL0     H 3290   9.198   9.880  10.621  0.2864 -1.0178 -0.4173
   25MOL0     H 3291   9.108   9.933  10.476 -2.5262 -0.8222  1.5651
   25MOL0     H 3292   9.357   9.753  10.494  0.4115  0.5139 -0.3989
   25MOL0     H 3293   9.260   9.772  10.351  0.3606  1.4067 -0.9830
   25MOL0     H 3294   9.395  10.004  10.496 -1.2949  0.0395 -0.1094
   25MOL0     H 3295   9.315   9.995  10.331 -1.8774 -1.8553 -0.1295
   25MOL0     H 3296   9.579   9.858  10.425  0.6018 -0.8536 -1.6048
   25MOL0     H 3297   9.498   9.848  10.261 -1.4197  1.3810 -1.2888
   25MOL0     H 3298   9.687  10.231  10.261  2.4826  0.0912  0.4687
   25MOL0     H 3299   8.918   9.516  10.534  3.4367 -1.0332  1.3681
   25MOL0     H 3300   8.774   9.481  10.702  0.3645 -0.6213  0.6768
   26MOL0     O 3301   1.768   8.405  10.408  0.4016 -0.0585  0.4698
   26MOL0     C 3302   1.849   8.327  10.454 -0.2611  0.1572 -0.0129
   26MOL0     O 3303   1.823   8.207  10.505 -0.1544  0.1480  0.8365
   26MOL0     C 3304   1.692   8.170  10.521  1.0958  0.6081 -0.3293
   26MOL0     C 3305   1.612   8.124  10.413  0.4266 -0.1763 -0.3800
   26MOL0     C 3306   1.494   8.053  10.444  0.1390 -0.6243 -0.4356
   26MOL0     C 3307   1.452   8.023  10.569  0.2890 -0.1619 -0.3827
   26MOL0     O 3308   1.333   7.958  10.579  0.3943 -0.5050  0.2947
   26MOL0     C 3309   1.252   7.991  10.695  0.1655 -0.0193 -0.4847
   26MOL0     C 3310   1.112   7.943  10.665 -0.0231  1.1271  0.2860
   26MOL0     C 3311   1.010   7.970  10.780  0.4107  0.1203  0.4608
   26MOL0     C 3312   0.876   7.891  10.765  0.5448 -0.1595 -0.6525
   26MOL0     C 3313   0.778   7.927  10.878  0.4930  0.0890 -0.2486
   26MOL0     C 3314   0.635   7.880  10.838  0.4548  0.0373  1.0163
   26MOL0     C 3315   0.519   7.937  10.927  0.0474  0.0471  0.4076
   26MOL0     C 3316   0.534   7.863  11.068 -0.2750 -0.4818  0.1949
   26MOL0     N 3317   0.423   7.897  11.157  0.1894 -0.4295 -0.0666
   26MOL0     C 3318   0.415   8.011  11.225 -0.0765  0.6634  0.4466
   26MOL0     C 3319   0.301   7.984  11.307 -1.0428 -0.7322  0.1041
   26MOL0     C 3320   0.233   8.077  11.397 -0.0753 -0.5626  0.0271
   26MOL0     C 3321   0.345   8.158  11.465  0.7071 -0.2516 -0.6504
   26MOL0     C 3322   0.294   8.267  11.569  0.0763 -0.6885 -0.2494
   26MOL0     C 3323   0.409   8.334  11.637  0.4506  0.3248  0.6943
   26MOL0     O 3324   0.445   8.270  11.761  0.9199  0.0489 -0.2423
   26MOL0     C 3325   0.360   8.274  11.871  0.0589 -0.7741 -0.2715
   26MOL0     C 3326   0.245   8.354  11.876  0.2021  1.0912  0.6733
   26MOL0     C 3327   0.154   8.346  11.987  0.3151 -0.3783  0.3435
   26MOL0     C 3328   0.184   8.253  12.091  0.3814 -0.6618 -0.2671
   26MOL0     C 3329   0.098   8.230  12.206  0.3648 -0.4016  0.3197
   26MOL0     O 3330  -0.017   8.299  12.195 -0.2523  0.0311  0.1777
   26MOL0     C 3331  -0.110   8.268  12.289  0.1174 -0.2698 -0.9228
   26MOL0     C 3332  -0.192   8.160  12.267 -0.1792  0.8344 -0.0074
   26MOL0     C 3333  -0.298   8.121  12.349 -0.7403  0.0442  0.0639
   26MOL0     C 3334  -0.318   8.197  12.470 -0.1158 -0.3497 -0.3693
   26MOL0     O 3335  -0.422   8.179  12.562  0.0431  0.4226  0.4693
   26MOL0     C 3336  -0.543   8.121  12.508  0.3686  0.6220  0.7305
   26MOL0     C 3337  -0.657   8.124  12.611  0.2896  0.4406 -0.3864
   26MOL0     C 3338  -0.796   8.060  12.557 -1.1782  0.0234  0.5433
   26MOL0     C 3339  -0.903   8.045  12.665  0.6859 -0.5311  0.0427
   26MOL0     C 3340  -0.993   8.160  12.652  0.2367 -0.3148 -1.0547
   26MOL0     C 3341  -1.104   8.156  12.761  0.4232 -0.2930  0.2215
   26MOL0     C 3342  -1.209   8.266  12.734  0.3340  0.3977  0.4932
   26MOL0     C 3343  -1.289   8.317  12.853 -0.5732  0.4176  0.3314
   26MOL0    Cl 3344  -1.397   8.461  12.796 -0.1853 -0.1153  0.0501
   26MOL0     C 3345  -0.231   8.303  12.496 -0.6029 -0.5201  0.3835
   26MOL0     C 3346  -0.132   8.342  12.400 -0.1503  0.7121 -0.0713
   26MOL0     O 3347   0.130   8.151  12.294  0.3193 -0.3456  0.1886
   26MOL0     C 3348   0.298   8.177  12.086 -1.0158 -0.5337  0.0233
   26MOL0     C 3349   0.377   8.187  11.975  0.2684 -0.4655 -0.5060
   26MOL0     N 3350   0.250   7.855  11.283 -0.6710 -0.7071 -0.6874
   26MOL0     N 3351   0.329   7.802  11.199 -0.3894  0.8451 -0.5822
   26MOL0     C 3352   1.528   8.078  10.675 -0.6776 -0.4963  0.4949
   26MOL0     C 3353   1.648   8.149  10.654 -0.5557 -0.0362  0.4690
   26MOL0     C 3354   1.987   8.371  10.432 -0.6110 -0.2423  0.3047
   26MOL0     C 3355   2.091   8.287  10.478 -0.3848 -0.2414 -0.5333
   26MOL0     C 3356   2.222   8.319  10.469 -0.8608 -0.4711  1.0058
   26MOL0     C 3357   2.260   8.447  10.427  0.3597 -0.1675 -0.0530
   26MOL0     O 3358   2.396   8.472  10.443  0.3174  0.4509 -0.3004
   26MOL0     C 3359   2.457   8.599  10.423 -0.7653  0.5683  0.0478
   26MOL0     C 3360   2.419   8.699  10.529 -0.3956 -0.3058  0.3081
   26MOL0     C 3361   2.372   8.652  10.673  0.1530  0.1114 -0.4955
   26MOL0     C 3362   2.319   8.761  10.764 -0.0976 -0.3955 -0.0891
   26MOL0     C 3363   2.269   8.701  10.894 -1.0838 -0.5397 -0.4452
   26MOL0     C 3364   2.234   8.653  11.000  0.0873 -0.0518  0.4937
   26MOL0     C 3365   2.160   8.541  10.389 -0.3365 -0.0904  0.1510
   26MOL0     C 3366   2.032   8.497  10.383 -0.1191 -0.7555 -0.2867
   26MOL0     H 3367   1.637   8.147  10.310 -0.1405  0.1929 -0.4458
   26MOL0     H 3368   1.433   8.019  10.361 -1.1708 -1.6872  0.9015
   26MOL0     H 3369   1.244   8.100  10.700 -1.2626 -0.1180  0.1423
   26MOL0     H 3370   1.299   7.943  10.782 -1.2319 -0.2964  0.1553
   26MOL0     H 3371   1.115   7.836  10.642  1.3378  1.3311 -0.5981
   26MOL0     H 3372   1.062   7.982  10.575 -4.3432 -3.9497 -0.0677
   26MOL0     H 3373   1.000   8.077  10.802 -0.3399 -0.4901  3.6625
   26MOL0     H 3374   1.058   7.921  10.866  2.1998  0.3908 -0.3459
   26MOL0     H 3375   0.826   7.915  10.671  0.7152 -1.5628 -1.1166
   26MOL0     H 3376   0.896   7.784  10.776  0.4907 -0.0167  1.0005
   26MOL0     H 3377   0.764   8.035  10.881 -0.3146  0.1948 -3.6213
   26MOL0     H 3378   0.807   7.887  10.976  0.4019  0.7259  0.0451
   26MOL0     H 3379   0.631   7.771  10.832  1.7707  0.0288 -1.7149
   26MOL0     H 3380   0.613   7.907  10.734  0.8328 -1.3494  0.5505
   26MOL0     H 3381   0.523   8.045  10.944  1.5537 -0.2684  2.4302
   26MOL0     H 3382   0.425   7.913  10.877  0.8772 -2.1754 -0.2163
   26MOL0     H 3383   0.627   7.888  11.119 -1.6277  0.7056  2.2207
   26MOL0     H 3384   0.548   7.756  11.053 -1.9735 -1.4798  4.4394
   26MOL0     H 3385   0.479   8.099  11.230 -1.8223  2.0841 -0.6895
   26MOL0     H 3386   0.162   8.020  11.457  1.6243 -2.6847  0.1612
   26MOL0     H 3387   0.183   8.144  11.326  0.2254 -1.2200 -0.8295
   26MOL0     H 3388   0.409   8.205  11.389  1.4203 -1.5511 -0.8896
   26MOL0     H 3389   0.412   8.087  11.515  2.2932  1.4160 -0.3219
   26MOL0     H 3390   0.233   8.335  11.508  1.4548 -1.1274 -2.2325
   26MOL0     H 3391   0.230   8.225  11.647  0.4987  0.1613  0.5653
   26MOL0     H 3392   0.378   8.438  11.657  1.2524  0.7463 -0.1878
   26MOL0     H 3393   0.496   8.355  11.574 -0.7992 -0.1047 -1.2452
   26MOL0     H 3394   0.220   8.430  11.803  1.1391 -0.1592 -1.0443
   26MOL0     H 3395   0.072   8.416  11.999  2.3891  1.9581  1.5062
   26MOL0     H 3396  -0.170   8.101  12.178  0.7395 -0.4229  1.0176
   26MOL0     H 3397  -0.362   8.039  12.319 -0.4579 -0.2814  0.3420
   26MOL0     H 3398  -0.517   8.020  12.474  4.8126  1.1077  2.0544
   26MOL0     H 3399  -0.573   8.171  12.416  0.4283 -3.3981 -1.7291
   26MOL0     H 3400  -0.672   8.227  12.642  1.2334  0.8701 -1.3046
   26MOL0     H 3401  -0.629   8.062  12.697  1.4450  2.0541  0.4374
   26MOL0     H 3402  -0.770   7.958  12.529 -1.8586 -0.6223  2.0920
   26MOL0     H 3403  -0.836   8.097  12.462  2.8004 -3.2842 -2.7701
   26MOL0     H 3404  -0.955   7.949  12.662  3.0343 -1.8813 -0.1645
   26MOL0     H 3405  -0.857   8.054  12.764 -2.5769 -0.0827  1.6651
   26MOL0     H 3406  -1.038   8.157  12.553  0.2445  1.6261 -1.1541
   26MOL0     H 3407  -0.940   8.256  12.655  2.0117 -1.1081 -3.7896
   26MOL0     H 3408  -1.053   8.155  12.857  2.0615 -2.4910 -0.5794
   26MOL0     H 3409  -1.160   8.063  12.748 -0.1695 -0.0696  1.1308
   26MOL0     H 3410  -1.173   8.353  12.677  0.1555  1.5380  2.0642
   26MOL0     H 3411  -1.290   8.220  12.675 -0.9332 -0.6073  2.8836
   26MOL0     H 3412  -1.209   8.343  12.922  0.7584  0.1006 -1.0344
   26MOL0     H 3413  -1.349   8.240  12.903 -3.0524  1.6286 -0.5893
   26MOL0     H 3414  -0.243   8.366  12.583 -1.0804 -0.1889  0.0791
   26MOL0     H 3415  -0.059   8.421  12.410  2.5556 -1.4380 -1.3744
   26MOL0     H 3416   0.324   8.115  12.171  0.0757  0.9378  0.8073
   26MOL0     H 3417   0.466   8.125  11.969 -0.5666 -1.9666  1.4605
   26MOL0     H 3418   1.514   8.044  10.777 -1.0103 -1.0834  0.2597
   26MOL0     H 3419   1.710   8.176  10.738 -1.5202  0.9317  0.8951
   26MOL0     H 3420   2.076   8.189  10.523  2.5847 -0.3688  0.3936
   26MOL0     H 3421   2.299   8.248  10.499 -0.3769 -0.3026  0.2044
   26MOL0     H 3422   2.416   8.646  10.333 -1.8393 -0.8754 -0.2486
   26MOL0     H 3423   2.566   8.588  10.416 -0.0409  5.1686  1.1050
   26MOL0     H 3424   2.495   8.778  10.541 -0.4096  0.3511 -3.0716
   26MOL0     H 3425   2.335   8.757  10.491 -0.8839  0.2617  2.1150
   26MOL0     H 3426   2.457   8.601  10.719  0.6024  2.3820  1.3489
   26MOL0     H 3427   2.301   8.570  10.661  0.4510 -0.3068  0.4828
   26MOL0     H 3428   2.397   8.834  10.791  0.4400 -1.4549  1.3066
   26MOL0     H 3429   2.236   8.814  10.716  0.1627  1.1498  1.0823
   26MOL0     H 3430   2.209   8.594  11.086  0.6209  0.1297  0.7763
   26MOL0     H 3431   2.187   8.645  10.373 -0.6030  0.8474  4.6893
   26MOL0     H 3432   1.948   8.555  10.346 -0.5778 -2.2769 -1.7941
   27MOL0     O 3433   3.579  10.965   5.672 -0.6377  0.1432  0.2339
   27MOL0     C 3434   3.604  11.047   5.760 -0.3944  0.2876  0.1456
   27MOL0     O 3435   3.522  11.088   5.866  0.8735  0.4600  0.6905
   27MOL0     C 3436   3.394  11.044   5.862  0.1866  0.8761  1.0446
   27MOL0     C 3437   3.353  10.965   5.970 -0.6159 -0.1110 -0.5448
   27MOL0     C 3438   3.236  10.903   5.984  0.6041 -0.2073  0.3134
   27MOL0     C 3439   3.141  10.911   5.877  0.2427  0.4603  0.6930
   27MOL0     O 3440   3.022  10.834   5.893 -0.2658 -0.2635  0.3048
   27MOL0     C 3441   2.938  10.821   5.789 -0.4954 -0.7447 -0.1994
   27MOL0     C 3442   2.809  10.757   5.839 -0.0845 -1.0440 -0.5643
   27MOL0     C 3443   2.704  10.737   5.721 -0.0430  0.5320 -0.7952
   27MOL0     C 3444   2.589  10.660   5.791 -0.3181  1.2594  0.4132
   27MOL0     C 3445   2.466  10.652   5.694 -0.3460  0.1353  0.2270
   27MOL0     C 3446   2.356  10.570   5.762  0.0126 -0.1836 -0.7181
   27MOL0     C 3447   2.225  10.580   5.687 -0.3103 -0.3555  0.4824
   27MOL0     C 3448   2.106  10.559   5.783 -1.1225  0.1347  0.0837
   27MOL0     N 3449   1.974  10.576   5.724  0.9123  1.4037 -0.9073
   27MOL0     C 3450   1.947  10.647   5.613 -0.0898 -0.0268  0.3498
   27MOL0     C 3451   1.818  10.616   5.577 -0.1382 -0.7501 -0.2138
   27MOL0     C 3452   1.727  10.691   5.480 -0.2081 -1.0752 -0.2500
   27MOL0     C 3453   1.580  10.658   5.503  0.2233  0.7125  0.6510
   27MOL0     C 3454   1.492  10.724   5.390 -0.1964  0.9178 -0.5710
   27MOL0     C 3455   1.343  10.713   5.413 -0.2447  0.5231  0.2827
   27MOL0     O 3456   1.266  10.775   5.306 -0.8682 -0.2449  0.2442
   27MOL0     C 3457   1.133  10.747   5.296 -0.4678 -0.2419 -0.0643
   27MOL0     C 3458   1.061  10.817   5.199 -0.5926  0.1318  0.9440
   27MOL0     C 3459   0.925  10.794   5.182  0.5175 -0.5929  0.0185
   27MOL0     C 3460   0.849  10.712   5.268 -0.0032 -0.0948  1.2167
   27MOL0     C 3461   0.704  10.685   5.261  0.3459  0.5326 -1.3580
   27MOL0     O 3462   0.637  10.753   5.157  1.1996 -0.1577 -0.0832
   27MOL0     C 3463   0.495  10.753   5.143  0.0234  0.3642  0.6720
   27MOL0     C 3464   0.403  10.739   5.248  0.3803  0.0626  0.1682
   27MOL0     C 3465   0.268  10.751   5.229  0.5847 -0.2869  0.4270
   27MOL0     C 3466   0.216  10.776   5.103 -0.8032 -0.1961 -0.6035
   27MOL0     O 3467   0.084  10.788   5.083  0.3396 -0.1443 -0.0330
   27MOL0     C 3468  -0.013  10.821   5.184  1.3533 -0.0991 -0.6315
   27MOL0     C 3469  -0.132  10.887   5.116 -0.4979 -0.2260  0.1004
   27MOL0     C 3470  -0.193  10.811   5.010 -0.3856  1.1431  0.9872
   27MOL0     C 3471  -0.310  10.884   4.948  0.7089 -0.9058 -0.5098
   27MOL0     C 3472  -0.430  10.796   4.903 -0.0473 -0.4264  0.2298
   27MOL0     C 3473  -0.534  10.804   5.019  0.0700  0.7744 -0.0294
   27MOL0     C 3474  -0.641  10.690   5.005 -0.1932 -0.3529 -0.9573
   27MOL0     C 3475  -0.737  10.683   4.883 -0.4894 -0.8143  0.0319
   27MOL0    Cl 3476  -0.819  10.837   4.887  0.1772  0.5144 -0.0143
   27MOL0     C 3477   0.306  10.795   4.998  0.2668 -0.5909 -0.8238
   27MOL0     C 3478   0.441  10.782   5.019 -0.6199 -1.0818 -0.0337
   27MOL0     O 3479   0.653  10.593   5.334  0.3139 -0.8466  0.2506
   27MOL0     C 3480   0.929  10.643   5.362  0.4934  0.0441 -0.3400
   27MOL0     C 3481   1.066  10.655   5.380 -0.0727  0.1511  0.3341
   27MOL0     N 3482   1.770  10.531   5.674 -0.2901 -0.1598 -0.5805
   27MOL0     N 3483   1.860  10.509   5.765  0.3560 -0.0067  0.0772
   27MOL0     C 3484   3.175  10.989   5.767 -0.6484  0.1130 -0.1288
   27MOL0     C 3485   3.295  11.062   5.762 -0.7821  0.5671 -0.4629
   27MOL0     C 3486   3.743  11.099   5.760 -0.7765 -0.2977 -0.1542
   27MOL0     C 3487   3.848  11.044   5.673  0.2006  0.2064 -0.1744
   27MOL0     C 3488   3.986  11.076   5.696  1.0367 -0.6718  0.2682
   27MOL0     C 3489   4.013  11.171   5.792  0.4935 -0.3384  0.0219
   27MOL0     O 3490   4.141  11.206   5.828  0.4350  0.2625  0.1755
   27MOL0     C 3491   4.260  11.159   5.766 -0.1843  0.4184 -0.3302
   27MOL0     C 3492   4.352  11.274   5.758  0.3167  0.1153 -0.4727
   27MOL0     C 3493   4.505  11.226   5.735 -0.5758  0.0620 -0.8425
   27MOL0     C 3494   4.590  11.344   5.778 -0.5223  0.9773  0.1258
   27MOL0     C 3495   4.724  11.313   5.733 -0.3833 -0.3582  0.7040
   27MOL0     C 3496   4.832  11.309   5.686  0.0719  0.0092 -0.2233
   27MOL0     C 3497   3.917  11.235   5.872 -0.2263  0.0246  0.9695
   27MOL0     C 3498   3.778  11.194   5.860  0.2521  0.5600 -0.4366
   27MOL0     H 3499   3.426  10.955   6.050 -1.1385 -1.3841 -0.2059
   27MOL0     H 3500   3.225  10.841   6.073  0.7824  1.0498  1.2423
   27MOL0     H 3501   2.992  10.768   5.710  0.4168 -0.3523  0.1532
   27MOL0     H 3502   2.908  10.920   5.752 -0.8800  0.0699  2.1390
   27MOL0     H 3503   2.770  10.826   5.914 -1.0844 -1.5241 -0.6241
   27MOL0     H 3504   2.824  10.664   5.896 -3.0103  0.4489  3.0440
   27MOL0     H 3505   2.745  10.673   5.643  1.1619 -0.4067  0.5327
   27MOL0     H 3506   2.665  10.826   5.672 -0.8181  0.4103 -0.4215
   27MOL0     H 3507   2.615  10.555   5.807 -0.9267  0.6776 -1.9811
   27MOL0     H 3508   2.567  10.712   5.884  2.1706  0.3108  1.6123
   27MOL0     H 3509   2.503  10.589   5.612  0.3182  0.8257 -0.0168
   27MOL0     H 3510   2.438  10.747   5.647  1.5521 -0.4726 -2.3581
   27MOL0     H 3511   2.344  10.613   5.862 -0.4443 -1.6517 -0.1190
   27MOL0     H 3512   2.394  10.469   5.779  1.1615  0.0871 -1.5569
   27MOL0     H 3513   2.210  10.673   5.630  0.2018  0.9799  2.4215
   27MOL0     H 3514   2.217  10.491   5.624  0.4870 -0.4678  0.5262
   27MOL0     H 3515   2.138  10.624   5.866  0.8723 -0.0814 -0.4518
   27MOL0     H 3516   2.116  10.460   5.828 -1.3149 -0.0819 -0.3492
   27MOL0     H 3517   2.014  10.711   5.557 -2.6279  1.3137 -1.3662
   27MOL0     H 3518   1.756  10.678   5.375  0.1766  2.6699 -0.7459
   27MOL0     H 3519   1.745  10.796   5.504  0.6620 -1.4978  1.0320
   27MOL0     H 3520   1.551  10.696   5.601 -1.1025 -1.3085  1.1015
   27MOL0     H 3521   1.554  10.552   5.501 -1.7046  1.1469 -1.3232
   27MOL0     H 3522   1.516  10.830   5.386 -0.4714  1.0614  0.9607
   27MOL0     H 3523   1.506  10.682   5.290 -1.8830  2.0315 -1.3225
   27MOL0     H 3524   1.315  10.757   5.509  1.9464 -1.1773  1.8168
   27MOL0     H 3525   1.327  10.605   5.421 -0.9454  0.5151 -0.8420
   27MOL0     H 3526   1.112  10.878   5.126  0.9352 -2.8720 -0.6763
   27MOL0     H 3527   0.873  10.844   5.100  1.7650 -0.9187 -1.0007
   27MOL0     H 3528   0.433  10.727   5.351 -2.6709 -1.5943  0.9833
   27MOL0     H 3529   0.194  10.747   5.308 -0.1554  0.8865 -0.1905
   27MOL0     H 3530   0.029  10.897   5.251 -0.6679  0.3483  0.1879
   27MOL0     H 3531  -0.044  10.728   5.233 -1.0215  0.8082 -0.2874
   27MOL0     H 3532  -0.094  10.981   5.073  0.0413  0.4839  2.0431
   27MOL0     H 3533  -0.203  10.913   5.194  1.0565  1.2273  1.1015
   27MOL0     H 3534  -0.233  10.723   5.059  0.0966  1.2212  1.5263
   27MOL0     H 3535  -0.126  10.773   4.932 -0.9252  2.7932 -0.3478
   27MOL0     H 3536  -0.350  10.963   5.013  0.1296 -0.0985 -1.8160
   27MOL0     H 3537  -0.260  10.934   4.865  2.2212  1.0646  1.4740
   27MOL0     H 3538  -0.397  10.694   4.879 -1.6654 -0.0941 -4.4224
   27MOL0     H 3539  -0.482  10.832   4.814 -0.8738 -2.1792 -0.0475
   27MOL0     H 3540  -0.586  10.897   5.043  1.8428  1.1719  2.7575
   27MOL0     H 3541  -0.477  10.783   5.110  2.4732 -1.7330 -1.9324
   27MOL0     H 3542  -0.585  10.596   5.000  0.0493 -0.1660 -2.4472
   27MOL0     H 3543  -0.697  10.693   5.098  0.7150  1.2883 -0.4201
   27MOL0     H 3544  -0.811  10.604   4.901 -1.8886  0.4579  0.1230
   27MOL0     H 3545  -0.681  10.667   4.791  1.9903 -0.7241  1.4388
   27MOL0     H 3546   0.268  10.816   4.899 -1.7976  0.1478  0.0652
   27MOL0     H 3547   0.505  10.789   4.932 -0.7777  2.9661 -0.0128
   27MOL0     H 3548   0.875  10.579   5.430  3.2694 -2.5126 -0.3641
   27MOL0     H 3549   1.116  10.603   5.461 -1.5693 -0.4252  0.9131
   27MOL0     H 3550   3.114  11.003   5.678 -0.1965 -0.8321 -0.5961
   27MOL0     H 3551   3.331  11.125   5.681  2.8896  0.4244  0.8575
   27MOL0     H 3552   3.815  10.984   5.589 -1.6432  0.7709  0.0971
   27MOL0     H 3553   4.061  11.031   5.632  1.1542 -0.0280 -0.0508
   27MOL0     H 3554   4.239  11.109   5.670  0.4214 -3.6954  1.4745
   27MOL0     H 3555   4.304  11.082   5.829  1.0883  0.0303 -1.6532
   27MOL0     H 3556   4.320  11.337   5.675 -0.1261 -0.4857 -0.7667
   27MOL0     H 3557   4.344  11.342   5.843 -1.6550  2.0072 -2.0759
   27MOL0     H 3558   4.523  11.202   5.630  2.9762 -1.3012 -0.0493
   27MOL0     H 3559   4.527  11.133   5.788  0.4487 -0.4751 -2.1604
   27MOL0     H 3560   4.538  11.434   5.745 -1.3746  0.5637  0.2987
   27MOL0     H 3561   4.589  11.340   5.887 -0.6127 -1.2162  0.0906
   27MOL0     H 3562   4.937  11.306   5.665  0.6406  1.1844  2.0727
   27MOL0     H 3563   3.953  11.300   5.951 -0.0791 -1.0451  1.8117
   27MOL0     H 3564   3.702  11.238   5.923  1.9087  0.9471  1.4064
   28MOL0     O 3565   5.418   1.421   7.718 -0.6580  0.3164 -0.2860
   28MOL0     C 3566   5.441   1.372   7.826  0.3919  0.2209 -0.3335
   28MOL0     O 3567   5.349   1.320   7.909  0.2743 -0.0747 -0.5330
   28MOL0     C 3568   5.210   1.319   7.895 -0.5857  0.4303  0.0492
   28MOL0     C 3569   5.129   1.369   7.793  0.0366 -0.2405  0.3485
   28MOL0     C 3570   4.991   1.375   7.807  0.2050  0.4186  1.6423
   28MOL0     C 3571   4.925   1.323   7.913  0.4700  0.6240  0.0725
   28MOL0     O 3572   4.788   1.335   7.916 -0.3885  0.3965 -0.6473
   28MOL0     C 3573   4.717   1.209   7.933 -0.4005 -0.2763  0.2452
   28MOL0     C 3574   4.571   1.229   7.916 -0.1168  0.3246  0.9748
   28MOL0     C 3575   4.483   1.104   7.958 -0.4755 -0.3323  0.0100
   28MOL0     C 3576   4.337   1.147   7.953  0.2075  0.0580 -0.9698
   28MOL0     C 3577   4.231   1.038   7.943  0.0393  0.4379 -0.5776
   28MOL0     C 3578   4.091   1.087   7.944 -0.0449  0.3387  0.9280
   28MOL0     C 3579   3.988   0.972   7.934  0.2387  0.3650  0.3953
   28MOL0     C 3580   3.963   0.890   8.067 -0.5613  0.7248 -0.0454
   28MOL0     N 3581   3.865   0.778   8.054 -0.2319 -0.0708 -0.3260
   28MOL0     C 3582   3.742   0.784   8.103 -0.2782  0.6282 -0.7460
   28MOL0     C 3583   3.678   0.674   8.063 -0.0551  0.4044 -0.0972
   28MOL0     C 3584   3.532   0.651   8.105  0.6886 -0.4374 -0.2982
   28MOL0     C 3585   3.455   0.588   7.993 -0.5318 -0.2719  0.1406
   28MOL0     C 3586   3.305   0.546   8.030  1.1723 -0.2623 -0.3031
   28MOL0     C 3587   3.229   0.492   7.901  0.5044 -0.5405 -0.2938
   28MOL0     O 3588   3.247   0.592   7.797 -0.4504 -0.3081 -0.3345
   28MOL0     C 3589   3.143   0.625   7.714  0.4106  0.1567 -0.7373
   28MOL0     C 3590   3.056   0.529   7.671  0.7089  0.1834  0.0871
   28MOL0     C 3591   2.957   0.559   7.574  0.9246 -0.1216 -0.1851
   28MOL0     C 3592   2.942   0.684   7.517  0.5595 -0.2989 -0.0325
   28MOL0     C 3593   2.825   0.716   7.439 -1.4687 -1.1184 -0.1419
   28MOL0     O 3594   2.719   0.632   7.442 -0.8573 -0.9312 -0.5147
   28MOL0     C 3595   2.606   0.662   7.380  0.2957  0.0375 -0.1061
   28MOL0     C 3596   2.486   0.653   7.445 -0.0056 -0.5380  1.0906
   28MOL0     C 3597   2.366   0.665   7.373 -0.2282 -0.2441 -0.0764
   28MOL0     C 3598   2.360   0.707   7.238  0.0056  0.2909 -0.8665
   28MOL0     O 3599   2.238   0.701   7.177 -0.2310 -0.3640 -0.2308
   28MOL0     C 3600   2.232   0.758   7.038  0.2451  0.4015 -0.6222
   28MOL0     C 3601   2.082   0.770   6.988 -0.3469  0.5846 -0.4681
   28MOL0     C 3602   1.992   0.785   7.116  0.0426 -0.5199 -0.1539
   28MOL0     C 3603   1.851   0.844   7.071 -0.3850  0.2032  0.5603
   28MOL0     C 3604   1.781   0.746   6.979 -0.3890  0.4331  0.6030
   28MOL0     C 3605   1.633   0.748   7.002 -0.2957 -0.5044  0.4506
   28MOL0     C 3606   1.553   0.688   6.886 -0.0350  0.1723 -0.3403
   28MOL0     C 3607   1.567   0.538   6.872  0.1111  0.6515 -0.2103
   28MOL0    Cl 3608   1.483   0.442   7.000  0.3677 -0.2891 -0.6142
   28MOL0     C 3609   2.485   0.725   7.176 -0.3905 -0.1939  0.4225
   28MOL0     C 3610   2.609   0.699   7.245  0.8192  0.6560  0.9120
   28MOL0     O 3611   2.829   0.828   7.383  0.3746  0.1712 -0.5671
   28MOL0     C 3612   3.034   0.781   7.558 -0.3037 -0.9302 -0.4038
   28MOL0     C 3613   3.139   0.747   7.648 -0.1467 -0.4733  0.5706
   28MOL0     N 3614   3.763   0.610   7.977  0.2218 -0.0893  0.0221
   28MOL0     N 3615   3.877   0.671   7.977  0.6235  0.1175  0.7328
   28MOL0     C 3616   5.000   1.265   8.021 -0.1956 -0.0516  0.2676
   28MOL0     C 3617   5.146   1.270   8.008  0.7006 -0.3037  0.0433
   28MOL0     C 3618   5.576   1.375   7.890  0.4471 -0.0091  0.5593
   28MOL0     C 3619   5.620   1.272   7.977  0.1750 -0.7178  0.0193
   28MOL0     C 3620   5.744   1.274   8.033 -0.0756 -0.0477 -0.6539
   28MOL0     C 3621   5.831   1.382   8.013 -0.3232 -1.1273  0.1056
   28MOL0     O 3622   5.952   1.392   8.087  0.5981 -0.4421  0.7569
   28MOL0     C 3623   6.057   1.470   8.042 -1.1997  0.1376 -0.3461
   28MOL0     C 3624   6.168   1.386   7.991 -0.2249  0.0992  0.0331
   28MOL0     C 3625   6.304   1.452   8.033  0.2332  0.7938  0.1369
   28MOL0     C 3626   6.417   1.356   8.051 -0.1659  0.7570  0.4218
   28MOL0     C 3627   6.532   1.443   8.057 -0.4229 -0.5685 -0.2704
   28MOL0     C 3628   6.623   1.522   8.043 -0.8183 -1.3193 -0.0598
   28MOL0     C 3629   5.786   1.482   7.918 -0.5672  0.5969 -0.4863
   28MOL0     C 3630   5.663   1.481   7.865  0.3719  0.7593  0.1372
   28MOL0     H 3631   5.175   1.423   7.710  1.2527  1.2430  1.8949
   28MOL0     H 3632   4.935   1.414   7.723  1.5021 -1.9047 -0.4314
   28MOL0     H 3633   4.723   1.180   8.038 -0.8461 -0.9497  0.0933
   28MOL0     H 3634   4.740   1.130   7.861  3.5870  2.7202 -2.1872
   28MOL0     H 3635   4.535   1.244   7.814  0.1548 -1.1970  0.6219
   28MOL0     H 3636   4.548   1.321   7.970 -1.2838  0.6022  0.0513
   28MOL0     H 3637   4.507   1.073   8.060 -1.6393 -3.3691 -0.5248
   28MOL0     H 3638   4.507   1.023   7.889 -1.7517  2.0494 -3.5504
   28MOL0     H 3639   4.308   1.192   8.048 -1.5024 -1.9475 -0.4643
   28MOL0     H 3640   4.315   1.221   7.875 -2.9154 -0.0737 -0.3353
   28MOL0     H 3641   4.238   0.966   8.025 -0.7297  0.3781 -0.5585
   28MOL0     H 3642   4.250   0.992   7.845  2.7220  0.7459 -0.2775
   28MOL0     H 3643   4.075   1.146   7.853  1.7564 -0.9735 -0.3105
   28MOL0     H 3644   4.070   1.153   8.029  1.3632  1.1270  0.6962
   28MOL0     H 3645   3.892   1.015   7.904 -0.4308 -0.7019  0.9298
   28MOL0     H 3646   4.017   0.898   7.858  1.9804  0.3374  1.0605
   28MOL0     H 3647   3.932   0.959   8.146 -3.3904  3.3517 -3.1146
   28MOL0     H 3648   4.062   0.854   8.096  0.0688  2.9812  0.8324
   28MOL0     H 3649   3.695   0.864   8.159 -1.8286 -1.8179  1.7219
   28MOL0     H 3650   3.486   0.747   8.130  0.6343 -0.7473  0.8099
   28MOL0     H 3651   3.529   0.592   8.197  0.2351 -0.9337 -0.6277
   28MOL0     H 3652   3.504   0.500   7.951 -0.5285  0.6429 -1.8757
   28MOL0     H 3653   3.457   0.664   7.914  1.3765  0.8832  1.2231
   28MOL0     H 3654   3.305   0.471   8.110 -1.0142  1.2122  1.1835
   28MOL0     H 3655   3.246   0.633   8.059  1.3081  0.0754 -1.0014
   28MOL0     H 3656   3.128   0.470   7.936 -1.0415  1.7016 -2.8930
   28MOL0     H 3657   3.270   0.401   7.858 -1.7686 -1.8043  0.0495
   28MOL0     H 3658   3.060   0.430   7.717  3.9282 -1.3197 -2.9076
   28MOL0     H 3659   2.888   0.477   7.554 -1.5284  2.0162 -0.9661
   28MOL0     H 3660   2.494   0.625   7.550  0.9788 -1.6281  0.7441
   28MOL0     H 3661   2.272   0.648   7.425  1.2431 -1.0302  2.5154
   28MOL0     H 3662   2.280   0.687   6.970 -2.9226 -2.2145 -0.3520
   28MOL0     H 3663   2.287   0.853   7.030  1.3569 -0.1679  0.0734
   28MOL0     H 3664   2.060   0.683   6.926  0.4849  0.5537 -0.7342
   28MOL0     H 3665   2.070   0.865   6.936 -2.9510  0.3500 -0.4503
   28MOL0     H 3666   2.034   0.849   7.194 -2.4810 -1.1107  1.8284
   28MOL0     H 3667   1.983   0.687   7.163 -0.1471 -1.0509 -1.2554
   28MOL0     H 3668   1.785   0.868   7.154 -0.1060  0.1453  0.8008
   28MOL0     H 3669   1.869   0.930   7.005  0.0848 -0.3205 -0.0065
   28MOL0     H 3670   1.830   0.650   6.998 -1.7396 -0.1812  1.0683
   28MOL0     H 3671   1.797   0.770   6.874  1.9969 -2.1992  0.2319
   28MOL0     H 3672   1.593   0.847   7.027 -1.2694 -1.3694  2.5575
   28MOL0     H 3673   1.620   0.694   7.096 -0.4685  1.3527  1.5581
   28MOL0     H 3674   1.448   0.712   6.906  0.3825  0.6165  1.5609
   28MOL0     H 3675   1.583   0.736   6.792  0.3582 -1.1631 -0.9281
   28MOL0     H 3676   1.671   0.507   6.876 -0.3120 -0.7574  0.7399
   28MOL0     H 3677   1.540   0.507   6.771  1.3422 -1.5157  0.0734
   28MOL0     H 3678   2.482   0.758   7.073 -0.8181 -0.1513  0.4492
   28MOL0     H 3679   2.705   0.707   7.195 -0.1639  1.5031 -0.9673
   28MOL0     H 3680   3.036   0.884   7.524 -0.2033 -1.5633 -2.4615
   28MOL0     H 3681   3.216   0.820   7.670  0.7095 -0.7695 -1.2893
   28MOL0     H 3682   4.953   1.209   8.101 -0.9244  0.3330  0.1093
   28MOL0     H 3683   5.211   1.239   8.089  0.5047  2.8428  1.5719
   28MOL0     H 3684   5.558   1.184   7.988 -0.9199  0.0585  0.2346
   28MOL0     H 3685   5.783   1.193   8.094 -1.6891  0.5813  1.3378
   28MOL0     H 3686   6.087   1.536   8.124 -0.7386  1.6927 -1.7132
   28MOL0     H 3687   6.028   1.539   7.963  0.3706 -0.0455 -1.1243
   28MOL0     H 3688   6.163   1.282   8.025 -0.0292 -0.1051 -0.5550
   28MOL0     H 3689   6.161   1.379   7.883  1.7465 -1.2267 -0.0638
   28MOL0     H 3690   6.295   1.513   8.123 -0.8125 -0.4518  0.9090
   28MOL0     H 3691   6.336   1.510   7.946 -1.5614  1.6487  0.0124
   28MOL0     H 3692   6.400   1.307   8.147 -2.7189  2.3387  0.8579
   28MOL0     H 3693   6.417   1.286   7.967 -2.3445 -0.4999  1.3921
   28MOL0     H 3694   6.696   1.599   8.035 -2.9249  0.6596 -1.4075
   28MOL0     H 3695   5.849   1.568   7.893  0.0238  0.3674  0.1642
   28MOL0     H 3696   5.636   1.558   7.792 -0.4952  0.3535  0.0165
   29MOL0     O 3697   7.008   4.701   4.277 -0.3775  0.0079  0.1161
   29MOL0     C 3698   7.051   4.598   4.332  0.7244 -0.2405 -0.8252
   29MOL0     O 3699   6.983   4.533   4.428 -0.1626  0.0860 -0.3511
   29MOL0     C 3700   6.894   4.607   4.509  0.1843 -0.6171  0.4370
   29MOL0     C 3701   6.926   4.734   4.557  0.5233  0.6847 -0.1140
   29MOL0     C 3702   6.840   4.788   4.653  0.3550  0.1994  0.1547
   29MOL0     C 3703   6.718   4.731   4.685  0.3485 -0.1638  0.2947
   29MOL0     O 3704   6.630   4.798   4.775 -0.3627 -0.2268 -0.2663
   29MOL0     C 3705   6.493   4.760   4.767 -0.2877 -0.5231  0.1203
   29MOL0     C 3706   6.419   4.855   4.859  0.2043 -0.1507  0.0603
   29MOL0     C 3707   6.263   4.854   4.838 -0.4521  0.5813 -0.3432
   29MOL0     C 3708   6.211   4.950   4.946  0.8656 -0.1061  0.4017
   29MOL0     C 3709   6.054   4.943   4.958 -0.1169 -0.3402 -0.8138
   29MOL0     C 3710   5.989   5.054   5.057  0.6996  0.3683  0.2293
   29MOL0     C 3711   5.837   5.055   5.061 -0.0414 -0.3403 -0.2400
   29MOL0     C 3712   5.781   5.165   5.159 -0.8369  0.3510 -0.4249
   29MOL0     N 3713   5.634   5.156   5.171  0.5565  0.8308  0.1494
   29MOL0     C 3714   5.575   5.085   5.272 -0.3280  0.8533 -0.3774
   29MOL0     C 3715   5.445   5.118   5.280 -0.2056  0.5155  0.1705
   29MOL0     C 3716   5.348   5.075   5.394 -0.1352 -0.0895 -0.0456
   29MOL0     C 3717   5.209   5.044   5.357 -0.5305 -1.3600 -0.1174
   29MOL0     C 3718   5.120   5.024   5.481 -0.2498  0.1116 -0.0916
   29MOL0     C 3719   5.001   4.932   5.447  0.0569 -0.2540  0.5645
   29MOL0     O 3720   4.941   4.965   5.319 -0.9879 -0.2110 -0.0746
   29MOL0     C 3721   4.852   5.069   5.303 -0.5102  0.2653 -1.0072
   29MOL0     C 3722   4.814   5.102   5.176 -0.9914  0.0080 -0.5464
   29MOL0     C 3723   4.709   5.190   5.156 -0.7315 -0.0793  0.2270
   29MOL0     C 3724   4.642   5.256   5.257  0.0908 -0.1494 -0.1005
   29MOL0     C 3725   4.542   5.363   5.234  0.3139  0.1094 -0.8565
   29MOL0     O 3726   4.467   5.394   5.343  0.4855 -0.9882 -0.6263
   29MOL0     C 3727   4.351   5.464   5.346  0.4108 -0.7572 -0.7291
   29MOL0     C 3728   4.278   5.511   5.234 -0.4704  0.5083  0.1380
   29MOL0     C 3729   4.160   5.587   5.254 -0.5409  0.2719 -0.1834
   29MOL0     C 3730   4.114   5.613   5.376 -0.9270  0.1004  0.1711
   29MOL0     O 3731   4.000   5.685   5.405 -0.3815 -0.2100  0.0861
   29MOL0     C 3732   3.900   5.719   5.301 -0.4160  0.2283  0.0474
   29MOL0     C 3733   3.802   5.817   5.364 -0.2835 -0.3157 -0.2804
   29MOL0     C 3734   3.700   5.759   5.475 -0.9061 -0.3471  0.4533
   29MOL0     C 3735   3.592   5.669   5.420 -0.2248 -0.8016  1.7712
   29MOL0     C 3736   3.491   5.622   5.517 -0.2855  0.4228  0.1932
   29MOL0     C 3737   3.394   5.522   5.450 -0.4321 -0.5664  0.0089
   29MOL0     C 3738   3.271   5.506   5.546  0.7286 -0.3913 -0.9053
   29MOL0     C 3739   3.151   5.424   5.502 -0.5358 -0.8235 -0.0559
   29MOL0    Cl 3740   3.039   5.415   5.639  0.0298 -0.0031 -0.2167
   29MOL0     C 3741   4.191   5.570   5.490 -0.1765 -0.1035 -0.6130
   29MOL0     C 3742   4.303   5.493   5.473  0.7221 -0.2113  0.7934
   29MOL0     O 3743   4.534   5.410   5.128 -0.0030  0.3197  0.4300
   29MOL0     C 3744   4.690   5.226   5.385 -0.1804 -0.4618  0.7330
   29MOL0     C 3745   4.790   5.135   5.410 -0.6137  0.0831  0.4200
   29MOL0     N 3746   5.427   5.189   5.164 -0.1085  0.0008  0.1332
   29MOL0     N 3747   5.536   5.217   5.099 -0.2984 -0.0597 -0.3392
   29MOL0     C 3748   6.683   4.607   4.625  0.6984  1.1541 -0.1780
   29MOL0     C 3749   6.776   4.536   4.545 -0.2806 -0.1950  0.2600
   29MOL0     C 3750   7.182   4.546   4.291  0.0884 -0.2089 -0.0824
   29MOL0     C 3751   7.227   4.434   4.360 -0.1664  0.9944  0.4828
   29MOL0     C 3752   7.340   4.366   4.307  0.1128 -0.3428 -0.0092
   29MOL0     C 3753   7.403   4.411   4.194 -0.0199 -0.0329  0.5462
   29MOL0     O 3754   7.514   4.335   4.162  0.1602  0.1765 -0.3312
   29MOL0     C 3755   7.577   4.342   4.032  0.2788 -0.3727  0.2255
   29MOL0     C 3756   7.527   4.217   3.954 -0.0029  0.0650 -1.2987
   29MOL0     C 3757   7.372   4.206   3.947  0.5358 -0.3014  0.4156
   29MOL0     C 3758   7.325   4.104   3.845  0.0987  0.2698  0.2742
   29MOL0     C 3759   7.183   4.098   3.854  0.1493 -0.3226 -0.4891
   29MOL0     C 3760   7.063   4.089   3.866  0.1268 -0.6341 -0.5130
   29MOL0     C 3761   7.363   4.530   4.134 -0.2214  0.6480 -0.1167
   29MOL0     C 3762   7.252   4.591   4.183  1.5361  0.8035  0.3672
   29MOL0     H 3763   7.008   4.786   4.510  1.8409 -2.4853 -1.6719
   29MOL0     H 3764   6.872   4.879   4.704  3.9957 -1.2515  0.7887
   29MOL0     H 3765   6.462   4.659   4.794 -1.0788 -0.5333 -0.7869
   29MOL0     H 3766   6.461   4.783   4.665  0.0368 -2.6093 -0.5126
   29MOL0     H 3767   6.469   4.952   4.868  0.9728 -0.6776  1.8914
   29MOL0     H 3768   6.439   4.820   4.960  0.2861  0.9658  0.4446
   29MOL0     H 3769   6.230   4.751   4.856  1.6261 -0.7280 -3.2182
   29MOL0     H 3770   6.245   4.891   4.737  4.5664  2.1806 -0.9477
   29MOL0     H 3771   6.246   4.924   5.047 -0.6305 -1.3009  0.6497
   29MOL0     H 3772   6.242   5.054   4.934  0.8020  0.3656  3.4845
   29MOL0     H 3773   6.026   4.849   5.007  0.2135  0.6262  1.3648
   29MOL0     H 3774   6.008   4.962   4.861  1.5219 -1.0359 -1.7597
   29MOL0     H 3775   6.004   5.153   5.011 -0.6909  0.8363  0.7224
   29MOL0     H 3776   6.034   5.060   5.156 -3.9220  2.7242  2.4993
   29MOL0     H 3777   5.808   5.061   4.956 -1.5868  1.7629  0.2332
   29MOL0     H 3778   5.801   4.956   5.092 -0.4980  0.1559  0.8770
   29MOL0     H 3779   5.811   5.266   5.128  2.3304 -0.6371 -0.8786
   29MOL0     H 3780   5.830   5.150   5.255  1.8871 -0.8496 -1.9200
   29MOL0     H 3781   5.627   5.021   5.342  0.5534  0.6376 -1.2098
   29MOL0     H 3782   5.350   5.164   5.457  0.9984 -1.6625  2.2793
   29MOL0     H 3783   5.377   4.988   5.453 -1.9266 -0.5692  0.1989
   29MOL0     H 3784   5.217   4.950   5.303  0.2636 -2.1658  1.3291
   29MOL0     H 3785   5.167   5.120   5.290  1.2745 -0.1910 -0.0156
   29MOL0     H 3786   5.166   4.981   5.571 -1.0719  0.9036  0.7362
   29MOL0     H 3787   5.086   5.120   5.521 -0.7095  0.0571 -0.3561
   29MOL0     H 3788   4.926   4.943   5.526 -0.7040  1.2844 -0.3166
   29MOL0     H 3789   5.043   4.832   5.433  2.0303  0.7419 -1.1393
   29MOL0     H 3790   4.875   5.058   5.097 -1.9085  1.7657 -2.3426
   29MOL0     H 3791   4.690   5.205   5.050 -0.1318 -0.4350  0.0673
   29MOL0     H 3792   4.302   5.488   5.131 -0.7785 -2.2238  0.6114
   29MOL0     H 3793   4.114   5.613   5.159  1.2609  0.5053 -1.0421
   29MOL0     H 3794   3.844   5.633   5.264 -0.1547  1.0616 -2.4113
   29MOL0     H 3795   3.944   5.767   5.214 -2.6291 -0.0613 -1.2947
   29MOL0     H 3796   3.744   5.866   5.285  1.0348  0.5671 -0.7434
   29MOL0     H 3797   3.859   5.896   5.413 -0.0034  0.0786 -1.2198
   29MOL0     H 3798   3.653   5.843   5.527  1.0065  1.4586 -0.6092
   29MOL0     H 3799   3.756   5.706   5.553  1.5868 -2.0748 -2.2979
   29MOL0     H 3800   3.539   5.731   5.347  0.2758  2.0317  3.6605
   29MOL0     H 3801   3.627   5.581   5.365 -3.0596 -0.6796 -0.4919
   29MOL0     H 3802   3.439   5.710   5.556  1.3162  1.0975  0.9466
   29MOL0     H 3803   3.547   5.576   5.600 -1.1045  2.4382  1.9727
   29MOL0     H 3804   3.441   5.426   5.428  0.8209 -0.6143  2.5375
   29MOL0     H 3805   3.349   5.568   5.361  1.3425 -1.8723 -1.6457
   29MOL0     H 3806   3.307   5.459   5.638 -2.7347 -3.7692 -1.0069
   29MOL0     H 3807   3.231   5.605   5.570  0.8984 -0.6480  0.5125
   29MOL0     H 3808   3.181   5.321   5.479 -0.4254 -0.7081 -0.4193
   29MOL0     H 3809   3.103   5.469   5.415  1.9403 -1.6643 -1.9585
   29MOL0     H 3810   4.156   5.600   5.588 -1.9815  2.7648 -1.9815
   29MOL0     H 3811   4.348   5.439   5.555  2.5048 -0.0645 -0.0553
   29MOL0     H 3812   4.637   5.272   5.467  0.5260  0.3413  0.7451
   29MOL0     H 3813   4.806   5.112   5.515 -0.2821  0.3176  0.4213
   29MOL0     H 3814   6.593   4.558   4.661  0.8058  0.5481 -0.7207
   29MOL0     H 3815   6.765   4.433   4.513  1.5754 -0.3005 -0.1478
   29MOL0     H 3816   7.159   4.394   4.434  0.3432 -1.5548 -0.3075
   29MOL0     H 3817   7.381   4.279   4.358  0.7140  0.4268  0.8700
   29MOL0     H 3818   7.684   4.345   4.050  0.3558  2.6985 -0.1539
   29MOL0     H 3819   7.560   4.431   3.971  0.9479 -0.6120 -0.3137
   29MOL0     H 3820   7.581   4.221   3.859 -2.3165 -2.8278 -2.9055
   29MOL0     H 3821   7.563   4.123   3.996  0.3090  0.2135 -1.2289
   29MOL0     H 3822   7.335   4.304   3.914  1.6696  0.9199  2.5538
   29MOL0     H 3823   7.334   4.190   4.049  1.3774  0.4273  0.8620
   29MOL0     H 3824   7.353   4.124   3.741  3.5758 -4.3790 -0.0284
   29MOL0     H 3825   7.379   4.012   3.870  2.2986  1.3009 -0.3843
   29MOL0     H 3826   6.959   4.076   3.889 -0.2441 -2.1426 -2.7103
   29MOL0     H 3827   7.428   4.579   4.062  0.3151 -0.0555 -0.1134
   29MOL0     H 3828   7.228   4.679   4.124  2.7107  1.8103  1.3331
   30MOL0     O 3829   2.150   2.148   5.326  0.4349  0.2894  0.1387
   30MOL0     C 3830   2.197   2.260   5.331  0.5307  0.8801 -0.3677
   30MOL0     O 3831   2.121   2.374   5.379 -0.1421  0.5919  0.3643
   30MOL0     C 3832   1.987   2.344   5.389 -0.3362 -0.8768  0.7954
   30MOL0     C 3833   1.910   2.333   5.271  0.1921 -0.3062 -0.3605
   30MOL0     C 3834   1.779   2.291   5.277 -0.9676 -0.6700 -0.8670
   30MOL0     C 3835   1.713   2.277   5.400  0.0831 -0.2809  0.2130
   30MOL0     O 3836   1.580   2.245   5.423 -0.3930  0.1785  0.4703
   30MOL0     C 3837   1.487   2.234   5.309  0.7056 -0.8373  0.1627
   30MOL0     C 3838   1.345   2.230   5.380 -0.4206  0.9146  0.1620
   30MOL0     C 3839   1.245   2.246   5.267  0.3013 -0.2773  0.0941
   30MOL0     C 3840   1.110   2.259   5.327  0.6434 -0.2090  0.4546
   30MOL0     C 3841   0.993   2.323   5.239 -0.2011 -0.5544 -0.2604
   30MOL0     C 3842   0.860   2.317   5.311  0.6713  0.2676 -0.1411
   30MOL0     C 3843   0.750   2.351   5.215 -0.1901 -0.1864  0.2722
   30MOL0     C 3844   0.621   2.318   5.283 -0.3383 -0.1484 -0.5726
   30MOL0     N 3845   0.483   2.316   5.218 -0.6860 -0.5204 -0.0973
   30MOL0     C 3846   0.445   2.210   5.134  0.5451 -0.5276  0.0074
   30MOL0     C 3847   0.317   2.238   5.098 -0.2199  0.8070  0.0819
   30MOL0     C 3848   0.225   2.165   5.014 -0.6678 -0.3957  0.4289
   30MOL0     C 3849   0.206   2.022   5.063  0.0830 -0.4580  0.5138
   30MOL0     C 3850   0.122   1.947   4.963  0.3493  0.8437  0.4955
   30MOL0     C 3851  -0.019   1.953   5.007  0.4536 -0.4712 -0.7618
   30MOL0     O 3852  -0.121   1.925   4.911 -0.0010 -0.2184  0.1012
   30MOL0     C 3853  -0.243   1.904   4.970 -0.1727  0.2912  0.2300
   30MOL0     C 3854  -0.334   2.006   4.958  0.5941 -0.6764  0.1047
   30MOL0     C 3855  -0.463   1.985   5.000  0.7541 -0.1309 -0.4697
   30MOL0     C 3856  -0.499   1.866   5.068 -0.3130  0.3573  0.5465
   30MOL0     C 3857  -0.634   1.854   5.115 -0.0231  0.6942 -0.2275
   30MOL0     O 3858  -0.733   1.907   5.033 -0.5371 -0.6932 -0.1096
   30MOL0     C 3859  -0.865   1.881   5.080  0.8385 -0.6192  0.7957
   30MOL0     C 3860  -0.951   1.801   4.997 -0.3982 -0.4075  0.4605
   30MOL0     C 3861  -1.084   1.782   5.048 -0.3027  0.0259 -0.5333
   30MOL0     C 3862  -1.134   1.838   5.164  1.2752 -0.2321  0.3107
   30MOL0     O 3863  -1.261   1.817   5.212  0.0474  0.1891 -0.2084
   30MOL0     C 3864  -1.355   1.761   5.116 -0.0507 -0.2947 -1.1394
   30MOL0     C 3865  -1.500   1.804   5.162  0.1882  0.2284  0.1653
   30MOL0     C 3866  -1.600   1.685   5.133 -0.0155 -0.5384  0.2619
   30MOL0     C 3867  -1.745   1.713   5.157  0.3668 -0.0719 -0.6483
   30MOL0     C 3868  -1.792   1.829   5.061 -1.1240 -0.4380  0.3443
   30MOL0     C 3869  -1.800   1.789   4.917 -0.8961  0.5658  0.0034
   30MOL0     C 3870  -1.883   1.885   4.827 -0.1165  0.0100 -0.3690
   30MOL0     C 3871  -1.920   1.826   4.695 -0.3274  0.2969 -0.0269
   30MOL0    Cl 3872  -2.053   1.705   4.710 -0.0452  0.2157  0.1067
   30MOL0     C 3873  -1.041   1.906   5.243  0.9219 -0.0465  0.3245
   30MOL0     C 3874  -0.914   1.932   5.200  0.5304  0.3346  0.2808
   30MOL0     O 3875  -0.647   1.787   5.216  0.2016 -0.0422 -0.1287
   30MOL0     C 3876  -0.397   1.776   5.093 -0.3102 -0.0250  0.1850
   30MOL0     C 3877  -0.275   1.797   5.046 -0.0100 -1.0030 -0.5846
   30MOL0     N 3878   0.268   2.341   5.162 -0.2322 -0.2844 -1.1077
   30MOL0     N 3879   0.371   2.400   5.237  0.8760  0.5223  0.1718
   30MOL0     C 3880   1.783   2.289   5.514 -0.6214  0.1481  0.3056
   30MOL0     C 3881   1.926   2.321   5.512  0.0004 -1.1368 -0.3359
   30MOL0     C 3882   2.332   2.278   5.295 -0.2184 -0.2662  0.1015
   30MOL0     C 3883   2.416   2.176   5.246 -0.7982  0.1285 -0.6916
   30MOL0     C 3884   2.544   2.204   5.203 -0.5093  0.6259 -1.0725
   30MOL0     C 3885   2.596   2.340   5.196 -0.3694 -0.2712 -0.3522
   30MOL0     O 3886   2.723   2.361   5.153 -0.4998  0.8800  0.2789
   30MOL0     C 3887   2.751   2.496   5.096 -0.1226 -0.0757 -0.4405
   30MOL0     C 3888   2.900   2.477   5.052 -0.9798 -0.4892 -0.0411
   30MOL0     C 3889   2.954   2.584   4.959  0.4970 -0.1063  0.0504
   30MOL0     C 3890   3.104   2.558   4.917 -0.0899  0.0873  0.2824
   30MOL0     C 3891   3.194   2.566   5.037  0.1428 -0.6620 -0.1526
   30MOL0     C 3892   3.272   2.562   5.134  0.1233 -0.1025  0.2733
   30MOL0     C 3893   2.517   2.433   5.258  0.0579  0.1452  0.6672
   30MOL0     C 3894   2.388   2.407   5.301 -0.2769  0.7198 -0.1382
   30MOL0     H 3895   1.951   2.346   5.171 -2.9983 -1.5015 -1.9647
   30MOL0     H 3896   1.718   2.289   5.188  0.0506  0.7696 -1.6448
   30MOL0     H 3897   1.493   2.145   5.244  0.6617 -2.1350  1.8692
   30MOL0     H 3898   1.490   2.315   5.236 -0.4061 -2.6405 -2.0203
   30MOL0     H 3899   1.350   2.315   5.449  1.2389  0.0099  1.2024
   30MOL0     H 3900   1.328   2.135   5.431 -1.1708 -0.9434 -3.2660
   30MOL0     H 3901   1.257   2.157   5.204  1.7913  0.5092 -0.7820
   30MOL0     H 3902   1.262   2.333   5.204 -0.5609  0.5203  0.9399
   30MOL0     H 3903   1.077   2.155   5.342 -0.2700 -0.0214 -0.2148
   30MOL0     H 3904   1.119   2.308   5.425 -0.2566 -1.1020  1.0063
   30MOL0     H 3905   0.986   2.276   5.141 -0.9568  0.8926 -0.9449
   30MOL0     H 3906   1.023   2.427   5.222 -0.8409 -0.1161  1.1537
   30MOL0     H 3907   0.870   2.392   5.391  2.0022 -2.0845  2.0250
   30MOL0     H 3908   0.844   2.221   5.361  1.0405  0.9118  1.2807
   30MOL0     H 3909   0.749   2.458   5.191  0.8041  0.8014  4.0353
   30MOL0     H 3910   0.755   2.284   5.129 -3.3334 -2.3369  1.5891
   30MOL0     H 3911   0.596   2.394   5.357 -0.0989  1.4236 -2.0430
   30MOL0     H 3912   0.638   2.228   5.343 -0.7297 -0.0953 -0.3768
   30MOL0     H 3913   0.512   2.133   5.098  3.9766  1.6307  1.2085
   30MOL0     H 3914   0.278   2.164   4.918  1.7859 -2.9492  1.6516
   30MOL0     H 3915   0.128   2.216   5.017  1.1289  3.3031 -0.0612
   30MOL0     H 3916   0.170   2.020   5.167 -1.6359  2.8005  0.1258
   30MOL0     H 3917   0.305   1.977   5.064  0.9110  1.2340 -0.6583
   30MOL0     H 3918   0.123   2.003   4.869 -0.6657 -1.4300 -0.9427
   30MOL0     H 3919   0.151   1.842   4.955  3.0991  1.5834  0.0154
   30MOL0     H 3920  -0.045   2.053   5.044 -0.5287 -1.2931  0.8928
   30MOL0     H 3921  -0.023   1.889   5.096 -0.8184  0.7586  0.1196
   30MOL0     H 3922  -0.317   2.099   4.905 -2.8300  0.8866  1.4390
   30MOL0     H 3923  -0.529   2.069   4.977  0.3323 -0.4616 -0.4665
   30MOL0     H 3924  -0.908   1.776   4.901 -0.2431  3.0809 -0.4978
   30MOL0     H 3925  -1.139   1.722   4.975  1.6683 -0.6247 -1.5441
   30MOL0     H 3926  -1.354   1.652   5.117 -3.2500 -0.4203 -0.8536
   30MOL0     H 3927  -1.339   1.796   5.013  2.0270  2.7344  0.0761
   30MOL0     H 3928  -1.526   1.900   5.116 -0.9430  1.3690  2.9365
   30MOL0     H 3929  -1.489   1.833   5.267 -2.0746 -0.4341  0.6350
   30MOL0     H 3930  -1.572   1.597   5.191 -0.4259 -0.2000  0.9842
   30MOL0     H 3931  -1.582   1.655   5.029 -1.6122  1.2240 -0.5891
   30MOL0     H 3932  -1.811   1.627   5.139  1.2390 -0.5619 -1.6017
   30MOL0     H 3933  -1.759   1.748   5.259  1.7767 -0.2307 -0.3804
   30MOL0     H 3934  -1.724   1.914   5.065 -1.1924  0.0321 -3.9741
   30MOL0     H 3935  -1.894   1.855   5.091 -1.0369 -1.7825  1.9604
   30MOL0     H 3936  -1.844   1.689   4.914 -3.2612  1.4263 -4.8090
   30MOL0     H 3937  -1.697   1.778   4.882 -0.8114 -0.8950  0.6403
   30MOL0     H 3938  -1.967   1.937   4.874  0.4730 -0.1855  0.9349
   30MOL0     H 3939  -1.806   1.960   4.805  0.9306 -0.7963  0.4404
   30MOL0     H 3940  -1.833   1.776   4.651 -2.4471 -2.8939 -0.9479
   30MOL0     H 3941  -1.940   1.917   4.638 -2.5563  0.8791  1.5450
   30MOL0     H 3942  -1.061   1.944   5.343 -0.9378 -0.1208  0.0064
   30MOL0     H 3943  -0.838   1.982   5.260  1.9214 -0.0157 -1.1222
   30MOL0     H 3944  -0.422   1.688   5.151  2.3473 -1.3215 -0.4981
   30MOL0     H 3945  -0.194   1.729   5.072  1.7940  1.0494 -0.6267
   30MOL0     H 3946   1.733   2.273   5.609 -0.7100 -0.5346  0.1454
   30MOL0     H 3947   1.991   2.315   5.599  1.1732  1.7496 -0.8854
   30MOL0     H 3948   2.390   2.072   5.255  0.0058 -0.1214 -1.1159
   30MOL0     H 3949   2.598   2.119   5.163 -1.0434 -1.8376  2.8743
   30MOL0     H 3950   2.739   2.574   5.172  0.0004  0.1112 -0.6142
   30MOL0     H 3951   2.680   2.496   5.012 -0.8134 -0.5510  0.1309
   30MOL0     H 3952   2.957   2.481   5.146 -2.8621  1.0623  1.1179
   30MOL0     H 3953   2.917   2.380   5.005 -0.8385 -0.0149 -0.9785
   30MOL0     H 3954   2.943   2.685   4.999 -0.4811 -0.9277  1.9664
   30MOL0     H 3955   2.900   2.570   4.865  0.9366 -2.0259  0.0520
   30MOL0     H 3956   3.121   2.457   4.879 -2.5628 -0.4201  0.3737
   30MOL0     H 3957   3.137   2.623   4.835  0.0243 -0.7802 -0.3711
   30MOL0     H 3958   3.357   2.546   5.196  2.2983  0.8594 -2.2527
   30MOL0     H 3959   2.554   2.533   5.238 -0.0856 -0.2042 -1.4886
   30MOL0     H 3960   2.331   2.491   5.341 -0.7490  0.3763 -0.0922
   31MOL0     O 3961   4.993   6.754   6.220  0.8631 -0.5640 -0.2981
   31MOL0     C 3962   5.082   6.834   6.191 -0.7213  0.1271  0.5413
   31MOL0     O 3963   5.062   6.965   6.161 -0.1023  1.1337  0.1406
   31MOL0     C 3964   4.933   7.017   6.137 -1.1918  0.1449  0.3571
   31MOL0     C 3965   4.821   6.982   6.209  0.0278  0.4337  0.1759
   31MOL0     C 3966   4.693   7.028   6.175 -0.3358 -0.1160 -0.8079
   31MOL0     C 3967   4.681   7.130   6.081 -0.4876 -0.2076  0.0867
   31MOL0     O 3968   4.559   7.189   6.039  0.1150  0.4685  0.1943
   31MOL0     C 3969   4.441   7.142   6.103  0.8167  0.7207  0.0737
   31MOL0     C 3970   4.320   7.227   6.040  0.5837  0.3313  0.1659
   31MOL0     C 3971   4.185   7.146   6.071 -0.2904  0.7608  0.7792
   31MOL0     C 3972   4.056   7.216   6.033 -0.0988 -0.2999 -0.1982
   31MOL0     C 3973   3.936   7.124   6.057 -0.1968  0.5351 -0.1653
   31MOL0     C 3974   3.897   7.129   6.203  0.0205 -0.3310 -0.1321
   31MOL0     C 3975   3.758   7.069   6.228  0.1548 -0.0722 -0.0998
   31MOL0     C 3976   3.719   7.091   6.374 -0.9110 -0.0042 -0.0690
   31MOL0     N 3977   3.584   7.044   6.404 -0.0500  1.1041 -0.5890
   31MOL0     C 3978   3.465   7.099   6.372 -0.4583  0.1053  0.3561
   31MOL0     C 3979   3.374   7.023   6.442  0.0003 -0.5650  0.1559
   31MOL0     C 3980   3.225   7.051   6.436  0.7520 -0.5336  0.3184
   31MOL0     C 3981   3.148   6.957   6.528  0.9741 -0.0595  0.2423
   31MOL0     C 3982   2.990   6.963   6.507  0.0679  0.1208  0.3283
   31MOL0     C 3983   2.926   7.098   6.490 -1.1744 -0.0343 -0.1386
   31MOL0     O 3984   2.787   7.084   6.472  0.4523  0.8204 -0.3447
   31MOL0     C 3985   2.706   7.195   6.474  0.0579 -0.1550 -1.1146
   31MOL0     C 3986   2.744   7.329   6.495  0.2100 -1.1559 -0.2250
   31MOL0     C 3987   2.652   7.430   6.501 -0.2047 -1.5215 -0.1040
   31MOL0     C 3988   2.514   7.411   6.482  0.9495 -0.2229  0.6329
   31MOL0     C 3989   2.408   7.513   6.497  0.3624 -0.0780 -0.0283
   31MOL0     O 3990   2.288   7.488   6.443  0.5243  0.1141 -0.1365
   31MOL0     C 3991   2.181   7.566   6.471 -0.5013  0.2892  0.6594
   31MOL0     C 3992   2.099   7.622   6.370 -0.4342  1.0671 -0.5682
   31MOL0     C 3993   1.992   7.704   6.418  0.2031 -0.3418  0.4978
   31MOL0     C 3994   1.957   7.731   6.550 -0.4443  0.4426  0.8469
   31MOL0     O 3995   1.853   7.824   6.568 -0.2582  0.0836 -0.1724
   31MOL0     C 3996   1.776   7.805   6.688 -0.1432 -0.7381 -0.1047
   31MOL0     C 3997   1.699   7.935   6.720 -0.1934  0.0975 -0.0498
   31MOL0     C 3998   1.609   7.909   6.831 -0.8362 -0.9702  0.9095
   31MOL0     C 3999   1.511   8.017   6.878  0.1420  0.3615  0.1421
   31MOL0     C 4000   1.438   7.977   6.995  0.9168  0.3524 -0.0684
   31MOL0     C 4001   1.348   8.092   7.055 -1.0112 -0.4504  0.8007
   31MOL0     C 4002   1.253   8.035   7.159  0.3297  0.6119 -0.6183
   31MOL0     C 4003   1.173   8.137   7.244  0.2106 -0.0420  0.5737
   31MOL0    Cl 4004   1.272   8.264   7.307 -0.2334 -0.1165 -0.0561
   31MOL0     C 4005   2.038   7.669   6.642  0.2283  0.3792  0.1588
   31MOL0     C 4006   2.142   7.587   6.603 -0.7229 -0.2913 -0.3426
   31MOL0     O 4007   2.437   7.615   6.566  1.0325 -0.0867  0.1698
   31MOL0     C 4008   2.476   7.272   6.447 -0.5153 -0.4631 -0.4656
   31MOL0     C 4009   2.571   7.169   6.453 -1.1597  0.0326 -0.7940
   31MOL0     N 4010   3.438   6.935   6.520  0.0084 -0.5555  0.5557
   31MOL0     N 4011   3.567   6.944   6.488  0.6082  0.6827  0.4479
   31MOL0     C 4012   4.795   7.175   6.014  0.2193  0.5762 -0.5046
   31MOL0     C 4013   4.920   7.117   6.044 -0.3804 -0.3532  0.2047
   31MOL0     C 4014   5.218   6.777   6.170  0.6315  0.0597  0.5626
   31MOL0     C 4015   5.254   6.652   6.219 -0.5608  0.1801 -0.4557
   31MOL0     C 4016   5.384   6.601   6.204 -0.0278 -0.1925  0.3335
   31MOL0     C 4017   5.478   6.669   6.123  1.0781  0.0206  1.3989
   31MOL0     O 4018   5.609   6.614   6.114 -0.1408 -0.3337 -0.2734
   31MOL0     C 4019   5.720   6.700   6.078  0.4939  0.7496  0.5447
   31MOL0     C 4020   5.852   6.625   6.127 -0.2361 -0.0584 -0.4123
   31MOL0     C 4021   5.971   6.725   6.145  0.2496 -0.7560  1.1421
   31MOL0     C 4022   6.083   6.660   6.228  0.8608 -0.3394 -1.2830
   31MOL0     C 4023   6.212   6.728   6.216 -0.0017 -0.4342  0.7204
   31MOL0     C 4024   6.316   6.791   6.212 -0.3374 -1.4053 -0.1498
   31MOL0     C 4025   5.438   6.786   6.062  0.7406 -0.2060 -0.3703
   31MOL0     C 4026   5.309   6.837   6.084  1.0302  0.7998  0.4465
   31MOL0     H 4027   4.826   6.915   6.293 -2.9880  1.1038  1.0326
   31MOL0     H 4028   4.607   6.986   6.227 -0.5409 -2.8951 -3.1467
   31MOL0     H 4029   4.432   7.157   6.211  0.9737  1.7953 -0.0532
   31MOL0     H 4030   4.424   7.035   6.087 -0.6345  0.8263  0.7550
   31MOL0     H 4031   4.338   7.268   5.940  0.8615 -0.9131 -0.3215
   31MOL0     H 4032   4.323   7.317   6.101 -0.4746  0.2253  0.3881
   31MOL0     H 4033   4.181   7.110   6.174  1.0859 -0.3833  0.4719
   31MOL0     H 4034   4.179   7.058   6.006 -1.1367  1.6997 -0.4541
   31MOL0     H 4035   4.038   7.310   6.085  2.4974 -0.4062  1.0093
   31MOL0     H 4036   4.058   7.233   5.925 -1.6525 -0.9735 -0.3650
   31MOL0     H 4037   3.950   7.019   6.030  0.9863  0.2073  1.5403
   31MOL0     H 4038   3.853   7.162   5.997 -0.2486  1.4241  0.4522
   31MOL0     H 4039   3.901   7.232   6.239 -3.8762  1.0965 -3.0779
   31MOL0     H 4040   3.966   7.067   6.260  0.2772  0.5126  0.5010
   31MOL0     H 4041   3.691   7.119   6.158 -1.4543 -3.1635 -0.9432
   31MOL0     H 4042   3.773   6.963   6.202  0.5381 -0.4191  1.4593
   31MOL0     H 4043   3.725   7.193   6.413 -1.4559 -0.3092  0.8392
   31MOL0     H 4044   3.790   7.031   6.431 -0.9945 -0.8683 -0.8542
   31MOL0     H 4045   3.447   7.176   6.298  0.7257  0.9059  0.8733
   31MOL0     H 4046   3.192   7.032   6.333 -1.6520 -0.8972  1.0931
   31MOL0     H 4047   3.203   7.153   6.469 -0.4822 -1.1175  1.4288
   31MOL0     H 4048   3.165   6.972   6.635  2.7652  0.5211 -0.0907
   31MOL0     H 4049   3.179   6.853   6.511  0.1875 -0.6397  2.1051
   31MOL0     H 4050   2.950   6.902   6.426 -0.0325  0.9050 -0.2240
   31MOL0     H 4051   2.939   6.922   6.595 -2.6591  0.9113 -0.7878
   31MOL0     H 4052   2.973   7.142   6.402 -0.0817  0.6309  0.7391
   31MOL0     H 4053   2.955   7.169   6.568  3.8970  0.8287 -2.4179
   31MOL0     H 4054   2.846   7.364   6.511 -0.5197  0.5032  1.0428
   31MOL0     H 4055   2.692   7.530   6.513 -1.2948 -0.6400 -2.9553
   31MOL0     H 4056   2.130   7.616   6.266  1.3670  1.0512 -0.0612
   31MOL0     H 4057   1.924   7.743   6.343  1.3034 -0.1176 -0.4101
   31MOL0     H 4058   1.846   7.782   6.769 -0.4453 -1.9734 -0.1740
   31MOL0     H 4059   1.705   7.724   6.672 -2.0779  0.8883 -0.2278
   31MOL0     H 4060   1.660   7.980   6.628  2.3856  2.0324 -0.3052
   31MOL0     H 4061   1.760   8.018   6.756 -0.3504  1.4183 -2.5475
   31MOL0     H 4062   1.675   7.879   6.913  0.9826  1.7797  0.5516
   31MOL0     H 4063   1.545   7.827   6.796  0.5741 -2.2404  1.1716
   31MOL0     H 4064   1.569   8.105   6.910  2.6095 -0.1423 -2.5190
   31MOL0     H 4065   1.447   8.049   6.795  0.3044  2.9554  0.9206
   31MOL0     H 4066   1.503   7.944   7.077 -2.2227  0.9776  2.9019
   31MOL0     H 4067   1.382   7.892   6.954 -0.3093  0.7372  0.7470
   31MOL0     H 4068   1.284   8.142   6.982  0.8258  0.8819  0.0290
   31MOL0     H 4069   1.411   8.171   7.097  0.8550 -1.8886  0.8100
   31MOL0     H 4070   1.185   7.959   7.120  0.7448  0.2543 -0.6542
   31MOL0     H 4071   1.310   7.985   7.237 -2.0336 -0.1511  0.7230
   31MOL0     H 4072   1.102   8.090   7.314 -0.0996  3.7396  3.0933
   31MOL0     H 4073   1.108   8.191   7.176  0.8559  0.5739  0.4389
   31MOL0     H 4074   2.021   7.676   6.749 -0.3835 -1.7548  0.2435
   31MOL0     H 4075   2.197   7.543   6.686  0.9877  1.6459 -0.3838
   31MOL0     H 4076   2.374   7.249   6.416 -0.1081  1.9021 -4.2391
   31MOL0     H 4077   2.544   7.065   6.432  2.0082 -0.8398 -0.9838
   31MOL0     H 4078   4.789   7.260   5.947 -1.5355  0.1647 -0.9405
   31MOL0     H 4079   5.004   7.174   6.004 -0.9794 -0.6464 -1.5527
   31MOL0     H 4080   5.176   6.597   6.271  0.5428  0.7356  1.9019
   31MOL0     H 4081   5.406   6.506   6.252  0.7075  0.4202  1.2542
   31MOL0     H 4082   5.711   6.796   6.131  0.7176 -0.9031  3.8226
   31MOL0     H 4083   5.715   6.710   5.969 -0.2781  1.4446  0.6337
   31MOL0     H 4084   5.836   6.579   6.224 -0.1279 -0.7748 -0.7285
   31MOL0     H 4085   5.878   6.549   6.053  0.5020 -2.1547  1.8836
   31MOL0     H 4086   5.937   6.811   6.204  0.3258 -0.0375  0.1682
   31MOL0     H 4087   5.999   6.762   6.045 -2.1301 -1.8812 -0.0229
   31MOL0     H 4088   6.066   6.659   6.336 -2.5877 -0.3831 -1.7149
   31MOL0     H 4089   6.094   6.554   6.203 -1.2459 -1.3747  1.6603
   31MOL0     H 4090   6.396   6.863   6.210 -1.0546 -0.4682  1.7018
   31MOL0     H 4091   5.506   6.835   5.993  1.3029  0.1854  0.4551
   31MOL0     H 4092   5.274   6.924   6.030  1.2801  0.2756 -0.5729
   32MOL0     O 4093   2.844   8.326   9.017  0.0290 -0.5653  0.3497
   32MOL0     C 4094   2.828   8.210   8.973  0.8828  0.3707 -0.2553
   32MOL0     O 4095   2.704   8.140   8.962  0.2610  0.1947  0.5659
   32MOL0     C 4096   2.590   8.210   8.973  0.0344  0.8239  0.8417
   32MOL0     C 4097   2.565   8.273   9.097  0.2031 -0.2577  0.8048
   32MOL0     C 4098   2.439   8.341   9.101 -0.1493 -1.3544  0.9414
   32MOL0     C 4099   2.339   8.325   9.003 -0.8311  0.1433 -0.8561
   32MOL0     O 4100   2.208   8.380   9.011 -0.1912 -0.0560 -0.6614
   32MOL0     C 4101   2.178   8.463   9.119  0.2713 -0.5186 -0.5391
   32MOL0     C 4102   2.034   8.523   9.110 -0.6779  0.8279  0.1785
   32MOL0     C 4103   1.918   8.424   9.129 -0.1460 -0.6700  0.1318
   32MOL0     C 4104   1.779   8.495   9.135  0.6117 -0.0319  0.0336
   32MOL0     C 4105   1.655   8.404   9.127  0.0639 -0.0591  0.4548
   32MOL0     C 4106   1.542   8.473   9.196  0.1608  0.3081  0.6255
   32MOL0     C 4107   1.412   8.423   9.135 -0.2409 -0.6261 -0.3031
   32MOL0     C 4108   1.287   8.463   9.204  0.1042  0.4500 -0.8603
   32MOL0     N 4109   1.277   8.383   9.328 -0.1031  0.2123  0.4204
   32MOL0     C 4110   1.220   8.255   9.320 -0.2117  0.0712 -0.2048
   32MOL0     C 4111   1.204   8.228   9.458 -0.1972 -0.4402  0.2086
   32MOL0     C 4112   1.131   8.111   9.516  0.1029  0.0490 -0.4681
   32MOL0     C 4113   0.981   8.150   9.550 -0.4067  0.8486  0.4621
   32MOL0     C 4114   0.962   8.262   9.658  0.0499  0.0689 -0.8545
   32MOL0     C 4115   0.812   8.274   9.702 -1.2213  0.4042  0.0409
   32MOL0     O 4116   0.723   8.283   9.585  0.5692 -0.0468  0.0944
   32MOL0     C 4117   0.585   8.297   9.614  0.0398  0.1163  0.6039
   32MOL0     C 4118   0.505   8.298   9.502  0.5306  0.2694  0.0014
   32MOL0     C 4119   0.363   8.314   9.510  0.1724 -0.0632  0.0929
   32MOL0     C 4120   0.300   8.330   9.633 -1.1151 -0.9290 -0.8019
   32MOL0     C 4121   0.153   8.339   9.656 -0.1374 -0.8359  0.6910
   32MOL0     O 4122   0.069   8.297   9.552  0.5130 -0.2044 -0.0980
   32MOL0     C 4123  -0.058   8.345   9.547 -0.4435  1.4320  0.1871
   32MOL0     C 4124  -0.102   8.459   9.606  0.5971 -0.5365  0.2876
   32MOL0     C 4125  -0.241   8.502   9.601  0.0514  0.0089  0.1949
   32MOL0     C 4126  -0.332   8.430   9.524  0.1138 -0.2402 -0.6500
   32MOL0     O 4127  -0.453   8.481   9.511  0.4983 -0.4401  0.6316
   32MOL0     C 4128  -0.490   8.511   9.372 -0.6656 -0.9941  0.8656
   32MOL0     C 4129  -0.580   8.620   9.359 -0.4816  0.1519  0.2715
   32MOL0     C 4130  -0.679   8.623   9.477  0.2361 -0.5680 -0.6701
   32MOL0     C 4131  -0.768   8.746   9.455 -0.5835 -0.0379 -0.1006
   32MOL0     C 4132  -0.864   8.756   9.572 -0.1671  0.4213 -0.0179
   32MOL0     C 4133  -0.798   8.794   9.703  0.3270 -0.3491 -0.7190
   32MOL0     C 4134  -0.900   8.807   9.815  0.1263  0.0579  0.2615
   32MOL0     C 4135  -1.007   8.921   9.805  0.0281 -0.3461  0.2908
   32MOL0    Cl 4136  -1.114   8.911   9.948  0.4442 -0.0195  0.1666
   32MOL0     C 4137  -0.288   8.311   9.459  0.4887  0.0483 -0.5113
   32MOL0     C 4138  -0.158   8.266   9.480 -0.7896 -0.2680 -0.4268
   32MOL0     O 4139   0.115   8.383   9.763 -0.4894 -0.2998 -0.6360
   32MOL0     C 4140   0.391   8.324   9.746  0.3464  0.2471 -0.3898
   32MOL0     C 4141   0.527   8.310   9.735 -0.6131  0.2742 -0.7521
   32MOL0     N 4142   1.275   8.322   9.534  0.5977  0.2200  0.5793
   32MOL0     N 4143   1.315   8.411   9.454  0.6362 -0.0742 -0.0450
   32MOL0     C 4144   2.369   8.268   8.877  0.2522  1.6375 -0.1101
   32MOL0     C 4145   2.496   8.206   8.872 -0.0617 -0.9238  1.2650
   32MOL0     C 4146   2.946   8.142   8.925  0.2355 -0.0500 -0.6886
   32MOL0     C 4147   3.071   8.164   8.982 -0.1237 -0.2576 -0.1079
   32MOL0     C 4148   3.182   8.102   8.923  0.7164 -0.1099  0.2939
   32MOL0     C 4149   3.174   8.015   8.812 -0.0816 -0.4307 -0.2407
   32MOL0     O 4150   3.285   7.962   8.748 -0.1512 -0.6058  0.2193
   32MOL0     C 4151   3.418   8.008   8.788  1.3735  0.4379 -0.3922
   32MOL0     C 4152   3.519   7.916   8.736  0.6689 -0.4963 -0.6522
   32MOL0     C 4153   3.551   7.945   8.589  0.1305 -0.1685 -0.6778
   32MOL0     C 4154   3.633   7.827   8.536 -0.0507 -0.8937 -0.8535
   32MOL0     C 4155   3.669   7.855   8.391 -0.5233 -0.1413 -0.6899
   32MOL0     C 4156   3.720   7.881   8.287 -0.0613 -0.3685  0.6895
   32MOL0     C 4157   3.048   7.989   8.766  0.3390  1.2171 -0.1517
   32MOL0     C 4158   2.936   8.051   8.811  0.0704  0.4628 -1.0998
   32MOL0     H 4159   2.639   8.267   9.176  0.2556  0.0393  0.7797
   32MOL0     H 4160   2.424   8.402   9.189 -1.1176  1.9128 -1.3087
   32MOL0     H 4161   2.253   8.542   9.121  0.7669 -0.9524 -1.3770
   32MOL0     H 4162   2.183   8.410   9.215 -1.7998  0.3201  0.0857
   32MOL0     H 4163   2.021   8.571   9.012 -0.3500 -2.8591 -1.8410
   32MOL0     H 4164   2.032   8.603   9.185 -3.1451  2.4315 -1.4481
   32MOL0     H 4165   1.935   8.369   9.223  0.0390  0.6567  0.8997
   32MOL0     H 4166   1.913   8.352   9.047 -3.3873 -0.1094 -0.2824
   32MOL0     H 4167   1.774   8.546   9.232  0.9926 -0.2586  0.1717
   32MOL0     H 4168   1.776   8.557   9.044  3.8786 -1.3516 -1.0944
   32MOL0     H 4169   1.675   8.306   9.173 -1.3116 -1.0364 -0.9424
   32MOL0     H 4170   1.626   8.374   9.026 -2.6583 -0.5644  1.2912
   32MOL0     H 4171   1.543   8.581   9.179 -0.2428 -0.0695 -2.3404
   32MOL0     H 4172   1.550   8.462   9.305 -1.2309 -0.5541  0.6690
   32MOL0     H 4173   1.407   8.467   9.034  1.0169  2.2810  0.7858
   32MOL0     H 4174   1.417   8.314   9.137  1.9590 -0.5537  0.3510
   32MOL0     H 4175   1.202   8.442   9.138 -0.7123 -2.1937  0.8914
   32MOL0     H 4176   1.290   8.571   9.225 -0.0402  0.3569 -0.3389
   32MOL0     H 4177   1.185   8.203   9.231 -0.2183  0.7669 -0.6226
   32MOL0     H 4178   1.175   8.068   9.606 -0.1412 -0.7190 -0.7070
   32MOL0     H 4179   1.125   8.027   9.446 -0.3892 -2.5236  2.4526
   32MOL0     H 4180   0.929   8.059   9.581  2.2209 -1.6112 -1.7181
   32MOL0     H 4181   0.939   8.193   9.458 -0.6252  0.2193  0.2627
   32MOL0     H 4182   1.029   8.261   9.745 -1.3138  2.8232  0.3510
   32MOL0     H 4183   0.993   8.355   9.611  4.3910 -0.9495 -0.4083
   32MOL0     H 4184   0.800   8.367   9.758 -0.3146  0.5115  0.0655
   32MOL0     H 4185   0.787   8.187   9.762  3.6955 -0.9484  0.5744
   32MOL0     H 4186   0.555   8.278   9.408  2.0398 -0.2165  0.8632
   32MOL0     H 4187   0.308   8.313   9.416  1.1750 -1.0243 -0.5036
   32MOL0     H 4188  -0.047   8.522   9.675  0.4244 -1.9627  1.7976
   32MOL0     H 4189  -0.277   8.593   9.647 -2.6857 -0.3163 -1.0860
   32MOL0     H 4190  -0.544   8.434   9.318 -1.6198  1.4667 -1.9520
   32MOL0     H 4191  -0.400   8.532   9.314 -1.4988 -0.4156 -0.2371
   32MOL0     H 4192  -0.639   8.604   9.268 -0.5733 -2.1025  0.6767
   32MOL0     H 4193  -0.520   8.711   9.358  0.7404 -0.6339 -1.3437
   32MOL0     H 4194  -0.627   8.629   9.573  2.2461  3.7741 -1.7475
   32MOL0     H 4195  -0.742   8.534   9.484  0.6205 -0.7774  0.2868
   32MOL0     H 4196  -0.699   8.830   9.452 -1.8661  1.0878  0.7831
   32MOL0     H 4197  -0.823   8.745   9.360 -0.6201  0.3197 -0.0828
   32MOL0     H 4198  -0.923   8.664   9.573 -1.3848  1.1406  2.0084
   32MOL0     H 4199  -0.935   8.833   9.539  0.3335 -0.0634 -2.3854
   32MOL0     H 4200  -0.740   8.886   9.698  0.2092  0.0951  3.2232
   32MOL0     H 4201  -0.720   8.720   9.728  1.1413 -0.3944 -3.1338
   32MOL0     H 4202  -0.954   8.712   9.814 -2.6571  1.5124 -1.4018
   32MOL0     H 4203  -0.857   8.826   9.913 -0.0373 -0.1259  0.3695
   32MOL0     H 4204  -1.066   8.913   9.713  1.8754  0.6032 -1.0415
   32MOL0     H 4205  -0.964   9.020   9.788 -0.2333 -0.1658  0.6849
   32MOL0     H 4206  -0.362   8.258   9.400  0.2641 -1.8060  1.3151
   32MOL0     H 4207  -0.126   8.175   9.431  0.5023  0.3644 -0.8121
   32MOL0     H 4208   0.359   8.345   9.847 -0.6140  2.9540 -1.1886
   32MOL0     H 4209   0.593   8.318   9.821 -1.9592  2.0941  0.1964
   32MOL0     H 4210   2.296   8.257   8.798 -1.6097  2.0128  1.4865
   32MOL0     H 4211   2.527   8.149   8.785 -2.5988  1.8329 -1.7422
   32MOL0     H 4212   3.089   8.214   9.076  1.0830 -1.5681  0.4054
   32MOL0     H 4213   3.273   8.140   8.967  1.4520  0.4442 -1.6210
   32MOL0     H 4214   3.424   8.009   8.897 -1.5377 -2.0665 -0.0667
   32MOL0     H 4215   3.417   8.113   8.757 -0.7061  1.0388  1.4151
   32MOL0     H 4216   3.609   7.918   8.798 -0.0408 -4.9032  0.9116
   32MOL0     H 4217   3.479   7.815   8.751  0.7566 -0.3295  0.8778
   32MOL0     H 4218   3.603   8.041   8.579  2.6799 -1.3190  0.6620
   32MOL0     H 4219   3.456   7.941   8.534 -0.6696 -1.6407  0.7468
   32MOL0     H 4220   3.726   7.835   8.593  0.5059  2.0733 -1.9736
   32MOL0     H 4221   3.598   7.724   8.548 -1.3401 -0.2604  1.1881
   32MOL0     H 4222   3.761   7.880   8.188 -1.7764 -0.5876 -0.0504
   32MOL0     H 4223   3.041   7.914   8.688 -1.4848 -1.6411  2.5195
   32MOL0     H 4224   2.843   8.020   8.764  0.0572 -2.7408  0.7528
   33MOL0     O 4225   8.451   2.008   3.889  0.1054  0.2393  0.4881
   33MOL0     C 4226   8.407   2.019   3.773 -1.3359 -0.4409  0.7043
   33MOL0     O 4227   8.279   1.996   3.733  0.0921  0.1978 -0.3139
   33MOL0     C 4228   8.187   2.003   3.823  0.7697  0.6334 -0.1413
   33MOL0     C 4229   8.085   1.901   3.818  0.0190 -0.7206  0.4472
   33MOL0     C 4230   7.988   1.889   3.921  0.3083  0.4648  0.2602
   33MOL0     C 4231   7.993   1.975   4.023 -0.5727 -0.1012  1.1799
   33MOL0     O 4232   7.905   1.958   4.132 -0.1449 -0.3850  0.4218
   33MOL0     C 4233   7.772   1.924   4.118  0.7519  0.4092  0.0821
   33MOL0     C 4234   7.698   1.926   4.254  0.3175  0.1160  1.0358
   33MOL0     C 4235   7.543   1.905   4.232 -0.2841  0.4164  0.1472
   33MOL0     C 4236   7.461   1.894   4.358 -0.1876 -0.3506  0.6238
   33MOL0     C 4237   7.395   2.018   4.397 -0.4115 -0.9217  0.1433
   33MOL0     C 4238   7.326   2.001   4.534 -0.5629 -0.5380 -0.3718
   33MOL0     C 4239   7.263   2.123   4.584  0.2262  0.1653 -0.0502
   33MOL0     C 4240   7.163   2.198   4.493  0.8774 -0.4967 -0.6267
   33MOL0     N 4241   7.055   2.110   4.450  0.1850 -0.2280  0.1271
   33MOL0     C 4242   6.953   2.071   4.535  0.1664 -0.3808  0.0886
   33MOL0     C 4243   6.890   1.982   4.454 -0.2153  0.4268 -0.1574
   33MOL0     C 4244   6.796   1.884   4.509  0.3538  0.2607  0.5954
   33MOL0     C 4245   6.673   1.938   4.576 -0.2676  0.0551 -0.0583
   33MOL0     C 4246   6.587   1.815   4.621  0.0503  0.2331 -0.1769
   33MOL0     C 4247   6.460   1.868   4.688 -0.1671 -0.1066  0.0873
   33MOL0     O 4248   6.399   1.758   4.754  0.3917  0.1441 -0.8536
   33MOL0     C 4249   6.270   1.765   4.796  1.3544 -0.4820  0.3016
   33MOL0     C 4250   6.206   1.639   4.805  0.1220 -0.1096 -0.1149
   33MOL0     C 4251   6.072   1.632   4.828 -0.0199  0.5480  0.5378
   33MOL0     C 4252   5.998   1.742   4.869 -0.4316  0.1464  0.4578
   33MOL0     C 4253   5.849   1.733   4.892  0.3371 -0.5380 -0.3801
   33MOL0     O 4254   5.783   1.822   4.967 -0.2755 -0.3461  0.0036
   33MOL0     C 4255   5.645   1.842   4.959  0.1033  0.3117 -0.0644
   33MOL0     C 4256   5.574   1.881   5.074 -0.5692 -0.0061  0.3575
   33MOL0     C 4257   5.434   1.891   5.070  0.4479  0.7156  1.0556
   33MOL0     C 4258   5.361   1.873   4.952 -0.7760 -0.5527 -0.3711
   33MOL0     O 4259   5.226   1.885   4.968  0.2959 -0.3297 -0.1520
   33MOL0     C 4260   5.145   1.918   4.860  0.1877 -0.6461 -0.0318
   33MOL0     C 4261   5.013   1.975   4.908 -0.0639 -0.3990 -0.6826
   33MOL0     C 4262   4.919   2.005   4.787  0.2668 -0.1832  0.1795
   33MOL0     C 4263   4.782   2.047   4.818 -0.0172  0.3580  0.2690
   33MOL0     C 4264   4.684   2.065   4.707  1.0410  0.7831 -0.1544
   33MOL0     C 4265   4.704   2.198   4.626 -1.0066  0.3703 -0.2325
   33MOL0     C 4266   4.602   2.219   4.517 -0.2372  1.0640 -0.3485
   33MOL0     C 4267   4.650   2.316   4.407  0.1563  0.0855  0.1189
   33MOL0    Cl 4268   4.532   2.313   4.274  0.0041 -0.4042  0.1212
   33MOL0     C 4269   5.430   1.829   4.840  0.3450  0.6305 -0.4081
   33MOL0     C 4270   5.570   1.812   4.845 -0.5232  0.2449 -0.4967
   33MOL0     O 4271   5.791   1.632   4.853  0.0208 -0.1983 -0.8232
   33MOL0     C 4272   6.061   1.862   4.877 -0.1633  0.8046 -0.4361
   33MOL0     C 4273   6.198   1.884   4.836 -0.1536 -0.2649 -0.7544
   33MOL0     N 4274   6.955   1.972   4.330 -0.3702  0.0243 -0.6721
   33MOL0     N 4275   7.052   2.053   4.328 -0.4070 -0.3170  0.2249
   33MOL0     C 4276   8.075   2.093   4.018  0.3371  0.3969 -0.1598
   33MOL0     C 4277   8.176   2.103   3.924 -0.9700 -1.0414  0.8010
   33MOL0     C 4278   8.510   2.033   3.664  0.2553 -0.3018 -0.2639
   33MOL0     C 4279   8.467   2.056   3.527 -0.3745 -0.1851  0.1821
   33MOL0     C 4280   8.553   2.080   3.423 -0.6328  0.8410 -0.3159
   33MOL0     C 4281   8.696   2.089   3.450 -0.7624 -0.8321 -0.5981
   33MOL0     O 4282   8.796   2.122   3.362 -0.3394 -0.3793  0.9720
   33MOL0     C 4283   8.749   2.162   3.228 -0.8435  0.3117  0.0606
   33MOL0     C 4284   8.847   2.253   3.160 -0.0826  0.1382 -0.2815
   33MOL0     C 4285   8.988   2.194   3.143 -0.1047  0.6432  0.3934
   33MOL0     C 4286   9.082   2.208   3.256 -0.1197  0.2644  0.2434
   33MOL0     C 4287   9.218   2.196   3.211  0.5954  0.6700 -0.2681
   33MOL0     C 4288   9.336   2.196   3.215  0.2143 -0.1480 -0.7319
   33MOL0     C 4289   8.745   2.060   3.581  0.0076 -0.3700 -0.1833
   33MOL0     C 4290   8.655   2.043   3.686 -0.3716 -0.0325 -0.1031
   33MOL0     H 4291   8.086   1.821   3.744 -4.6216 -1.5412  0.9616
   33MOL0     H 4292   7.919   1.806   3.918 -1.4741  1.9003 -1.0058
   33MOL0     H 4293   7.762   1.820   4.087  2.6012 -0.4717  2.1654
   33MOL0     H 4294   7.716   1.989   4.050 -0.7761  2.3045  2.9519
   33MOL0     H 4295   7.712   2.027   4.294 -1.5506 -0.1553  2.4979
   33MOL0     H 4296   7.743   1.851   4.319  3.1142 -0.6692 -1.5494
   33MOL0     H 4297   7.521   1.808   4.188 -0.8115 -0.0919  1.4935
   33MOL0     H 4298   7.500   1.985   4.171 -1.6069  1.3446  2.1608
   33MOL0     H 4299   7.377   1.827   4.334  0.6339 -0.9943 -0.5607
   33MOL0     H 4300   7.514   1.844   4.439 -0.4018 -1.5226  0.0655
   33MOL0     H 4301   7.324   2.044   4.319  0.6572 -1.1358 -0.9181
   33MOL0     H 4302   7.472   2.095   4.396 -1.6268  0.3190 -0.7138
   33MOL0     H 4303   7.389   1.960   4.614 -2.1652 -1.3562  0.5221
   33MOL0     H 4304   7.244   1.928   4.528 -2.2566  1.2316  0.2002
   33MOL0     H 4305   7.212   2.096   4.676 -2.9091  2.3829 -0.9459
   33MOL0     H 4306   7.344   2.188   4.617  0.1636  0.3135 -0.1879
   33MOL0     H 4307   7.220   2.237   4.409  1.1682 -0.7492 -0.5472
   33MOL0     H 4308   7.124   2.280   4.554 -0.1827 -1.0258 -0.5635
   33MOL0     H 4309   6.929   2.105   4.636 -0.0960 -0.5989  0.0999
   33MOL0     H 4310   6.857   1.826   4.578  0.7016  0.7356  0.6947
   33MOL0     H 4311   6.760   1.816   4.431  0.0648  1.3469 -0.2591
   33MOL0     H 4312   6.629   2.015   4.511  2.1765 -0.0357 -1.9687
   33MOL0     H 4313   6.700   2.001   4.661  1.5080  1.2823 -1.4362
   33MOL0     H 4314   6.574   1.762   4.526  0.4747 -0.7626  0.3040
   33MOL0     H 4315   6.648   1.756   4.690 -0.7136 -0.7791 -0.3382
   33MOL0     H 4316   6.395   1.910   4.610  0.7811  0.8919 -0.1935
   33MOL0     H 4317   6.480   1.944   4.764  2.2053 -1.0789  0.5177
   33MOL0     H 4318   6.249   1.546   4.770  0.3165 -0.4870  1.0559
   33MOL0     H 4319   6.023   1.536   4.820  0.2461  0.5685 -1.8869
   33MOL0     H 4320   5.624   1.897   5.169 -1.7855  1.3305  0.8058
   33MOL0     H 4321   5.381   1.922   5.159 -0.6908  2.7061 -0.2143
   33MOL0     H 4322   5.118   1.832   4.799  1.7263 -1.4100  0.3235
   33MOL0     H 4323   5.200   1.992   4.802 -0.7395  0.1060  0.0148
   33MOL0     H 4324   5.042   2.066   4.960 -0.5284 -0.5377 -0.1685
   33MOL0     H 4325   4.971   1.910   4.985 -0.3946 -0.5592 -0.9926
   33MOL0     H 4326   4.919   1.919   4.719  0.3450 -0.0365 -0.0055
   33MOL0     H 4327   4.968   2.082   4.727  0.4345 -0.3355  0.1196
   33MOL0     H 4328   4.746   1.971   4.889  2.2942  0.4859  1.6674
   33MOL0     H 4329   4.771   2.140   4.874 -2.3024  0.4856 -0.2568
   33MOL0     H 4330   4.583   2.084   4.745  0.7183 -0.3953 -0.3877
   33MOL0     H 4331   4.686   1.981   4.638 -1.2072  1.7067 -1.4503
   33MOL0     H 4332   4.795   2.193   4.565 -0.6418  1.6697  0.1705
   33MOL0     H 4333   4.713   2.281   4.698 -2.3865 -1.5724  2.3418
   33MOL0     H 4334   4.597   2.121   4.470  1.6978  0.6571  0.2340
   33MOL0     H 4335   4.503   2.244   4.557 -1.1114 -1.3340 -0.8779
   33MOL0     H 4336   4.746   2.284   4.364 -0.7857 -4.0994  0.7405
   33MOL0     H 4337   4.646   2.419   4.444 -2.6026  0.3180 -0.6064
   33MOL0     H 4338   5.372   1.806   4.751 -1.4326  3.1040 -0.0093
   33MOL0     H 4339   5.625   1.764   4.764  0.1097 -2.2289  1.2516
   33MOL0     H 4340   6.004   1.949   4.908 -2.1538 -0.1990 -1.1155
   33MOL0     H 4341   6.254   1.977   4.836  1.2220 -1.0506  0.3012
   33MOL0     H 4342   8.067   2.172   4.092 -3.4037  0.7366 -0.7448
   33MOL0     H 4343   8.245   2.185   3.941 -1.7244 -0.5639  1.6725
   33MOL0     H 4344   8.361   2.058   3.504 -0.0408  3.2865 -1.5794
   33MOL0     H 4345   8.517   2.103   3.323  1.6748  3.6511 -0.6384
   33MOL0     H 4346   8.654   2.215   3.235 -0.9385  0.0283  1.0100
   33MOL0     H 4347   8.747   2.072   3.166  3.1557  0.0117  0.1044
   33MOL0     H 4348   8.801   2.267   3.061  1.3350  0.5619 -0.9152
   33MOL0     H 4349   8.864   2.344   3.217  0.2675 -2.4613  4.1954
   33MOL0     H 4350   9.032   2.247   3.058 -1.9575  1.5287 -0.0767
   33MOL0     H 4351   8.986   2.089   3.111 -1.4130  1.1300 -1.2948
   33MOL0     H 4352   9.071   2.309   3.296  1.0187  0.8079 -0.7619
   33MOL0     H 4353   9.076   2.131   3.334 -0.1790 -0.3259 -0.3431
   33MOL0     H 4354   9.442   2.198   3.231  0.1779  5.4779  1.0024
   33MOL0     H 4355   8.849   2.077   3.607 -0.6677  1.5384  1.5844
   33MOL0     H 4356   8.702   2.026   3.782 -0.3096 -2.0542 -0.4466
   34MOL0     O 4357   0.477   2.642  11.167 -0.4062 -0.6605  0.4591
   34MOL0     C 4358   0.510   2.674  11.051  0.3109  0.1313  0.0347
   34MOL0     O 4359   0.431   2.743  10.959 -0.0395 -0.0364 -0.2063
   34MOL0     C 4360   0.293   2.752  10.977  0.3838 -0.6088  0.2115
   34MOL0     C 4361   0.238   2.878  10.974 -0.3168 -0.0246 -0.3518
   34MOL0     C 4362   0.099   2.884  10.991 -0.2840  0.4673 -0.3454
   34MOL0     C 4363   0.020   2.773  11.026 -0.6969  0.6130 -0.3350
   34MOL0     O 4364  -0.109   2.801  11.057 -0.1758  0.5597  0.3952
   34MOL0     C 4365  -0.185   2.701  11.123 -0.1557  0.0527 -0.7399
   34MOL0     C 4366  -0.319   2.761  11.161 -0.1452 -0.3691 -0.1681
   34MOL0     C 4367  -0.394   2.673  11.259 -0.4436 -0.3279  0.3903
   34MOL0     C 4368  -0.530   2.743  11.284  0.4849  0.2915  0.1715
   34MOL0     C 4369  -0.640   2.697  11.189 -0.0100  0.8331  0.1373
   34MOL0     C 4370  -0.773   2.761  11.225 -0.1833 -0.4214  0.0167
   34MOL0     C 4371  -0.878   2.714  11.123 -0.1993 -0.6792  0.6639
   34MOL0     C 4372  -1.009   2.801  11.147  0.6754  0.2187  0.2724
   34MOL0     N 4373  -1.123   2.725  11.077 -0.1918  0.4130 -0.9693
   34MOL0     C 4374  -1.235   2.786  11.025 -0.3269  0.7437  0.7002
   34MOL0     C 4375  -1.318   2.689  10.984  0.4089  0.6720 -1.0677
   34MOL0     C 4376  -1.458   2.698  10.933  0.3588 -0.0603  0.6714
   34MOL0     C 4377  -1.563   2.624  11.015 -0.5853 -0.3239  0.2487
   34MOL0     C 4378  -1.701   2.649  10.971  1.4847  0.0277  0.5513
   34MOL0     C 4379  -1.803   2.598  11.072 -0.3730 -0.2779 -0.2700
   34MOL0     O 4380  -1.801   2.700  11.174  0.1880  0.2125 -0.0772
   34MOL0     C 4381  -1.860   2.680  11.294 -0.0520  0.5158  0.2025
   34MOL0     C 4382  -1.862   2.776  11.393  0.9864 -0.1553 -0.9545
   34MOL0     C 4383  -1.917   2.752  11.521 -0.2920 -0.7363 -0.2323
   34MOL0     C 4384  -1.971   2.622  11.551 -0.4258 -0.3248 -0.3672
   34MOL0     C 4385  -2.024   2.585  11.682 -0.6471 -0.5818 -0.2883
   34MOL0     O 4386  -2.029   2.455  11.715 -0.1634 -0.1917  0.6571
   34MOL0     C 4387  -2.097   2.402  11.827 -0.1327  0.4702  0.4642
   34MOL0     C 4388  -2.190   2.460  11.910  1.1259  0.5657  0.3310
   34MOL0     C 4389  -2.230   2.407  12.035  0.6087 -0.5209  0.0304
   34MOL0     C 4390  -2.187   2.284  12.064 -0.2467  0.4582 -0.4497
   34MOL0     O 4391  -2.224   2.218  12.181 -0.3021 -0.2033  0.3906
   34MOL0     C 4392  -2.358   2.185  12.209  0.2119 -0.2209 -0.2222
   34MOL0     C 4393  -2.399   2.069  12.127  0.1055  0.1291 -0.2131
   34MOL0     C 4394  -2.552   2.037  12.130  1.0455 -0.0881 -0.1936
   34MOL0     C 4395  -2.605   1.999  12.271 -0.3181 -0.1430 -0.1031
   34MOL0     C 4396  -2.715   1.887  12.278 -0.0895  0.0090 -0.1040
   34MOL0     C 4397  -2.650   1.748  12.253  0.7570  0.1218  0.2466
   34MOL0     C 4398  -2.738   1.625  12.264  0.0673 -0.0749  0.0565
   34MOL0     C 4399  -2.804   1.605  12.404  0.8392  0.1443  0.2871
   34MOL0    Cl 4400  -2.676   1.603  12.540 -0.2705 -0.1488  0.1449
   34MOL0     C 4401  -2.108   2.212  11.978  0.1464 -0.6925  0.7524
   34MOL0     C 4402  -2.063   2.273  11.859 -0.0987  0.0914  0.0078
   34MOL0     O 4403  -2.090   2.669  11.737  0.0799 -0.1304  0.2924
   34MOL0     C 4404  -1.959   2.518  11.450 -0.5301  0.6974  0.3659
   34MOL0     C 4405  -1.912   2.554  11.322  0.4948  0.1604  0.1062
   34MOL0     N 4406  -1.261   2.563  11.023  0.4245  0.7028 -0.1090
   34MOL0     N 4407  -1.148   2.586  11.080 -0.2994 -0.2651 -0.3451
   34MOL0     C 4408   0.081   2.648  11.019  0.5293 -0.0676 -0.3277
   34MOL0     C 4409   0.216   2.641  11.004 -1.0356 -0.5347 -0.2880
   34MOL0     C 4410   0.640   2.621  11.006  0.0192  0.9299 -0.2610
   34MOL0     C 4411   0.739   2.587  11.096 -0.6974 -0.5105  0.1550
   34MOL0     C 4412   0.854   2.515  11.060 -0.8609 -0.7627  0.0798
   34MOL0     C 4413   0.871   2.489  10.921 -0.1948 -0.2457 -0.8600
   34MOL0     O 4414   0.989   2.432  10.880 -0.6762 -0.1427 -0.1047
   34MOL0     C 4415   1.022   2.414  10.741  0.4155 -0.2930 -0.2841
   34MOL0     C 4416   0.969   2.275  10.685 -0.6338  0.6727 -0.0744
   34MOL0     C 4417   1.073   2.219  10.570  0.1335  0.6993  0.8398
   34MOL0     C 4418   1.012   2.091  10.497  0.5450  0.1531  0.2390
   34MOL0     C 4419   1.013   1.970  10.581  0.0693  0.6187 -0.9378
   34MOL0     C 4420   1.037   1.860  10.633 -0.2908 -1.0510  0.2561
   34MOL0     C 4421   0.772   2.526  10.831 -0.7721 -0.5517  0.5939
   34MOL0     C 4422   0.656   2.591  10.867 -0.1618  0.2959 -0.4284
   34MOL0     H 4423   0.301   2.967  10.969  1.8500 -1.2666  2.3347
   34MOL0     H 4424   0.049   2.977  11.012 -1.6710 -0.8622  3.0104
   34MOL0     H 4425  -0.138   2.666  11.215  0.9770  0.4697 -1.1498
   34MOL0     H 4426  -0.213   2.612  11.066  0.4408  0.3471 -1.5046
   34MOL0     H 4427  -0.388   2.786  11.080 -0.3584  1.9536  0.6349
   34MOL0     H 4428  -0.297   2.855  11.212 -2.9743  1.2942 -1.7464
   34MOL0     H 4429  -0.328   2.658  11.345  0.9866 -1.2454 -0.8045
   34MOL0     H 4430  -0.406   2.573  11.217  0.6273  0.1133 -1.0621
   34MOL0     H 4431  -0.551   2.715  11.388  1.7604 -2.4832 -0.2345
   34MOL0     H 4432  -0.525   2.852  11.277 -3.2526  0.6924  1.3256
   34MOL0     H 4433  -0.654   2.590  11.203  0.5773  0.5236 -1.5031
   34MOL0     H 4434  -0.621   2.719  11.084 -2.9445  1.5376 -0.3557
   34MOL0     H 4435  -0.765   2.870  11.211  1.5559 -0.6473 -1.0846
   34MOL0     H 4436  -0.795   2.733  11.328  1.4510  0.3471  0.6004
   34MOL0     H 4437  -0.841   2.721  11.020  1.8230 -4.6575  0.9062
   34MOL0     H 4438  -0.898   2.607  11.130 -2.0461 -0.3209  1.4050
   34MOL0     H 4439  -1.007   2.905  11.112  2.2617 -0.2343 -1.1190
   34MOL0     H 4440  -1.030   2.798  11.254 -2.2221 -0.7089 -0.2528
   34MOL0     H 4441  -1.258   2.891  11.011 -0.2935  0.6898  0.1913
   34MOL0     H 4442  -1.460   2.640  10.840 -0.3411 -1.7460  1.7019
   34MOL0     H 4443  -1.482   2.805  10.935  0.3742 -0.0473  0.2386
   34MOL0     H 4444  -1.562   2.648  11.122 -3.4699  1.8727 -0.0757
   34MOL0     H 4445  -1.536   2.520  10.997  2.3648  0.6382 -1.5103
   34MOL0     H 4446  -1.713   2.756  10.952  0.7764 -0.2348 -0.6221
   34MOL0     H 4447  -1.727   2.615  10.870  0.9107  3.3507 -0.5515
   34MOL0     H 4448  -1.769   2.500  11.105 -3.4198 -1.1051  0.7594
   34MOL0     H 4449  -1.904   2.589  11.031 -0.3091  1.3015 -0.8708
   34MOL0     H 4450  -1.823   2.872  11.361 -1.0242  0.2136 -2.5502
   34MOL0     H 4451  -1.923   2.826  11.600 -4.3421 -1.6175  0.4886
   34MOL0     H 4452  -2.224   2.560  11.885  1.4087  0.4052 -0.7822
   34MOL0     H 4453  -2.296   2.462  12.101 -0.2093 -0.1679 -1.0381
   34MOL0     H 4454  -2.422   2.265  12.172 -1.1708 -2.0548 -1.9776
   34MOL0     H 4455  -2.380   2.175  12.316 -0.7415  0.8730 -0.3021
   34MOL0     H 4456  -2.342   1.983  12.164 -0.7987  0.4725  2.1435
   34MOL0     H 4457  -2.376   2.086  12.022  1.7358  1.4865  0.3197
   34MOL0     H 4458  -2.585   1.971  12.049  0.4822 -1.2493  0.9599
   34MOL0     H 4459  -2.598   2.130  12.096  1.0344  0.8943  2.3385
   34MOL0     H 4460  -2.517   1.980  12.333  1.2323 -0.0895 -2.1706
   34MOL0     H 4461  -2.654   2.091  12.303  1.2236  0.6525  0.1014
   34MOL0     H 4462  -2.794   1.913  12.207 -0.0160  0.0654 -0.1660
   34MOL0     H 4463  -2.770   1.888  12.373  0.5370 -1.8587  0.3079
   34MOL0     H 4464  -2.572   1.727  12.327 -0.2887 -1.2223  1.0313
   34MOL0     H 4465  -2.611   1.742  12.151 -0.0471 -1.1723 -0.0044
   34MOL0     H 4466  -2.811   1.636  12.184  0.1048 -1.2376 -0.1536
   34MOL0     H 4467  -2.688   1.533  12.230 -0.7235 -0.2228 -0.7361
   34MOL0     H 4468  -2.865   1.514  12.407  1.5580 -0.5386 -2.4259
   34MOL0     H 4469  -2.868   1.692  12.419 -0.1059 -0.3117 -0.8737
   34MOL0     H 4470  -2.079   2.109  11.998  2.5720 -0.5977 -1.6717
   34MOL0     H 4471  -1.997   2.223  11.790 -0.7403  1.3679 -1.5862
   34MOL0     H 4472  -1.995   2.416  11.461 -0.2600  0.4625 -0.8126
   34MOL0     H 4473  -1.917   2.482  11.240  0.9188 -1.4778  1.4463
   34MOL0     H 4474   0.021   2.558  11.031  0.3241 -0.0684 -1.2801
   34MOL0     H 4475   0.266   2.545  10.988  0.1981 -0.2047  1.3651
   34MOL0     H 4476   0.735   2.597  11.204 -0.7781  0.0349  0.1012
   34MOL0     H 4477   0.940   2.490  11.122 -1.6295 -3.2795  0.2582
   34MOL0     H 4478   1.130   2.405  10.731  0.4109 -0.5417 -0.1112
   34MOL0     H 4479   0.993   2.500  10.679  1.3395  2.3099  2.6594
   34MOL0     H 4480   0.953   2.195  10.757 -0.1830  1.0179  0.4186
   34MOL0     H 4481   0.869   2.290  10.641 -0.5742  1.1383 -0.0642
   34MOL0     H 4482   1.171   2.185  10.605 -0.5564  0.3321  2.5675
   34MOL0     H 4483   1.100   2.303  10.506  0.7229 -1.3640 -1.8094
   34MOL0     H 4484   0.906   2.111  10.476  0.4956 -0.4970 -0.1428
   34MOL0     H 4485   1.068   2.072  10.405  1.9025 -0.2282  1.1103
   34MOL0     H 4486   1.055   1.762  10.674 -2.0162 -1.6695 -0.3838
   34MOL0     H 4487   0.777   2.482  10.732 -3.0467 -2.2240  1.1270
   34MOL0     H 4488   0.583   2.626  10.794 -1.3139  2.3692  1.5940
   35MOL0     O 4489   0.746   4.866   6.506 -0.1879  0.4138  0.3151
   35MOL0     C 4490   0.783   4.877   6.622 -0.5553  0.4866  1.0338
   35MOL0     O 4491   0.747   4.981   6.707 -0.1883  0.7878  0.1998
   35MOL0     C 4492   0.644   5.058   6.658 -0.3402  0.5476  0.3325
   35MOL0     C 4493   0.511   5.022   6.684 -0.5841 -0.2062  0.2281
   35MOL0     C 4494   0.405   5.099   6.628  0.1009  0.1353  0.2826
   35MOL0     C 4495   0.433   5.191   6.522  0.1580 -0.2011  0.1096
   35MOL0     O 4496   0.342   5.271   6.459 -1.1092 -0.0254  0.1767
   35MOL0     C 4497   0.264   5.194   6.370 -0.2403  0.1094  0.1066
   35MOL0     C 4498   0.174   5.297   6.296 -0.2620  1.0331  0.2953
   35MOL0     C 4499   0.062   5.344   6.398 -0.7313 -0.6229 -0.0974
   35MOL0     C 4500  -0.019   5.434   6.315 -0.1529 -0.7616  0.2315
   35MOL0     C 4501  -0.135   5.485   6.410 -0.1616 -0.8369  0.4741
   35MOL0     C 4502  -0.259   5.400   6.431 -0.5396  0.0088 -0.8307
   35MOL0     C 4503  -0.383   5.476   6.477 -0.5513 -0.1943  0.5680
   35MOL0     C 4504  -0.504   5.376   6.497 -0.4092  0.1248  0.5019
   35MOL0     N 4505  -0.609   5.444   6.569 -0.0571 -0.6188  0.1783
   35MOL0     C 4506  -0.696   5.538   6.515  0.0857 -0.0562 -0.4848
   35MOL0     C 4507  -0.769   5.575   6.623  0.9284 -0.1935  0.0175
   35MOL0     C 4508  -0.880   5.674   6.628  0.0113  0.6246  0.0394
   35MOL0     C 4509  -1.018   5.596   6.627  0.2681 -0.6657  0.2537
   35MOL0     C 4510  -1.138   5.699   6.650 -0.4428  0.4258  0.6448
   35MOL0     C 4511  -1.278   5.634   6.631 -0.0278  0.0619  0.4113
   35MOL0     O 4512  -1.382   5.726   6.672 -0.0678 -0.9703  0.3159
   35MOL0     C 4513  -1.514   5.705   6.643  0.4989  0.0665  0.0568
   35MOL0     C 4514  -1.573   5.594   6.569 -0.5869 -1.1188  0.2980
   35MOL0     C 4515  -1.706   5.584   6.534 -0.3670 -0.3215  0.1393
   35MOL0     C 4516  -1.794   5.683   6.578 -0.4050 -0.5109  0.0895
   35MOL0     C 4517  -1.940   5.679   6.553 -0.3767 -0.3047  0.4473
   35MOL0     O 4518  -2.019   5.779   6.609  0.9711  0.1397 -0.1511
   35MOL0     C 4519  -2.159   5.766   6.606 -1.0568 -0.5739  0.2441
   35MOL0     C 4520  -2.227   5.654   6.650 -0.1647  0.1811 -0.0986
   35MOL0     C 4521  -2.364   5.659   6.649  0.1907 -0.2232  0.0085
   35MOL0     C 4522  -2.437   5.769   6.612  0.0807  1.0669 -0.2571
   35MOL0     O 4523  -2.572   5.764   6.623 -0.1242 -0.0523  0.3222
   35MOL0     C 4524  -2.653   5.794   6.508 -0.4929 -0.6978 -0.1890
   35MOL0     C 4525  -2.800   5.778   6.546 -0.5032  0.1940  0.4702
   35MOL0     C 4526  -2.896   5.761   6.427 -0.6712 -0.0126 -0.2885
   35MOL0     C 4527  -2.914   5.895   6.345 -0.6652  0.7844  0.6523
   35MOL0     C 4528  -3.036   5.872   6.252  0.3892  0.2624  0.1546
   35MOL0     C 4529  -3.047   5.985   6.149 -0.0753  0.0540 -0.1280
   35MOL0     C 4530  -3.085   6.127   6.197  0.4170 -0.0913  0.6604
   35MOL0     C 4531  -3.231   6.120   6.258  0.0626 -0.0632  0.5406
   35MOL0    Cl 4532  -3.294   6.285   6.255 -0.1638  0.1563  0.3994
   35MOL0     C 4533  -2.372   5.886   6.564  0.6171  0.4805  0.1709
   35MOL0     C 4534  -2.229   5.882   6.561  0.3126 -0.5864 -0.4163
   35MOL0     O 4535  -1.979   5.590   6.473 -0.1568  0.0701 -0.0293
   35MOL0     C 4536  -1.744   5.797   6.640 -0.2795  0.3383  0.0167
   35MOL0     C 4537  -1.608   5.812   6.669 -0.3781  0.4788 -0.2399
   35MOL0     N 4538  -0.722   5.513   6.738 -0.1519  0.6290 -0.7751
   35MOL0     N 4539  -0.631   5.440   6.702 -0.5165 -0.2017 -1.3255
   35MOL0     C 4540   0.566   5.215   6.493 -0.3694  0.3682 -0.7668
   35MOL0     C 4541   0.671   5.153   6.561 -0.3008  0.3843 -0.1121
   35MOL0     C 4542   0.873   4.773   6.682 -0.0035 -0.2170 -0.1059
   35MOL0     C 4543   0.934   4.801   6.807  0.5522 -0.0287  0.4044
   35MOL0     C 4544   1.013   4.704   6.871 -0.5594  0.3220 -0.7164
   35MOL0     C 4545   1.043   4.576   6.818  0.2576 -0.1586 -0.3375
   35MOL0     O 4546   1.102   4.470   6.880 -0.6388 -0.3395  0.1576
   35MOL0     C 4547   1.196   4.509   6.986 -0.2812  0.1209  0.1328
   35MOL0     C 4548   1.305   4.402   6.977 -0.1695 -0.0961  0.5113
   35MOL0     C 4549   1.427   4.445   7.071 -0.0540  0.0342 -0.1917
   35MOL0     C 4550   1.532   4.340   7.072  0.2104  0.7238 -0.2522
   35MOL0     C 4551   1.634   4.409   7.153 -0.0283  0.3558 -0.0653
   35MOL0     C 4552   1.719   4.446   7.224 -0.2447 -0.2055  0.2997
   35MOL0     C 4553   0.980   4.554   6.691 -0.4196 -0.0253  0.3305
   35MOL0     C 4554   0.902   4.653   6.618 -0.1968 -0.3783  1.0235
   35MOL0     H 4555   0.482   4.957   6.766 -3.1485 -1.2868 -1.3898
   35MOL0     H 4556   0.300   5.096   6.655  0.5833  2.9692  3.1341
   35MOL0     H 4557   0.199   5.120   6.415 -3.4046  1.8046 -1.3521
   35MOL0     H 4558   0.327   5.142   6.297 -2.5601  1.2797 -2.9671
   35MOL0     H 4559   0.120   5.249   6.214 -0.4214  1.9498 -0.1493
   35MOL0     H 4560   0.236   5.378   6.258 -1.4446  1.5439 -0.6076
   35MOL0     H 4561   0.098   5.408   6.479 -1.3858 -2.0834  1.4184
   35MOL0     H 4562   0.003   5.263   6.441  2.3485 -1.3057  3.3944
   35MOL0     H 4563   0.037   5.525   6.292 -2.7938  1.8191  3.0656
   35MOL0     H 4564  -0.057   5.388   6.222  0.7341  0.8206 -0.9617
   35MOL0     H 4565  -0.173   5.583   6.380  1.4094  0.4404  2.3999
   35MOL0     H 4566  -0.087   5.502   6.507  3.8160 -1.9161 -1.1092
   35MOL0     H 4567  -0.234   5.322   6.503  0.1844 -0.9999 -2.1337
   35MOL0     H 4568  -0.276   5.341   6.341 -0.7283 -2.6484  0.8567
   35MOL0     H 4569  -0.353   5.527   6.569  0.8073 -2.8148  1.6659
   35MOL0     H 4570  -0.406   5.557   6.407  1.5521  0.3568  0.4637
   35MOL0     H 4571  -0.467   5.295   6.560 -1.4233  1.2989  2.7305
   35MOL0     H 4572  -0.533   5.345   6.397 -2.2548 -1.9528  1.6021
   35MOL0     H 4573  -0.706   5.567   6.411 -2.0305  0.6455 -0.1276
   35MOL0     H 4574  -0.868   5.741   6.542 -0.7313 -1.1183 -1.4911
   35MOL0     H 4575  -0.869   5.735   6.717 -0.7948 -0.8863  1.2304
   35MOL0     H 4576  -1.019   5.517   6.703 -3.3664  1.1662  2.3911
   35MOL0     H 4577  -1.038   5.543   6.533 -1.7963  0.0518  0.2298
   35MOL0     H 4578  -1.142   5.744   6.750 -0.2314  0.5556  0.5949
   35MOL0     H 4579  -1.138   5.782   6.579 -1.0976  1.2425  1.5702
   35MOL0     H 4580  -1.283   5.538   6.683  1.2502  0.0073  0.4532
   35MOL0     H 4581  -1.297   5.613   6.525  3.6173 -1.0946 -0.1403
   35MOL0     H 4582  -1.519   5.504   6.540 -0.4081 -1.4986  1.6870
   35MOL0     H 4583  -1.745   5.494   6.487  1.2241 -1.8950  1.6628
   35MOL0     H 4584  -2.175   5.561   6.671  0.3737  0.6248  0.5903
   35MOL0     H 4585  -2.418   5.570   6.681 -0.8816 -0.2320 -1.6900
   35MOL0     H 4586  -2.622   5.731   6.424 -1.1108 -0.0518 -0.9090
   35MOL0     H 4587  -2.636   5.895   6.471 -3.6736 -0.2902 -0.8456
   35MOL0     H 4588  -2.843   5.862   6.602  1.9028  1.7159  0.2029
   35MOL0     H 4589  -2.805   5.686   6.605  1.8409  1.3208  2.6298
   35MOL0     H 4590  -2.985   5.715   6.471 -0.3640 -1.7178 -1.3824
   35MOL0     H 4591  -2.849   5.689   6.360  0.4978  0.8662 -0.4522
   35MOL0     H 4592  -2.933   5.986   6.402 -1.7953  1.4902 -0.7703
   35MOL0     H 4593  -2.827   5.913   6.282 -2.0265 -0.6234 -1.8026
   35MOL0     H 4594  -3.125   5.858   6.314  1.5751 -1.6495  1.5344
   35MOL0     H 4595  -3.022   5.783   6.191 -1.9321 -0.4132  0.5310
   35MOL0     H 4596  -3.124   5.950   6.080  2.0696  0.9581 -3.1769
   35MOL0     H 4597  -2.957   5.999   6.088  0.2734 -1.5807 -0.0306
   35MOL0     H 4598  -3.013   6.160   6.272  0.3800 -1.9411  1.5665
   35MOL0     H 4599  -3.083   6.181   6.102 -0.8350 -2.7791 -1.0164
   35MOL0     H 4600  -3.221   6.087   6.362  1.2079  0.9652  0.7800
   35MOL0     H 4601  -3.299   6.049   6.209 -0.9421 -0.5676  2.5493
   35MOL0     H 4602  -2.428   5.973   6.531  1.4305 -0.1309 -3.1943
   35MOL0     H 4603  -2.172   5.966   6.523 -0.3464 -0.1368 -0.4188
   35MOL0     H 4604  -1.814   5.875   6.668  0.4702  1.1015 -0.2017
   35MOL0     H 4605  -1.577   5.903   6.719  0.1296 -0.4595  1.2094
   35MOL0     H 4606   0.577   5.295   6.420  1.2845  1.9983  1.1572
   35MOL0     H 4607   0.774   5.160   6.527 -0.1609 -2.9281 -0.6774
   35MOL0     H 4608   0.924   4.897   6.858 -2.7205 -0.1394  0.1778
   35MOL0     H 4609   1.057   4.729   6.967  1.2978 -2.7903 -0.6416
   35MOL0     H 4610   1.142   4.501   7.080  0.7754  2.9797  1.0732
   35MOL0     H 4611   1.227   4.613   6.979 -3.7138  1.5217  2.8644
   35MOL0     H 4612   1.269   4.301   7.000  0.8632 -1.2369 -2.3935
   35MOL0     H 4613   1.335   4.406   6.872 -0.8350  2.7611  0.3527
   35MOL0     H 4614   1.378   4.449   7.169 -1.0135 -0.4171 -0.6392
   35MOL0     H 4615   1.477   4.537   7.040  1.6014 -0.3202  1.2550
   35MOL0     H 4616   1.496   4.251   7.125 -1.6150  0.8705 -1.1549
   35MOL0     H 4617   1.579   4.311   6.978 -0.8727 -1.1973 -0.2484
   35MOL0     H 4618   1.804   4.475   7.283 -1.3728 -0.0893  1.9607
   35MOL0     H 4619   0.986   4.452   6.653 -0.3816 -0.2578  0.9556
   35MOL0     H 4620   0.872   4.637   6.515  3.5849 -0.9577 -0.1284
   36MOL0     O 4621   9.244  11.166  10.903  0.3038  0.9706  0.1691
   36MOL0     C 4622   9.344  11.223  10.947  0.1257  0.0013 -0.3544
   36MOL0     O 4623   9.337  11.345  11.026  0.0978 -0.5811  0.7151
   36MOL0     C 4624   9.223  11.416  11.035  0.2844  0.0229  0.6314
   36MOL0     C 4625   9.150  11.458  10.923 -0.2769 -0.3000  0.1907
   36MOL0     C 4626   9.042  11.540  10.934  0.8635 -0.0036 -0.7439
   36MOL0     C 4627   8.985  11.571  11.056 -0.2670 -0.3193 -0.1838
   36MOL0     O 4628   8.870  11.648  11.060  0.1420  0.0974 -0.0374
   36MOL0     C 4629   8.814  11.679  11.183  1.0594  0.2545 -0.8855
   36MOL0     C 4630   8.715  11.801  11.156 -0.8559 -0.8460  0.7393
   36MOL0     C 4631   8.627  11.844  11.274  0.0102 -0.5471 -0.3488
   36MOL0     C 4632   8.562  11.977  11.240 -0.0559  0.6641 -0.6523
   36MOL0     C 4633   8.439  12.003  11.333 -0.0820  0.4609  0.0221
   36MOL0     C 4634   8.358  12.133  11.298 -0.6364  0.6064  0.6693
   36MOL0     C 4635   8.453  12.253  11.334  0.0772 -0.5036 -0.0982
   36MOL0     C 4636   8.405  12.396  11.326 -0.0568 -0.0794 -0.6936
   36MOL0     N 4637   8.278  12.427  11.394 -0.0299 -0.2543 -0.1514
   36MOL0     C 4638   8.279  12.479  11.520 -0.7627 -0.1190 -0.2122
   36MOL0     C 4639   8.149  12.492  11.545  0.3071 -0.5044  0.3687
   36MOL0     C 4640   8.084  12.559  11.672  0.5856  0.0894  0.4203
   36MOL0     C 4641   8.038  12.448  11.768 -0.2778  0.1849 -0.4433
   36MOL0     C 4642   7.986  12.506  11.901  0.3648  0.3400  0.2430
   36MOL0     C 4643   7.980  12.396  12.006  0.5598  0.0884 -0.1795
   36MOL0     O 4644   7.917  12.279  11.959  0.5073  0.6520 -0.0678
   36MOL0     C 4645   7.781  12.273  11.953  0.3594  0.4125 -0.7455
   36MOL0     C 4646   7.727  12.158  11.893 -0.3822 -0.5229  1.0307
   36MOL0     C 4647   7.585  12.150  11.877  0.3326 -0.0452 -0.0273
   36MOL0     C 4648   7.497  12.257  11.905  0.3479  0.1259 -0.0072
   36MOL0     C 4649   7.347  12.241  11.865  0.5791 -0.9583  0.0788
   36MOL0     O 4650   7.305  12.122  11.817  0.8634 -0.3570 -0.6952
   36MOL0     C 4651   7.164  12.113  11.787  0.3088 -0.1682  0.4623
   36MOL0     C 4652   7.110  12.146  11.658  0.0898 -0.7304  0.6838
   36MOL0     C 4653   6.969  12.145  11.643  0.3837  0.5745  0.6729
   36MOL0     C 4654   6.886  12.102  11.747  0.2566  0.4531  0.5575
   36MOL0     O 4655   6.752  12.088  11.712 -0.0897  0.0935 -0.4678
   36MOL0     C 4656   6.701  11.957  11.735 -0.2406 -0.1399 -0.0661
   36MOL0     C 4657   6.560  11.964  11.682  0.5930  0.9900 -0.3364
   36MOL0     C 4658   6.502  11.816  11.676 -0.0315 -0.3844 -0.5604
   36MOL0     C 4659   6.352  11.824  11.645  0.4900  0.6447 -0.5413
   36MOL0     C 4660   6.278  11.696  11.678 -1.0641  0.2797  0.2733
   36MOL0     C 4661   6.144  11.697  11.616  0.6847  0.1401  0.6119
   36MOL0     C 4662   6.066  11.565  11.626 -0.4095 -0.2742  0.4651
   36MOL0     C 4663   5.926  11.605  11.590  0.6391  0.4307  0.7471
   36MOL0    Cl 4664   5.813  11.460  11.578  0.3638 -0.2379  0.1919
   36MOL0     C 4665   6.940  12.069  11.866  0.0630  0.1665 -0.4950
   36MOL0     C 4666   7.073  12.082  11.888  0.4062  0.0220  0.0448
   36MOL0     O 4667   7.276  12.341  11.882  0.8936 -0.1974  0.0251
   36MOL0     C 4668   7.558  12.365  11.968  0.8959 -0.8818 -0.0144
   36MOL0     C 4669   7.694  12.373  11.985 -0.0608 -0.0910 -0.6618
   36MOL0     N 4670   8.073  12.469  11.430 -0.7845  0.1770  0.1585
   36MOL0     N 4671   8.155  12.418  11.337  0.9406  0.5658  0.0948
   36MOL0     C 4672   9.061  11.530  11.168  1.2909  0.2837 -0.1925
   36MOL0     C 4673   9.176  11.456  11.157  0.3653  0.5518  0.5879
   36MOL0     C 4674   9.486  11.185  10.926  0.3171 -0.3214  0.2637
   36MOL0     C 4675   9.595  11.281  10.944  0.0818  1.0433  0.6387
   36MOL0     C 4676   9.733  11.231  10.947  0.9613  0.3462  0.6349
   36MOL0     C 4677   9.759  11.102  10.896 -0.9736  0.2551 -0.6263
   36MOL0     O 4678   9.888  11.055  10.877 -0.2639  0.0566  0.5613
   36MOL0     C 4679   9.979  11.151  10.816  0.7253  0.3357 -0.7942
   36MOL0     C 4680  10.115  11.088  10.777  0.4424 -0.4837  0.0540
   36MOL0     C 4681  10.193  11.066  10.904 -0.6747 -0.3463 -0.2826
   36MOL0     C 4682  10.316  10.975  10.871  0.1359  0.0097  0.0653
   36MOL0     C 4683  10.416  10.983  10.980 -0.5405  0.3487  0.4271
   36MOL0     C 4684  10.502  10.994  11.076 -0.4443 -0.2561 -0.2137
   36MOL0     C 4685   9.654  11.017  10.881  0.4661  0.0038  0.1547
   36MOL0     C 4686   9.522  11.054  10.899  0.0729  0.2450 -0.6875
   36MOL0     H 4687   9.187  11.426  10.826  1.7522  1.3864  0.3359
   36MOL0     H 4688   9.000  11.577  10.840  1.6172 -0.6117 -1.3359
   36MOL0     H 4689   8.887  11.717  11.255 -0.2850 -0.9450  1.2227
   36MOL0     H 4690   8.767  11.592  11.231  1.7464  1.6121  2.5644
   36MOL0     H 4691   8.650  11.752  11.082  2.6595 -1.8546 -1.9314
   36MOL0     H 4692   8.773  11.884  11.117  1.6973 -2.0375  1.7817
   36MOL0     H 4693   8.690  11.854  11.363  0.5572  0.7696 -0.8562
   36MOL0     H 4694   8.551  11.765  11.284 -0.6920  0.2834  1.2927
   36MOL0     H 4695   8.642  12.049  11.261  2.5232 -2.5695  1.6077
   36MOL0     H 4696   8.521  11.963  11.140 -2.1175  1.3115  0.0643
   36MOL0     H 4697   8.477  12.001  11.436 -0.8517  0.0092  0.3018
   36MOL0     H 4698   8.371  11.918  11.329  0.0799  0.3654 -0.8174
   36MOL0     H 4699   8.260  12.136  11.348 -2.3389  3.3603 -2.4260
   36MOL0     H 4700   8.335  12.139  11.191  0.6580 -0.7772  0.2801
   36MOL0     H 4701   8.497  12.222  11.429 -1.0439  1.2490  1.0337
   36MOL0     H 4702   8.538  12.248  11.265 -0.0210 -3.6587 -0.1508
   36MOL0     H 4703   8.402  12.419  11.219  1.3143  0.4474 -0.6430
   36MOL0     H 4704   8.491  12.456  11.358  0.3890 -1.3361  0.5684
   36MOL0     H 4705   8.372  12.497  11.574  1.2301 -1.6679 -2.8654
   36MOL0     H 4706   8.005  12.628  11.643  1.9706  1.1235 -1.0614
   36MOL0     H 4707   8.167  12.620  11.710  1.5532  0.1989 -1.7198
   36MOL0     H 4708   8.123  12.383  11.792  0.3047  0.7544 -0.9630
   36MOL0     H 4709   7.961  12.390  11.716  0.3684  0.3030 -1.5558
   36MOL0     H 4710   8.071  12.569  11.929  1.6549 -0.7422 -1.0586
   36MOL0     H 4711   7.891  12.557  11.888  0.2980 -0.1875 -1.5927
   36MOL0     H 4712   7.941  12.447  12.095  0.3355  0.3786 -0.4447
   36MOL0     H 4713   8.079  12.368  12.044  0.6624 -0.0778 -0.5645
   36MOL0     H 4714   7.791  12.076  11.863  1.7859  1.3807  0.1478
   36MOL0     H 4715   7.543  12.055  11.845  1.4657 -0.7071  0.3938
   36MOL0     H 4716   7.170  12.190  11.579 -0.3900 -0.5538  0.4146
   36MOL0     H 4717   6.933  12.169  11.544  0.3540  0.1091  0.5694
   36MOL0     H 4718   6.711  11.921  11.838 -1.0678  1.0263  0.4342
   36MOL0     H 4719   6.750  11.885  11.668 -2.4992 -0.2016 -1.7549
   36MOL0     H 4720   6.560  12.009  11.582  1.0415  1.2450 -0.2262
   36MOL0     H 4721   6.499  12.026  11.748  1.8423 -0.2480  2.1425
   36MOL0     H 4722   6.519  11.772  11.774  0.2282 -1.4894 -1.0907
   36MOL0     H 4723   6.557  11.756  11.603  0.5713  0.5728 -0.9264
   36MOL0     H 4724   6.316  11.907  11.707 -1.2024  0.4110 -1.1376
   36MOL0     H 4725   6.348  11.843  11.538  2.1619 -4.1773 -1.6742
   36MOL0     H 4726   6.265  11.683  11.786 -1.3573 -2.8534 -0.0556
   36MOL0     H 4727   6.331  11.603  11.654  0.0573  0.1446  2.8879
   36MOL0     H 4728   6.170  11.715  11.511 -0.9431 -0.7612  0.0324
   36MOL0     H 4729   6.086  11.784  11.650 -0.1314  1.1102 -2.8985
   36MOL0     H 4730   6.102  11.500  11.545  2.5522  2.5768 -0.7295
   36MOL0     H 4731   6.062  11.516  11.723 -4.1964  0.8252  1.0640
   36MOL0     H 4732   5.929  11.658  11.495 -2.8976  0.8239  0.7236
   36MOL0     H 4733   5.876  11.672  11.661 -0.2239 -1.1507  1.7004
   36MOL0     H 4734   6.869  12.050  11.945  0.0793 -1.0936 -0.7684
   36MOL0     H 4735   7.102  12.070  11.992 -2.0340  0.2592  0.8221
   36MOL0     H 4736   7.498  12.451  11.997 -3.1760 -2.6834 -2.1541
   36MOL0     H 4737   7.733  12.467  12.022  2.3279 -0.2066 -2.5506
   36MOL0     H 4738   9.030  11.578  11.261  1.2511  1.6797 -0.8983
   36MOL0     H 4739   9.226  11.432  11.250 -0.4035 -1.2169  0.5727
   36MOL0     H 4740   9.584  11.388  10.963  2.8152  1.3890  0.5997
   36MOL0     H 4741   9.813  11.301  10.971  1.4640 -0.2780  0.8236
   36MOL0     H 4742  10.000  11.246  10.867  0.8180  0.6717 -1.4407
   36MOL0     H 4743   9.930  11.173  10.720 -0.4893 -0.1993 -0.3068
   36MOL0     H 4744  10.102  10.995  10.720  0.5315  1.7701 -4.0694
   36MOL0     H 4745  10.164  11.155  10.706 -0.9088 -0.5805 -1.0308
   36MOL0     H 4746  10.138  11.016  10.985  1.9417  0.5936  2.2263
   36MOL0     H 4747  10.231  11.165  10.931  2.5246 -1.1948 -1.3023
   36MOL0     H 4748  10.281  10.871  10.876  0.0543  0.0707  2.9586
   36MOL0     H 4749  10.355  10.999  10.772  1.5333 -0.1489  0.5649
   36MOL0     H 4750  10.564  10.987  11.163 -0.8072 -0.3310  0.0424
   36MOL0     H 4751   9.681  10.916  10.853  1.6644  0.0996  0.9080
   36MOL0     H 4752   9.441  10.981  10.893  0.7569 -0.8846  1.9951
   37MOL0     O 4753   2.209   6.581   1.832  0.0748 -0.5771  0.1451
   37MOL0     C 4754   2.185   6.705   1.825  0.8986  0.3738  0.0480
   37MOL0     O 4755   2.063   6.760   1.850  0.4449 -0.1590  0.4024
   37MOL0     C 4756   1.964   6.672   1.886 -0.2524  0.5002  0.3700
   37MOL0     C 4757   1.926   6.640   2.016  0.7960  0.2495 -0.0700
   37MOL0     C 4758   1.807   6.573   2.045 -0.3292 -0.1546  0.3965
   37MOL0     C 4759   1.731   6.518   1.943  0.1945  0.3961  0.6254
   37MOL0     O 4760   1.617   6.443   1.960  0.5806  0.4143 -0.0262
   37MOL0     C 4761   1.589   6.379   2.087  0.1682 -0.3622 -0.0404
   37MOL0     C 4762   1.507   6.478   2.182  0.9017 -0.3986  0.7067
   37MOL0     C 4763   1.361   6.475   2.159 -0.2248 -0.0502  0.7175
   37MOL0     C 4764   1.308   6.535   2.021 -1.5349 -0.1369 -0.2176
   37MOL0     C 4765   1.160   6.517   2.009  0.1559 -0.4763  0.0952
   37MOL0     C 4766   1.115   6.371   2.027  0.3209 -0.6197  0.1995
   37MOL0     C 4767   0.981   6.344   1.949  0.0283 -0.3973 -1.1471
   37MOL0     C 4768   0.869   6.430   2.010 -0.5900  0.1132 -0.6579
   37MOL0     N 4769   0.853   6.401   2.156 -0.1465 -0.5829 -0.0402
   37MOL0     C 4770   0.867   6.493   2.257 -0.0297 -0.5514 -1.0151
   37MOL0     C 4771   0.823   6.428   2.365 -0.7179  0.0244 -0.1458
   37MOL0     C 4772   0.831   6.460   2.515  0.4177 -0.0317 -0.7836
   37MOL0     C 4773   0.958   6.413   2.596  0.3636 -0.2848 -0.6579
   37MOL0     C 4774   1.086   6.501   2.573  0.0836 -0.1811  0.2316
   37MOL0     C 4775   1.208   6.417   2.591  0.3123 -1.0671 -0.0372
   37MOL0     O 4776   1.318   6.492   2.538 -0.4133  0.1758 -0.8931
   37MOL0     C 4777   1.444   6.453   2.580 -0.3224 -0.8553 -0.4984
   37MOL0     C 4778   1.468   6.335   2.653 -0.4450 -0.0161  0.1688
   37MOL0     C 4779   1.594   6.289   2.682 -0.2064 -0.0983 -0.2755
   37MOL0     C 4780   1.704   6.369   2.660  0.3788  0.2647 -0.0899
   37MOL0     C 4781   1.832   6.337   2.723 -0.4006 -0.4573 -0.5304
   37MOL0     O 4782   1.940   6.409   2.682 -0.0919 -0.3512 -0.1968
   37MOL0     C 4783   2.067   6.378   2.714  0.2589  0.9435  0.1504
   37MOL0     C 4784   2.161   6.470   2.708  0.1680  0.7149 -0.0677
   37MOL0     C 4785   2.291   6.450   2.758  0.4803 -0.2055 -0.1189
   37MOL0     C 4786   2.330   6.320   2.793 -0.8320  0.2312  0.1199
   37MOL0     O 4787   2.453   6.295   2.847  0.1006  0.1024 -0.7968
   37MOL0     C 4788   2.455   6.210   2.961 -0.0283  0.0505  0.1284
   37MOL0     C 4789   2.591   6.181   3.009  0.2874 -0.5073 -1.5571
   37MOL0     C 4790   2.667   6.301   3.048  0.7098  0.0836  0.4772
   37MOL0     C 4791   2.813   6.260   3.054  0.5890  0.0027  0.2675
   37MOL0     C 4792   2.897   6.368   3.116  0.6888 -0.3454 -0.7419
   37MOL0     C 4793   3.042   6.332   3.131  0.5736  0.7290  0.3494
   37MOL0     C 4794   3.108   6.439   3.218 -0.0292  0.9216 -0.1960
   37MOL0     C 4795   3.259   6.416   3.209 -0.1340  0.1895  0.1339
   37MOL0    Cl 4796   3.337   6.539   3.313 -0.4256  0.0482  0.2612
   37MOL0     C 4797   2.243   6.216   2.764 -0.3911 -0.4230  0.0913
   37MOL0     C 4798   2.109   6.243   2.734 -0.3788 -1.0706  0.3721
   37MOL0     O 4799   1.836   6.255   2.810 -0.5808 -0.5646  0.5563
   37MOL0     C 4800   1.691   6.492   2.585 -0.4246 -0.1991  0.5240
   37MOL0     C 4801   1.557   6.530   2.552  0.7290  0.4479 -0.0269
   37MOL0     N 4802   0.771   6.307   2.327 -0.3035  0.2997 -0.0834
   37MOL0     N 4803   0.772   6.307   2.199 -1.2014 -0.8784  1.0100
   37MOL0     C 4804   1.768   6.542   1.814 -0.4876 -0.3597 -0.3761
   37MOL0     C 4805   1.878   6.626   1.783  0.3053 -0.4926  0.0419
   37MOL0     C 4806   2.299   6.792   1.808  0.4451  0.1470 -1.0685
   37MOL0     C 4807   2.300   6.922   1.855 -0.3091  0.3741 -0.1790
   37MOL0     C 4808   2.416   7.003   1.834 -0.0345  0.1820 -0.4662
   37MOL0     C 4809   2.524   6.953   1.762  0.8343  0.5008 -0.3072
   37MOL0     O 4810   2.643   7.022   1.736 -0.1209  0.1201  0.7926
   37MOL0     C 4811   2.674   7.154   1.784  0.7182  0.3553  0.1751
   37MOL0     C 4812   2.822   7.185   1.756 -0.1560 -0.3187 -0.3565
   37MOL0     C 4813   2.868   7.310   1.831 -0.5827 -0.1076  0.2439
   37MOL0     C 4814   2.993   7.358   1.765 -0.4737 -0.6679 -0.5811
   37MOL0     C 4815   3.097   7.264   1.748  0.2190  0.2840  0.4222
   37MOL0     C 4816   3.186   7.187   1.753  0.0180 -0.1227 -0.0895
   37MOL0     C 4817   2.525   6.822   1.713 -0.1010 -0.8415  0.8867
   37MOL0     C 4818   2.406   6.743   1.727  1.0098  0.3296  0.1269
   37MOL0     H 4819   1.982   6.667   2.105  1.0498 -1.5745  0.3722
   37MOL0     H 4820   1.779   6.555   2.148 -0.4338 -1.0387  0.2157
   37MOL0     H 4821   1.681   6.356   2.141  0.6555  2.3057  0.3877
   37MOL0     H 4822   1.535   6.286   2.064  1.1104 -0.8577 -0.2776
   37MOL0     H 4823   1.546   6.580   2.167  1.5135 -0.4273  1.9028
   37MOL0     H 4824   1.526   6.452   2.287 -2.6510 -0.4785  1.4533
   37MOL0     H 4825   1.304   6.529   2.235 -4.0259  1.3609 -2.7571
   37MOL0     H 4826   1.327   6.372   2.172  2.2088 -1.2053 -1.3118
   37MOL0     H 4827   1.340   6.639   2.013  1.4418 -0.8192  1.4911
   37MOL0     H 4828   1.355   6.482   1.938 -0.7527  0.6078 -0.2598
   37MOL0     H 4829   1.117   6.558   1.917 -0.3643  1.7932  1.2718
   37MOL0     H 4830   1.112   6.585   2.081  1.8719  2.0979 -1.0656
   37MOL0     H 4831   1.109   6.337   2.131  2.8565 -3.5652 -0.4652
   37MOL0     H 4832   1.189   6.308   1.977  1.9018 -0.5628  2.3401
   37MOL0     H 4833   0.992   6.371   1.844  1.4524 -0.2124 -0.9656
   37MOL0     H 4834   0.947   6.240   1.943  0.1248 -0.6153  1.1062
   37MOL0     H 4835   0.775   6.405   1.960 -1.2410  2.8092 -0.9113
   37MOL0     H 4836   0.884   6.536   1.987  0.4208  0.0537 -0.3322
   37MOL0     H 4837   0.886   6.599   2.248 -0.1301 -0.3290  0.9260
   37MOL0     H 4838   0.753   6.406   2.571  1.2191  0.7539  1.1973
   37MOL0     H 4839   0.815   6.568   2.523  2.4583  0.4743 -2.5112
   37MOL0     H 4840   0.986   6.313   2.561  3.4649 -0.2869  1.4038
   37MOL0     H 4841   0.947   6.402   2.704  2.3757 -0.0223 -0.3835
   37MOL0     H 4842   1.076   6.546   2.474  1.3658  0.4103  0.3522
   37MOL0     H 4843   1.093   6.586   2.642 -1.6709  2.6057 -2.6823
   37MOL0     H 4844   1.212   6.319   2.543  1.2815 -0.5508 -1.0513
   37MOL0     H 4845   1.233   6.408   2.697  4.2585  1.3881 -0.5445
   37MOL0     H 4846   1.391   6.265   2.682 -1.5258  0.2458 -1.8352
   37MOL0     H 4847   1.620   6.189   2.712  1.9970  0.2620 -0.8058
   37MOL0     H 4848   2.124   6.564   2.666 -2.7123 -0.5856 -0.6893
   37MOL0     H 4849   2.365   6.528   2.774  1.6046 -1.5739  1.8490
   37MOL0     H 4850   2.417   6.112   2.929  0.3509 -0.4368  1.1079
   37MOL0     H 4851   2.383   6.246   3.035  0.7766  1.6499  0.1622
   37MOL0     H 4852   2.638   6.139   2.920 -0.6557 -1.1008 -1.8004
   37MOL0     H 4853   2.588   6.120   3.100  3.4318  1.8593  0.3095
   37MOL0     H 4854   2.630   6.341   3.143  0.7901 -0.8608  0.9250
   37MOL0     H 4855   2.662   6.367   2.961  2.9942 -0.7174 -0.3569
   37MOL0     H 4856   2.831   6.164   3.105 -0.5266  0.5865  1.8503
   37MOL0     H 4857   2.855   6.265   2.953  4.2474  1.5896  1.6709
   37MOL0     H 4858   2.861   6.386   3.217 -0.5068 -2.4222 -0.7410
   37MOL0     H 4859   2.888   6.462   3.061 -0.2116 -0.2112 -0.3778
   37MOL0     H 4860   3.086   6.324   3.031 -1.1929  0.7392 -0.4825
   37MOL0     H 4861   3.042   6.233   3.178 -2.3480  1.0928  1.3444
   37MOL0     H 4862   3.082   6.535   3.172 -1.4181 -0.4998 -2.5676
   37MOL0     H 4863   3.088   6.428   3.325 -0.8901  0.1985 -0.4243
   37MOL0     H 4864   3.299   6.416   3.107  0.8466 -3.1618  0.3970
   37MOL0     H 4865   3.277   6.314   3.243 -0.1454 -0.1813 -0.9103
   37MOL0     H 4866   2.267   6.111   2.777 -2.1350 -0.6841  1.7617
   37MOL0     H 4867   2.044   6.158   2.717  1.9474 -2.7546 -0.7021
   37MOL0     H 4868   1.769   6.564   2.563 -0.1338 -1.3491 -2.7492
   37MOL0     H 4869   1.529   6.626   2.509 -1.9059 -0.6913 -1.1109
   37MOL0     H 4870   1.699   6.510   1.736 -1.8655 -1.3293  1.1743
   37MOL0     H 4871   1.906   6.661   1.685 -2.8134  3.3080  0.2452
   37MOL0     H 4872   2.225   6.962   1.923 -0.2338  0.4705 -0.1519
   37MOL0     H 4873   2.407   7.106   1.867 -1.8411  0.2071 -0.9698
   37MOL0     H 4874   2.649   7.162   1.890  1.9997 -1.7435  0.6980
   37MOL0     H 4875   2.618   7.224   1.722  0.0071 -2.2210 -2.2901
   37MOL0     H 4876   2.885   7.104   1.795  1.1733  2.3838  3.8593
   37MOL0     H 4877   2.852   7.200   1.652  2.0578 -0.1656  0.2489
   37MOL0     H 4878   2.891   7.281   1.933  0.3727 -2.5480 -0.6028
   37MOL0     H 4879   2.792   7.388   1.845 -2.4674 -1.3424 -2.1892
   37MOL0     H 4880   2.972   7.408   1.670  1.5660 -0.6531 -1.0687
   37MOL0     H 4881   3.032   7.434   1.834 -2.4258  0.8005 -0.9930
   37MOL0     H 4882   3.273   7.127   1.769  1.2600  1.6750  0.1940
   37MOL0     H 4883   2.616   6.799   1.659  1.3054  2.4808  1.5780
   37MOL0     H 4884   2.400   6.638   1.699 -1.5220 -0.0955  1.8686
   38MOL0     O 4885   7.420   4.315   7.216 -0.0925  0.4689  0.4117
   38MOL0     C 4886   7.401   4.327   7.093  0.4406 -1.3780  0.1039
   38MOL0     O 4887   7.287   4.379   7.026 -0.0207  0.5217  0.2160
   38MOL0     C 4888   7.197   4.441   7.103 -1.3293  0.7349 -0.3320
   38MOL0     C 4889   7.115   4.382   7.202  0.3181 -0.2735 -0.3810
   38MOL0     C 4890   7.021   4.466   7.267  0.4890  0.1366 -0.4172
   38MOL0     C 4891   7.008   4.602   7.227  0.0556 -0.5699 -0.7884
   38MOL0     O 4892   6.929   4.686   7.299 -0.5213  0.3379 -0.4133
   38MOL0     C 4893   6.791   4.650   7.297 -0.3420 -0.1485 -0.5056
   38MOL0     C 4894   6.745   4.647   7.444  0.0530  0.0125  0.5264
   38MOL0     C 4895   6.729   4.790   7.501 -0.1067 -0.2018  0.0095
   38MOL0     C 4896   6.690   4.764   7.651  0.7999  0.0724 -0.5149
   38MOL0     C 4897   6.666   4.888   7.729  0.0733  0.0079 -0.2287
   38MOL0     C 4898   6.617   4.859   7.880  0.7279  0.3273 -0.1952
   38MOL0     C 4899   6.605   4.986   7.971 -0.1796 -1.0785 -0.2884
   38MOL0     C 4900   6.475   5.067   7.938 -0.2629  0.7237  0.0196
   38MOL0     N 4901   6.355   5.001   7.989  0.2722 -0.4098  1.2732
   38MOL0     C 4902   6.348   4.958   8.116  0.0194  0.0647 -0.5444
   38MOL0     C 4903   6.219   4.919   8.135  1.2177 -0.1581  0.4334
   38MOL0     C 4904   6.158   4.853   8.256 -0.6317 -0.3070 -0.1806
   38MOL0     C 4905   6.188   4.700   8.277  0.3029 -0.2895  0.3421
   38MOL0     C 4906   6.137   4.645   8.397  0.1716  0.6645 -0.9915
   38MOL0     C 4907   6.125   4.488   8.392 -0.7954  0.2756 -0.0337
   38MOL0     O 4908   6.073   4.429   8.506  0.0679 -0.2031  0.3686
   38MOL0     C 4909   6.067   4.293   8.514 -1.1264 -1.0138  0.2177
   38MOL0     C 4910   6.036   4.220   8.633  0.7809 -0.7663 -0.6996
   38MOL0     C 4911   6.036   4.082   8.638 -0.7348 -1.1521 -0.1788
   38MOL0     C 4912   6.060   4.009   8.525  0.2234  0.2704  0.3790
   38MOL0     C 4913   6.064   3.863   8.528  1.0148 -0.6522  0.4856
   38MOL0     O 4914   6.120   3.809   8.414 -0.1838 -0.9095  0.0069
   38MOL0     C 4915   6.167   3.682   8.407  0.3364  0.7989 -0.0203
   38MOL0     C 4916   6.265   3.640   8.497  0.4032  0.4475 -0.7105
   38MOL0     C 4917   6.325   3.515   8.475  0.4647 -0.4068 -0.2726
   38MOL0     C 4918   6.282   3.425   8.377 -0.1718  0.1063 -0.6213
   38MOL0     O 4919   6.352   3.306   8.365 -0.2734 -0.0305  1.0399
   38MOL0     C 4920   6.306   3.219   8.258 -0.0782 -0.1615  0.3782
   38MOL0     C 4921   6.394   3.091   8.274 -0.3490 -0.5485  0.4742
   38MOL0     C 4922   6.505   3.107   8.168 -0.1335 -0.1618  0.1212
   38MOL0     C 4923   6.619   3.009   8.199  0.5967 -0.3077  0.1965
   38MOL0     C 4924   6.743   3.044   8.119 -0.3119 -0.2610  0.5961
   38MOL0     C 4925   6.837   2.922   8.118 -0.2617 -0.3787  0.2551
   38MOL0     C 4926   6.969   2.963   8.051 -0.2478  0.0383  0.5211
   38MOL0     C 4927   7.054   2.840   8.061  0.0385  0.5353  0.2093
   38MOL0    Cl 4928   7.225   2.877   8.090  0.1232  0.3675 -0.1417
   38MOL0     C 4929   6.181   3.470   8.289 -0.7623 -0.3716  0.6289
   38MOL0     C 4930   6.129   3.601   8.304  0.5011  0.3168  0.0779
   38MOL0     O 4931   6.033   3.798   8.629  0.4052  0.3888  0.3394
   38MOL0     C 4932   6.089   4.073   8.407 -0.2652  0.0512  0.2190
   38MOL0     C 4933   6.094   4.212   8.408  0.7291  0.2629 -0.4270
   38MOL0     N 4934   6.155   4.950   8.018 -0.4526  0.3756 -0.0126
   38MOL0     N 4935   6.237   4.986   7.926  0.5000 -0.6569 -0.7068
   38MOL0     C 4936   7.088   4.656   7.132 -0.4659 -0.5725  0.4416
   38MOL0     C 4937   7.182   4.570   7.074 -0.2122 -0.1920  0.2786
   38MOL0     C 4938   7.512   4.291   7.003 -0.3143  0.7729  0.2221
   38MOL0     C 4939   7.508   4.289   6.859 -0.0336  0.2822  0.1756
   38MOL0     C 4940   7.620   4.244   6.785 -0.0192 -1.0363  0.1701
   38MOL0     C 4941   7.748   4.226   6.845 -0.3267  0.2879 -0.1943
   38MOL0     O 4942   7.856   4.207   6.769 -0.6929 -0.0484 -0.0220
   38MOL0     C 4943   7.863   4.230   6.630 -0.6936  0.9257 -0.4235
   38MOL0     C 4944   8.012   4.271   6.596  0.6476  0.3160 -0.6034
   38MOL0     C 4945   8.032   4.326   6.453 -0.2745 -1.0542 -0.3080
   38MOL0     C 4946   8.181   4.360   6.415  1.1455 -0.2311 -0.7218
   38MOL0     C 4947   8.186   4.433   6.286 -0.6662 -0.7109  0.0389
   38MOL0     C 4948   8.209   4.486   6.175 -0.8541  0.4209 -0.1539
   38MOL0     C 4949   7.752   4.227   6.986 -0.3559 -0.0670  0.6144
   38MOL0     C 4950   7.641   4.254   7.059  0.8051 -0.1503  0.0482
   38MOL0     H 4951   7.133   4.278   7.227  1.0495 -0.0535  0.0303
   38MOL0     H 4952   6.956   4.426   7.344 -0.8306  0.8014 -1.1487
   38MOL0     H 4953   6.777   4.543   7.279  0.9231 -0.9566  2.5752
   38MOL0     H 4954   6.727   4.724   7.248  1.7164  0.7356 -1.9750
   38MOL0     H 4955   6.822   4.595   7.502 -0.1131 -3.3336 -2.0245
   38MOL0     H 4956   6.652   4.593   7.459  1.0042 -2.7312 -2.4201
   38MOL0     H 4957   6.643   4.836   7.452 -0.4024 -0.8280 -0.0718
   38MOL0     H 4958   6.812   4.857   7.480 -0.7816  0.3614 -0.9456
   38MOL0     H 4959   6.596   4.709   7.656  0.5464  0.4710 -0.8099
   38MOL0     H 4960   6.769   4.700   7.690  1.5744 -0.0135 -2.1495
   38MOL0     H 4961   6.587   4.937   7.671  1.2182  1.5159 -0.5781
   38MOL0     H 4962   6.753   4.954   7.733 -1.1173  1.5714  1.7487
   38MOL0     H 4963   6.691   4.789   7.918 -1.3754 -1.0249  1.6826
   38MOL0     H 4964   6.520   4.808   7.880  0.5249  0.6512  1.6380
   38MOL0     H 4965   6.612   4.967   8.078  0.3898 -0.7702 -0.2643
   38MOL0     H 4966   6.694   5.048   7.956 -1.2020  0.2984 -0.8482
   38MOL0     H 4967   6.456   5.076   7.831  0.2732  3.5886  0.1016
   38MOL0     H 4968   6.472   5.165   7.986 -0.2176 -1.3307  4.7313
   38MOL0     H 4969   6.432   4.945   8.182  0.9317 -0.1290 -1.7118
   38MOL0     H 4970   6.049   4.864   8.256 -0.8534 -1.9259  1.8442
   38MOL0     H 4971   6.196   4.914   8.339 -0.4976 -1.9527  1.0348
   38MOL0     H 4972   6.297   4.688   8.271  0.0821 -1.9332 -1.6029
   38MOL0     H 4973   6.145   4.649   8.190  0.9774  0.1803 -0.2785
   38MOL0     H 4974   6.210   4.660   8.476 -0.2553  2.1982 -0.8577
   38MOL0     H 4975   6.042   4.687   8.431  0.2381  0.4320 -0.5152
   38MOL0     H 4976   6.225   4.449   8.372  0.0429  2.3833 -0.2142
   38MOL0     H 4977   6.066   4.472   8.301  1.3297  4.3637 -2.4137
   38MOL0     H 4978   6.002   4.276   8.719 -2.4277 -2.1796 -0.9300
   38MOL0     H 4979   6.022   4.030   8.732 -1.5741 -0.0166  0.3498
   38MOL0     H 4980   6.299   3.707   8.575 -3.6143  0.7752  1.0042
   38MOL0     H 4981   6.412   3.506   8.539  2.4935  1.7287 -2.4943
   38MOL0     H 4982   6.321   3.264   8.160  1.8608 -0.7146  0.3885
   38MOL0     H 4983   6.198   3.203   8.272 -0.6242  2.2235 -0.5997
   38MOL0     H 4984   6.335   3.003   8.244  0.1012 -0.6952  0.0101
   38MOL0     H 4985   6.431   3.074   8.375  0.1991 -1.5127  0.1328
   38MOL0     H 4986   6.542   3.210   8.160 -0.4267 -0.0368  0.3453
   38MOL0     H 4987   6.452   3.094   8.074 -1.5408 -0.1967  0.8864
   38MOL0     H 4988   6.654   3.030   8.301 -1.1842  1.2544  0.5271
   38MOL0     H 4989   6.576   2.908   8.203  0.1246 -0.0929  0.9204
   38MOL0     H 4990   6.794   3.134   8.155  0.0132  0.9153 -2.5478
   38MOL0     H 4991   6.710   3.074   8.020 -2.5961  1.9683  1.9000
   38MOL0     H 4992   6.792   2.833   8.073  0.3812 -1.2761  1.3287
   38MOL0     H 4993   6.845   2.898   8.224  0.4743  0.3664  0.3853
   38MOL0     H 4994   6.954   2.994   7.947  0.8627 -1.4301 -0.1062
   38MOL0     H 4995   7.019   3.042   8.108  1.7392  1.6455 -3.0886
   38MOL0     H 4996   7.037   2.793   7.964 -1.3751 -0.2180  0.7977
   38MOL0     H 4997   7.018   2.778   8.143 -1.0181  0.2753 -0.4313
   38MOL0     H 4998   6.141   3.415   8.204  0.0299 -1.5943  1.0296
   38MOL0     H 4999   6.057   3.638   8.231 -0.8273 -0.2849  1.0436
   38MOL0     H 5000   6.134   4.020   8.323  0.6452 -3.1760  2.5451
   38MOL0     H 5001   6.115   4.266   8.316 -0.4136  2.2764  0.4202
   38MOL0     H 5002   7.070   4.760   7.108 -2.1618 -1.3601 -2.1650
   38MOL0     H 5003   7.246   4.609   6.996 -0.0824 -0.7661  0.0932
   38MOL0     H 5004   7.420   4.320   6.804  0.6749  1.3393 -0.4085
   38MOL0     H 5005   7.624   4.247   6.676 -0.9816 -1.5473  0.1151
   38MOL0     H 5006   7.796   4.305   6.589 -2.1842  0.2794  0.7054
   38MOL0     H 5007   7.841   4.139   6.573 -0.3098  1.0372 -0.7498
   38MOL0     H 5008   8.042   4.351   6.664  0.1083  1.4615 -1.6898
   38MOL0     H 5009   8.074   4.184   6.620 -0.6728 -0.6987 -0.7090
   38MOL0     H 5010   7.965   4.410   6.430  1.2464  0.5700  0.9196
   38MOL0     H 5011   8.001   4.254   6.377  1.9884 -0.4839 -1.8928
   38MOL0     H 5012   8.223   4.422   6.496 -1.3851  1.3315 -0.5086
   38MOL0     H 5013   8.225   4.260   6.405 -0.6645 -1.1726  0.2576
   38MOL0     H 5014   8.220   4.535   6.081  0.1185 -1.6253 -1.1724
   38MOL0     H 5015   7.846   4.206   7.036  1.9567  0.8501 -3.0082
   38MOL0     H 5016   7.652   4.247   7.166  2.2597 -1.7177 -0.1414
   39MOL0     O 5017   0.887   7.262   9.026  0.6958  0.1098  0.1376
   39MOL0     C 5018   0.861   7.194   9.126  0.3551  0.7400  0.3276
   39MOL0     O 5019   0.955   7.151   9.223  0.8412  0.0943 -0.3391
   39MOL0     C 5020   1.086   7.174   9.197 -0.4154 -0.2669  0.1732
   39MOL0     C 5021   1.162   7.226   9.297 -0.7336  0.2767 -0.1852
   39MOL0     C 5022   1.300   7.258   9.288 -0.2472  0.4042 -0.1701
   39MOL0     C 5023   1.360   7.235   9.160 -1.4097 -1.1694  0.2069
   39MOL0     O 5024   1.493   7.276   9.153 -0.2321  0.2787 -0.1925
   39MOL0     C 5025   1.556   7.242   9.030  0.0550  1.0084 -0.6870
   39MOL0     C 5026   1.702   7.300   9.015  0.1745  0.1262  0.2184
   39MOL0     C 5027   1.715   7.452   9.022  0.2190 -0.1514 -0.1026
   39MOL0     C 5028   1.862   7.492   8.983 -0.9949 -0.7695  0.1261
   39MOL0     C 5029   1.906   7.449   8.847 -0.1698  0.1151 -0.3134
   39MOL0     C 5030   1.992   7.563   8.781  0.7769 -0.9393  0.3101
   39MOL0     C 5031   2.033   7.545   8.637 -0.4382 -0.2013  0.0284
   39MOL0     C 5032   2.085   7.682   8.584  0.5501  0.2919  0.6521
   39MOL0     N 5033   1.977   7.777   8.551 -0.0861 -0.1290  0.9877
   39MOL0     C 5034   1.908   7.777   8.431  1.1922  0.5617  0.5696
   39MOL0     C 5035   1.836   7.892   8.426 -0.3589  0.3371 -0.4425
   39MOL0     C 5036   1.759   7.946   8.313  0.7136  0.4318  0.9273
   39MOL0     C 5037   1.622   7.877   8.316  0.6850 -0.0077  0.4211
   39MOL0     C 5038   1.542   7.917   8.199  0.4323  0.5153  1.0608
   39MOL0     C 5039   1.403   7.846   8.207 -0.0566 -0.4997  0.6172
   39MOL0     O 5040   1.310   7.897   8.106 -0.1258  0.1235  0.3647
   39MOL0     C 5041   1.177   7.853   8.101 -0.4114  0.0360 -0.6189
   39MOL0     C 5042   1.137   7.736   8.175 -1.5575 -0.0783  0.9260
   39MOL0     C 5043   0.997   7.692   8.152  0.6712 -0.3833 -0.4468
   39MOL0     C 5044   0.906   7.775   8.080  0.5961 -0.5412  0.2289
   39MOL0     C 5045   0.764   7.730   8.079 -0.6782 -0.6511 -0.0954
   39MOL0     O 5046   0.680   7.791   7.991 -0.2015 -0.0481  0.5109
   39MOL0     C 5047   0.545   7.753   7.989 -0.6080  0.6688 -0.0281
   39MOL0     C 5048   0.503   7.642   7.915 -0.3384 -0.2311  0.8644
   39MOL0     C 5049   0.367   7.593   7.916 -0.7680  1.0365 -0.3269
   39MOL0     C 5050   0.272   7.644   8.005 -1.2767 -0.6065 -0.2646
   39MOL0     O 5051   0.154   7.575   8.018 -0.3099 -0.4142 -0.8052
   39MOL0     C 5052   0.054   7.643   8.099 -0.3260 -0.5841  0.4082
   39MOL0     C 5053  -0.073   7.555   8.099 -0.2630 -0.8326  0.2609
   39MOL0     C 5054  -0.175   7.588   8.209  0.4000  0.3860  0.0674
   39MOL0     C 5055  -0.301   7.489   8.200 -0.0263 -0.6692 -0.6118
   39MOL0     C 5056  -0.414   7.546   8.296 -0.3503 -0.0646  0.0216
   39MOL0     C 5057  -0.549   7.475   8.257  0.5415  0.5100  0.7603
   39MOL0     C 5058  -0.667   7.502   8.348  0.3891  1.1941  0.3567
   39MOL0     C 5059  -0.780   7.394   8.345 -0.0690  0.0592  0.4827
   39MOL0    Cl 5060  -0.728   7.242   8.415 -0.1678 -0.4130 -0.2005
   39MOL0     C 5061   0.324   7.740   8.092 -0.6383 -1.3765 -0.7539
   39MOL0     C 5062   0.450   7.800   8.076 -0.4409 -0.6344 -0.1950
   39MOL0     O 5063   0.726   7.647   8.162  0.1649 -0.6094 -0.4181
   39MOL0     C 5064   0.951   7.899   8.030  0.3055  0.1833 -0.8884
   39MOL0     C 5065   1.080   7.938   8.044 -0.7695  0.2938  0.8684
   39MOL0     N 5066   1.862   7.958   8.549  0.3472 -0.3218 -0.3034
   39MOL0     N 5067   1.942   7.884   8.623  0.0486 -0.6047  0.4304
   39MOL0     C 5068   1.280   7.183   9.055  0.5068 -0.2081  0.4267
   39MOL0     C 5069   1.143   7.156   9.074 -0.8393 -0.3237 -0.0691
   39MOL0     C 5070   0.727   7.161   9.149  0.3564  0.4225  0.7515
   39MOL0     C 5071   0.631   7.172   9.043 -0.8245  0.1528  0.6664
   39MOL0     C 5072   0.515   7.111   9.053  0.8110 -0.2520  0.5280
   39MOL0     C 5073   0.467   7.048   9.172  0.2208 -0.2078  0.5080
   39MOL0     O 5074   0.341   6.982   9.175 -0.2956 -0.2444 -0.1727
   39MOL0     C 5075   0.263   7.011   9.295  0.9306  0.5737  0.2777
   39MOL0     C 5076   0.116   6.978   9.261 -0.2584 -0.5356  0.1774
   39MOL0     C 5077   0.033   7.025   9.379  0.5875  0.6735  0.6682
   39MOL0     C 5078  -0.115   7.008   9.342  0.7502 -0.3465  0.1285
   39MOL0     C 5079  -0.188   7.045   9.458 -0.0383  0.1369 -0.5428
   39MOL0     C 5080  -0.241   7.079   9.564 -0.0584  1.2321 -0.2826
   39MOL0     C 5081   0.553   7.048   9.278  0.1177 -0.4528  0.6188
   39MOL0     C 5082   0.682   7.102   9.266 -0.3732  0.0566  0.3562
   39MOL0     H 5083   1.112   7.242   9.392 -2.0429 -0.0831 -0.7892
   39MOL0     H 5084   1.353   7.297   9.374  0.7543  0.9040 -0.9806
   39MOL0     H 5085   1.512   7.291   8.942 -1.6244  0.7788 -0.0117
   39MOL0     H 5086   1.572   7.135   9.021  2.1160  1.2134  0.1090
   39MOL0     H 5087   1.751   7.258   8.927 -1.9118 -0.9977 -0.4719
   39MOL0     H 5088   1.765   7.264   9.097  2.2912 -0.3788 -1.5496
   39MOL0     H 5089   1.702   7.485   9.125 -0.6284  0.3048 -0.3449
   39MOL0     H 5090   1.645   7.508   8.959  1.1500  3.2285  1.6278
   39MOL0     H 5091   1.875   7.600   8.994 -2.5214 -0.4974 -0.4733
   39MOL0     H 5092   1.927   7.443   9.057  0.9535 -1.0237 -1.6813
   39MOL0     H 5093   1.818   7.436   8.783  0.2283  0.5646 -0.9683
   39MOL0     H 5094   1.956   7.353   8.853  2.0331  1.0459 -2.0268
   39MOL0     H 5095   2.086   7.588   8.832  1.2223  2.9103 -1.9303
   39MOL0     H 5096   1.928   7.651   8.773  2.0287 -0.1318 -1.4831
   39MOL0     H 5097   2.117   7.475   8.632 -0.5959 -0.4111  0.2865
   39MOL0     H 5098   1.953   7.509   8.572  0.5811  0.4493 -1.6703
   39MOL0     H 5099   2.154   7.665   8.501  0.3423  1.0603  0.3153
   39MOL0     H 5100   2.146   7.722   8.666  2.6664 -0.7077 -0.3808
   39MOL0     H 5101   1.921   7.712   8.345  0.4794  0.2713  0.6777
   39MOL0     H 5102   1.815   7.913   8.226 -1.9936 -2.4858  0.1079
   39MOL0     H 5103   1.749   8.055   8.317  4.0652  0.9732 -1.5042
   39MOL0     H 5104   1.562   7.901   8.405 -1.0947  0.9646 -0.9660
   39MOL0     H 5105   1.644   7.770   8.309  0.1364 -0.1651  0.9984
   39MOL0     H 5106   1.527   8.025   8.215  0.0199  0.7984 -0.9575
   39MOL0     H 5107   1.596   7.902   8.105 -0.6880  1.2440  0.2730
   39MOL0     H 5108   1.350   7.872   8.300  0.5862  3.9140  0.0011
   39MOL0     H 5109   1.419   7.738   8.204  0.9742 -0.3428 -2.0827
   39MOL0     H 5110   1.198   7.659   8.220 -0.9975 -0.0214  0.2748
   39MOL0     H 5111   0.963   7.602   8.201  1.1239 -0.3646 -0.0865
   39MOL0     H 5112   0.565   7.593   7.840 -0.3250  2.3304 -0.9160
   39MOL0     H 5113   0.337   7.502   7.864 -0.8178  1.4377 -1.0072
   39MOL0     H 5114   0.024   7.741   8.060  0.2219 -0.5188  0.1424
   39MOL0     H 5115   0.091   7.669   8.199 -1.1698  1.5601  0.2270
   39MOL0     H 5116  -0.035   7.453   8.112  0.6935 -0.5290 -0.0870
   39MOL0     H 5117  -0.122   7.568   8.003 -1.3199  1.4124  1.0320
   39MOL0     H 5118  -0.221   7.683   8.180 -0.0097 -0.1081 -0.9540
   39MOL0     H 5119  -0.132   7.577   8.309 -0.6090  0.8230  0.5623
   39MOL0     H 5120  -0.332   7.481   8.096  1.8007  2.4342 -1.5315
   39MOL0     H 5121  -0.278   7.388   8.235  1.0281  0.0560  0.9199
   39MOL0     H 5122  -0.436   7.653   8.292 -1.9151 -0.3829 -0.8422
   39MOL0     H 5123  -0.375   7.516   8.394 -1.3841 -0.2823  0.3786
   39MOL0     H 5124  -0.520   7.370   8.264  0.5793  0.5094  0.6019
   39MOL0     H 5125  -0.571   7.496   8.152  1.1875 -0.8076  0.3297
   39MOL0     H 5126  -0.634   7.506   8.452  1.4648  1.8594  0.0001
   39MOL0     H 5127  -0.715   7.596   8.320 -1.5061 -0.2272 -1.5166
   39MOL0     H 5128  -0.815   7.379   8.243  1.9754 -1.1181 -0.1099
   39MOL0     H 5129  -0.863   7.438   8.401  1.1553  2.6734  0.3805
   39MOL0     H 5130   0.256   7.779   8.167  0.2879  0.5176 -0.8515
   39MOL0     H 5131   0.488   7.881   8.138 -3.1329  2.9349 -2.7807
   39MOL0     H 5132   0.879   7.959   7.975  0.6507  0.4835 -1.0149
   39MOL0     H 5133   1.120   8.019   7.983  0.6402 -0.4678  0.7442
   39MOL0     H 5134   1.327   7.173   8.958  2.6434 -0.8343  1.4663
   39MOL0     H 5135   1.098   7.116   8.983  1.2915 -0.2033 -1.2415
   39MOL0     H 5136   0.650   7.227   8.951  0.5023  2.4759  2.2236
   39MOL0     H 5137   0.438   7.120   8.976  0.4161  1.7153  1.1107
   39MOL0     H 5138   0.269   7.120   9.305 -1.7925  0.7450  1.1129
   39MOL0     H 5139   0.298   6.956   9.383 -0.8949  1.1505  1.4332
   39MOL0     H 5140   0.092   7.034   9.170 -0.5196 -0.4482  0.3023
   39MOL0     H 5141   0.097   6.873   9.237 -0.2688 -0.5347  0.1826
   39MOL0     H 5142   0.050   7.132   9.392  2.5148  0.1232  3.2720
   39MOL0     H 5143   0.065   6.969   9.467 -0.0939 -0.0256  0.4857
   39MOL0     H 5144  -0.150   7.069   9.258 -2.3003 -1.4824  0.4311
   39MOL0     H 5145  -0.131   6.903   9.315 -0.4861  0.0630 -0.8414
   39MOL0     H 5146  -0.290   7.115   9.652  0.0255 -0.3779  0.4443
   39MOL0     H 5147   0.527   6.995   9.369 -4.4398 -0.1837 -0.2723
   39MOL0     H 5148   0.761   7.084   9.339 -0.2172  0.5747  0.3207
   40MOL0     O 5149   4.819   7.457   6.743  0.0876 -0.7177  0.3912
   40MOL0     C 5150   4.842   7.437   6.862  0.0600 -0.0374 -0.4777
   40MOL0     O 5151   4.736   7.438   6.955  0.2743  0.6622 -0.5982
   40MOL0     C 5152   4.609   7.470   6.921  0.5098 -0.1250 -0.6216
   40MOL0     C 5153   4.492   7.411   6.984  0.0151  0.2192  0.1827
   40MOL0     C 5154   4.361   7.452   6.950  0.5317  0.3817 -0.6680
   40MOL0     C 5155   4.330   7.561   6.870  0.6430 -1.4189  0.5502
   40MOL0     O 5156   4.200   7.603   6.842 -0.6574 -0.2506  0.1214
   40MOL0     C 5157   4.096   7.538   6.921  0.2419 -0.3258  1.1163
   40MOL0     C 5158   3.950   7.582   6.893  0.0066 -0.0746 -0.1034
   40MOL0     C 5159   3.847   7.527   6.993 -0.1940 -0.2392 -0.2463
   40MOL0     C 5160   3.702   7.574   6.953 -0.6015 -0.3060  0.0002
   40MOL0     C 5161   3.586   7.492   7.016 -0.0053  0.0089 -0.5818
   40MOL0     C 5162   3.454   7.571   7.024 -0.4657  1.0564  0.8605
   40MOL0     C 5163   3.358   7.529   7.135  0.2929  0.3449  0.6324
   40MOL0     C 5164   3.244   7.624   7.133 -0.2171 -0.2774 -0.3260
   40MOL0     N 5165   3.146   7.595   7.236 -0.5969  0.2779 -0.0954
   40MOL0     C 5166   3.011   7.597   7.225  0.1204 -0.6654  0.0405
   40MOL0     C 5167   2.968   7.574   7.355  0.2875 -0.2269  1.3598
   40MOL0     C 5168   2.833   7.608   7.412 -0.0516  1.1677 -0.1963
   40MOL0     C 5169   2.799   7.522   7.547 -0.3640  0.2657  0.3956
   40MOL0     C 5170   2.685   7.585   7.622 -0.6267  0.7256  0.3617
   40MOL0     C 5171   2.560   7.549   7.540 -0.0058  0.1873  0.5157
   40MOL0     O 5172   2.448   7.576   7.618 -0.3688 -0.2506  0.8913
   40MOL0     C 5173   2.332   7.582   7.549 -0.9127  0.1485  0.8871
   40MOL0     C 5174   2.240   7.687   7.574  0.0215  0.7708  0.1333
   40MOL0     C 5175   2.123   7.695   7.496  0.2875  0.6551  0.3268
   40MOL0     C 5176   2.077   7.602   7.406  0.3504 -0.6128  0.4215
   40MOL0     C 5177   1.943   7.610   7.345  0.6074  0.7442 -0.3657
   40MOL0     O 5178   1.843   7.609   7.434  0.2239  0.8880  0.0368
   40MOL0     C 5179   1.716   7.622   7.377  0.6183 -0.1255 -0.1169
   40MOL0     C 5180   1.658   7.520   7.296 -0.3115  0.5535  0.2859
   40MOL0     C 5181   1.527   7.540   7.248 -0.3744  0.3857  0.0458
   40MOL0     C 5182   1.467   7.667   7.256  0.6168 -0.2862 -0.6763
   40MOL0     O 5183   1.343   7.697   7.197 -0.1588 -0.2086 -0.4249
   40MOL0     C 5184   1.281   7.587   7.138 -0.1876 -0.0712  0.0011
   40MOL0     C 5185   1.129   7.616   7.112  0.5802  0.0816 -0.0677
   40MOL0     C 5186   1.032   7.497   7.058 -0.4787  0.4105  1.2517
   40MOL0     C 5187   0.885   7.544   7.024  0.0345 -0.8925 -0.2049
   40MOL0     C 5188   0.812   7.621   7.131  0.6696 -0.0152 -0.5958
   40MOL0     C 5189   0.762   7.552   7.250  0.3409  0.4477 -0.4113
   40MOL0     C 5190   0.662   7.434   7.225 -0.4358  0.0009  0.1993
   40MOL0     C 5191   0.675   7.322   7.332  0.1319  0.1751 -0.7711
   40MOL0    Cl 5192   0.627   7.157   7.259  0.1589 -0.3890 -0.3605
   40MOL0     C 5193   1.525   7.767   7.341 -0.6901  0.4666 -0.7494
   40MOL0     C 5194   1.648   7.739   7.408  0.2670  0.1977 -0.5026
   40MOL0     O 5195   1.939   7.621   7.219  0.5787  0.2414  0.4331
   40MOL0     C 5196   2.173   7.508   7.373  0.0736  0.5318  0.4558
   40MOL0     C 5197   2.293   7.489   7.446 -0.1243 -0.0998  0.4525
   40MOL0     N 5198   3.074   7.532   7.432  0.0681 -0.1879  0.1006
   40MOL0     N 5199   3.176   7.530   7.358  0.1963  0.3875 -0.7144
   40MOL0     C 5200   4.440   7.628   6.806 -0.1240  0.8604  0.4521
   40MOL0     C 5201   4.574   7.574   6.834  0.4849  0.9723  0.6077
   40MOL0     C 5202   4.981   7.410   6.907  0.1752 -0.7670 -0.2080
   40MOL0     C 5203   5.012   7.339   7.025  0.5485 -0.0287 -0.1439
   40MOL0     C 5204   5.145   7.324   7.065  0.2542 -0.1474  0.1796
   40MOL0     C 5205   5.244   7.349   6.978 -0.0731 -1.0948  1.0956
   40MOL0     O 5206   5.368   7.334   7.019 -0.2921  0.2623  0.3778
   40MOL0     C 5207   5.478   7.334   6.931  0.2731 -0.5929  0.1243
   40MOL0     C 5208   5.601   7.293   7.013 -0.5596 -0.4909  0.7661
   40MOL0     C 5209   5.599   7.140   7.017 -0.5545 -0.1462  0.0178
   40MOL0     C 5210   5.611   7.065   6.884  0.2178  0.5327 -0.7457
   40MOL0     C 5211   5.745   7.059   6.847 -0.4164 -0.2425  0.3251
   40MOL0     C 5212   5.864   7.057   6.809  0.7072  0.8911 -0.2479
   40MOL0     C 5213   5.223   7.417   6.860 -0.2272 -0.2920 -0.1528
   40MOL0     C 5214   5.089   7.451   6.830 -0.2664 -0.0633  0.0303
   40MOL0     H 5215   4.503   7.340   7.065  1.3722  0.9778  0.6994
   40MOL0     H 5216   4.287   7.392   7.002  0.4476 -0.1440 -1.3904
   40MOL0     H 5217   4.115   7.574   7.023  0.4030 -0.1113  1.0126
   40MOL0     H 5218   4.095   7.429   6.914 -1.2620 -0.1978 -1.6898
   40MOL0     H 5219   3.917   7.550   6.794 -0.4134 -0.0439  0.0260
   40MOL0     H 5220   3.959   7.690   6.880  3.9596 -0.4943 -2.8566
   40MOL0     H 5221   3.879   7.558   7.093 -0.2609 -1.6443  0.2325
   40MOL0     H 5222   3.853   7.418   6.979  0.7767 -0.1503 -0.6514
   40MOL0     H 5223   3.701   7.680   6.982  0.1718 -1.3587  4.5010
   40MOL0     H 5224   3.693   7.567   6.844 -1.7046 -0.6086  0.1007
   40MOL0     H 5225   3.620   7.467   7.117 -1.0915  0.9034  0.0262
   40MOL0     H 5226   3.580   7.398   6.960  1.5740 -1.3164  1.3157
   40MOL0     H 5227   3.400   7.566   6.930 -0.6192 -0.4861  1.0045
   40MOL0     H 5228   3.480   7.677   7.038 -1.2335  1.5261 -0.9187
   40MOL0     H 5229   3.326   7.427   7.115  0.1421  0.0988  2.0291
   40MOL0     H 5230   3.404   7.554   7.231 -1.0527  0.4214  1.2682
   40MOL0     H 5231   3.195   7.622   7.035 -0.3461 -0.6190 -0.2552
   40MOL0     H 5232   3.294   7.721   7.145  0.2051 -0.4101 -0.9138
   40MOL0     H 5233   2.957   7.634   7.138  0.7609 -1.8339 -0.8873
   40MOL0     H 5234   2.756   7.573   7.343 -1.2953 -0.2330  1.7929
   40MOL0     H 5235   2.828   7.715   7.436 -1.3310  1.0958 -0.0608
   40MOL0     H 5236   2.885   7.541   7.612  0.3530  1.8052 -0.9194
   40MOL0     H 5237   2.795   7.420   7.509  0.1578  0.7910 -1.1348
   40MOL0     H 5238   2.685   7.546   7.724  1.0887  0.2777  0.2279
   40MOL0     H 5239   2.705   7.692   7.624 -0.1109  0.6863 -1.4070
   40MOL0     H 5240   2.564   7.443   7.512 -2.3538  0.3725 -0.7471
   40MOL0     H 5241   2.561   7.613   7.451  0.7229  0.3119  0.6077
   40MOL0     H 5242   2.253   7.763   7.651  0.4280 -0.6669  1.5588
   40MOL0     H 5243   2.056   7.777   7.517 -1.6517 -0.3267 -1.5576
   40MOL0     H 5244   1.708   7.429   7.264  1.9769  2.1582 -1.0174
   40MOL0     H 5245   1.491   7.459   7.186 -2.6325  1.5975 -0.3608
   40MOL0     H 5246   1.286   7.508   7.214 -0.7052  0.6503  0.7937
   40MOL0     H 5247   1.335   7.545   7.053  1.3539  3.7586 -1.1209
   40MOL0     H 5248   1.141   7.702   7.046  2.1632  2.5876  3.2188
   40MOL0     H 5249   1.089   7.650   7.208  0.6125 -0.2819  0.0758
   40MOL0     H 5250   1.030   7.426   7.141  2.6664 -0.6344  0.5586
   40MOL0     H 5251   1.067   7.440   6.972  0.2775  2.1574  0.3437
   40MOL0     H 5252   0.896   7.604   6.933 -0.5256 -0.9142 -0.2932
   40MOL0     H 5253   0.823   7.462   6.987  0.0943 -0.2792 -1.7449
   40MOL0     H 5254   0.724   7.657   7.077 -0.8959 -0.6725  1.4107
   40MOL0     H 5255   0.873   7.712   7.134  3.0731 -1.5519 -0.3986
   40MOL0     H 5256   0.710   7.617   7.322 -1.2147  1.2778 -2.2140
   40MOL0     H 5257   0.852   7.504   7.290  0.2231 -1.0526 -1.8426
   40MOL0     H 5258   0.557   7.466   7.236 -1.5280 -3.2555  0.1924
   40MOL0     H 5259   0.680   7.393   7.126 -1.0987  1.2136 -0.4600
   40MOL0     H 5260   0.618   7.338   7.423  3.1686 -0.5363  1.4146
   40MOL0     H 5261   0.776   7.311   7.373 -0.3336  2.3070  1.1137
   40MOL0     H 5262   1.486   7.864   7.371  1.4945  0.5240  2.5386
   40MOL0     H 5263   1.679   7.814   7.481 -2.2481  1.5793 -0.7250
   40MOL0     H 5264   2.152   7.430   7.299  4.5351 -1.3259  0.8408
   40MOL0     H 5265   2.351   7.406   7.409 -1.6480  0.0212 -2.4375
   40MOL0     H 5266   4.428   7.709   6.734  1.0186 -0.1559 -0.9411
   40MOL0     H 5267   4.654   7.615   6.774  1.1459  1.1426  1.5862
   40MOL0     H 5268   4.930   7.298   7.082 -0.1053  0.5222 -0.6642
   40MOL0     H 5269   5.164   7.285   7.165  0.6547 -1.3884 -0.3644
   40MOL0     H 5270   5.485   7.434   6.886 -0.2458 -0.4813  0.2816
   40MOL0     H 5271   5.452   7.270   6.847 -0.3381  3.0271 -2.7234
   40MOL0     H 5272   5.684   7.331   6.952 -1.2346 -1.0789 -0.5567
   40MOL0     H 5273   5.603   7.338   7.112 -2.7044 -0.4008  0.7969
   40MOL0     H 5274   5.507   7.100   7.059 -0.9198  0.8639  0.2198
   40MOL0     H 5275   5.675   7.109   7.089 -1.4659 -2.0216  0.2210
   40MOL0     H 5276   5.589   6.961   6.913  2.6653 -0.0072 -0.6005
   40MOL0     H 5277   5.550   7.093   6.798 -0.0381  2.4402  0.0041
   40MOL0     H 5278   5.962   7.067   6.767  0.7301 -1.0167 -0.7535
   40MOL0     H 5279   5.292   7.449   6.783 -2.0104  3.5714 -0.3702
   40MOL0     H 5280   5.056   7.492   6.735 -2.6940 -3.7156 -0.9187
   41MOL0     O 5281   5.545   6.696   7.325 -0.0090  0.5430  0.4444
   41MOL0     C 5282   5.568   6.653   7.440 -0.2872 -0.3127  0.2862
   41MOL0     O 5283   5.473   6.647   7.540 -0.0993  0.4101  0.6460
   41MOL0     C 5284   5.341   6.669   7.509 -0.1813 -0.8652  0.4713
   41MOL0     C 5285   5.262   6.688   7.620 -0.2602 -0.5676 -0.3519
   41MOL0     C 5286   5.121   6.684   7.609  0.7893  0.5135  0.5622
   41MOL0     C 5287   5.057   6.670   7.486  0.4950 -0.3070  0.2445
   41MOL0     O 5288   4.923   6.673   7.461  0.1828  0.4129 -0.0467
   41MOL0     C 5289   4.826   6.639   7.561 -0.8196 -0.2758 -0.0851
   41MOL0     C 5290   4.696   6.704   7.515 -0.2616  0.3107  0.0998
   41MOL0     C 5291   4.579   6.649   7.588 -0.8003 -0.6575  0.5651
   41MOL0     C 5292   4.442   6.689   7.536  0.3964  0.5373  0.2030
   41MOL0     C 5293   4.424   6.633   7.395  0.4905  0.5899  1.3777
   41MOL0     C 5294   4.283   6.651   7.342  0.1298 -0.9383  0.3193
   41MOL0     C 5295   4.250   6.578   7.213  0.0323  0.8222 -0.9597
   41MOL0     C 5296   4.099   6.605   7.186 -0.1599  0.0673  0.4222
   41MOL0     N 5297   4.056   6.542   7.057 -0.6992  0.7116 -0.1699
   41MOL0     C 5298   4.000   6.612   6.957  0.0565  0.5523 -0.0794
   41MOL0     C 5299   3.949   6.516   6.879  1.1214  0.7645 -0.4159
   41MOL0     C 5300   3.861   6.546   6.762  0.2463  0.1852 -0.3554
   41MOL0     C 5301   3.756   6.446   6.751  0.4532  0.8982  0.4153
   41MOL0     C 5302   3.650   6.485   6.642  0.2825 -0.1374  0.0181
   41MOL0     C 5303   3.534   6.575   6.698  0.0413 -0.3332  0.6093
   41MOL0     O 5304   3.446   6.507   6.791 -0.2401 -0.3280 -0.1901
   41MOL0     C 5305   3.328   6.562   6.827 -0.1617 -0.1767  0.1518
   41MOL0     C 5306   3.235   6.494   6.908 -0.0388 -0.2232  0.3865
   41MOL0     C 5307   3.108   6.546   6.945  0.3477  0.9003  0.7224
   41MOL0     C 5308   3.066   6.676   6.898 -0.8104 -0.2680 -0.5186
   41MOL0     C 5309   2.932   6.735   6.924  0.3981 -0.6872  0.1671
   41MOL0     O 5310   2.905   6.864   6.879  0.1860  0.2376 -0.2931
   41MOL0     C 5311   2.776   6.918   6.892 -0.0278 -0.0201  0.4141
   41MOL0     C 5312   2.665   6.879   6.967 -0.0931  0.1877 -0.3930
   41MOL0     C 5313   2.547   6.960   6.972  0.1236 -0.3500 -0.8173
   41MOL0     C 5314   2.532   7.082   6.894 -0.1516  1.0666 -0.7775
   41MOL0     O 5315   2.417   7.161   6.892 -0.7950 -0.9216 -0.5536
   41MOL0     C 5316   2.313   7.128   6.981 -0.3212 -0.0066 -0.3305
   41MOL0     C 5317   2.186   7.213   6.954 -0.1289 -0.2444  0.3243
   41MOL0     C 5318   2.156   7.198   6.804 -1.0203  0.1902  0.8247
   41MOL0     C 5319   2.020   7.254   6.767 -0.1961  0.0769  0.0997
   41MOL0     C 5320   1.986   7.280   6.623  0.2317  0.3455  0.4442
   41MOL0     C 5321   1.854   7.352   6.615 -0.7713 -0.4621  0.7549
   41MOL0     C 5322   1.775   7.365   6.479  0.7382 -0.5339  0.1217
   41MOL0     C 5323   1.621   7.384   6.497  0.1345  0.4428  0.0911
   41MOL0    Cl 5324   1.550   7.392   6.330  0.1032 -0.2426  0.6833
   41MOL0     C 5325   2.647   7.111   6.815  0.6046 -0.2188  0.1137
   41MOL0     C 5326   2.762   7.027   6.810  0.1329 -1.0306 -1.3041
   41MOL0     O 5327   2.853   6.657   6.977  0.1065 -0.3698 -0.4927
   41MOL0     C 5328   3.162   6.746   6.824  0.1320 -0.7168 -0.1999
   41MOL0     C 5329   3.282   6.689   6.784 -0.1779  0.6640 -0.1321
   41MOL0     N 5330   3.968   6.393   6.936  0.6385  0.4734  0.4487
   41MOL0     N 5331   4.033   6.410   7.047  0.5651 -0.0430  0.0137
   41MOL0     C 5332   5.137   6.660   7.375 -0.2088 -0.1418 -0.8763
   41MOL0     C 5333   5.277   6.654   7.383  1.0511 -0.4479 -0.0672
   41MOL0     C 5334   5.695   6.599   7.467 -0.7273 -0.4059 -0.4501
   41MOL0     C 5335   5.757   6.596   7.592 -0.0306  0.0064 -0.0916
   41MOL0     C 5336   5.881   6.537   7.619 -0.4863  1.1606 -0.0308
   41MOL0     C 5337   5.948   6.483   7.511  0.3755  0.3192 -0.3824
   41MOL0     O 5338   6.074   6.428   7.534  0.0354 -0.1072 -0.5435
   41MOL0     C 5339   6.175   6.432   7.431  0.1750 -0.0882 -0.1927
   41MOL0     C 5340   6.315   6.407   7.500 -0.4523 -0.1804  0.6314
   41MOL0     C 5341   6.323   6.274   7.576 -0.0364  0.2874 -0.4882
   41MOL0     C 5342   6.442   6.184   7.537 -0.5233  1.1881  0.6145
   41MOL0     C 5343   6.472   6.181   7.392  0.1907  0.6211  0.3581
   41MOL0     C 5344   6.501   6.179   7.273  0.1873  0.1745  0.2044
   41MOL0     C 5345   5.890   6.480   7.388  0.4572  0.2453  0.4099
   41MOL0     C 5346   5.765   6.541   7.364 -1.0000  0.7070 -0.2587
   41MOL0     H 5347   5.309   6.696   7.718  0.4435 -0.4253 -0.6961
   41MOL0     H 5348   5.067   6.702   7.701  0.0592 -4.4718  1.3960
   41MOL0     H 5349   4.849   6.683   7.659  0.5685 -0.8068 -0.1377
   41MOL0     H 5350   4.834   6.530   7.571  0.6977 -0.0192  2.4628
   41MOL0     H 5351   4.696   6.681   7.408  1.0651 -4.0116  0.8496
   41MOL0     H 5352   4.701   6.814   7.519  1.0366  0.2212  2.0093
   41MOL0     H 5353   4.583   6.658   7.697 -1.2019 -1.4535  0.6541
   41MOL0     H 5354   4.596   6.543   7.569 -0.2798 -0.9870  2.5649
   41MOL0     H 5355   4.369   6.641   7.602  1.7243 -2.6607 -0.4653
   41MOL0     H 5356   4.440   6.798   7.532  0.3081  0.6241  1.9032
   41MOL0     H 5357   4.437   6.525   7.409 -4.1701 -0.4398 -0.2238
   41MOL0     H 5358   4.495   6.680   7.327 -0.0170  0.5131  0.7817
   41MOL0     H 5359   4.279   6.758   7.318  3.6829 -1.1650 -1.9925
   41MOL0     H 5360   4.217   6.621   7.424 -0.4623  1.5363  0.8369
   41MOL0     H 5361   4.309   6.600   7.124 -2.3082 -0.6214 -3.0105
   41MOL0     H 5362   4.270   6.470   7.221  3.5619  1.2558 -2.1883
   41MOL0     H 5363   4.083   6.712   7.175 -1.9481 -0.0228  1.5970
   41MOL0     H 5364   4.035   6.559   7.263 -1.3648 -1.1410 -1.2340
   41MOL0     H 5365   4.005   6.720   6.958  1.0499  0.5251  1.3507
   41MOL0     H 5366   3.916   6.552   6.667 -0.9305  2.0762 -0.9866
   41MOL0     H 5367   3.824   6.645   6.791  1.3583 -0.3365  3.2309
   41MOL0     H 5368   3.697   6.433   6.843 -1.5309  0.1309 -0.9092
   41MOL0     H 5369   3.798   6.350   6.719 -1.0538  0.4715 -0.3572
   41MOL0     H 5370   3.691   6.534   6.553 -2.4440 -0.4959 -1.5387
   41MOL0     H 5371   3.602   6.393   6.609  1.6625 -1.0378  0.4464
   41MOL0     H 5372   3.474   6.615   6.616  0.0517  0.1517  0.8333
   41MOL0     H 5373   3.585   6.661   6.744 -0.6611  0.4352 -0.0149
   41MOL0     H 5374   3.270   6.401   6.953 -1.4412  0.2172  2.5441
   41MOL0     H 5375   3.030   6.486   6.990 -0.1887  1.8931  1.1395
   41MOL0     H 5376   2.659   6.792   7.031 -1.4183  0.0280 -0.7112
   41MOL0     H 5377   2.461   6.921   7.026  0.9604  0.2853  1.0253
   41MOL0     H 5378   2.349   7.143   7.083 -2.8051 -0.9069  0.7607
   41MOL0     H 5379   2.285   7.022   6.973 -1.0512  0.1092  0.6239
   41MOL0     H 5380   2.198   7.321   6.970  0.0156  0.3154 -2.8563
   41MOL0     H 5381   2.106   7.174   7.017 -0.0628 -1.1070 -0.1125
   41MOL0     H 5382   2.147   7.093   6.776  1.0982  0.2999 -0.4777
   41MOL0     H 5383   2.228   7.253   6.743 -1.2105 -0.3041  0.1400
   41MOL0     H 5384   1.950   7.186   6.817  0.5786  1.1550  2.8210
   41MOL0     H 5385   2.011   7.350   6.819  1.2336  0.9311 -1.1573
   41MOL0     H 5386   1.996   7.184   6.570  0.1234  0.0193  1.0108
   41MOL0     H 5387   2.066   7.345   6.586  0.0336  1.9069  2.6167
   41MOL0     H 5388   1.867   7.455   6.650  0.2280 -0.5877  0.7858
   41MOL0     H 5389   1.786   7.288   6.673 -0.3399 -0.0715  1.7268
   41MOL0     H 5390   1.829   7.439   6.421  1.2526  0.1719  1.4462
   41MOL0     H 5391   1.778   7.269   6.426  2.7711  0.7070 -2.2056
   41MOL0     H 5392   1.606   7.481   6.546 -0.9325  0.2833  0.1120
   41MOL0     H 5393   1.566   7.312   6.558 -0.2592  1.0049  0.4195
   41MOL0     H 5394   2.635   7.198   6.752 -0.5850  0.3783  1.1351
   41MOL0     H 5395   2.843   7.050   6.741 -0.2110 -1.5545 -1.8972
   41MOL0     H 5396   3.137   6.849   6.802 -3.1248 -1.3055  0.2406
   41MOL0     H 5397   3.355   6.755   6.739 -1.4051  1.3596 -1.1701
   41MOL0     H 5398   5.091   6.661   7.277 -0.4748  2.1198 -0.7874
   41MOL0     H 5399   5.327   6.635   7.289  0.0886  1.8749 -1.1349
   41MOL0     H 5400   5.697   6.637   7.673 -0.5888 -0.2743 -0.3549
   41MOL0     H 5401   5.925   6.537   7.719  0.7149  0.5994 -0.5382
   41MOL0     H 5402   6.177   6.531   7.385  0.8415  0.2309  0.4966
   41MOL0     H 5403   6.157   6.353   7.358  2.0474 -0.9071  0.1552
   41MOL0     H 5404   6.392   6.412   7.422 -1.2110 -1.7976 -0.2561
   41MOL0     H 5405   6.332   6.492   7.567 -1.2501 -0.0625  0.6923
   41MOL0     H 5406   6.233   6.213   7.567 -0.7682  1.5242 -2.2129
   41MOL0     H 5407   6.326   6.300   7.682  0.5025 -0.2614 -0.3658
   41MOL0     H 5408   6.534   6.212   7.591  2.2014  2.5136 -4.0801
   41MOL0     H 5409   6.419   6.083   7.571  1.9055 -0.3180 -1.7545
   41MOL0     H 5410   6.511   6.151   7.170  1.0961 -0.0384  0.3451
   41MOL0     H 5411   5.946   6.442   7.303  0.5129  1.8944 -0.3153
   41MOL0     H 5412   5.708   6.516   7.275 -1.8793 -4.0425  1.3694
   42MOL0     O 5413   1.371   4.268   5.985  0.0601 -0.0016 -0.7105
   42MOL0     C 5414   1.440   4.316   6.076  0.0104 -0.2190 -0.0421
   42MOL0     O 5415   1.388   4.384   6.185 -0.2012  0.1587  0.1005
   42MOL0     C 5416   1.256   4.420   6.186  0.6712 -0.8003 -0.7527
   42MOL0     C 5417   1.148   4.349   6.248 -0.3140  0.0031  1.2361
   42MOL0     C 5418   1.022   4.410   6.252 -0.5432 -0.6444  1.4957
   42MOL0     C 5419   1.003   4.533   6.199  0.1548 -0.9659 -0.4147
   42MOL0     O 5420   0.874   4.575   6.212  1.3351  0.3211  0.4848
   42MOL0     C 5421   0.823   4.686   6.136 -0.2675  0.2665  0.1760
   42MOL0     C 5422   0.685   4.732   6.190  0.2229  0.4693  0.5012
   42MOL0     C 5423   0.621   4.849   6.104 -1.3289  0.2903 -0.4615
   42MOL0     C 5424   0.471   4.854   6.128  0.5179  0.5924  0.4547
   42MOL0     C 5425   0.431   4.863   6.273 -0.3569 -0.6315 -0.2697
   42MOL0     C 5426   0.281   4.858   6.309  0.0300  0.7621  0.1488
   42MOL0     C 5427   0.223   4.712   6.289 -0.3914  0.0397 -0.6369
   42MOL0     C 5428   0.089   4.692   6.367 -0.1014 -0.5912  0.0577
   42MOL0     N 5429  -0.004   4.806   6.338  0.1977  0.2770 -0.2118
   42MOL0     C 5430  -0.077   4.830   6.222  0.8691  0.6396  0.1589
   42MOL0     C 5431  -0.125   4.955   6.239  0.3053 -0.2867  0.1361
   42MOL0     C 5432  -0.205   5.039   6.142  0.6516 -0.1024  0.4181
   42MOL0     C 5433  -0.356   5.014   6.154 -1.3010 -0.3117  0.8275
   42MOL0     C 5434  -0.412   5.033   6.290  0.3152 -0.2477 -0.4949
   42MOL0     C 5435  -0.566   5.057   6.282  0.9961  0.0046 -0.3328
   42MOL0     O 5436  -0.600   5.089   6.417 -0.1466  0.3045  0.2513
   42MOL0     C 5437  -0.734   5.094   6.464 -0.8322 -0.9333 -0.4612
   42MOL0     C 5438  -0.843   5.051   6.388  0.3365  0.0515  0.0453
   42MOL0     C 5439  -0.975   5.078   6.429 -0.1950  0.0466  0.2381
   42MOL0     C 5440  -0.997   5.140   6.554  0.8568  0.9844 -0.0619
   42MOL0     C 5441  -1.139   5.162   6.605  0.2718  0.3494 -0.2468
   42MOL0     O 5442  -1.251   5.109   6.538 -0.3106  0.3712 -0.1016
   42MOL0     C 5443  -1.372   5.092   6.596 -0.3213  0.4118  1.0442
   42MOL0     C 5444  -1.419   4.965   6.591  0.3765 -0.5265  0.6432
   42MOL0     C 5445  -1.551   4.935   6.636 -0.0499  0.6533  0.1500
   42MOL0     C 5446  -1.634   5.040   6.690 -1.3879 -0.5660 -0.9463
   42MOL0     O 5447  -1.763   5.025   6.726  0.5610 -0.3592 -0.0327
   42MOL0     C 5448  -1.834   4.905   6.708 -0.1157  0.8196  0.3255
   42MOL0     C 5449  -1.986   4.944   6.709 -0.3451 -0.4272 -0.1187
   42MOL0     C 5450  -2.076   4.813   6.702  0.4073  0.2352  0.8311
   42MOL0     C 5451  -2.222   4.851   6.718 -0.5898  0.3907 -0.0437
   42MOL0     C 5452  -2.317   4.729   6.687  0.6554 -0.2981  0.5773
   42MOL0     C 5453  -2.278   4.600   6.755  0.0656  0.4464 -0.0463
   42MOL0     C 5454  -2.404   4.500   6.762 -0.1874 -0.0483 -0.5160
   42MOL0     C 5455  -2.370   4.408   6.874 -0.4848  1.3978  0.3730
   42MOL0    Cl 5456  -2.503   4.306   6.911  0.4051  0.4137 -0.4826
   42MOL0     C 5457  -1.583   5.166   6.692 -0.6941 -0.1986 -0.3057
   42MOL0     C 5458  -1.452   5.196   6.658  0.1978  0.2314  0.4979
   42MOL0     O 5459  -1.145   5.209   6.723  0.3106 -0.1883  0.0453
   42MOL0     C 5460  -0.887   5.165   6.634 -0.6642  0.3336  0.0594
   42MOL0     C 5461  -0.753   5.150   6.591  0.6720 -0.6783 -0.3044
   42MOL0     N 5462  -0.083   5.001   6.360  0.7308  0.2990 -0.4569
   42MOL0     N 5463  -0.011   4.914   6.422  0.5047  0.1734  0.5604
   42MOL0     C 5464   1.102   4.608   6.133  0.7378 -0.2460  0.4339
   42MOL0     C 5465   1.227   4.548   6.136 -0.1571  0.7223 -0.1545
   42MOL0     C 5466   1.589   4.310   6.057  0.5940 -0.0541  0.5004
   42MOL0     C 5467   1.638   4.238   5.949  0.6239  0.4250  0.2043
   42MOL0     C 5468   1.772   4.226   5.928 -0.3676 -0.3628 -0.4104
   42MOL0     C 5469   1.862   4.291   6.012  0.2054  0.0752 -0.4202
   42MOL0     O 5470   1.998   4.270   5.995  0.4530 -0.2931  0.2375
   42MOL0     C 5471   2.042   4.202   5.877  0.7632  0.0449  0.5095
   42MOL0     C 5472   2.196   4.214   5.849  0.2333 -0.4629 -0.1183
   42MOL0     C 5473   2.241   4.153   5.710 -0.6230 -0.2986  0.2557
   42MOL0     C 5474   2.389   4.193   5.675 -0.0258 -0.1326  1.0602
   42MOL0     C 5475   2.474   4.131   5.777  0.9334 -0.7899 -0.4338
   42MOL0     C 5476   2.533   4.069   5.856  0.4934 -0.3751 -0.3167
   42MOL0     C 5477   1.811   4.365   6.123  0.5402  1.0543 -0.0735
   42MOL0     C 5478   1.673   4.365   6.148 -0.9534 -0.3637  0.2485
   42MOL0     H 5479   1.155   4.245   6.278  0.6924 -0.1882  0.4000
   42MOL0     H 5480   0.941   4.344   6.283 -1.1257 -0.9818 -0.5786
   42MOL0     H 5481   0.818   4.660   6.029 -1.5326  1.3838 -0.0604
   42MOL0     H 5482   0.891   4.770   6.149 -0.1311 -0.2166  3.0972
   42MOL0     H 5483   0.697   4.772   6.291  0.6905  2.4017 -0.2766
   42MOL0     H 5484   0.618   4.645   6.195 -2.0371  2.1801  1.9352
   42MOL0     H 5485   0.632   4.829   5.997 -5.4604 -0.4707 -0.9154
   42MOL0     H 5486   0.666   4.946   6.126 -0.3012 -0.3955  0.5503
   42MOL0     H 5487   0.417   4.937   6.080 -1.4445 -0.6429  0.4045
   42MOL0     H 5488   0.417   4.767   6.089 -1.4493  2.3991 -1.1376
   42MOL0     H 5489   0.451   4.964   6.310  0.0132 -0.2997 -1.3151
   42MOL0     H 5490   0.489   4.798   6.339  0.4353 -0.3796 -0.7027
   42MOL0     H 5491   0.229   4.929   6.243 -4.1813 -0.7081  1.5440
   42MOL0     H 5492   0.281   4.882   6.416  1.1540  1.5245 -0.0095
   42MOL0     H 5493   0.194   4.683   6.188  0.3441  1.5126 -1.3136
   42MOL0     H 5494   0.293   4.642   6.336  1.2112  0.8344 -1.7494
   42MOL0     H 5495   0.121   4.693   6.471 -0.2224  1.0276  0.1061
   42MOL0     H 5496   0.048   4.594   6.341  3.2571 -2.8501  2.4214
   42MOL0     H 5497  -0.097   4.756   6.145  0.4674 -0.6258  1.4396
   42MOL0     H 5498  -0.153   5.026   6.046  1.8514  0.8322  0.9174
   42MOL0     H 5499  -0.184   5.140   6.179  0.6348 -0.2468  0.8252
   42MOL0     H 5500  -0.367   4.914   6.111 -0.1110 -0.6927  1.3596
   42MOL0     H 5501  -0.410   5.075   6.080  0.7039  0.9495  0.3306
   42MOL0     H 5502  -0.398   4.951   6.360 -3.2473 -1.1146 -0.5931
   42MOL0     H 5503  -0.367   5.123   6.331 -1.3530  0.3957  0.0103
   42MOL0     H 5504  -0.621   4.969   6.247 -1.7523  1.2501  0.6256
   42MOL0     H 5505  -0.590   5.142   6.217  0.8874  1.2064  1.2309
   42MOL0     H 5506  -0.843   5.007   6.288 -0.6265 -1.0810  0.5216
   42MOL0     H 5507  -1.054   5.042   6.364  1.4753  0.7670 -2.3335
   42MOL0     H 5508  -1.360   4.888   6.544  2.5504  1.4463 -0.0727
   42MOL0     H 5509  -1.581   4.831   6.635 -0.8418  0.8770 -0.0403
   42MOL0     H 5510  -1.799   4.828   6.776 -0.5894  2.1076  2.1065
   42MOL0     H 5511  -1.824   4.869   6.605 -1.5425 -1.1565  0.8101
   42MOL0     H 5512  -2.003   5.002   6.618 -0.4063 -0.5369 -0.1771
   42MOL0     H 5513  -2.014   5.003   6.798  0.4992  0.3854 -0.3760
   42MOL0     H 5514  -2.052   4.754   6.791  1.0584  1.5618  1.5661
   42MOL0     H 5515  -2.060   4.754   6.611  0.9013  0.6394  0.6520
   42MOL0     H 5516  -2.240   4.890   6.819 -1.9451  0.4365 -0.2879
   42MOL0     H 5517  -2.239   4.931   6.646 -1.4297  1.1191  0.9290
   42MOL0     H 5518  -2.331   4.708   6.581 -2.1135 -2.3466  1.2349
   42MOL0     H 5519  -2.415   4.766   6.720 -0.3474 -2.3509  0.0147
   42MOL0     H 5520  -2.250   4.620   6.859 -3.5125 -1.3961  1.4364
   42MOL0     H 5521  -2.190   4.560   6.705  1.4015  2.7430  0.3339
   42MOL0     H 5522  -2.498   4.554   6.775 -1.4344 -0.2803 -6.1013
   42MOL0     H 5523  -2.417   4.441   6.672 -2.5029 -1.4134  0.6134
   42MOL0     H 5524  -2.327   4.458   6.961  0.8953 -0.1275  0.6234
   42MOL0     H 5525  -2.291   4.339   6.843  0.9294  2.7514  0.8618
   42MOL0     H 5526  -1.637   5.245   6.745 -2.0097 -1.4615  0.3040
   42MOL0     H 5527  -1.405   5.294   6.659  0.6383  0.0302 -0.2259
   42MOL0     H 5528  -0.901   5.194   6.738  1.6373 -0.4567  0.6393
   42MOL0     H 5529  -0.665   5.166   6.652  0.0809  0.6120  0.2670
   42MOL0     H 5530   1.079   4.704   6.086  2.4639 -0.2073 -0.4273
   42MOL0     H 5531   1.310   4.593   6.082 -0.8557  5.0311  1.9126
   42MOL0     H 5532   1.576   4.190   5.874  0.4572 -0.2294  0.7496
   42MOL0     H 5533   1.801   4.176   5.836  0.4451  1.1893 -1.0508
   42MOL0     H 5534   2.016   4.240   5.778  1.3252  0.7588  0.6234
   42MOL0     H 5535   2.013   4.097   5.882 -2.5268  0.8844  1.3024
   42MOL0     H 5536   2.233   4.316   5.861  1.9682 -0.6317 -3.1907
   42MOL0     H 5537   2.257   4.165   5.925  0.3145  0.7853  0.6521
   42MOL0     H 5538   2.178   4.199   5.633 -1.6043 -3.2018 -0.8261
   42MOL0     H 5539   2.231   4.044   5.715  0.6216 -0.4771 -0.7335
   42MOL0     H 5540   2.408   4.154   5.574  1.1330  0.5416  0.9995
   42MOL0     H 5541   2.392   4.302   5.676  1.1768 -0.1350  0.2198
   42MOL0     H 5542   2.594   4.013   5.924  1.9598  0.9923 -0.4598
   42MOL0     H 5543   1.877   4.417   6.191  1.1274  1.1359 -0.6931
   42MOL0     H 5544   1.640   4.423   6.234 -0.5472  0.3224 -0.0418
   43MOL0     O 5545   3.418   0.042   0.207 -0.0535 -0.8728  1.0029
   43MOL0     C 5546   3.508   0.084   0.280 -0.9468  0.1132 -0.1570
   43MOL0     O 5547   3.497   0.107   0.416  0.9491 -0.6773 -0.3246
   43MOL0     C 5548   3.384   0.053   0.474 -1.1729 -1.1846  0.3621
   43MOL0     C 5549   3.388  -0.078   0.505 -0.1879  0.6263  0.4053
   43MOL0     C 5550   3.280  -0.137   0.573 -0.0604 -0.4436  0.2065
   43MOL0     C 5551   3.161  -0.058   0.605 -0.9431  0.6869 -0.1206
   43MOL0     O 5552   3.067  -0.119   0.681 -0.2884 -0.0390  0.7041
   43MOL0     C 5553   2.931  -0.081   0.672 -0.1735  0.3829  0.0850
   43MOL0     C 5554   2.845  -0.163   0.771  0.0003 -0.2195  0.3238
   43MOL0     C 5555   2.695  -0.118   0.784 -1.1087 -0.3214 -0.0032
   43MOL0     C 5556   2.619  -0.190   0.909  0.6498 -0.4251  0.2940
   43MOL0     C 5557   2.466  -0.155   0.922 -0.3420 -0.0627 -0.0270
   43MOL0     C 5558   2.404  -0.221   1.036  0.3275  0.9265 -0.3107
   43MOL0     C 5559   2.245  -0.210   1.023  0.6140 -0.3896  0.0110
   43MOL0     C 5560   2.190  -0.072   1.051 -0.2726  0.7208 -0.3241
   43MOL0     N 5561   2.047  -0.087   1.066  0.0921  0.5606 -0.7232
   43MOL0     C 5562   1.967  -0.122   0.962 -0.4783  0.7128  0.0230
   43MOL0     C 5563   1.843  -0.100   1.004  0.2159 -0.2815 -0.5574
   43MOL0     C 5564   1.710  -0.111   0.936 -0.8000 -0.4489 -0.3323
   43MOL0     C 5565   1.596  -0.144   1.022  1.3138  0.6707 -0.5600
   43MOL0     C 5566   1.472  -0.174   0.944  0.2066  0.9554 -0.3126
   43MOL0     C 5567   1.418  -0.074   0.851 -0.3298 -0.3996 -0.3350
   43MOL0     O 5568   1.273  -0.076   0.857  0.6924 -0.4662  0.3435
   43MOL0     C 5569   1.210   0.027   0.786  0.2134 -0.1443  0.0722
   43MOL0     C 5570   1.276   0.137   0.715  0.4086  0.4179 -0.0261
   43MOL0     C 5571   1.199   0.245   0.661  0.2358  0.1734  0.1605
   43MOL0     C 5572   1.061   0.231   0.648 -0.1415 -0.4013  0.4285
   43MOL0     C 5573   0.983   0.344   0.576 -0.6827 -0.6196  0.2887
   43MOL0     O 5574   0.850   0.334   0.589  0.0869 -0.2310 -0.2811
   43MOL0     C 5575   0.759   0.412   0.517 -0.2633  0.2490 -0.2898
   43MOL0     C 5576   0.641   0.446   0.592 -0.0840  1.0068  0.4102
   43MOL0     C 5577   0.530   0.490   0.524 -0.1209 -0.8927  0.3308
   43MOL0     C 5578   0.542   0.514   0.383  0.3532 -0.4478  0.1209
   43MOL0     O 5579   0.429   0.553   0.311  0.2103 -0.3518 -0.1573
   43MOL0     C 5580   0.426   0.539   0.170 -0.4737 -1.0884  0.1505
   43MOL0     C 5581   0.286   0.563   0.113 -0.8512 -0.2117  0.2168
   43MOL0     C 5582   0.180   0.458   0.150 -0.4384  0.6848  1.3567
   43MOL0     C 5583   0.058   0.477   0.057 -0.0033  0.3818  0.4848
   43MOL0     C 5584  -0.037   0.584   0.111  0.4881 -0.1443  1.0237
   43MOL0     C 5585  -0.192   0.552   0.097 -0.3141  0.2732  1.1612
   43MOL0     C 5586  -0.243   0.538  -0.050 -0.8631 -0.3433  0.4239
   43MOL0     C 5587  -0.349   0.638  -0.079 -0.3763  0.4245  0.1077
   43MOL0    Cl 5588  -0.273   0.795  -0.050  0.2803 -0.1012 -0.0623
   43MOL0     C 5589   0.663   0.495   0.315 -0.2925  0.0967 -0.1973
   43MOL0     C 5590   0.774   0.443   0.383 -0.6267  0.0694 -0.6735
   43MOL0     O 5591   1.044   0.426   0.506  0.0167  0.6186  0.1888
   43MOL0     C 5592   0.999   0.121   0.709 -0.7653  0.4783  0.2624
   43MOL0     C 5593   1.073   0.021   0.775  0.8027  0.4834  0.7763
   43MOL0     N 5594   1.847  -0.047   1.130 -0.0044 -0.0809 -0.7459
   43MOL0     N 5595   1.973  -0.029   1.163  0.5083 -0.3289  0.3719
   43MOL0     C 5596   3.167   0.076   0.573 -0.2295  0.3477 -0.4880
   43MOL0     C 5597   3.272   0.128   0.505  0.1017 -0.7608 -0.3133
   43MOL0     C 5598   3.639   0.117   0.212  0.7939 -0.2043 -0.0777
   43MOL0     C 5599   3.648   0.109   0.070 -0.1458  0.0946 -0.5224
   43MOL0     C 5600   3.766   0.143   0.017  0.2894 -0.1692 -0.0592
   43MOL0     C 5601   3.878   0.182   0.084 -0.1085 -0.5197  0.3272
   43MOL0     O 5602   3.990   0.203   0.004 -0.8719 -0.4483 -0.5123
   43MOL0     C 5603   4.119   0.218   0.064  0.8000 -0.0628  1.0821
   43MOL0     C 5604   4.165   0.087   0.137 -0.2662 -0.4424 -0.1329
   43MOL0     C 5605   4.282   0.130   0.228  0.1823 -0.3916 -0.6354
   43MOL0     C 5606   4.402   0.192   0.163 -0.1244  0.5372  0.2169
   43MOL0     C 5607   4.506   0.200   0.266  0.1338  0.1013  0.0103
   43MOL0     C 5608   4.578   0.194   0.365 -0.2961  0.7187  0.4714
   43MOL0     C 5609   3.870   0.198   0.220 -0.1430 -0.2059 -1.0254
   43MOL0     C 5610   3.750   0.170   0.289 -0.0941  0.1979  0.4695
   43MOL0     H 5611   3.486  -0.123   0.494  0.6223  2.1639  1.0505
   43MOL0     H 5612   3.280  -0.240   0.607  1.3307 -0.2321  0.8919
   43MOL0     H 5613   2.891  -0.094   0.571 -0.4357 -3.1621  0.4986
   43MOL0     H 5614   2.913   0.025   0.694 -1.6048  0.2351 -0.2625
   43MOL0     H 5615   2.888  -0.161   0.872  0.5244  1.6848  0.1042
   43MOL0     H 5616   2.848  -0.266   0.734  0.7192  1.2445 -4.3160
   43MOL0     H 5617   2.653  -0.151   0.689  0.3899 -1.1294 -0.4290
   43MOL0     H 5618   2.693  -0.010   0.798 -0.2775 -0.3517  0.4663
   43MOL0     H 5619   2.630  -0.297   0.893  0.8383 -0.6171  1.5980
   43MOL0     H 5620   2.667  -0.164   1.004 -1.4795  2.3015  0.7315
   43MOL0     H 5621   2.414  -0.183   0.830  0.0770  1.5737 -0.8066
   43MOL0     H 5622   2.451  -0.047   0.935  0.9248  0.5301 -2.7956
   43MOL0     H 5623   2.449  -0.192   1.131 -0.4240 -2.6772  1.3289
   43MOL0     H 5624   2.423  -0.329   1.030 -3.0447  0.3065 -2.7450
   43MOL0     H 5625   2.210  -0.246   0.926 -0.4654  1.8130 -0.4777
   43MOL0     H 5626   2.204  -0.278   1.097  0.1287  0.0207  0.1268
   43MOL0     H 5627   2.223  -0.002   0.974  3.4227  0.0550  0.4555
   43MOL0     H 5628   2.223  -0.045   1.151  0.7035 -1.8585  0.1384
   43MOL0     H 5629   1.999  -0.155   0.863 -0.8969 -1.2672  0.5010
   43MOL0     H 5630   1.721  -0.189   0.861 -0.5639  0.3397 -1.1347
   43MOL0     H 5631   1.689  -0.016   0.886 -1.9929 -0.7859 -0.5134
   43MOL0     H 5632   1.580  -0.054   1.083  1.2777  1.3876 -1.6088
   43MOL0     H 5633   1.623  -0.229   1.086  0.5865  1.1185  0.3602
   43MOL0     H 5634   1.484  -0.267   0.888 -0.2778  0.0743  0.9970
   43MOL0     H 5635   1.400  -0.202   1.021  2.5640  0.7114  1.9160
   43MOL0     H 5636   1.454  -0.090   0.749  0.8113  1.2810 -0.2246
   43MOL0     H 5637   1.452   0.024   0.885 -0.2780  0.0438 -1.6298
   43MOL0     H 5638   1.385   0.143   0.721  0.5159 -0.2193 -1.0635
   43MOL0     H 5639   1.263   0.324   0.622  1.4837 -1.4019 -1.1552
   43MOL0     H 5640   0.631   0.404   0.692 -0.7386  0.8566  0.2852
   43MOL0     H 5641   0.431   0.502   0.567 -0.0789 -0.4311  0.3010
   43MOL0     H 5642   0.458   0.442   0.131 -0.6585 -0.8368 -0.6433
   43MOL0     H 5643   0.492   0.615   0.127 -0.3500 -1.8336 -1.0523
   43MOL0     H 5644   0.296   0.552   0.005  0.6031 -3.7938  0.5598
   43MOL0     H 5645   0.258   0.663   0.147 -0.4810  0.7056 -1.9927
   43MOL0     H 5646   0.143   0.469   0.252  0.3954 -1.3633  1.9253
   43MOL0     H 5647   0.233   0.363   0.138  2.1958  2.0086  1.9781
   43MOL0     H 5648   0.084   0.489  -0.049 -0.7457 -3.3294 -0.2652
   43MOL0     H 5649   0.006   0.381   0.064  2.7969 -1.3640 -0.9972
   43MOL0     H 5650  -0.018   0.685   0.074 -1.7317  0.6076  1.7893
   43MOL0     H 5651  -0.009   0.604   0.215  1.5064  0.4451  0.6601
   43MOL0     H 5652  -0.246   0.624   0.159 -2.6254 -0.4313  0.0693
   43MOL0     H 5653  -0.207   0.453   0.142  1.4795  0.1007  1.4883
   43MOL0     H 5654  -0.153   0.544  -0.112 -0.5914  1.5631  0.9368
   43MOL0     H 5655  -0.285   0.437  -0.054  2.2680 -1.7265 -0.9913
   43MOL0     H 5656  -0.420   0.620   0.002  1.2123 -1.4762  1.1968
   43MOL0     H 5657  -0.393   0.622  -0.178  0.2439  0.4551 -0.1786
   43MOL0     H 5658   0.668   0.525   0.211 -0.0216 -2.2456 -0.9065
   43MOL0     H 5659   0.859   0.407   0.326  1.1829 -2.4766  3.2111
   43MOL0     H 5660   0.893   0.098   0.697  0.0948 -3.9651 -0.5834
   43MOL0     H 5661   1.032  -0.068   0.820  0.2745 -0.8494 -2.0908
   43MOL0     H 5662   3.080   0.136   0.598 -1.2574 -1.8336  1.5896
   43MOL0     H 5663   3.286   0.229   0.470  0.7445  0.2121  2.4650
   43MOL0     H 5664   3.557   0.089   0.015 -1.5081  0.3962  1.4981
   43MOL0     H 5665   3.766   0.122  -0.089 -0.3717 -2.3269  0.3144
   43MOL0     H 5666   4.130   0.300   0.135  0.4458 -1.8398  3.3266
   43MOL0     H 5667   4.191   0.237  -0.016  1.9668 -1.0115  1.8813
   43MOL0     H 5668   4.081   0.057   0.201 -3.6007 -1.6702 -4.5876
   43MOL0     H 5669   4.188   0.006   0.068  0.8798 -0.5842  0.3943
   43MOL0     H 5670   4.315   0.043   0.286 -0.1150  1.0836  1.8825
   43MOL0     H 5671   4.245   0.203   0.300 -0.4466 -0.8356 -0.4979
   43MOL0     H 5672   4.449   0.126   0.089  3.3160 -1.5814  3.8740
   43MOL0     H 5673   4.380   0.293   0.128 -0.3486  0.5447  0.3752
   43MOL0     H 5674   4.628   0.190   0.460 -0.1296 -2.1970  0.3412
   43MOL0     H 5675   3.956   0.230   0.278 -1.2262  1.1519 -0.1178
   43MOL0     H 5676   3.740   0.184   0.396 -0.9899  0.0824  0.4064
   44MOL0     O 5677   9.358   1.552   3.670 -0.4487 -0.5082  0.8064
   44MOL0     C 5678   9.362   1.669   3.625  0.1382 -0.1275  1.1935
   44MOL0     O 5679   9.252   1.752   3.609 -0.5636 -0.0541 -0.2621
   44MOL0     C 5680   9.135   1.718   3.682 -0.7328 -0.4233 -0.2554
   44MOL0     C 5681   9.070   1.607   3.647  0.1026  0.4730  1.4436
   44MOL0     C 5682   8.948   1.577   3.700 -0.3943  0.3305  0.0606
   44MOL0     C 5683   8.878   1.673   3.780 -0.5289  0.0630 -0.1469
   44MOL0     O 5684   8.752   1.636   3.812 -0.1072  0.5871  0.0926
   44MOL0     C 5685   8.681   1.726   3.906 -0.6439  0.4848 -0.1531
   44MOL0     C 5686   8.531   1.707   3.868  0.2038  0.3217  0.3118
   44MOL0     C 5687   8.492   1.558   3.891  0.5388 -0.3630  0.3779
   44MOL0     C 5688   8.345   1.549   3.855  0.8173  0.2941  0.8752
   44MOL0     C 5689   8.298   1.402   3.858 -0.0339 -0.1349 -0.7994
   44MOL0     C 5690   8.161   1.379   3.803 -0.0609 -0.2291  0.3214
   44MOL0     C 5691   8.067   1.484   3.842  0.4773 -0.7757 -1.0808
   44MOL0     C 5692   7.929   1.425   3.821  0.5722  0.8681  0.6440
   44MOL0     N 5693   7.837   1.540   3.855  0.3975  0.3446  0.6266
   44MOL0     C 5694   7.787   1.629   3.766 -0.1591  0.1402  0.4288
   44MOL0     C 5695   7.675   1.680   3.811  0.7688 -0.6186  0.3937
   44MOL0     C 5696   7.614   1.804   3.758  0.1189 -0.7822 -0.1415
   44MOL0     C 5697   7.468   1.830   3.797 -0.2297  0.2941 -0.5069
   44MOL0     C 5698   7.442   1.979   3.817  0.4775 -0.2897 -0.1048
   44MOL0     C 5699   7.308   2.008   3.884  0.9487 -0.2896 -0.2596
   44MOL0     O 5700   7.198   1.929   3.831 -0.1836 -0.1472 -0.0312
   44MOL0     C 5701   7.075   1.981   3.862  0.1778 -0.1721  0.3839
   44MOL0     C 5702   7.037   2.028   3.986 -0.2234 -0.1101 -0.2980
   44MOL0     C 5703   6.908   2.058   4.015 -0.3965 -0.4547  0.0015
   44MOL0     C 5704   6.801   2.035   3.934  0.0267 -0.1234 -0.2750
   44MOL0     C 5705   6.662   2.052   3.971  0.7859  0.3394 -0.1687
   44MOL0     O 5706   6.567   2.010   3.879 -0.9717  0.1004 -0.5744
   44MOL0     C 5707   6.439   1.991   3.927  0.0736  0.3462 -0.2041
   44MOL0     C 5708   6.356   2.100   3.966 -0.3467 -0.3916 -0.4137
   44MOL0     C 5709   6.227   2.078   4.009 -0.4315  0.0099  1.0139
   44MOL0     C 5710   6.181   1.954   4.033 -0.0121  0.7129 -0.2568
   44MOL0     O 5711   6.055   1.951   4.089  0.4469 -0.2668 -0.0254
   44MOL0     C 5712   5.989   1.827   4.121  0.3576 -0.8951 -0.8005
   44MOL0     C 5713   5.857   1.883   4.190 -0.6026  0.7583  0.0844
   44MOL0     C 5714   5.740   1.892   4.095 -0.7578  1.0115  0.3077
   44MOL0     C 5715   5.613   1.940   4.147 -0.1139  0.2872  0.8055
   44MOL0     C 5716   5.616   2.091   4.172  1.0158 -0.1894  0.9582
   44MOL0     C 5717   5.473   2.144   4.193 -0.4559 -0.0525  0.1423
   44MOL0     C 5718   5.458   2.302   4.204  0.1878 -0.3002  0.2940
   44MOL0     C 5719   5.331   2.357   4.279 -1.1070  0.0819 -0.5459
   44MOL0    Cl 5720   5.191   2.258   4.232  0.2002 -0.0712  0.1436
   44MOL0     C 5721   6.263   1.842   3.994 -0.0709 -0.1022  0.7371
   44MOL0     C 5722   6.398   1.856   3.946 -0.2850 -0.3388  0.1835
   44MOL0     O 5723   6.630   2.080   4.089 -0.7724 -0.4833  0.7795
   44MOL0     C 5724   6.839   1.990   3.805  0.5190 -0.1014 -0.2289
   44MOL0     C 5725   6.974   1.967   3.768 -0.2050 -0.1751  0.7637
   44MOL0     N 5726   7.668   1.634   3.940 -0.2528 -0.0641  0.2833
   44MOL0     N 5727   7.759   1.542   3.960 -0.0704 -0.4872  0.0900
   44MOL0     C 5728   8.947   1.783   3.822 -1.3483 -0.2874 -0.0864
   44MOL0     C 5729   9.077   1.809   3.775 -0.2123  0.4975 -0.2993
   44MOL0     C 5730   9.483   1.709   3.567  0.2300  0.4134 -0.5540
   44MOL0     C 5731   9.592   1.620   3.557  0.2662  0.2756 -0.3751
   44MOL0     C 5732   9.708   1.655   3.499  0.4152 -0.4250  0.1802
   44MOL0     C 5733   9.727   1.784   3.456 -0.2458  0.5006  1.4663
   44MOL0     O 5734   9.852   1.824   3.414  0.1395 -0.5003 -0.6910
   44MOL0     C 5735   9.969   1.747   3.422 -0.3180 -0.8238 -0.1503
   44MOL0     C 5736  10.089   1.838   3.396  0.6862 -0.0728 -0.0937
   44MOL0     C 5737  10.111   1.854   3.235 -0.2359  0.4124 -0.8307
   44MOL0     C 5738  10.255   1.897   3.196  1.3671 -0.0937 -0.0986
   44MOL0     C 5739  10.346   1.784   3.178  0.8857  0.1255  0.5508
   44MOL0     C 5740  10.429   1.699   3.148 -0.4927  0.1241 -0.5552
   44MOL0     C 5741   9.621   1.870   3.449  0.4587  0.4148  0.2256
   44MOL0     C 5742   9.495   1.834   3.512 -0.1726 -0.8896  0.0754
   44MOL0     H 5743   9.093   1.537   3.567 -0.7546 -0.4435  1.9768
   44MOL0     H 5744   8.899   1.484   3.671  1.0509 -0.7246  0.8496
   44MOL0     H 5745   8.710   1.831   3.892  1.1752  0.1128  0.5260
   44MOL0     H 5746   8.686   1.698   4.012 -1.1863 -0.7502 -0.4400
   44MOL0     H 5747   8.496   1.746   3.772 -1.1612 -0.3821  0.5006
   44MOL0     H 5748   8.472   1.759   3.943  0.9702  0.2448  0.9818
   44MOL0     H 5749   8.495   1.531   3.997  1.7550 -0.2624  0.3797
   44MOL0     H 5750   8.564   1.492   3.842 -0.5267 -1.0781 -0.2533
   44MOL0     H 5751   8.287   1.599   3.934  0.1398 -1.3035  1.4416
   44MOL0     H 5752   8.334   1.585   3.752  2.0348 -0.0616  0.6052
   44MOL0     H 5753   8.306   1.367   3.961  1.8721  0.9568 -0.5175
   44MOL0     H 5754   8.371   1.340   3.805  2.0212 -0.6444  2.3167
   44MOL0     H 5755   8.120   1.286   3.841 -0.5959  0.5557  1.7177
   44MOL0     H 5756   8.166   1.379   3.693  3.4774 -0.4399  0.3542
   44MOL0     H 5757   8.083   1.524   3.942  2.9194  1.4013 -2.1995
   44MOL0     H 5758   8.075   1.570   3.774  2.4429  0.0701  0.1254
   44MOL0     H 5759   7.919   1.340   3.888  2.1867  0.4701  0.4332
   44MOL0     H 5760   7.910   1.389   3.720 -3.4187  1.7864  0.9208
   44MOL0     H 5761   7.843   1.659   3.679 -0.1873  0.3689  0.4889
   44MOL0     H 5762   7.611   1.798   3.649 -0.3057 -0.9193 -0.1231
   44MOL0     H 5763   7.675   1.889   3.792 -0.2280 -0.5673 -0.0547
   44MOL0     H 5764   7.457   1.781   3.894 -1.2479  3.9031  1.3802
   44MOL0     H 5765   7.399   1.780   3.728  1.1413 -1.5539 -0.5991
   44MOL0     H 5766   7.521   2.034   3.871  1.1014  1.0968 -2.3074
   44MOL0     H 5767   7.452   2.031   3.721 -3.3562 -0.5801 -0.7834
   44MOL0     H 5768   7.275   2.112   3.874 -2.9879 -1.4957 -1.7010
   44MOL0     H 5769   7.332   1.997   3.990  0.8875  2.5822  0.1296
   44MOL0     H 5770   7.107   2.051   4.065  0.7130 -3.0301 -0.1569
   44MOL0     H 5771   6.897   2.105   4.112 -1.1997  1.4582 -0.9675
   44MOL0     H 5772   6.396   2.201   3.956 -2.1458  0.1993 -2.5350
   44MOL0     H 5773   6.156   2.158   4.025  0.2588  0.6743  0.8116
   44MOL0     H 5774   6.055   1.766   4.183  5.2768  4.1121 -0.2756
   44MOL0     H 5775   5.974   1.769   4.030 -2.3609 -1.9783  0.2239
   44MOL0     H 5776   5.866   1.981   4.239 -1.0066  1.2899 -0.8649
   44MOL0     H 5777   5.836   1.818   4.275  1.1340 -3.0000 -2.1123
   44MOL0     H 5778   5.718   1.793   4.053 -2.5041  0.4129  2.4459
   44MOL0     H 5779   5.769   1.953   4.009  0.2206  0.0505 -0.0654
   44MOL0     H 5780   5.539   1.917   4.070 -2.2947 -2.3047  3.4327
   44MOL0     H 5781   5.594   1.877   4.234  0.7036  0.4261  1.0972
   44MOL0     H 5782   5.648   2.156   4.090  0.0596  0.5593  1.1659
   44MOL0     H 5783   5.681   2.113   4.257  0.5538  2.2803  0.7409
   44MOL0     H 5784   5.447   2.096   4.287  1.5857 -0.4267  0.5722
   44MOL0     H 5785   5.413   2.098   4.114 -0.7457 -1.3133  1.0705
   44MOL0     H 5786   5.547   2.346   4.249  0.5624  0.4489 -1.1227
   44MOL0     H 5787   5.456   2.344   4.103 -1.9287 -0.8844  0.0440
   44MOL0     H 5788   5.319   2.465   4.263 -0.2895  1.0448  3.9348
   44MOL0     H 5789   5.347   2.351   4.387 -0.4952  1.1331 -0.5624
   44MOL0     H 5790   6.227   1.744   4.023 -2.6754  0.7029  0.4830
   44MOL0     H 5791   6.471   1.782   3.914  0.3493  0.3081  0.0898
   44MOL0     H 5792   6.757   1.978   3.735  0.6095 -0.3380 -0.2962
   44MOL0     H 5793   6.987   1.922   3.670 -0.0741 -0.0179  0.7080
   44MOL0     H 5794   8.910   1.854   3.896 -0.3290 -0.3171  0.4614
   44MOL0     H 5795   9.127   1.901   3.802 -2.0969  1.2262  0.8995
   44MOL0     H 5796   9.584   1.520   3.599 -4.0956  1.1474  1.3823
   44MOL0     H 5797   9.792   1.586   3.494  0.6416 -0.2763  1.3892
   44MOL0     H 5798   9.976   1.661   3.354 -4.0057 -0.1013 -1.6928
   44MOL0     H 5799   9.982   1.714   3.525  3.9359 -0.4974 -0.3723
   44MOL0     H 5800  10.066   1.933   3.444 -0.4207 -0.2502 -0.2549
   44MOL0     H 5801  10.183   1.801   3.438  0.9682  2.4496  1.7420
   44MOL0     H 5802  10.041   1.929   3.196  0.9625  1.1246 -1.6962
   44MOL0     H 5803  10.085   1.765   3.177 -1.8116  1.5955 -2.0462
   44MOL0     H 5804  10.245   1.946   3.099 -1.5218 -1.3246 -0.5446
   44MOL0     H 5805  10.301   1.958   3.274  2.4099 -3.6976  2.3650
   44MOL0     H 5806  10.509   1.634   3.119  0.0225 -1.5361  3.8501
   44MOL0     H 5807   9.641   1.968   3.406 -0.4706 -0.3628 -2.1635
   44MOL0     H 5808   9.416   1.908   3.521  1.0588  0.3449  1.2863
   45MOL0     O 5809   3.719  10.243   5.668  0.5164 -0.6302 -0.3456
   45MOL0     C 5810   3.786  10.184   5.749  0.4636 -0.2102 -0.6652
   45MOL0     O 5811   3.742  10.122   5.855 -0.1870  0.1974  0.5261
   45MOL0     C 5812   3.614  10.149   5.900 -0.7504  0.3009 -0.8113
   45MOL0     C 5813   3.602  10.207   6.029 -0.0191  0.7905  1.1337
   45MOL0     C 5814   3.473  10.216   6.086  0.5155  0.4550  0.0647
   45MOL0     C 5815   3.357  10.169   6.019 -0.3090  0.1338 -1.1001
   45MOL0     O 5816   3.242  10.187   6.091 -0.3694  0.6036  0.4448
   45MOL0     C 5817   3.130  10.114   6.034  0.8733  0.1897 -0.3738
   45MOL0     C 5818   3.025  10.114   6.142  0.3500  0.3645  0.4689
   45MOL0     C 5819   2.898  10.058   6.079  0.6846  0.1721 -0.5290
   45MOL0     C 5820   2.787  10.047   6.197 -0.8815  0.0211 -0.0293
   45MOL0     C 5821   2.674   9.947   6.172  0.2114 -0.4174  0.2323
   45MOL0     C 5822   2.572   9.959   6.281  0.1696  0.6155  1.0028
   45MOL0     C 5823   2.451   9.852   6.277  0.0623  0.2317 -0.1408
   45MOL0     C 5824   2.499   9.705   6.295  0.1953 -1.0629  0.3032
   45MOL0     N 5825   2.397   9.616   6.346 -0.6362  0.5076 -0.0295
   45MOL0     C 5826   2.381   9.589   6.478 -0.5485  0.4636 -0.6451
   45MOL0     C 5827   2.278   9.511   6.482  1.1736 -0.7284  0.1298
   45MOL0     C 5828   2.205   9.459   6.598  0.3177  0.5387  0.0199
   45MOL0     C 5829   2.241   9.314   6.628  0.8079 -0.6669  0.3143
   45MOL0     C 5830   2.158   9.209   6.545  0.1414 -0.6269 -0.2055
   45MOL0     C 5831   2.182   9.065   6.592  0.7583  0.0494  0.0160
   45MOL0     O 5832   2.106   9.064   6.720 -0.2054  0.5573  0.5472
   45MOL0     C 5833   1.984   8.996   6.730  0.0083  0.0987  0.0211
   45MOL0     C 5834   1.942   8.961   6.861 -0.2900 -0.3598  0.2255
   45MOL0     C 5835   1.826   8.889   6.875  0.2277 -0.7893  0.0898
   45MOL0     C 5836   1.737   8.864   6.764 -0.0340  0.3108 -0.4034
   45MOL0     C 5837   1.603   8.805   6.786  0.7518 -0.4561 -0.2011
   45MOL0     O 5838   1.563   8.797   6.912 -0.0685 -0.6221  0.2944
   45MOL0     C 5839   1.434   8.747   6.933  0.0437  0.4891  0.5461
   45MOL0     C 5840   1.421   8.637   7.023  0.2417 -0.4551 -0.1024
   45MOL0     C 5841   1.297   8.580   7.051 -0.7315 -0.1993 -0.2532
   45MOL0     C 5842   1.180   8.619   6.982 -0.7162  0.0185 -0.8059
   45MOL0     O 5843   1.057   8.557   7.015  0.2676  0.1369  0.1551
   45MOL0     C 5844   0.929   8.587   6.956  1.3244  0.2079  0.6897
   45MOL0     C 5845   0.819   8.526   7.044 -0.8643 -0.6347  0.1315
   45MOL0     C 5846   0.681   8.535   6.975  0.1018  0.7934 -0.2446
   45MOL0     C 5847   0.565   8.470   7.057 -0.1024  0.4539  0.8459
   45MOL0     C 5848   0.558   8.319   7.034 -0.2101  0.0119  0.4300
   45MOL0     C 5849   0.455   8.253   7.126 -0.0059  0.8638 -0.6427
   45MOL0     C 5850   0.317   8.256   7.066  1.0967  0.7827 -0.8446
   45MOL0     C 5851   0.228   8.161   7.159 -0.0247 -0.1619  0.1781
   45MOL0    Cl 5852   0.218   8.230   7.324  0.1015  0.0132 -0.3072
   45MOL0     C 5853   1.192   8.734   6.904  0.8025 -0.3863  0.0797
   45MOL0     C 5854   1.316   8.784   6.867  0.1702 -0.4923 -0.2452
   45MOL0     O 5855   1.543   8.766   6.688  0.0314 -0.4897 -0.0199
   45MOL0     C 5856   1.779   8.907   6.633 -0.2286 -0.8492  0.1517
   45MOL0     C 5857   1.897   8.980   6.617  0.5091 -0.0846  0.4240
   45MOL0     N 5858   2.230   9.483   6.355  0.8378  0.3982 -0.2970
   45MOL0     N 5859   2.300   9.551   6.272 -0.2503  0.7647  0.0690
   45MOL0     C 5860   3.373  10.122   5.887 -0.5897  0.4458  0.2824
   45MOL0     C 5861   3.501  10.108   5.828 -0.8907  0.2251  0.0219
   45MOL0     C 5862   3.925  10.151   5.723  0.0485 -0.2329 -0.1239
   45MOL0     C 5863   3.984  10.209   5.612  0.0662 -0.6371 -0.3876
   45MOL0     C 5864   4.116  10.193   5.580 -1.0242  0.5464 -0.3410
   45MOL0     C 5865   4.197  10.124   5.670  0.0035  0.0858 -0.4567
   45MOL0     O 5866   4.324  10.107   5.637  0.1298 -0.1804  0.6504
   45MOL0     C 5867   4.398  10.008   5.707  0.6015  0.2089  0.7865
   45MOL0     C 5868   4.524   9.978   5.638 -0.0644 -0.3318 -0.5684
   45MOL0     C 5869   4.626  10.086   5.653 -0.7451 -0.3634 -0.1973
   45MOL0     C 5870   4.750  10.061   5.554  0.3349 -0.8779 -0.3126
   45MOL0     C 5871   4.881  10.075   5.613 -0.0131 -1.0542  0.2928
   45MOL0     C 5872   4.984  10.108   5.673  0.7726  0.1853 -0.0610
   45MOL0     C 5873   4.141  10.059   5.779  0.6849 -0.7946 -0.6418
   45MOL0     C 5874   4.003  10.076   5.806 -0.1915  0.0285 -0.4801
   45MOL0     H 5875   3.694  10.244   6.072  1.5674 -1.3533 -0.2137
   45MOL0     H 5876   3.458  10.262   6.183  0.9671 -0.7859  0.7471
   45MOL0     H 5877   3.158  10.014   6.002  2.5181  0.5882 -0.2786
   45MOL0     H 5878   3.100  10.173   5.947 -1.0386  2.0249  1.3785
   45MOL0     H 5879   3.004  10.217   6.170  0.5111  0.4749  0.1779
   45MOL0     H 5880   3.056  10.054   6.229  1.1865  0.3261  0.1539
   45MOL0     H 5881   2.915   9.963   6.027  0.0729  0.8827 -2.1196
   45MOL0     H 5882   2.861  10.120   5.996  0.1633 -1.2290 -1.3868
   45MOL0     H 5883   2.847  10.009   6.280 -0.4769 -0.4917 -0.5467
   45MOL0     H 5884   2.756  10.150   6.217  3.0987  0.9501  2.4946
   45MOL0     H 5885   2.713   9.845   6.165  0.2027 -0.7282  3.2999
   45MOL0     H 5886   2.623   9.958   6.076  0.2591  0.8396  0.3347
   45MOL0     H 5887   2.539  10.063   6.285  0.5243  1.0371 -3.0559
   45MOL0     H 5888   2.630   9.931   6.370  2.1619 -2.9756 -1.2029
   45MOL0     H 5889   2.382   9.881   6.357  1.1617 -0.3025  1.0180
   45MOL0     H 5890   2.396   9.864   6.183  0.2826 -0.5667 -0.3763
   45MOL0     H 5891   2.580   9.700   6.368  0.8216 -1.9608 -0.4438
   45MOL0     H 5892   2.537   9.672   6.198 -1.2632  0.4885 -0.8800
   45MOL0     H 5893   2.445   9.624   6.559  0.3477  1.1056 -1.6166
   45MOL0     H 5894   2.096   9.464   6.593  0.3096 -0.2551 -0.7619
   45MOL0     H 5895   2.227   9.534   6.675 -0.4536  1.7863 -0.9377
   45MOL0     H 5896   2.225   9.301   6.735 -2.3932 -0.2625 -0.0111
   45MOL0     H 5897   2.345   9.297   6.597  1.0862 -0.0683  0.9052
   45MOL0     H 5898   2.051   9.234   6.552  0.9654  3.3101  0.8370
   45MOL0     H 5899   2.194   9.228   6.443 -1.8144 -0.4453 -0.9055
   45MOL0     H 5900   2.290   9.048   6.595  0.9958  1.0260 -1.6894
   45MOL0     H 5901   2.135   8.987   6.530  0.2583 -0.4046  0.9461
   45MOL0     H 5902   1.998   8.998   6.946 -1.5356  0.1088  0.8720
   45MOL0     H 5903   1.807   8.852   6.975 -2.1296 -1.1309 -0.4176
   45MOL0     H 5904   1.513   8.612   7.074  0.5504 -0.6023 -0.7164
   45MOL0     H 5905   1.282   8.488   7.107  0.2417 -0.5080 -0.4810
   45MOL0     H 5906   0.924   8.548   6.854 -1.7815  0.5108  0.6395
   45MOL0     H 5907   0.922   8.696   6.950  0.4442  0.0781 -1.4970
   45MOL0     H 5908   0.835   8.573   7.142  1.9089  1.5155 -1.2177
   45MOL0     H 5909   0.844   8.419   7.043 -1.6231 -0.8175  0.2163
   45MOL0     H 5910   0.682   8.478   6.881  0.0808  1.0045 -0.3725
   45MOL0     H 5911   0.664   8.640   6.949 -0.3002  0.4902 -1.2699
   45MOL0     H 5912   0.584   8.507   7.158  1.6331  2.2662 -0.0780
   45MOL0     H 5913   0.469   8.523   7.048 -0.1941  0.2080  0.3343
   45MOL0     H 5914   0.655   8.284   7.071  0.3830  0.7574 -0.3592
   45MOL0     H 5915   0.552   8.287   6.929  0.2076  1.1469  0.0342
   45MOL0     H 5916   0.469   8.307   7.220 -0.8318  0.0136 -0.0175
   45MOL0     H 5917   0.494   8.152   7.139  4.0559  2.3937  0.8068
   45MOL0     H 5918   0.263   8.351   7.067 -1.8942 -0.5365 -5.3800
   45MOL0     H 5919   0.315   8.200   6.972 -1.7565 -1.3084  0.2998
   45MOL0     H 5920   0.279   8.065   7.174 -0.2098 -0.4118 -0.7161
   45MOL0     H 5921   0.122   8.152   7.134 -0.9470 -1.1380  3.8537
   45MOL0     H 5922   1.100   8.771   6.860 -1.3145 -3.2839  1.7772
   45MOL0     H 5923   1.328   8.877   6.812 -0.0790 -0.4414 -0.2161
   45MOL0     H 5924   1.710   8.897   6.550  0.4702  4.4253 -1.4604
   45MOL0     H 5925   1.918   9.010   6.515 -2.9994  2.2548  0.2239
   45MOL0     H 5926   3.298  10.095   5.813 -0.8484 -0.6105  0.9286
   45MOL0     H 5927   3.509  10.064   5.729  3.6317  2.3244 -0.8010
   45MOL0     H 5928   3.924  10.260   5.537 -3.3941 -1.0351  1.8474
   45MOL0     H 5929   4.168  10.226   5.491  0.2112  0.7167  0.4184
   45MOL0     H 5930   4.346   9.912   5.715  0.1585 -0.0593 -3.3677
   45MOL0     H 5931   4.419  10.047   5.807 -2.2257 -1.4909  2.1798
   45MOL0     H 5932   4.575   9.898   5.691 -0.8813 -0.8089 -0.4842
   45MOL0     H 5933   4.511   9.955   5.532 -2.6113 -1.4520 -0.0938
   45MOL0     H 5934   4.658  10.092   5.758 -1.3269  1.1211 -0.0921
   45MOL0     H 5935   4.586  10.186   5.638  1.1280  0.2118 -1.6131
   45MOL0     H 5936   4.741   9.955   5.532  2.7296 -0.6834 -2.7544
   45MOL0     H 5937   4.742  10.125   5.466 -2.4773 -1.8277 -0.8450
   45MOL0     H 5938   5.066  10.146   5.732  1.8405 -3.3773  0.9795
   45MOL0     H 5939   4.199  10.012   5.858  0.9334  0.0412 -0.3146
   45MOL0     H 5940   3.962  10.019   5.889 -0.4870 -1.2843 -1.5052
   46MOL0     O 5941   1.519   7.531   8.118  0.5398  0.1367  0.0794
   46MOL0     C 5942   1.552   7.421   8.145  0.3343 -0.5110  0.0873
   46MOL0     O 5943   1.462   7.323   8.168 -0.3825  0.3486 -0.5655
   46MOL0     C 5944   1.333   7.334   8.117 -0.1102  0.2477  0.0744
   46MOL0     C 5945   1.304   7.382   7.990  1.0579 -0.0421 -0.1908
   46MOL0     C 5946   1.169   7.391   7.951 -1.2503 -1.2765  1.1776
   46MOL0     C 5947   1.061   7.353   8.030 -0.2439  0.2362  0.2078
   46MOL0     O 5948   0.932   7.364   7.984 -0.1013 -0.4798  0.1307
   46MOL0     C 5949   0.843   7.265   8.010  0.4831  0.4032  0.5504
   46MOL0     C 5950   0.751   7.293   8.132  0.7635 -0.4089  1.6164
   46MOL0     C 5951   0.641   7.189   8.141 -0.4094  0.1331  0.0325
   46MOL0     C 5952   0.513   7.237   8.208 -0.3282  0.4989  0.2951
   46MOL0     C 5953   0.408   7.128   8.221  0.4060  0.3988  0.2246
   46MOL0     C 5954   0.281   7.175   8.301  0.0699  0.0726 -0.8762
   46MOL0     C 5955   0.168   7.074   8.276 -0.2311  0.0302 -0.0481
   46MOL0     C 5956   0.086   7.103   8.153  0.1911 -0.8128 -0.0093
   46MOL0     N 5957   0.024   6.986   8.096  0.0077 -0.1191 -0.3620
   46MOL0     C 5958  -0.086   6.917   8.151 -0.3713 -0.0389 -0.0715
   46MOL0     C 5959  -0.147   6.859   8.044  0.1490 -0.6825  0.0315
   46MOL0     C 5960  -0.274   6.784   8.049  0.6473  0.3451  0.4190
   46MOL0     C 5961  -0.260   6.644   7.991 -0.0142  0.2487 -0.2151
   46MOL0     C 5962  -0.390   6.572   7.982  0.1212  0.1069 -0.0470
   46MOL0     C 5963  -0.383   6.423   7.939  0.4200  0.1901  1.2938
   46MOL0     O 5964  -0.505   6.351   7.966 -0.2839 -1.0000  0.4723
   46MOL0     C 5965  -0.578   6.315   7.853  0.3172 -0.0661 -0.7717
   46MOL0     C 5966  -0.636   6.189   7.855 -0.0633 -0.3472  0.2399
   46MOL0     C 5967  -0.719   6.145   7.748  0.7244 -0.1736  0.3006
   46MOL0     C 5968  -0.761   6.231   7.643 -0.5912 -0.1071  0.0035
   46MOL0     C 5969  -0.843   6.201   7.521  0.3574  0.6740 -0.6236
   46MOL0     O 5970  -0.897   6.073   7.526  0.7739 -0.4257  0.4165
   46MOL0     C 5971  -0.998   6.033   7.436  0.0405 -0.7332 -0.5427
   46MOL0     C 5972  -0.965   6.026   7.298  0.4739  0.5823  0.2063
   46MOL0     C 5973  -1.071   5.995   7.210  0.4493  0.8643 -0.2276
   46MOL0     C 5974  -1.199   5.973   7.257 -0.8317  0.4057  0.5823
   46MOL0     O 5975  -1.286   5.943   7.154 -0.3566  0.3730 -0.0318
   46MOL0     C 5976  -1.425   5.948   7.192  0.0019  0.5793 -0.4239
   46MOL0     C 5977  -1.520   5.920   7.083  0.5356 -0.3766  0.1472
   46MOL0     C 5978  -1.656   5.899   7.148  0.8085 -0.3122  0.3681
   46MOL0     C 5979  -1.775   5.910   7.053  0.4585  0.0318  0.0850
   46MOL0     C 5980  -1.909   5.867   7.107  0.2009 -0.1889 -0.2831
   46MOL0     C 5981  -2.010   5.861   6.990  0.7693  0.4833  0.1335
   46MOL0     C 5982  -2.154   5.839   7.057 -0.4746  0.1997 -0.0287
   46MOL0     C 5983  -2.261   5.921   6.988  0.3196  0.7557 -0.0048
   46MOL0    Cl 5984  -2.425   5.888   7.039 -0.1470 -0.1280 -0.1845
   46MOL0     C 5985  -1.235   5.992   7.390 -0.1537  0.0073  0.4811
   46MOL0     C 5986  -1.138   6.016   7.481  0.4004 -0.1031 -0.3088
   46MOL0     O 5987  -0.861   6.282   7.432  0.3494 -0.1132  0.0319
   46MOL0     C 5988  -0.708   6.364   7.657  0.1958  0.7929 -0.8348
   46MOL0     C 5989  -0.618   6.406   7.754  0.9968  0.1539 -0.1019
   46MOL0     N 5990  -0.075   6.894   7.931  0.2405 -0.0374 -0.1472
   46MOL0     N 5991   0.021   6.967   7.961 -0.1386 -0.3698 -0.1526
   46MOL0     C 5992   1.095   7.287   8.147  0.0685 -0.3055  0.5370
   46MOL0     C 5993   1.230   7.289   8.199  0.5541 -0.2460 -0.4178
   46MOL0     C 5994   1.694   7.392   8.174  0.3188 -0.1942  0.2729
   46MOL0     C 5995   1.733   7.258   8.186  0.5016 -0.2869 -0.7306
   46MOL0     C 5996   1.866   7.218   8.214 -0.9573 -0.3596 -0.9625
   46MOL0     C 5997   1.968   7.318   8.212  0.3401 -0.1394  0.2321
   46MOL0     O 5998   2.099   7.261   8.211  0.0048 -0.0077 -0.0655
   46MOL0     C 5999   2.219   7.332   8.217  0.5908 -0.4135 -0.4528
   46MOL0     C 6000   2.336   7.240   8.262  0.3510  0.2328 -0.2674
   46MOL0     C 6001   2.477   7.288   8.269  0.3980  0.0009  0.1255
   46MOL0     C 6002   2.484   7.416   8.352  0.6511  0.1133  0.0322
   46MOL0     C 6003   2.466   7.381   8.495  0.2710 -0.6541  0.3764
   46MOL0     C 6004   2.450   7.346   8.610  0.2295 -0.3414 -0.4905
   46MOL0     C 6005   1.935   7.453   8.195 -0.1534 -0.5687 -0.2502
   46MOL0     C 6006   1.798   7.490   8.174  0.1613 -0.5116 -0.7502
   46MOL0     H 6007   1.385   7.408   7.923  0.5523 -2.1562 -1.7258
   46MOL0     H 6008   1.155   7.433   7.852 -0.9111 -1.7574  0.9199
   46MOL0     H 6009   0.890   7.167   8.025 -0.5687 -0.1668  0.2762
   46MOL0     H 6010   0.774   7.255   7.926  1.1201  1.2428 -0.0884
   46MOL0     H 6011   0.704   7.388   8.108  1.2398  0.0947  2.6340
   46MOL0     H 6012   0.804   7.309   8.226  4.0360  0.4625 -0.2330
   46MOL0     H 6013   0.673   7.107   8.205 -1.2911 -0.4622 -0.2853
   46MOL0     H 6014   0.617   7.152   8.041  0.1077  1.1333 -0.4814
   46MOL0     H 6015   0.531   7.279   8.308 -1.3869 -0.1142  0.7533
   46MOL0     H 6016   0.472   7.315   8.143 -1.2052 -1.3662 -1.5305
   46MOL0     H 6017   0.453   7.034   8.255 -1.2117 -0.4921 -0.0269
   46MOL0     H 6018   0.371   7.098   8.123  2.6212 -0.3005 -0.4587
   46MOL0     H 6019   0.251   7.277   8.276 -1.2665 -0.1258 -0.1349
   46MOL0     H 6020   0.317   7.170   8.404  3.6429 -0.6050 -2.0055
   46MOL0     H 6021   0.212   6.974   8.277 -0.6990 -0.1752  0.5167
   46MOL0     H 6022   0.096   7.082   8.357  1.2698 -1.9468  1.5725
   46MOL0     H 6023   0.147   7.151   8.075  1.0015  0.1703  1.1880
   46MOL0     H 6024   0.009   7.172   8.188  0.0435 -0.5618 -0.8012
   46MOL0     H 6025  -0.121   6.917   8.254 -1.4572  1.8202 -0.3801
   46MOL0     H 6026  -0.345   6.843   7.990  0.3148  1.2409  1.6582
   46MOL0     H 6027  -0.311   6.785   8.152  0.5403  1.6990  0.3859
   46MOL0     H 6028  -0.187   6.596   8.057 -1.8809 -1.0234  0.9862
   46MOL0     H 6029  -0.209   6.650   7.894 -0.3911  0.2266 -0.4160
   46MOL0     H 6030  -0.434   6.582   8.081  0.5134  2.7119 -0.0711
   46MOL0     H 6031  -0.461   6.632   7.924  0.2983 -0.9180 -1.3731
   46MOL0     H 6032  -0.301   6.374   7.993 -0.6631 -2.3930  0.7392
   46MOL0     H 6033  -0.361   6.424   7.832  2.0314 -0.2539  1.5874
   46MOL0     H 6034  -0.612   6.116   7.932 -2.4071 -0.6123  0.7852
   46MOL0     H 6035  -0.761   6.045   7.753  2.2955 -0.9212 -0.8462
   46MOL0     H 6036  -0.866   6.060   7.268  0.1287 -0.8328 -2.9322
   46MOL0     H 6037  -1.040   5.964   7.110  0.2505 -4.8699  1.1217
   46MOL0     H 6038  -1.447   6.038   7.250  2.6651 -0.1883  1.9904
   46MOL0     H 6039  -1.431   5.866   7.264  3.3860  0.5096 -0.0415
   46MOL0     H 6040  -1.490   5.835   7.021  1.0871  0.0345 -0.1639
   46MOL0     H 6041  -1.522   6.011   7.023 -1.6725  1.1256  2.2660
   46MOL0     H 6042  -1.662   5.977   7.225  0.9331  1.3990 -1.2860
   46MOL0     H 6043  -1.646   5.803   7.198 -1.7446 -0.7571  0.1716
   46MOL0     H 6044  -1.791   6.011   7.014  1.6631  1.0393  2.0334
   46MOL0     H 6045  -1.751   5.857   6.960 -0.2560  0.9676 -0.6532
   46MOL0     H 6046  -1.951   5.935   7.182  0.9673 -0.4529  0.4014
   46MOL0     H 6047  -1.895   5.773   7.161 -1.2955 -0.2625 -0.0013
   46MOL0     H 6048  -1.976   5.775   6.931 -0.0199 -0.3462  0.8423
   46MOL0     H 6049  -2.011   5.944   6.919 -0.7215 -1.6211 -2.5152
   46MOL0     H 6050  -2.178   5.733   7.047  1.8550 -0.2502 -1.6726
   46MOL0     H 6051  -2.151   5.868   7.163  2.6367  0.7147 -0.1654
   46MOL0     H 6052  -2.255   5.913   6.879  2.3125 -0.1037  0.1202
   46MOL0     H 6053  -2.229   6.021   7.019  0.9685  0.2961  0.8845
   46MOL0     H 6054  -1.337   5.989   7.426 -0.8966  0.2950 -1.4845
   46MOL0     H 6055  -1.156   6.036   7.586  2.7801 -0.3738  0.2102
   46MOL0     H 6056  -0.726   6.441   7.583  0.4035  2.7764  1.1117
   46MOL0     H 6057  -0.588   6.510   7.758  0.0468  0.4613 -0.8204
   46MOL0     H 6058   1.030   7.220   8.202 -0.6549 -0.3846 -0.4012
   46MOL0     H 6059   1.266   7.254   8.295  1.7479 -0.1395 -0.8160
   46MOL0     H 6060   1.666   7.175   8.168 -1.0781  1.1579 -1.7675
   46MOL0     H 6061   1.884   7.113   8.238  0.9344 -0.0257 -0.7775
   46MOL0     H 6062   2.203   7.413   8.289 -1.0049 -1.4815  0.4613
   46MOL0     H 6063   2.249   7.383   8.125 -2.0452  1.2159 -0.5144
   46MOL0     H 6064   2.300   7.198   8.356 -0.9990 -0.3103 -0.9988
   46MOL0     H 6065   2.334   7.153   8.195  0.1094  0.6172 -0.7738
   46MOL0     H 6066   2.506   7.303   8.164 -0.8441 -0.6451 -0.3305
   46MOL0     H 6067   2.528   7.204   8.317  0.8458 -0.6632 -1.4307
   46MOL0     H 6068   2.584   7.458   8.341  0.3815  1.1554  1.3639
   46MOL0     H 6069   2.412   7.490   8.315  0.3727  0.2975  0.9256
   46MOL0     H 6070   2.432   7.331   8.714 -1.9725 -1.0183 -0.9230
   46MOL0     H 6071   2.009   7.530   8.211 -1.1376  0.1296  1.2288
   46MOL0     H 6072   1.765   7.593   8.162  0.7229 -0.3590 -1.0208
   47MOL0     O 6073   8.362   2.632   7.015 -0.2357  0.1323  0.2267
   47MOL0     C 6074   8.365   2.531   7.078 -0.4156  0.5089 -0.6957
   47MOL0     O 6075   8.470   2.455   7.135 -0.1956  0.6125 -0.1039
   47MOL0     C 6076   8.602   2.479   7.103 -0.7446 -0.9666 -0.2068
   47MOL0     C 6077   8.701   2.461   7.204 -0.0195  0.1338 -0.0152
   47MOL0     C 6078   8.838   2.480   7.179  0.3569  0.0952  0.0613
   47MOL0     C 6079   8.874   2.523   7.045  0.2644  0.5785 -0.2412
   47MOL0     O 6080   9.000   2.562   7.006 -0.2730  0.3456 -0.0711
   47MOL0     C 6081   9.119   2.502   7.064 -0.7006  0.3132 -0.0632
   47MOL0     C 6082   9.231   2.511   6.964  0.5218 -0.4450 -0.9056
   47MOL0     C 6083   9.333   2.399   7.002 -0.2297  0.7226 -1.0596
   47MOL0     C 6084   9.473   2.423   6.947  0.4095  0.8097  0.1258
   47MOL0     C 6085   9.579   2.325   6.999  0.1084  0.6736  0.9766
   47MOL0     C 6086   9.569   2.177   6.970  0.4943 -0.1591  0.1935
   47MOL0     C 6087   9.552   2.133   6.821  0.1326 -0.2378  0.0334
   47MOL0     C 6088   9.474   2.002   6.807  0.3199  0.2282 -0.2147
   47MOL0     N 6089   9.542   1.892   6.885  0.4092 -0.3255  0.3601
   47MOL0     C 6090   9.672   1.849   6.858  0.6231 -1.0653  0.1825
   47MOL0     C 6091   9.702   1.748   6.944 -0.4766 -0.1751 -0.5469
   47MOL0     C 6092   9.831   1.652   6.953  1.1290 -0.0736  0.1869
   47MOL0     C 6093   9.844   1.573   6.827 -0.0721  0.1167  0.7115
   47MOL0     C 6094   9.967   1.477   6.847  0.4702  0.0445  0.0078
   47MOL0     C 6095  10.015   1.378   6.742  0.1064  0.8668 -0.5034
   47MOL0     O 6096  10.131   1.309   6.794 -0.1178  0.0747  0.0282
   47MOL0     C 6097  10.121   1.169   6.809  0.6659 -1.1276  0.2978
   47MOL0     C 6098  10.022   1.110   6.878  1.1293  0.4637  0.0833
   47MOL0     C 6099  10.001   0.974   6.875  0.0050 -0.5760 -0.4157
   47MOL0     C 6100  10.100   0.891   6.822  0.9157  0.6450  0.4628
   47MOL0     C 6101  10.096   0.749   6.847 -0.0240 -0.1291 -0.4239
   47MOL0     O 6102  10.167   0.680   6.748 -0.3598 -0.3934 -0.2165
   47MOL0     C 6103  10.172   0.544   6.758 -0.2998 -0.4525 -0.0370
   47MOL0     C 6104  10.109   0.455   6.678  0.1037  0.4043 -0.3006
   47MOL0     C 6105  10.106   0.314   6.713 -0.5027 -0.4635  0.0736
   47MOL0     C 6106  10.179   0.271   6.821 -0.2243  0.0693 -0.3068
   47MOL0     O 6107  10.188   0.137   6.850 -0.0185  0.7796 -0.1351
   47MOL0     C 6108  10.064   0.081   6.890  0.3835  0.0217  0.6195
   47MOL0     C 6109  10.084  -0.011   7.005  0.9406  0.0946 -0.6944
   47MOL0     C 6110  10.145   0.053   7.135  0.2520  0.8861 -0.4428
   47MOL0     C 6111  10.133  -0.050   7.257 -0.1006 -0.3700  0.2096
   47MOL0     C 6112  10.160   0.025   7.383  0.4129  0.1394 -0.2944
   47MOL0     C 6113  10.290   0.109   7.398 -0.2282  0.4523  0.4838
   47MOL0     C 6114  10.422   0.025   7.389  0.2614  0.5932 -0.7116
   47MOL0     C 6115  10.554   0.089   7.326 -0.1635 -0.3321  0.1354
   47MOL0    Cl 6116  10.519   0.149   7.165 -0.2355 -0.2539  0.1604
   47MOL0     C 6117  10.247   0.357   6.904 -0.4504  0.2896  0.1120
   47MOL0     C 6118  10.235   0.490   6.878  0.4086  0.3317  0.2427
   47MOL0     O 6119  10.038   0.698   6.941 -0.8231  0.5302 -0.2643
   47MOL0     C 6120  10.205   0.955   6.749 -0.1598 -0.0317 -0.2684
   47MOL0     C 6121  10.222   1.089   6.747  0.1040  0.4725 -0.3515
   47MOL0     N 6122   9.586   1.740   7.028  0.3302 -0.0456 -0.8403
   47MOL0     N 6123   9.492   1.819   6.992 -0.7532  0.4790  0.0747
   47MOL0     C 6124   8.786   2.544   6.945  0.2764  0.0742  0.2497
   47MOL0     C 6125   8.643   2.520   6.979 -0.3780 -0.0879  0.3610
   47MOL0     C 6126   8.232   2.489   7.129 -0.0720  0.0066 -0.6630
   47MOL0     C 6127   8.206   2.362   7.189  0.1271  0.8550 -0.1992
   47MOL0     C 6128   8.095   2.319   7.255  0.3053 -0.5230 -0.1404
   47MOL0     C 6129   7.980   2.404   7.246 -0.8175 -0.1519 -0.1740
   47MOL0     O 6130   7.865   2.349   7.303 -0.7789 -0.1418  0.9255
   47MOL0     C 6131   7.739   2.418   7.289  0.2449 -0.0668 -0.0623
   47MOL0     C 6132   7.617   2.327   7.303 -0.3773  0.9135 -0.3194
   47MOL0     C 6133   7.488   2.403   7.251 -0.7891 -0.1733  0.4720
   47MOL0     C 6134   7.366   2.332   7.317 -0.3279  0.2617  0.3250
   47MOL0     C 6135   7.236   2.381   7.267  0.2457 -0.2651  0.2984
   47MOL0     C 6136   7.131   2.417   7.223 -0.4724  0.0378 -0.1124
   47MOL0     C 6137   7.998   2.531   7.191 -0.0613 -0.3561 -0.4699
   47MOL0     C 6138   8.120   2.574   7.137 -0.0057  0.2220  0.2345
   47MOL0     H 6139   8.674   2.419   7.301 -0.4903 -2.4575 -1.1742
   47MOL0     H 6140   8.918   2.477   7.253  0.6508  1.9487 -0.1421
   47MOL0     H 6141   9.105   2.397   7.092  0.6502  0.5841  1.9029
   47MOL0     H 6142   9.141   2.558   7.156 -2.0751 -1.7723  1.6475
   47MOL0     H 6143   9.284   2.606   6.975  0.8319 -0.7882  0.8542
   47MOL0     H 6144   9.197   2.499   6.861  3.0492  1.7684 -2.1386
   47MOL0     H 6145   9.300   2.297   6.981  0.5845  0.2867 -0.2837
   47MOL0     H 6146   9.348   2.393   7.110  1.6263 -1.1744 -1.3585
   47MOL0     H 6147   9.454   2.424   6.839 -0.9385 -0.6068  0.3241
   47MOL0     H 6148   9.503   2.523   6.983  1.0491  0.2582  1.1754
   47MOL0     H 6149   9.598   2.338   7.106  2.1494 -2.4182  1.1221
   47MOL0     H 6150   9.671   2.357   6.950  0.1116 -0.4280  0.2352
   47MOL0     H 6151   9.483   2.148   7.031 -0.4251  1.0296 -0.4896
   47MOL0     H 6152   9.658   2.123   7.004  2.2298 -1.0209 -4.8042
   47MOL0     H 6153   9.501   2.206   6.758  0.3657 -0.1578 -0.0626
   47MOL0     H 6154   9.650   2.127   6.773 -0.0885  2.0483 -0.8256
   47MOL0     H 6155   9.461   1.971   6.703  1.2018  1.2773 -0.6558
   47MOL0     H 6156   9.372   2.024   6.842  1.3850  1.1572  2.5584
   47MOL0     H 6157   9.757   1.892   6.804  1.8263 -0.2183  2.5855
   47MOL0     H 6158   9.829   1.584   7.038 -0.6820 -0.7432 -0.3439
   47MOL0     H 6159   9.919   1.716   6.966 -0.4221  2.6130 -1.6069
   47MOL0     H 6160   9.862   1.638   6.741 -2.6435 -0.3168 -0.2392
   47MOL0     H 6161   9.762   1.500   6.822 -0.5190  0.5541  1.4232
   47MOL0     H 6162  10.050   1.545   6.863 -1.1738  2.8627 -2.4364
   47MOL0     H 6163   9.945   1.425   6.941 -2.1736  0.1522 -0.4494
   47MOL0     H 6164  10.040   1.432   6.651  0.7677  1.3212 -0.0621
   47MOL0     H 6165   9.933   1.309   6.721 -0.5156  0.6694  2.1710
   47MOL0     H 6166   9.956   1.176   6.934  0.0988 -0.2532 -0.2451
   47MOL0     H 6167   9.919   0.926   6.926  0.5031 -1.0621 -0.0620
   47MOL0     H 6168  10.058   0.484   6.587  0.6068  2.7173  0.0986
   47MOL0     H 6169  10.074   0.237   6.643 -1.7329 -0.2830  0.4164
   47MOL0     H 6170  10.028   0.018   6.808 -0.7669  0.1716  0.9985
   47MOL0     H 6171   9.994   0.162   6.913  0.7618  0.0980  1.5357
   47MOL0     H 6172  10.155  -0.086   6.969 -0.4505 -1.3508 -0.5105
   47MOL0     H 6173   9.990  -0.063   7.027  0.0777  2.0482  0.5485
   47MOL0     H 6174  10.115   0.154   7.167  0.0608  0.4781  0.7349
   47MOL0     H 6175  10.252   0.065   7.121  0.6726  3.0301  3.1631
   47MOL0     H 6176  10.038  -0.103   7.267 -0.5607  0.7752  2.6465
   47MOL0     H 6177  10.214  -0.122   7.239  1.0139  0.1641  2.6949
   47MOL0     H 6178  10.167  -0.051   7.461  0.1512  1.4304  1.0309
   47MOL0     H 6179  10.078   0.090   7.414  1.3439  0.7174  1.0549
   47MOL0     H 6180  10.299   0.154   7.497 -1.4234  2.5647 -0.3020
   47MOL0     H 6181  10.274   0.196   7.335 -1.7445  0.7415  1.2310
   47MOL0     H 6182  10.450  -0.003   7.490 -0.7527 -0.4413 -0.7029
   47MOL0     H 6183  10.403  -0.066   7.331  1.7570 -0.3823  0.2863
   47MOL0     H 6184  10.644   0.026   7.324  1.4954  1.9151 -0.2884
   47MOL0     H 6185  10.581   0.170   7.394 -0.2455 -0.8548  0.8028
   47MOL0     H 6186  10.275   0.317   7.001 -2.3729  0.0737  0.6081
   47MOL0     H 6187  10.268   0.564   6.950  1.2931  4.0262 -3.5583
   47MOL0     H 6188  10.283   0.893   6.705 -0.0226 -1.0132  1.2734
   47MOL0     H 6189  10.299   1.149   6.699 -1.6394  2.8495 -0.3601
   47MOL0     H 6190   8.809   2.579   6.845 -4.3920  0.3293 -0.9791
   47MOL0     H 6191   8.575   2.526   6.895  0.7393  2.9808 -0.4533
   47MOL0     H 6192   8.291   2.296   7.195  1.1477  2.2687  2.1407
   47MOL0     H 6193   8.098   2.222   7.305  1.1455  0.6143  2.1538
   47MOL0     H 6194   7.745   2.442   7.182 -3.5861 -0.6051 -0.5209
   47MOL0     H 6195   7.734   2.508   7.351 -0.0438  1.7712 -2.5771
   47MOL0     H 6196   7.641   2.240   7.241 -2.7641  0.9734 -1.4276
   47MOL0     H 6197   7.586   2.295   7.403 -1.8651  1.8919 -0.4375
   47MOL0     H 6198   7.476   2.406   7.143 -1.4886 -1.0459  0.5166
   47MOL0     H 6199   7.494   2.507   7.285  0.8434 -0.4033  0.9649
   47MOL0     H 6200   7.366   2.225   7.299 -2.8128  0.3303 -0.4777
   47MOL0     H 6201   7.374   2.336   7.427  0.6175 -0.6358  0.3035
   47MOL0     H 6202   7.034   2.444   7.187 -1.2122 -0.1425  1.6469
   47MOL0     H 6203   7.915   2.599   7.174 -0.1440 -0.3698 -0.1377
   47MOL0     H 6204   8.136   2.670   7.089  0.3278 -1.0522 -2.4252
   48MOL0     O 6205   9.103   7.087   4.335 -0.2910  0.0721 -0.1118
   48MOL0     C 6206   9.073   7.023   4.437  0.2292 -0.2759  0.2680
   48MOL0     O 6207   8.964   7.046   4.517 -0.9810  0.5685 -0.1321
   48MOL0     C 6208   8.862   7.126   4.489  1.4388  0.3111  0.5762
   48MOL0     C 6209   8.732   7.081   4.497  0.4070  0.7057  0.2524
   48MOL0     C 6210   8.620   7.162   4.454 -1.0481 -0.4753 -0.1980
   48MOL0     C 6211   8.642   7.294   4.421 -0.3604  0.1119  0.0190
   48MOL0     O 6212   8.538   7.362   4.373  0.4862 -0.4427 -0.3785
   48MOL0     C 6213   8.518   7.504   4.398  0.9799 -1.1668 -1.2454
   48MOL0     C 6214   8.394   7.565   4.316 -0.5690 -0.7299 -0.5032
   48MOL0     C 6215   8.274   7.487   4.351  0.1804 -0.3930 -0.4126
   48MOL0     C 6216   8.155   7.523   4.259  0.7193 -0.3323 -0.4190
   48MOL0     C 6217   8.030   7.435   4.302  0.4541 -0.4936 -0.1094
   48MOL0     C 6218   7.930   7.442   4.185  0.2457  0.4889 -0.4130
   48MOL0     C 6219   7.867   7.580   4.168  0.0557 -0.7071 -0.8764
   48MOL0     C 6220   7.802   7.598   4.031 -0.7304  0.6158 -0.6318
   48MOL0     N 6221   7.681   7.524   4.007  0.7496  0.3429  0.3001
   48MOL0     C 6222   7.567   7.527   4.087  0.2781 -0.3039  0.0927
   48MOL0     C 6223   7.482   7.431   4.049 -0.7196  0.2357 -0.4404
   48MOL0     C 6224   7.351   7.400   4.109  0.2895 -0.1444 -0.5179
   48MOL0     C 6225   7.357   7.277   4.215 -0.2139 -0.2433  0.4595
   48MOL0     C 6226   7.306   7.136   4.172 -0.0032 -1.1647 -0.0005
   48MOL0     C 6227   7.390   7.076   4.049 -0.1460  0.6699 -0.2577
   48MOL0     O 6228   7.371   6.933   4.054  0.1646  0.3646 -0.2931
   48MOL0     C 6229   7.248   6.892   4.006 -0.4774  0.1309  0.1464
   48MOL0     C 6230   7.140   6.975   3.958  1.1350  0.0301 -0.5073
   48MOL0     C 6231   7.015   6.916   3.924 -0.6249  0.6086 -0.2302
   48MOL0     C 6232   6.991   6.779   3.925 -0.0928 -0.3133  0.3767
   48MOL0     C 6233   6.863   6.717   3.893  0.0562  0.2883  0.5901
   48MOL0     O 6234   6.756   6.800   3.857 -0.3284  0.7778 -0.6731
   48MOL0     C 6235   6.622   6.753   3.843 -0.6000 -0.8819  0.5161
   48MOL0     C 6236   6.527   6.829   3.897  0.1460 -1.2977  0.2652
   48MOL0     C 6237   6.394   6.798   3.879 -0.0977 -0.2143 -0.0852
   48MOL0     C 6238   6.361   6.682   3.803 -0.0286 -0.1667 -0.0788
   48MOL0     O 6239   6.230   6.644   3.795  0.5663  0.2983 -0.2491
   48MOL0     C 6240   6.194   6.502   3.789  0.5840  0.4780 -0.3732
   48MOL0     C 6241   6.041   6.482   3.759 -0.1703 -0.2100  0.4376
   48MOL0     C 6242   5.951   6.541   3.871 -0.2918 -0.7394 -0.3216
   48MOL0     C 6243   5.800   6.545   3.837 -0.1677 -0.0987 -0.4680
   48MOL0     C 6244   5.704   6.606   3.942 -0.7829  0.3022  0.7576
   48MOL0     C 6245   5.562   6.563   3.926  0.1819  0.7149 -0.0993
   48MOL0     C 6246   5.469   6.666   3.843 -0.0341 -0.0583 -0.4680
   48MOL0     C 6247   5.351   6.587   3.789  0.5215 -0.3448 -0.4368
   48MOL0    Cl 6248   5.248   6.557   3.936  0.3334 -0.2687 -0.2530
   48MOL0     C 6249   6.464   6.610   3.744  0.5049 -0.1903  0.3829
   48MOL0     C 6250   6.594   6.641   3.763 -0.2580 -0.4631 -0.0867
   48MOL0     O 6251   6.857   6.591   3.912 -0.1638 -0.1080  0.0126
   48MOL0     C 6252   7.098   6.706   3.986  0.4188  0.2424  0.5259
   48MOL0     C 6253   7.217   6.761   4.026 -0.6539  0.3740  0.7152
   48MOL0     N 6254   7.545   7.370   3.937 -0.1045 -0.3795  0.1874
   48MOL0     N 6255   7.670   7.419   3.915  0.7848  0.4971 -0.1560
   48MOL0     C 6256   8.769   7.352   4.431  0.1767 -0.6206 -0.6094
   48MOL0     C 6257   8.880   7.266   4.465  0.6177  0.1465 -0.4816
   48MOL0     C 6258   9.166   6.916   4.480 -0.6147  0.5536  1.2804
   48MOL0     C 6259   9.297   6.896   4.416  0.2185  0.2009 -0.2083
   48MOL0     C 6260   9.381   6.794   4.457 -0.1782 -0.1036  0.7366
   48MOL0     C 6261   9.340   6.708   4.553 -0.4053 -0.5727 -0.4016
   48MOL0     O 6262   9.437   6.630   4.609 -0.7270 -0.5663  0.6190
   48MOL0     C 6263   9.415   6.574   4.740 -0.6794 -0.4803 -0.0647
   48MOL0     C 6264   9.540   6.510   4.808 -0.6263  0.5765 -0.3490
   48MOL0     C 6265   9.650   6.605   4.813 -0.6925 -0.7849  0.1540
   48MOL0     C 6266   9.764   6.539   4.892  1.0063 -0.5842  0.0168
   48MOL0     C 6267   9.888   6.618   4.880  0.3795  0.2109  0.4145
   48MOL0     C 6268   9.986   6.679   4.854 -0.0734 -0.1859 -0.0247
   48MOL0     C 6269   9.211   6.720   4.613  0.5423  0.6519  0.0206
   48MOL0     C 6270   9.124   6.820   4.575  1.0470 -0.7397 -0.8016
   48MOL0     H 6271   8.724   6.980   4.533  1.6475  0.6441  0.3957
   48MOL0     H 6272   8.521   7.117   4.456 -0.8838 -0.8438  1.4178
   48MOL0     H 6273   8.603   7.568   4.372  0.5669  1.0784  2.3331
   48MOL0     H 6274   8.500   7.524   4.504 -2.0126 -4.4857 -0.9019
   48MOL0     H 6275   8.413   7.584   4.210  0.3296 -2.4495 -0.6688
   48MOL0     H 6276   8.376   7.666   4.355 -2.2231 -1.1885  0.0184
   48MOL0     H 6277   8.257   7.510   4.456  1.3254 -0.3925 -0.2151
   48MOL0     H 6278   8.282   7.378   4.355  0.9948 -0.2840  1.8026
   48MOL0     H 6279   8.143   7.632   4.259  4.3675  0.2094 -2.1001
   48MOL0     H 6280   8.179   7.498   4.155 -1.2059  0.7987 -1.1840
   48MOL0     H 6281   7.983   7.475   4.392 -0.2051 -0.0097 -0.6578
   48MOL0     H 6282   8.070   7.335   4.321  2.3121  0.1429 -0.4815
   48MOL0     H 6283   7.852   7.366   4.199  1.9628 -1.7037 -1.8529
   48MOL0     H 6284   7.988   7.414   4.096 -0.1374  0.4111 -0.6447
   48MOL0     H 6285   7.796   7.599   4.249 -0.3745 -1.2621 -1.1202
   48MOL0     H 6286   7.943   7.659   4.163 -1.0688  0.3294 -5.0037
   48MOL0     H 6287   7.871   7.580   3.948 -2.3354 -1.0978 -1.6881
   48MOL0     H 6288   7.782   7.704   4.017 -0.1809  0.9783  1.0437
   48MOL0     H 6289   7.545   7.595   4.169 -1.8795 -0.6446 -0.1330
   48MOL0     H 6290   7.279   7.375   4.030 -0.0735  0.9824 -0.5558
   48MOL0     H 6291   7.310   7.488   4.159 -1.2916  0.1229 -2.1596
   48MOL0     H 6292   7.302   7.313   4.302 -0.9331  3.5432 -1.3453
   48MOL0     H 6293   7.464   7.272   4.237 -0.0008  1.0557 -0.1850
   48MOL0     H 6294   7.311   7.071   4.260  1.2964 -1.2513 -0.1210
   48MOL0     H 6295   7.202   7.149   4.139  0.2636  0.6652 -0.1960
   48MOL0     H 6296   7.498   7.087   4.062  0.2937 -2.0635 -0.9645
   48MOL0     H 6297   7.368   7.114   3.948 -0.9547 -1.7268 -1.0670
   48MOL0     H 6298   7.153   7.081   3.936  1.1790  0.2000  0.3183
   48MOL0     H 6299   6.925   6.974   3.906 -1.6259 -0.2300  1.8070
   48MOL0     H 6300   6.556   6.926   3.938 -0.5815 -1.2193  0.6040
   48MOL0     H 6301   6.311   6.859   3.913  0.7654 -0.0925  1.9463
   48MOL0     H 6302   6.212   6.454   3.886  0.8560  2.0040  0.3500
   48MOL0     H 6303   6.244   6.447   3.708  0.2489  1.3274 -1.1774
   48MOL0     H 6304   6.022   6.378   3.731  2.6069  0.2057 -4.1876
   48MOL0     H 6305   6.022   6.538   3.666 -1.2584  2.1310  1.9783
   48MOL0     H 6306   5.980   6.642   3.901 -2.8686  0.1621 -0.5813
   48MOL0     H 6307   5.949   6.477   3.960 -0.9861  0.0386  0.2355
   48MOL0     H 6308   5.796   6.602   3.743  0.0205  3.2246  1.3973
   48MOL0     H 6309   5.758   6.446   3.817 -2.7941  0.8655 -0.0444
   48MOL0     H 6310   5.710   6.714   3.928 -0.5031  0.2070  0.0898
   48MOL0     H 6311   5.734   6.577   4.043  0.8183 -1.5089 -0.1697
   48MOL0     H 6312   5.521   6.546   4.026 -0.3699  1.0310 -0.2727
   48MOL0     H 6313   5.557   6.466   3.875  0.2432  0.6767 -0.0327
   48MOL0     H 6314   5.444   6.756   3.901  3.5304  1.4073 -0.9249
   48MOL0     H 6315   5.527   6.710   3.761  0.7122 -0.8744 -0.3922
   48MOL0     H 6316   5.379   6.498   3.732 -0.9762 -0.8260 -0.4696
   48MOL0     H 6317   5.296   6.640   3.711  0.9338 -1.4698 -1.5266
   48MOL0     H 6318   6.441   6.525   3.680 -0.7602  1.4937 -1.4976
   48MOL0     H 6319   6.682   6.583   3.737  1.1259 -0.3294  3.7193
   48MOL0     H 6320   7.086   6.603   4.018  2.3152  0.2995  1.5489
   48MOL0     H 6321   7.293   6.697   4.069 -0.0805  0.5174 -0.0680
   48MOL0     H 6322   8.788   7.458   4.419 -1.7845 -0.1480 -0.0052
   48MOL0     H 6323   8.983   7.301   4.471  0.7595 -0.1787 -0.9602
   48MOL0     H 6324   9.321   6.964   4.335 -2.4401 -0.1057 -1.3598
   48MOL0     H 6325   9.475   6.781   4.404  1.0669  0.5511  2.6622
   48MOL0     H 6326   9.342   6.493   4.729 -0.7931 -0.5089  0.8228
   48MOL0     H 6327   9.386   6.648   4.815  4.1791  0.9819  0.7096
   48MOL0     H 6328   9.521   6.488   4.913 -0.0556  1.3957 -0.0712
   48MOL0     H 6329   9.565   6.421   4.749 -0.4327  1.1602 -1.1569
   48MOL0     H 6330   9.613   6.693   4.867 -5.2878 -4.1245  3.1220
   48MOL0     H 6331   9.694   6.627   4.715 -0.8548  0.6753  0.3858
   48MOL0     H 6332   9.740   6.514   4.996  1.5996 -1.3572 -0.0159
   48MOL0     H 6333   9.784   6.445   4.839 -1.4558 -0.4508 -1.3214
   48MOL0     H 6334  10.081   6.720   4.827  1.0135 -0.6489  2.7417
   48MOL0     H 6335   9.179   6.656   4.695  2.1421 -0.0466  0.1258
   48MOL0     H 6336   9.026   6.828   4.619  1.7629 -2.0962  1.1691
   49MOL0     O 6337   5.364   9.063   3.397  0.7248 -0.4399  0.3326
   49MOL0     C 6338   5.324   9.161   3.468  0.1879  1.1392  0.6407
   49MOL0     O 6339   5.192   9.203   3.474 -0.2366  0.2575 -0.3559
   49MOL0     C 6340   5.087   9.122   3.433  0.3801 -0.1074  0.6464
   49MOL0     C 6341   5.048   9.016   3.515 -0.0589  0.9095  0.2838
   49MOL0     C 6342   4.959   8.920   3.473 -0.1041  0.1866  0.1618
   49MOL0     C 6343   4.899   8.930   3.345  0.1485 -0.1673 -0.8653
   49MOL0     O 6344   4.816   8.828   3.311  0.0906  0.3537 -0.0043
   49MOL0     C 6345   4.803   8.800   3.169  0.0051  0.2664 -0.8765
   49MOL0     C 6346   4.715   8.681   3.169 -0.4988  0.3228  0.5461
   49MOL0     C 6347   4.657   8.654   3.027  0.9495 -0.6294 -0.4306
   49MOL0     C 6348   4.762   8.598   2.943 -0.0723  0.1092  0.5995
   49MOL0     C 6349   4.705   8.536   2.815  0.2526 -0.1267  0.4474
   49MOL0     C 6350   4.819   8.491   2.729 -0.4945  0.0461  1.0141
   49MOL0     C 6351   4.752   8.376   2.634  0.0820 -0.3784 -0.5742
   49MOL0     C 6352   4.844   8.346   2.518  0.3183 -0.0721  0.0260
   49MOL0     N 6353   4.763   8.245   2.445  0.0444 -0.1839  0.5735
   49MOL0     C 6354   4.709   8.268   2.320  0.9739 -0.2253  0.5613
   49MOL0     C 6355   4.679   8.155   2.276  0.0630  0.1860  0.7660
   49MOL0     C 6356   4.622   8.109   2.138  0.4331  0.2592 -1.4071
   49MOL0     C 6357   4.680   7.974   2.079 -0.2999 -0.9035 -0.7564
   49MOL0     C 6358   4.676   7.958   1.926 -0.1102  0.3589  0.4127
   49MOL0     C 6359   4.544   7.988   1.858  0.4578  0.3262  0.2156
   49MOL0     O 6360   4.543   7.953   1.724  0.0371 -0.3419  0.2293
   49MOL0     C 6361   4.449   8.011   1.643 -0.8539  0.0265  0.2051
   49MOL0     C 6362   4.321   8.063   1.677  0.2562  0.3066  0.4087
   49MOL0     C 6363   4.243   8.126   1.579  0.9203 -0.6603 -0.2285
   49MOL0     C 6364   4.282   8.122   1.436 -0.3177  0.0564  0.1100
   49MOL0     C 6365   4.195   8.189   1.343 -0.7589  0.1500 -0.8719
   49MOL0     O 6366   4.065   8.222   1.382 -0.4793 -0.3207  0.3114
   49MOL0     C 6367   3.979   8.245   1.283  0.7045 -0.0754 -0.3540
   49MOL0     C 6368   3.951   8.159   1.180 -0.8592 -0.1060 -0.3179
   49MOL0     C 6369   3.855   8.182   1.080 -0.1306  0.4365 -0.7373
   49MOL0     C 6370   3.779   8.304   1.090  0.7021 -0.7075 -0.5819
   49MOL0     O 6371   3.689   8.344   0.998  0.7343 -0.1010  0.2396
   49MOL0     C 6372   3.676   8.263   0.880  0.5428  0.5253 -0.6836
   49MOL0     C 6373   3.608   8.340   0.770 -0.3361  0.2043  0.3297
   49MOL0     C 6374   3.451   8.325   0.783 -0.4330 -0.1401  0.7637
   49MOL0     C 6375   3.399   8.382   0.652  0.2836 -0.1486  0.9974
   49MOL0     C 6376   3.242   8.390   0.657 -0.3581  0.4481  0.1720
   49MOL0     C 6377   3.203   8.490   0.766 -0.3167 -0.7488  0.3234
   49MOL0     C 6378   3.049   8.515   0.766  0.7193  0.3079  0.2552
   49MOL0     C 6379   3.019   8.606   0.885 -0.3742  0.0941  0.4247
   49MOL0    Cl 6380   3.092   8.764   0.855 -0.0231 -0.1931 -0.1903
   49MOL0     C 6381   3.796   8.387   1.196 -0.5516  0.0417 -0.1053
   49MOL0     C 6382   3.886   8.353   1.293  0.2292  0.2034  0.2999
   49MOL0     O 6383   4.240   8.200   1.229  0.2822 -0.3707 -0.2188
   49MOL0     C 6384   4.402   8.072   1.403 -0.8325  0.4294 -0.4145
   49MOL0     C 6385   4.482   8.017   1.508 -0.5062 -0.2732  0.1727
   49MOL0     N 6386   4.709   8.065   2.367 -0.9252 -0.3250 -1.1696
   49MOL0     N 6387   4.763   8.111   2.476  0.2499 -0.4068 -0.1934
   49MOL0     C 6388   4.935   9.039   3.263  0.3876 -0.4835 -1.1092
   49MOL0     C 6389   5.024   9.132   3.312  0.2632  0.0813  0.3108
   49MOL0     C 6390   5.421   9.237   3.536  0.2869 -0.3534 -0.4118
   49MOL0     C 6391   5.378   9.305   3.651  0.0276 -0.4203  0.4761
   49MOL0     C 6392   5.459   9.390   3.724 -0.0040 -0.1393 -0.1336
   49MOL0     C 6393   5.591   9.410   3.683 -0.1981  0.3532  0.3089
   49MOL0     O 6394   5.670   9.486   3.768 -0.6659  0.2531  0.4934
   49MOL0     C 6395   5.777   9.415   3.825  0.2888  0.2731  0.1358
   49MOL0     C 6396   5.848   9.518   3.912  0.0038 -0.0564  1.1617
   49MOL0     C 6397   5.949   9.458   4.010 -0.1452  0.3549  0.5253
   49MOL0     C 6398   6.002   9.552   4.115 -0.6339 -1.1599  0.6530
   49MOL0     C 6399   6.093   9.487   4.202  0.0770 -0.0922  0.2994
   49MOL0     C 6400   6.176   9.442   4.276  0.3413  0.0120 -0.1228
   49MOL0     C 6401   5.639   9.351   3.566  0.4077  0.2928 -0.3154
   49MOL0     C 6402   5.554   9.266   3.489  0.0791  0.5272  0.4203
   49MOL0     H 6403   5.099   8.999   3.610 -1.3400 -0.9327  0.7016
   49MOL0     H 6404   4.952   8.836   3.541 -1.3790  0.0203 -0.1516
   49MOL0     H 6405   4.900   8.780   3.124  1.6076 -0.9319  2.7306
   49MOL0     H 6406   4.747   8.883   3.124  1.7771  1.9699 -0.0975
   49MOL0     H 6407   4.635   8.698   3.243 -1.7111  0.9884 -0.8610
   49MOL0     H 6408   4.777   8.597   3.202  0.9735  1.2784  0.3175
   49MOL0     H 6409   4.608   8.741   2.983  2.6564  0.3848 -0.3995
   49MOL0     H 6410   4.579   8.578   3.032  0.1317  0.1618 -0.8199
   49MOL0     H 6411   4.843   8.665   2.914 -0.2900 -1.4497 -4.7885
   49MOL0     H 6412   4.800   8.511   2.998 -1.8921 -1.1466 -0.0245
   49MOL0     H 6413   4.652   8.602   2.746  0.8271  0.3253  0.4303
   49MOL0     H 6414   4.643   8.451   2.843  0.5010 -0.4038  0.1631
   49MOL0     H 6415   4.898   8.448   2.791  2.4955 -2.0009 -3.6777
   49MOL0     H 6416   4.866   8.568   2.668 -0.8502 -1.3244 -1.0738
   49MOL0     H 6417   4.747   8.283   2.692  1.7600 -0.7227 -0.9100
   49MOL0     H 6418   4.655   8.407   2.595 -0.4060 -1.7610 -0.5024
   49MOL0     H 6419   4.932   8.290   2.551  0.4438  0.5296  0.7364
   49MOL0     H 6420   4.873   8.431   2.455 -0.4756  1.4707  1.6652
   49MOL0     H 6421   4.685   8.365   2.279  0.7998 -0.0968  0.9632
   49MOL0     H 6422   4.660   8.187   2.073  0.4155  3.9335  2.5232
   49MOL0     H 6423   4.512   8.110   2.133  0.3795 -0.2359 -0.5459
   49MOL0     H 6424   4.627   7.892   2.129  1.2897 -1.2133  0.4999
   49MOL0     H 6425   4.783   7.979   2.116 -0.5630  1.5654 -0.2139
   49MOL0     H 6426   4.755   8.012   1.875 -0.5270 -0.5949 -1.3261
   49MOL0     H 6427   4.699   7.852   1.909  0.0470  0.5273 -0.4247
   49MOL0     H 6428   4.523   8.095   1.872  1.3814  0.4125  1.0380
   49MOL0     H 6429   4.456   7.934   1.895  0.4184 -0.5433 -1.0633
   49MOL0     H 6430   4.282   8.060   1.778  1.5377 -0.4081  0.8918
   49MOL0     H 6431   4.155   8.169   1.625  1.4581 -1.1605  1.3323
   49MOL0     H 6432   4.013   8.071   1.168 -2.0518 -1.5028  2.8520
   49MOL0     H 6433   3.837   8.108   1.003 -0.4430  0.0670 -0.3143
   49MOL0     H 6434   3.622   8.170   0.900  1.3629  0.0134 -0.7972
   49MOL0     H 6435   3.779   8.244   0.846  0.8478  1.0135 -0.0692
   49MOL0     H 6436   3.628   8.287   0.676 -2.5186  0.3902 -0.3043
   49MOL0     H 6437   3.646   8.442   0.765  2.0033 -0.6550 -0.8389
   49MOL0     H 6438   3.421   8.377   0.874 -0.1347  1.7205 -0.1472
   49MOL0     H 6439   3.418   8.221   0.779 -1.1049  0.0317 -4.1560
   49MOL0     H 6440   3.451   8.474   0.623 -0.1050 -0.6226 -1.3910
   49MOL0     H 6441   3.411   8.306   0.575  1.2464  0.7298  0.2588
   49MOL0     H 6442   3.198   8.292   0.678 -0.5918  0.9975  2.5426
   49MOL0     H 6443   3.204   8.429   0.562  2.6076  0.8766 -0.9212
   49MOL0     H 6444   3.262   8.581   0.753  0.9458 -1.9018 -3.5525
   49MOL0     H 6445   3.227   8.457   0.868  1.0450 -0.2097  0.2055
   49MOL0     H 6446   3.017   8.556   0.670  0.7688  1.0388  0.5480
   49MOL0     H 6447   2.995   8.420   0.768  1.8248 -0.3344  0.4250
   49MOL0     H 6448   3.061   8.565   0.978 -0.7950  2.4503  1.7223
   49MOL0     H 6449   2.914   8.609   0.915 -0.4051  0.1577  0.3078
   49MOL0     H 6450   3.733   8.476   1.192  0.3267  0.7736  1.4487
   49MOL0     H 6451   3.893   8.428   1.371 -0.5430  3.3243 -2.3861
   49MOL0     H 6452   4.438   8.079   1.300  0.1764 -0.0677 -0.1164
   49MOL0     H 6453   4.576   7.976   1.474  1.5629  1.9721  2.7441
   49MOL0     H 6454   4.881   9.051   3.169 -4.3692  0.0246  1.3987
   49MOL0     H 6455   5.038   9.213   3.241  0.7858 -0.1886  0.0982
   49MOL0     H 6456   5.281   9.280   3.691  0.7813 -1.2942  1.8244
   49MOL0     H 6457   5.430   9.431   3.820  1.0070  1.1287 -0.3446
   49MOL0     H 6458   5.840   9.380   3.742 -1.3066 -2.6136  0.0315
   49MOL0     H 6459   5.738   9.331   3.883 -0.2416 -0.0868 -0.7303
   49MOL0     H 6460   5.900   9.591   3.849  0.5047 -0.7177  0.7988
   49MOL0     H 6461   5.772   9.574   3.968 -1.6031 -0.7607 -0.2437
   49MOL0     H 6462   6.035   9.439   3.945 -0.5617  0.2822 -0.0066
   49MOL0     H 6463   5.912   9.366   4.056 -3.0017  0.5270 -1.1928
   49MOL0     H 6464   6.063   9.637   4.083  0.0682 -0.4329  3.6341
   49MOL0     H 6465   5.916   9.583   4.174 -0.8292 -0.5351  0.0522
   49MOL0     H 6466   6.246   9.400   4.345  0.5952  0.2205 -0.2550
   49MOL0     H 6467   5.743   9.361   3.538 -0.1120  1.0212 -2.1185
   49MOL0     H 6468   5.595   9.223   3.397 -0.2547  2.0066 -0.4621
   50MOL0     O 6469   4.467   5.630   2.478  0.5883 -0.0248 -0.6701
   50MOL0     C 6470   4.530   5.732   2.474  1.4408  0.1750 -0.1618
   50MOL0     O 6471   4.513   5.838   2.393  0.0850 -0.7542  0.4726
   50MOL0     C 6472   4.423   5.835   2.289  0.0585 -1.0950  0.5979
   50MOL0     C 6473   4.389   5.728   2.210 -0.4757 -0.2757  0.0433
   50MOL0     C 6474   4.294   5.718   2.112  0.2011 -0.2453  0.4758
   50MOL0     C 6475   4.216   5.835   2.083 -0.0441  0.3467 -0.2278
   50MOL0     O 6476   4.115   5.820   1.983 -0.3033  0.6248 -0.1968
   50MOL0     C 6477   4.031   5.935   1.966  0.0978 -0.1501 -0.2536
   50MOL0     C 6478   3.909   5.904   1.881  0.4916  0.3112 -0.7406
   50MOL0     C 6479   3.833   6.026   1.853  0.6945 -0.0864 -0.0478
   50MOL0     C 6480   3.720   5.989   1.761  0.1273 -0.3594 -0.5429
   50MOL0     C 6481   3.636   6.108   1.723 -1.0602  0.2469 -0.3829
   50MOL0     C 6482   3.539   6.071   1.614 -0.5720  0.5662  0.1276
   50MOL0     C 6483   3.455   6.190   1.564  0.0910  0.5098  0.0341
   50MOL0     C 6484   3.374   6.141   1.443 -0.0772 -0.6778  0.3021
   50MOL0     N 6485   3.263   6.235   1.400  0.0210 -0.6343 -0.2431
   50MOL0     C 6486   3.286   6.348   1.334 -0.3650  0.2440 -0.4335
   50MOL0     C 6487   3.161   6.391   1.301  1.1227 -0.1867 -0.8154
   50MOL0     C 6488   3.144   6.517   1.214 -0.1850 -0.1784 -0.5475
   50MOL0     C 6489   2.995   6.570   1.192  0.0002 -0.0985 -0.5648
   50MOL0     C 6490   2.937   6.482   1.087  0.0386  0.6444  0.1573
   50MOL0     C 6491   2.796   6.536   1.059 -0.7251 -0.0951 -0.4812
   50MOL0     O 6492   2.729   6.438   0.975 -0.0576  0.7557  0.1178
   50MOL0     C 6493   2.594   6.396   0.989 -0.8667 -0.5104 -0.3869
   50MOL0     C 6494   2.552   6.292   0.899  0.0736  0.5273 -0.2309
   50MOL0     C 6495   2.424   6.244   0.919  0.2541 -0.0811  0.4932
   50MOL0     C 6496   2.336   6.296   1.013  0.1430  0.1086 -0.2811
   50MOL0     C 6497   2.200   6.244   1.046 -0.3745 -0.5043  0.5520
   50MOL0     O 6498   2.153   6.158   0.945 -0.1526 -0.5416 -0.4494
   50MOL0     C 6499   2.036   6.096   0.958  0.9930  0.4146  0.1221
   50MOL0     C 6500   2.028   5.963   1.007 -0.1733 -1.2721  0.5169
   50MOL0     C 6501   1.905   5.901   1.036  0.5637 -0.0603  0.7718
   50MOL0     C 6502   1.784   5.954   0.985 -0.9539  0.8043 -0.4175
   50MOL0     O 6503   1.666   5.890   1.013  0.3776 -0.0312  0.0405
   50MOL0     C 6504   1.572   5.873   0.901  1.1321  0.4931 -0.0146
   50MOL0     C 6505   1.451   5.791   0.956  1.1374 -0.4720  0.0888
   50MOL0     C 6506   1.354   5.774   0.839  1.1348 -0.1199 -0.5941
   50MOL0     C 6507   1.243   5.682   0.887 -0.9308 -0.3111 -0.9722
   50MOL0     C 6508   1.123   5.699   0.791  0.3941 -0.0693  0.0813
   50MOL0     C 6509   1.010   5.593   0.807  0.2657 -0.4968  0.3028
   50MOL0     C 6510   0.884   5.632   0.721 -0.6038  0.0944 -0.0197
   50MOL0     C 6511   0.772   5.530   0.745  0.1109  0.2278  0.4979
   50MOL0    Cl 6512   0.624   5.552   0.636 -0.2647 -0.1124  0.1007
   50MOL0     C 6513   1.787   6.079   0.923  0.2826 -0.0626 -0.5101
   50MOL0     C 6514   1.910   6.151   0.924  0.9434 -0.4764 -0.3380
   50MOL0     O 6515   2.142   6.272   1.149  0.6380  0.1601  0.0062
   50MOL0     C 6516   2.384   6.396   1.095 -0.0421  0.4667  0.0750
   50MOL0     C 6517   2.509   6.458   1.081  0.0085  0.7147  0.1681
   50MOL0     N 6518   3.064   6.316   1.362 -0.4983 -0.4739 -0.1252
   50MOL0     N 6519   3.133   6.211   1.403 -0.1946  0.6205  0.4520
   50MOL0     C 6520   4.250   5.956   2.158  0.4800 -0.3230 -0.3691
   50MOL0     C 6521   4.358   5.956   2.253 -0.3133 -0.1340 -0.1285
   50MOL0     C 6522   4.656   5.731   2.557  0.6363 -0.0860  0.1433
   50MOL0     C 6523   4.748   5.843   2.548 -0.7718 -0.6192  0.2273
   50MOL0     C 6524   4.864   5.854   2.622 -0.0733 -0.4817  0.3762
   50MOL0     C 6525   4.893   5.751   2.714  0.4258  0.1381 -0.6511
   50MOL0     O 6526   5.002   5.740   2.798  0.2150 -0.1800  0.1181
   50MOL0     C 6527   5.088   5.855   2.807 -0.7373 -0.0526 -0.0980
   50MOL0     C 6528   5.226   5.826   2.879 -0.6462 -0.0729  0.7982
   50MOL0     C 6529   5.202   5.761   3.018 -0.0595 -0.4208  0.0548
   50MOL0     C 6530   5.223   5.614   3.012 -0.1379 -0.1792 -0.2778
   50MOL0     C 6531   5.365   5.579   3.006 -0.1746 -0.8874 -0.3321
   50MOL0     C 6532   5.485   5.561   2.998  0.1443 -0.0302 -0.6430
   50MOL0     C 6533   4.797   5.641   2.722 -0.0065  0.7044 -0.2388
   50MOL0     C 6534   4.684   5.629   2.647 -0.8890  0.5807  0.7157
   50MOL0     H 6535   4.447   5.636   2.215  0.0998 -0.1660 -2.7337
   50MOL0     H 6536   4.283   5.625   2.059 -1.0049 -0.5338  1.1722
   50MOL0     H 6537   4.090   6.014   1.917  0.5834 -0.9942 -1.0668
   50MOL0     H 6538   3.996   5.978   2.060  0.3398  1.0394 -0.6841
   50MOL0     H 6539   3.843   5.831   1.930  1.3905 -0.1970 -0.2720
   50MOL0     H 6540   3.941   5.855   1.789  0.0499  0.4449 -0.9673
   50MOL0     H 6541   3.887   6.101   1.794 -1.0764  0.4957 -1.0120
   50MOL0     H 6542   3.802   6.083   1.941  0.4583  1.4193 -1.0719
   50MOL0     H 6543   3.766   5.939   1.676  2.7188 -0.8196  1.0354
   50MOL0     H 6544   3.658   5.920   1.819 -1.3660 -0.7558 -2.5217
   50MOL0     H 6545   3.704   6.185   1.684 -0.4703 -1.1096 -2.1730
   50MOL0     H 6546   3.577   6.150   1.804 -0.3381  0.9627 -0.2060
   50MOL0     H 6547   3.488   5.983   1.654  1.2081  0.2972  2.0093
   50MOL0     H 6548   3.604   6.039   1.531 -0.8389  2.1256 -0.7141
   50MOL0     H 6549   3.376   6.213   1.636 -1.3377 -0.0012 -1.3243
   50MOL0     H 6550   3.518   6.276   1.539  0.7701  0.1109  0.3484
   50MOL0     H 6551   3.336   6.041   1.469 -1.1416 -0.0934  1.0740
   50MOL0     H 6552   3.437   6.130   1.354 -2.3865  1.1809 -1.6927
   50MOL0     H 6553   3.379   6.398   1.309 -0.5755  1.2627  0.7118
   50MOL0     H 6554   3.200   6.495   1.123  2.0139 -3.4278  1.3863
   50MOL0     H 6555   3.205   6.592   1.264  0.8454 -1.7217  0.6297
   50MOL0     H 6556   3.000   6.674   1.158  0.0768 -0.0236 -0.3272
   50MOL0     H 6557   2.945   6.583   1.288  1.8575 -0.3735  0.4842
   50MOL0     H 6558   3.001   6.476   0.998  0.4812 -0.9299  0.5425
   50MOL0     H 6559   2.921   6.382   1.129  0.2827 -0.2269 -1.7456
   50MOL0     H 6560   2.798   6.631   1.005 -0.2144  0.6732  0.8409
   50MOL0     H 6561   2.745   6.557   1.154  2.8124  0.1424  1.5660
   50MOL0     H 6562   2.621   6.254   0.824  1.6804  0.4443  1.2362
   50MOL0     H 6563   2.390   6.165   0.853  1.0128  0.7748 -0.9666
   50MOL0     H 6564   2.124   5.925   1.041  0.8495  0.3275 -0.4761
   50MOL0     H 6565   1.905   5.809   1.093 -1.1114 -3.0777 -3.5556
   50MOL0     H 6566   1.631   5.842   0.814  2.5155  2.6941  0.0560
   50MOL0     H 6567   1.526   5.970   0.881  1.8574  0.0295 -5.5742
   50MOL0     H 6568   1.415   5.840   1.047  3.4552 -0.7932  1.2670
   50MOL0     H 6569   1.497   5.695   0.982  0.8472 -0.6546 -0.0694
   50MOL0     H 6570   1.402   5.736   0.748 -0.5925 -3.6041 -0.2141
   50MOL0     H 6571   1.304   5.869   0.817 -0.1322  0.0378  2.4791
   50MOL0     H 6572   1.289   5.583   0.888 -1.8206 -0.7884  2.1044
   50MOL0     H 6573   1.202   5.704   0.986  3.6467  2.2840  0.6499
   50MOL0     H 6574   1.161   5.707   0.689  0.0543  1.8116  0.0670
   50MOL0     H 6575   1.069   5.792   0.811 -1.8049 -0.9666 -1.2930
   50MOL0     H 6576   0.984   5.588   0.913  1.9159  3.1373  1.0435
   50MOL0     H 6577   1.045   5.493   0.782  2.3569  0.0158  1.0317
   50MOL0     H 6578   0.842   5.729   0.751 -3.1889 -0.1602 -2.3993
   50MOL0     H 6579   0.899   5.631   0.612 -0.0942 -1.3624  0.0468
   50MOL0     H 6580   0.735   5.548   0.847  0.1578  0.5702  0.4573
   50MOL0     H 6581   0.820   5.433   0.732  1.0524  0.7024  0.3762
   50MOL0     H 6582   1.695   6.123   0.885  0.3555  1.1075  0.5829
   50MOL0     H 6583   1.900   6.257   0.904 -0.6596 -0.7603 -1.1794
   50MOL0     H 6584   2.317   6.434   1.171 -0.3467 -0.7483  0.4312
   50MOL0     H 6585   2.546   6.537   1.146 -2.0122  1.8980 -0.0581
   50MOL0     H 6586   4.210   6.052   2.129  1.3662  0.7706  1.8160
   50MOL0     H 6587   4.386   6.043   2.311 -0.2344 -0.7971  0.8623
   50MOL0     H 6588   4.733   5.927   2.481 -0.9313  0.8865  2.0594
   50MOL0     H 6589   4.932   5.936   2.604  2.1322 -2.3730 -0.3150
   50MOL0     H 6590   5.040   5.931   2.868  2.4102  1.4243  0.7153
   50MOL0     H 6591   5.113   5.898   2.709 -1.1173  1.7344  0.5537
   50MOL0     H 6592   5.294   5.765   2.819  2.0420  0.8219  2.7776
   50MOL0     H 6593   5.279   5.922   2.885  2.0081 -1.4799  1.1160
   50MOL0     H 6594   5.105   5.788   3.060  0.7975 -1.4895  3.0665
   50MOL0     H 6595   5.273   5.818   3.079  2.0098  1.2943 -3.6556
   50MOL0     H 6596   5.176   5.565   3.098 -3.4527  2.6204 -0.2746
   50MOL0     H 6597   5.175   5.564   2.927  0.7557 -1.2507 -0.1803
   50MOL0     H 6598   5.586   5.526   3.001  0.1845  0.1310  0.0795
   50MOL0     H 6599   4.827   5.569   2.797 -1.2685 -1.0267 -1.3340
   50MOL0     H 6600   4.616   5.545   2.661 -1.5675  1.3443  2.3356
   51MOL0     O 6601   9.897   9.916   1.148  0.4374  0.9432 -0.3001
   51MOL0     C 6602   9.862   9.858   1.040  0.3071 -1.6304 -0.1332
   51MOL0     O 6603   9.946   9.806   0.946 -0.6231  0.1622 -0.6007
   51MOL0     C 6604  10.073   9.821   0.982  0.2718  0.5042  0.0563
   51MOL0     C 6605  10.128   9.732   1.066 -0.1983  0.0710 -0.6358
   51MOL0     C 6606  10.259   9.743   1.102  0.3055 -0.4115 -0.7125
   51MOL0     C 6607  10.344   9.842   1.054 -0.2605  0.4096  0.8791
   51MOL0     O 6608  10.486   9.856   1.076 -0.0413  1.0211  0.1764
   51MOL0     C 6609  10.549   9.750   1.150  0.3119 -0.0400 -0.5932
   51MOL0     C 6610  10.697   9.795   1.179 -0.2390  0.1690  0.2403
   51MOL0     C 6611  10.730   9.889   1.297  1.1040  0.5047 -0.7948
   51MOL0     C 6612  10.675   9.828   1.430  1.5522  0.1236 -0.3862
   51MOL0     C 6613  10.710   9.913   1.544 -0.2422  0.7695  0.5755
   51MOL0     C 6614  10.700   9.837   1.669  0.5530 -0.6875  0.6622
   51MOL0     C 6615  10.756   9.900   1.798  0.5076 -0.5475  0.2314
   51MOL0     C 6616  10.655   9.988   1.874 -0.0889 -0.0669 -0.2196
   51MOL0     N 6617  10.673  10.002   2.017  0.0041  0.3640 -0.9378
   51MOL0     C 6618  10.633   9.915   2.114  1.1436 -0.1854 -0.0533
   51MOL0     C 6619  10.697   9.945   2.230 -0.5191 -0.8831 -0.1965
   51MOL0     C 6620  10.671   9.860   2.354 -0.2282  0.5701 -0.1479
   51MOL0     C 6621  10.550   9.910   2.435 -0.0200 -0.0734 -0.2981
   51MOL0     C 6622  10.586  10.043   2.502  0.3449 -0.4434  0.2632
   51MOL0     C 6623  10.482  10.128   2.573 -0.2389 -0.4562 -0.3152
   51MOL0     O 6624  10.365  10.157   2.501 -0.5210 -0.2851  0.2433
   51MOL0     C 6625  10.250  10.184   2.578 -0.7027 -0.5679 -0.1207
   51MOL0     C 6626  10.250  10.244   2.711  0.1994  0.0946  0.6107
   51MOL0     C 6627  10.138  10.272   2.780  0.5994 -0.6466  0.1780
   51MOL0     C 6628  10.014  10.248   2.725 -0.1525  0.6979  0.0222
   51MOL0     C 6629   9.893  10.304   2.789 -0.4155  0.0791  0.1309
   51MOL0     O 6630   9.776  10.268   2.737 -0.0355  0.2361  0.0005
   51MOL0     C 6631   9.655  10.306   2.796  0.5054 -0.6578 -1.0717
   51MOL0     C 6632   9.540  10.290   2.717  0.2985 -0.8445  0.2350
   51MOL0     C 6633   9.410  10.324   2.762  0.3829  0.9293 -0.0379
   51MOL0     C 6634   9.394  10.363   2.898 -0.0274 -0.0816 -0.3380
   51MOL0     O 6635   9.282  10.384   2.966  0.3592  0.1799 -0.2063
   51MOL0     C 6636   9.200  10.477   2.891 -0.3290 -0.2131 -0.2191
   51MOL0     C 6637   9.122  10.547   2.995 -0.6616  0.3118  0.2064
   51MOL0     C 6638   9.019  10.634   2.921  0.1110  0.2111 -0.2418
   51MOL0     C 6639   8.944  10.750   3.001 -0.0165  0.1928 -1.1412
   51MOL0     C 6640   8.884  10.860   2.915 -0.1400 -0.3091  0.1930
   51MOL0     C 6641   8.825  10.972   3.001 -0.8150  0.6202  0.2133
   51MOL0     C 6642   8.931  11.062   3.063 -0.4276  0.1931 -0.8463
   51MOL0     C 6643   8.879  11.205   3.097  1.1804 -0.3160 -0.1305
   51MOL0    Cl 6644   8.863  11.309   2.948  0.4553  0.3309 -0.0762
   51MOL0     C 6645   9.510  10.371   2.972  0.3132  0.0737  0.1014
   51MOL0     C 6646   9.640  10.348   2.935 -0.4319  0.3383 -0.0176
   51MOL0     O 6647   9.913  10.398   2.856  0.1335  0.3963  0.0817
   51MOL0     C 6648  10.011  10.189   2.596 -0.0308 -0.3096  0.2351
   51MOL0     C 6649  10.127  10.150   2.529  0.5270 -0.4307 -0.2191
   51MOL0     N 6650  10.786  10.047   2.194  0.2536  1.0028 -0.8848
   51MOL0     N 6651  10.769  10.078   2.070 -0.3190  0.6730 -0.0461
   51MOL0     C 6652  10.290   9.935   0.957 -0.5768  0.1562 -0.6053
   51MOL0     C 6653  10.156   9.920   0.921  0.1829  0.7076  0.7409
   51MOL0     C 6654   9.720   9.871   0.985 -0.1264 -0.8544  0.1454
   51MOL0     C 6655   9.616   9.914   1.070  0.2036 -0.9574  0.9040
   51MOL0     C 6656   9.482   9.918   1.024  0.3645 -0.7374  0.8784
   51MOL0     C 6657   9.445   9.869   0.906  0.3649 -0.2713 -0.2157
   51MOL0     O 6658   9.318   9.854   0.856  0.3978 -0.7050 -0.1553
   51MOL0     C 6659   9.204   9.850   0.949 -0.0662 -0.3136  0.3519
   51MOL0     C 6660   9.139   9.988   0.954 -0.4578 -0.3715  0.2466
   51MOL0     C 6661   9.126  10.048   0.809  0.4062 -0.3402  0.3753
   51MOL0     C 6662   9.113  10.196   0.819  0.7393 -0.6270 -0.0889
   51MOL0     C 6663   9.225  10.267   0.877 -0.3016  0.2624 -0.2022
   51MOL0     C 6664   9.322  10.326   0.922 -0.7875  0.5999  0.4143
   51MOL0     C 6665   9.551   9.818   0.822 -0.6197 -0.6133 -0.8633
   51MOL0     C 6666   9.681   9.816   0.863 -0.2731  0.0027  0.0118
   51MOL0     H 6667  10.066   9.655   1.110  1.0558  0.2548  1.6277
   51MOL0     H 6668  10.312   9.674   1.167  2.1688  3.0890  1.8475
   51MOL0     H 6669  10.547   9.654   1.099  0.0320 -0.8134  0.8297
   51MOL0     H 6670  10.501   9.739   1.248  1.3752  3.6960  0.5193
   51MOL0     H 6671  10.733   9.840   1.086  2.2767  0.7413  1.3828
   51MOL0     H 6672  10.753   9.706   1.209 -1.6253 -0.6340  0.4718
   51MOL0     H 6673  10.687   9.989   1.284  0.6107  0.4520  0.2887
   51MOL0     H 6674  10.839   9.884   1.307  1.2130 -2.4892 -2.3030
   51MOL0     H 6675  10.567   9.821   1.417  1.6211  1.2950 -1.8821
   51MOL0     H 6676  10.714   9.726   1.439  2.7559  0.5609 -0.4338
   51MOL0     H 6677  10.652  10.005   1.547  2.0421  2.2481  2.0686
   51MOL0     H 6678  10.815   9.940   1.533  0.6915 -1.8900  2.0418
   51MOL0     H 6679  10.765   9.752   1.648 -0.5890 -1.5734  0.6066
   51MOL0     H 6680  10.594   9.814   1.685 -0.4137  2.2012 -0.8260
   51MOL0     H 6681  10.779   9.826   1.875  1.1633  2.3095  2.9874
   51MOL0     H 6682  10.849   9.953   1.774  0.7037 -0.7846  0.4743
   51MOL0     H 6683  10.551   9.961   1.855 -0.1984  0.1638  0.0416
   51MOL0     H 6684  10.669  10.090   1.837 -0.4584  0.1394  0.1961
   51MOL0     H 6685  10.555   9.842   2.094  2.0121 -0.5940 -2.1295
   51MOL0     H 6686  10.760   9.870   2.417 -0.1100  0.3819 -0.2871
   51MOL0     H 6687  10.655   9.753   2.338 -3.1008  1.1631 -2.0242
   51MOL0     H 6688  10.526   9.833   2.508 -0.7731 -0.1284 -0.5915
   51MOL0     H 6689  10.466   9.931   2.368  1.2668 -1.9452 -2.6651
   51MOL0     H 6690  10.662  10.027   2.579  1.4056  0.0435 -0.6485
   51MOL0     H 6691  10.628  10.113   2.429  1.1933 -0.2099  0.9582
   51MOL0     H 6692  10.535  10.221   2.597 -0.9813 -0.2427  0.5635
   51MOL0     H 6693  10.462  10.085   2.672 -0.0592  3.7211  1.7488
   51MOL0     H 6694  10.349  10.271   2.746  0.0962 -0.4270  1.3403
   51MOL0     H 6695  10.147  10.330   2.871  2.3469 -1.5512  0.6373
   51MOL0     H 6696   9.558  10.240   2.623  2.7473 -1.8546  1.1715
   51MOL0     H 6697   9.322  10.306   2.702 -0.6490 -0.9631  1.9037
   51MOL0     H 6698   9.143  10.416   2.820  2.4728 -0.9872 -1.9791
   51MOL0     H 6699   9.250  10.555   2.833 -3.8104 -0.7602 -4.5630
   51MOL0     H 6700   9.197  10.597   3.057  0.7403 -0.7702 -0.5362
   51MOL0     H 6701   9.069  10.474   3.056 -1.4203 -1.3003 -2.2245
   51MOL0     H 6702   8.937  10.573   2.882 -0.5230  0.5744  0.4905
   51MOL0     H 6703   9.055  10.675   2.827 -0.7658  1.0754 -0.2173
   51MOL0     H 6704   8.874  10.700   3.069  1.3402  1.4883  1.3920
   51MOL0     H 6705   9.019  10.807   3.057 -0.8786  1.3543 -1.1455
   51MOL0     H 6706   8.820  10.805   2.847  3.4153 -2.2889 -1.8677
   51MOL0     H 6707   8.967  10.910   2.864 -1.6060  0.1214 -1.8664
   51MOL0     H 6708   8.765  10.928   3.081 -0.6234  1.5015  0.8616
   51MOL0     H 6709   8.767  11.035   2.934 -2.3893 -1.9874 -1.0329
   51MOL0     H 6710   8.954  11.019   3.162  1.5569  0.4088 -1.1800
   51MOL0     H 6711   9.017  11.086   3.001 -0.8560 -1.8717 -2.3366
   51MOL0     H 6712   8.940  11.249   3.177 -0.7688 -0.9797  1.8251
   51MOL0     H 6713   8.780  11.195   3.142  1.2414 -0.4887 -0.0334
   51MOL0     H 6714   9.494  10.388   3.078  0.7406 -0.6440  0.2933
   51MOL0     H 6715   9.721  10.347   3.007  1.5692 -1.7552 -2.1103
   51MOL0     H 6716   9.912  10.177   2.553 -1.2436  0.1485  2.7070
   51MOL0     H 6717  10.140  10.106   2.430  0.2053 -1.9309  0.3803
   51MOL0     H 6718  10.367   9.992   0.906  0.7495  0.1142  1.2432
   51MOL0     H 6719  10.110   9.985   0.847 -0.1676 -0.5301 -0.1760
   51MOL0     H 6720   9.641   9.964   1.163  0.7777  1.0743 -0.2630
   51MOL0     H 6721   9.407   9.955   1.093 -2.0606  0.4258 -2.1342
   51MOL0     H 6722   9.238   9.819   1.049 -1.7491 -0.5315  0.8808
   51MOL0     H 6723   9.126   9.778   0.922 -0.4204  0.0443  0.4173
   51MOL0     H 6724   9.039   9.980   0.997 -0.3355 -3.4946  0.2036
   51MOL0     H 6725   9.191  10.054   1.024 -1.5473  1.1236 -0.3016
   51MOL0     H 6726   9.036  10.009   0.761  0.3258  0.8845 -0.5246
   51MOL0     H 6727   9.206  10.030   0.736 -0.8160  1.4211 -1.5339
   51MOL0     H 6728   9.090  10.238   0.721  0.1017  1.6523  0.9831
   51MOL0     H 6729   9.022  10.219   0.874  1.5129 -2.4467  2.0943
   51MOL0     H 6730   9.398  10.382   0.974  0.1159 -0.3702  0.1911
   51MOL0     H 6731   9.529   9.768   0.728 -0.6485 -1.0757 -0.6143
   51MOL0     H 6732   9.754   9.770   0.798 -0.7373 -0.0740 -0.4620
   52MOL0     O 6733   4.118   2.864   7.972  0.1145 -0.0605 -0.0037
   52MOL0     C 6734   4.038   2.958   7.973  0.7531  0.2819  0.5472
   52MOL0     O 6735   3.905   2.950   7.996 -0.4984 -0.7614 -0.5135
   52MOL0     C 6736   3.850   2.831   8.049  0.1574 -0.1761 -0.4381
   52MOL0     C 6737   3.735   2.775   7.995 -0.5181  0.0508  0.7638
   52MOL0     C 6738   3.679   2.658   8.040 -0.1311  0.5430 -0.2191
   52MOL0     C 6739   3.726   2.592   8.162  0.5927  0.3547  0.1063
   52MOL0     O 6740   3.674   2.478   8.226  0.5070 -0.2400  0.1587
   52MOL0     C 6741   3.559   2.424   8.160  0.3570  0.3676 -0.3750
   52MOL0     C 6742   3.505   2.316   8.248 -0.0094  0.2343  0.0313
   52MOL0     C 6743   3.391   2.248   8.174  0.0349 -0.2266  0.1235
   52MOL0     C 6744   3.289   2.190   8.276 -0.4853 -0.3752  0.3262
   52MOL0     C 6745   3.175   2.114   8.205 -0.5007  0.4629  0.6886
   52MOL0     C 6746   3.075   2.047   8.297 -0.4656  0.2231  0.3866
   52MOL0     C 6747   3.001   2.139   8.396  0.4935  0.4474 -0.4884
   52MOL0     C 6748   2.895   2.060   8.475  1.5148 -0.1511  0.5404
   52MOL0     N 6749   2.812   2.153   8.556  0.0091  0.1893  0.4302
   52MOL0     C 6750   2.822   2.171   8.696  0.3471  0.0343  0.8999
   52MOL0     C 6751   2.708   2.237   8.721  0.4383 -0.2205 -0.3182
   52MOL0     C 6752   2.668   2.272   8.861  0.0285 -0.2974  0.0503
   52MOL0     C 6753   2.528   2.220   8.884  0.5774 -0.8003  0.3448
   52MOL0     C 6754   2.490   2.240   9.027  0.1100  0.5675  0.6042
   52MOL0     C 6755   2.343   2.196   9.056 -0.1371 -0.2261  0.1119
   52MOL0     O 6756   2.251   2.293   9.007  0.3090 -0.5838  0.3033
   52MOL0     C 6757   2.124   2.288   9.062  0.2911  1.2160  0.4093
   52MOL0     C 6758   2.073   2.195   9.160  0.8143 -0.4994 -0.3208
   52MOL0     C 6759   1.935   2.199   9.203 -0.6915  0.4399  0.7247
   52MOL0     C 6760   1.854   2.303   9.154  0.5670  0.3632  0.5487
   52MOL0     C 6761   1.712   2.305   9.184  1.1120  0.8695  0.0147
   52MOL0     O 6762   1.636   2.412   9.139  0.4027  0.3624 -0.2992
   52MOL0     C 6763   1.504   2.418   9.188  0.5677 -0.2098  0.4913
   52MOL0     C 6764   1.399   2.350   9.124  0.1447 -0.6389  0.8941
   52MOL0     C 6765   1.266   2.380   9.166 -0.0890 -0.2885  0.5800
   52MOL0     C 6766   1.239   2.467   9.270 -1.0167 -0.1727  0.2746
   52MOL0     O 6767   1.118   2.520   9.306 -0.5245  0.2295  0.0739
   52MOL0     C 6768   1.011   2.521   9.215  0.0747 -0.7357 -0.0311
   52MOL0     C 6769   0.895   2.625   9.251 -0.0272  0.0746  0.1693
   52MOL0     C 6770   0.842   2.591   9.385  0.4670 -0.2969 -0.4476
   52MOL0     C 6771   0.701   2.656   9.409 -0.2781  0.1559  0.4201
   52MOL0     C 6772   0.691   2.815   9.391  0.1806  0.5335 -0.1635
   52MOL0     C 6773   0.555   2.879   9.369 -0.1784  0.3603 -0.6841
   52MOL0     C 6774   0.455   2.833   9.482 -0.3655  0.0446 -0.5126
   52MOL0     C 6775   0.328   2.910   9.487  0.0007 -0.6427  0.2521
   52MOL0    Cl 6776   0.350   3.089   9.508  0.0680 -0.4983 -0.0671
   52MOL0     C 6777   1.352   2.526   9.341 -0.0017 -1.3620 -0.1755
   52MOL0     C 6778   1.483   2.502   9.295  0.2174 -0.0912  0.8240
   52MOL0     O 6779   1.668   2.215   9.255  0.0193 -0.3254  0.4609
   52MOL0     C 6780   1.901   2.395   9.057 -0.0067  0.7019  0.7331
   52MOL0     C 6781   2.032   2.383   9.015  0.5803 -0.3202  0.0728
   52MOL0     N 6782   2.631   2.262   8.605  0.0836 -0.3058  0.4028
   52MOL0     N 6783   2.696   2.211   8.508 -0.7621  0.1486  0.4616
   52MOL0     C 6784   3.839   2.646   8.222 -0.4407  0.4233  0.5001
   52MOL0     C 6785   3.892   2.773   8.176 -0.4657 -0.4199  0.0113
   52MOL0     C 6786   4.080   3.096   7.934  0.2535 -0.2566  0.8921
   52MOL0     C 6787   4.190   3.106   7.859  0.3033  1.1232 -0.1717
   52MOL0     C 6788   4.247   3.222   7.810  0.4218 -0.9136  0.3816
   52MOL0     C 6789   4.185   3.343   7.843 -0.0281 -0.2961  0.7311
   52MOL0     O 6790   4.231   3.469   7.792  0.2089 -0.6437 -0.0350
   52MOL0     C 6791   4.333   3.473   7.688 -0.2415  0.3182 -0.8813
   52MOL0     C 6792   4.383   3.614   7.672 -0.9376  1.0928  0.0169
   52MOL0     C 6793   4.262   3.707   7.648 -0.2163 -0.2875  0.4491
   52MOL0     C 6794   4.318   3.848   7.613 -0.5904 -0.4424 -1.2640
   52MOL0     C 6795   4.364   3.871   7.480  0.0081 -0.3582 -0.0229
   52MOL0     C 6796   4.407   3.903   7.371 -0.5052  0.2294  0.4582
   52MOL0     C 6797   4.074   3.337   7.929  0.4418 -1.0604  0.6881
   52MOL0     C 6798   4.017   3.214   7.963  0.9872 -0.1109 -0.7247
   52MOL0     H 6799   3.690   2.830   7.913 -2.0347  1.0118  2.1886
   52MOL0     H 6800   3.590   2.624   7.989 -3.4389 -3.3210  6.6631
   52MOL0     H 6801   3.583   2.393   8.058  2.3962 -2.2670  0.7496
   52MOL0     H 6802   3.481   2.497   8.142  0.7695  0.3083 -2.6820
   52MOL0     H 6803   3.460   2.368   8.333 -0.4291 -0.1045  0.0229
   52MOL0     H 6804   3.583   2.248   8.282 -2.5401 -2.4749  0.8107
   52MOL0     H 6805   3.436   2.171   8.111  0.2856 -1.2090  1.4700
   52MOL0     H 6806   3.330   2.315   8.113  3.7899  2.3242 -1.1931
   52MOL0     H 6807   3.348   2.126   8.343  0.3533  0.3919  0.3384
   52MOL0     H 6808   3.248   2.272   8.335 -4.1151 -2.0320  0.3985
   52MOL0     H 6809   3.234   2.039   8.151 -1.2608 -0.0470  0.5664
   52MOL0     H 6810   3.137   2.184   8.130  0.9769  2.4497  1.6884
   52MOL0     H 6811   3.121   1.959   8.344 -1.6823 -1.2294 -0.9990
   52MOL0     H 6812   3.011   2.005   8.218 -0.1247  1.2188 -0.4304
   52MOL0     H 6813   3.067   2.178   8.474 -0.0705  1.0423 -0.2982
   52MOL0     H 6814   2.950   2.222   8.345  0.4573 -0.1019 -1.3692
   52MOL0     H 6815   2.942   1.974   8.522  2.5876 -0.1514 -0.4849
   52MOL0     H 6816   2.819   2.021   8.406 -1.5595  1.8795  2.5012
   52MOL0     H 6817   2.891   2.126   8.767  0.9400  2.2490  1.8346
   52MOL0     H 6818   2.685   2.379   8.874 -0.6805 -0.2899  0.9422
   52MOL0     H 6819   2.737   2.221   8.929 -2.1948 -3.9925 -0.2145
   52MOL0     H 6820   2.528   2.112   8.867  1.8353 -0.6567 -0.7050
   52MOL0     H 6821   2.458   2.271   8.817 -0.4576  1.5013  2.9678
   52MOL0     H 6822   2.556   2.186   9.096  0.5248  0.6709  0.2880
   52MOL0     H 6823   2.502   2.344   9.057  1.1033  0.6659 -0.0723
   52MOL0     H 6824   2.336   2.183   9.165 -0.8486 -1.4079 -0.0617
   52MOL0     H 6825   2.315   2.096   9.021 -2.7789 -0.0029  1.3090
   52MOL0     H 6826   2.128   2.110   9.196  0.4344  0.0522  1.6868
   52MOL0     H 6827   1.884   2.122   9.260  0.1269  0.4631  1.4950
   52MOL0     H 6828   1.428   2.283   9.044 -0.3463  1.4331 -1.1224
   52MOL0     H 6829   1.185   2.334   9.110  1.0763 -1.5842 -0.0995
   52MOL0     H 6830   0.968   2.420   9.211 -0.4155 -0.5439  0.3807
   52MOL0     H 6831   1.051   2.542   9.115  1.5195 -0.2677  0.6163
   52MOL0     H 6832   0.810   2.615   9.183 -0.5526  2.2402  0.4470
   52MOL0     H 6833   0.929   2.728   9.249 -1.5104  0.5874 -2.0074
   52MOL0     H 6834   0.904   2.644   9.457 -0.2853  1.2039 -0.8567
   52MOL0     H 6835   0.830   2.485   9.409 -0.9828  0.5873  3.5757
   52MOL0     H 6836   0.633   2.608   9.338 -0.1527  0.6928 -0.0670
   52MOL0     H 6837   0.660   2.630   9.507 -1.3825 -2.4386 -0.6425
   52MOL0     H 6838   0.749   2.848   9.305 -3.0753  4.5202 -1.1270
   52MOL0     H 6839   0.743   2.861   9.476 -0.3054 -0.4655  0.7066
   52MOL0     H 6840   0.536   2.855   9.265  1.8617  2.4458 -1.6226
   52MOL0     H 6841   0.570   2.987   9.373 -1.1248  0.4930 -0.4577
   52MOL0     H 6842   0.430   2.727   9.472 -1.0633  0.0414  1.0764
   52MOL0     H 6843   0.518   2.839   9.571  0.6547 -1.3228 -1.0971
   52MOL0     H 6844   0.279   2.862   9.573 -1.1748  2.9904  1.8299
   52MOL0     H 6845   0.273   2.889   9.395 -0.5268  4.1207 -0.7527
   52MOL0     H 6846   1.332   2.585   9.430 -1.7638 -0.1894 -1.2850
   52MOL0     H 6847   1.569   2.556   9.335  1.3797 -0.1961 -1.3723
   52MOL0     H 6848   1.838   2.464   9.003 -1.4475 -1.2830 -0.2609
   52MOL0     H 6849   2.067   2.450   8.938 -1.2668  0.7820  0.1427
   52MOL0     H 6850   3.880   2.601   8.311  0.1412  0.2126  0.1310
   52MOL0     H 6851   3.974   2.827   8.223 -0.0473 -1.0080 -0.0382
   52MOL0     H 6852   4.248   3.019   7.830  1.0446  1.4667  0.2483
   52MOL0     H 6853   4.333   3.210   7.745 -3.2810 -1.9563 -4.9506
   52MOL0     H 6854   4.291   3.433   7.596  0.9506 -1.0873 -0.8418
   52MOL0     H 6855   4.419   3.409   7.712 -0.1896 -1.6216 -5.2927
   52MOL0     H 6856   4.442   3.637   7.762 -1.4058 -1.8594  1.1792
   52MOL0     H 6857   4.458   3.624   7.593  1.0540 -1.3043  1.4337
   52MOL0     H 6858   4.191   3.715   7.731 -1.5539 -0.9314 -0.6112
   52MOL0     H 6859   4.207   3.675   7.559  0.4905 -1.1993  0.3204
   52MOL0     H 6860   4.228   3.910   7.622 -2.8566 -3.3743 -2.2952
   52MOL0     H 6861   4.396   3.883   7.682 -3.8713  1.7294  1.6950
   52MOL0     H 6862   4.442   3.939   7.276 -3.8018 -0.2512 -1.0880
   52MOL0     H 6863   4.017   3.423   7.964  0.6311 -1.0906  1.0774
   52MOL0     H 6864   3.925   3.204   8.021  2.1518  0.6365  1.3532
   53MOL0     O 6865  10.588   8.299   6.142  0.1407  0.4415  0.2423
   53MOL0     C 6866  10.618   8.215   6.228 -0.0040  0.7446 -0.4201
   53MOL0     O 6867  10.531   8.159   6.319  0.4663 -0.2402  0.4618
   53MOL0     C 6868  10.391   8.161   6.291  0.4311 -0.0323  0.4133
   53MOL0     C 6869  10.322   8.037   6.301 -0.1371  0.0704  0.3068
   53MOL0     C 6870  10.184   8.044   6.307  0.7196 -0.0992  0.1542
   53MOL0     C 6871  10.119   8.168   6.308  0.5507  0.0241 -0.0446
   53MOL0     O 6872   9.980   8.166   6.312 -0.1561 -0.1144  0.0407
   53MOL0     C 6873   9.901   8.276   6.263 -0.6385  0.9484 -0.7795
   53MOL0     C 6874   9.753   8.236   6.228 -0.2413  0.2753 -0.1672
   53MOL0     C 6875   9.687   8.358   6.163 -0.2387  1.0290 -0.2386
   53MOL0     C 6876   9.536   8.329   6.142 -0.3430 -0.1826 -0.4450
   53MOL0     C 6877   9.482   8.409   6.024  0.3700  0.1142 -0.2356
   53MOL0     C 6878   9.331   8.392   5.997  0.0037  0.5000 -0.4645
   53MOL0     C 6879   9.280   8.452   5.868 -0.1182  0.0599  0.5076
   53MOL0     C 6880   9.309   8.357   5.749 -0.0077 -0.6998 -0.4788
   53MOL0     N 6881   9.255   8.399   5.618 -0.1754  0.4956  0.0687
   53MOL0     C 6882   9.172   8.515   5.594  0.2422  0.2027 -0.7482
   53MOL0     C 6883   9.100   8.502   5.481 -0.1851  0.3460  0.0860
   53MOL0     C 6884   9.032   8.605   5.389 -0.7038  0.0174  0.3619
   53MOL0     C 6885   8.882   8.632   5.416  0.1016 -0.5049  0.3021
   53MOL0     C 6886   8.808   8.496   5.434 -0.4159 -0.0013  0.2602
   53MOL0     C 6887   8.657   8.512   5.420  0.7385  0.6979  0.7004
   53MOL0     O 6888   8.606   8.588   5.311 -0.4972  0.0896  0.2045
   53MOL0     C 6889   8.465   8.591   5.295  0.4119  0.7115  1.1545
   53MOL0     C 6890   8.413   8.676   5.198 -0.3210 -0.0470  0.2542
   53MOL0     C 6891   8.280   8.675   5.170 -0.0172  0.3266  0.0388
   53MOL0     C 6892   8.187   8.584   5.230  0.2783  0.2189  0.3221
   53MOL0     C 6893   8.038   8.583   5.198 -0.2199  0.7140  0.4660
   53MOL0     O 6894   7.966   8.487   5.250  0.3653  0.2534 -0.0525
   53MOL0     C 6895   7.834   8.468   5.231 -0.7574  0.0576 -0.4050
   53MOL0     C 6896   7.777   8.364   5.299  0.0303  0.0556 -0.2850
   53MOL0     C 6897   7.644   8.325   5.277  0.4739  0.0177  0.0846
   53MOL0     C 6898   7.566   8.402   5.193  0.2165  0.4732 -0.6333
   53MOL0     O 6899   7.438   8.353   5.184 -0.2904 -0.0726 -0.2059
   53MOL0     C 6900   7.332   8.413   5.117  0.6287  0.3278 -0.1106
   53MOL0     C 6901   7.203   8.346   5.148 -0.2372 -0.2047 -0.7372
   53MOL0     C 6902   7.210   8.198   5.108  0.1182 -0.8647  0.7878
   53MOL0     C 6903   7.075   8.118   5.135  0.4156  0.0997  0.3594
   53MOL0     C 6904   6.988   8.127   5.012  0.7139  0.1011  1.2877
   53MOL0     C 6905   6.856   8.042   5.051 -0.1167 -0.0642 -0.4718
   53MOL0     C 6906   6.744   8.058   4.958 -0.2739  0.7264 -0.6080
   53MOL0     C 6907   6.651   7.937   4.965  0.9987  0.2507  0.2629
   53MOL0    Cl 6908   6.585   7.915   5.129 -0.6788 -0.2940 -0.1182
   53MOL0     C 6909   7.622   8.499   5.112  0.3334  0.5789 -0.1391
   53MOL0     C 6910   7.757   8.530   5.130  0.4978 -0.9581  0.7425
   53MOL0     O 6911   8.000   8.666   5.122  0.3841 -0.0152  0.1243
   53MOL0     C 6912   8.232   8.489   5.327 -0.0403 -0.0872  1.2498
   53MOL0     C 6913   8.370   8.493   5.354 -0.4334  0.3297 -0.6177
   53MOL0     N 6914   9.126   8.375   5.436 -0.7344 -0.0151  0.4029
   53MOL0     N 6915   9.210   8.309   5.518  0.0453 -1.0620  0.3285
   53MOL0     C 6916  10.195   8.284   6.300 -0.0594 -0.1370 -0.2088
   53MOL0     C 6917  10.330   8.285   6.283  0.8764 -0.9426 -0.5145
   53MOL0     C 6918  10.761   8.174   6.225 -0.5182 -0.2955 -0.3471
   53MOL0     C 6919  10.855   8.251   6.157  0.6968 -0.1105 -0.0894
   53MOL0     C 6920  10.993   8.201   6.143  0.7620  0.0722 -0.2537
   53MOL0     C 6921  11.029   8.084   6.217  0.6705  0.2163 -0.0433
   53MOL0     O 6922  11.164   8.050   6.222  0.6136  0.3657  0.2271
   53MOL0     C 6923  11.193   7.910   6.246  0.2153 -0.0325  0.8378
   53MOL0     C 6924  11.339   7.875   6.222  0.3776  0.3416 -0.5230
   53MOL0     C 6925  11.369   7.758   6.321 -0.8872 -0.7073 -0.4291
   53MOL0     C 6926  11.518   7.723   6.318 -0.2555 -1.0026 -1.0809
   53MOL0     C 6927  11.589   7.842   6.372 -0.1419 -0.1333 -0.4054
   53MOL0     C 6928  11.640   7.939   6.421  0.1477 -0.2841  0.3380
   53MOL0     C 6929  10.928   8.014   6.279  0.7245  0.3405  0.2225
   53MOL0     C 6930  10.799   8.057   6.295 -0.0160 -0.5237 -0.0011
   53MOL0     H 6931  10.375   7.943   6.306 -0.3720 -0.0737  0.0862
   53MOL0     H 6932  10.124   7.954   6.316  2.0434 -0.8992  1.3194
   53MOL0     H 6933   9.951   8.307   6.171  2.4435 -1.8388 -0.2606
   53MOL0     H 6934   9.895   8.358   6.335 -1.9853 -1.2728  1.8220
   53MOL0     H 6935   9.707   8.198   6.320  1.4906  1.1992  1.1374
   53MOL0     H 6936   9.749   8.155   6.155 -1.1654  2.4825 -2.7021
   53MOL0     H 6937   9.734   8.370   6.065 -0.4306 -1.7753 -0.7679
   53MOL0     H 6938   9.705   8.447   6.224 -0.0727  0.9052 -0.1038
   53MOL0     H 6939   9.535   8.221   6.129  4.6599 -0.6041  0.7576
   53MOL0     H 6940   9.477   8.351   6.231  0.1234 -0.6857 -0.0033
   53MOL0     H 6941   9.528   8.361   5.936  0.3466  0.1431 -0.2632
   53MOL0     H 6942   9.506   8.515   6.036 -0.9541  0.4173 -0.2043
   53MOL0     H 6943   9.276   8.445   6.075 -1.2929 -0.9292 -0.3476
   53MOL0     H 6944   9.311   8.288   6.026  2.2850  0.2434  0.4409
   53MOL0     H 6945   9.172   8.463   5.866 -0.1267  0.1408 -1.9798
   53MOL0     H 6946   9.326   8.550   5.858  2.3788 -0.9719  1.0508
   53MOL0     H 6947   9.261   8.262   5.775 -1.4744  0.4735  1.2940
   53MOL0     H 6948   9.418   8.343   5.747  0.3218  1.6358 -0.9502
   53MOL0     H 6949   9.166   8.603   5.658  1.6991 -0.8084  0.8831
   53MOL0     H 6950   9.056   8.583   5.284  1.0020  0.6907  0.5754
   53MOL0     H 6951   9.076   8.704   5.402 -1.2303  0.7644 -2.6868
   53MOL0     H 6952   8.833   8.700   5.345 -0.9798 -1.0212  0.5397
   53MOL0     H 6953   8.883   8.676   5.516  4.7681 -0.8768  0.6475
   53MOL0     H 6954   8.843   8.413   5.372 -1.2942  2.2558 -3.6314
   53MOL0     H 6955   8.828   8.458   5.534  1.1318 -1.6453 -0.6194
   53MOL0     H 6956   8.623   8.546   5.518 -0.4983  2.5110 -0.2788
   53MOL0     H 6957   8.623   8.412   5.393 -0.0825  1.2673 -0.5328
   53MOL0     H 6958   8.471   8.751   5.146 -0.6830 -0.0145 -0.1112
   53MOL0     H 6959   8.242   8.763   5.121  3.0639  0.8875 -1.6249
   53MOL0     H 6960   7.833   8.304   5.370 -0.4091  1.8658  1.6962
   53MOL0     H 6961   7.592   8.239   5.320 -0.5807  0.2412 -0.7087
   53MOL0     H 6962   7.354   8.423   5.010  1.1995 -0.6516 -0.0925
   53MOL0     H 6963   7.311   8.514   5.154  1.3094  1.8886 -3.5695
   53MOL0     H 6964   7.123   8.396   5.094 -0.7837 -2.7005 -2.4173
   53MOL0     H 6965   7.183   8.358   5.255  1.0526  2.4987 -0.7178
   53MOL0     H 6966   7.291   8.149   5.163  0.2590 -2.9235 -1.0844
   53MOL0     H 6967   7.244   8.189   5.004  2.0033 -0.3940  1.3245
   53MOL0     H 6968   7.107   8.013   5.144  2.4642  0.5097 -1.2282
   53MOL0     H 6969   7.022   8.148   5.225 -2.9183 -1.1524 -1.0011
   53MOL0     H 6970   7.034   8.077   4.926 -0.7802 -0.6530  0.8833
   53MOL0     H 6971   6.962   8.227   4.978 -0.6476 -1.6006 -3.5263
   53MOL0     H 6972   6.812   8.067   5.148 -1.9487 -0.0156 -1.2830
   53MOL0     H 6973   6.901   7.942   5.047 -0.2701 -0.0957 -2.1374
   53MOL0     H 6974   6.695   8.149   4.995 -1.9705 -0.5313  0.3907
   53MOL0     H 6975   6.779   8.066   4.855 -1.2904 -2.2883 -1.2839
   53MOL0     H 6976   6.701   7.848   4.924 -0.8838 -0.5136 -0.5162
   53MOL0     H 6977   6.559   7.947   4.906  1.5994 -2.8187 -1.4474
   53MOL0     H 6978   7.567   8.561   5.041 -0.4426 -0.3065 -0.3238
   53MOL0     H 6979   7.795   8.596   5.053  2.2701  0.8062  2.9658
   53MOL0     H 6980   8.172   8.417   5.381 -0.3921 -1.5479 -0.9833
   53MOL0     H 6981   8.405   8.417   5.423 -0.7578  1.0007  0.3060
   53MOL0     H 6982  10.140   8.378   6.308 -2.8193 -1.5878 -0.8248
   53MOL0     H 6983  10.385   8.379   6.286  0.5739 -0.7314 -1.2247
   53MOL0     H 6984  10.816   8.336   6.102 -2.5936 -1.7846 -0.5783
   53MOL0     H 6985  11.062   8.256   6.079  2.5418  1.5868  2.7709
   53MOL0     H 6986  11.137   7.850   6.174 -1.2971  1.9543  0.2898
   53MOL0     H 6987  11.156   7.892   6.348 -2.6284 -0.2949 -0.1509
   53MOL0     H 6988  11.344   7.833   6.121 -2.2777  0.1863 -0.6662
   53MOL0     H 6989  11.403   7.963   6.231  0.8132 -0.0599  0.4166
   53MOL0     H 6990  11.312   7.671   6.285 -0.9810 -0.1858 -1.5913
   53MOL0     H 6991  11.346   7.780   6.425 -2.4819 -1.0459 -0.6872
   53MOL0     H 6992  11.519   7.639   6.388  1.5852 -1.5561 -1.7026
   53MOL0     H 6993  11.537   7.692   6.215  2.7268 -0.7126 -0.7279
   53MOL0     H 6994  11.676   8.024   6.477  0.2220  0.5401 -0.9138
   53MOL0     H 6995  10.959   7.928   6.337  2.8596  1.3321  0.6454
   53MOL0     H 6996  10.727   8.009   6.359 -0.0067  3.2724  3.2111
   54MOL0     O 6997   0.964   7.722   4.660 -0.4904  0.1145  0.3975
   54MOL0     C 6998   0.972   7.823   4.593 -0.2779  0.5139 -0.3370
   54MOL0     O 6999   0.872   7.901   4.551  0.7523  0.5830 -0.9357
   54MOL0     C 7000   0.743   7.860   4.557 -0.6157  0.8109 -0.1057
   54MOL0     C 7001   0.659   7.970   4.543 -0.3042 -0.0706 -0.0910
   54MOL0     C 7002   0.524   7.946   4.554 -1.6131 -0.2416  0.1261
   54MOL0     C 7003   0.474   7.823   4.582 -0.2906  0.7812  0.6574
   54MOL0     O 7004   0.338   7.807   4.596 -0.1938  0.2342 -0.0230
   54MOL0     C 7005   0.265   7.680   4.612 -0.4404  0.5132 -0.4307
   54MOL0     C 7006   0.123   7.705   4.667  0.3723 -0.5327 -0.3502
   54MOL0     C 7007   0.036   7.577   4.670  0.3518 -0.0640 -0.0956
   54MOL0     C 7008  -0.094   7.589   4.745 -0.6332  0.7199 -0.5623
   54MOL0     C 7009  -0.197   7.693   4.694 -0.2096  0.6458 -0.1686
   54MOL0     C 7010  -0.329   7.686   4.775 -0.0859 -0.1212  0.6951
   54MOL0     C 7011  -0.418   7.817   4.772 -0.0993 -0.7379  0.3313
   54MOL0     C 7012  -0.544   7.790   4.856  1.0812 -0.1627  0.7394
   54MOL0     N 7013  -0.650   7.900   4.839  0.3298  0.3239 -0.3752
   54MOL0     C 7014  -0.651   8.028   4.904  0.5855 -0.0050 -0.4335
   54MOL0     C 7015  -0.771   8.076   4.861  0.5862 -0.2672 -0.2957
   54MOL0     C 7016  -0.812   8.216   4.917  0.1127 -0.0747  0.0381
   54MOL0     C 7017  -0.770   8.332   4.821  0.7333  1.3060 -0.1370
   54MOL0     C 7018  -0.797   8.472   4.882 -0.1525 -0.2930  0.0805
   54MOL0     C 7019  -0.943   8.494   4.923 -0.3718 -0.6791  0.1058
   54MOL0     O 7020  -0.967   8.637   4.925  0.9740  0.3823 -0.0815
   54MOL0     C 7021  -1.084   8.678   4.989 -0.5694 -0.6248 -0.0614
   54MOL0     C 7022  -1.197   8.595   5.009 -0.1535  0.0849  0.1116
   54MOL0     C 7023  -1.311   8.651   5.072 -0.2419  0.6761  0.0404
   54MOL0     C 7024  -1.309   8.782   5.117  0.1807 -0.1104 -0.7873
   54MOL0     C 7025  -1.432   8.842   5.181  0.3286 -1.3833  0.5731
   54MOL0     O 7026  -1.546   8.767   5.186 -0.0362  0.4108  0.0816
   54MOL0     C 7027  -1.648   8.810   5.266 -0.5538 -0.0835 -0.7012
   54MOL0     C 7028  -1.731   8.921   5.238 -0.2113  0.4430 -0.0294
   54MOL0     C 7029  -1.847   8.945   5.323  0.2251 -0.1639  0.9859
   54MOL0     C 7030  -1.873   8.867   5.435 -0.4603  0.1771  0.0992
   54MOL0     O 7031  -1.977   8.887   5.520 -0.1138 -0.3907 -0.1893
   54MOL0     C 7032  -2.038   9.022   5.510 -0.4631 -1.0175 -0.0627
   54MOL0     C 7033  -2.144   9.049   5.617 -0.0117  0.3983  0.8073
   54MOL0     C 7034  -2.251   8.941   5.624  0.5453  0.7380  0.1620
   54MOL0     C 7035  -2.367   8.989   5.719 -0.3228  0.4854  0.1100
   54MOL0     C 7036  -2.487   8.896   5.701  0.1463  0.5034  0.8470
   54MOL0     C 7037  -2.556   8.920   5.574  0.2793  0.1679  0.3151
   54MOL0     C 7038  -2.698   8.873   5.590  0.1143  0.0720 -0.7033
   54MOL0     C 7039  -2.777   8.910   5.463 -1.1537 -0.6326 -0.6207
   54MOL0    Cl 7040  -2.780   9.073   5.425  0.0271 -0.3832 -0.4219
   54MOL0     C 7041  -1.795   8.749   5.457 -0.6461  0.6130 -0.9167
   54MOL0     C 7042  -1.680   8.726   5.377 -0.0637 -0.4562 -0.0043
   54MOL0     O 7043  -1.417   8.951   5.238  0.5808  0.0824  0.3080
   54MOL0     C 7044  -1.195   8.858   5.097 -0.0724  0.6447  0.6271
   54MOL0     C 7045  -1.080   8.815   5.033 -0.9270  0.3466  0.8733
   54MOL0     N 7046  -0.833   7.985   4.767 -0.3243 -1.1280  0.5873
   54MOL0     N 7047  -0.756   7.885   4.759  0.0991 -0.4498  0.3727
   54MOL0     C 7048   0.560   7.712   4.602  0.0515 -0.6936 -1.1157
   54MOL0     C 7049   0.699   7.725   4.588 -0.0803 -0.6111 -0.2318
   54MOL0     C 7050   1.111   7.875   4.577 -0.5651 -0.6912 -0.5664
   54MOL0     C 7051   1.127   8.003   4.530  0.4494 -0.3944  0.5066
   54MOL0     C 7052   1.253   8.063   4.529 -0.0838  0.0910 -0.5143
   54MOL0     C 7053   1.368   7.995   4.569  0.4783 -0.4845 -0.5483
   54MOL0     O 7054   1.485   8.062   4.572 -0.9117 -0.1983 -0.0179
   54MOL0     C 7055   1.605   8.030   4.652  0.8163  0.3361 -0.1491
   54MOL0     C 7056   1.716   7.993   4.550  0.0912 -0.3014  0.2660
   54MOL0     C 7057   1.861   8.003   4.600  0.4687 -1.3555  1.0878
   54MOL0     C 7058   1.958   8.050   4.493  0.1194 -0.2572  0.2333
   54MOL0     C 7059   2.095   8.056   4.540  0.3090 -0.6219  0.3781
   54MOL0     C 7060   2.204   8.085   4.579 -1.2668 -0.7895  0.0052
   54MOL0     C 7061   1.352   7.863   4.606 -1.0373 -0.0509  0.3215
   54MOL0     C 7062   1.223   7.803   4.616 -0.1420 -0.0649  0.2364
   54MOL0     H 7063   0.705   8.066   4.518  1.4638 -0.9618 -0.4324
   54MOL0     H 7064   0.459   8.032   4.543  0.5612  1.5954  0.7665
   54MOL0     H 7065   0.318   7.609   4.677 -2.1606  2.1009  3.0223
   54MOL0     H 7066   0.249   7.642   4.511 -1.5522  2.2000 -0.9429
   54MOL0     H 7067   0.073   7.775   4.599 -1.6788 -2.4649 -0.9495
   54MOL0     H 7068   0.126   7.757   4.764  2.1318  3.8558 -2.4587
   54MOL0     H 7069   0.101   7.508   4.724  0.1654 -0.0398  0.1604
   54MOL0     H 7070   0.043   7.534   4.569  1.1524 -4.5354  1.6341
   54MOL0     H 7071  -0.126   7.484   4.742  0.2680  0.2448  2.5741
   54MOL0     H 7072  -0.069   7.613   4.849 -1.4450  1.0252 -0.4324
   54MOL0     H 7073  -0.221   7.660   4.592  0.3456  0.7577 -0.3423
   54MOL0     H 7074  -0.155   7.793   4.681 -2.3720  1.8969  1.9691
   54MOL0     H 7075  -0.305   7.660   4.878  3.2747 -0.5790 -0.0835
   54MOL0     H 7076  -0.391   7.603   4.740  1.9739 -1.0078 -1.0273
   54MOL0     H 7077  -0.365   7.905   4.809 -1.1205  0.7954 -1.6561
   54MOL0     H 7078  -0.452   7.840   4.671 -1.1141  1.5562  1.1226
   54MOL0     H 7079  -0.514   7.788   4.961  0.1819 -1.3304  0.9876
   54MOL0     H 7080  -0.587   7.691   4.837 -2.0831  1.0481  0.9605
   54MOL0     H 7081  -0.588   8.071   4.981  0.3234  1.5550 -1.0398
   54MOL0     H 7082  -0.768   8.232   5.015  0.2067  1.6671 -0.2598
   54MOL0     H 7083  -0.918   8.217   4.944  1.0195  0.7360  4.2842
   54MOL0     H 7084  -0.829   8.331   4.729  1.3333  1.6501 -0.5312
   54MOL0     H 7085  -0.663   8.323   4.800  1.0564 -1.5315  2.0402
   54MOL0     H 7086  -0.741   8.489   4.975 -1.6668  1.4367  0.7319
   54MOL0     H 7087  -0.781   8.550   4.808 -1.5574 -0.8334 -0.8318
   54MOL0     H 7088  -0.956   8.451   5.023  0.6298  1.2326  1.1328
   54MOL0     H 7089  -1.004   8.448   4.845  0.6338 -0.3532 -0.9135
   54MOL0     H 7090  -1.191   8.490   4.979  0.8711  0.7212 -2.2066
   54MOL0     H 7091  -1.400   8.589   5.071 -0.1682  0.5260 -1.7261
   54MOL0     H 7092  -1.726   8.986   5.152  0.4655  1.2721  0.6233
   54MOL0     H 7093  -1.906   9.029   5.288  1.6033  1.0882  1.5900
   54MOL0     H 7094  -2.090   9.044   5.416  0.4049  0.7469 -0.1631
   54MOL0     H 7095  -1.961   9.098   5.525  0.6317 -1.9064 -1.0636
   54MOL0     H 7096  -2.182   9.150   5.602  1.7039  0.8151 -1.2803
   54MOL0     H 7097  -2.086   9.043   5.710  1.7035  2.0155 -0.0799
   54MOL0     H 7098  -2.204   8.853   5.668 -1.4528 -0.6016 -0.3065
   54MOL0     H 7099  -2.291   8.925   5.523  0.3187  1.5795  0.1100
   54MOL0     H 7100  -2.346   8.997   5.826 -1.9569 -1.8312  0.6700
   54MOL0     H 7101  -2.394   9.090   5.687  0.2697  0.6919  0.2468
   54MOL0     H 7102  -2.557   8.912   5.784  0.9840 -1.4035  1.9843
   54MOL0     H 7103  -2.457   8.791   5.704  0.0746  0.5012  1.5164
   54MOL0     H 7104  -2.504   8.872   5.490  0.6263  1.7034 -0.3738
   54MOL0     H 7105  -2.545   9.028   5.564  0.8032  0.1860  1.0271
   54MOL0     H 7106  -2.705   8.766   5.609 -2.0724  0.7105  3.1908
   54MOL0     H 7107  -2.742   8.914   5.682 -0.3653 -0.8093 -0.5279
   54MOL0     H 7108  -2.875   8.863   5.478 -0.7526 -1.3051 -0.0352
   54MOL0     H 7109  -2.724   8.864   5.379  0.0976 -1.1693  0.4249
   54MOL0     H 7110  -1.815   8.679   5.536  1.0256 -0.2895 -1.2528
   54MOL0     H 7111  -1.626   8.634   5.399  0.8055  0.1223  0.3143
   54MOL0     H 7112  -1.198   8.953   5.150  0.3722 -0.0688  1.9643
   54MOL0     H 7113  -0.994   8.876   5.006  0.6777 -1.6282  1.2809
   54MOL0     H 7114   0.527   7.618   4.644  0.2896 -0.4474 -0.3617
   54MOL0     H 7115   0.754   7.636   4.616 -0.9343 -0.0801  3.6909
   54MOL0     H 7116   1.043   8.062   4.496  0.4793 -1.0468 -0.7844
   54MOL0     H 7117   1.265   8.170   4.515 -1.3580  0.6143  1.9198
   54MOL0     H 7118   1.583   7.949   4.721  0.4340 -1.4165 -2.2317
   54MOL0     H 7119   1.629   8.117   4.714 -0.7281 -0.3811  1.5732
   54MOL0     H 7120   1.699   7.889   4.521 -1.1823  0.1285 -0.6882
   54MOL0     H 7121   1.701   8.060   4.464  0.6473  0.8269  1.0322
   54MOL0     H 7122   1.890   7.906   4.642 -3.0279 -1.8956  2.5625
   54MOL0     H 7123   1.867   8.071   4.685  1.6220  0.7388 -0.5449
   54MOL0     H 7124   1.956   7.972   4.417 -0.8839  0.0076 -0.0176
   54MOL0     H 7125   1.921   8.139   4.441 -2.6813 -2.1072 -1.1681
   54MOL0     H 7126   2.292   8.104   4.636 -2.3394 -2.0092  2.2327
   54MOL0     H 7127   1.441   7.807   4.633 -1.7343 -2.0835 -1.3649
   54MOL0     H 7128   1.211   7.701   4.651  0.4059 -0.3669 -0.4122
   55MOL0     O 7129   4.141   2.627   1.777  0.1812  0.8967  0.3902
   55MOL0     C 7130   4.126   2.533   1.855  0.3514 -0.4330  0.4075
   55MOL0     O 7131   4.015   2.473   1.884  0.3669  0.5092  0.2877
   55MOL0     C 7132   3.887   2.513   1.846  0.2084  0.1109  0.5811
   55MOL0     C 7133   3.866   2.627   1.772 -0.1320  0.3129  0.5537
   55MOL0     C 7134   3.736   2.661   1.731  0.5041 -0.1115  0.5010
   55MOL0     C 7135   3.631   2.570   1.752 -0.9400  0.1140 -0.2571
   55MOL0     O 7136   3.511   2.591   1.693 -0.4295  0.4841  0.1042
   55MOL0     C 7137   3.448   2.718   1.737 -0.7589  0.5043  0.2797
   55MOL0     C 7138   3.295   2.721   1.722  0.6305 -0.0997 -1.1855
   55MOL0     C 7139   3.224   2.844   1.785  0.5054 -0.3690 -1.3002
   55MOL0     C 7140   3.074   2.840   1.755 -0.1983  0.0713  0.3548
   55MOL0     C 7141   3.024   2.990   1.746 -0.3051 -0.3336 -0.0796
   55MOL0     C 7142   2.872   2.991   1.696  0.3898 -0.6882 -0.3702
   55MOL0     C 7143   2.791   2.964   1.825  0.5753 -0.4804 -0.1180
   55MOL0     C 7144   2.665   2.897   1.788  0.3349 -0.7169 -0.7231
   55MOL0     N 7145   2.578   2.899   1.909 -0.2900 -0.6459 -0.1303
   55MOL0     C 7146   2.474   2.983   1.937  0.8141 -0.2685  0.5484
   55MOL0     C 7147   2.421   2.939   2.049 -0.3118 -0.2903 -0.3157
   55MOL0     C 7148   2.284   2.981   2.101 -0.3345 -0.3989 -0.6410
   55MOL0     C 7149   2.161   2.886   2.074 -0.8838  0.3355  0.3549
   55MOL0     C 7150   2.108   2.905   1.935 -0.0633 -0.5268  0.2405
   55MOL0     C 7151   1.984   2.824   1.907  0.4798 -0.0580  0.5891
   55MOL0     O 7152   1.878   2.867   1.990  0.6320  0.2191  0.1563
   55MOL0     C 7153   1.758   2.792   1.984  0.7201  0.0290 -0.7148
   55MOL0     C 7154   1.743   2.693   1.891  0.2276 -0.0044  0.0251
   55MOL0     C 7155   1.620   2.629   1.886  0.7029  0.6954  0.0080
   55MOL0     C 7156   1.515   2.646   1.982  0.4957 -0.3478  0.3224
   55MOL0     C 7157   1.393   2.567   1.987 -0.0994 -0.5696 -0.4192
   55MOL0     O 7158   1.296   2.598   2.079  0.4787  0.3694 -0.1852
   55MOL0     C 7159   1.180   2.523   2.074  0.3449 -0.1535  0.5181
   55MOL0     C 7160   1.171   2.399   2.139  0.3201 -0.3135 -0.3974
   55MOL0     C 7161   1.050   2.329   2.136 -0.2568 -0.1644  0.1596
   55MOL0     C 7162   0.941   2.372   2.063  1.4959  0.1397  0.2918
   55MOL0     O 7163   0.818   2.305   2.079 -0.4686  0.1439 -0.3169
   55MOL0     C 7164   0.705   2.332   1.995  0.7935 -0.5190 -0.0228
   55MOL0     C 7165   0.602   2.220   2.028 -0.2730 -0.0017 -0.5343
   55MOL0     C 7166   0.567   2.225   2.181 -0.6712 -0.0791 -0.2273
   55MOL0     C 7167   0.431   2.178   2.210  0.0309  0.9425  0.4517
   55MOL0     C 7168   0.412   2.030   2.169  0.0481  0.8489  0.0379
   55MOL0     C 7169   0.280   1.976   2.233 -0.0213 -0.1165  0.0656
   55MOL0     C 7170   0.262   1.835   2.189  0.0339 -0.2131 -0.2311
   55MOL0     C 7171   0.127   1.786   2.235 -0.8471  0.6309  0.2534
   55MOL0    Cl 7172  -0.016   1.883   2.204 -0.0163  0.0814 -0.2920
   55MOL0     C 7173   0.954   2.494   1.998  0.3932  0.4442  0.7513
   55MOL0     C 7174   1.073   2.571   2.004  0.4517 -0.4892 -0.3487
   55MOL0     O 7175   1.391   2.466   1.921 -0.4237  0.0686 -0.2110
   55MOL0     C 7176   1.536   2.749   2.073 -0.0873  0.0260 -0.7109
   55MOL0     C 7177   1.649   2.826   2.068 -0.0736 -0.4690  0.6325
   55MOL0     N 7178   2.498   2.837   2.100 -0.1839  0.7359  0.5854
   55MOL0     N 7179   2.602   2.824   2.020  0.6123  0.9627 -0.3989
   55MOL0     C 7180   3.661   2.460   1.833  0.4375 -0.4374  0.1133
   55MOL0     C 7181   3.784   2.431   1.875  0.2331 -0.3508 -0.0296
   55MOL0     C 7182   4.248   2.493   1.935  0.3316 -0.7219  0.2426
   55MOL0     C 7183   4.382   2.514   1.888 -0.1843  0.2093 -0.3792
   55MOL0     C 7184   4.479   2.488   1.976 -1.1525 -1.0768 -0.8525
   55MOL0     C 7185   4.462   2.454   2.106 -0.2896 -0.6737  0.1529
   55MOL0     O 7186   4.568   2.437   2.188  0.1155 -0.3687 -0.6554
   55MOL0     C 7187   4.686   2.519   2.167 -0.2722  0.3848 -0.5634
   55MOL0     C 7188   4.801   2.444   2.095 -0.1032 -0.3658 -0.0695
   55MOL0     C 7189   4.851   2.323   2.178 -0.4113  0.1028 -0.0331
   55MOL0     C 7190   4.963   2.251   2.099 -0.2130 -0.3165 -0.2121
   55MOL0     C 7191   4.925   2.198   1.968 -0.6622 -0.6781 -0.2839
   55MOL0     C 7192   4.887   2.155   1.865  0.3247  0.1650  0.6150
   55MOL0     C 7193   4.335   2.425   2.155  0.2951 -0.4643  0.2992
   55MOL0     C 7194   4.229   2.450   2.063  0.2257  0.4421 -0.3275
   55MOL0     H 7195   3.940   2.698   1.738  1.5462 -1.4085  0.4731
   55MOL0     H 7196   3.716   2.746   1.666  0.0604 -1.7924 -1.7023
   55MOL0     H 7197   3.501   2.797   1.683  2.3176 -1.7547 -0.2640
   55MOL0     H 7198   3.486   2.735   1.838  2.2287 -1.1046 -0.4707
   55MOL0     H 7199   3.249   2.635   1.773  2.3258  1.0589  2.6698
   55MOL0     H 7200   3.272   2.719   1.615 -2.0425  1.2722 -0.7165
   55MOL0     H 7201   3.272   2.932   1.743  3.7637 -0.9365  0.8366
   55MOL0     H 7202   3.232   2.853   1.894 -0.4533  2.7234 -1.3952
   55MOL0     H 7203   3.050   2.796   1.658  0.3440  0.0980  0.2008
   55MOL0     H 7204   3.016   2.782   1.827  1.4103 -0.4959  1.2597
   55MOL0     H 7205   3.090   3.037   1.673  2.4000 -0.6587  1.9937
   55MOL0     H 7206   3.038   3.042   1.841  3.1572 -1.1154 -0.0155
   55MOL0     H 7207   2.847   2.922   1.615 -0.4787  0.0114 -0.7220
   55MOL0     H 7208   2.846   3.093   1.665 -0.8164  0.1229  2.9084
   55MOL0     H 7209   2.849   2.900   1.893  1.9918 -1.3017 -2.0143
   55MOL0     H 7210   2.771   3.059   1.876  0.8952 -0.2462 -0.4257
   55MOL0     H 7211   2.682   2.793   1.757  0.7280 -1.2954  1.3047
   55MOL0     H 7212   2.629   2.957   1.704 -1.0020 -0.1687  0.1934
   55MOL0     H 7213   2.442   3.065   1.874  0.2194 -0.4003  0.6718
   55MOL0     H 7214   2.264   3.085   2.077  0.8029  0.3964  1.5110
   55MOL0     H 7215   2.305   2.988   2.208  0.9366  1.4446 -0.9741
   55MOL0     H 7216   2.075   2.905   2.139 -1.7201  2.7306 -1.2970
   55MOL0     H 7217   2.194   2.783   2.088  1.0663  1.0588  1.5469
   55MOL0     H 7218   2.085   3.011   1.922  0.1600 -0.4467  0.4885
   55MOL0     H 7219   2.177   2.870   1.858  0.5953  1.3367 -0.0663
   55MOL0     H 7220   2.017   2.721   1.922 -0.3217  0.0821  4.7282
   55MOL0     H 7221   1.949   2.845   1.806 -0.3715  0.2833  0.9405
   55MOL0     H 7222   1.818   2.665   1.818 -0.4414  1.4811 -1.2670
   55MOL0     H 7223   1.606   2.563   1.800  1.6572  0.9712 -0.3718
   55MOL0     H 7224   1.258   2.354   2.185 -0.1580 -1.4561 -0.5569
   55MOL0     H 7225   1.045   2.232   2.183  0.2196  0.1754  0.9261
   55MOL0     H 7226   0.735   2.317   1.891 -1.1957  0.8674 -0.8594
   55MOL0     H 7227   0.665   2.433   2.005  0.8245 -0.6561  1.7832
   55MOL0     H 7228   0.634   2.119   2.002  1.9597  0.9329 -1.6787
   55MOL0     H 7229   0.504   2.236   1.981 -1.3209 -2.2769  0.7370
   55MOL0     H 7230   0.575   2.326   2.222  0.7454 -0.9451  1.7627
   55MOL0     H 7231   0.640   2.165   2.236 -0.0967  2.5400  2.0761
   55MOL0     H 7232   0.416   2.187   2.318  1.0616  0.7734  0.6182
   55MOL0     H 7233   0.352   2.234   2.159 -1.1670 -1.7386 -0.8703
   55MOL0     H 7234   0.504   1.976   2.194  1.1834  0.1740 -4.6675
   55MOL0     H 7235   0.403   2.024   2.060 -1.2626 -0.2687  0.1876
   55MOL0     H 7236   0.193   2.036   2.207 -4.0298 -4.2119  2.5692
   55MOL0     H 7237   0.292   1.982   2.342  1.3368 -1.4199  0.0319
   55MOL0     H 7238   0.263   1.847   2.081  2.3122  2.7917 -0.0039
   55MOL0     H 7239   0.348   1.776   2.223  1.2082  1.6998  0.3495
   55MOL0     H 7240   0.129   1.755   2.340  1.1951 -3.2824 -0.7642
   55MOL0     H 7241   0.110   1.688   2.189  0.9962  0.0981  0.6104
   55MOL0     H 7242   0.870   2.539   1.947 -1.6310  0.4426  3.8048
   55MOL0     H 7243   1.060   2.669   1.959 -1.1374 -0.1037  0.8457
   55MOL0     H 7244   1.457   2.766   2.146  1.4717 -1.3975  1.4298
   55MOL0     H 7245   1.669   2.914   2.129  0.5202  0.6750 -1.1262
   55MOL0     H 7246   3.579   2.393   1.855 -0.5233  0.7020  0.0830
   55MOL0     H 7247   3.792   2.337   1.928  1.7313 -0.6292 -0.6926
   55MOL0     H 7248   4.406   2.548   1.788 -0.7511 -1.4166 -1.1029
   55MOL0     H 7249   4.582   2.504   1.947 -0.3685  1.3921  2.6468
   55MOL0     H 7250   4.707   2.544   2.271 -0.0938  0.6747 -0.6694
   55MOL0     H 7251   4.665   2.607   2.105 -1.2790  0.0208 -0.7698
   55MOL0     H 7252   4.763   2.409   1.998 -0.9156  0.0458  0.0868
   55MOL0     H 7253   4.885   2.513   2.083 -2.0052  2.4743  1.6230
   55MOL0     H 7254   4.774   2.247   2.196 -0.2159  0.0715  0.7096
   55MOL0     H 7255   4.886   2.361   2.274 -0.8335  2.0386 -0.6118
   55MOL0     H 7256   5.052   2.315   2.097  0.4170 -1.1756 -0.3976
   55MOL0     H 7257   4.993   2.161   2.154  0.4734 -0.2746 -0.5030
   55MOL0     H 7258   4.838   2.114   1.778 -1.2735 -1.0061  2.0052
   55MOL0     H 7259   4.326   2.382   2.255  0.8662  0.8600  0.9465
   55MOL0     H 7260   4.129   2.428   2.097  0.2849 -1.1131 -1.0437
   56MOL0     O 7261   4.659   6.504   9.107  0.5325  0.3651 -0.4404
   56MOL0     C 7262   4.686   6.427   9.011  0.1425 -0.0231 -0.8501
   56MOL0     O 7263   4.622   6.418   8.890  0.3836 -0.0739  0.0974
   56MOL0     C 7264   4.499   6.486   8.893 -0.0603  0.1079  0.0402
   56MOL0     C 7265   4.486   6.615   8.848 -0.0499  0.0582  1.1500
   56MOL0     C 7266   4.365   6.686   8.829 -0.5066  1.1073 -0.1475
   56MOL0     C 7267   4.246   6.624   8.871  0.1444 -0.4944 -0.2759
   56MOL0     O 7268   4.126   6.677   8.841 -0.4631  0.0438 -0.1708
   56MOL0     C 7269   4.113   6.810   8.790  1.3312  0.7790 -0.4527
   56MOL0     C 7270   3.957   6.839   8.799  0.5671  0.7621  0.1754
   56MOL0     C 7271   3.930   6.978   8.755  0.0377  0.1392  0.0813
   56MOL0     C 7272   3.780   7.003   8.772 -0.0350 -0.2431  0.2804
   56MOL0     C 7273   3.734   7.124   8.702  0.0999 -0.7755  0.2650
   56MOL0     C 7274   3.582   7.154   8.708  0.6154 -0.6151  0.2898
   56MOL0     C 7275   3.532   7.276   8.620  0.1796 -0.1540  1.1038
   56MOL0     C 7276   3.599   7.408   8.652 -0.6287  0.1310 -0.1264
   56MOL0     N 7277   3.558   7.468   8.783  0.2015  0.0579  0.5948
   56MOL0     C 7278   3.442   7.441   8.856 -0.3626 -0.0520 -0.0772
   56MOL0     C 7279   3.451   7.517   8.970 -0.4328 -0.2052  0.0430
   56MOL0     C 7280   3.362   7.520   9.087  0.0478 -0.0697 -0.2612
   56MOL0     C 7281   3.238   7.608   9.076  0.8377  0.3148  0.7334
   56MOL0     C 7282   3.139   7.560   8.968  0.4863 -0.2777  0.2365
   56MOL0     C 7283   3.005   7.623   8.964  0.1401 -0.2021 -0.0333
   56MOL0     O 7284   2.921   7.546   8.870  0.5763 -0.1601  0.1751
   56MOL0     C 7285   2.821   7.615   8.802 -0.1831  0.7643 -0.5617
   56MOL0     C 7286   2.767   7.722   8.854 -0.2324  0.0282  0.0208
   56MOL0     C 7287   2.668   7.796   8.782 -0.2473 -0.5008 -1.0212
   56MOL0     C 7288   2.631   7.755   8.650  0.9988 -0.5005 -0.5342
   56MOL0     C 7289   2.522   7.818   8.578 -0.6654  0.0194  0.0948
   56MOL0     O 7290   2.508   7.947   8.606  0.3001  0.0140 -0.3843
   56MOL0     C 7291   2.412   8.013   8.525  0.4857  0.1571  0.1396
   56MOL0     C 7292   2.279   7.983   8.508  0.0997  0.3370 -0.3038
   56MOL0     C 7293   2.195   8.041   8.406 -0.5526  0.1822 -0.5650
   56MOL0     C 7294   2.251   8.144   8.324 -0.4789 -0.1328 -0.2010
   56MOL0     O 7295   2.191   8.205   8.217 -0.1101 -0.2825 -0.4909
   56MOL0     C 7296   2.087   8.137   8.149  0.5559 -0.3109  0.2085
   56MOL0     C 7297   2.068   8.175   8.003 -0.7654  0.4234 -1.0943
   56MOL0     C 7298   2.183   8.122   7.909  0.4105  0.4215 -0.3378
   56MOL0     C 7299   2.168   8.179   7.761  0.1471 -0.0217  0.6554
   56MOL0     C 7300   2.246   8.090   7.660  0.3263 -0.4307  0.9845
   56MOL0     C 7301   2.272   8.162   7.533  0.0666 -0.0973  0.6182
   56MOL0     C 7302   2.147   8.167   7.436  0.3399 -0.2751 -0.0355
   56MOL0     C 7303   2.163   8.268   7.329  0.9186  0.0402  0.5135
   56MOL0    Cl 7304   2.163   8.443   7.407 -0.2161 -0.1143  0.0101
   56MOL0     C 7305   2.384   8.186   8.355 -0.6744  0.2697 -0.3966
   56MOL0     C 7306   2.459   8.125   8.460  0.0202 -0.1277  0.7588
   56MOL0     O 7307   2.468   7.757   8.495  0.1584  0.5088 -0.2548
   56MOL0     C 7308   2.683   7.636   8.608  0.2942  0.7160  0.7035
   56MOL0     C 7309   2.775   7.558   8.681 -0.2952  0.0736  0.2166
   56MOL0     N 7310   3.567   7.595   8.954 -0.7911  0.2245  1.0777
   56MOL0     N 7311   3.623   7.562   8.850 -0.3900 -0.3088 -0.6770
   56MOL0     C 7312   4.259   6.487   8.928 -0.0729 -0.2895 -0.1816
   56MOL0     C 7313   4.382   6.421   8.938 -0.1195 -0.1980  0.0525
   56MOL0     C 7314   4.805   6.342   9.025  0.5351 -0.5996 -0.3126
   56MOL0     C 7315   4.855   6.263   8.919 -0.6232 -0.1115 -0.5425
   56MOL0     C 7316   4.974   6.190   8.941  0.4188 -0.2442  0.0304
   56MOL0     C 7317   5.035   6.185   9.066 -0.8998  0.5917  1.5949
   56MOL0     O 7318   5.155   6.112   9.096  0.9226 -0.2557 -0.8310
   56MOL0     C 7319   5.246   6.045   9.007 -0.2452  0.1303  0.6634
   56MOL0     C 7320   5.359   6.139   8.961 -0.1318 -1.2997  0.2956
   56MOL0     C 7321   5.416   6.237   9.076  0.3453 -0.0146 -0.8509
   56MOL0     C 7322   5.548   6.302   9.038 -0.2839  0.4226  0.1541
   56MOL0     C 7323   5.603   6.378   9.142 -0.0364  0.5929  0.6128
   56MOL0     C 7324   5.664   6.448   9.226 -0.2729  0.5097  0.2714
   56MOL0     C 7325   4.976   6.246   9.170 -0.1165 -0.0665 -0.2016
   56MOL0     C 7326   4.862   6.328   9.157 -0.6905  0.6382 -0.0709
   56MOL0     H 7327   4.582   6.656   8.817 -0.0156 -1.6733 -1.3652
   56MOL0     H 7328   4.372   6.781   8.778  1.5383  2.0927  1.8185
   56MOL0     H 7329   4.155   6.817   8.689 -1.0222  0.6039 -1.5128
   56MOL0     H 7330   4.164   6.876   8.860 -1.4706  0.1560  2.4384
   56MOL0     H 7331   3.909   6.820   8.895 -1.8748 -0.4013 -1.2019
   56MOL0     H 7332   3.914   6.763   8.734  1.2636 -0.6685  1.3167
   56MOL0     H 7333   3.963   6.998   8.652  2.3002  1.3573  0.9898
   56MOL0     H 7334   3.985   7.044   8.822  0.1498 -0.8197  0.9667
   56MOL0     H 7335   3.733   6.919   8.720  1.2822  0.3962 -2.0974
   56MOL0     H 7336   3.758   6.994   8.879  0.0768  1.7912  0.5123
   56MOL0     H 7337   3.742   7.111   8.593  0.1123 -2.3340  0.4250
   56MOL0     H 7338   3.807   7.203   8.722 -0.6259 -0.3858  1.4678
   56MOL0     H 7339   3.555   7.178   8.811  2.3594  0.0463  0.6246
   56MOL0     H 7340   3.519   7.068   8.685 -1.4166  1.2325 -1.6561
   56MOL0     H 7341   3.554   7.242   8.519  2.9927  2.1520  0.7995
   56MOL0     H 7342   3.423   7.290   8.619  0.0958 -0.8283  0.5959
   56MOL0     H 7343   3.593   7.484   8.575  2.4905 -0.5497 -1.2039
   56MOL0     H 7344   3.707   7.394   8.669 -1.1971 -0.9448  3.3957
   56MOL0     H 7345   3.364   7.370   8.832 -1.1721  0.4153  1.0808
   56MOL0     H 7346   3.427   7.572   9.157 -0.4474 -0.4918  0.5233
   56MOL0     H 7347   3.335   7.423   9.131 -2.4004 -0.1624 -1.7695
   56MOL0     H 7348   3.276   7.705   9.043  0.8746  0.2699  0.6441
   56MOL0     H 7349   3.191   7.619   9.174 -0.1415  1.6334  0.1620
   56MOL0     H 7350   3.177   7.577   8.867  1.4128  1.7927  0.8744
   56MOL0     H 7351   3.130   7.452   8.978 -2.3163 -0.0147  1.3734
   56MOL0     H 7352   3.020   7.729   8.944 -0.2531 -0.0269  0.5510
   56MOL0     H 7353   2.961   7.617   9.064  3.2405  2.4278  1.7103
   56MOL0     H 7354   2.794   7.755   8.954 -3.2018 -1.1652  1.3409
   56MOL0     H 7355   2.619   7.885   8.821 -0.3434 -1.4851  1.3036
   56MOL0     H 7356   2.240   7.900   8.567 -1.3249 -1.1604 -3.1396
   56MOL0     H 7357   2.095   8.000   8.395 -0.6806 -0.6270  2.5116
   56MOL0     H 7358   1.995   8.160   8.203  0.5173  1.1763 -0.4539
   56MOL0     H 7359   2.106   8.030   8.136 -1.5535 -0.8571  1.2353
   56MOL0     H 7360   2.069   8.284   7.996  0.9219  0.7019  1.6586
   56MOL0     H 7361   1.972   8.140   7.964 -1.0279 -1.2990  0.9132
   56MOL0     H 7362   2.174   8.013   7.905 -2.4522  0.6382 -2.5001
   56MOL0     H 7363   2.281   8.152   7.949  0.2156  1.4292 -0.5701
   56MOL0     H 7364   2.063   8.196   7.736  0.3946  1.5108  0.6040
   56MOL0     H 7365   2.212   8.279   7.764 -0.7927  0.6306 -2.9418
   56MOL0     H 7366   2.200   7.993   7.637 -0.8417  0.4293 -0.5045
   56MOL0     H 7367   2.341   8.077   7.712  1.2898 -0.0332 -0.6236
   56MOL0     H 7368   2.362   8.132   7.479 -0.3621 -0.5599  0.1576
   56MOL0     H 7369   2.290   8.269   7.550 -2.0118  0.2731  0.7814
   56MOL0     H 7370   2.126   8.062   7.414  3.2836 -1.0941  0.6202
   56MOL0     H 7371   2.059   8.191   7.497  1.2808  0.8757  0.9045
   56MOL0     H 7372   2.075   8.271   7.263 -0.8095  1.4146  2.7437
   56MOL0     H 7373   2.255   8.244   7.276  1.6999  1.4177  1.1892
   56MOL0     H 7374   2.423   8.267   8.295 -2.4223  3.1522  2.0648
   56MOL0     H 7375   2.562   8.159   8.464  0.5874 -1.1168 -2.4026
   56MOL0     H 7376   2.641   7.593   8.518 -2.9258  0.1702  2.3046
   56MOL0     H 7377   2.812   7.465   8.640 -1.3301  0.3427 -1.4151
   56MOL0     H 7378   4.171   6.434   8.963 -0.1748  1.1687  1.9453
   56MOL0     H 7379   4.383   6.322   8.984 -3.7197  0.3295  1.6588
   56MOL0     H 7380   4.812   6.270   8.820  0.2214  0.5927 -0.8736
   56MOL0     H 7381   5.008   6.134   8.854  2.1371 -0.1765  0.6329
   56MOL0     H 7382   5.206   6.002   8.915 -0.9831  0.7055  0.7019
   56MOL0     H 7383   5.282   5.964   9.072 -2.4886 -0.7027  0.9583
   56MOL0     H 7384   5.444   6.081   8.923  2.9169  0.9364  3.1069
   56MOL0     H 7385   5.321   6.190   8.872 -0.0536 -2.9265 -0.7130
   56MOL0     H 7386   5.425   6.183   9.171 -0.7811  0.7365 -0.2915
   56MOL0     H 7387   5.354   6.325   9.093  0.3992 -0.2056  0.4911
   56MOL0     H 7388   5.618   6.222   9.012 -0.5619  1.2675 -3.8499
   56MOL0     H 7389   5.530   6.352   8.943  0.8510 -0.0211 -0.3131
   56MOL0     H 7390   5.718   6.504   9.300 -2.5182  0.9855  1.6471
   56MOL0     H 7391   5.016   6.238   9.271  1.5603 -0.5489 -0.8682
   56MOL0     H 7392   4.820   6.372   9.247 -1.7771 -2.6092  1.1696
   57MOL0     O 7393   5.921   7.760  10.365  0.4718 -0.2045 -0.3644
   57MOL0     C 7394   5.866   7.713  10.462  0.0694 -0.4000  1.6170
   57MOL0     O 7395   5.933   7.679  10.583  0.2413 -0.5869 -0.5959
   57MOL0     C 7396   6.069   7.705  10.594  0.2316  0.6410 -0.5811
   57MOL0     C 7397   6.116   7.835  10.638 -0.4991 -0.0910 -0.3413
   57MOL0     C 7398   6.247   7.853  10.662 -0.3776 -0.2917 -1.0768
   57MOL0     C 7399   6.340   7.751  10.656 -0.5699  0.2505  0.7371
   57MOL0     O 7400   6.474   7.780  10.655  0.0873 -0.1689 -0.4738
   57MOL0     C 7401   6.566   7.707  10.584  0.4603  0.1941  0.8397
   57MOL0     C 7402   6.705   7.767  10.579  0.0676  0.3475 -0.1772
   57MOL0     C 7403   6.719   7.920  10.568 -0.2633 -0.2236 -0.0675
   57MOL0     C 7404   6.656   7.971  10.435 -0.6754  0.0899  0.6824
   57MOL0     C 7405   6.675   8.124  10.423  0.0773  0.5465 -0.3313
   57MOL0     C 7406   6.610   8.166  10.292 -0.3697 -0.5380 -0.7179
   57MOL0     C 7407   6.641   8.312  10.265  0.2426  0.0055 -0.6665
   57MOL0     C 7408   6.553   8.369  10.158 -0.1240  0.4383  0.2783
   57MOL0     N 7409   6.595   8.509  10.143  0.0007 -0.2937 -0.2601
   57MOL0     C 7410   6.543   8.607  10.227  0.6478  0.8521  0.2187
   57MOL0     C 7411   6.582   8.719  10.160  0.1627 -0.4029 -0.3143
   57MOL0     C 7412   6.532   8.858  10.179 -0.7302 -0.2426  0.5488
   57MOL0     C 7413   6.398   8.899  10.120 -0.4678  0.0118 -0.0203
   57MOL0     C 7414   6.357   9.043  10.143 -0.5740 -0.1000 -0.1575
   57MOL0     C 7415   6.217   9.075  10.083 -0.1092 -0.1861  0.0131
   57MOL0     O 7416   6.123   8.986  10.137 -0.4943 -0.3583 -0.0566
   57MOL0     C 7417   5.988   8.998  10.111 -0.6699 -0.5297 -0.6913
   57MOL0     C 7418   5.898   8.922  10.178 -0.1448  0.3988  0.5323
   57MOL0     C 7419   5.761   8.932  10.154 -0.4150  0.1243  0.0359
   57MOL0     C 7420   5.713   9.019  10.049  0.4064 -0.1991  0.0036
   57MOL0     C 7421   5.566   9.047  10.020 -0.2840  0.2257 -0.3757
   57MOL0     O 7422   5.527   9.145   9.927 -0.0403  0.0981 -0.2641
   57MOL0     C 7423   5.391   9.152   9.915  0.4980  0.2443 -0.0185
   57MOL0     C 7424   5.310   9.197  10.017 -0.8550  0.2243  0.4531
   57MOL0     C 7425   5.173   9.213  10.012  0.1923  0.2508 -0.3498
   57MOL0     C 7426   5.112   9.174   9.894 -0.3733  0.1065 -1.3383
   57MOL0     O 7427   4.974   9.190   9.878  0.0707  0.1604 -0.0896
   57MOL0     C 7428   4.889   9.267   9.970  0.5936 -0.7096  0.2031
   57MOL0     C 7429   4.759   9.309   9.898  0.6194 -0.0858  0.1956
   57MOL0     C 7430   4.677   9.181   9.841  0.0971  0.7768  0.0689
   57MOL0     C 7431   4.558   9.235   9.765 -0.1882 -0.7372 -0.2181
   57MOL0     C 7432   4.465   9.127   9.695  0.6197 -0.1456  0.3780
   57MOL0     C 7433   4.356   9.196   9.627  0.6681 -0.6803  0.1439
   57MOL0     C 7434   4.253   9.101   9.562  1.1408  1.0898 -0.1593
   57MOL0     C 7435   4.110   9.150   9.576 -0.0972 -0.0511  0.6278
   57MOL0    Cl 7436   3.987   9.022   9.543  0.5862 -0.2371  0.1046
   57MOL0     C 7437   5.185   9.131   9.783  0.2147 -0.2543  0.0601
   57MOL0     C 7438   5.322   9.125   9.798  0.4797 -0.3799  0.0537
   57MOL0     O 7439   5.492   8.966  10.075  0.1382  0.2363  0.3856
   57MOL0     C 7440   5.804   9.103   9.987 -0.7926 -0.1264 -0.5471
   57MOL0     C 7441   5.939   9.089  10.017 -0.0950 -0.9940  0.6497
   57MOL0     N 7442   6.662   8.684  10.047  0.5439  0.2081 -0.8602
   57MOL0     N 7443   6.666   8.552  10.038  0.1079 -1.1688 -0.4086
   57MOL0     C 7444   6.298   7.622  10.616 -0.2009 -0.1257 -0.2145
   57MOL0     C 7445   6.159   7.603  10.593 -0.2989  0.3744 -0.0866
   57MOL0     C 7446   5.719   7.691  10.463 -0.4761  0.3092 -0.3644
   57MOL0     C 7447   5.644   7.727  10.356  0.0759  0.0873 -0.2550
   57MOL0     C 7448   5.501   7.723  10.371 -1.2882 -1.0938  0.4967
   57MOL0     C 7449   5.447   7.685  10.488  1.5592 -0.5565 -0.2677
   57MOL0     O 7450   5.315   7.664  10.511  0.1987  0.3340  0.2962
   57MOL0     C 7451   5.214   7.750  10.463 -0.1408  0.0913 -0.0786
   57MOL0     C 7452   5.164   7.723  10.319 -0.5265 -0.5291  0.0417
   57MOL0     C 7453   5.035   7.649  10.317  0.0862  0.8539 -0.3996
   57MOL0     C 7454   5.060   7.507  10.361 -1.0291  0.1497  0.0339
   57MOL0     C 7455   4.938   7.425  10.365 -0.4990  0.6008 -0.0685
   57MOL0     C 7456   4.843   7.353  10.375 -0.2846  0.4277 -0.3463
   57MOL0     C 7457   5.524   7.645  10.591 -0.5307  0.1501  0.0322
   57MOL0     C 7458   5.659   7.650  10.577 -0.0923 -0.2577  0.1069
   57MOL0     H 7459   6.054   7.924  10.642  0.9408  0.9711 -0.8550
   57MOL0     H 7460   6.289   7.946  10.698 -0.3171 -1.7312  2.9971
   57MOL0     H 7461   6.533   7.690  10.481  0.5959  0.5711  0.7306
   57MOL0     H 7462   6.572   7.604  10.621  0.2947  0.6345  2.1497
   57MOL0     H 7463   6.758   7.714  10.499 -0.3167  0.6470 -0.6403
   57MOL0     H 7464   6.763   7.741  10.668 -0.3466 -1.8064 -0.4809
   57MOL0     H 7465   6.824   7.941  10.549 -0.6741  1.6792 -0.3999
   57MOL0     H 7466   6.681   7.971  10.657 -2.1386 -1.5378 -0.0370
   57MOL0     H 7467   6.703   7.924  10.348  0.6175 -0.0043  1.4195
   57MOL0     H 7468   6.549   7.949  10.423 -0.2239 -0.7260 -2.9615
   57MOL0     H 7469   6.778   8.159  10.429  1.0110 -1.8662 -1.3196
   57MOL0     H 7470   6.623   8.174  10.505  0.6428  0.4623  0.0857
   57MOL0     H 7471   6.503   8.163  10.313 -0.2839 -1.4901 -0.3746
   57MOL0     H 7472   6.653   8.112  10.207 -0.2327  2.4007 -2.6833
   57MOL0     H 7473   6.626   8.369  10.358  0.4660 -0.7705 -0.1449
   57MOL0     H 7474   6.744   8.335  10.237 -0.1706  2.7266 -0.2307
   57MOL0     H 7475   6.446   8.356  10.178 -0.2995  0.4718 -0.6070
   57MOL0     H 7476   6.563   8.319  10.061 -0.1830  0.4009  0.2912
   57MOL0     H 7477   6.486   8.599  10.319  1.4741  2.2151  0.8944
   57MOL0     H 7478   6.614   8.919  10.139  0.7827 -1.9776  0.8511
   57MOL0     H 7479   6.528   8.881  10.286 -0.5542 -2.2905  1.0298
   57MOL0     H 7480   6.315   8.841  10.162  0.2080  0.8046  2.5809
   57MOL0     H 7481   6.400   8.883  10.012  0.0202 -1.3302  0.1715
   57MOL0     H 7482   6.350   9.070  10.249  1.3235 -0.9000  0.2145
   57MOL0     H 7483   6.428   9.116  10.102 -0.0174  2.4908  4.6488
   57MOL0     H 7484   6.222   9.073   9.974  2.6525  2.6315 -0.0340
   57MOL0     H 7485   6.183   9.177  10.104 -0.5092 -0.2003 -0.5417
   57MOL0     H 7486   5.941   8.855  10.253  0.1909 -0.8423 -0.7300
   57MOL0     H 7487   5.690   8.866  10.203 -0.6939 -0.0504 -0.5902
   57MOL0     H 7488   5.364   9.196  10.111  0.1098 -1.7854 -0.0458
   57MOL0     H 7489   5.122   9.238  10.105  1.6300  1.7664  0.0870
   57MOL0     H 7490   4.942   9.360   9.993 -1.4437  0.4814  0.3140
   57MOL0     H 7491   4.866   9.203  10.055  3.2703 -1.9932  0.0495
   57MOL0     H 7492   4.784   9.386   9.824 -0.1588  2.4613  2.4257
   57MOL0     H 7493   4.691   9.363   9.963  1.1847  2.1168 -0.9406
   57MOL0     H 7494   4.645   9.125   9.929  0.6887  2.0721  1.1368
   57MOL0     H 7495   4.738   9.118   9.775  0.0911 -0.8047  1.4969
   57MOL0     H 7496   4.501   9.308   9.823  0.5612  0.8721 -1.4399
   57MOL0     H 7497   4.606   9.304   9.694 -1.2642 -0.3327 -0.5719
   57MOL0     H 7498   4.415   9.085   9.783 -0.3135  1.7014  0.7922
   57MOL0     H 7499   4.515   9.051   9.635  3.5395  2.0441 -0.2006
   57MOL0     H 7500   4.395   9.266   9.552 -0.4957 -0.9295 -0.7356
   57MOL0     H 7501   4.309   9.261   9.702 -2.3429 -1.7292 -0.6888
   57MOL0     H 7502   4.271   9.070   9.459 -2.2594 -1.1169 -0.2379
   57MOL0     H 7503   4.267   9.005   9.612  1.1586 -0.1226 -2.3896
   57MOL0     H 7504   4.092   9.235   9.508  0.6848 -2.0732 -2.2869
   57MOL0     H 7505   4.097   9.185   9.679  2.4487 -0.1650  1.0441
   57MOL0     H 7506   5.141   9.110   9.686  0.9791 -1.7167  0.0064
   57MOL0     H 7507   5.386   9.088   9.718 -1.0814  0.7331 -1.7688
   57MOL0     H 7508   5.763   9.173   9.914 -0.7196  0.9470  0.4085
   57MOL0     H 7509   5.997   9.159   9.958  1.1199 -0.7771  2.0281
   57MOL0     H 7510   6.368   7.539  10.620  3.0215  2.2575 -2.1147
   57MOL0     H 7511   6.121   7.507  10.560 -0.9937  0.3886  0.6393
   57MOL0     H 7512   5.693   7.757  10.265  0.2037 -0.3483 -0.3345
   57MOL0     H 7513   5.447   7.753  10.282  1.6662  0.8943 -0.8160
   57MOL0     H 7514   5.236   7.857  10.476 -2.8765  0.6393  0.6271
   57MOL0     H 7515   5.133   7.736  10.534 -0.7302 -1.4720 -1.0018
   57MOL0     H 7516   5.157   7.826  10.282  1.3802 -0.1386  0.6344
   57MOL0     H 7517   5.239   7.669  10.260 -0.5735 -1.8328  1.1296
   57MOL0     H 7518   4.997   7.639  10.216 -0.7652 -0.7061  0.0484
   57MOL0     H 7519   4.965   7.707  10.378  2.1243 -0.7789  3.9670
   57MOL0     H 7520   5.126   7.454  10.291 -1.8342 -1.0465  0.1493
   57MOL0     H 7521   5.109   7.510  10.459 -2.4302  1.4019  0.7359
   57MOL0     H 7522   4.761   7.284  10.382  0.8465 -0.7708  2.5694
   57MOL0     H 7523   5.475   7.619  10.685 -1.5975  0.3571 -0.4493
   57MOL0     H 7524   5.721   7.619  10.661  0.3780 -1.9977 -0.8136
   58MOL0     O 7525   9.307   4.853   5.956 -0.2018 -0.2756 -0.3939
   58MOL0     C 7526   9.420   4.830   5.937 -0.3560  0.3218  0.2820
   58MOL0     O 7527   9.503   4.751   6.010 -0.3208 -0.0474 -0.1068
   58MOL0     C 7528   9.446   4.680   6.111  0.2930 -0.0687 -0.2299
   58MOL0     C 7529   9.352   4.581   6.084  0.0695  0.0048  0.1144
   58MOL0     C 7530   9.294   4.499   6.174  0.1090  0.3486  0.4942
   58MOL0     C 7531   9.334   4.518   6.311  0.0972 -0.0033 -0.4041
   58MOL0     O 7532   9.285   4.440   6.415 -0.2256 -0.2984  0.3043
   58MOL0     C 7533   9.169   4.363   6.388  0.1322  0.2409 -0.0049
   58MOL0     C 7534   9.091   4.311   6.508 -1.0871  0.4949 -0.8706
   58MOL0     C 7535   8.999   4.188   6.474  0.1041  0.5238 -0.2176
   58MOL0     C 7536   8.912   4.143   6.595  0.3805  0.0411 -0.9220
   58MOL0     C 7537   8.850   4.006   6.593  0.1962 -0.2551  0.6567
   58MOL0     C 7538   8.801   3.959   6.733  0.1683 -0.0232 -0.3449
   58MOL0     C 7539   8.736   3.824   6.742 -0.3181 -0.4707 -0.0166
   58MOL0     C 7540   8.702   3.790   6.885  0.2340  0.2177  0.1030
   58MOL0     N 7541   8.578   3.708   6.889  0.2949 -0.4713 -0.1195
   58MOL0     C 7542   8.462   3.707   6.969  0.3847 -0.1546  0.1106
   58MOL0     C 7543   8.382   3.604   6.922  0.4263  0.7373 -1.1402
   58MOL0     C 7544   8.240   3.572   6.966 -0.5265  0.3036  0.7570
   58MOL0     C 7545   8.176   3.443   6.906 -0.7331 -0.7561 -0.2075
   58MOL0     C 7546   8.076   3.388   6.998  0.8062  0.5278 -0.2422
   58MOL0     C 7547   7.981   3.284   6.931  0.2633  0.0652 -0.0098
   58MOL0     O 7548   7.918   3.213   7.041  0.2027 -0.1455  0.7585
   58MOL0     C 7549   7.793   3.251   7.082 -0.4817  0.2499  0.1006
   58MOL0     C 7550   7.718   3.166   7.157  0.9010  0.6472  0.0806
   58MOL0     C 7551   7.585   3.196   7.193  0.2118 -0.1722  0.1158
   58MOL0     C 7552   7.525   3.314   7.152  0.5601 -0.0949 -0.6353
   58MOL0     C 7553   7.383   3.341   7.184  0.4264  0.6435 -0.5487
   58MOL0     O 7554   7.317   3.437   7.116 -0.1829  0.0269  0.5469
   58MOL0     C 7555   7.185   3.486   7.131  0.3359  1.0437 -0.0365
   58MOL0     C 7556   7.123   3.557   7.026 -0.1277  0.6415  0.0881
   58MOL0     C 7557   6.999   3.615   7.042  0.9519  0.0721  0.3615
   58MOL0     C 7558   6.936   3.603   7.165  0.2900  0.0533  0.7034
   58MOL0     O 7559   6.825   3.671   7.185  0.1631  0.3991 -0.3828
   58MOL0     C 7560   6.730   3.637   7.286 -0.2131  0.5971  0.0538
   58MOL0     C 7561   6.631   3.753   7.294  0.7696 -0.0932 -0.4620
   58MOL0     C 7562   6.536   3.782   7.171  0.5713  0.4110 -0.0436
   58MOL0     C 7563   6.425   3.883   7.218 -0.4456 -0.0111 -0.6396
   58MOL0     C 7564   6.339   3.905   7.098 -0.2356 -0.2312  0.2522
   58MOL0     C 7565   6.220   4.006   7.127 -0.0433  0.8420 -0.2802
   58MOL0     C 7566   6.088   3.941   7.167  0.1975  0.4666  0.2736
   58MOL0     C 7567   5.976   3.954   7.055  1.0662  0.8425 -0.1478
   58MOL0    Cl 7568   6.035   3.888   6.905  0.1796  0.4507 -0.1197
   58MOL0     C 7569   6.991   3.523   7.268 -0.1247  0.3996 -0.5354
   58MOL0     C 7570   7.116   3.464   7.253  0.5241  0.2672  0.0158
   58MOL0     O 7571   7.338   3.270   7.269 -1.0910  0.1479  0.5274
   58MOL0     C 7572   7.606   3.402   7.071  0.1112 -0.1267  0.3838
   58MOL0     C 7573   7.738   3.375   7.044 -0.5521 -0.0405 -0.0673
   58MOL0     N 7574   8.448   3.539   6.816  0.3852  0.4233  0.5098
   58MOL0     N 7575   8.557   3.607   6.793 -0.5032  0.3836 -0.7980
   58MOL0     C 7576   9.412   4.625   6.353 -0.2150  0.1091  0.0208
   58MOL0     C 7577   9.472   4.710   6.250  1.0401 -0.0522  0.4029
   58MOL0     C 7578   9.477   4.910   5.826  0.0563 -0.2639 -0.6166
   58MOL0     C 7579   9.411   5.016   5.753 -0.0709  0.2308  0.1777
   58MOL0     C 7580   9.479   5.090   5.659 -0.9511 -0.6281 -0.3728
   58MOL0     C 7581   9.621   5.069   5.640 -0.9757  0.0673  0.0395
   58MOL0     O 7582   9.692   5.130   5.539 -0.1115 -0.6529 -0.0866
   58MOL0     C 7583   9.657   5.255   5.477 -0.0507 -0.1924  0.7501
   58MOL0     C 7584   9.776   5.316   5.393 -0.5846 -0.0767  0.0481
   58MOL0     C 7585   9.733   5.437   5.295 -0.2128 -0.9161 -0.2719
   58MOL0     C 7586   9.849   5.532   5.244 -0.4487  0.4639 -0.0644
   58MOL0     C 7587   9.806   5.632   5.149  0.8638  0.7991  0.5035
   58MOL0     C 7588   9.781   5.716   5.063  0.1120  0.6754  0.0208
   58MOL0     C 7589   9.693   4.984   5.724  0.1475  0.0770 -0.0297
   58MOL0     C 7590   9.616   4.900   5.813  0.4509 -0.2893 -0.3705
   58MOL0     H 7591   9.318   4.576   5.981 -0.1576 -1.5614  0.2473
   58MOL0     H 7592   9.219   4.423   6.154 -1.6466  2.2098 -0.3047
   58MOL0     H 7593   9.206   4.278   6.330  0.6542 -0.6411  1.5428
   58MOL0     H 7594   9.093   4.411   6.327  1.1988  1.1130 -0.6912
   58MOL0     H 7595   9.039   4.391   6.561  0.8852  0.0048  2.0009
   58MOL0     H 7596   9.174   4.283   6.572  1.1289  1.7582 -3.0104
   58MOL0     H 7597   9.062   4.105   6.441  1.1029  0.9968  0.4806
   58MOL0     H 7598   8.934   4.215   6.390 -0.2706 -2.2105 -0.9071
   58MOL0     H 7599   8.972   4.147   6.687 -0.6892  1.5585 -0.2414
   58MOL0     H 7600   8.836   4.220   6.612 -0.7285 -1.5875  2.4541
   58MOL0     H 7601   8.918   3.933   6.549 -1.6560  0.0319 -3.1091
   58MOL0     H 7602   8.767   4.006   6.521 -0.2908  1.3651  1.1616
   58MOL0     H 7603   8.721   4.024   6.769 -0.2562 -0.4544 -0.5130
   58MOL0     H 7604   8.885   3.958   6.803  1.3642  4.8475 -1.3181
   58MOL0     H 7605   8.649   3.826   6.677 -0.0809  2.5108 -0.3520
   58MOL0     H 7606   8.807   3.752   6.700 -0.8927 -0.4858 -0.9965
   58MOL0     H 7607   8.679   3.882   6.940 -1.8013 -1.0145  1.4565
   58MOL0     H 7608   8.774   3.732   6.943 -0.2257  2.0021  2.6476
   58MOL0     H 7609   8.432   3.774   7.050  3.4184 -0.3454  1.5321
   58MOL0     H 7610   8.170   3.654   6.946 -0.4185 -0.1174 -1.6794
   58MOL0     H 7611   8.247   3.544   7.071  0.5355 -2.2012  0.1012
   58MOL0     H 7612   8.262   3.377   6.898  0.7082  0.9885  0.1988
   58MOL0     H 7613   8.135   3.455   6.805 -0.3327 -3.0554 -0.6837
   58MOL0     H 7614   8.135   3.344   7.079  1.0155  2.6453  0.8317
   58MOL0     H 7615   8.009   3.449   7.060  0.7235 -2.2893  2.7450
   58MOL0     H 7616   8.038   3.217   6.865  0.5465 -0.2794  0.5784
   58MOL0     H 7617   7.911   3.344   6.873 -2.4399  1.7073  4.4380
   58MOL0     H 7618   7.762   3.069   7.179 -0.7638  0.3232  2.3855
   58MOL0     H 7619   7.530   3.118   7.244  0.2027 -0.4933 -0.3749
   58MOL0     H 7620   7.177   3.559   6.932 -2.6171  2.0733 -1.4191
   58MOL0     H 7621   6.947   3.665   6.961  4.6536  0.8016 -1.7706
   58MOL0     H 7622   6.765   3.616   7.388 -0.7563  0.5892  0.2410
   58MOL0     H 7623   6.672   3.550   7.253 -3.9827  1.7208  2.9270
   58MOL0     H 7624   6.686   3.836   7.339  0.0581  0.2029 -0.1292
   58MOL0     H 7625   6.564   3.716   7.372 -0.8798  1.7500 -0.9237
   58MOL0     H 7626   6.496   3.689   7.131 -1.5108  0.1813  2.2584
   58MOL0     H 7627   6.594   3.834   7.095 -2.0007  2.4494 -0.7831
   58MOL0     H 7628   6.357   3.837   7.290  0.8559 -2.3050 -0.7922
   58MOL0     H 7629   6.475   3.969   7.262  0.0903 -1.3984  1.6458
   58MOL0     H 7630   6.300   3.814   7.051  0.5507  0.9787 -3.0365
   58MOL0     H 7631   6.400   3.938   7.013 -2.4377 -1.0194 -1.7689
   58MOL0     H 7632   6.200   4.064   7.036 -0.0853 -0.5458 -1.1747
   58MOL0     H 7633   6.256   4.078   7.202  2.8289  0.2416 -0.9593
   58MOL0     H 7634   6.101   3.836   7.191  0.5292  0.8934  2.1322
   58MOL0     H 7635   6.049   3.994   7.255  0.8445  1.1329  0.1790
   58MOL0     H 7636   5.961   4.062   7.041  0.3854  0.6750 -0.8328
   58MOL0     H 7637   5.877   3.920   7.087  0.5063  1.8300 -0.7774
   58MOL0     H 7638   6.946   3.501   7.364 -0.0347 -0.2787 -0.6379
   58MOL0     H 7639   7.164   3.411   7.335  2.1626 -0.1344 -1.1751
   58MOL0     H 7640   7.572   3.501   7.042 -0.6957 -0.2223  0.9660
   58MOL0     H 7641   7.786   3.458   6.993 -0.5831  0.8967  1.3671
   58MOL0     H 7642   9.435   4.645   6.457  0.5133 -1.7053  0.2551
   58MOL0     H 7643   9.542   4.786   6.282 -0.9706  1.0209  2.6620
   58MOL0     H 7644   9.303   5.022   5.751 -0.0096  1.5595  0.4859
   58MOL0     H 7645   9.430   5.164   5.596  2.4020  1.0922 -1.1564
   58MOL0     H 7646   9.628   5.320   5.560 -1.9965 -0.3289  0.2243
   58MOL0     H 7647   9.566   5.238   5.418 -0.0703 -1.6397  1.1707
   58MOL0     H 7648   9.856   5.350   5.459 -2.7701  4.3158  0.8140
   58MOL0     H 7649   9.798   5.237   5.320  0.6172 -0.8400  1.1907
   58MOL0     H 7650   9.661   5.494   5.356  2.5805  0.7100  1.7352
   58MOL0     H 7651   9.682   5.409   5.202  0.2219  2.6310 -1.7155
   58MOL0     H 7652   9.902   5.580   5.327  0.3076  0.8563 -0.7604
   58MOL0     H 7653   9.917   5.468   5.187  0.0297  0.5161  0.4363
   58MOL0     H 7654   9.770   5.784   4.981  0.2693 -0.3106 -0.8386
   58MOL0     H 7655   9.799   4.973   5.705  0.2752  2.6788 -1.2599
   58MOL0     H 7656   9.673   4.834   5.877  1.2533  0.1834 -0.5762
   59MOL0     O 7657   9.717   0.061  10.253 -0.8416 -0.4895 -0.8106
   59MOL0     C 7658   9.756   0.167  10.208  0.7878 -0.1556 -0.3340
   59MOL0     O 7659   9.682   0.285  10.217 -0.2378 -0.0676 -0.3766
   59MOL0     C 7660   9.561   0.303  10.286  0.1552  1.0435  0.0225
   59MOL0     C 7661   9.501   0.211  10.379 -0.2784 -0.0388  0.2321
   59MOL0     C 7662   9.382   0.248  10.443  0.9257 -0.1180 -0.4378
   59MOL0     C 7663   9.305   0.360  10.400 -0.0910  0.7794  0.6537
   59MOL0     O 7664   9.187   0.372  10.455  0.1276 -0.1177  0.2429
   59MOL0     C 7665   9.088   0.457  10.394 -0.0184  0.0254 -0.5317
   59MOL0     C 7666   8.961   0.449  10.481 -0.2783  0.7582 -0.1392
   59MOL0     C 7667   8.901   0.308  10.488 -0.7847 -0.1173  0.2114
   59MOL0     C 7668   8.774   0.323  10.564  0.5783 -0.5861 -0.2407
   59MOL0     C 7669   8.708   0.178  10.550 -0.0449  0.1348 -0.2580
   59MOL0     C 7670   8.568   0.182  10.594 -0.2247  0.4426  0.0525
   59MOL0     C 7671   8.500   0.050  10.553 -0.0610  0.0900  0.1058
   59MOL0     C 7672   8.353   0.056  10.576  0.0961 -0.0626 -0.7867
   59MOL0     N 7673   8.302  -0.081  10.581 -0.4199  0.1643 -0.6625
   59MOL0     C 7674   8.325  -0.179  10.678 -0.0322 -0.9582 -0.6739
   59MOL0     C 7675   8.267  -0.291  10.632  0.3246  0.3005  0.0911
   59MOL0     C 7676   8.259  -0.428  10.702  0.0171  0.1498 -0.0209
   59MOL0     C 7677   8.356  -0.545  10.642 -0.0445  0.4624 -0.5002
   59MOL0     C 7678   8.498  -0.489  10.632 -0.3900  0.0877 -0.3005
   59MOL0     C 7679   8.558  -0.463  10.778  0.0451 -0.2971 -0.5739
   59MOL0     O 7680   8.554  -0.581  10.861  0.4150  0.5118  0.9335
   59MOL0     C 7681   8.661  -0.662  10.846 -0.3345  0.1289 -0.1860
   59MOL0     C 7682   8.787  -0.623  10.893  0.0092  0.2780  0.1944
   59MOL0     C 7683   8.894  -0.708  10.898 -0.4147  0.4579  0.0750
   59MOL0     C 7684   8.884  -0.844  10.856  0.4029 -1.0654  0.3596
   59MOL0     C 7685   9.008  -0.922  10.843  0.2582 -0.3463  0.1285
   59MOL0     O 7686   9.119  -0.883  10.916  0.0209  0.1217 -0.9048
   59MOL0     C 7687   9.233  -0.941  10.868 -1.0499  0.1926  0.0948
   59MOL0     C 7688   9.274  -0.934  10.736 -0.3795  0.7025  0.2490
   59MOL0     C 7689   9.395  -1.001  10.697  0.5623  0.0319  0.0978
   59MOL0     C 7690   9.470  -1.083  10.783 -0.2379 -0.4345 -0.1903
   59MOL0     O 7691   9.581  -1.140  10.734 -0.3125  0.2541 -0.0140
   59MOL0     C 7692   9.663  -1.223  10.819  0.4558 -0.1774 -0.4061
   59MOL0     C 7693   9.813  -1.229  10.772  0.1164  0.8216 -0.0206
   59MOL0     C 7694   9.881  -1.093  10.787 -0.1248 -0.5194 -0.0321
   59MOL0     C 7695  10.030  -1.127  10.798 -0.2242  0.9232  0.0660
   59MOL0     C 7696  10.115  -1.001  10.817 -0.3281  0.8928 -0.4143
   59MOL0     C 7697  10.262  -1.035  10.839 -0.2447  0.2910 -0.1887
   59MOL0     C 7698  10.356  -0.919  10.831 -0.0335 -0.2988 -0.2653
   59MOL0     C 7699  10.318  -0.813  10.935  0.0466  1.0773  0.1364
   59MOL0    Cl 7700  10.461  -0.714  10.971  0.2338 -0.0456  0.5692
   59MOL0     C 7701   9.426  -1.081  10.919 -0.4182 -0.0156  0.4404
   59MOL0     C 7702   9.309  -1.023  10.961 -0.2762 -1.0958  0.1096
   59MOL0     O 7703   9.002  -1.024  10.771 -0.1296  0.1591 -0.1331
   59MOL0     C 7704   8.760  -0.879  10.807 -0.1975 -0.0685  0.9040
   59MOL0     C 7705   8.652  -0.796  10.805  0.6388 -0.5641 -0.3133
   59MOL0     N 7706   8.203  -0.266  10.507 -0.2743 -0.3895  0.7407
   59MOL0     N 7707   8.238  -0.139  10.471 -0.5424  0.7992 -0.0728
   59MOL0     C 7708   9.364   0.446  10.304 -0.9020  0.7269  0.5357
   59MOL0     C 7709   9.496   0.420  10.254  0.7432 -0.8049 -0.1742
   59MOL0     C 7710   9.883   0.169  10.139 -0.4804  0.3560  0.3137
   59MOL0     C 7711   9.932   0.268  10.056  1.1021  0.0800  1.0471
   59MOL0     C 7712  10.043   0.261   9.979 -0.0641 -1.5693  0.1187
   59MOL0     C 7713  10.111   0.141   9.966  0.8505 -0.8673 -0.6192
   59MOL0     O 7714  10.211   0.141   9.869  0.3416 -0.1542 -0.3238
   59MOL0     C 7715  10.268   0.014   9.838  0.6116 -0.5109 -0.2070
   59MOL0     C 7716  10.339   0.023   9.702 -0.0490  0.4644 -0.2235
   59MOL0     C 7717  10.453   0.127   9.715  0.8355  1.2525 -0.0205
   59MOL0     C 7718  10.520   0.128   9.577 -0.5517  0.1357  0.0783
   59MOL0     C 7719  10.658   0.178   9.578 -0.6088 -0.7687 -0.3086
   59MOL0     C 7720  10.774   0.223   9.571  0.1448  0.5154  0.0268
   59MOL0     C 7721  10.077   0.037  10.059  0.1634 -0.0364  0.3425
   59MOL0     C 7722   9.964   0.055  10.150  0.3464 -0.0225  0.8387
   59MOL0     H 7723   9.546   0.123  10.423 -1.5211  0.6078  3.0024
   59MOL0     H 7724   9.342   0.196  10.530  1.9611 -0.2160 -0.0052
   59MOL0     H 7725   9.069   0.415  10.295 -0.0697  2.5068 -1.6420
   59MOL0     H 7726   9.128   0.557  10.379 -0.6502  0.4434  0.4431
   59MOL0     H 7727   8.884   0.515  10.440 -1.5204 -0.8501 -0.4953
   59MOL0     H 7728   8.983   0.484  10.582 -4.1806 -0.2359  1.2372
   59MOL0     H 7729   8.966   0.232  10.532 -1.3586 -0.3646  0.6404
   59MOL0     H 7730   8.885   0.264  10.389 -1.0044 -1.8104  0.9679
   59MOL0     H 7731   8.793   0.350  10.669 -2.7375  2.6012 -0.2505
   59MOL0     H 7732   8.713   0.406  10.526  2.1344  0.3968 -0.6943
   59MOL0     H 7733   8.764   0.107  10.611  0.1659 -0.2819 -0.9232
   59MOL0     H 7734   8.717   0.151  10.444  0.1932  2.3581 -0.8432
   59MOL0     H 7735   8.527   0.274  10.553  1.3156  0.1091 -2.4903
   59MOL0     H 7736   8.566   0.192  10.703 -2.5956  0.7339  0.0235
   59MOL0     H 7737   8.522   0.015  10.452 -0.3481  0.4472 -0.0834
   59MOL0     H 7738   8.542  -0.020  10.626  2.5004  1.6956  0.2837
   59MOL0     H 7739   8.298   0.107  10.496 -2.0599  1.4504  1.4818
   59MOL0     H 7740   8.330   0.107  10.670 -0.5562 -0.2855 -0.8181
   59MOL0     H 7741   8.374  -0.157  10.772 -0.2722 -1.2792 -0.4716
   59MOL0     H 7742   8.153  -0.458  10.700 -0.9553  3.2615  0.1230
   59MOL0     H 7743   8.273  -0.410  10.809  0.3133 -0.8212  0.1166
   59MOL0     H 7744   8.317  -0.573  10.544 -2.4022 -1.6564  0.9282
   59MOL0     H 7745   8.347  -0.637  10.700  0.6602  0.4789 -0.3614
   59MOL0     H 7746   8.574  -0.548  10.581 -1.3203  0.0456 -1.6668
   59MOL0     H 7747   8.491  -0.396  10.575  0.0766  0.2316 -0.1312
   59MOL0     H 7748   8.510  -0.379  10.828 -0.7276  0.0019 -1.7744
   59MOL0     H 7749   8.659  -0.426  10.756  0.5275 -2.1706 -1.8058
   59MOL0     H 7750   8.796  -0.518  10.917 -2.2154  0.4310  0.6276
   59MOL0     H 7751   8.994  -0.667  10.910  0.7107 -1.9822 -0.3136
   59MOL0     H 7752   9.215  -0.869  10.673 -0.8190  1.6047  1.5424
   59MOL0     H 7753   9.419  -0.990  10.592  1.1396  2.0861  0.3922
   59MOL0     H 7754   9.616  -1.322  10.819 -1.2361  0.5909 -0.1455
   59MOL0     H 7755   9.664  -1.193  10.924  0.2974  0.5599 -0.6054
   59MOL0     H 7756   9.812  -1.252  10.665  0.8847  1.5184 -0.1938
   59MOL0     H 7757   9.862  -1.299  10.840  0.7835  1.3467  0.0617
   59MOL0     H 7758   9.840  -1.045  10.877  1.3963 -3.0411  2.1270
   59MOL0     H 7759   9.845  -1.029  10.705 -1.1752 -1.8372 -0.6307
   59MOL0     H 7760  10.043  -1.193  10.884 -1.4800  0.0177 -0.4018
   59MOL0     H 7761  10.061  -1.180  10.707  0.5858 -1.3986  1.6278
   59MOL0     H 7762  10.081  -0.942  10.903  1.1989 -1.1944  1.7780
   59MOL0     H 7763  10.114  -0.945  10.724 -1.9826 -0.0835 -1.0337
   59MOL0     H 7764  10.299  -1.118  10.778 -0.0713 -1.9748  2.7603
   59MOL0     H 7765  10.283  -1.080  10.937 -0.6466  1.6401  0.5430
   59MOL0     H 7766  10.456  -0.962  10.845  0.6901  0.6499 -2.2224
   59MOL0     H 7767  10.347  -0.880  10.729 -0.6320 -0.2860 -0.2155
   59MOL0     H 7768  10.284  -0.845  11.034 -0.7928  0.1609 -0.4232
   59MOL0     H 7769  10.246  -0.747  10.885 -0.1414 -0.5610 -1.9053
   59MOL0     H 7770   9.481  -1.126  11.001 -1.9872 -0.2246  1.4102
   59MOL0     H 7771   9.282  -1.031  11.066 -1.0673  0.6436  0.0718
   59MOL0     H 7772   8.751  -0.975  10.756  0.9948  0.1313  0.2710
   59MOL0     H 7773   8.560  -0.837  10.766 -0.1752  1.6310 -0.8448
   59MOL0     H 7774   9.324   0.539  10.265 -0.2572 -0.0956 -2.3057
   59MOL0     H 7775   9.536   0.481  10.174 -1.4499 -0.0846 -0.7804
   59MOL0     H 7776   9.872   0.359  10.053 -2.2102 -1.9752 -0.4159
   59MOL0     H 7777  10.078   0.335   9.908  0.3379 -0.9747  0.9194
   59MOL0     H 7778  10.194  -0.066   9.826  0.5743 -1.6007  5.0090
   59MOL0     H 7779  10.349  -0.019   9.904  0.9928 -1.2622 -1.0365
   59MOL0     H 7780  10.397  -0.066   9.679  0.7893  1.2655 -1.3437
   59MOL0     H 7781  10.276   0.046   9.615 -0.5569 -0.4344 -0.1043
   59MOL0     H 7782  10.524   0.082   9.785  1.3917 -0.4077 -1.5681
   59MOL0     H 7783  10.420   0.228   9.737  0.0111  1.1728 -0.8459
   59MOL0     H 7784  10.530   0.027   9.537  0.8124 -0.0670  0.8805
   59MOL0     H 7785  10.465   0.182   9.500  3.3126  1.1162 -2.2590
   59MOL0     H 7786  10.878   0.247   9.565 -0.4475  3.3577 -0.3602
   59MOL0     H 7787  10.142  -0.045  10.087 -1.7562 -1.0565  2.0732
   59MOL0     H 7788   9.950  -0.014  10.232 -3.5437  1.1543  1.3609
   60MOL0     O 7789   0.988   9.590   7.564 -0.2978 -0.0401  0.1312
   60MOL0     C 7790   1.049   9.508   7.496  0.0115 -0.1400  0.1872
   60MOL0     O 7791   1.015   9.370   7.480 -0.0133  0.2099  0.4759
   60MOL0     C 7792   0.886   9.336   7.513  0.4223  0.0796  0.6710
   60MOL0     C 7793   0.769   9.398   7.470 -0.1719 -0.9529 -0.0393
   60MOL0     C 7794   0.641   9.348   7.487  0.1207 -0.5336 -0.0053
   60MOL0     C 7795   0.621   9.236   7.564 -0.1439  0.3441 -0.4937
   60MOL0     O 7796   0.498   9.195   7.610 -0.3623 -0.5318 -0.2208
   60MOL0     C 7797   0.380   9.263   7.549  0.7612 -0.4422  0.3772
   60MOL0     C 7798   0.252   9.210   7.613 -1.1033 -0.4294 -0.1435
   60MOL0     C 7799   0.125   9.276   7.574  0.3823 -0.1124 -0.6919
   60MOL0     C 7800   0.007   9.200   7.625  0.9061  0.3557  0.2865
   60MOL0     C 7801  -0.124   9.271   7.582 -0.4741  0.0316 -0.6061
   60MOL0     C 7802  -0.252   9.212   7.648  0.5877 -0.8159 -0.3525
   60MOL0     C 7803  -0.372   9.274   7.580 -0.2054  0.3442 -0.3973
   60MOL0     C 7804  -0.510   9.222   7.631 -0.3759 -0.6658  0.0037
   60MOL0     N 7805  -0.522   9.079   7.603  0.7743  1.0415  0.0344
   60MOL0     C 7806  -0.497   8.968   7.684 -0.0093 -0.2981  0.5948
   60MOL0     C 7807  -0.546   8.863   7.608  0.2490  0.3609 -0.5625
   60MOL0     C 7808  -0.561   8.721   7.646 -0.3221  0.6330  0.7001
   60MOL0     C 7809  -0.419   8.656   7.619 -0.0503  0.3394  0.0737
   60MOL0     C 7810  -0.303   8.692   7.714  0.6385  0.2822 -0.1788
   60MOL0     C 7811  -0.164   8.650   7.662  0.5632  0.0056  0.4530
   60MOL0     O 7812  -0.052   8.671   7.750  0.3788  0.1338 -0.9638
   60MOL0     C 7813   0.071   8.648   7.693  0.1286  0.0106  0.3810
   60MOL0     C 7814   0.136   8.522   7.684 -0.5722 -0.0256 -0.7027
   60MOL0     C 7815   0.264   8.508   7.639  0.4698  0.1377  0.5137
   60MOL0     C 7816   0.335   8.618   7.585 -0.3747 -0.4668 -0.7669
   60MOL0     C 7817   0.489   8.608   7.557 -0.1452 -0.6589  0.1897
   60MOL0     O 7818   0.554   8.731   7.548  0.2639 -0.4163  0.5961
   60MOL0     C 7819   0.687   8.725   7.525  0.4576 -0.4913  1.2697
   60MOL0     C 7820   0.733   8.752   7.393 -0.6827 -0.4307  0.5345
   60MOL0     C 7821   0.867   8.778   7.365  0.2590  0.5060 -0.4594
   60MOL0     C 7822   0.958   8.765   7.473 -0.1589 -0.7289  0.0734
   60MOL0     O 7823   1.099   8.766   7.462  0.2110  0.6298  0.2318
   60MOL0     C 7824   1.150   8.768   7.328 -0.3050  0.0540  0.4391
   60MOL0     C 7825   1.296   8.769   7.353  0.1643 -0.5329 -0.5115
   60MOL0     C 7826   1.344   8.629   7.404  0.0498  0.0082  0.4278
   60MOL0     C 7827   1.497   8.626   7.414 -0.0859  0.1824 -0.0049
   60MOL0     C 7828   1.564   8.487   7.399 -0.2380 -0.5471  0.9729
   60MOL0     C 7829   1.717   8.496   7.400 -0.6897  0.0805  0.0116
   60MOL0     C 7830   1.770   8.354   7.369 -0.3570 -0.3741  0.9573
   60MOL0     C 7831   1.743   8.260   7.482 -0.1611  0.8737  0.0625
   60MOL0    Cl 7832   1.788   8.098   7.411  0.0387 -0.2332  0.5481
   60MOL0     C 7833   0.908   8.754   7.601 -0.7660 -0.4794 -0.1020
   60MOL0     C 7834   0.776   8.731   7.629  0.8825  0.2702  0.4472
   60MOL0     O 7835   0.540   8.494   7.543  0.2835  0.4835 -0.4721
   60MOL0     C 7836   0.274   8.748   7.589  0.1819  0.7669 -0.1057
   60MOL0     C 7837   0.138   8.760   7.642  0.8908 -0.1949 -0.5481
   60MOL0     N 7838  -0.597   8.915   7.488 -0.2416 -0.1586  0.3724
   60MOL0     N 7839  -0.598   9.044   7.494 -0.3016  0.5866 -0.1008
   60MOL0     C 7840   0.737   9.180   7.623 -0.6494  0.7543  0.5521
   60MOL0     C 7841   0.864   9.227   7.595 -0.1327  0.5981  0.3293
   60MOL0     C 7842   1.176   9.565   7.441  0.4659 -0.2898  0.0024
   60MOL0     C 7843   1.195   9.704   7.448 -0.5291  0.5186  0.9892
   60MOL0     C 7844   1.306   9.760   7.389  0.1687  0.3337  0.1944
   60MOL0     C 7845   1.400   9.678   7.325  0.3666  0.7794 -0.5783
   60MOL0     O 7846   1.514   9.725   7.262 -0.2240  0.6703 -0.0179
   60MOL0     C 7847   1.588   9.830   7.326 -0.2304 -1.0963  0.3083
   60MOL0     C 7848   1.723   9.836   7.261 -0.2404  0.3780 -0.7238
   60MOL0     C 7849   1.823   9.928   7.326  0.7430 -0.2632  0.1729
   60MOL0     C 7850   1.943   9.941   7.229 -0.2076  0.0336 -0.3613
   60MOL0     C 7851   2.048  10.034   7.274  0.1591 -0.4849  0.4084
   60MOL0     C 7852   2.134  10.112   7.299  0.7764 -0.3380 -0.2225
   60MOL0     C 7853   1.378   9.545   7.321 -0.2575  0.7181  0.0957
   60MOL0     C 7854   1.263   9.479   7.371 -0.0055 -0.5361 -0.9292
   60MOL0     H 7855   0.767   9.490   7.412 -1.0705 -0.8037  0.2005
   60MOL0     H 7856   0.560   9.414   7.458 -0.6004 -1.0143  0.9020
   60MOL0     H 7857   0.380   9.243   7.442 -0.0696  0.8163  0.1138
   60MOL0     H 7858   0.367   9.371   7.564  0.9152 -0.1494 -1.4147
   60MOL0     H 7859   0.270   9.217   7.720  5.0849 -1.1865 -0.7430
   60MOL0     H 7860   0.250   9.107   7.573 -0.3632 -0.1008 -1.0754
   60MOL0     H 7861   0.120   9.280   7.464 -1.3595  1.5097 -0.6001
   60MOL0     H 7862   0.130   9.377   7.615  3.6624 -0.5701  0.3669
   60MOL0     H 7863  -0.003   9.103   7.575  1.0420  0.6833 -0.3992
   60MOL0     H 7864   0.031   9.205   7.731  0.3021  0.3716  0.4257
   60MOL0     H 7865  -0.121   9.277   7.473  1.0968  1.7521 -0.5233
   60MOL0     H 7866  -0.121   9.379   7.601 -1.0960 -0.2651  1.4805
   60MOL0     H 7867  -0.246   9.235   7.755  0.0662 -1.0209 -0.2804
   60MOL0     H 7868  -0.251   9.103   7.641  0.5973 -0.8519  0.1329
   60MOL0     H 7869  -0.372   9.383   7.592  1.6858  0.3242  0.1763
   60MOL0     H 7870  -0.370   9.250   7.473  1.4328 -2.7877  0.2150
   60MOL0     H 7871  -0.593   9.274   7.583  0.7416  0.9590 -0.2541
   60MOL0     H 7872  -0.531   9.242   7.737 -0.6297 -1.3261  0.0846
   60MOL0     H 7873  -0.454   8.957   7.783 -0.3525 -1.5066  0.6323
   60MOL0     H 7874  -0.643   8.681   7.585 -0.4634 -0.0390  1.3135
   60MOL0     H 7875  -0.590   8.714   7.752 -2.4717  0.2347  0.1416
   60MOL0     H 7876  -0.383   8.682   7.519 -0.8977 -0.9718 -0.5993
   60MOL0     H 7877  -0.424   8.547   7.608  2.3787  0.3119 -1.6622
   60MOL0     H 7878  -0.303   8.801   7.720 -0.2453  0.2253  1.4363
   60MOL0     H 7879  -0.323   8.652   7.814 -0.4573 -0.4055 -0.6612
   60MOL0     H 7880  -0.153   8.700   7.566  1.4575 -1.0110  0.0144
   60MOL0     H 7881  -0.169   8.542   7.644 -1.7304 -0.1882  1.7990
   60MOL0     H 7882   0.081   8.434   7.717 -1.2185  0.0183 -1.6135
   60MOL0     H 7883   0.306   8.408   7.642 -1.4730 -0.7282  0.4911
   60MOL0     H 7884   0.655   8.759   7.318 -1.7634 -0.2541  1.6590
   60MOL0     H 7885   0.893   8.796   7.262  0.5950 -0.9828 -0.6556
   60MOL0     H 7886   1.109   8.858   7.282 -0.1862  0.8724  1.8590
   60MOL0     H 7887   1.135   8.682   7.262  1.3522 -2.3042  2.8920
   60MOL0     H 7888   1.320   8.851   7.421 -2.6129 -0.8043  0.9646
   60MOL0     H 7889   1.342   8.797   7.258 -1.8518  0.6640 -1.2062
   60MOL0     H 7890   1.312   8.555   7.331  2.6436 -1.3467  0.5658
   60MOL0     H 7891   1.294   8.611   7.499 -0.0676 -2.6155 -0.0686
   60MOL0     H 7892   1.549   8.689   7.341  2.3645 -0.4234  1.1395
   60MOL0     H 7893   1.525   8.674   7.507  2.9168 -2.1102  0.4403
   60MOL0     H 7894   1.535   8.449   7.301 -0.2318  0.9453  0.3641
   60MOL0     H 7895   1.519   8.423   7.475 -4.1403  2.5502  1.6207
   60MOL0     H 7896   1.753   8.514   7.502  1.1303  1.3992 -0.7894
   60MOL0     H 7897   1.759   8.561   7.321 -0.3040 -2.1255 -1.7000
   60MOL0     H 7898   1.735   8.310   7.275  3.5393  0.0521 -0.9084
   60MOL0     H 7899   1.877   8.364   7.346 -0.3164 -1.4438  0.6162
   60MOL0     H 7900   1.643   8.263   7.526  0.7482  0.1148  2.3167
   60MOL0     H 7901   1.809   8.281   7.567  1.9643  1.8390 -1.7263
   60MOL0     H 7902   0.976   8.765   7.685  0.0667 -0.3536 -0.7788
   60MOL0     H 7903   0.747   8.738   7.733  0.3699  2.1145  0.2065
   60MOL0     H 7904   0.324   8.839   7.557 -0.6941  0.7376 -1.7012
   60MOL0     H 7905   0.096   8.860   7.645  2.9972  0.7465  2.4614
   60MOL0     H 7906   0.726   9.091   7.683  1.0875 -0.4185 -0.7603
   60MOL0     H 7907   0.942   9.165   7.637 -3.0186 -5.5125 -2.0658
   60MOL0     H 7908   1.119   9.762   7.499 -0.6634  0.5409  0.7638
   60MOL0     H 7909   1.323   9.867   7.401 -0.9290  0.4138  1.3298
   60MOL0     H 7910   1.591   9.805   7.432 -1.1543 -1.0952  0.3429
   60MOL0     H 7911   1.542   9.929   7.320  0.3837 -0.6392  2.4446
   60MOL0     H 7912   1.764   9.735   7.267  2.8571  1.5977  0.4419
   60MOL0     H 7913   1.720   9.867   7.156  1.1126  1.7081 -0.4069
   60MOL0     H 7914   1.859   9.868   7.411  5.2508 -0.6211 -1.6903
   60MOL0     H 7915   1.778  10.019   7.366 -2.3921 -1.9551  0.8096
   60MOL0     H 7916   1.992   9.846   7.203  1.1025  1.1698 -2.3263
   60MOL0     H 7917   1.901   9.974   7.134  1.4857 -0.9741 -1.5184
   60MOL0     H 7918   2.214  10.180   7.319 -0.7537  2.4147 -2.5951
   60MOL0     H 7919   1.455   9.500   7.259  0.1629  2.7902 -0.9631
   60MOL0     H 7920   1.241   9.374   7.352  3.6499 -1.9048  1.1990
   61MOL0     O 7921   5.147   7.084   8.254 -0.9803  0.0200  0.1545
   61MOL0     C 7922   5.145   6.998   8.339  1.0670 -0.3832 -0.5378
   61MOL0     O 7923   5.037   6.926   8.386 -0.1773  0.2548  0.4476
   61MOL0     C 7924   4.916   6.976   8.348 -0.3013  0.3927 -0.5505
   61MOL0     C 7925   4.825   6.894   8.283 -0.2664 -0.3630 -0.5070
   61MOL0     C 7926   4.700   6.936   8.232  0.3273 -0.5196 -0.3165
   61MOL0     C 7927   4.667   7.074   8.239  0.0559 -0.4738 -0.1458
   61MOL0     O 7928   4.556   7.138   8.183 -0.1207  0.4805  0.5194
   61MOL0     C 7929   4.479   7.058   8.094  0.4869  0.1500 -0.0226
   61MOL0     C 7930   4.356   7.132   8.037 -0.0436  0.5598  0.5113
   61MOL0     C 7931   4.227   7.043   8.048  0.6022 -0.6449 -0.1229
   61MOL0     C 7932   4.124   7.107   7.953 -0.2585  0.4792 -0.4449
   61MOL0     C 7933   3.988   7.032   7.953 -0.0130 -0.0549 -0.5921
   61MOL0     C 7934   3.891   7.109   7.869  0.9033  0.5957 -0.3110
   61MOL0     C 7935   3.751   7.039   7.876 -0.5870 -0.8795  0.2325
   61MOL0     C 7936   3.669   7.087   7.759  0.4721  0.9837  0.3499
   61MOL0     N 7937   3.528   7.041   7.754  0.4876  0.2397  0.5664
   61MOL0     C 7938   3.432   7.041   7.848  0.5215  0.5256 -0.3106
   61MOL0     C 7939   3.316   6.984   7.797 -0.8188 -0.3609  0.5070
   61MOL0     C 7940   3.183   6.962   7.861  0.0731 -0.0990 -0.6035
   61MOL0     C 7941   3.072   7.020   7.775  0.2195  0.2229  1.1865
   61MOL0     C 7942   2.953   7.021   7.863  0.2669 -0.1355 -0.0309
   61MOL0     C 7943   2.832   7.054   7.776  0.2294  0.2217  0.5465
   61MOL0     O 7944   2.732   7.109   7.863 -0.9167 -0.4714 -0.3253
   61MOL0     C 7945   2.609   7.142   7.812 -0.1794  0.2709 -0.6498
   61MOL0     C 7946   2.496   7.147   7.901 -0.1831  0.6366 -0.3446
   61MOL0     C 7947   2.365   7.167   7.868 -0.5217 -0.2699 -0.6003
   61MOL0     C 7948   2.340   7.179   7.735 -0.2618  0.9833 -0.2688
   61MOL0     C 7949   2.198   7.218   7.702 -0.1804  1.0580 -0.2799
   61MOL0     O 7950   2.118   7.256   7.803 -0.3349  0.0232  0.3886
   61MOL0     C 7951   1.983   7.277   7.782 -0.7590  0.3370  0.4908
   61MOL0     C 7952   1.926   7.364   7.689  0.1849 -0.3476 -0.2307
   61MOL0     C 7953   1.785   7.374   7.678 -0.3788 -0.3530  0.1629
   61MOL0     C 7954   1.702   7.293   7.756  0.1097 -0.4133 -0.7603
   61MOL0     O 7955   1.566   7.295   7.747 -0.7103 -0.0275 -0.2348
   61MOL0     C 7956   1.496   7.297   7.622 -0.0932  0.4986 -0.2190
   61MOL0     C 7957   1.349   7.353   7.633 -0.7879 -0.0455 -0.2396
   61MOL0     C 7958   1.286   7.371   7.490 -0.6329  0.5238 -0.5249
   61MOL0     C 7959   1.243   7.241   7.426  0.8509 -0.2931 -0.4650
   61MOL0     C 7960   1.136   7.259   7.319 -0.4671  0.2428 -0.1359
   61MOL0     C 7961   1.087   7.123   7.262 -0.0532  0.4966  0.4706
   61MOL0     C 7962   0.964   7.151   7.169  0.7751 -0.3785 -0.0717
   61MOL0     C 7963   0.893   7.024   7.120  0.1148 -0.4697 -0.9158
   61MOL0    Cl 7964   1.025   6.940   7.019 -0.1888  0.1474  0.0997
   61MOL0     C 7965   1.756   7.205   7.846 -0.3381  0.3858 -0.4388
   61MOL0     C 7966   1.893   7.197   7.859 -0.6433 -0.5274 -0.1132
   61MOL0     O 7967   2.167   7.200   7.582 -0.0122  0.3257  0.5302
   61MOL0     C 7968   2.441   7.161   7.641 -0.2558  0.4685  0.5110
   61MOL0     C 7969   2.572   7.140   7.678 -0.6765  0.2968 -0.4849
   61MOL0     N 7970   3.353   6.944   7.672 -0.1690  0.2734  0.2057
   61MOL0     N 7971   3.470   6.983   7.648 -0.2131  0.1133 -0.9385
   61MOL0     C 7972   4.756   7.158   8.303 -1.4466  0.0539  0.1546
   61MOL0     C 7973   4.875   7.114   8.359 -0.2274 -0.0452 -0.0695
   61MOL0     C 7974   5.279   6.958   8.383  0.1979  0.4268 -0.1171
   61MOL0     C 7975   5.299   6.874   8.490 -0.4828 -0.7514 -0.0763
   61MOL0     C 7976   5.424   6.838   8.534  0.8892  0.5559 -0.1074
   61MOL0     C 7977   5.535   6.902   8.478  0.2448  0.2468  0.2132
   61MOL0     O 7978   5.651   6.879   8.545 -0.1528 -0.5953  0.0413
   61MOL0     C 7979   5.766   6.952   8.496 -0.2791  0.8232 -0.6519
   61MOL0     C 7980   5.901   6.919   8.562 -0.1328  0.4641  0.2540
   61MOL0     C 7981   6.024   6.989   8.520  0.1848 -0.8575 -0.9976
   61MOL0     C 7982   6.081   6.948   8.386  0.7722 -0.1573  0.5328
   61MOL0     C 7983   6.225   6.926   8.384 -0.0896  0.8529 -0.0113
   61MOL0     C 7984   6.346   6.923   8.387 -0.4060 -0.6434 -0.5508
   61MOL0     C 7985   5.519   6.993   8.366  0.5106 -0.2446 -0.0546
   61MOL0     C 7986   5.389   7.014   8.320 -0.7060 -0.9551  0.1015
   61MOL0     H 7987   4.847   6.788   8.278 -2.6605 -1.2147  3.0596
   61MOL0     H 7988   4.630   6.868   8.186  0.9847 -0.4012 -1.5405
   61MOL0     H 7989   4.459   6.963   8.145 -0.4138 -0.2861 -1.1491
   61MOL0     H 7990   4.535   7.028   8.005 -0.1472 -0.0921 -0.3446
   61MOL0     H 7991   4.360   7.164   7.932  1.0578 -2.7365 -0.5908
   61MOL0     H 7992   4.341   7.217   8.103  1.4492  0.7086  0.7010
   61MOL0     H 7993   4.199   7.055   8.153  2.8524  2.7447  0.2408
   61MOL0     H 7994   4.235   6.937   8.020 -0.0435 -1.2978  1.9280
   61MOL0     H 7995   4.094   7.208   7.980 -0.6595  0.4111 -0.6305
   61MOL0     H 7996   4.158   7.111   7.849  0.1103  1.8582 -0.2920
   61MOL0     H 7997   3.956   7.045   8.056  1.6149 -1.9752  0.2326
   61MOL0     H 7998   3.997   6.926   7.927 -1.7851 -0.3022 -0.3271
   61MOL0     H 7999   3.928   7.116   7.767 -0.1951  0.9585 -0.6951
   61MOL0     H 8000   3.875   7.208   7.913  0.7150 -0.4027  2.0611
   61MOL0     H 8001   3.757   6.931   7.860  0.2392 -0.7968 -0.0919
   61MOL0     H 8002   3.699   7.058   7.970 -0.2068  0.0068  0.2760
   61MOL0     H 8003   3.716   7.051   7.667  1.1694 -0.3238  1.1669
   61MOL0     H 8004   3.673   7.196   7.759  0.9723  0.9768 -0.7483
   61MOL0     H 8005   3.429   7.078   7.950  0.0536 -0.6656  0.1260
   61MOL0     H 8006   3.180   7.009   7.960  1.2925  0.1996 -0.6924
   61MOL0     H 8007   3.186   6.854   7.878 -1.5850  0.1458  1.8151
   61MOL0     H 8008   3.057   6.952   7.691 -1.2216 -1.7223  2.8794
   61MOL0     H 8009   3.089   7.120   7.734  0.8623 -1.1805 -2.2514
   61MOL0     H 8010   2.934   6.923   7.906 -2.7913 -0.7895 -2.4972
   61MOL0     H 8011   2.955   7.102   7.936  1.2010 -0.6018  0.4862
   61MOL0     H 8012   2.800   6.968   7.717  2.3879 -0.1387 -0.1850
   61MOL0     H 8013   2.861   7.131   7.704 -0.3213  0.8345  0.9664
   61MOL0     H 8014   2.506   7.119   8.005 -0.6807 -0.9220 -0.6854
   61MOL0     H 8015   2.285   7.176   7.940  2.4762  2.4618  2.7596
   61MOL0     H 8016   1.984   7.429   7.624 -0.4094 -0.6493 -1.0900
   61MOL0     H 8017   1.741   7.440   7.604 -1.5956  0.3324  1.4397
   61MOL0     H 8018   1.490   7.192   7.592 -1.3673  1.0866 -2.2294
   61MOL0     H 8019   1.548   7.357   7.546 -3.3481  2.4782 -1.0797
   61MOL0     H 8020   1.357   7.449   7.684 -1.0530 -0.6687  1.0254
   61MOL0     H 8021   1.292   7.280   7.692  0.4384 -0.8040  0.0538
   61MOL0     H 8022   1.360   7.414   7.422  0.6094 -1.1919 -0.3043
   61MOL0     H 8023   1.210   7.449   7.503  0.0211  1.1221 -0.2314
   61MOL0     H 8024   1.327   7.188   7.381  1.5371 -0.0581  0.4980
   61MOL0     H 8025   1.196   7.188   7.509  0.2952  3.0446  1.5307
   61MOL0     H 8026   1.174   7.321   7.237  1.6289 -0.7994 -0.0087
   61MOL0     H 8027   1.056   7.321   7.361 -1.0164  1.3886 -2.6736
   61MOL0     H 8028   1.054   7.063   7.348  1.5387  1.0519  1.5117
   61MOL0     H 8029   1.176   7.081   7.214  1.2550 -0.8711  3.7405
   61MOL0     H 8030   0.897   7.218   7.224  0.9897 -0.8213  0.7387
   61MOL0     H 8031   0.984   7.204   7.075 -0.4918  1.0408  0.4085
   61MOL0     H 8032   0.815   7.058   7.052  0.1252 -3.6309 -2.7222
   61MOL0     H 8033   0.859   6.960   7.202 -0.9830  1.8936  0.5727
   61MOL0     H 8034   1.694   7.144   7.911  1.6872 -2.0097 -0.6138
   61MOL0     H 8035   1.937   7.128   7.930  1.1511 -0.9279 -1.5409
   61MOL0     H 8036   2.419   7.162   7.535 -0.2792  1.5156  0.5093
   61MOL0     H 8037   2.648   7.111   7.606 -2.0259 -2.7566 -0.8645
   61MOL0     H 8038   4.741   7.265   8.314 -0.1952  0.2408  0.1934
   61MOL0     H 8039   4.936   7.188   8.409 -0.8450  0.7146 -0.4098
   61MOL0     H 8040   5.212   6.843   8.547  0.4802  0.1570  2.0039
   61MOL0     H 8041   5.445   6.765   8.612  1.2711 -0.1684 -0.8775
   61MOL0     H 8042   5.743   7.055   8.528 -1.6862  0.1928  0.4782
   61MOL0     H 8043   5.780   6.952   8.387  1.2198  0.9116 -0.4775
   61MOL0     H 8044   5.877   6.933   8.668 -0.7011 -0.2290  0.2263
   61MOL0     H 8045   5.912   6.811   8.549 -1.0100 -0.0335  2.9654
   61MOL0     H 8046   6.100   6.976   8.598 -3.4505  1.9683  3.5667
   61MOL0     H 8047   6.003   7.097   8.516  1.8046 -0.4014  0.9021
   61MOL0     H 8048   6.031   6.852   8.368  1.9682 -0.7616  0.3146
   61MOL0     H 8049   6.047   7.021   8.312 -3.6108 -0.8397  1.6366
   61MOL0     H 8050   6.448   6.951   8.371 -0.4228 -1.9249 -3.3524
   61MOL0     H 8051   5.602   7.055   8.332 -0.9624  1.7128 -0.3021
   61MOL0     H 8052   5.367   7.094   8.249  1.2328 -0.0379  0.4569
   62MOL0     O 8053   0.759   3.048   6.029  0.0501  0.3916 -0.1207
   62MOL0     C 8054   0.815   3.021   5.923  0.0379  0.6243 -0.3020
   62MOL0     O 8055   0.748   2.983   5.805  0.1362 -0.3512  0.3336
   62MOL0     C 8056   0.610   3.005   5.804 -0.2438 -0.4737  0.8134
   62MOL0     C 8057   0.511   2.969   5.899 -0.2013 -0.1637  0.1039
   62MOL0     C 8058   0.374   2.981   5.875 -0.1694 -0.7465  0.7403
   62MOL0     C 8059   0.323   3.040   5.761 -1.1328 -0.5620 -0.2389
   62MOL0     O 8060   0.191   3.061   5.744 -0.4836 -0.6398  0.0794
   62MOL0     C 8061   0.102   3.084   5.855  0.4808  1.0532  0.3193
   62MOL0     C 8062  -0.038   3.136   5.806  0.3582  0.0975 -0.0304
   62MOL0     C 8063  -0.136   3.149   5.919  0.2437  0.2538 -0.8042
   62MOL0     C 8064  -0.276   3.117   5.867 -0.1624 -0.7791  0.0975
   62MOL0     C 8065  -0.379   3.173   5.972  0.5909 -0.0122 -0.1781
   62MOL0     C 8066  -0.507   3.100   5.986 -0.1654  0.0470  0.7840
   62MOL0     C 8067  -0.610   3.168   6.079  0.2917 -0.3469  0.3887
   62MOL0     C 8068  -0.580   3.131   6.221  0.0511 -0.2326 -0.1243
   62MOL0     N 8069  -0.685   3.192   6.306 -0.4630  0.3553  0.2749
   62MOL0     C 8070  -0.709   3.328   6.324 -0.1095  0.0994  0.0821
   62MOL0     C 8071  -0.813   3.338   6.403 -0.1154 -0.0312 -0.4074
   62MOL0     C 8072  -0.860   3.462   6.465  1.0823  0.0694  0.0874
   62MOL0     C 8073  -0.946   3.428   6.587 -1.2023 -0.2193  0.0966
   62MOL0     C 8074  -0.986   3.560   6.659 -0.2867 -0.0311  1.0993
   62MOL0     C 8075  -1.114   3.551   6.756  0.3866  0.1046  0.5345
   62MOL0     O 8076  -1.108   3.426   6.827  0.0014  0.6760 -0.1987
   62MOL0     C 8077  -1.202   3.407   6.932  0.3781  1.1985  0.9778
   62MOL0     C 8078  -1.209   3.278   6.984  0.1805 -0.4066 -0.7726
   62MOL0     C 8079  -1.310   3.236   7.076  0.0490 -0.2799 -0.7508
   62MOL0     C 8080  -1.391   3.333   7.143  0.8188 -0.6480  0.5534
   62MOL0     C 8081  -1.505   3.295   7.228  0.7278 -0.8220  0.0488
   62MOL0     O 8082  -1.611   3.382   7.223 -0.0265 -0.1894  0.9896
   62MOL0     C 8083  -1.713   3.339   7.295  0.2230  0.0296 -0.6705
   62MOL0     C 8084  -1.734   3.409   7.418  0.2520 -0.6346  0.2742
   62MOL0     C 8085  -1.848   3.379   7.497  1.1131 -0.0921  0.5542
   62MOL0     C 8086  -1.935   3.275   7.454 -0.6130  1.0275 -0.1066
   62MOL0     O 8087  -2.040   3.241   7.538  0.4719 -0.1355  0.3418
   62MOL0     C 8088  -2.163   3.308   7.513 -0.0460  0.7040 -1.3496
   62MOL0     C 8089  -2.267   3.226   7.581  0.6337 -0.2288 -1.1754
   62MOL0     C 8090  -2.413   3.274   7.554 -0.2240  0.1231  0.2995
   62MOL0     C 8091  -2.506   3.194   7.639  0.5657  0.4217 -0.0285
   62MOL0     C 8092  -2.643   3.171   7.571  0.1960  0.8196  0.2866
   62MOL0     C 8093  -2.738   3.083   7.667 -0.6166 -0.7319 -0.6513
   62MOL0     C 8094  -2.846   3.003   7.597 -0.7784  0.4635  0.1331
   62MOL0     C 8095  -2.885   2.884   7.690  0.0301  0.1464  0.1892
   62MOL0    Cl 8096  -2.972   2.956   7.822  0.2192 -0.1079 -0.4208
   62MOL0     C 8097  -1.909   3.211   7.332 -0.2892 -0.3519 -0.6391
   62MOL0     C 8098  -1.805   3.243   7.255 -0.4108 -0.1523  0.6809
   62MOL0     O 8099  -1.499   3.191   7.292  0.1819 -0.2662 -0.1904
   62MOL0     C 8100  -1.382   3.465   7.093 -0.4043 -0.1644  0.2945
   62MOL0     C 8101  -1.289   3.504   6.992  0.1639  0.1094 -0.5977
   62MOL0     N 8102  -0.865   3.210   6.422  0.0230  0.0604 -0.2744
   62MOL0     N 8103  -0.783   3.126   6.373  0.5468 -0.4280  0.4568
   62MOL0     C 8104   0.424   3.062   5.661  0.5687  0.5515 -0.0391
   62MOL0     C 8105   0.562   3.049   5.680  0.0772 -0.1247  0.3213
   62MOL0     C 8106   0.967   3.015   5.928  0.7934 -0.2021 -0.1863
   62MOL0     C 8107   1.044   2.979   5.820  0.3050  0.3994  0.7792
   62MOL0     C 8108   1.182   2.970   5.834  0.1124  0.2640  0.1765
   62MOL0     C 8109   1.250   3.017   5.943  0.4906 -0.3335 -0.5269
   62MOL0     O 8110   1.390   3.014   5.945  0.5254  0.7618  0.3064
   62MOL0     C 8111   1.456   3.063   6.065  0.2009  0.0666  0.0723
   62MOL0     C 8112   1.599   3.012   6.048 -0.5188  0.0363 -0.2172
   62MOL0     C 8113   1.683   3.024   6.171  0.3153 -0.2353 -0.5486
   62MOL0     C 8114   1.798   2.916   6.171 -0.3868 -0.3212 -0.4710
   62MOL0     C 8115   1.911   2.941   6.075 -0.2339  0.1775 -0.8149
   62MOL0     C 8116   1.995   2.973   5.994 -0.0201  0.3057  0.3335
   62MOL0     C 8117   1.173   3.072   6.048 -0.1849  0.8586  0.3161
   62MOL0     C 8118   1.037   3.064   6.041  0.2342 -0.0885 -0.0040
   62MOL0     H 8119   0.534   2.936   6.000 -1.2607  0.7227  0.6510
   62MOL0     H 8120   0.296   2.947   5.943 -2.4081 -1.6735 -2.0742
   62MOL0     H 8121   0.134   3.158   5.929 -0.9927 -0.3293  2.4692
   62MOL0     H 8122   0.088   2.989   5.907  0.1120  0.4301 -0.8645
   62MOL0     H 8123  -0.073   3.066   5.729 -1.1188  1.3056 -0.4938
   62MOL0     H 8124  -0.026   3.239   5.773  1.0899  0.9502  2.6453
   62MOL0     H 8125  -0.139   3.242   5.976 -0.5253  0.2000 -0.7380
   62MOL0     H 8126  -0.111   3.067   5.987 -0.3390  2.3887  2.1553
   62MOL0     H 8127  -0.308   3.159   5.772 -2.8039 -1.2153  0.7187
   62MOL0     H 8128  -0.303   3.011   5.855  1.1570 -0.9487 -1.8011
   62MOL0     H 8129  -0.389   3.278   5.943  1.3811  0.2442  0.4285
   62MOL0     H 8130  -0.338   3.168   6.073 -2.3806  0.7211  1.1735
   62MOL0     H 8131  -0.490   3.000   6.026  1.0373 -0.2006 -0.2639
   62MOL0     H 8132  -0.550   3.095   5.885 -0.7543  0.7469  0.9910
   62MOL0     H 8133  -0.597   3.277   6.090  0.1238 -0.5745  5.3267
   62MOL0     H 8134  -0.714   3.147   6.053  0.0684  2.8823 -2.0075
   62MOL0     H 8135  -0.480   3.161   6.254  0.7781 -1.9690 -0.6512
   62MOL0     H 8136  -0.590   3.022   6.223 -2.2307 -0.2195 -3.1399
   62MOL0     H 8137  -0.646   3.405   6.280  1.5414 -1.3856 -0.2467
   62MOL0     H 8138  -0.933   3.514   6.402 -0.2985  0.4123  1.8747
   62MOL0     H 8139  -0.773   3.524   6.485  2.8795 -2.7486  1.6327
   62MOL0     H 8140  -0.877   3.373   6.651 -2.4779 -3.6427 -1.2414
   62MOL0     H 8141  -1.034   3.368   6.565 -1.5234  0.4845 -0.6122
   62MOL0     H 8142  -0.897   3.594   6.713  0.2956  0.4364 -0.0942
   62MOL0     H 8143  -1.006   3.643   6.591  0.0838 -0.1846  0.7952
   62MOL0     H 8144  -1.207   3.554   6.698 -0.0125 -1.4358  1.0405
   62MOL0     H 8145  -1.103   3.642   6.816 -2.6309  1.8393 -1.3140
   62MOL0     H 8146  -1.140   3.204   6.945 -0.0087 -1.2909  0.4810
   62MOL0     H 8147  -1.323   3.130   7.093  1.0620 -0.0248  2.0962
   62MOL0     H 8148  -1.659   3.480   7.452  0.6790 -1.2176  0.5591
   62MOL0     H 8149  -1.869   3.431   7.590  2.0859 -3.3181  2.7519
   62MOL0     H 8150  -2.170   3.319   7.404  2.3324 -0.6263 -1.7100
   62MOL0     H 8151  -2.160   3.404   7.566  0.1635 -0.2998  0.5645
   62MOL0     H 8152  -2.240   3.239   7.686 -0.0102 -0.1807 -1.0150
   62MOL0     H 8153  -2.257   3.118   7.570 -2.5996 -0.9347  1.2496
   62MOL0     H 8154  -2.427   3.258   7.447  0.8456  0.3039  0.1206
   62MOL0     H 8155  -2.424   3.383   7.566  0.6993  0.4634 -1.6187
   62MOL0     H 8156  -2.455   3.098   7.649 -0.1530  0.2290  2.2728
   62MOL0     H 8157  -2.518   3.237   7.739  1.9115 -0.7554  0.6693
   62MOL0     H 8158  -2.631   3.109   7.482 -0.3404  0.5963  0.3665
   62MOL0     H 8159  -2.695   3.260   7.534 -1.2545 -0.7687 -1.7490
   62MOL0     H 8160  -2.794   3.151   7.733  2.4313 -0.0982  1.4666
   62MOL0     H 8161  -2.678   3.017   7.729 -2.1190 -0.6528  0.9684
   62MOL0     H 8162  -2.935   3.065   7.585 -0.7480  0.2900 -1.0551
   62MOL0     H 8163  -2.811   2.966   7.500 -1.5138  0.3850 -0.1032
   62MOL0     H 8164  -2.793   2.830   7.717 -0.6051 -1.4590 -0.7191
   62MOL0     H 8165  -2.938   2.809   7.631  0.3561  0.4661 -0.5356
   62MOL0     H 8166  -1.976   3.129   7.309 -2.9699  0.7279  2.5023
   62MOL0     H 8167  -1.791   3.195   7.159  1.4106 -2.5236  2.0199
   62MOL0     H 8168  -1.464   3.531   7.121 -2.3009 -1.7768 -1.1780
   62MOL0     H 8169  -1.298   3.608   6.963  2.6202  1.1083  1.7315
   62MOL0     H 8170   0.400   3.124   5.575  2.9019 -1.4764 -2.3322
   62MOL0     H 8171   0.621   3.106   5.609 -0.1709 -0.3768 -0.0929
   62MOL0     H 8172   0.989   2.940   5.735 -1.4252 -1.9415  2.8207
   62MOL0     H 8173   1.242   2.923   5.757  1.1615  0.5148  0.8243
   62MOL0     H 8174   1.410   3.033   6.160 -1.8720  2.2499 -0.1479
   62MOL0     H 8175   1.458   3.172   6.062  1.8877  0.1280 -4.4894
   62MOL0     H 8176   1.603   2.905   6.026  0.2941 -0.3744  1.6983
   62MOL0     H 8177   1.638   3.077   5.969  0.7723 -0.1087  0.2619
   62MOL0     H 8178   1.623   3.019   6.262  0.2045 -0.3047 -0.6259
   62MOL0     H 8179   1.720   3.127   6.175 -1.1886  0.3513 -1.1158
   62MOL0     H 8180   1.841   2.914   6.271 -0.3774  0.3710 -0.4597
   62MOL0     H 8181   1.760   2.816   6.149  1.1899 -1.2411  0.8212
   62MOL0     H 8182   2.069   2.990   5.918  0.8548  0.7382  1.2676
   62MOL0     H 8183   1.216   3.125   6.132 -0.2326  0.6248  0.4884
   62MOL0     H 8184   0.971   3.092   6.122 -0.1202 -3.5079  1.0449
   63MOL0     O 8185   9.305   2.372   7.378 -0.2654  0.0582 -0.3860
   63MOL0     C 8186   9.326   2.248   7.359  0.6561  1.0914 -0.3595
   63MOL0     O 8187   9.237   2.150   7.347 -0.4947  0.5825 -0.2049
   63MOL0     C 8188   9.104   2.175   7.365 -0.4716  0.5161 -1.1027
   63MOL0     C 8189   9.053   2.233   7.480 -0.5361  0.5244  0.1749
   63MOL0     C 8190   8.919   2.238   7.515 -0.8668  0.5171  0.0069
   63MOL0     C 8191   8.833   2.169   7.436 -0.0663  0.5536  0.4677
   63MOL0     O 8192   8.696   2.147   7.458 -0.6800 -0.2874 -0.3305
   63MOL0     C 8193   8.625   2.230   7.539  0.3754  0.6686  0.1980
   63MOL0     C 8194   8.482   2.209   7.483 -0.0720 -0.4666 -0.2899
   63MOL0     C 8195   8.428   2.064   7.505  0.8600  0.1052 -0.7954
   63MOL0     C 8196   8.394   2.023   7.651 -0.5263  0.0371 -0.9331
   63MOL0     C 8197   8.288   2.098   7.730  0.0457 -0.0996 -0.0923
   63MOL0     C 8198   8.164   2.131   7.668  0.0837 -0.2418 -0.8476
   63MOL0     C 8199   8.065   2.013   7.642 -0.5428  0.0659  0.9875
   63MOL0     C 8200   8.042   1.909   7.751  0.3958  0.3264 -0.4732
   63MOL0     N 8201   7.924   1.826   7.720 -0.8674  0.0075 -0.4596
   63MOL0     C 8202   7.816   1.804   7.797 -0.0370 -0.1115 -0.2745
   63MOL0     C 8203   7.765   1.690   7.751  0.0649  0.3469  0.5308
   63MOL0     C 8204   7.648   1.607   7.809 -0.3281  0.1547  0.3917
   63MOL0     C 8205   7.557   1.538   7.713  0.4678  0.4306  0.9548
   63MOL0     C 8206   7.457   1.448   7.796  0.0338 -0.1500  0.9065
   63MOL0     C 8207   7.359   1.366   7.708 -0.3039 -1.0014  0.6370
   63MOL0     O 8208   7.279   1.279   7.793 -0.4041 -0.3933 -0.3341
   63MOL0     C 8209   7.146   1.291   7.773  0.1735  0.4281  0.8624
   63MOL0     C 8210   7.063   1.347   7.873  0.8514  0.2962  0.2180
   63MOL0     C 8211   6.926   1.356   7.851  0.1222 -0.4089 -0.4421
   63MOL0     C 8212   6.864   1.315   7.730 -0.3769  0.6243 -0.6362
   63MOL0     C 8213   6.718   1.324   7.696  0.1792  0.8177 -0.6518
   63MOL0     O 8214   6.674   1.376   7.579  0.3819 -0.7259  0.0675
   63MOL0     C 8215   6.540   1.359   7.565  0.4125 -0.5119  0.2998
   63MOL0     C 8216   6.454   1.456   7.608 -0.1592 -0.4348 -0.1949
   63MOL0     C 8217   6.319   1.442   7.594 -0.2486  0.2442  0.1922
   63MOL0     C 8218   6.256   1.314   7.556  1.7591  0.0124 -0.1526
   63MOL0     O 8219   6.118   1.289   7.549 -0.9927  0.5971  0.1503
   63MOL0     C 8220   6.023   1.398   7.569 -0.4002  0.9225 -0.1434
   63MOL0     C 8221   5.897   1.367   7.477 -0.3317 -0.0599 -0.7992
   63MOL0     C 8222   5.827   1.247   7.544 -0.0719  0.7084  0.2574
   63MOL0     C 8223   5.722   1.193   7.451 -0.2456 -0.9606  0.6805
   63MOL0     C 8224   5.582   1.264   7.465  0.0962 -0.2003 -0.8561
   63MOL0     C 8225   5.469   1.178   7.401 -0.4171  0.2375  0.6017
   63MOL0     C 8226   5.334   1.223   7.457 -0.3476  0.4301 -0.2918
   63MOL0     C 8227   5.226   1.132   7.404 -0.5420 -0.3607  0.3998
   63MOL0    Cl 8228   5.062   1.190   7.447  0.1997 -0.0732 -0.3533
   63MOL0     C 8229   6.341   1.210   7.512  0.4095 -0.2662 -0.0610
   63MOL0     C 8230   6.482   1.239   7.515 -0.1166 -0.0606  0.7930
   63MOL0     O 8231   6.653   1.285   7.794  0.2506  0.4087  0.4951
   63MOL0     C 8232   6.944   1.254   7.635 -1.0917  1.0397 -0.1410
   63MOL0     C 8233   7.086   1.253   7.654  0.1507 -0.2689 -0.2228
   63MOL0     N 8234   7.831   1.661   7.628 -0.7431  0.0671 -0.6818
   63MOL0     N 8235   7.925   1.746   7.613 -0.8579 -1.0537  0.5193
   63MOL0     C 8236   8.875   2.114   7.319 -0.1296 -0.2284  0.8542
   63MOL0     C 8237   9.010   2.121   7.278  0.4609 -0.2024  0.4044
   63MOL0     C 8238   9.467   2.207   7.331  0.4091 -0.1818  0.8317
   63MOL0     C 8239   9.495   2.077   7.290  0.3318  0.3221 -0.3898
   63MOL0     C 8240   9.625   2.032   7.284  0.5362 -0.7132 -0.0494
   63MOL0     C 8241   9.728   2.124   7.303  0.8455  0.4993  0.3287
   63MOL0     O 8242   9.857   2.081   7.309 -0.0590  0.8677 -0.5951
   63MOL0     C 8243   9.945   2.098   7.196 -0.2812  0.3832 -0.2098
   63MOL0     C 8244   9.929   1.992   7.093  1.0574  0.3372  0.5059
   63MOL0     C 8245  10.000   2.018   6.963 -0.5314  1.0743 -0.3328
   63MOL0     C 8246   9.960   2.149   6.892  0.2058  0.6653  0.2455
   63MOL0     C 8247  10.011   2.164   6.760  0.1814  0.4789 -0.2214
   63MOL0     C 8248  10.065   2.171   6.653 -0.9421  0.4878  0.4788
   63MOL0     C 8249   9.700   2.253   7.344 -0.7664 -0.0536 -0.1808
   63MOL0     C 8250   9.572   2.294   7.354  0.2831  1.2649 -0.1860
   63MOL0     H 8251   9.118   2.271   7.559  0.1751 -2.0157  0.8970
   63MOL0     H 8252   8.885   2.282   7.608 -1.7054  1.1175 -0.5804
   63MOL0     H 8253   8.666   2.329   7.519  1.9646 -0.3316 -1.7941
   63MOL0     H 8254   8.627   2.206   7.646 -2.1379 -1.4341 -0.1315
   63MOL0     H 8255   8.492   2.225   7.376  1.6083 -1.7243 -0.3597
   63MOL0     H 8256   8.406   2.275   7.524 -0.9729  0.7101 -3.5476
   63MOL0     H 8257   8.497   1.993   7.458  2.6253  2.0454 -1.2912
   63MOL0     H 8258   8.329   2.057   7.459 -1.7502 -0.0647  4.1738
   63MOL0     H 8259   8.364   1.918   7.652 -0.1502 -0.0919  1.0299
   63MOL0     H 8260   8.485   2.028   7.711 -0.7022 -1.2728 -0.5260
   63MOL0     H 8261   8.323   2.197   7.762  1.3648 -0.9430  1.2024
   63MOL0     H 8262   8.263   2.043   7.821 -2.8207  0.7017 -0.3046
   63MOL0     H 8263   8.194   2.182   7.576  4.1280 -1.8903 -0.6636
   63MOL0     H 8264   8.111   2.193   7.741  2.1248 -0.4256  0.8987
   63MOL0     H 8265   7.975   2.062   7.604  1.1255  1.6083 -1.2762
   63MOL0     H 8266   8.097   1.959   7.552 -1.9050  4.3017 -2.4104
   63MOL0     H 8267   8.025   1.965   7.843 -1.3078 -1.2885  0.2591
   63MOL0     H 8268   8.125   1.840   7.764 -0.8143 -0.6335  3.3645
   63MOL0     H 8269   7.782   1.854   7.887 -0.2990 -0.7694  0.0009
   63MOL0     H 8270   7.590   1.670   7.877 -2.1825 -0.5838 -0.4445
   63MOL0     H 8271   7.691   1.528   7.872 -0.8583 -0.6581 -0.2405
   63MOL0     H 8272   7.610   1.478   7.638 -0.3058 -2.1339  2.3107
   63MOL0     H 8273   7.491   1.612   7.667  2.1549  2.0319  1.0101
   63MOL0     H 8274   7.507   1.375   7.860 -0.7887 -1.5347 -0.0013
   63MOL0     H 8275   7.398   1.518   7.855  0.3526  0.7217  0.2212
   63MOL0     H 8276   7.408   1.298   7.637 -2.1553 -1.3733 -0.3626
   63MOL0     H 8277   7.297   1.440   7.657 -1.3500 -1.1785  1.6222
   63MOL0     H 8278   7.112   1.368   7.968 -1.7435 -0.2983  1.8166
   63MOL0     H 8279   6.856   1.401   7.921  0.3508  0.0755 -0.5208
   63MOL0     H 8280   6.497   1.544   7.654 -2.8990  0.8162  0.1817
   63MOL0     H 8281   6.257   1.518   7.640  0.4642  0.0990  1.4488
   63MOL0     H 8282   6.069   1.493   7.540  0.6523  0.0403 -1.4646
   63MOL0     H 8283   5.992   1.416   7.672 -3.2436 -1.2631 -0.5038
   63MOL0     H 8284   5.934   1.338   7.378 -1.1687 -0.6018 -0.9623
   63MOL0     H 8285   5.834   1.455   7.467 -0.0196  0.1023 -1.4349
   63MOL0     H 8286   5.779   1.282   7.636  1.5330  0.1102  1.3541
   63MOL0     H 8287   5.899   1.169   7.570  0.5385 -0.3503 -3.9400
   63MOL0     H 8288   5.755   1.207   7.347  0.0115  4.9825  1.2531
   63MOL0     H 8289   5.699   1.091   7.484  0.7989 -1.8428 -1.1155
   63MOL0     H 8290   5.590   1.365   7.424 -1.9972 -0.3785 -1.8746
   63MOL0     H 8291   5.562   1.285   7.570  2.6616 -3.6599  0.5105
   63MOL0     H 8292   5.481   1.070   7.412  0.2486  0.2619  0.1603
   63MOL0     H 8293   5.455   1.193   7.294 -0.4972 -1.0313  0.4229
   63MOL0     H 8294   5.341   1.232   7.566  1.7797  1.7622 -0.4805
   63MOL0     H 8295   5.312   1.325   7.425  1.9112  0.9789 -0.2338
   63MOL0     H 8296   5.229   1.041   7.464  1.1187  0.2661  1.3404
   63MOL0     H 8297   5.225   1.117   7.295 -1.6259  0.9820  0.2000
   63MOL0     H 8298   6.298   1.113   7.488 -0.1897 -0.4097  1.4585
   63MOL0     H 8299   6.544   1.166   7.464 -0.7860  0.6663 -1.1616
   63MOL0     H 8300   6.896   1.206   7.550 -1.0025  1.0094 -0.1744
   63MOL0     H 8301   7.138   1.200   7.574 -3.4726 -2.1863 -1.5181
   63MOL0     H 8302   8.822   2.051   7.248  3.3430 -2.0295 -0.3999
   63MOL0     H 8303   9.036   2.088   7.178 -1.9277  0.2497 -0.4228
   63MOL0     H 8304   9.420   2.002   7.265  0.4012  0.8514 -2.3443
   63MOL0     H 8305   9.647   1.927   7.271  0.7084 -0.6698 -0.1129
   63MOL0     H 8306  10.051   2.107   7.221 -0.3054  1.5517 -0.4481
   63MOL0     H 8307   9.925   2.198   7.156  0.3121  0.5783 -0.0271
   63MOL0     H 8308   9.966   1.905   7.148  0.9710 -0.4522 -0.6546
   63MOL0     H 8309   9.820   1.990   7.080  0.9917 -1.1964  1.1143
   63MOL0     H 8310   9.985   1.929   6.901 -0.3389  2.2672 -2.1580
   63MOL0     H 8311  10.106   2.034   6.986 -0.7824  1.3810  0.6774
   63MOL0     H 8312   9.851   2.156   6.884 -0.0361 -2.8924 -1.6789
   63MOL0     H 8313  10.001   2.225   6.959 -1.8374  1.6350  0.4655
   63MOL0     H 8314  10.137   2.177   6.574  0.5658  1.4994  1.8551
   63MOL0     H 8315   9.781   2.320   7.371  0.4600 -1.8278  0.7954
   63MOL0     H 8316   9.562   2.398   7.385  2.3893  0.9114  2.0175
   64MOL0     O 8317   5.663   1.555   5.632  0.3930 -0.0267 -0.2035
   64MOL0     C 8318   5.678   1.455   5.696 -0.5884  0.9533 -0.9787
   64MOL0     O 8319   5.584   1.392   5.770 -0.1667  0.0801 -0.0399
   64MOL0     C 8320   5.471   1.461   5.798 -0.2596  0.5443  0.5401
   64MOL0     C 8321   5.353   1.391   5.763 -0.4084 -0.0727 -0.8398
   64MOL0     C 8322   5.227   1.454   5.769  0.4553  0.0402  0.6375
   64MOL0     C 8323   5.235   1.589   5.821  0.1366  0.1127  0.1327
   64MOL0     O 8324   5.121   1.658   5.838 -0.5387 -0.1735 -0.3353
   64MOL0     C 8325   5.001   1.609   5.767  0.0706 -0.1960  0.0749
   64MOL0     C 8326   4.882   1.700   5.762  0.3044  0.0977  0.1663
   64MOL0     C 8327   4.918   1.836   5.695  0.0374 -0.0831  0.1586
   64MOL0     C 8328   4.811   1.943   5.700 -0.0254  0.2584 -0.0764
   64MOL0     C 8329   4.851   2.054   5.614  0.2595 -0.3404 -0.3539
   64MOL0     C 8330   4.771   2.184   5.651  0.1323 -0.6306  0.1129
   64MOL0     C 8331   4.829   2.316   5.589 -0.5820  0.2072  0.7690
   64MOL0     C 8332   4.767   2.452   5.624 -0.2209  0.3391 -0.5700
   64MOL0     N 8333   4.827   2.510   5.743 -0.3334  0.1335 -0.0005
   64MOL0     C 8334   4.954   2.557   5.759 -0.9837 -0.2707 -0.9869
   64MOL0     C 8335   4.960   2.597   5.897  0.0795  0.5777  0.2617
   64MOL0     C 8336   5.080   2.671   5.962  0.6432 -1.0788  0.5666
   64MOL0     C 8337   5.208   2.597   5.970 -0.3887  0.2010  0.9025
   64MOL0     C 8338   5.321   2.683   6.041 -0.7697 -0.6776 -0.7774
   64MOL0     C 8339   5.458   2.614   6.026  0.2943 -0.1695  0.0110
   64MOL0     O 8340   5.484   2.520   6.130  0.2549 -0.6568  0.0417
   64MOL0     C 8341   5.612   2.492   6.153 -0.4193 -0.1119  0.1767
   64MOL0     C 8342   5.712   2.486   6.052 -0.6862 -0.5834 -0.4083
   64MOL0     C 8343   5.845   2.459   6.074  0.5800 -0.2538  0.6630
   64MOL0     C 8344   5.890   2.431   6.205  0.1105  0.1985  0.5524
   64MOL0     C 8345   6.031   2.398   6.223 -0.2058 -0.0681 -0.6859
   64MOL0     O 8346   6.105   2.347   6.124 -0.5496  0.1688 -0.7132
   64MOL0     C 8347   6.244   2.357   6.118 -1.0452 -0.7871 -1.0795
   64MOL0     C 8348   6.331   2.424   6.209  0.9702 -0.5349  0.2751
   64MOL0     C 8349   6.471   2.426   6.189  0.9879 -0.3327 -0.6054
   64MOL0     C 8350   6.531   2.354   6.086  0.4725 -0.6848  0.0818
   64MOL0     O 8351   6.672   2.348   6.086  0.4342 -0.1490  0.7297
   64MOL0     C 8352   6.727   2.388   5.966 -0.5309  0.0149 -0.4285
   64MOL0     C 8353   6.877   2.382   5.968  0.2036  0.2578  0.1161
   64MOL0     C 8354   6.924   2.236   5.963 -0.3635  0.4159 -0.5537
   64MOL0     C 8355   7.082   2.232   5.974  0.2001  0.7617  0.3003
   64MOL0     C 8356   7.147   2.255   5.836  0.3130 -0.4723  0.3489
   64MOL0     C 8357   7.302   2.250   5.827  0.2350  0.1037  0.7463
   64MOL0     C 8358   7.356   2.335   5.945 -0.1589 -0.2289 -0.4818
   64MOL0     C 8359   7.510   2.347   5.960  0.2589  0.7215  0.5650
   64MOL0    Cl 8360   7.546   2.458   5.824 -0.1286 -0.0612  0.3276
   64MOL0     C 8361   6.449   2.297   5.988 -0.2776  0.7488  0.0626
   64MOL0     C 8362   6.308   2.306   6.007 -0.4334 -0.4006  0.2347
   64MOL0     O 8363   6.068   2.401   6.339  0.0504  0.0367  0.1695
   64MOL0     C 8364   5.793   2.437   6.309 -0.9822  0.5955 -0.0693
   64MOL0     C 8365   5.659   2.459   6.283  0.2265  0.3204 -0.7674
   64MOL0     N 8366   4.837   2.555   5.953  0.0200 -0.3029 -0.4191
   64MOL0     N 8367   4.763   2.507   5.862  0.2795  0.3627  0.2873
   64MOL0     C 8368   5.356   1.641   5.870 -0.1661  0.1984 -0.5527
   64MOL0     C 8369   5.478   1.582   5.854 -0.6611 -0.3972  0.0139
   64MOL0     C 8370   5.821   1.407   5.716 -0.2465  0.5124  0.6775
   64MOL0     C 8371   5.865   1.302   5.807  0.1288  0.3105 -0.2497
   64MOL0     C 8372   6.003   1.280   5.820 -0.9344 -0.3435  0.1415
   64MOL0     C 8373   6.107   1.356   5.757 -0.2125 -0.0128 -0.0999
   64MOL0     O 8374   6.241   1.343   5.781 -0.7514  0.2788  0.6108
   64MOL0     C 8375   6.292   1.213   5.814  0.5741  0.4137 -0.3716
   64MOL0     C 8376   6.443   1.219   5.799  0.0150  1.2618 -0.3550
   64MOL0     C 8377   6.481   1.254   5.648 -0.7814  0.1999 -0.9021
   64MOL0     C 8378   6.629   1.279   5.614  0.0063 -0.5936  0.3569
   64MOL0     C 8379   6.719   1.175   5.668 -0.0799  0.4000 -0.1314
   64MOL0     C 8380   6.798   1.093   5.709  1.1704  0.3423 -0.0126
   64MOL0     C 8381   6.061   1.459   5.673 -0.2672  0.2255 -0.2666
   64MOL0     C 8382   5.928   1.477   5.652 -0.3690 -0.2158 -0.2479
   64MOL0     H 8383   5.372   1.294   5.720  1.1215  1.0310 -2.8586
   64MOL0     H 8384   5.135   1.400   5.753 -0.1167  0.8651  1.0755
   64MOL0     H 8385   4.972   1.515   5.815  1.6231 -0.5883  0.3056
   64MOL0     H 8386   5.022   1.580   5.664 -0.0503 -1.0510  0.2841
   64MOL0     H 8387   4.835   1.722   5.858  1.0880  0.0660  0.5638
   64MOL0     H 8388   4.814   1.641   5.700  0.7053  1.2620 -1.4346
   64MOL0     H 8389   4.935   1.805   5.591 -0.6473 -2.9151  0.7872
   64MOL0     H 8390   5.016   1.870   5.730  0.3794 -0.5340 -0.3414
   64MOL0     H 8391   4.720   1.897   5.661  1.1718 -0.7468 -1.8287
   64MOL0     H 8392   4.800   1.982   5.802  0.1859 -1.0046  0.4554
   64MOL0     H 8393   4.835   2.036   5.507 -1.3516 -0.9392 -0.0517
   64MOL0     H 8394   4.958   2.075   5.624  0.0671  0.4408  0.1271
   64MOL0     H 8395   4.792   2.193   5.758 -0.4797 -0.9005  0.2551
   64MOL0     H 8396   4.664   2.172   5.631 -0.1446 -0.6764  1.5282
   64MOL0     H 8397   4.936   2.326   5.609  0.4569 -1.4808 -2.9806
   64MOL0     H 8398   4.826   2.306   5.480  1.9403  0.9282  0.5785
   64MOL0     H 8399   4.658   2.448   5.637 -0.1901  3.0261  1.2835
   64MOL0     H 8400   4.791   2.517   5.540  1.0284  0.6587  0.0126
   64MOL0     H 8401   5.036   2.575   5.690  1.3889 -2.9863  0.8623
   64MOL0     H 8402   5.052   2.705   6.062 -2.4321  0.5335 -0.7296
   64MOL0     H 8403   5.087   2.766   5.908 -1.1823 -0.7467  0.8641
   64MOL0     H 8404   5.240   2.564   5.871 -0.7478  2.3555  0.0246
   64MOL0     H 8405   5.197   2.502   6.024 -1.8417 -1.5379 -2.2273
   64MOL0     H 8406   5.331   2.777   5.985 -1.9196  0.0235  0.1435
   64MOL0     H 8407   5.294   2.703   6.145  0.8677  0.0762 -0.4722
   64MOL0     H 8408   5.531   2.695   6.027  1.7704 -1.1445 -4.4971
   64MOL0     H 8409   5.468   2.560   5.932 -1.5803  0.5185 -0.6297
   64MOL0     H 8410   5.685   2.512   5.950  0.9225  0.2772 -0.6370
   64MOL0     H 8411   5.920   2.439   5.997  0.0696 -4.9669  1.0609
   64MOL0     H 8412   6.301   2.486   6.293 -1.3067 -1.4136  0.1898
   64MOL0     H 8413   6.527   2.468   6.272 -2.2689  0.9876  1.1246
   64MOL0     H 8414   6.693   2.491   5.949 -2.3270 -0.4729 -0.0587
   64MOL0     H 8415   6.692   2.323   5.886 -0.6948 -1.1631  0.5650
   64MOL0     H 8416   6.911   2.439   6.055 -1.0590 -0.5764  1.1944
   64MOL0     H 8417   6.912   2.440   5.882  0.6235  0.5167  0.4541
   64MOL0     H 8418   6.896   2.198   5.864 -1.4826 -1.4457  0.4227
   64MOL0     H 8419   6.875   2.179   6.042 -1.3447  0.1494 -1.3288
   64MOL0     H 8420   7.115   2.306   6.046  1.9014 -0.0007  0.3469
   64MOL0     H 8421   7.122   2.138   6.013  0.6428  1.6739  2.1069
   64MOL0     H 8422   7.121   2.354   5.798 -0.3272 -0.6791  0.2164
   64MOL0     H 8423   7.100   2.182   5.768 -0.9069 -0.6180  1.3012
   64MOL0     H 8424   7.337   2.289   5.731  0.2923 -0.3628  0.5751
   64MOL0     H 8425   7.323   2.143   5.832  0.3544  0.0950  0.1325
   64MOL0     H 8426   7.319   2.438   5.940 -0.6155 -0.3456  0.2271
   64MOL0     H 8427   7.321   2.296   6.041  1.7479 -0.2601  0.2386
   64MOL0     H 8428   7.553   2.248   5.941  0.0322  1.0064 -1.7324
   64MOL0     H 8429   7.544   2.386   6.056  0.5906  0.6449  0.4792
   64MOL0     H 8430   6.496   2.262   5.897 -1.1385 -0.1546 -0.0486
   64MOL0     H 8431   6.238   2.263   5.937  0.8970 -0.3661 -1.1799
   64MOL0     H 8432   5.829   2.419   6.410  2.8911  0.8321 -1.2112
   64MOL0     H 8433   5.583   2.481   6.357  0.4721  2.6078 -1.1054
   64MOL0     H 8434   5.350   1.729   5.933 -0.6153 -2.2928  3.2189
   64MOL0     H 8435   5.560   1.649   5.880 -2.1338  2.5615 -2.3304
   64MOL0     H 8436   5.801   1.239   5.868 -1.0420  1.5482 -0.1274
   64MOL0     H 8437   6.030   1.194   5.881  1.7714  0.3759  0.0720
   64MOL0     H 8438   6.246   1.140   5.748  0.6908 -2.1669  2.2051
   64MOL0     H 8439   6.265   1.189   5.918 -4.3157 -0.5766 -1.6352
   64MOL0     H 8440   6.479   1.290   5.873  1.7075 -0.8069  0.9237
   64MOL0     H 8441   6.484   1.121   5.827 -2.7579  0.4821  1.3831
   64MOL0     H 8442   6.419   1.340   5.618 -0.1541 -0.0078 -2.9402
   64MOL0     H 8443   6.442   1.172   5.586 -4.8958  0.6050  0.8148
   64MOL0     H 8444   6.646   1.287   5.506 -0.1284  2.0549  0.4613
   64MOL0     H 8445   6.664   1.375   5.654  0.7353 -0.4674 -0.5486
   64MOL0     H 8446   6.871   1.037   5.764  2.7358  1.5441 -0.7821
   64MOL0     H 8447   6.134   1.522   5.624 -1.0521  0.9360 -0.5305
   64MOL0     H 8448   5.896   1.559   5.588 -1.5348 -1.4160 -1.2883
   65MOL0     O 8449   4.011   2.846   3.837 -0.0823 -0.7767  0.1967
   65MOL0     C 8450   4.048   2.738   3.870 -1.2593  0.2919  0.0209
   65MOL0     O 8451   3.972   2.633   3.885 -0.3176 -0.2273 -0.2937
   65MOL0     C 8452   3.852   2.636   3.824  0.7219 -0.4061 -0.1084
   65MOL0     C 8453   3.843   2.615   3.681 -0.2165  0.3584  0.3531
   65MOL0     C 8454   3.719   2.634   3.617  0.4369  0.1147  0.0479
   65MOL0     C 8455   3.606   2.672   3.686  0.3684 -0.6915 -0.9370
   65MOL0     O 8456   3.493   2.701   3.616 -0.0385 -0.0994  0.1148
   65MOL0     C 8457   3.374   2.745   3.684 -0.8305 -0.3169  0.1712
   65MOL0     C 8458   3.267   2.785   3.582  0.2104 -0.6703  0.0659
   65MOL0     C 8459   3.271   2.929   3.533  0.8422  0.0706 -0.1249
   65MOL0     C 8460   3.401   2.962   3.466 -0.4789  0.2203 -0.1858
   65MOL0     C 8461   3.397   3.114   3.424 -0.4922  0.9357 -0.0414
   65MOL0     C 8462   3.511   3.144   3.329  1.0966  0.1169  0.0358
   65MOL0     C 8463   3.517   3.298   3.312  0.0053 -0.4603  0.0419
   65MOL0     C 8464   3.557   3.339   3.171 -0.1234 -0.7259 -1.1881
   65MOL0     N 8465   3.451   3.342   3.077  0.4922  0.3106  0.7992
   65MOL0     C 8466   3.396   3.227   3.012  0.2287 -0.0400 -0.0205
   65MOL0     C 8467   3.309   3.277   2.920 -0.6656  0.7380 -0.3446
   65MOL0     C 8468   3.237   3.203   2.817  0.2996  0.0946 -0.2338
   65MOL0     C 8469   3.125   3.116   2.880 -0.5660 -0.1284  0.0415
   65MOL0     C 8470   3.063   3.017   2.777  0.2990 -0.8787  1.2404
   65MOL0     C 8471   2.959   2.927   2.842 -0.6084 -0.3517 -0.3809
   65MOL0     O 8472   2.875   3.002   2.940 -0.3631 -0.1006 -0.2279
   65MOL0     C 8473   2.754   2.953   2.975  0.1210  1.3640 -0.1377
   65MOL0     C 8474   2.678   3.022   3.061 -0.2836  0.9399 -0.5195
   65MOL0     C 8475   2.548   2.982   3.098 -0.5472 -0.7392 -0.5054
   65MOL0     C 8476   2.502   2.855   3.061  0.4065 -0.9585  0.4260
   65MOL0     C 8477   2.362   2.813   3.086 -0.4310  0.9564 -0.3311
   65MOL0     O 8478   2.291   2.884   3.183 -0.1479  0.4162 -0.0738
   65MOL0     C 8479   2.168   2.842   3.205  0.2112 -0.6329 -0.1222
   65MOL0     C 8480   2.114   2.705   3.209 -0.3204  0.1117 -0.0820
   65MOL0     C 8481   1.991   2.682   3.265 -0.3589 -0.0022  0.1104
   65MOL0     C 8482   1.912   2.784   3.309 -0.6100 -0.0159  0.2694
   65MOL0     O 8483   1.791   2.747   3.346  0.4395  0.3279 -0.6016
   65MOL0     C 8484   1.677   2.831   3.354 -0.4352 -0.3947  0.2710
   65MOL0     C 8485   1.558   2.741   3.366  0.0102  0.4246 -0.2380
   65MOL0     C 8486   1.433   2.814   3.319  0.3945 -0.2729  0.3335
   65MOL0     C 8487   1.302   2.733   3.331  0.3541 -0.5775 -0.2763
   65MOL0     C 8488   1.186   2.797   3.246  0.6815  0.3462  0.3357
   65MOL0     C 8489   1.072   2.699   3.221 -0.6581  0.3559 -0.0380
   65MOL0     C 8490   0.964   2.715   3.343 -0.5889 -0.4269 -0.8062
   65MOL0     C 8491   0.828   2.656   3.311  0.2918  0.4597 -0.1757
   65MOL0    Cl 8492   0.721   2.667   3.450 -0.3398 -0.3458 -0.2489
   65MOL0     C 8493   1.955   2.914   3.295  0.3507  0.5870 -0.1281
   65MOL0     C 8494   2.080   2.940   3.240 -0.6448  0.2071  0.2362
   65MOL0     O 8495   2.319   2.719   3.018  0.2190 -0.1152  0.4537
   65MOL0     C 8496   2.578   2.777   2.971  0.5913  0.7056 -0.1422
   65MOL0     C 8497   2.705   2.822   2.930  0.3320  0.1002  0.0315
   65MOL0     N 8498   3.303   3.416   2.938 -0.2209  0.3505 -0.9400
   65MOL0     N 8499   3.381   3.451   3.029  0.0651 -0.1992 -0.1915
   65MOL0     C 8500   3.619   2.687   3.827  0.4918  0.0276 -0.1672
   65MOL0     C 8501   3.737   2.662   3.893  0.0286  0.7441  0.0149
   65MOL0     C 8502   4.189   2.720   3.908  0.1947  0.3955 -0.4170
   65MOL0     C 8503   4.274   2.830   3.930  0.0587  0.3322 -0.5463
   65MOL0     C 8504   4.408   2.800   3.954 -0.0994  1.1434  0.7649
   65MOL0     C 8505   4.465   2.669   3.964  0.6916 -0.2927  0.0516
   65MOL0     O 8506   4.602   2.665   3.975  1.2019 -0.0590  0.3576
   65MOL0     C 8507   4.656   2.537   3.987 -0.1893 -0.2161 -0.4450
   65MOL0     C 8508   4.794   2.533   4.058 -0.1323  0.3549 -0.8186
   65MOL0     C 8509   4.874   2.405   4.018 -0.3569  0.2508  0.1713
   65MOL0     C 8510   5.024   2.443   3.967  0.8850 -0.5451 -0.2496
   65MOL0     C 8511   5.107   2.329   3.918  0.4570 -0.0141 -0.6086
   65MOL0     C 8512   5.161   2.226   3.870 -0.2890 -0.4255  0.1587
   65MOL0     C 8513   4.376   2.563   3.952  0.1504  0.2746  0.0997
   65MOL0     C 8514   4.245   2.583   3.917  0.1966 -0.8466 -0.8356
   65MOL0     H 8515   3.935   2.599   3.626 -0.1482 -0.0251  0.5779
   65MOL0     H 8516   3.717   2.625   3.509  1.0915  1.2079 -0.0730
   65MOL0     H 8517   3.388   2.832   3.750 -1.7734  0.5925 -0.7721
   65MOL0     H 8518   3.337   2.665   3.748  0.5794 -1.2052 -0.1077
   65MOL0     H 8519   3.167   2.778   3.626 -0.7669 -0.4478 -2.0028
   65MOL0     H 8520   3.266   2.725   3.491 -1.1527  0.3732 -0.6426
   65MOL0     H 8521   3.251   2.994   3.618 -0.9091  0.0414 -0.4806
   65MOL0     H 8522   3.191   2.940   3.458  1.4935 -1.9227 -1.1957
   65MOL0     H 8523   3.488   2.951   3.531 -0.8472  1.4584  0.5375
   65MOL0     H 8524   3.411   2.906   3.372 -1.0194  0.3489 -0.3211
   65MOL0     H 8525   3.413   3.168   3.518  1.1668 -3.5049  2.5004
   65MOL0     H 8526   3.303   3.153   3.383 -0.6117  0.8772  0.1739
   65MOL0     H 8527   3.491   3.090   3.236 -1.5842  1.0410 -0.0201
   65MOL0     H 8528   3.607   3.114   3.372  0.6794  0.0849  0.9768
   65MOL0     H 8529   3.422   3.349   3.329  0.9986  1.4950 -0.0544
   65MOL0     H 8530   3.589   3.335   3.385  0.3098  0.1365 -0.5599
   65MOL0     H 8531   3.652   3.294   3.144 -0.1982 -0.9111 -1.1422
   65MOL0     H 8532   3.573   3.447   3.186 -2.4837 -0.5823  1.1075
   65MOL0     H 8533   3.441   3.129   3.003  0.2210 -0.2019  1.5870
   65MOL0     H 8534   3.317   3.154   2.761  2.6791  0.5260  2.5492
   65MOL0     H 8535   3.182   3.271   2.751 -0.4746  0.7856  1.0851
   65MOL0     H 8536   3.059   3.193   2.922  0.9019 -0.6411  3.7468
   65MOL0     H 8537   3.162   3.073   2.974  1.9138  0.7099 -0.4716
   65MOL0     H 8538   3.011   3.071   2.697  1.3725  1.1552  1.8556
   65MOL0     H 8539   3.133   2.956   2.720 -2.1074 -2.5021 -0.1832
   65MOL0     H 8540   3.009   2.847   2.898 -1.7201 -0.4366  0.5189
   65MOL0     H 8541   2.902   2.885   2.759  0.9217  0.3875 -1.8498
   65MOL0     H 8542   2.709   3.124   3.083 -4.3751  2.8200 -2.3986
   65MOL0     H 8543   2.490   3.055   3.154  0.0272  0.9541 -2.0383
   65MOL0     H 8544   2.175   2.623   3.173 -0.3880 -0.0051  0.0708
   65MOL0     H 8545   1.972   2.575   3.270  0.0247 -0.0200  1.8996
   65MOL0     H 8546   1.675   2.891   3.262  1.5610 -1.3835 -0.4676
   65MOL0     H 8547   1.686   2.897   3.440 -0.8725 -1.0142  0.8061
   65MOL0     H 8548   1.551   2.711   3.471  2.2308  0.9413  0.0998
   65MOL0     H 8549   1.576   2.649   3.310  0.1398 -0.2258  0.8369
   65MOL0     H 8550   1.457   2.838   3.215 -0.4558  0.4901  0.2946
   65MOL0     H 8551   1.424   2.909   3.374  1.0842 -0.1639  0.2611
   65MOL0     H 8552   1.331   2.635   3.291  1.0929  0.2094 -1.7757
   65MOL0     H 8553   1.265   2.721   3.433  0.0745 -0.6171 -0.3795
   65MOL0     H 8554   1.235   2.814   3.149 -0.1329  0.4214 -0.0650
   65MOL0     H 8555   1.146   2.892   3.285  0.3450 -0.1524  1.2298
   65MOL0     H 8556   1.103   2.594   3.212 -2.3662  0.0097 -3.7957
   65MOL0     H 8557   1.020   2.716   3.126 -1.1464 -1.6931 -0.1925
   65MOL0     H 8558   1.002   2.659   3.429 -1.5021  0.8338  0.4645
   65MOL0     H 8559   0.952   2.822   3.363 -0.7051  0.0631 -3.2736
   65MOL0     H 8560   0.843   2.551   3.284 -0.0468  0.8546 -2.0664
   65MOL0     H 8561   0.776   2.703   3.227 -2.1658 -3.0459 -0.8160
   65MOL0     H 8562   1.902   2.999   3.334  0.7481 -0.5457  3.1625
   65MOL0     H 8563   2.118   3.041   3.244 -0.6156  0.2135 -0.1649
   65MOL0     H 8564   2.542   2.691   2.917 -0.7361  0.3698  1.2228
   65MOL0     H 8565   2.760   2.757   2.863 -1.4157 -1.3032 -0.1093
   65MOL0     H 8566   3.536   2.726   3.885 -2.2558 -2.7403 -1.9933
   65MOL0     H 8567   3.743   2.658   4.002 -0.8441  1.9187  0.1191
   65MOL0     H 8568   4.249   2.935   3.914  2.1537  0.8525 -0.5957
   65MOL0     H 8569   4.485   2.872   3.984  0.5366 -0.0928  2.2748
   65MOL0     H 8570   4.659   2.486   3.890 -0.7155 -2.7152  0.7754
   65MOL0     H 8571   4.590   2.476   4.049 -0.3237  0.7634  0.3997
   65MOL0     H 8572   4.851   2.623   4.034 -1.0432  0.7383 -1.6321
   65MOL0     H 8573   4.776   2.527   4.165 -1.2704 -1.7590 -1.0704
   65MOL0     H 8574   4.827   2.340   3.943 -0.5666  2.1091 -1.3660
   65MOL0     H 8575   4.884   2.350   4.113  0.7207  2.4412  1.4022
   65MOL0     H 8576   5.022   2.513   3.883  1.4337 -1.6099 -1.1783
   65MOL0     H 8577   5.073   2.498   4.048  1.1257  1.8289 -1.9027
   65MOL0     H 8578   5.210   2.144   3.822 -1.4052 -0.6394 -0.6462
   65MOL0     H 8579   4.417   2.463   3.957 -0.4778 -0.0182 -0.3521
   65MOL0     H 8580   4.175   2.501   3.906 -1.2818 -0.3571  3.2898
   66MOL0     O 8581   1.725   8.490   3.776  0.5753 -0.7076  0.2965
   66MOL0     C 8582   1.720   8.457   3.659 -0.1320 -0.3259  0.5006
   66MOL0     O 8583   1.602   8.459   3.588  0.3644  0.2241 -0.0004
   66MOL0     C 8584   1.477   8.479   3.639  0.6246 -0.9590 -0.8190
   66MOL0     C 8585   1.373   8.453   3.550  0.5370  0.5768 -0.2522
   66MOL0     C 8586   1.242   8.485   3.579 -0.4155  1.0592 -0.7328
   66MOL0     C 8587   1.208   8.554   3.694  0.0181  0.0646  0.2016
   66MOL0     O 8588   1.087   8.604   3.717  0.6989 -0.2273  0.5817
   66MOL0     C 8589   1.008   8.513   3.784  1.3008  0.6848 -0.3391
   66MOL0     C 8590   0.869   8.566   3.797 -0.0688 -0.3807 -0.2148
   66MOL0     C 8591   0.807   8.592   3.659 -0.2222 -0.1243  0.6529
   66MOL0     C 8592   0.751   8.457   3.610 -0.3506 -0.0292  0.0935
   66MOL0     C 8593   0.693   8.460   3.465 -0.3710 -0.4348  0.0251
   66MOL0     C 8594   0.805   8.444   3.359 -0.3634  1.0181  0.4103
   66MOL0     C 8595   0.749   8.431   3.220  0.3326 -0.4384  0.4110
   66MOL0     C 8596   0.848   8.379   3.110 -0.0763 -0.3379 -0.3827
   66MOL0     N 8597   0.968   8.467   3.097 -0.4350  0.0479  0.0351
   66MOL0     C 8598   0.981   8.561   2.994 -0.7098 -0.0457  0.5314
   66MOL0     C 8599   1.086   8.630   3.026 -0.7235  0.2650  0.0215
   66MOL0     C 8600   1.148   8.721   2.927 -0.1211 -0.5807 -0.6143
   66MOL0     C 8601   1.257   8.671   2.834 -0.0571  0.1623 -0.5374
   66MOL0     C 8602   1.397   8.687   2.896 -0.1400  0.3116  0.7685
   66MOL0     C 8603   1.514   8.662   2.798  0.2526 -0.0204  0.5463
   66MOL0     O 8604   1.506   8.529   2.746 -0.5272 -0.7562  0.9098
   66MOL0     C 8605   1.617   8.498   2.671  0.5233 -0.2739  0.4831
   66MOL0     C 8606   1.684   8.378   2.698  0.3831  0.0205 -0.0525
   66MOL0     C 8607   1.805   8.361   2.627 -0.0030  0.7981 -1.3945
   66MOL0     C 8608   1.863   8.455   2.532  0.7375  0.0836 -0.1616
   66MOL0     C 8609   1.998   8.437   2.483  0.8214  0.2483  0.2054
   66MOL0     O 8610   2.041   8.552   2.412  0.0533  0.5028  0.2237
   66MOL0     C 8611   2.137   8.544   2.316  0.0502  0.0285 -0.2747
   66MOL0     C 8612   2.241   8.452   2.322 -0.6489  0.9322  0.1468
   66MOL0     C 8613   2.334   8.437   2.217 -0.2261  0.2180  0.5737
   66MOL0     C 8614   2.325   8.510   2.099  0.0115  0.1977  0.0172
   66MOL0     O 8615   2.403   8.493   1.990 -0.2497 -0.4480  0.3827
   66MOL0     C 8616   2.543   8.505   2.004 -0.0376 -0.7770  0.4491
   66MOL0     C 8617   2.607   8.545   1.872 -0.0184  0.3939  0.2391
   66MOL0     C 8618   2.579   8.687   1.815  0.0852 -0.3939  0.0097
   66MOL0     C 8619   2.686   8.729   1.712  0.5817  0.2286 -0.5640
   66MOL0     C 8620   2.663   8.854   1.643 -0.7160 -0.0440 -0.4113
   66MOL0     C 8621   2.785   8.909   1.563 -0.2132  0.2554  0.4214
   66MOL0     C 8622   2.886   8.987   1.645  0.4474 -0.2284  0.4309
   66MOL0     C 8623   2.987   9.057   1.549  0.0351 -0.3541  0.5754
   66MOL0    Cl 8624   3.040   8.952   1.419 -0.0751  0.1965 -0.2647
   66MOL0     C 8625   2.227   8.612   2.096  0.7871  0.5266  0.0893
   66MOL0     C 8626   2.134   8.624   2.209 -0.6779 -0.2511 -0.3565
   66MOL0     O 8627   2.044   8.323   2.476 -0.0329  0.0522 -0.8263
   66MOL0     C 8628   1.787   8.570   2.503  1.2549  0.9381  0.2144
   66MOL0     C 8629   1.665   8.587   2.571  0.9476 -0.0548 -0.2207
   66MOL0     N 8630   1.139   8.587   3.147 -0.9020 -0.3059 -0.3362
   66MOL0     N 8631   1.065   8.489   3.194  0.2921 -0.9884  0.2761
   66MOL0     C 8632   1.315   8.583   3.786  0.6250  0.1992 -0.1556
   66MOL0     C 8633   1.447   8.549   3.756 -0.1571 -0.2215 -0.8511
   66MOL0     C 8634   1.842   8.417   3.584  0.3567 -0.2449 -1.1720
   66MOL0     C 8635   1.973   8.425   3.637  0.8166 -0.2416  0.6304
   66MOL0     C 8636   2.084   8.385   3.569 -0.6835 -0.1075  0.3729
   66MOL0     C 8637   2.081   8.340   3.446 -1.2646  0.2037  0.3510
   66MOL0     O 8638   2.206   8.315   3.382 -0.6165  0.8584  0.3883
   66MOL0     C 8639   2.223   8.307   3.242  0.1920  0.4320 -0.5426
   66MOL0     C 8640   2.185   8.432   3.167  0.6456  0.3790 -0.5486
   66MOL0     C 8641   2.294   8.553   3.194 -0.4028 -0.0467 -0.2597
   66MOL0     C 8642   2.420   8.542   3.116  0.0012  0.2545 -0.4002
   66MOL0     C 8643   2.489   8.672   3.128  0.7190 -0.8821 -0.0999
   66MOL0     C 8644   2.550   8.770   3.147 -0.1478 -0.4199 -0.0270
   66MOL0     C 8645   1.955   8.332   3.391  0.0093  0.1224  0.0786
   66MOL0     C 8646   1.833   8.356   3.451 -0.1504 -0.3691  0.4180
   66MOL0     H 8647   1.404   8.412   3.454  1.5879  1.4525 -0.3115
   66MOL0     H 8648   1.166   8.452   3.509  0.2507 -0.2099 -0.8913
   66MOL0     H 8649   1.045   8.497   3.885 -0.6630 -0.5656  0.2510
   66MOL0     H 8650   1.000   8.414   3.738 -0.0322 -0.4303  2.0890
   66MOL0     H 8651   0.861   8.648   3.868 -3.7363 -0.9136  0.1776
   66MOL0     H 8652   0.813   8.489   3.850 -1.7227  1.4295  0.7919
   66MOL0     H 8653   0.883   8.631   3.591 -1.0769  0.0701 -0.2045
   66MOL0     H 8654   0.717   8.652   3.673 -1.4529 -1.8240  0.4082
   66MOL0     H 8655   0.826   8.377   3.618 -1.0082 -0.5975  0.7348
   66MOL0     H 8656   0.669   8.426   3.675  1.6162 -2.7495  1.4933
   66MOL0     H 8657   0.638   8.549   3.433  3.0713  2.1577  0.6804
   66MOL0     H 8658   0.628   8.373   3.456 -0.4282 -0.3006 -0.9537
   66MOL0     H 8659   0.868   8.360   3.388  0.9515  0.4866 -3.4020
   66MOL0     H 8660   0.865   8.535   3.358  0.5907  0.4309 -2.0754
   66MOL0     H 8661   0.657   8.373   3.222  0.1286 -0.1189  0.5296
   66MOL0     H 8662   0.714   8.532   3.197 -0.7408 -0.7339  0.7137
   66MOL0     H 8663   0.797   8.360   3.015  1.6029  0.2249 -1.4383
   66MOL0     H 8664   0.885   8.279   3.136 -1.0544 -1.3279 -2.5138
   66MOL0     H 8665   0.922   8.573   2.904 -1.9032  0.1697  1.3109
   66MOL0     H 8666   1.190   8.804   2.983  3.5151 -1.8904 -1.1308
   66MOL0     H 8667   1.063   8.768   2.876  0.4415  1.3757  0.1669
   66MOL0     H 8668   1.247   8.734   2.745  0.3142  0.8799 -0.0896
   66MOL0     H 8669   1.247   8.565   2.813 -0.3491 -0.6708  3.1288
   66MOL0     H 8670   1.417   8.787   2.936  2.0378  1.3135 -2.3768
   66MOL0     H 8671   1.411   8.616   2.978  2.4516  0.7276  0.7711
   66MOL0     H 8672   1.607   8.680   2.853  0.2224 -1.2525  1.0441
   66MOL0     H 8673   1.500   8.728   2.712 -0.5410 -1.0325 -0.1241
   66MOL0     H 8674   1.640   8.299   2.757 -0.6945 -0.7072 -1.7577
   66MOL0     H 8675   1.845   8.260   2.628  0.8452  1.1213 -0.2067
   66MOL0     H 8676   2.269   8.381   2.399 -1.3235 -0.6470 -1.0134
   66MOL0     H 8677   2.411   8.360   2.223 -0.6662 -0.2153  0.6759
   66MOL0     H 8678   2.589   8.413   2.040 -1.6669 -1.5904  0.5149
   66MOL0     H 8679   2.566   8.586   2.074 -1.6955  1.9617 -1.9506
   66MOL0     H 8680   2.589   8.465   1.799  1.3039 -3.3444  3.5958
   66MOL0     H 8681   2.712   8.542   1.903 -0.3048  1.6366  1.4173
   66MOL0     H 8682   2.568   8.761   1.895 -4.2640  0.2948 -0.9868
   66MOL0     H 8683   2.481   8.680   1.766 -0.3960  3.5678  0.0850
   66MOL0     H 8684   2.778   8.744   1.770 -1.0892 -2.4609  3.2704
   66MOL0     H 8685   2.695   8.643   1.646 -1.1121 -0.3816 -0.0358
   66MOL0     H 8686   2.625   8.926   1.716 -1.9457 -0.6701 -0.4135
   66MOL0     H 8687   2.578   8.837   1.577 -1.6226  2.5711 -0.0321
   66MOL0     H 8688   2.737   8.978   1.494 -1.0397 -0.3144  0.4152
   66MOL0     H 8689   2.840   8.836   1.503  0.0448  1.5064 -0.9132
   66MOL0     H 8690   2.830   9.063   1.700  2.5023  2.3106 -0.7314
   66MOL0     H 8691   2.942   8.932   1.721  3.3258 -0.5660 -1.7799
   66MOL0     H 8692   3.071   9.104   1.602  0.4404 -3.0367  2.5567
   66MOL0     H 8693   2.941   9.138   1.492 -0.7529 -0.7193  0.6719
   66MOL0     H 8694   2.214   8.662   2.001 -0.2915 -3.2544 -1.9529
   66MOL0     H 8695   2.049   8.690   2.196  0.4350  0.7973 -3.1978
   66MOL0     H 8696   1.818   8.651   2.438  4.3035 -0.8649 -0.7771
   66MOL0     H 8697   1.605   8.674   2.547  0.2284  0.7502  3.7225
   66MOL0     H 8698   1.299   8.640   3.877 -0.4772  0.3855 -0.4512
   66MOL0     H 8699   1.519   8.590   3.826 -0.3466  2.0172 -1.8859
   66MOL0     H 8700   1.972   8.460   3.740 -0.9707 -0.0136  0.5755
   66MOL0     H 8701   2.177   8.406   3.622 -0.4857 -1.5730  0.6328
   66MOL0     H 8702   2.154   8.231   3.203 -0.8744  1.5400 -0.8863
   66MOL0     H 8703   2.326   8.275   3.227  0.5707  1.5432 -0.4103
   66MOL0     H 8704   2.187   8.410   3.060  1.5524 -1.6135 -0.1747
   66MOL0     H 8705   2.082   8.458   3.193  0.5269  0.2561 -0.8822
   66MOL0     H 8706   2.330   8.553   3.297 -0.3330  1.2883 -0.2659
   66MOL0     H 8707   2.244   8.646   3.165  1.2857  0.8156 -0.5002
   66MOL0     H 8708   2.486   8.466   3.159 -2.1319 -0.5404  1.7018
   66MOL0     H 8709   2.402   8.521   3.010  0.7524 -0.6610 -0.3562
   66MOL0     H 8710   2.606   8.860   3.161  0.7286 -0.8327 -0.8155
   66MOL0     H 8711   1.960   8.302   3.286 -2.1152  1.2172 -0.3905
   66MOL0     H 8712   1.737   8.337   3.403 -0.7980 -0.9477  1.8647
   67MOL0     O 8713   3.063   7.688   5.937  0.1215  0.2603 -0.0871
   67MOL0     C 8714   3.117   7.783   6.000  0.6157  0.7392 -0.5278
   67MOL0     O 8715   3.050   7.878   6.075  0.0104 -0.9535  0.1862
   67MOL0     C 8716   2.915   7.891   6.061  0.0453 -0.3351 -0.2869
   67MOL0     C 8717   2.819   7.789   6.092  0.7060 -0.4189 -0.0227
   67MOL0     C 8718   2.688   7.816   6.068  0.0907 -0.4648 -1.1224
   67MOL0     C 8719   2.645   7.940   6.030  0.4512  0.3252  0.8515
   67MOL0     O 8720   2.513   7.945   6.008  0.0773 -0.6180 -0.0680
   67MOL0     C 8721   2.472   8.058   5.935  0.5472  0.1779  0.2408
   67MOL0     C 8722   2.328   8.074   5.910 -0.3004 -0.2209  0.0137
   67MOL0     C 8723   2.303   8.145   5.781  0.5181 -0.1555  0.2104
   67MOL0     C 8724   2.152   8.177   5.771  0.2356 -0.2231 -0.0715
   67MOL0     C 8725   2.117   8.225   5.634  0.5034  0.3507  0.2263
   67MOL0     C 8726   1.965   8.266   5.623  0.0729  0.1070  0.2970
   67MOL0     C 8727   1.931   8.399   5.696 -0.1170 -0.2461  1.0713
   67MOL0     C 8728   1.781   8.426   5.691 -0.2402  0.5302 -0.2935
   67MOL0     N 8729   1.740   8.545   5.764  0.1554  0.1484  0.1534
   67MOL0     C 8730   1.801   8.607   5.870 -0.9960  0.7685  0.0199
   67MOL0     C 8731   1.715   8.694   5.921  0.0406 -0.0680 -0.7921
   67MOL0     C 8732   1.729   8.788   6.038  0.1758  0.0072 -0.1871
   67MOL0     C 8733   1.663   8.931   6.022  0.8581  0.1228  0.2203
   67MOL0     C 8734   1.663   9.020   6.147  0.6953 -0.0647  0.4210
   67MOL0     C 8735   1.559   8.984   6.252  0.1386  0.5838 -0.3643
   67MOL0     O 8736   1.528   9.108   6.317 -0.8986  0.2482  0.3598
   67MOL0     C 8737   1.415   9.112   6.388  0.6062 -0.2553 -0.6841
   67MOL0     C 8738   1.333   9.235   6.392 -0.1531  0.1729  0.0647
   67MOL0     C 8739   1.207   9.236   6.453 -0.1308  0.2922  0.2908
   67MOL0     C 8740   1.163   9.124   6.533 -0.1502  0.5342  0.2705
   67MOL0     C 8741   1.032   9.132   6.595 -0.2473 -0.3541 -0.8901
   67MOL0     O 8742   0.967   9.256   6.584  0.1771  0.2059 -0.2429
   67MOL0     C 8743   0.839   9.268   6.636 -0.2916 -0.3996 -0.9521
   67MOL0     C 8744   0.725   9.190   6.596  0.0842 -0.9844 -0.5952
   67MOL0     C 8745   0.596   9.211   6.658  0.6048 -0.3050 -0.0381
   67MOL0     C 8746   0.580   9.317   6.753 -0.4430 -0.7883  0.6652
   67MOL0     O 8747   0.469   9.355   6.825  0.3330  0.8810 -0.0573
   67MOL0     C 8748   0.343   9.346   6.766 -0.7904 -0.4136  0.1452
   67MOL0     C 8749   0.263   9.215   6.792  0.4948 -0.3122 -0.6526
   67MOL0     C 8750   0.142   9.263   6.880 -1.0826  0.2732  0.3524
   67MOL0     C 8751   0.064   9.144   6.932  0.3728 -0.1502  0.8315
   67MOL0     C 8752  -0.059   9.181   7.016 -0.7241 -0.0456  0.0411
   67MOL0     C 8753  -0.112   9.072   7.101  0.1078  0.3753 -0.0331
   67MOL0     C 8754  -0.226   9.113   7.192  0.4514 -0.4450  0.2742
   67MOL0     C 8755  -0.297   8.991   7.257  0.1251 -0.2538  0.6992
   67MOL0    Cl 8756  -0.173   8.909   7.363  0.0156 -0.1750 -0.1215
   67MOL0     C 8757   0.686   9.398   6.784 -0.1057 -0.1281  0.0801
   67MOL0     C 8758   0.815   9.372   6.729 -0.6798 -0.4817  0.0395
   67MOL0     O 8759   0.992   9.040   6.656  0.0032  0.7574  0.1567
   67MOL0     C 8760   1.258   9.017   6.547  0.0791  0.4730  0.3485
   67MOL0     C 8761   1.376   9.004   6.480 -0.5054 -0.8911 -0.2099
   67MOL0     N 8762   1.603   8.695   5.837 -0.1773 -0.7906 -0.6521
   67MOL0     N 8763   1.623   8.613   5.743 -0.0161 -0.4686 -0.3258
   67MOL0     C 8764   2.738   8.035   5.988 -0.7163 -0.2918  0.5259
   67MOL0     C 8765   2.874   8.009   6.001 -0.1245  0.2365 -0.3237
   67MOL0     C 8766   3.258   7.798   5.986 -0.5796  0.4653 -0.7762
   67MOL0     C 8767   3.337   7.881   6.074  0.5234 -0.2549  0.9473
   67MOL0     C 8768   3.469   7.895   6.071  0.4015 -0.4624 -0.1487
   67MOL0     C 8769   3.545   7.837   5.965  0.7582  0.2692  0.5236
   67MOL0     O 8770   3.682   7.852   5.949 -0.1154  0.2607  0.0107
   67MOL0     C 8771   3.750   7.939   6.040  0.4582 -0.5658 -0.3831
   67MOL0     C 8772   3.886   7.960   5.991  0.0502 -0.4313 -0.0238
   67MOL0     C 8773   3.900   8.023   5.852 -0.2670  0.1180 -0.3591
   67MOL0     C 8774   4.049   8.005   5.816  0.0143  0.2163  0.5343
   67MOL0     C 8775   4.074   8.067   5.685 -0.7127  0.2770  0.3043
   67MOL0     C 8776   4.084   8.095   5.564  0.2634 -0.1366 -0.3494
   67MOL0     C 8777   3.470   7.734   5.889  0.0969 -0.7974  0.5153
   67MOL0     C 8778   3.329   7.720   5.891  0.3130 -0.8156 -0.1317
   67MOL0     H 8779   2.850   7.690   6.124 -1.7272 -0.8690  1.1487
   67MOL0     H 8780   2.608   7.745   6.083 -1.5996  1.0992 -2.2050
   67MOL0     H 8781   2.508   8.045   5.833  0.0125  1.2479 -0.1052
   67MOL0     H 8782   2.508   8.154   5.974 -1.8854  1.8782 -1.3626
   67MOL0     H 8783   2.282   8.132   5.991 -1.9809 -0.4006 -0.7698
   67MOL0     H 8784   2.286   7.973   5.906  2.5976 -1.4988 -0.8377
   67MOL0     H 8785   2.342   8.090   5.695 -1.7903 -0.6296 -0.6052
   67MOL0     H 8786   2.354   8.241   5.779 -1.5003  0.9879  0.8431
   67MOL0     H 8787   2.108   8.079   5.791  0.6534 -0.0064  2.0907
   67MOL0     H 8788   2.123   8.245   5.852  0.8531 -1.1464  0.9474
   67MOL0     H 8789   2.143   8.150   5.559  3.1698  0.3229  1.0492
   67MOL0     H 8790   2.181   8.311   5.608 -2.2617  1.9525 -1.8515
   67MOL0     H 8791   1.898   8.187   5.656  1.7926 -1.4521  0.2025
   67MOL0     H 8792   1.945   8.270   5.516 -1.6156  1.0805  0.6108
   67MOL0     H 8793   1.969   8.384   5.798  0.9133 -0.3258  0.6917
   67MOL0     H 8794   1.981   8.487   5.653 -0.4230 -0.0175  1.1793
   67MOL0     H 8795   1.730   8.350   5.751 -0.3327  1.5536  0.9770
   67MOL0     H 8796   1.743   8.440   5.589 -0.4431  3.5888  0.1037
   67MOL0     H 8797   1.900   8.575   5.903 -1.3060 -0.4112 -0.1697
   67MOL0     H 8798   1.833   8.806   6.068 -0.5250  2.6700  0.9361
   67MOL0     H 8799   1.674   8.730   6.112  1.4233  0.3115  1.0188
   67MOL0     H 8800   1.567   8.928   5.968  2.2769 -0.9515 -2.4326
   67MOL0     H 8801   1.719   8.994   5.953  1.1268 -0.0820  0.2536
   67MOL0     H 8802   1.763   9.039   6.187  1.1960 -1.3545 -0.1540
   67MOL0     H 8803   1.621   9.107   6.096 -1.4416 -1.6547 -0.6971
   67MOL0     H 8804   1.603   8.914   6.323  0.5549  2.2108  1.0685
   67MOL0     H 8805   1.472   8.938   6.205 -0.0672  1.2248 -0.6158
   67MOL0     H 8806   1.371   9.323   6.342  1.4681 -0.7174 -0.3391
   67MOL0     H 8807   1.143   9.323   6.437 -0.4357 -0.0474 -0.3703
   67MOL0     H 8808   0.741   9.111   6.523  0.0266 -2.8587  1.3259
   67MOL0     H 8809   0.520   9.140   6.630  1.4731 -1.8979  1.4149
   67MOL0     H 8810   0.344   9.355   6.657 -0.2355 -0.8976  0.1059
   67MOL0     H 8811   0.288   9.436   6.798 -0.4623 -0.4931  0.9408
   67MOL0     H 8812   0.325   9.152   6.856  1.9030  1.1049 -0.5570
   67MOL0     H 8813   0.222   9.166   6.703 -1.5192  0.3430 -0.1348
   67MOL0     H 8814   0.080   9.323   6.813  0.4133 -1.0241 -2.3917
   67MOL0     H 8815   0.180   9.321   6.964 -0.3071  1.8816 -1.0618
   67MOL0     H 8816   0.021   9.090   6.847 -0.4753  1.2884  0.3070
   67MOL0     H 8817   0.137   9.085   6.988  0.3170 -1.1954 -0.1769
   67MOL0     H 8818  -0.144   9.217   6.957 -0.1004 -0.7138 -1.3253
   67MOL0     H 8819  -0.034   9.265   7.081  1.2767 -2.5434  2.7827
   67MOL0     H 8820  -0.025   9.050   7.164  0.2417  1.1062  0.0454
   67MOL0     H 8821  -0.138   8.980   7.048 -1.1759 -0.4802  1.9301
   67MOL0     H 8822  -0.184   9.172   7.274  1.4986  0.0713 -0.6123
   67MOL0     H 8823  -0.301   9.169   7.135 -0.2616 -2.1586 -0.5467
   67MOL0     H 8824  -0.336   8.918   7.186  1.2250 -0.0894 -0.1123
   67MOL0     H 8825  -0.381   9.026   7.317  0.9007 -0.1000  1.7241
   67MOL0     H 8826   0.672   9.478   6.856  2.5405  2.1469 -1.7186
   67MOL0     H 8827   0.899   9.439   6.746 -0.8240 -0.5630  1.1421
   67MOL0     H 8828   1.223   8.934   6.609 -1.1981 -1.9054 -3.2157
   67MOL0     H 8829   1.454   8.929   6.494  0.1764 -0.2296 -0.3847
   67MOL0     H 8830   2.716   8.135   5.951 -1.3855 -1.0347 -1.1750
   67MOL0     H 8831   2.942   8.085   5.963  2.2142 -2.6546 -2.4620
   67MOL0     H 8832   3.286   7.932   6.156  0.4891  2.5691 -0.6865
   67MOL0     H 8833   3.508   7.956   6.152 -3.1826 -0.7357  1.9885
   67MOL0     H 8834   3.751   7.906   6.144  4.4050  0.2498 -0.0004
   67MOL0     H 8835   3.697   8.035   6.043  0.2723 -0.6671 -0.3718
   67MOL0     H 8836   3.942   8.025   6.060  0.2277 -1.0796  0.4560
   67MOL0     H 8837   3.940   7.865   5.990  1.2608  0.2528 -0.3622
   67MOL0     H 8838   3.874   8.129   5.858  1.0907  0.6335 -2.4650
   67MOL0     H 8839   3.843   7.980   5.769  2.1474 -0.0083 -2.0777
   67MOL0     H 8840   4.120   8.044   5.890  1.5197 -2.8745  0.8883
   67MOL0     H 8841   4.063   7.897   5.816 -0.5943  0.1330 -0.0129
   67MOL0     H 8842   4.093   8.108   5.458  1.7958 -3.0426 -0.6650
   67MOL0     H 8843   3.529   7.697   5.805 -1.1239 -0.1425 -0.6817
   67MOL0     H 8844   3.282   7.654   5.819 -2.1480  0.9016 -0.2079
   68MOL0     O 8845   7.263  10.117   1.775 -0.5088 -0.2769  0.0707
   68MOL0     C 8846   7.159  10.056   1.748 -0.6266  0.7097  0.2986
   68MOL0     O 8847   7.097  10.052   1.623  0.0598 -0.4446  0.1107
   68MOL0     C 8848   7.166  10.111   1.521  0.1071 -0.2143  0.8774
   68MOL0     C 8849   7.187  10.251   1.525  0.5048  0.2427  0.0810
   68MOL0     C 8850   7.247  10.322   1.420  0.3795 -0.4554  0.2566
   68MOL0     C 8851   7.302  10.250   1.318  0.3729 -0.3639  0.6288
   68MOL0     O 8852   7.363  10.323   1.221  0.2984 -0.7127  0.3560
   68MOL0     C 8853   7.498  10.285   1.192  0.7141  0.3169  0.7270
   68MOL0     C 8854   7.544  10.373   1.081 -0.2742 -0.4741  0.3333
   68MOL0     C 8855   7.570  10.512   1.129  0.2469 -0.3399  0.8556
   68MOL0     C 8856   7.696  10.522   1.213 -0.4387 -0.2068  0.0721
   68MOL0     C 8857   7.713  10.666   1.254  0.2415 -0.2954  0.1605
   68MOL0     C 8858   7.860  10.700   1.296  1.0870 -0.0121 -0.6186
   68MOL0     C 8859   7.871  10.637   1.440 -0.6176  0.1022  0.0249
   68MOL0     C 8860   8.003  10.661   1.513  0.5865 -0.7596 -0.4738
   68MOL0     N 8861   8.121  10.617   1.432 -0.0352 -0.1028  0.0707
   68MOL0     C 8862   8.164  10.678   1.315 -0.6155  0.8094  0.3956
   68MOL0     C 8863   8.242  10.576   1.258 -0.3870 -0.4902  0.1152
   68MOL0     C 8864   8.332  10.574   1.132  0.3552  0.5707  0.1258
   68MOL0     C 8865   8.483  10.574   1.173 -0.0388 -0.3764  0.6299
   68MOL0     C 8866   8.509  10.691   1.268 -0.2658  0.1579 -0.8043
   68MOL0     C 8867   8.663  10.714   1.291 -0.4067  0.6040 -0.0493
   68MOL0     O 8868   8.710  10.659   1.412 -0.6267  0.8244 -0.0970
   68MOL0     C 8869   8.843  10.675   1.452  0.2529  0.3969  0.2692
   68MOL0     C 8870   8.939  10.741   1.377 -0.9346 -0.2187  1.1665
   68MOL0     C 8871   9.070  10.765   1.419 -0.5561 -0.1526 -0.4270
   68MOL0     C 8872   9.111  10.702   1.533  0.5698  0.7653  0.6445
   68MOL0     C 8873   9.245  10.718   1.584 -0.0723 -0.0628 -0.7019
   68MOL0     O 8874   9.324  10.807   1.514 -1.0435 -0.1669  0.3611
   68MOL0     C 8875   9.447  10.830   1.573  0.2088  0.3002  0.3765
   68MOL0     C 8876   9.564  10.756   1.544 -0.6900  0.5862  0.8543
   68MOL0     C 8877   9.689  10.784   1.599 -0.1873  0.4355 -0.0873
   68MOL0     C 8878   9.697  10.889   1.688 -0.5023  1.0999 -0.3530
   68MOL0     O 8879   9.816  10.896   1.755 -0.2382 -0.5384  0.6499
   68MOL0     C 8880   9.831  11.016   1.830  0.3042 -0.2315  0.3549
   68MOL0     C 8881   9.981  11.035   1.874  0.5720 -0.2130 -1.3955
   68MOL0     C 8882  10.094  11.079   1.778 -0.5157  0.0122 -0.4176
   68MOL0     C 8883  10.118  11.226   1.753 -0.1466  1.0970 -0.5751
   68MOL0     C 8884  10.208  11.286   1.853 -0.2696  0.2196  0.1059
   68MOL0     C 8885  10.361  11.264   1.855 -0.4418  0.5400  0.5170
   68MOL0     C 8886  10.417  11.334   1.980 -0.4166  0.3102 -0.4684
   68MOL0     C 8887  10.553  11.288   2.027  0.1718  0.3278 -0.9764
   68MOL0    Cl 8888  10.544  11.110   2.075  0.2754 -0.2942  0.1918
   68MOL0     C 8889   9.575  10.959   1.723  0.2188  0.0739  0.3614
   68MOL0     C 8890   9.455  10.944   1.651  0.6877 -0.4659 -0.6588
   68MOL0     O 8891   9.285  10.652   1.682 -0.6367  0.3406 -0.4443
   68MOL0     C 8892   9.012  10.638   1.612 -0.2723  1.1001  0.9600
   68MOL0     C 8893   8.881  10.621   1.571 -0.3247  0.1803 -0.1174
   68MOL0     N 8894   8.250  10.467   1.347 -0.1351 -0.6261  0.3572
   68MOL0     N 8895   8.171  10.494   1.448 -0.0570  0.1164  0.7684
   68MOL0     C 8896   7.298  10.107   1.308  0.2199 -0.0900 -0.1309
   68MOL0     C 8897   7.233  10.044   1.411  0.5981 -0.1102 -0.6680
   68MOL0     C 8898   7.096   9.999   1.868  0.1826  0.1982  1.1075
   68MOL0     C 8899   7.168   9.974   1.988 -0.6960 -0.3295 -0.8410
   68MOL0     C 8900   7.103   9.911   2.100  0.1096  0.0614  0.9452
   68MOL0     C 8901   6.975   9.862   2.087  0.2468  0.1658  0.3022
   68MOL0     O 8902   6.914   9.784   2.179 -0.7027  1.1079 -0.0946
   68MOL0     C 8903   6.985   9.712   2.286 -0.3358  0.3179  0.5859
   68MOL0     C 8904   7.063   9.589   2.230  0.1248 -0.3859  0.2362
   68MOL0     C 8905   6.970   9.510   2.129 -0.4565  0.1610  0.8670
   68MOL0     C 8906   7.036   9.381   2.084 -0.1570 -0.0940  0.4349
   68MOL0     C 8907   7.037   9.278   2.197  0.5929 -0.2646  1.1381
   68MOL0     C 8908   7.050   9.187   2.275  0.6107 -0.9413 -0.5965
   68MOL0     C 8909   6.896   9.893   1.970 -0.6576 -0.0382 -1.1103
   68MOL0     C 8910   6.954   9.969   1.867 -0.2446 -0.8836  0.3473
   68MOL0     H 8911   7.142  10.311   1.604 -0.9282 -0.8786  0.1548
   68MOL0     H 8912   7.265  10.430   1.419 -0.8238 -0.1298 -3.6883
   68MOL0     H 8913   7.501  10.188   1.141  2.7264  0.3988  0.6282
   68MOL0     H 8914   7.564  10.279   1.279  1.3504 -1.4099  0.1633
   68MOL0     H 8915   7.472  10.371   0.999 -1.5226  0.8762  1.3598
   68MOL0     H 8916   7.643  10.338   1.050 -0.0269  0.2500  0.2793
   68MOL0     H 8917   7.483  10.551   1.183 -0.4707  0.5658 -0.8869
   68MOL0     H 8918   7.593  10.569   1.039 -1.2864 -1.3620 -0.2321
   68MOL0     H 8919   7.683  10.456   1.299 -0.6280 -1.2178 -0.7167
   68MOL0     H 8920   7.787  10.490   1.162  0.1395  2.0600 -0.4418
   68MOL0     H 8921   7.637  10.687   1.330  1.6470 -0.6949  1.7488
   68MOL0     H 8922   7.677  10.734   1.177 -4.2491 -1.3268  1.0339
   68MOL0     H 8923   7.872  10.808   1.298  3.6435 -0.1785 -2.1825
   68MOL0     H 8924   7.925  10.650   1.223 -0.0346  0.8152 -2.2392
   68MOL0     H 8925   7.797  10.674   1.512  0.4699 -2.4083  2.6279
   68MOL0     H 8926   7.851  10.530   1.431 -0.2161  0.1346 -1.4371
   68MOL0     H 8927   8.011  10.612   1.611 -1.8814  1.8002  1.1565
   68MOL0     H 8928   8.012  10.769   1.526 -0.0904 -0.8243  0.6820
   68MOL0     H 8929   8.142  10.771   1.265 -0.5576 -1.1919 -3.7828
   68MOL0     H 8930   8.306  10.646   1.055 -1.4334 -1.0124 -0.8614
   68MOL0     H 8931   8.302  10.479   1.085  1.1620 -0.5438  1.7721
   68MOL0     H 8932   8.538  10.586   1.080  0.7572 -2.1734  0.8188
   68MOL0     H 8933   8.516  10.479   1.217 -0.6204  0.2207  2.4789
   68MOL0     H 8934   8.460  10.784   1.236 -4.0829 -1.2935  0.2312
   68MOL0     H 8935   8.467  10.683   1.368  2.2269 -0.4016  0.2588
   68MOL0     H 8936   8.684  10.821   1.300  0.9453  0.3530 -0.0580
   68MOL0     H 8937   8.717  10.663   1.211  0.8897  1.6459  0.1283
   68MOL0     H 8938   8.932  10.766   1.272  3.0997 -1.9589  0.2863
   68MOL0     H 8939   9.139  10.822   1.357 -1.6390  2.0586  0.3122
   68MOL0     H 8940   9.558  10.667   1.483  1.9855  0.3295  0.8640
   68MOL0     H 8941   9.771  10.719   1.571  0.5622  1.2125  0.2947
   68MOL0     H 8942   9.774  11.014   1.923  2.2000  2.1052  1.6963
   68MOL0     H 8943   9.810  11.109   1.775  1.9614  1.3102  2.1794
   68MOL0     H 8944  10.006  10.939   1.921 -1.0336  0.2236  0.5050
   68MOL0     H 8945   9.966  11.109   1.954 -0.3091 -0.8402 -0.9548
   68MOL0     H 8946  10.077  11.029   1.682 -2.2534 -3.1250  1.3595
   68MOL0     H 8947  10.185  11.036   1.819 -0.1984 -1.1015 -2.1913
   68MOL0     H 8948  10.138  11.244   1.647  1.4853  0.8027 -0.3459
   68MOL0     H 8949  10.023  11.280   1.764 -0.7938 -0.3421  1.4677
   68MOL0     H 8950  10.174  11.244   1.947  0.5526  1.9436  1.2250
   68MOL0     H 8951  10.191  11.394   1.849 -1.5427  0.0100 -0.4904
   68MOL0     H 8952  10.421  11.300   1.772  0.1544 -1.1109  0.1972
   68MOL0     H 8953  10.380  11.157   1.852 -0.1635  0.5859  0.6335
   68MOL0     H 8954  10.412  11.441   1.959  0.1515  0.8720  1.8744
   68MOL0     H 8955  10.358  11.319   2.071  0.5312 -0.0135  0.1079
   68MOL0     H 8956  10.584  11.352   2.110 -0.4927 -0.6080  0.0288
   68MOL0     H 8957  10.614  11.307   1.939  0.5975 -1.9059 -1.2199
   68MOL0     H 8958   9.588  11.036   1.798 -0.4017  1.1444 -0.6153
   68MOL0     H 8959   9.362  10.994   1.677 -0.2007 -1.8524 -1.0482
   68MOL0     H 8960   9.036  10.591   1.707  0.4347  0.9858  0.7313
   68MOL0     H 8961   8.800  10.583   1.633  1.6128 -0.9396  1.8561
   68MOL0     H 8962   7.333  10.045   1.226 -0.9780  0.3276 -0.9646
   68MOL0     H 8963   7.219   9.936   1.405 -1.3014  0.0182  0.5726
   68MOL0     H 8964   7.274   9.998   1.997 -0.4369 -0.4464 -3.0919
   68MOL0     H 8965   7.158   9.895   2.192  1.7543 -1.7102 -0.2723
   68MOL0     H 8966   6.915   9.681   2.364  1.8225 -0.7592  2.2177
   68MOL0     H 8967   7.057   9.776   2.339  0.2097 -0.7183  1.1254
   68MOL0     H 8968   7.142   9.638   2.172  0.8877 -1.2863  0.5047
   68MOL0     H 8969   7.109   9.527   2.306  1.0441  1.0199  0.8694
   68MOL0     H 8970   6.938   9.562   2.038  0.0408 -1.2774 -0.1773
   68MOL0     H 8971   6.882   9.473   2.182 -2.5193  3.9109  0.4282
   68MOL0     H 8972   6.979   9.350   1.996  1.7652 -0.1415 -0.8598
   68MOL0     H 8973   7.141   9.402   2.061 -0.5676  0.5389 -0.9315
   68MOL0     H 8974   7.063   9.112   2.350 -1.1844 -2.5123 -1.7447
   68MOL0     H 8975   6.793   9.859   1.960 -1.2048  0.7564  1.3370
   68MOL0     H 8976   6.891   9.986   1.780  0.3217  1.2295  0.2918
   69MOL0     O 8977   0.517   8.358  10.734 -0.0275  0.1150 -0.2502
   69MOL0     C 8978   0.416   8.377  10.673  0.7533  0.2252 -0.3747
   69MOL0     O 8979   0.394   8.445  10.552  0.4112 -0.4856 -0.2324
   69MOL0     C 8980   0.507   8.511  10.519 -0.2459 -0.4453  0.0898
   69MOL0     C 8981   0.519   8.648  10.531 -0.5877 -0.4810 -0.1261
   69MOL0     C 8982   0.617   8.719  10.485 -0.5552  0.1603  0.3677
   69MOL0     C 8983   0.730   8.655  10.425  0.1932  0.5090  0.2987
   69MOL0     O 8984   0.833   8.735  10.377  0.3854 -0.3224 -0.4814
   69MOL0     C 8985   0.813   8.774  10.237 -0.4070 -0.3266  0.4050
   69MOL0     C 8986   0.846   8.924  10.218  0.1602 -0.1128  0.1551
   69MOL0     C 8987   0.771   9.008  10.318  1.0986 -0.8038  0.3591
   69MOL0     C 8988   0.617   9.003  10.269 -0.6519 -0.0413  0.8635
   69MOL0     C 8989   0.542   9.129  10.319 -0.0666 -0.5945 -0.4878
   69MOL0     C 8990   0.414   9.162  10.235  0.2448 -0.2693 -0.2227
   69MOL0     C 8991   0.304   9.226  10.334 -0.9258 -0.5553  0.3874
   69MOL0     C 8992   0.239   9.124  10.417 -0.1628 -0.2297 -0.1834
   69MOL0     N 8993   0.121   9.171  10.491 -0.1210  0.0431  0.0165
   69MOL0     C 8994   0.015   9.090  10.533 -0.1891  0.6504  0.6656
   69MOL0     C 8995  -0.047   9.167  10.626  0.3122 -0.2145  0.7301
   69MOL0     C 8996  -0.160   9.128  10.715 -0.0218 -0.4945  0.1095
   69MOL0     C 8997  -0.220   9.255  10.787  0.4204 -0.3129 -0.3957
   69MOL0     C 8998  -0.357   9.221  10.846 -0.9757  0.2182 -0.0968
   69MOL0     C 8999  -0.413   9.336  10.934 -0.7103 -0.3925 -0.9955
   69MOL0     O 9000  -0.555   9.334  10.925  0.2457  0.3550  0.6981
   69MOL0     C 9001  -0.631   9.436  10.976 -0.4838  0.6256  0.8299
   69MOL0     C 9002  -0.601   9.522  11.081  0.3871  0.7907 -0.1988
   69MOL0     C 9003  -0.695   9.614  11.125 -0.3055  0.4511 -0.4311
   69MOL0     C 9004  -0.820   9.619  11.070  0.0753  1.0011  0.1658
   69MOL0     C 9005  -0.917   9.718  11.119 -0.8417  0.5383  0.7290
   69MOL0     O 9006  -1.041   9.704  11.062 -0.1519 -0.0758 -0.3285
   69MOL0     C 9007  -1.140   9.790  11.100  0.7286 -0.3320  0.5329
   69MOL0     C 9008  -1.128   9.927  11.136 -0.0784 -0.3229 -0.4059
   69MOL0     C 9009  -1.251   9.998  11.154 -0.6348  0.3596 -0.2377
   69MOL0     C 9010  -1.372   9.932  11.146  0.7934  0.2344  0.2207
   69MOL0     O 9011  -1.488  10.003  11.180 -0.5110  0.0987 -0.0629
   69MOL0     C 9012  -1.596   9.938  11.245 -0.0550 -0.2943  0.3745
   69MOL0     C 9013  -1.676  10.030  11.327  0.0213 -0.5071  0.5189
   69MOL0     C 9014  -1.815   9.968  11.356 -0.0072 -0.3123  0.1021
   69MOL0     C 9015  -1.887  10.051  11.457 -0.3057 -0.3008  0.2537
   69MOL0     C 9016  -2.028  10.001  11.463 -0.2893 -0.6680  0.2295
   69MOL0     C 9017  -2.114  10.091  11.548  0.1167 -0.5869 -0.4617
   69MOL0     C 9018  -2.253  10.042  11.535  0.8250 -0.3347 -0.5755
   69MOL0     C 9019  -2.353  10.094  11.642 -0.6091  1.0621  0.4541
   69MOL0    Cl 9020  -2.358  10.016  11.797 -0.2079  0.1188 -0.4313
   69MOL0     C 9021  -1.382   9.796  11.102  0.4571  0.7569  0.6208
   69MOL0     C 9022  -1.263   9.733  11.069  0.3668 -0.2804 -0.3045
   69MOL0     O 9023  -0.881   9.802  11.203  0.1681 -0.0621 -0.0375
   69MOL0     C 9024  -0.854   9.531  10.957 -1.0220  0.3277  0.5438
   69MOL0     C 9025  -0.753   9.445  10.913  0.6522 -0.4877  0.3603
   69MOL0     N 9026   0.020   9.288  10.630  0.0420 -0.1925 -0.2974
   69MOL0     N 9027   0.119   9.292  10.557  0.3251  0.2449 -0.2803
   69MOL0     C 9028   0.736   8.509  10.415  0.4233 -0.1877 -0.6873
   69MOL0     C 9029   0.621   8.443  10.470 -0.3736  0.5508 -0.2195
   69MOL0     C 9030   0.305   8.302  10.714 -0.3181  0.8119 -0.6842
   69MOL0     C 9031   0.295   8.240  10.842 -0.3193  0.1502  0.2742
   69MOL0     C 9032   0.181   8.154  10.875 -0.0592 -0.0486  0.1093
   69MOL0     C 9033   0.088   8.120  10.776 -0.7258  0.2602 -0.1210
   69MOL0     O 9034  -0.013   8.029  10.804  0.0452 -0.6145  0.1240
   69MOL0     C 9035  -0.004   7.957  10.929 -0.0611 -0.8118  0.0946
   69MOL0     C 9036   0.103   7.847  10.926 -0.7013  0.2305  0.5468
   69MOL0     C 9037   0.073   7.743  10.816  0.3810  1.1988 -0.4755
   69MOL0     C 9038   0.184   7.635  10.798 -0.4103  0.7566  0.5864
   69MOL0     C 9039   0.211   7.562  10.920 -0.5963  0.2643  0.0043
   69MOL0     C 9040   0.233   7.505  11.018  1.1985 -0.3622  0.3282
   69MOL0     C 9041   0.099   8.183  10.651 -0.0575  0.0990  0.3432
   69MOL0     C 9042   0.207   8.271  10.623  0.1323 -0.7714  0.7652
   69MOL0     H 9043   0.425   8.688  10.568 -0.1638 -1.1243  1.7614
   69MOL0     H 9044   0.620   8.825  10.508 -0.3476  0.8949 -2.6303
   69MOL0     H 9045   0.716   8.745  10.195  0.0570 -1.5793  0.1441
   69MOL0     H 9046   0.896   8.717  10.193 -0.1702  0.1317  0.2587
   69MOL0     H 9047   0.826   8.946  10.112 -1.0229 -0.6299  0.2524
   69MOL0     H 9048   0.952   8.935  10.238  0.2879 -1.0101  0.0245
   69MOL0     H 9049   0.822   9.104  10.310 -2.4337  1.3456  1.4475
   69MOL0     H 9050   0.771   8.977  10.423 -0.0289 -2.4303 -0.0814
   69MOL0     H 9051   0.614   8.988  10.160 -1.9884 -3.7783  1.2862
   69MOL0     H 9052   0.565   8.917  10.312  0.7025 -0.7346  1.1655
   69MOL0     H 9053   0.604   9.218  10.300 -2.5919  0.9024 -2.4566
   69MOL0     H 9054   0.523   9.114  10.426  1.5957 -0.8042 -0.2034
   69MOL0     H 9055   0.375   9.077  10.178 -3.2030  0.6883  0.4708
   69MOL0     H 9056   0.435   9.245  10.167  1.5220  1.0609  1.6837
   69MOL0     H 9057   0.338   9.306  10.400  1.6079 -2.8996  2.1812
   69MOL0     H 9058   0.226   9.254  10.263 -1.4846 -0.1235  1.1682
   69MOL0     H 9059   0.303   9.080  10.495  0.2384 -0.4786 -0.6453
   69MOL0     H 9060   0.224   9.039  10.350  1.3106  0.0779 -0.9454
   69MOL0     H 9061  -0.014   8.990  10.504 -0.8326  0.0396  3.1535
   69MOL0     H 9062  -0.118   9.061  10.790  0.3790  1.6056  1.8520
   69MOL0     H 9063  -0.233   9.077  10.651  0.6605 -1.8266  0.3547
   69MOL0     H 9064  -0.235   9.330  10.709 -2.3050  0.2049  0.4963
   69MOL0     H 9065  -0.167   9.294  10.874 -4.4491  2.8218  1.6458
   69MOL0     H 9066  -0.430   9.209  10.765 -0.1573  0.2382 -0.8500
   69MOL0     H 9067  -0.342   9.125  10.896 -0.0647  1.0024  1.1870
   69MOL0     H 9068  -0.354   9.426  10.914  1.8208 -1.6714  0.2814
   69MOL0     H 9069  -0.381   9.317  11.037 -0.0368  0.1315 -1.0981
   69MOL0     H 9070  -0.509   9.509  11.137 -0.4961 -1.3903  0.8932
   69MOL0     H 9071  -0.661   9.666  11.214  0.1217  2.3530 -1.6497
   69MOL0     H 9072  -1.034   9.978  11.155  0.3490 -1.8267  1.9241
   69MOL0     H 9073  -1.251  10.104  11.176 -1.5515  0.3015  0.0473
   69MOL0     H 9074  -1.552   9.862  11.310  0.3062 -1.1313 -0.8088
   69MOL0     H 9075  -1.662   9.887  11.174 -1.9932 -2.1643  3.3387
   69MOL0     H 9076  -1.683  10.130  11.284  0.3609 -1.3635 -1.6836
   69MOL0     H 9077  -1.616  10.042  11.418  1.8459  0.7791 -0.7786
   69MOL0     H 9078  -1.810   9.864  11.390 -0.7659 -0.4010 -0.0336
   69MOL0     H 9079  -1.873   9.969  11.263 -1.8714 -0.2598  1.2072
   69MOL0     H 9080  -1.842  10.038  11.556  1.5582  1.3427 -0.3039
   69MOL0     H 9081  -1.873  10.158  11.436 -1.3160 -0.0762  0.6655
   69MOL0     H 9082  -2.044   9.896  11.488 -0.0045 -1.2911 -2.0020
   69MOL0     H 9083  -2.072  10.003  11.362  2.0408 -1.5099 -0.8695
   69MOL0     H 9084  -2.109  10.195  11.517  0.3164 -0.3028  0.5010
   69MOL0     H 9085  -2.088  10.086  11.654 -3.8194 -0.0064  0.7025
   69MOL0     H 9086  -2.291  10.084  11.442  1.1799  1.5974  0.1065
   69MOL0     H 9087  -2.256   9.934  11.553  0.2237 -0.4887 -1.5382
   69MOL0     H 9088  -2.453  10.073  11.603  0.8504  0.0809 -3.1566
   69MOL0     H 9089  -2.337  10.201  11.655 -1.5430  1.3227 -0.4827
   69MOL0     H 9090  -1.482   9.759  11.081 -0.0632  0.7579  2.8593
   69MOL0     H 9091  -1.262   9.636  11.020 -0.6143 -1.0306  1.0771
   69MOL0     H 9092  -0.946   9.524  10.900  1.5300 -2.5964 -3.7771
   69MOL0     H 9093  -0.776   9.378  10.830 -0.8693 -0.9657  1.1303
   69MOL0     H 9094   0.815   8.451  10.369 -0.5154 -0.3376 -2.1564
   69MOL0     H 9095   0.631   8.338  10.496 -1.9813  1.1799  3.6183
   69MOL0     H 9096   0.374   8.253  10.915 -0.3274  1.1023  0.1349
   69MOL0     H 9097   0.187   8.102  10.970  0.0593 -0.2429 -0.0055
   69MOL0     H 9098  -0.098   7.902  10.935  0.7087 -2.1186  0.7775
   69MOL0     H 9099  -0.008   8.010  11.025 -1.4284 -1.5674  0.4869
   69MOL0     H 9100   0.205   7.883  10.911 -0.4273 -1.6282 -3.4453
   69MOL0     H 9101   0.108   7.797  11.023  0.1263  0.0430  0.4167
   69MOL0     H 9102   0.065   7.799  10.722  0.1988 -0.9053 -1.7946
   69MOL0     H 9103  -0.025   7.703  10.842  0.2984  1.4221 -0.4454
   69MOL0     H 9104   0.162   7.556  10.725 -1.5201  1.5963 -0.0186
   69MOL0     H 9105   0.277   7.671  10.754 -1.7208  1.1812 -1.9983
   69MOL0     H 9106   0.258   7.469  11.116 -0.9972  3.0165  2.3043
   69MOL0     H 9107   0.023   8.175  10.574  1.1879  0.7634 -0.9781
   69MOL0     H 9108   0.221   8.301  10.520  0.8041 -3.3816  0.0112
   70MOL0     O 9109  10.068   5.627   2.634  0.1774 -0.3746 -0.3003
   70MOL0     C 9110  10.088   5.598   2.520 -0.5543 -0.3088  1.0089
   70MOL0     O 9111  10.000   5.610   2.417  0.7420  0.5175 -0.1747
   70MOL0     C 9112   9.873   5.670   2.433 -0.4242  0.0846  0.0312
   70MOL0     C 9113   9.793   5.677   2.551  0.0393 -1.1142 -0.1428
   70MOL0     C 9114   9.679   5.763   2.562  0.0439  0.4326  1.0289
   70MOL0     C 9115   9.632   5.831   2.448  0.5173  0.1825  0.1530
   70MOL0     O 9116   9.528   5.910   2.455 -0.1195  0.3186 -0.0410
   70MOL0     C 9117   9.431   5.878   2.361 -0.3403 -0.0540 -0.4656
   70MOL0     C 9118   9.322   5.979   2.346  0.1995 -0.3343 -0.0627
   70MOL0     C 9119   9.241   5.988   2.479  0.1987  0.0723  0.3803
   70MOL0     C 9120   9.165   6.119   2.489  0.7018  0.1352 -0.3456
   70MOL0     C 9121   9.075   6.119   2.620  0.0149  0.1461 -0.3073
   70MOL0     C 9122   8.966   6.229   2.601 -0.1686  0.7436 -0.1544
   70MOL0     C 9123   8.857   6.206   2.699  0.2752  0.7605 -1.0966
   70MOL0     C 9124   8.727   6.279   2.653  0.7695  0.0235  0.1700
   70MOL0     N 9125   8.626   6.280   2.759 -0.0100  0.3676  0.7765
   70MOL0     C 9126   8.592   6.169   2.832 -0.3861 -0.4033 -1.0532
   70MOL0     C 9127   8.471   6.206   2.887 -0.0341 -0.0167 -0.6026
   70MOL0     C 9128   8.396   6.114   2.984  0.0805 -0.1106  0.1920
   70MOL0     C 9129   8.250   6.096   2.950 -0.1432 -0.2685 -0.1207
   70MOL0     C 9130   8.156   6.214   3.001 -0.3570 -0.1327  0.6326
   70MOL0     C 9131   8.155   6.260   3.149 -0.8355 -0.6739 -0.3820
   70MOL0     O 9132   8.096   6.388   3.166 -0.1670  0.0741 -0.0321
   70MOL0     C 9133   7.959   6.399   3.186  0.2684 -0.8938  0.4916
   70MOL0     C 9134   7.875   6.287   3.182 -0.0854  0.0893  0.4923
   70MOL0     C 9135   7.734   6.303   3.185  0.0600 -0.2123 -0.6622
   70MOL0     C 9136   7.686   6.435   3.193  1.1117  0.3746  0.5937
   70MOL0     C 9137   7.538   6.460   3.189 -0.4963 -0.7705  0.1192
   70MOL0     O 9138   7.496   6.593   3.190 -0.4693  0.2074  0.1373
   70MOL0     C 9139   7.358   6.632   3.201 -0.4225  0.0841 -1.0801
   70MOL0     C 9140   7.246   6.566   3.152  0.1317  0.5111  0.4416
   70MOL0     C 9141   7.116   6.595   3.194 -0.0734 -0.3323 -0.2269
   70MOL0     C 9142   7.091   6.712   3.271 -0.9127 -0.0757  0.0781
   70MOL0     O 9143   6.970   6.753   3.298 -0.7381 -0.3175 -0.6423
   70MOL0     C 9144   6.930   6.703   3.430 -0.3208 -0.2090  0.7861
   70MOL0     C 9145   6.891   6.818   3.525  0.0075 -0.0732 -0.2893
   70MOL0     C 9146   6.784   6.906   3.476  0.1924 -0.4612 -0.3053
   70MOL0     C 9147   6.748   7.017   3.575  0.3827 -0.2567 -0.7024
   70MOL0     C 9148   6.656   7.114   3.500  0.4724 -0.7469 -0.2362
   70MOL0     C 9149   6.504   7.089   3.518  0.5249 -0.8196 -0.0643
   70MOL0     C 9150   6.462   7.080   3.667 -0.3726  0.2648 -0.1386
   70MOL0     C 9151   6.490   7.213   3.744  0.2513  0.7640  0.2903
   70MOL0    Cl 9152   6.414   7.368   3.684 -0.1013  0.2214  0.0961
   70MOL0     C 9153   7.202   6.787   3.312 -0.0072 -0.5624 -0.7648
   70MOL0     C 9154   7.334   6.753   3.276 -0.0389  0.1829  0.1991
   70MOL0     O 9155   7.470   6.360   3.202 -0.5425 -0.3819  0.3892
   70MOL0     C 9156   7.776   6.545   3.195  0.5937 -0.4455  0.0174
   70MOL0     C 9157   7.912   6.526   3.182  0.3199 -1.3294  0.7319
   70MOL0     N 9158   8.440   6.328   2.843 -0.5379  0.4917 -0.2578
   70MOL0     N 9159   8.530   6.376   2.767 -1.0038  0.2473  0.2556
   70MOL0     C 9160   9.707   5.820   2.330  0.4293 -0.3207 -0.5483
   70MOL0     C 9161   9.824   5.740   2.328  0.6159  0.1511  1.7497
   70MOL0     C 9162  10.205   5.520   2.494 -0.6097 -0.0524 -0.3323
   70MOL0     C 9163  10.244   5.492   2.363  0.4356  0.3411  0.6871
   70MOL0     C 9164  10.360   5.416   2.340 -0.4294  0.1443  0.5019
   70MOL0     C 9165  10.442   5.367   2.446 -0.7081  0.0004 -0.0180
   70MOL0     O 9166  10.550   5.279   2.437  0.3272  0.5484  0.5772
   70MOL0     C 9167  10.620   5.291   2.317 -0.7682 -0.7794  0.5153
   70MOL0     C 9168  10.679   5.432   2.296 -0.0922 -0.6606  0.0260
   70MOL0     C 9169  10.810   5.451   2.373 -0.3090 -0.0244  0.1040
   70MOL0     C 9170  10.788   5.485   2.524  0.3728  0.2289 -0.0926
   70MOL0     C 9171  10.907   5.539   2.590 -0.0495 -0.0102 -0.4950
   70MOL0     C 9172  10.999   5.596   2.637  0.6669  0.0316 -0.0340
   70MOL0     C 9173  10.415   5.413   2.567  0.3425 -0.8493  0.4685
   70MOL0     C 9174  10.300   5.488   2.593 -1.2091 -0.2908 -0.1924
   70MOL0     H 9175   9.826   5.619   2.636  0.0157  0.7114  1.1806
   70MOL0     H 9176   9.629   5.762   2.658  2.3266  2.8964  2.3862
   70MOL0     H 9177   9.393   5.776   2.376 -1.5240  0.0938 -2.1898
   70MOL0     H 9178   9.457   5.884   2.255 -2.0460  2.3391 -0.8305
   70MOL0     H 9179   9.253   5.952   2.265 -0.3430  0.5937  0.0821
   70MOL0     H 9180   9.360   6.078   2.320  0.3348  0.1989  1.9937
   70MOL0     H 9181   9.306   5.995   2.566  0.2230 -0.9382  0.4564
   70MOL0     H 9182   9.173   5.903   2.487 -2.0613  1.7429 -0.0432
   70MOL0     H 9183   9.224   6.210   2.478 -1.3637  1.7932  1.3459
   70MOL0     H 9184   9.097   6.136   2.404  1.4344  3.9835 -0.3437
   70MOL0     H 9185   9.133   6.139   2.710 -1.0469 -0.4795  0.5370
   70MOL0     H 9186   9.034   6.018   2.627 -0.5129  0.1858 -2.1085
   70MOL0     H 9187   8.928   6.215   2.500  0.9028 -0.7137 -0.3866
   70MOL0     H 9188   9.011   6.328   2.610  0.1411  0.8342 -2.3040
   70MOL0     H 9189   8.835   6.099   2.705  1.5402  0.5560  2.1868
   70MOL0     H 9190   8.882   6.243   2.799 -0.7193  1.0060 -0.9299
   70MOL0     H 9191   8.673   6.238   2.568 -2.7947 -0.1814  2.3149
   70MOL0     H 9192   8.761   6.378   2.620  0.4873  0.4012  0.9607
   70MOL0     H 9193   8.649   6.077   2.839  0.1904 -0.0907 -1.5557
   70MOL0     H 9194   8.406   6.153   3.086  2.7855 -2.5232  0.9782
   70MOL0     H 9195   8.449   6.019   2.971  1.2331  0.4794  0.4039
   70MOL0     H 9196   8.217   6.002   2.997 -1.3299  0.1501 -0.0661
   70MOL0     H 9197   8.243   6.089   2.841  0.5636 -2.0404 -0.0914
   70MOL0     H 9198   8.187   6.299   2.940 -2.5219 -0.0764 -0.4765
   70MOL0     H 9199   8.058   6.181   2.965 -0.5759  0.6331  0.5215
   70MOL0     H 9200   8.260   6.270   3.176 -1.2067 -1.6802  1.6094
   70MOL0     H 9201   8.118   6.187   3.222  2.5456 -1.3311  0.8416
   70MOL0     H 9202   7.894   6.182   3.163 -2.4700 -0.1085 -1.0863
   70MOL0     H 9203   7.675   6.211   3.188  1.0071 -0.8491 -1.1905
   70MOL0     H 9204   7.246   6.486   3.079  1.1965 -1.5530  2.5452
   70MOL0     H 9205   7.038   6.537   3.146 -0.9230 -1.9691  2.8905
   70MOL0     H 9206   7.005   6.644   3.484 -2.4615 -2.1093  1.8828
   70MOL0     H 9207   6.839   6.643   3.429 -0.5675  0.0997  2.4055
   70MOL0     H 9208   6.983   6.875   3.538 -0.9408  1.1918  1.2325
   70MOL0     H 9209   6.862   6.784   3.625  2.0385  1.8170  1.0403
   70MOL0     H 9210   6.700   6.842   3.446  1.1307 -0.5842 -2.8974
   70MOL0     H 9211   6.822   6.948   3.383 -1.6903 -1.3418 -1.5304
   70MOL0     H 9212   6.707   6.982   3.671  0.5174 -0.9963 -0.9087
   70MOL0     H 9213   6.841   7.067   3.604  0.2102 -0.7121  0.7089
   70MOL0     H 9214   6.673   7.113   3.392  5.3309 -0.2236  0.2871
   70MOL0     H 9215   6.669   7.219   3.529  0.2051 -0.2356 -1.8483
   70MOL0     H 9216   6.477   6.992   3.474 -0.3154 -0.5623 -0.1426
   70MOL0     H 9217   6.445   7.164   3.465  1.1336 -0.5880 -0.4233
   70MOL0     H 9218   6.355   7.058   3.673 -0.1789 -0.3006  2.3154
   70MOL0     H 9219   6.512   6.995   3.714 -1.5101 -1.4594 -1.9396
   70MOL0     H 9220   6.597   7.220   3.766  0.2834  2.5040 -0.2591
   70MOL0     H 9221   6.445   7.196   3.842  1.2704  0.2916  0.6969
   70MOL0     H 9222   7.183   6.856   3.393  1.8588 -2.0171  1.0211
   70MOL0     H 9223   7.420   6.806   3.317 -0.0761 -0.3884  1.0564
   70MOL0     H 9224   7.739   6.647   3.201  0.5249 -0.2493 -2.7132
   70MOL0     H 9225   7.979   6.608   3.157  1.6586 -2.6296 -0.0108
   70MOL0     H 9226   9.682   5.881   2.244 -1.4036  1.8852  1.4182
   70MOL0     H 9227   9.885   5.719   2.241 -1.1078 -4.5031  1.4285
   70MOL0     H 9228  10.184   5.520   2.277  1.9511  1.6384  0.0171
   70MOL0     H 9229  10.386   5.383   2.240  1.3566 -0.9036  1.2684
   70MOL0     H 9230  10.561   5.269   2.228  1.4556 -1.6102 -0.8571
   70MOL0     H 9231  10.702   5.218   2.313  0.8809  0.8838  1.9334
   70MOL0     H 9232  10.705   5.440   2.191  1.0076  3.2216  0.4398
   70MOL0     H 9233  10.605   5.510   2.317  0.6300  0.0756 -0.1369
   70MOL0     H 9234  10.879   5.524   2.329  1.5118 -0.7172  1.6713
   70MOL0     H 9235  10.872   5.361   2.370 -0.3207 -0.0384  0.2710
   70MOL0     H 9236  10.705   5.557   2.518 -1.0020 -1.3525 -4.0330
   70MOL0     H 9237  10.741   5.398   2.571 -3.7345  2.3349  0.2222
   70MOL0     H 9238  11.084   5.648   2.676 -1.5404  3.3887  0.6437
   70MOL0     H 9239  10.461   5.366   2.654 -1.3865 -1.8401  0.8969
   70MOL0     H 9240  10.277   5.512   2.696  0.5014  1.4533 -0.1864
   71MOL0     O 9241   9.069   8.929   8.396 -0.5549  0.5719  0.2022
   71MOL0     C 9242   9.046   9.046   8.364  0.0186  0.1682  0.5864
   71MOL0     O 9243   8.923   9.096   8.345 -0.1355 -0.3701  0.3162
   71MOL0     C 9244   8.826   9.025   8.406 -0.3177  0.4011  0.3941
   71MOL0     C 9245   8.748   8.941   8.324 -0.7343 -0.0467 -0.0797
   71MOL0     C 9246   8.651   8.863   8.389  0.3325  0.2061 -0.1398
   71MOL0     C 9247   8.634   8.866   8.530 -0.5360  0.1919 -0.1230
   71MOL0     O 9248   8.526   8.791   8.569  0.2492  0.2857  0.4158
   71MOL0     C 9249   8.515   8.770   8.711  1.3769 -0.4936 -0.3834
   71MOL0     C 9250   8.391   8.689   8.745  0.2129  0.8621  0.0286
   71MOL0     C 9251   8.260   8.752   8.712  0.5742  0.1894  0.2492
   71MOL0     C 9252   8.137   8.659   8.746  0.8408  0.1377  0.0013
   71MOL0     C 9253   8.001   8.738   8.737 -0.4163 -0.3157 -0.3538
   71MOL0     C 9254   7.881   8.658   8.793  0.3383 -0.1100  0.8485
   71MOL0     C 9255   7.760   8.744   8.780 -0.3913 -0.4318 -0.2972
   71MOL0     C 9256   7.638   8.683   8.832  0.4667 -0.4268 -0.6147
   71MOL0     N 9257   7.515   8.760   8.800  0.7048 -0.3149 -0.1633
   71MOL0     C 9258   7.465   8.861   8.878 -0.8609  0.0465  0.1505
   71MOL0     C 9259   7.357   8.899   8.815 -0.2156  0.2556  0.0798
   71MOL0     C 9260   7.271   9.013   8.855 -0.6861 -0.7044  1.1618
   71MOL0     C 9261   7.132   9.023   8.792 -0.3968 -0.2819  0.4224
   71MOL0     C 9262   7.051   9.141   8.837  0.2945 -0.0932 -0.3844
   71MOL0     C 9263   6.912   9.127   8.786  0.3681 -0.2798  0.4863
   71MOL0     O 9264   6.835   9.041   8.868 -0.7877  0.4847 -0.0355
   71MOL0     C 9265   6.702   9.028   8.830  0.6576  0.2200  0.0476
   71MOL0     C 9266   6.646   9.037   8.706 -0.3979  0.1310  0.3972
   71MOL0     C 9267   6.509   9.026   8.680  0.1684  0.6276 -0.2796
   71MOL0     C 9268   6.415   9.002   8.781  0.6636  1.0506 -0.4001
   71MOL0     C 9269   6.271   8.993   8.756  0.0737 -0.2636  0.9417
   71MOL0     O 9270   6.231   8.995   8.627 -0.2504  0.2772  0.0320
   71MOL0     C 9271   6.094   9.003   8.604 -0.2792 -0.7254  1.1019
   71MOL0     C 9272   5.992   8.924   8.657  0.1837  0.8118 -0.3594
   71MOL0     C 9273   5.850   8.923   8.627 -1.3860  0.5220 -0.1229
   71MOL0     C 9274   5.815   9.017   8.533  0.9434  0.5012  1.0346
   71MOL0     O 9275   5.694   9.032   8.468 -0.2301 -0.2814 -0.4457
   71MOL0     C 9276   5.577   9.002   8.537 -0.5302 -0.4983  1.0390
   71MOL0     C 9277   5.460   9.018   8.432 -0.6858  0.2727 -0.1465
   71MOL0     C 9278   5.331   9.034   8.512  0.2129 -0.5922  0.7285
   71MOL0     C 9279   5.204   9.015   8.426  0.1743 -0.3796 -0.4470
   71MOL0     C 9280   5.075   9.074   8.479 -0.2719 -0.3813  0.4007
   71MOL0     C 9281   4.954   9.042   8.392  0.2495 -0.3404  1.1325
   71MOL0     C 9282   4.821   9.063   8.474  0.6904  0.2339 -0.2277
   71MOL0     C 9283   4.708   8.994   8.403  0.1252  0.1403  1.2093
   71MOL0    Cl 9284   4.568   9.001   8.511 -0.0306  0.8629  0.3072
   71MOL0     C 9285   5.909   9.101   8.479  0.6175  0.6564  0.5681
   71MOL0     C 9286   6.049   9.096   8.510  0.6435 -0.0004  0.1540
   71MOL0     O 9287   6.193   9.008   8.857 -0.0318 -0.5092 -0.2382
   71MOL0     C 9288   6.473   8.994   8.905 -0.3604  0.5426 -0.2458
   71MOL0     C 9289   6.609   9.001   8.930  1.3130  0.2994 -0.4205
   71MOL0     N 9290   7.338   8.818   8.702  0.8443 -0.3089 -0.1833
   71MOL0     N 9291   7.429   8.733   8.693  0.0675  0.5125 -0.1567
   71MOL0     C 9292   8.715   8.951   8.606 -0.1989  0.6479  0.2893
   71MOL0     C 9293   8.808   9.035   8.545  0.6064 -0.1865 -0.4842
   71MOL0     C 9294   9.163   9.137   8.339  0.9225  0.1883  0.3105
   71MOL0     C 9295   9.296   9.095   8.372 -0.1108  0.2870 -0.3994
   71MOL0     C 9296   9.399   9.190   8.362 -0.0010  0.2986 -0.1797
   71MOL0     C 9297   9.379   9.318   8.312  0.0915 -0.3331 -0.4216
   71MOL0     O 9298   9.486   9.399   8.282  0.3800 -0.5928 -0.1141
   71MOL0     C 9299   9.462   9.527   8.230 -0.5235 -0.9151 -0.2858
   71MOL0     C 9300   9.404   9.626   8.330 -1.1466 -0.3309  0.2718
   71MOL0     C 9301   9.510   9.653   8.449 -0.4931 -0.6519 -0.5179
   71MOL0     C 9302   9.477   9.782   8.535  0.1435 -0.5541  0.4343
   71MOL0     C 9303   9.462   9.913   8.463  1.0034 -0.6446  1.0112
   71MOL0     C 9304   9.454  10.027   8.421  0.7991  0.4291  0.4755
   71MOL0     C 9305   9.246   9.347   8.274 -0.6410 -0.4893  0.0786
   71MOL0     C 9306   9.137   9.263   8.291 -0.4216  0.4136  0.6679
   71MOL0     H 9307   8.783   8.929   8.222  1.6879 -0.9645  0.7928
   71MOL0     H 9308   8.602   8.790   8.325  0.8852 -0.5802  0.3067
   71MOL0     H 9309   8.514   8.860   8.774  2.0378 -0.4431 -0.4411
   71MOL0     H 9310   8.602   8.707   8.735 -1.8377 -4.8358  1.1416
   71MOL0     H 9311   8.393   8.666   8.852 -0.9448  3.0661  0.5715
   71MOL0     H 9312   8.404   8.591   8.698  0.7236  0.6511  0.5935
   71MOL0     H 9313   8.254   8.776   8.606  0.0856 -0.1252  0.2018
   71MOL0     H 9314   8.246   8.844   8.769 -0.8847 -1.0985  2.0921
   71MOL0     H 9315   8.133   8.587   8.664  4.4397  0.9253 -1.0685
   71MOL0     H 9316   8.160   8.620   8.846 -0.4853  2.4036  1.2566
   71MOL0     H 9317   7.984   8.774   8.635 -2.9111 -2.7166 -0.9094
   71MOL0     H 9318   8.019   8.825   8.801  2.0372 -0.6213 -0.5188
   71MOL0     H 9319   7.896   8.636   8.899  2.2182 -2.8427  0.1142
   71MOL0     H 9320   7.880   8.559   8.748  1.9723 -0.6561  1.9281
   71MOL0     H 9321   7.773   8.842   8.827  1.5072  0.2729 -2.1627
   71MOL0     H 9322   7.751   8.760   8.673  5.7892 -2.1386 -1.4471
   71MOL0     H 9323   7.645   8.673   8.941  2.7587 -1.4455 -0.8017
   71MOL0     H 9324   7.618   8.584   8.789 -3.3304 -0.0517 -0.0444
   71MOL0     H 9325   7.518   8.913   8.957 -1.5683  0.9179  0.0724
   71MOL0     H 9326   7.322   9.105   8.825 -0.8974 -0.8781  0.2352
   71MOL0     H 9327   7.263   9.021   8.963  0.1285 -1.9936  1.3322
   71MOL0     H 9328   7.078   8.932   8.821 -0.5144 -0.3244  0.0773
   71MOL0     H 9329   7.133   9.012   8.683 -2.0079 -0.5951  0.4187
   71MOL0     H 9330   7.059   9.152   8.945 -1.8130 -2.9838  0.1933
   71MOL0     H 9331   7.094   9.228   8.787  2.9546 -1.4617 -0.6695
   71MOL0     H 9332   6.930   9.092   8.684 -0.2315  0.5774  0.0723
   71MOL0     H 9333   6.866   9.226   8.783 -0.8032 -0.8223 -0.0548
   71MOL0     H 9334   6.718   9.049   8.625 -1.0703 -2.7902 -0.7848
   71MOL0     H 9335   6.469   9.035   8.579  0.4608  3.9380 -0.2213
   71MOL0     H 9336   6.031   8.857   8.733  0.1141  1.5909  0.3813
   71MOL0     H 9337   5.770   8.868   8.675 -0.9029 -0.3135 -0.2441
   71MOL0     H 9338   5.553   9.069   8.620  1.1339  1.2010  0.1968
   71MOL0     H 9339   5.585   8.902   8.581  0.3476 -0.0241  2.0041
   71MOL0     H 9340   5.470   8.929   8.369  0.3845  0.6024 -0.4710
   71MOL0     H 9341   5.465   9.105   8.366  0.5132 -1.0519 -1.9209
   71MOL0     H 9342   5.323   9.136   8.550  1.4061  0.0269 -0.5856
   71MOL0     H 9343   5.337   8.960   8.592  2.7871 -0.4556  0.7172
   71MOL0     H 9344   5.222   9.060   8.328 -1.8533  1.2971 -0.1124
   71MOL0     H 9345   5.191   8.908   8.405  0.7876 -0.5080 -0.1889
   71MOL0     H 9346   5.092   9.182   8.477  0.2882 -0.4551 -2.1476
   71MOL0     H 9347   5.065   9.029   8.578 -0.9250 -2.2898 -0.4873
   71MOL0     H 9348   4.960   8.936   8.366 -2.1077 -0.9530  2.7767
   71MOL0     H 9349   4.955   9.108   8.304 -1.9328 -1.3231  0.3054
   71MOL0     H 9350   4.840   9.020   8.573  1.9586  0.2135 -0.4626
   71MOL0     H 9351   4.789   9.167   8.482 -2.2178 -0.4468 -1.6791
   71MOL0     H 9352   4.731   8.887   8.394  0.4303  0.3001 -0.0467
   71MOL0     H 9353   4.693   9.044   8.307 -2.4244 -0.9401  0.9841
   71MOL0     H 9354   5.875   9.158   8.393 -1.5051 -1.0995  0.1374
   71MOL0     H 9355   6.122   9.145   8.447  0.9087  0.5457  0.8763
   71MOL0     H 9356   6.406   9.002   8.990 -1.6031  0.9948 -1.2250
   71MOL0     H 9357   6.644   9.003   9.033 -2.9307  0.3447  1.1966
   71MOL0     H 9358   8.710   8.951   8.715  2.6343 -0.2070  0.5248
   71MOL0     H 9359   8.872   9.100   8.602  1.8674 -0.1489 -1.8910
   71MOL0     H 9360   9.320   8.999   8.415 -0.2494  0.9174  1.1655
   71MOL0     H 9361   9.500   9.161   8.388 -1.0585 -4.3725 -0.4023
   71MOL0     H 9362   9.402   9.519   8.139 -0.8715  1.0976 -0.2777
   71MOL0     H 9363   9.562   9.557   8.197 -0.9710  0.8449 -0.1513
   71MOL0     H 9364   9.379   9.718   8.277  0.8768 -0.0072 -0.2183
   71MOL0     H 9365   9.317   9.586   8.382  1.3067  0.0406  5.2875
   71MOL0     H 9366   9.609   9.665   8.405 -0.5300 -1.7599 -0.9374
   71MOL0     H 9367   9.503   9.575   8.525  3.2255 -1.4334 -0.8053
   71MOL0     H 9368   9.379   9.757   8.577  0.5474 -1.7917  0.6877
   71MOL0     H 9369   9.547   9.785   8.619 -0.2210  0.3842  0.7199
   71MOL0     H 9370   9.440  10.131   8.400  0.7550  0.4029  0.3794
   71MOL0     H 9371   9.231   9.444   8.228  1.3208 -0.4716 -0.6276
   71MOL0     H 9372   9.039   9.308   8.281  0.4091  2.1646  0.1074
   72MOL0     O 9373   6.551   9.698  10.792  0.4177  0.0719  1.1079
   72MOL0     C 9374   6.582   9.808  10.760  0.9913 -0.3330  0.4443
   72MOL0     O 9375   6.494   9.903  10.709  0.0443 -0.7939  0.4005
   72MOL0     C 9376   6.374   9.866  10.664 -0.1001 -0.5381 -0.5985
   72MOL0     C 9377   6.273   9.871  10.754  0.0881 -0.1061  0.2736
   72MOL0     C 9378   6.141   9.842  10.713  0.1386  0.6989  0.6014
   72MOL0     C 9379   6.116   9.807  10.581  0.2969 -0.0496  0.2138
   72MOL0     O 9380   5.982   9.792  10.554  0.2734  0.1321  0.1003
   72MOL0     C 9381   5.939   9.799  10.423  0.2327 -0.3860  0.2815
   72MOL0     C 9382   5.797   9.834  10.430 -0.4762  1.1547 -0.7608
   72MOL0     C 9383   5.746   9.855  10.288 -0.0498 -0.4026 -0.0876
   72MOL0     C 9384   5.597   9.845  10.279 -0.5471  0.0750 -0.0835
   72MOL0     C 9385   5.550   9.893  10.146  0.4292 -0.2854  0.2787
   72MOL0     C 9386   5.403   9.866  10.138  0.3616  0.1231 -0.3939
   72MOL0     C 9387   5.333   9.947  10.022  1.4925 -0.0548 -0.5254
   72MOL0     C 9388   5.181   9.959  10.047  1.1761 -0.3115 -1.1109
   72MOL0     N 9389   5.115  10.050   9.948 -0.2955 -0.1272  0.5134
   72MOL0     C 9390   5.039  10.015   9.844  0.4791  0.1964 -0.5624
   72MOL0     C 9391   4.995  10.133   9.784  1.1074  0.0501  0.1596
   72MOL0     C 9392   4.941  10.147   9.648  0.0691 -0.1821 -0.2059
   72MOL0     C 9393   4.787  10.150   9.657  0.2556  0.4566  0.3348
   72MOL0     C 9394   4.727  10.183   9.520  0.4415 -0.8378  0.7233
   72MOL0     C 9395   4.574  10.156   9.497  0.5758  0.5543 -0.1310
   72MOL0     O 9396   4.495  10.265   9.539 -0.5762  0.1509  0.1658
   72MOL0     C 9397   4.358  10.251   9.558 -0.0367 -0.2174  0.5423
   72MOL0     C 9398   4.278  10.167   9.487  1.1501  0.8321 -0.2052
   72MOL0     C 9399   4.144  10.173   9.506 -0.2684  0.5338 -0.2784
   72MOL0     C 9400   4.081  10.252   9.605 -0.1698 -0.1797 -0.4491
   72MOL0     C 9401   3.931  10.249   9.629  0.1384 -0.0540  0.0380
   72MOL0     O 9402   3.878  10.324   9.734  0.0004  0.3121  0.2341
   72MOL0     C 9403   3.748  10.345   9.734 -0.0605 -0.0509 -1.1860
   72MOL0     C 9404   3.652  10.251   9.775 -0.0592 -0.0199  1.1307
   72MOL0     C 9405   3.517  10.286   9.788 -0.3397 -0.4610 -0.4003
   72MOL0     C 9406   3.474  10.418   9.759 -0.1285  0.5677 -0.0813
   72MOL0     O 9407   3.337  10.437   9.775 -0.5806  0.1427 -0.1069
   72MOL0     C 9408   3.297  10.572   9.761  0.9888 -0.2353 -0.8401
   72MOL0     C 9409   3.135  10.569   9.759 -0.0572 -0.7166  0.7914
   72MOL0     C 9410   3.078  10.546   9.616 -0.6578 -0.1673  0.3634
   72MOL0     C 9411   2.924  10.533   9.632  0.3784  0.1774  0.6555
   72MOL0     C 9412   2.870  10.475   9.490 -0.4940  0.3498 -0.4155
   72MOL0     C 9413   2.717  10.436   9.504  0.1334  0.2131 -0.0030
   72MOL0     C 9414   2.686  10.356   9.383 -0.2394  0.3524 -0.3494
   72MOL0     C 9415   2.559  10.276   9.398  0.2240 -0.0823  0.8380
   72MOL0    Cl 9416   2.413  10.379   9.417 -0.3932 -0.2806 -0.4771
   72MOL0     C 9417   3.572  10.514   9.719  0.6080  0.7221 -0.6335
   72MOL0     C 9418   3.707  10.475   9.715  0.4461  0.1560  0.0212
   72MOL0     O 9419   3.872  10.182   9.551 -0.1337  0.1482 -0.2380
   72MOL0     C 9420   4.163  10.341   9.675 -0.3083 -0.0418  0.8879
   72MOL0     C 9421   4.297  10.348   9.643 -0.2806  0.5448  0.2366
   72MOL0     N 9422   5.034  10.239   9.859 -1.3231 -0.1979  0.0937
   72MOL0     N 9423   5.107  10.185   9.956  0.1166 -0.0863 -0.0200
   72MOL0     C 9424   6.217   9.800  10.485  1.0280 -0.3791  1.0483
   72MOL0     C 9425   6.351   9.824  10.533  0.0337  0.4349  0.4180
   72MOL0     C 9426   6.720   9.846  10.769 -0.7800 -0.6184  0.7351
   72MOL0     C 9427   6.775   9.946  10.687 -0.3519 -0.6896  0.4515
   72MOL0     C 9428   6.917   9.969  10.682 -0.2186  0.1614  0.4903
   72MOL0     C 9429   7.001   9.894  10.766  1.0025  0.0141  0.0364
   72MOL0     O 9430   7.138   9.907  10.767  0.5473 -0.4826 -0.3211
   72MOL0     C 9431   7.194  10.038  10.768  0.4311 -0.6532  0.7899
   72MOL0     C 9432   7.329  10.031  10.832  0.8741 -0.0488 -0.3101
   72MOL0     C 9433   7.405  10.166  10.806 -0.0795 -0.1215  0.2812
   72MOL0     C 9434   7.555  10.159  10.801  0.2136 -0.2538 -0.8213
   72MOL0     C 9435   7.622  10.125  10.927  0.2933 -0.2068 -0.4181
   72MOL0     C 9436   7.666  10.109  11.041 -0.2186 -0.6352  0.2178
   72MOL0     C 9437   6.947   9.790  10.843 -0.6529  0.1044  0.4754
   72MOL0     C 9438   6.811   9.775  10.844  0.2204 -0.2934  0.2561
   72MOL0     H 9439   6.288   9.895  10.858 -1.3357 -0.6407  0.6361
   72MOL0     H 9440   6.065   9.848  10.791 -2.0327  2.5495 -1.4982
   72MOL0     H 9441   5.953   9.708  10.364  1.9270  0.7017 -1.0682
   72MOL0     H 9442   5.991   9.876  10.366  0.4932 -2.4484 -2.5064
   72MOL0     H 9443   5.782   9.921  10.494 -3.5866  2.3325 -2.8378
   72MOL0     H 9444   5.754   9.747  10.482  4.4414 -0.0713  1.8978
   72MOL0     H 9445   5.793   9.792  10.211 -1.6571  2.2249 -3.4843
   72MOL0     H 9446   5.780   9.955  10.261  1.0770 -0.5158  0.8407
   72MOL0     H 9447   5.561   9.743  10.295  0.9425 -0.4715 -0.0815
   72MOL0     H 9448   5.539   9.912  10.344 -4.0057 -1.9759 -0.7596
   72MOL0     H 9449   5.598   9.839  10.064  1.4848  1.7595 -0.5379
   72MOL0     H 9450   5.578   9.998  10.137  2.7122 -0.9643 -1.6521
   72MOL0     H 9451   5.348   9.888  10.230 -1.5328 -0.4980 -1.3082
   72MOL0     H 9452   5.384   9.759  10.122  3.9693 -0.7817  0.4717
   72MOL0     H 9453   5.387  10.042  10.023  0.9307  0.3952  3.2859
   72MOL0     H 9454   5.347   9.896   9.926 -0.0738 -2.2471  0.3239
   72MOL0     H 9455   5.162   9.994  10.149  1.6718 -1.2909 -0.6692
   72MOL0     H 9456   5.137   9.859  10.042  3.1537 -1.4139  1.1700
   72MOL0     H 9457   5.009   9.915   9.812  0.3137  0.4955 -1.3778
   72MOL0     H 9458   4.977  10.073   9.576  2.9100 -1.2381  2.0995
   72MOL0     H 9459   4.989  10.236   9.605  1.1954 -0.1764  0.9889
   72MOL0     H 9460   4.758  10.227   9.728 -0.8768 -0.1704  0.5701
   72MOL0     H 9461   4.739  10.058   9.691  1.2936 -1.2811 -2.5363
   72MOL0     H 9462   4.752  10.287   9.498  2.0416 -0.8556  2.2066
   72MOL0     H 9463   4.778  10.125   9.442 -0.9625 -0.9466 -0.1437
   72MOL0     H 9464   4.548  10.073   9.564  0.3687  0.6191 -0.1337
   72MOL0     H 9465   4.544  10.135   9.394 -3.0544 -1.6135  1.1986
   72MOL0     H 9466   4.313  10.097   9.413 -0.1529 -0.1149  0.0420
   72MOL0     H 9467   4.071  10.113   9.453  1.5503 -2.0195 -0.0790
   72MOL0     H 9468   3.687  10.152   9.801 -2.2038 -0.5732  2.1001
   72MOL0     H 9469   3.442  10.213   9.815  0.8853 -0.9231  2.0387
   72MOL0     H 9470   3.343  10.615   9.672  3.2167  0.6989  0.6814
   72MOL0     H 9471   3.329  10.646   9.835 -1.1800 -0.6424  0.6081
   72MOL0     H 9472   3.093  10.665   9.791 -0.7268 -0.5545 -0.5130
   72MOL0     H 9473   3.098  10.492   9.826  0.2528  0.8880  2.9235
   72MOL0     H 9474   3.123  10.458   9.569 -0.7614 -1.9348  3.3243
   72MOL0     H 9475   3.103  10.626   9.545 -1.9445  0.8447  0.9947
   72MOL0     H 9476   2.895  10.455   9.703 -0.3259 -0.3576 -0.2007
   72MOL0     H 9477   2.876  10.628   9.655 -1.8206 -0.5775 -0.5084
   72MOL0     H 9478   2.928  10.383   9.473 -2.8881 -1.4530  0.5913
   72MOL0     H 9479   2.886  10.541   9.404  1.2799 -0.9259 -1.1444
   72MOL0     H 9480   2.659  10.529   9.507  0.1948  0.2240  1.6588
   72MOL0     H 9481   2.708  10.374   9.593 -1.2448  2.4795  1.5546
   72MOL0     H 9482   2.673  10.417   9.293 -0.9336 -0.1374 -0.5896
   72MOL0     H 9483   2.760  10.279   9.356  0.5105  0.6587  0.7679
   72MOL0     H 9484   2.574  10.200   9.476 -0.4498 -0.6070  0.4780
   72MOL0     H 9485   2.558  10.214   9.307  0.6541  1.5388 -0.3177
   72MOL0     H 9486   3.560  10.622   9.723 -0.7758  0.5501  1.7473
   72MOL0     H 9487   3.783  10.546   9.688  0.0095  0.1639 -1.2209
   72MOL0     H 9488   4.118  10.410   9.746  0.5232  2.1904 -0.6536
   72MOL0     H 9489   4.356  10.420   9.698  0.4876 -0.2666  0.5085
   72MOL0     H 9490   6.190   9.776  10.382  0.7258  0.1175  1.0117
   72MOL0     H 9491   6.438   9.832  10.470  0.2269  2.0440  0.8432
   72MOL0     H 9492   6.711   9.998  10.616 -0.9642 -0.3493  1.2464
   72MOL0     H 9493   6.949  10.049  10.617  1.4403 -0.6160  0.2884
   72MOL0     H 9494   7.135  10.110  10.827  0.8010  1.0347 -0.8249
   72MOL0     H 9495   7.198  10.078  10.667 -0.8255 -2.2809  0.0600
   72MOL0     H 9496   7.308  10.019  10.938  3.0598 -1.9168 -0.0118
   72MOL0     H 9497   7.391   9.950  10.792  1.8671  2.1428 -3.6173
   72MOL0     H 9498   7.377  10.232  10.889  3.2150 -0.7985  2.1017
   72MOL0     H 9499   7.384  10.196  10.703  0.1273 -0.8975  0.0064
   72MOL0     H 9500   7.590  10.080  10.733 -1.8245 -1.8173 -0.1578
   72MOL0     H 9501   7.601  10.250  10.763  3.1647 -1.2635  0.0006
   72MOL0     H 9502   7.713  10.098  11.136 -1.1828  2.0601  1.0989
   72MOL0     H 9503   7.025   9.746  10.904 -1.0781 -1.9187 -0.3462
   72MOL0     H 9504   6.784   9.698  10.915 -1.7664 -0.9167 -1.0908
   73MOL0     O 9505   6.486   8.911   3.894  0.1717 -0.2578 -0.7091
   73MOL0     C 9506   6.547   8.827   3.836  0.6525 -0.3827  0.2599
   73MOL0     O 9507   6.494   8.717   3.782  0.1412  0.2548  0.0163
   73MOL0     C 9508   6.365   8.683   3.818  0.5543  0.2178  0.2809
   73MOL0     C 9509   6.273   8.649   3.723  0.5100  0.3802  0.2778
   73MOL0     C 9510   6.143   8.609   3.753 -0.4900  0.1792  0.6858
   73MOL0     C 9511   6.102   8.613   3.885  0.3143  0.5327 -0.0265
   73MOL0     O 9512   5.974   8.584   3.928 -0.2102  0.8561  0.6405
   73MOL0     C 9513   5.898   8.489   3.844  0.4177 -0.1286 -0.2842
   73MOL0     C 9514   5.765   8.447   3.914 -0.1634  0.3202  1.0195
   73MOL0     C 9515   5.793   8.363   4.040  0.5081  0.0759  0.5141
   73MOL0     C 9516   5.819   8.219   4.002 -0.2545 -0.3562 -0.1822
   73MOL0     C 9517   5.868   8.130   4.118  0.4722  0.3640 -0.4164
   73MOL0     C 9518   5.819   7.995   4.092 -0.1025  1.2096 -0.6382
   73MOL0     C 9519   5.887   7.895   4.187 -0.0250 -0.3909 -0.0385
   73MOL0     C 9520   5.835   7.753   4.154 -0.0250 -0.5857 -0.6728
   73MOL0     N 9521   5.690   7.741   4.164  0.5613 -0.4869  0.0659
   73MOL0     C 9522   5.626   7.702   4.278 -0.6486 -0.3250  0.0016
   73MOL0     C 9523   5.497   7.718   4.246  0.7900 -0.3513 -0.8443
   73MOL0     C 9524   5.385   7.687   4.336 -0.2741  0.0868  0.2433
   73MOL0     C 9525   5.366   7.810   4.438  0.8261 -0.3092 -0.0715
   73MOL0     C 9526   5.270   7.776   4.557 -0.2987  0.3102 -0.0939
   73MOL0     C 9527   5.253   7.874   4.679  0.2332 -0.4430  0.6551
   73MOL0     O 9528   5.155   7.981   4.652  1.1477 -0.2054 -0.2334
   73MOL0     C 9529   5.027   7.950   4.611  0.6926  1.6311 -0.4578
   73MOL0     C 9530   4.944   7.863   4.685 -0.3246  0.3493 -0.0067
   73MOL0     C 9531   4.809   7.855   4.660  0.2242  0.1971  0.8164
   73MOL0     C 9532   4.750   7.935   4.567 -0.5723 -0.4768  0.1022
   73MOL0     C 9533   4.607   7.929   4.546 -0.7289  0.0269 -0.4456
   73MOL0     O 9534   4.543   8.036   4.489 -0.8114  0.4182 -0.3237
   73MOL0     C 9535   4.414   8.008   4.459  0.6247  0.0629 -0.0352
   73MOL0     C 9536   4.314   8.051   4.550  0.4698  1.0283 -0.1899
   73MOL0     C 9537   4.182   8.029   4.523 -0.2135 -0.1707  0.2407
   73MOL0     C 9538   4.139   7.995   4.396  0.6668  0.5984  0.2707
   73MOL0     O 9539   4.002   7.975   4.377  0.1475  0.1033 -0.9979
   73MOL0     C 9540   3.940   8.011   4.250 -0.0695 -0.2806 -0.3596
   73MOL0     C 9541   3.792   8.056   4.274 -0.1773  0.7123  0.0936
   73MOL0     C 9542   3.782   8.146   4.392  0.3358 -0.0247  0.0963
   73MOL0     C 9543   3.644   8.216   4.395  1.0818 -0.1731 -0.1687
   73MOL0     C 9544   3.622   8.324   4.283 -0.8603  0.6887 -0.0308
   73MOL0     C 9545   3.513   8.426   4.317  0.5174  0.1167 -0.8960
   73MOL0     C 9546   3.453   8.483   4.186  0.0012  0.2511 -0.0098
   73MOL0     C 9547   3.370   8.617   4.204 -0.2401  0.0085  0.0776
   73MOL0    Cl 9548   3.236   8.591   4.312  0.0893  0.5624  0.3223
   73MOL0     C 9549   4.236   7.959   4.301  0.0531  0.2833  0.0992
   73MOL0     C 9550   4.374   7.970   4.332  0.3923  0.0223  0.2603
   73MOL0     O 9551   4.559   7.814   4.573 -0.2050 -0.0427 -0.0737
   73MOL0     C 9552   4.831   8.024   4.493  0.1364 -0.6760 -0.0009
   73MOL0     C 9553   4.962   8.038   4.523 -0.5333  0.4407  0.0299
   73MOL0     N 9554   5.490   7.766   4.115  0.3043  0.2299  0.0811
   73MOL0     N 9555   5.603   7.762   4.068  0.5559 -0.0411 -0.1963
   73MOL0     C 9556   6.195   8.644   3.992 -0.1681 -0.5766 -0.1153
   73MOL0     C 9557   6.328   8.673   3.952  0.4770 -0.4886 -0.5748
   73MOL0     C 9558   6.690   8.858   3.826 -0.3347  0.9021 -0.4262
   73MOL0     C 9559   6.776   8.764   3.763 -0.1226 -0.7518  0.9747
   73MOL0     C 9560   6.919   8.777   3.775 -0.7119  0.1527  0.1584
   73MOL0     C 9561   6.970   8.902   3.806 -0.4277 -0.0979  0.7379
   73MOL0     O 9562   7.104   8.928   3.799 -0.3629  0.6927  0.0609
   73MOL0     C 9563   7.203   8.825   3.784 -0.7240 -0.2458  0.0386
   73MOL0     C 9564   7.342   8.877   3.842  0.2295  0.4754 -0.3236
   73MOL0     C 9565   7.343   8.902   3.997 -0.9407 -0.0596  0.6464
   73MOL0     C 9566   7.449   9.005   4.029 -0.1054  0.1032 -0.6137
   73MOL0     C 9567   7.586   8.951   4.027  0.0355 -0.6613 -0.4000
   73MOL0     C 9568   7.698   8.904   4.014 -0.0544 -0.1541 -0.0471
   73MOL0     C 9569   6.886   8.991   3.870  0.1800 -0.3052  0.5504
   73MOL0     C 9570   6.746   8.968   3.881  0.5470 -0.4078  0.0092
   73MOL0     H 9571   6.301   8.672   3.621 -0.7097 -3.6833 -1.2050
   73MOL0     H 9572   6.076   8.595   3.668  2.0592 -0.0180 -1.4286
   73MOL0     H 9573   5.957   8.400   3.818 -2.4300 -1.7715 -1.6688
   73MOL0     H 9574   5.865   8.551   3.761  0.8032  0.3656 -0.0717
   73MOL0     H 9575   5.703   8.385   3.849 -0.3513  2.2051 -0.6776
   73MOL0     H 9576   5.704   8.534   3.941  0.2005  0.1323  2.5407
   73MOL0     H 9577   5.703   8.357   4.102 -1.4311 -1.4742 -2.2350
   73MOL0     H 9578   5.876   8.399   4.101  0.0126  0.2874  1.0740
   73MOL0     H 9579   5.728   8.184   3.953 -0.6557  0.3635  0.0453
   73MOL0     H 9580   5.896   8.206   3.925  0.5201 -1.5978  0.7660
   73MOL0     H 9581   5.828   8.161   4.216  2.1997 -3.6350  1.7858
   73MOL0     H 9582   5.977   8.139   4.121  0.8288 -2.8105 -1.1372
   73MOL0     H 9583   5.850   7.965   3.991  1.9103  2.5755 -0.4824
   73MOL0     H 9584   5.710   8.000   4.094 -0.2733 -0.8458  2.6873
   73MOL0     H 9585   5.996   7.902   4.182 -0.0496 -1.1302 -2.7914
   73MOL0     H 9586   5.863   7.909   4.293 -0.0768  1.2021 -0.2355
   73MOL0     H 9587   5.863   7.671   4.221 -0.4476  0.2662  0.5699
   73MOL0     H 9588   5.875   7.731   4.054  0.4481  4.2657 -1.7926
   73MOL0     H 9589   5.668   7.683   4.376  1.1402  1.6250 -0.3213
   73MOL0     H 9590   5.399   7.590   4.384  0.3319 -0.0040 -0.1166
   73MOL0     H 9591   5.296   7.675   4.273  0.1802 -0.0100 -0.3884
   73MOL0     H 9592   5.317   7.889   4.381 -0.8011 -1.7736 -0.7929
   73MOL0     H 9593   5.454   7.854   4.488 -0.0640  1.2563  0.1915
   73MOL0     H 9594   5.171   7.755   4.518 -0.7376 -1.0021  1.5850
   73MOL0     H 9595   5.297   7.681   4.603  3.3273  1.4061  0.4028
   73MOL0     H 9596   5.350   7.919   4.705  1.1825 -0.4042 -2.5605
   73MOL0     H 9597   5.221   7.815   4.765 -1.7957  0.3721  0.5103
   73MOL0     H 9598   4.984   7.805   4.767  0.0069 -0.0024 -0.4177
   73MOL0     H 9599   4.749   7.791   4.725 -0.8131  1.0984  0.7760
   73MOL0     H 9600   4.331   8.093   4.649 -0.9399  2.8773 -0.6680
   73MOL0     H 9601   4.119   8.040   4.611 -1.3824 -3.1432 -0.0888
   73MOL0     H 9602   3.950   7.932   4.175  1.8119  0.6192 -1.1323
   73MOL0     H 9603   3.992   8.098   4.207 -1.4218  0.5503 -0.4024
   73MOL0     H 9604   3.717   7.976   4.282  0.7215 -0.2382 -0.7068
   73MOL0     H 9605   3.757   8.117   4.191  1.3071  1.0282 -0.3279
   73MOL0     H 9606   3.868   8.213   4.397  0.3688 -0.0920  0.4223
   73MOL0     H 9607   3.791   8.078   4.478 -0.9554  1.2037  1.2490
   73MOL0     H 9608   3.566   8.142   4.381 -0.9971  2.0509 -1.0577
   73MOL0     H 9609   3.625   8.262   4.493  1.3898  1.1220 -0.6869
   73MOL0     H 9610   3.601   8.274   4.188 -1.2534 -0.5893  0.7112
   73MOL0     H 9611   3.720   8.372   4.271 -0.0434 -0.5244  1.4804
   73MOL0     H 9612   3.555   8.507   4.377  0.3028  0.9443 -1.8282
   73MOL0     H 9613   3.430   8.384   4.375  1.0891 -2.6361 -1.9359
   73MOL0     H 9614   3.530   8.498   4.110  1.3775  0.8930  1.4369
   73MOL0     H 9615   3.392   8.401   4.147 -1.2631  0.8299  0.6899
   73MOL0     H 9616   3.332   8.640   4.104 -0.6699  1.8404  0.6211
   73MOL0     H 9617   3.438   8.690   4.248  2.3602 -2.5752  0.6755
   73MOL0     H 9618   4.206   7.942   4.198 -2.3242  1.5795  0.4957
   73MOL0     H 9619   4.441   7.940   4.253 -0.2504 -0.2240 -0.1946
   73MOL0     H 9620   4.784   8.096   4.426  0.3604 -0.9527 -0.4574
   73MOL0     H 9621   5.035   8.111   4.491  3.1394 -3.6724 -2.0629
   73MOL0     H 9622   6.168   8.640   4.097 -0.9905 -0.8816 -0.3279
   73MOL0     H 9623   6.399   8.683   4.033  0.3116 -1.1314 -0.3391
   73MOL0     H 9624   6.747   8.667   3.724  2.6194 -2.1602  2.1187
   73MOL0     H 9625   6.985   8.704   3.730  0.6222  0.6866  1.1507
   73MOL0     H 9626   7.203   8.798   3.678 -1.7715 -3.7985  0.7953
   73MOL0     H 9627   7.167   8.734   3.833 -3.3882 -0.2341 -1.7145
   73MOL0     H 9628   7.414   8.795   3.828  3.6159  3.0923  0.4046
   73MOL0     H 9629   7.381   8.957   3.779 -1.2034  0.8104 -0.8322
   73MOL0     H 9630   7.358   8.810   4.054  1.6401  0.1517  0.4498
   73MOL0     H 9631   7.245   8.944   4.020 -0.1912  0.8073  2.4632
   73MOL0     H 9632   7.442   9.096   3.968  2.0468 -0.2352 -1.4426
   73MOL0     H 9633   7.434   9.035   4.133  0.7108 -0.7959 -0.2254
   73MOL0     H 9634   7.794   8.857   4.006 -0.4183 -1.0421  0.6413
   73MOL0     H 9635   6.915   9.073   3.935  0.4897  0.2282 -0.2383
   73MOL0     H 9636   6.684   9.041   3.933  0.8193 -1.8169  2.4316
   74MOL0     O 9637   7.301   6.323   2.888  0.7251 -0.5573  0.6167
   74MOL0     C 9638   7.328   6.313   2.768 -0.4861 -0.0950  0.8772
   74MOL0     O 9639   7.242   6.292   2.674 -0.0553  0.6768 -0.0887
   74MOL0     C 9640   7.114   6.336   2.680  0.4983 -0.2850  0.2602
   74MOL0     C 9641   7.030   6.301   2.576 -1.6094 -0.1331  0.4455
   74MOL0     C 9642   6.895   6.333   2.574 -0.4434 -0.4278 -0.4047
   74MOL0     C 9643   6.836   6.405   2.680 -0.1340 -0.4145  0.8456
   74MOL0     O 9644   6.706   6.436   2.658  0.5179  0.2634 -0.0585
   74MOL0     C 9645   6.644   6.521   2.757 -0.1042 -0.4889  0.4721
   74MOL0     C 9646   6.495   6.549   2.726  0.5341  0.1948  0.6126
   74MOL0     C 9647   6.443   6.644   2.834  0.3234 -0.8051 -0.0066
   74MOL0     C 9648   6.287   6.650   2.842  0.1028  0.0643 -0.2485
   74MOL0     C 9649   6.229   6.539   2.927 -0.2617  0.0612  0.5598
   74MOL0     C 9650   6.082   6.490   2.895 -0.0779 -0.9765 -0.1019
   74MOL0     C 9651   5.971   6.602   2.903  0.6815  0.1567  0.2659
   74MOL0     C 9652   5.937   6.633   3.055 -0.1904  0.0034  0.0864
   74MOL0     N 9653   5.800   6.686   3.083 -0.9688 -0.4797 -0.5361
   74MOL0     C 9654   5.740   6.703   3.207  0.5515 -0.3387  0.6251
   74MOL0     C 9655   5.641   6.784   3.179 -0.1532 -0.2446 -0.2604
   74MOL0     C 9656   5.543   6.825   3.281 -0.3284  0.5117  0.2116
   74MOL0     C 9657   5.468   6.704   3.344 -0.1866  0.1808 -0.3825
   74MOL0     C 9658   5.352   6.745   3.437 -0.3949  0.1649 -0.8617
   74MOL0     C 9659   5.235   6.828   3.386 -0.2248  0.7654  0.1385
   74MOL0     O 9660   5.159   6.746   3.300 -0.0976  0.4175 -0.8927
   74MOL0     C 9661   5.082   6.649   3.352  0.2551  0.5043 -0.4070
   74MOL0     C 9662   5.071   6.534   3.275 -0.2810  0.6215 -0.6757
   74MOL0     C 9663   4.976   6.435   3.317 -0.4944 -0.0596  0.1781
   74MOL0     C 9664   4.902   6.440   3.436 -0.4801 -0.5311 -0.6665
   74MOL0     C 9665   4.807   6.333   3.486  0.2478  0.1035  0.8878
   74MOL0     O 9666   4.797   6.221   3.414 -0.1856 -0.5309 -0.1027
   74MOL0     C 9667   4.688   6.136   3.420 -0.7341  0.6193  0.1458
   74MOL0     C 9668   4.648   6.050   3.533 -0.3975 -0.1480 -0.0978
   74MOL0     C 9669   4.536   5.969   3.534  0.8035  0.0989  0.4703
   74MOL0     C 9670   4.450   5.973   3.423 -0.3897  0.7909 -0.5894
   74MOL0     O 9671   4.336   5.904   3.428  0.2574 -0.8263 -0.2355
   74MOL0     C 9672   4.263   5.888   3.308  0.2644 -0.2555 -0.6993
   74MOL0     C 9673   4.153   5.782   3.324  0.3010  0.7356  0.3695
   74MOL0     C 9674   4.067   5.763   3.200  0.0108 -0.1579 -0.7905
   74MOL0     C 9675   4.004   5.622   3.193 -0.3170 -0.0540 -0.2228
   74MOL0     C 9676   3.898   5.605   3.302 -0.4050  0.3827 -0.6033
   74MOL0     C 9677   3.882   5.455   3.317 -0.8694 -0.9313 -0.4351
   74MOL0     C 9678   3.758   5.422   3.394 -0.3748 -0.6924  0.3482
   74MOL0     C 9679   3.743   5.273   3.394  0.7834  0.1047  0.3192
   74MOL0    Cl 9680   3.588   5.244   3.479 -0.0311  0.0329  0.1891
   74MOL0     C 9681   4.490   6.046   3.306 -0.5731  0.5783 -0.0392
   74MOL0     C 9682   4.606   6.126   3.308 -0.0050  0.2413 -0.3969
   74MOL0     O 9683   4.733   6.361   3.583  0.3274  0.2107  0.0884
   74MOL0     C 9684   4.929   6.554   3.515  0.2432 -0.0878  1.5020
   74MOL0     C 9685   5.015   6.654   3.475  0.4440  0.0161 -0.4052
   74MOL0     N 9686   5.652   6.836   3.055  0.2246 -0.5052  0.7952
   74MOL0     N 9687   5.732   6.773   2.998  0.3793 -0.8064  0.0894
   74MOL0     C 9688   6.915   6.446   2.784  0.9256 -0.0310  0.4487
   74MOL0     C 9689   7.048   6.410   2.788  0.0773 -0.1783 -0.2980
   74MOL0     C 9690   7.470   6.307   2.731 -0.0860  0.5214 -0.0949
   74MOL0     C 9691   7.571   6.297   2.831  0.6511  0.6610 -0.2089
   74MOL0     C 9692   7.702   6.297   2.796  1.0623 -0.0078 -0.5507
   74MOL0     C 9693   7.749   6.294   2.661 -0.5347 -0.4759 -0.2199
   74MOL0     O 9694   7.885   6.273   2.643  0.0526  0.0966 -0.2465
   74MOL0     C 9695   7.940   6.282   2.508 -0.6170  0.2732  0.4252
   74MOL0     C 9696   8.088   6.294   2.514 -0.4121 -0.1628  0.2238
   74MOL0     C 9697   8.155   6.162   2.556 -0.0129 -0.4445  0.1768
   74MOL0     C 9698   8.311   6.162   2.576  0.3597 -0.7977  0.5819
   74MOL0     C 9699   8.390   6.163   2.454 -0.4765 -0.2352  0.9350
   74MOL0     C 9700   8.462   6.163   2.352  0.0361 -0.8398 -1.0683
   74MOL0     C 9701   7.652   6.307   2.566  0.2838  0.6897  1.5183
   74MOL0     C 9702   7.511   6.301   2.599  0.2753 -0.1732 -0.3615
   74MOL0     H 9703   7.065   6.241   2.493  2.2002  0.2908  1.5530
   74MOL0     H 9704   6.826   6.302   2.496 -1.2449 -1.5048  0.6982
   74MOL0     H 9705   6.692   6.618   2.744 -1.3173  0.2217  1.1071
   74MOL0     H 9706   6.653   6.484   2.860  1.3098 -0.4173  0.3926
   74MOL0     H 9707   6.438   6.458   2.705 -1.6311  1.8323 -1.0285
   74MOL0     H 9708   6.487   6.599   2.629  0.6371 -1.6867 -0.4024
   74MOL0     H 9709   6.481   6.746   2.818 -0.3451 -0.4038  0.9085
   74MOL0     H 9710   6.477   6.601   2.928  1.3507  1.4261  0.7006
   74MOL0     H 9711   6.255   6.745   2.886  0.3454 -0.4932  1.1899
   74MOL0     H 9712   6.245   6.647   2.741  1.6429 -0.0216 -0.9161
   74MOL0     H 9713   6.238   6.582   3.028  2.0946 -0.5048  0.6469
   74MOL0     H 9714   6.290   6.449   2.935 -0.8330 -0.3953 -0.0835
   74MOL0     H 9715   6.062   6.412   2.969  2.0512 -0.1006  1.5322
   74MOL0     H 9716   6.079   6.442   2.797  1.5393 -1.0563 -0.1373
   74MOL0     H 9717   6.003   6.691   2.849 -0.0807  0.2249 -0.0885
   74MOL0     H 9718   5.876   6.577   2.854  0.8902 -2.3006  0.9769
   74MOL0     H 9719   6.020   6.702   3.077  0.7283 -0.2873 -2.2534
   74MOL0     H 9720   5.948   6.543   3.117  0.0371 -1.9344 -2.6071
   74MOL0     H 9721   5.766   6.650   3.299  0.2358  0.5986  1.2736
   74MOL0     H 9722   5.469   6.884   3.225 -0.3775 -0.9426 -1.3586
   74MOL0     H 9723   5.595   6.872   3.364  2.9986 -1.7696 -0.3850
   74MOL0     H 9724   5.542   6.651   3.404 -0.5471 -0.7278 -0.7299
   74MOL0     H 9725   5.433   6.646   3.258  1.0392  0.3671 -1.0263
   74MOL0     H 9726   5.316   6.654   3.486 -0.2701 -0.0625 -1.1847
   74MOL0     H 9727   5.399   6.799   3.520  0.8061 -0.6670 -0.9620
   74MOL0     H 9728   5.280   6.905   3.323 -1.2253  1.3704  0.1506
   74MOL0     H 9729   5.176   6.877   3.464  0.1229  0.5274  0.5600
   74MOL0     H 9730   5.121   6.529   3.179 -0.8479  1.5291 -1.0270
   74MOL0     H 9731   4.959   6.342   3.264 -0.2862 -1.5178  2.5070
   74MOL0     H 9732   4.708   6.055   3.624 -0.3900  0.9076 -0.1445
   74MOL0     H 9733   4.503   5.910   3.619 -1.4831  1.2815  0.4978
   74MOL0     H 9734   4.328   5.853   3.228 -0.1718 -1.8283 -0.3998
   74MOL0     H 9735   4.213   5.982   3.279 -2.1124 -1.1806  0.1332
   74MOL0     H 9736   4.090   5.797   3.412 -0.3295  0.7637 -0.0814
   74MOL0     H 9737   4.212   5.691   3.334 -0.5658  0.1947  0.6484
   74MOL0     H 9738   4.124   5.786   3.110 -2.5210  2.2889 -1.9466
   74MOL0     H 9739   3.979   5.829   3.196  0.2777  0.2962  0.2457
   74MOL0     H 9740   3.965   5.609   3.092  1.1681 -0.0867 -0.8141
   74MOL0     H 9741   4.084   5.550   3.210  0.1596  0.7834  1.2585
   74MOL0     H 9742   3.802   5.652   3.276 -1.5373 -1.0831  0.7416
   74MOL0     H 9743   3.926   5.645   3.400 -1.1169  1.1692 -0.7026
   74MOL0     H 9744   3.967   5.422   3.377 -0.5346  0.4899 -0.0845
   74MOL0     H 9745   3.889   5.402   3.222  1.9450 -0.9426 -0.3061
   74MOL0     H 9746   3.757   5.457   3.497 -3.3762 -1.2641  0.6165
   74MOL0     H 9747   3.667   5.455   3.344  0.0971  0.1646  0.0524
   74MOL0     H 9748   3.823   5.223   3.451  0.8738  2.0842  2.0489
   74MOL0     H 9749   3.738   5.246   3.288 -0.1126  0.9670  0.1306
   74MOL0     H 9750   4.434   6.044   3.213 -0.8182 -6.0562 -0.2494
   74MOL0     H 9751   4.632   6.184   3.220 -1.3634 -0.4156 -1.2672
   74MOL0     H 9752   4.871   6.575   3.604  1.8273  1.8158  2.1590
   74MOL0     H 9753   5.029   6.739   3.541  0.9577 -0.0499 -0.4295
   74MOL0     H 9754   6.875   6.492   2.874  2.7958 -0.6233  1.6422
   74MOL0     H 9755   7.096   6.455   2.875 -1.3892  2.4773 -0.7560
   74MOL0     H 9756   7.539   6.293   2.934  1.7836  2.8044  0.2742
   74MOL0     H 9757   7.764   6.293   2.885 -1.6280  0.4370  1.4970
   74MOL0     H 9758   7.885   6.359   2.452 -2.3037  0.2337  1.9455
   74MOL0     H 9759   7.935   6.184   2.459 -0.7137  0.6751 -0.3993
   74MOL0     H 9760   8.122   6.313   2.411 -1.2404 -1.2109 -0.2594
   74MOL0     H 9761   8.126   6.382   2.567  3.0704  0.6258 -3.1182
   74MOL0     H 9762   8.120   6.092   2.480 -2.1499 -0.7780  1.3981
   74MOL0     H 9763   8.105   6.113   2.640 -0.4690 -0.0834  0.1208
   74MOL0     H 9764   8.345   6.245   2.638  0.6033 -1.5173  1.4405
   74MOL0     H 9765   8.343   6.083   2.644  1.1687  0.4787  1.7351
   74MOL0     H 9766   8.527   6.141   2.269  1.9685  2.8107 -0.7421
   74MOL0     H 9767   7.674   6.327   2.462 -0.1840 -0.3995  1.1965
   74MOL0     H 9768   7.437   6.310   2.520  0.5888  1.3465 -0.5157
   75MOL0     O 9769   8.869   7.682   6.121  0.1279  0.8252  0.3931
   75MOL0     C 9770   8.880   7.764   6.207  0.3256 -0.6766 -0.6265
   75MOL0     O 9771   8.783   7.847   6.254 -0.6911 -0.3124 -0.4880
   75MOL0     C 9772   8.657   7.815   6.227  0.5426 -0.0966  0.0696
   75MOL0     C 9773   8.599   7.859   6.103 -0.4614 -0.1585 -0.5453
   75MOL0     C 9774   8.473   7.817   6.069 -0.0840 -0.4881 -1.0168
   75MOL0     C 9775   8.403   7.732   6.149 -0.3849 -0.2633 -0.0267
   75MOL0     O 9776   8.284   7.683   6.105  0.7174  0.0049 -0.2439
   75MOL0     C 9777   8.208   7.600   6.185  0.4626 -0.2782  0.8102
   75MOL0     C 9778   8.075   7.566   6.117  0.2045  0.3713  0.2603
   75MOL0     C 9779   8.081   7.486   5.983  0.3684 -0.6694  0.4300
   75MOL0     C 9780   7.945   7.497   5.901 -0.2096  0.1790 -0.3069
   75MOL0     C 9781   7.871   7.365   5.873  0.0090 -0.1132  0.4310
   75MOL0     C 9782   7.843   7.289   6.004 -0.1670  0.4422  0.1789
   75MOL0     C 9783   7.777   7.160   5.979 -0.1779  0.0786 -0.2104
   75MOL0     C 9784   7.738   7.109   6.119  0.0275 -1.3900  0.0083
   75MOL0     N 9785   7.673   6.973   6.111 -0.2650  0.3947 -0.2253
   75MOL0     C 9786   7.696   6.860   6.197  0.5138  0.3875  0.2385
   75MOL0     C 9787   7.604   6.768   6.170 -0.2881 -0.0807  0.3829
   75MOL0     C 9788   7.597   6.626   6.222 -0.3784  0.4938 -0.1067
   75MOL0     C 9789   7.509   6.607   6.347  0.2108 -0.4286 -0.1325
   75MOL0     C 9790   7.549   6.692   6.471  0.3104 -0.3635 -0.1977
   75MOL0     C 9791   7.455   6.814   6.495  1.0000 -0.2514  0.5762
   75MOL0     O 9792   7.317   6.766   6.516  1.0678  0.0821  0.0537
   75MOL0     C 9793   7.222   6.860   6.574 -0.1194 -0.3103 -0.1312
   75MOL0     C 9794   7.241   6.988   6.622  0.3029 -0.7548 -0.5355
   75MOL0     C 9795   7.143   7.076   6.658  0.0124 -0.0924 -0.5808
   75MOL0     C 9796   7.004   7.037   6.652 -0.1094 -0.5527 -0.4251
   75MOL0     C 9797   6.895   7.121   6.702 -0.2245  0.1247 -1.1298
   75MOL0     O 9798   6.774   7.063   6.695 -1.0126 -0.3393  0.0511
   75MOL0     C 9799   6.662   7.148   6.709 -0.5287 -0.3659  0.0946
   75MOL0     C 9800   6.634   7.227   6.819 -0.4681  0.4118  0.2436
   75MOL0     C 9801   6.505   7.295   6.820 -0.4342  0.1163  0.3898
   75MOL0     C 9802   6.406   7.279   6.713 -0.5202 -0.2692 -0.6928
   75MOL0     O 9803   6.285   7.349   6.719  0.0157 -0.5578 -0.2137
   75MOL0     C 9804   6.170   7.291   6.655 -0.3222  0.8663  0.0436
   75MOL0     C 9805   6.040   7.371   6.676 -0.7510  0.3611  0.2311
   75MOL0     C 9806   5.949   7.327   6.559  0.0979  0.3861  1.0846
   75MOL0     C 9807   5.813   7.393   6.574  0.1563 -0.0909  0.2666
   75MOL0     C 9808   5.722   7.351   6.460  0.6554 -0.3279 -0.2195
   75MOL0     C 9809   5.597   7.433   6.458  0.8150  0.0483  0.1464
   75MOL0     C 9810   5.524   7.416   6.323 -0.5623 -0.4704  0.0181
   75MOL0     C 9811   5.415   7.512   6.308  0.6505 -0.0747 -0.3622
   75MOL0    Cl 9812   5.295   7.502   6.443  0.5023  0.6961 -0.2814
   75MOL0     C 9813   6.439   7.198   6.605 -0.3838  0.0786 -0.3879
   75MOL0     C 9814   6.567   7.122   6.606  0.0713 -0.3320  0.2555
   75MOL0     O 9815   6.923   7.232   6.760 -0.4741  0.1669  0.1232
   75MOL0     C 9816   6.985   6.905   6.597 -0.0542 -0.6101  0.1458
   75MOL0     C 9817   7.090   6.819   6.555  0.1436 -0.3936 -1.0452
   75MOL0     N 9818   7.530   6.829   6.064  0.3851  0.5074  0.3936
   75MOL0     N 9819   7.565   6.945   6.033 -1.0226  0.7447 -0.0131
   75MOL0     C 9820   8.457   7.693   6.277  0.6012  0.7289 -0.3567
   75MOL0     C 9821   8.583   7.733   6.313  0.3051  0.1970 -0.3227
   75MOL0     C 9822   9.012   7.785   6.270  0.5080  0.0390 -0.6449
   75MOL0     C 9823   9.046   7.865   6.384  0.0687  0.5314  1.2693
   75MOL0     C 9824   9.180   7.880   6.421  0.3636 -0.1244  0.0663
   75MOL0     C 9825   9.285   7.818   6.356  0.0192  0.6517 -0.4853
   75MOL0     O 9826   9.415   7.830   6.391 -0.2937  0.3605  0.4180
   75MOL0     C 9827   9.520   7.733   6.378 -0.0136  0.1811 -0.0935
   75MOL0     C 9828   9.626   7.744   6.479 -0.8593 -0.2619 -0.4143
   75MOL0     C 9829   9.719   7.628   6.477 -0.2751  0.1925  0.1359
   75MOL0     C 9830   9.839   7.642   6.387 -0.9065 -0.5160 -0.8545
   75MOL0     C 9831   9.946   7.721   6.455 -0.0131  0.6878  0.7483
   75MOL0     C 9832  10.032   7.791   6.499  0.1262  0.3552 -0.6890
   75MOL0     C 9833   9.253   7.748   6.236 -0.1161  0.8203 -0.7949
   75MOL0     C 9834   9.117   7.717   6.206  0.2350 -0.6035  0.7763
   75MOL0     H 9835   8.656   7.924   6.037  1.7917 -3.3400 -2.0040
   75MOL0     H 9836   8.429   7.851   5.976 -0.9161 -2.3877 -1.3737
   75MOL0     H 9837   8.186   7.662   6.272 -3.3861  1.7600 -1.3755
   75MOL0     H 9838   8.268   7.513   6.215  2.4475  1.2435  1.4180
   75MOL0     H 9839   8.025   7.660   6.089 -0.1703 -0.2677 -1.2958
   75MOL0     H 9840   8.017   7.502   6.184 -0.2244 -1.3089 -1.6664
   75MOL0     H 9841   8.105   7.382   6.005 -1.9970 -1.4294 -0.3061
   75MOL0     H 9842   8.160   7.526   5.918 -1.9772 -1.8817 -3.5552
   75MOL0     H 9843   7.877   7.559   5.961  0.4903  0.7265 -0.0562
   75MOL0     H 9844   7.968   7.546   5.806  2.7077  0.1368  0.3107
   75MOL0     H 9845   7.930   7.302   5.805 -0.2364 -1.7903  1.7101
   75MOL0     H 9846   7.775   7.397   5.832  0.0092  0.9750  1.2424
   75MOL0     H 9847   7.770   7.346   6.064 -4.5618 -0.6269 -3.6264
   75MOL0     H 9848   7.934   7.264   6.059  0.0963  0.6035 -0.1825
   75MOL0     H 9849   7.687   7.187   5.923 -0.5468 -0.1564  0.2612
   75MOL0     H 9850   7.830   7.083   5.922 -0.4317 -2.0307  2.2165
   75MOL0     H 9851   7.674   7.183   6.169  0.8436  0.6249 -1.7853
   75MOL0     H 9852   7.820   7.103   6.191  0.5047  0.3595 -0.3412
   75MOL0     H 9853   7.779   6.846   6.265  1.5632  2.3313 -0.5649
   75MOL0     H 9854   7.697   6.591   6.249  0.3277  1.3540 -1.4904
   75MOL0     H 9855   7.573   6.562   6.137  1.2813 -1.3594  0.7188
   75MOL0     H 9856   7.511   6.499   6.365  3.7184 -0.4100  0.1222
   75MOL0     H 9857   7.407   6.640   6.321  0.6868  0.9532 -0.3431
   75MOL0     H 9858   7.553   6.622   6.555 -2.8667  0.3598  0.6595
   75MOL0     H 9859   7.646   6.741   6.456 -0.2970  1.0337  0.3429
   75MOL0     H 9860   7.450   6.888   6.415 -0.8376 -2.9646 -2.0853
   75MOL0     H 9861   7.499   6.872   6.575  2.5233 -1.9094  1.0012
   75MOL0     H 9862   7.342   7.026   6.612  0.0353 -0.4372 -2.4487
   75MOL0     H 9863   7.169   7.179   6.679  1.8419 -0.1622 -2.2214
   75MOL0     H 9864   6.711   7.244   6.894 -0.5625 -1.1865  0.7242
   75MOL0     H 9865   6.483   7.366   6.898  3.7900  3.2987 -0.9407
   75MOL0     H 9866   6.152   7.190   6.694 -0.9043  0.8132 -0.3480
   75MOL0     H 9867   6.190   7.288   6.548 -1.4542 -1.0146 -0.1728
   75MOL0     H 9868   6.072   7.475   6.679  0.0022  0.1339  0.3558
   75MOL0     H 9869   5.996   7.345   6.773 -1.8184 -1.5763 -0.7155
   75MOL0     H 9870   5.931   7.220   6.571  1.9890 -0.2044 -0.6404
   75MOL0     H 9871   5.998   7.355   6.465 -1.4469  1.1218  0.4815
   75MOL0     H 9872   5.755   7.371   6.663 -1.3915  1.5481 -0.2685
   75MOL0     H 9873   5.832   7.501   6.570 -0.9116  0.1117  0.3903
   75MOL0     H 9874   5.703   7.245   6.480  0.1661  0.3985  3.9052
   75MOL0     H 9875   5.767   7.373   6.363 -3.2011  4.3163 -1.3599
   75MOL0     H 9876   5.615   7.541   6.467 -2.1472  0.6847 -0.2854
   75MOL0     H 9877   5.531   7.408   6.542  3.4388 -0.9261  2.0348
   75MOL0     H 9878   5.591   7.432   6.238  2.4363  1.1195  2.4611
   75MOL0     H 9879   5.477   7.318   6.317  0.4091 -1.0727  1.6912
   75MOL0     H 9880   5.361   7.499   6.214 -0.5124  0.2359  0.2279
   75MOL0     H 9881   5.443   7.618   6.305 -1.8567  0.6514 -0.8789
   75MOL0     H 9882   6.379   7.191   6.515  0.3289  3.2918 -1.2414
   75MOL0     H 9883   6.594   7.056   6.524 -1.4624 -0.8026  0.1056
   75MOL0     H 9884   6.883   6.873   6.582  0.4487 -1.7725 -1.0256
   75MOL0     H 9885   7.061   6.716   6.534  1.3511 -1.4311  1.8182
   75MOL0     H 9886   8.399   7.629   6.343  2.6035 -1.1686 -0.3135
   75MOL0     H 9887   8.628   7.703   6.407  0.2944 -0.0495 -0.3957
   75MOL0     H 9888   8.969   7.912   6.444  0.1984  2.0014  0.3541
   75MOL0     H 9889   9.203   7.955   6.496  2.1298  0.4438 -0.9854
   75MOL0     H 9890   9.558   7.740   6.276 -0.4916  0.2817 -0.2622
   75MOL0     H 9891   9.477   7.633   6.390 -0.7965  0.6840  1.5089
   75MOL0     H 9892   9.676   7.841   6.470 -1.2125 -0.1108 -0.8003
   75MOL0     H 9893   9.566   7.742   6.571  0.6575 -2.0828  0.6048
   75MOL0     H 9894   9.671   7.536   6.442 -0.8258 -0.0297  1.4294
   75MOL0     H 9895   9.762   7.606   6.575  3.3604  0.5492 -1.2100
   75MOL0     H 9896   9.868   7.539   6.366 -2.9888 -0.7343 -3.0192
   75MOL0     H 9897   9.808   7.695   6.297 -1.2638 -1.3003 -1.2016
   75MOL0     H 9898  10.097   7.868   6.536 -0.5453  0.5696  0.0688
   75MOL0     H 9899   9.329   7.698   6.178 -0.1695 -1.1840  0.7706
   75MOL0     H 9900   9.098   7.664   6.114  0.7005 -0.6982  0.7302
   76MOL0     O 9901   7.843   8.044   4.573  0.5726  0.2745  0.5680
   76MOL0     C 9902   7.874   7.935   4.624 -0.3332  0.1412 -0.4240
   76MOL0     O 9903   7.810   7.813   4.602  0.4739  0.9182  0.0841
   76MOL0     C 9904   7.678   7.807   4.549  0.5152  0.2113  0.2404
   76MOL0     C 9905   7.635   7.672   4.523  0.0803 -0.9331  0.7937
   76MOL0     C 9906   7.507   7.641   4.472  0.5786 -0.5186 -0.2103
   76MOL0     C 9907   7.415   7.741   4.458 -0.2260 -0.2276 -0.2295
   76MOL0     O 9908   7.292   7.699   4.404 -0.3982  0.4247 -0.5096
   76MOL0     C 9909   7.172   7.772   4.436 -0.1353 -0.1843  0.5402
   76MOL0     C 9910   7.123   7.787   4.578  0.6595 -0.0264  0.0134
   76MOL0     C 9911   7.114   7.654   4.652 -0.4419  0.3333  0.5627
   76MOL0     C 9912   7.102   7.686   4.799 -0.4349  0.2639 -0.3983
   76MOL0     C 9913   7.081   7.565   4.881 -0.3986  0.5671  0.5510
   76MOL0     C 9914   6.940   7.495   4.852  0.0153 -0.4247 -0.3954
   76MOL0     C 9915   6.813   7.584   4.875 -0.0005  0.3621 -0.6289
   76MOL0     C 9916   6.692   7.508   4.824  0.1567 -0.0258  0.5788
   76MOL0     N 9917   6.567   7.582   4.846  0.6822 -0.0472  0.1599
   76MOL0     C 9918   6.510   7.601   4.968 -0.4133 -0.5094  0.5425
   76MOL0     C 9919   6.388   7.636   4.931  0.2226 -0.3164 -0.2585
   76MOL0     C 9920   6.282   7.665   5.031  0.4967  0.2672 -0.9162
   76MOL0     C 9921   6.167   7.737   4.962 -0.3569  0.6237 -0.5202
   76MOL0     C 9922   6.166   7.884   4.989 -0.9822 -0.0475  0.3402
   76MOL0     C 9923   6.061   7.961   4.906  0.6354  1.0912  1.2169
   76MOL0     O 9924   6.043   8.099   4.938  0.1877  0.1773 -0.0969
   76MOL0     C 9925   5.974   8.194   4.858  0.2932  0.6211 -0.9299
   76MOL0     C 9926   5.988   8.323   4.897  0.7231 -0.1427  0.3200
   76MOL0     C 9927   5.913   8.424   4.828  0.2018 -0.3622  0.9913
   76MOL0     C 9928   5.818   8.391   4.729  0.2038  0.2011 -0.3154
   76MOL0     C 9929   5.734   8.498   4.675  0.8026 -0.4214 -0.7207
   76MOL0     O 9930   5.729   8.617   4.742 -0.2101  0.1593  0.0807
   76MOL0     C 9931   5.648   8.712   4.692  0.1735 -0.3085  0.2549
   76MOL0     C 9932   5.513   8.746   4.734  0.4645  0.3615 -0.2189
   76MOL0     C 9933   5.442   8.855   4.685 -0.9613  0.6336 -0.0811
   76MOL0     C 9934   5.506   8.934   4.587  0.4358  0.6193 -0.2373
   76MOL0     O 9935   5.426   9.026   4.530  0.9441 -0.3846  0.2982
   76MOL0     C 9936   5.427   9.168   4.592 -0.4476  0.2815  0.9119
   76MOL0     C 9937   5.291   9.229   4.575  0.2493 -0.1634  0.3006
   76MOL0     C 9938   5.284   9.377   4.585 -0.6714 -0.3882  0.3836
   76MOL0     C 9939   5.140   9.423   4.572  0.4541 -1.4845 -0.9306
   76MOL0     C 9940   5.126   9.574   4.575  0.7975 -0.4004  0.5508
   76MOL0     C 9941   4.991   9.616   4.518  0.4252  0.4858 -0.1448
   76MOL0     C 9942   4.962   9.765   4.526 -0.2970  0.3085  0.9723
   76MOL0     C 9943   4.900   9.810   4.661  0.2761  0.5376 -0.2665
   76MOL0    Cl 9944   4.753   9.708   4.707 -0.1835 -0.2392  0.6546
   76MOL0     C 9945   5.628   8.910   4.541  0.2351  0.7004  0.5326
   76MOL0     C 9946   5.697   8.796   4.589  0.0537  0.9375  0.1233
   76MOL0     O 9947   5.660   8.469   4.584 -0.1368 -0.0746  0.8165
   76MOL0     C 9948   5.802   8.255   4.698 -0.0324 -0.4406 -0.1144
   76MOL0     C 9949   5.879   8.158   4.760 -0.0129 -1.0953  0.6056
   76MOL0     N 9950   6.377   7.652   4.792  0.2398 -0.7659  0.4794
   76MOL0     N 9951   6.488   7.627   4.745 -0.3258  0.5346  0.0259
   76MOL0     C 9952   7.444   7.876   4.487 -1.0521  0.2893  0.6477
   76MOL0     C 9953   7.576   7.913   4.536 -0.4983 -0.0833  0.2855
   76MOL0     C 9954   8.015   7.920   4.678 -0.9060 -0.0948 -0.1062
   76MOL0     C 9955   8.069   8.026   4.751 -0.4433  0.2108 -0.3151
   76MOL0     C 9956   8.193   8.011   4.811  0.1127  0.3722 -0.6529
   76MOL0     C 9957   8.273   7.895   4.788  0.5499 -0.0798  0.4728
   76MOL0     O 9958   8.403   7.876   4.833 -0.1228  0.2743 -0.7003
   76MOL0     C 9959   8.478   7.998   4.856  0.0824  0.3490 -0.3956
   76MOL0     C 9960   8.627   7.971   4.863  0.1908  0.0927 -0.4746
   76MOL0     C 9961   8.669   7.930   4.723 -0.1400 -0.1157  0.2932
   76MOL0     C 9962   8.804   7.980   4.677  0.5658  0.4104  0.0878
   76MOL0     C 9963   8.902   7.964   4.784 -1.0582 -0.1200  0.1285
   76MOL0     C 9964   8.997   7.956   4.866  0.0010  0.0093 -0.1460
   76MOL0     C 9965   8.224   7.794   4.708 -0.6276  0.2786 -0.4435
   76MOL0     C 9966   8.096   7.803   4.650 -0.0409 -0.2026  0.5424
   76MOL0     H 9967   7.704   7.590   4.541  0.8831 -1.0962 -2.3756
   76MOL0     H 9968   7.472   7.540   4.450 -1.4759  0.2207 -0.4860
   76MOL0     H 9969   7.095   7.708   4.392  1.0320 -1.6898  0.6056
   76MOL0     H 9970   7.165   7.872   4.392 -1.1069 -0.1617  0.7243
   76MOL0     H 9971   7.019   7.821   4.577  0.0784 -1.6506 -2.2641
   76MOL0     H 9972   7.177   7.868   4.627 -0.7901  0.6278  0.5982
   76MOL0     H 9973   7.210   7.604   4.638  0.0824  1.6111 -0.6089
   76MOL0     H 9974   7.042   7.587   4.602 -1.2367  0.3248  1.6810
   76MOL0     H 9975   7.184   7.746   4.838 -1.4874  1.7163 -0.3362
   76MOL0     H 9976   7.013   7.750   4.795 -0.3641  0.3477 -0.6991
   76MOL0     H 9977   7.076   7.591   4.987  0.2404  1.9927  0.2505
   76MOL0     H 9978   7.160   7.493   4.856 -0.5164  0.4596  0.4852
   76MOL0     H 9979   6.942   7.399   4.904  0.2100  0.7049  1.8204
   76MOL0     H 9980   6.944   7.480   4.744  1.9227  1.7319 -0.6842
   76MOL0     H 9981   6.815   7.598   4.984  3.2155 -1.7369 -0.2796
   76MOL0     H 9982   6.834   7.681   4.830  0.9676 -0.0564 -1.1106
   76MOL0     H 9983   6.671   7.410   4.866  0.1338 -0.5726 -0.6497
   76MOL0     H 9984   6.705   7.492   4.716 -0.9030  0.5746  0.3469
   76MOL0     H 9985   6.551   7.574   5.064 -2.4272 -2.2258  1.0033
   76MOL0     H 9986   6.315   7.727   5.115  2.3081 -0.7373 -0.8304
   76MOL0     H 9987   6.248   7.571   5.076  1.0635  0.4328 -0.1243
   76MOL0     H 9988   6.078   7.687   5.001  1.0486 -1.1750  0.5131
   76MOL0     H 9989   6.168   7.728   4.853 -0.2150  1.0461 -0.5555
   76MOL0     H 9990   6.143   7.906   5.094  0.4514 -1.0436  0.8929
   76MOL0     H 9991   6.265   7.918   4.956  0.0921 -3.7046 -0.6468
   76MOL0     H 9992   5.959   7.921   4.911  1.8185 -2.3767  0.4709
   76MOL0     H 9993   6.087   7.952   4.801 -2.6876 -1.3019  0.4205
   76MOL0     H 9994   6.058   8.353   4.974  1.0337  0.5880 -0.2348
   76MOL0     H 9995   5.944   8.526   4.849  0.1247  0.2944 -1.7476
   76MOL0     H 9996   5.473   8.672   4.803 -1.2808  1.0785 -0.4087
   76MOL0     H 9997   5.337   8.867   4.707 -1.3494  1.4370 -2.0916
   76MOL0     H 9998   5.503   9.221   4.534 -0.6680 -0.3771 -0.0013
   76MOL0     H 9999   5.456   9.163   4.698  1.5206 -1.0211  0.3634
   76MOL0     H10000   5.219   9.181   4.642 -0.5263  1.9552  1.0773
   76MOL0     H10001   5.263   9.197   4.474  2.2553 -0.1646 -0.3049
   76MOL0     H10002   5.357   9.421   4.516 -0.7016  1.2989  1.3625
   76MOL0     H10003   5.318   9.398   4.686 -0.2416 -2.7059  0.7599
   76MOL0     H10004   5.095   9.390   4.478 -4.0975  2.3320 -0.4705
   76MOL0     H10005   5.082   9.389   4.658 -1.1103  1.4645 -0.6604
   76MOL0     H10006   5.198   9.610   4.501 -1.7466  0.1383 -1.8389
   76MOL0     H10007   5.151   9.613   4.674  0.0226  0.1388  0.5508
   76MOL0     H10008   4.900   9.568   4.556 -0.1420  0.6661 -1.2180
   76MOL0     H10009   4.998   9.603   4.410  1.4110 -1.1062  0.0885
   76MOL0     H10010   5.051   9.826   4.506 -0.5318  0.8043  1.4027
   76MOL0     H10011   4.893   9.789   4.445 -0.0400 -0.3791  0.5399
   76MOL0     H10012   4.860   9.912   4.652 -0.7299  0.5100  2.7450
   76MOL0     H10013   4.973   9.788   4.739  1.0819  0.1499 -1.1102
   76MOL0     H10014   5.664   8.983   4.470 -4.4544  2.5553 -0.3098
   76MOL0     H10015   5.791   8.757   4.552 -1.3760 -2.2250 -0.4940
   76MOL0     H10016   5.728   8.225   4.624 -2.1600  1.9611  0.8725
   76MOL0     H10017   5.868   8.052   4.740  0.0887 -1.0172  0.1072
   76MOL0     H10018   7.364   7.946   4.466  1.2465  2.5255 -1.4235
   76MOL0     H10019   7.595   8.017   4.562  4.0392 -0.7721  0.6612
   76MOL0     H10020   8.006   8.111   4.771  0.8537  1.4605 -1.2956
   76MOL0     H10021   8.216   8.086   4.885 -1.7122  0.7441 -0.4190
   76MOL0     H10022   8.441   8.039   4.950  0.7183 -0.3698  0.1765
   76MOL0     H10023   8.468   8.074   4.777  5.8475  2.2092  0.2240
   76MOL0     H10024   8.670   8.063   4.901 -1.6165  1.4022 -1.4330
   76MOL0     H10025   8.655   7.894   4.935  3.4280 -0.0482 -1.7366
   76MOL0     H10026   8.600   7.975   4.651  2.0939  1.0276 -1.2384
   76MOL0     H10027   8.663   7.821   4.710 -1.5248  0.0884 -1.1287
   76MOL0     H10028   8.832   7.927   4.586 -0.4663 -0.2758  0.1483
   76MOL0     H10029   8.789   8.088   4.667  2.0898  0.6943  0.6561
   76MOL0     H10030   9.080   7.950   4.934  0.5592 -0.9467 -0.8731
   76MOL0     H10031   8.291   7.711   4.691 -0.0109  0.8533 -0.8877
   76MOL0     H10032   8.066   7.721   4.585  1.6712 -0.1584 -0.3773
   77MOL0     O10033   2.134   3.651   6.922 -0.2486  1.0136  0.0940
   77MOL0     C10034   2.152   3.552   6.853 -0.0932 -0.6028  0.3807
   77MOL0     O10035   2.066   3.506   6.753 -0.6584 -0.4935 -0.1328
   77MOL0     C10036   1.949   3.565   6.756 -0.6068  0.4741 -0.1775
   77MOL0     C10037   1.936   3.695   6.718  0.4965 -0.4358  0.0495
   77MOL0     C10038   1.806   3.758   6.696 -0.3498  0.5913  0.6761
   77MOL0     C10039   1.694   3.678   6.716 -0.6811  0.4486  0.5828
   77MOL0     O10040   1.574   3.732   6.673  0.3932  0.0266 -0.6192
   77MOL0     C10041   1.460   3.651   6.694  0.3462  0.1128 -0.6156
   77MOL0     C10042   1.348   3.715   6.607  0.2586  0.1389 -0.2532
   77MOL0     C10043   1.210   3.671   6.653  0.0400  0.4613  0.7888
   77MOL0     C10044   1.112   3.744   6.557 -1.2405  0.0666 -0.6915
   77MOL0     C10045   0.964   3.718   6.588  0.2701  0.1490  0.4139
   77MOL0     C10046   0.881   3.771   6.473 -0.0804  0.6490  1.0984
   77MOL0     C10047   0.730   3.742   6.492 -0.4003 -0.0809  0.6068
   77MOL0     C10048   0.649   3.760   6.363  0.0390 -0.2152  0.9226
   77MOL0     N10049   0.498   3.763   6.381  0.1765  0.3496  0.1849
   77MOL0     C10050   0.427   3.660   6.442 -0.6440 -0.0404 -0.0459
   77MOL0     C10051   0.311   3.721   6.473 -0.2871 -0.1477 -0.5942
   77MOL0     C10052   0.190   3.658   6.526  0.5320  0.1381 -0.5134
   77MOL0     C10053   0.100   3.749   6.608  0.6939  0.4760 -0.3251
   77MOL0     C10054  -0.028   3.672   6.655  0.3030  0.1508 -0.4943
   77MOL0     C10055  -0.125   3.761   6.738 -0.6077  0.6936 -0.9695
   77MOL0     O10056  -0.197   3.844   6.647  0.3009  0.4872  0.2665
   77MOL0     C10057  -0.326   3.882   6.675  0.9891 -1.1831 -0.0570
   77MOL0     C10058  -0.361   4.006   6.734  0.4071  0.1988  0.4307
   77MOL0     C10059  -0.495   4.042   6.768 -0.3017 -0.0285 -0.2827
   77MOL0     C10060  -0.596   3.947   6.743  0.0156  0.8396  0.2794
   77MOL0     C10061  -0.739   3.963   6.783  0.7862 -0.0404  0.8570
   77MOL0     O10062  -0.769   4.078   6.853  0.1788  0.0644  0.8120
   77MOL0     C10063  -0.890   4.095   6.899 -0.4090  0.0540  0.0800
   77MOL0     C10064  -0.911   4.083   7.038 -0.0829 -0.6840  0.7052
   77MOL0     C10065  -1.037   4.112   7.092  0.2021 -0.1481 -0.5315
   77MOL0     C10066  -1.145   4.143   7.013  0.2604  0.2737 -0.5848
   77MOL0     O10067  -1.268   4.183   7.056 -0.0204 -0.5991  0.2945
   77MOL0     C10068  -1.306   4.169   7.196 -0.9946  0.4205 -0.4536
   77MOL0     C10069  -1.447   4.213   7.231  1.3810  0.0247 -0.6524
   77MOL0     C10070  -1.481   4.264   7.374  0.7003  0.4177 -0.1649
   77MOL0     C10071  -1.458   4.157   7.483 -0.7857 -0.2598  1.2561
   77MOL0     C10072  -1.466   4.213   7.627 -0.3353  0.2221  0.3053
   77MOL0     C10073  -1.604   4.283   7.664  0.2272  0.4669 -0.2852
   77MOL0     C10074  -1.714   4.182   7.668  0.3610  0.1718 -0.3426
   77MOL0     C10075  -1.719   4.095   7.801 -0.4754  0.3128 -0.7734
   77MOL0    Cl10076  -1.895   4.073   7.840 -0.0394  0.1697  0.4659
   77MOL0     C10077  -1.127   4.142   6.875 -0.3220 -0.3696 -0.4146
   77MOL0     C10078  -1.002   4.117   6.819 -0.2994  0.9122 -0.3801
   77MOL0     O10079  -0.825   3.881   6.735  0.0479 -0.0324  0.3789
   77MOL0     C10080  -0.562   3.816   6.692  0.1032 -0.1669  0.4259
   77MOL0     C10081  -0.428   3.791   6.661 -0.5214  0.8972  0.7767
   77MOL0     N10082   0.309   3.855   6.434 -0.3534 -0.3633  0.5943
   77MOL0     N10083   0.423   3.871   6.365  0.0806 -0.1077  0.3035
   77MOL0     C10084   1.708   3.542   6.766 -0.2245 -0.2077  0.3167
   77MOL0     C10085   1.838   3.489   6.779 -0.1064 -0.4416  0.6354
   77MOL0     C10086   2.291   3.503   6.846  0.4866 -0.0982 -0.0056
   77MOL0     C10087   2.389   3.568   6.919 -0.3395  0.2262  0.4846
   77MOL0     C10088   2.526   3.518   6.902  0.4052 -0.2148 -0.3426
   77MOL0     C10089   2.557   3.429   6.802 -0.5176  0.2347 -0.0855
   77MOL0     O10090   2.677   3.368   6.778  0.1651 -0.6274  0.1635
   77MOL0     C10091   2.795   3.446   6.802 -0.3551  0.2868  0.0205
   77MOL0     C10092   2.856   3.421   6.937 -0.3909  0.4413  1.1032
   77MOL0     C10093   2.985   3.502   6.974  0.1692  0.2259 -0.1573
   77MOL0     C10094   3.045   3.458   7.112  0.2425 -0.3555 -0.3811
   77MOL0     C10095   3.192   3.491   7.116  0.0023 -0.3111  0.1030
   77MOL0     C10096   3.304   3.507   7.125  0.8475  0.1900 -0.0618
   77MOL0     C10097   2.449   3.365   6.733 -0.0589  0.1869  0.2146
   77MOL0     C10098   2.318   3.401   6.758 -0.5973  0.4992 -0.4881
   77MOL0     H10099   2.023   3.760   6.709 -0.9664  1.4109 -2.0004
   77MOL0     H10100   1.797   3.861   6.662  3.6760  1.7111  2.4523
   77MOL0     H10101   1.427   3.657   6.798 -0.2857  0.0151 -0.8065
   77MOL0     H10102   1.470   3.548   6.660  0.4219  0.5726 -2.0336
   77MOL0     H10103   1.374   3.686   6.504  3.8998 -0.6306  0.7253
   77MOL0     H10104   1.344   3.823   6.628 -1.5472 -0.1060  0.8954
   77MOL0     H10105   1.179   3.698   6.755 -4.1157 -0.1257 -0.1509
   77MOL0     H10106   1.208   3.562   6.645  2.0828  0.4474 -0.0244
   77MOL0     H10107   1.141   3.849   6.549  2.0974 -0.6728 -0.1752
   77MOL0     H10108   1.132   3.698   6.459  1.6097 -3.0370  1.1251
   77MOL0     H10109   0.936   3.758   6.686 -2.0767 -1.0834  0.3028
   77MOL0     H10110   0.955   3.609   6.594 -1.4924  0.2852  0.6934
   77MOL0     H10111   0.916   3.729   6.379  2.7538  2.9649  0.9520
   77MOL0     H10112   0.887   3.881   6.473  1.6125  0.5930  1.6044
   77MOL0     H10113   0.720   3.640   6.529 -3.8793  0.3715  1.2252
   77MOL0     H10114   0.695   3.805   6.574  0.6184  0.4733  0.6323
   77MOL0     H10115   0.659   3.673   6.296 -1.6073  1.5118 -1.7952
   77MOL0     H10116   0.680   3.851   6.310 -2.0186  1.7918  2.9214
   77MOL0     H10117   0.455   3.555   6.451 -0.7855  0.0172  1.1608
   77MOL0     H10118   0.221   3.576   6.592 -0.9422  1.6923  2.2657
   77MOL0     H10119   0.137   3.623   6.437 -2.9567  1.0688  1.0233
   77MOL0     H10120   0.068   3.830   6.541  0.5202 -0.9977 -2.0828
   77MOL0     H10121   0.143   3.792   6.699 -0.8076 -0.5711  0.9214
   77MOL0     H10122  -0.080   3.628   6.570 -0.4794 -0.6857  0.4003
   77MOL0     H10123   0.013   3.592   6.718 -2.0274 -0.2119  0.6528
   77MOL0     H10124  -0.059   3.816   6.806  0.6768 -1.0697 -0.7409
   77MOL0     H10125  -0.194   3.699   6.796 -3.0292  1.9935 -2.3065
   77MOL0     H10126  -0.275   4.070   6.755  1.7348 -0.6970 -1.9483
   77MOL0     H10127  -0.514   4.135   6.820  1.0575 -0.0795  0.3327
   77MOL0     H10128  -0.826   4.056   7.099  0.3095  3.0934  2.0832
   77MOL0     H10129  -1.056   4.111   7.199  1.1778  1.3465 -0.3157
   77MOL0     H10130  -1.252   4.240   7.260 -3.1638 -0.9838  3.2475
   77MOL0     H10131  -1.289   4.068   7.235 -0.6884  0.2145 -1.1033
   77MOL0     H10132  -1.514   4.132   7.203  0.2417  1.5177 -2.5233
   77MOL0     H10133  -1.471   4.291   7.158  1.9544  0.6382 -0.2023
   77MOL0     H10134  -1.583   4.304   7.377  1.8154  3.4879  1.1068
   77MOL0     H10135  -1.420   4.352   7.398 -0.2408  1.4499 -1.3835
   77MOL0     H10136  -1.525   4.072   7.467  0.1494 -0.6562 -0.8256
   77MOL0     H10137  -1.360   4.116   7.457  0.1280  1.3801  1.9517
   77MOL0     H10138  -1.397   4.298   7.629 -0.2775  0.1643  0.8132
   77MOL0     H10139  -1.428   4.145   7.704 -0.4301  0.4580  0.5613
   77MOL0     H10140  -1.631   4.359   7.590 -0.6418 -0.0533 -0.5244
   77MOL0     H10141  -1.599   4.335   7.760 -1.4399  0.3863 -0.1203
   77MOL0     H10142  -1.812   4.230   7.671  0.0204 -0.5516  1.1955
   77MOL0     H10143  -1.710   4.116   7.581  0.2008 -2.7112  1.6852
   77MOL0     H10144  -1.666   4.147   7.880 -1.1290  2.2157 -1.5135
   77MOL0     H10145  -1.675   3.997   7.785 -1.1501 -0.4189  1.4737
   77MOL0     H10146  -1.208   4.179   6.814  0.8871 -0.0796 -1.8937
   77MOL0     H10147  -0.977   4.126   6.714 -0.1126  1.4950 -0.2901
   77MOL0     H10148  -0.618   3.729   6.661  0.8453  0.2480 -2.3330
   77MOL0     H10149  -0.405   3.694   6.618 -0.5015  0.9744  0.6141
   77MOL0     H10150   1.626   3.475   6.787 -0.0610 -0.2346  0.8670
   77MOL0     H10151   1.851   3.386   6.811  0.8344 -0.9759 -1.2988
   77MOL0     H10152   2.361   3.660   6.970 -0.0569  2.3268 -2.8579
   77MOL0     H10153   2.598   3.578   6.957 -0.6408  1.1940 -0.4429
   77MOL0     H10154   2.778   3.553   6.788  0.3378  0.3273 -0.5193
   77MOL0     H10155   2.877   3.414   6.737  1.9223  0.2044  2.7207
   77MOL0     H10156   2.775   3.433   7.009 -1.6952  0.9712 -0.3905
   77MOL0     H10157   2.888   3.316   6.934  1.0947  0.8901  0.0469
   77MOL0     H10158   2.957   3.607   6.967  2.4921  0.7896 -3.5821
   77MOL0     H10159   3.070   3.495   6.905 -0.7681  4.2201 -1.9854
   77MOL0     H10160   2.985   3.515   7.183 -2.0102 -3.4339  0.4088
   77MOL0     H10161   3.034   3.351   7.132 -1.9096 -0.4214 -1.6683
   77MOL0     H10162   3.412   3.509   7.126  0.8883 -0.3066 -1.5276
   77MOL0     H10163   2.469   3.289   6.658 -0.8672  0.8374 -0.6904
   77MOL0     H10164   2.248   3.336   6.708 -0.0313 -0.0128 -0.6204
   78MOL0     O10165   5.386   5.953   8.603 -0.3442  0.2646 -0.0745
   78MOL0     C10166   5.427   5.882   8.507  0.1826 -0.7898  0.5315
   78MOL0     O10167   5.354   5.783   8.436 -0.0274  0.2903 -0.2565
   78MOL0     C10168   5.218   5.768   8.456  0.0888 -0.5069 -0.3744
   78MOL0     C10169   5.127   5.855   8.511  0.3880  1.0095 -0.7338
   78MOL0     C10170   4.989   5.829   8.506  0.2624 -0.4575 -0.1051
   78MOL0     C10171   4.944   5.717   8.433  0.8404  0.0820  0.7388
   78MOL0     O10172   4.804   5.700   8.426 -0.1025 -0.3722 -0.0650
   78MOL0     C10173   4.758   5.576   8.376 -0.7373 -0.2527  0.2762
   78MOL0     C10174   4.606   5.565   8.403 -0.7262  0.0399 -0.2130
   78MOL0     C10175   4.538   5.673   8.320  0.4708 -0.1790 -0.8855
   78MOL0     C10176   4.387   5.672   8.349  0.9091  0.4034  0.3207
   78MOL0     C10177   4.312   5.800   8.286  0.7359  0.3383  0.5990
   78MOL0     C10178   4.161   5.791   8.275  0.2147 -0.7839  0.1804
   78MOL0     C10179   4.104   5.920   8.226 -0.9687 -0.7207 -0.2705
   78MOL0     C10180   4.078   6.023   8.340 -0.0030 -0.7647 -0.1230
   78MOL0     N10181   3.967   6.115   8.314 -0.2553 -0.4899 -0.0635
   78MOL0     C10182   3.942   6.193   8.206 -0.0625 -0.6499  0.2005
   78MOL0     C10183   3.819   6.253   8.233 -1.6399  0.3829  0.1528
   78MOL0     C10184   3.762   6.363   8.143  0.2049  0.6389  0.0141
   78MOL0     C10185   3.635   6.310   8.069 -1.2055  0.0725 -0.7630
   78MOL0     C10186   3.522   6.296   8.168  0.3227 -0.8392 -0.0022
   78MOL0     C10187   3.402   6.259   8.082  0.2709  0.5733  0.1162
   78MOL0     O10188   3.287   6.248   8.162  0.3214 -0.2424  0.1951
   78MOL0     C10189   3.165   6.238   8.101 -0.3551  1.2271 -1.2811
   78MOL0     C10190   3.043   6.217   8.178  0.0045  0.6907  0.4479
   78MOL0     C10191   2.924   6.183   8.118 -0.0564 -0.4718 -0.5350
   78MOL0     C10192   2.904   6.196   7.985  0.8484 -0.0457 -0.0734
   78MOL0     C10193   2.770   6.176   7.920 -0.5720 -0.1252 -0.3377
   78MOL0     O10194   2.660   6.151   7.995  0.4899  0.3531  0.3228
   78MOL0     C10195   2.543   6.132   7.927  0.3491 -0.1380  0.0970
   78MOL0     C10196   2.510   6.000   7.885 -0.0089 -0.1739  0.4430
   78MOL0     C10197   2.389   5.974   7.811 -0.3033 -0.6467  0.2767
   78MOL0     C10198   2.291   6.076   7.791 -0.1266  0.7766  0.2684
   78MOL0     O10199   2.166   6.055   7.739 -0.5169 -0.2833 -0.4999
   78MOL0     C10200   2.158   5.948   7.636 -0.1710 -0.3813 -0.2668
   78MOL0     C10201   2.034   5.939   7.556 -0.6503 -0.5523  0.1917
   78MOL0     C10202   1.948   6.062   7.513  0.5297  0.1137  0.4997
   78MOL0     C10203   1.837   6.007   7.420 -0.2289  0.1437 -0.0347
   78MOL0     C10204   1.713   6.090   7.420  0.3978 -0.3172  0.3073
   78MOL0     C10205   1.634   6.103   7.549 -0.8089  0.9265  0.5316
   78MOL0     C10206   1.532   6.216   7.561  1.0842 -0.2503 -0.2351
   78MOL0     C10207   1.602   6.353   7.545 -0.2634 -0.1320 -0.6417
   78MOL0    Cl10208   1.497   6.485   7.613 -0.0023 -0.3080 -0.2631
   78MOL0     C10209   2.325   6.204   7.838  0.3574  0.5330  0.9507
   78MOL0     C10210   2.450   6.232   7.902 -0.0860  0.1997 -1.2155
   78MOL0     O10211   2.767   6.179   7.798 -0.0646  0.4327  0.4570
   78MOL0     C10212   3.024   6.207   7.909  0.5328 -1.3358  0.0353
   78MOL0     C10213   3.145   6.230   7.966 -0.8091  0.5220 -0.4135
   78MOL0     N10214   3.784   6.213   8.360 -0.0568  0.2320 -0.7040
   78MOL0     N10215   3.861   6.119   8.401 -0.5724 -0.4977  0.7492
   78MOL0     C10216   5.035   5.629   8.377 -0.1084  0.5234 -0.2148
   78MOL0     C10217   5.171   5.657   8.391 -0.1887 -0.6069  0.4373
   78MOL0     C10218   5.569   5.900   8.470  0.3776 -0.0270  0.8864
   78MOL0     C10219   5.637   5.812   8.390  1.0766 -0.8467  0.1278
   78MOL0     C10220   5.772   5.817   8.371  0.9126  0.1433 -0.6230
   78MOL0     C10221   5.841   5.926   8.421 -0.2030  1.2915 -0.4785
   78MOL0     O10222   5.978   5.918   8.404 -0.0762  0.3243  0.2885
   78MOL0     C10223   6.042   6.045   8.376 -0.7975  0.0790 -0.4231
   78MOL0     C10224   6.187   6.028   8.333 -0.5429  0.0913 -0.5895
   78MOL0     C10225   6.279   5.928   8.407  0.4448  0.0626 -0.2971
   78MOL0     C10226   6.393   5.896   8.324 -0.2684  0.1493  1.0881
   78MOL0     C10227   6.504   5.995   8.333 -0.0307  0.1969  0.5755
   78MOL0     C10228   6.596   6.069   8.350  0.7826 -0.4024  0.0294
   78MOL0     C10229   5.777   6.013   8.504 -0.1807  0.1552  0.0734
   78MOL0     C10230   5.641   6.005   8.533  0.5407  0.8746  0.1197
   78MOL0     H10231   5.155   5.927   8.587 -1.2677 -0.5719  1.4872
   78MOL0     H10232   4.923   5.896   8.561  1.0534  0.5129 -0.2985
   78MOL0     H10233   4.816   5.506   8.437  0.8095  0.4435 -0.3501
   78MOL0     H10234   4.777   5.565   8.269 -0.7028  0.3027  0.2227
   78MOL0     H10235   4.580   5.580   8.509  0.1165 -2.5589  0.4324
   78MOL0     H10236   4.576   5.461   8.386  2.6264 -1.3838  1.5569
   78MOL0     H10237   4.569   5.654   8.217  0.2265 -3.0073 -0.5259
   78MOL0     H10238   4.580   5.769   8.351  1.3523 -1.2084  1.3239
   78MOL0     H10239   4.340   5.584   8.304  0.3532  0.4430  0.8192
   78MOL0     H10240   4.358   5.667   8.454  2.0886  0.0382  0.6452
   78MOL0     H10241   4.353   5.810   8.185 -0.0479 -0.5645  0.1710
   78MOL0     H10242   4.344   5.885   8.346 -0.2402  0.5646  0.8271
   78MOL0     H10243   4.118   5.763   8.372 -0.6076 -0.4523 -0.0856
   78MOL0     H10244   4.124   5.718   8.203 -2.4084  1.4855 -0.9471
   78MOL0     H10245   4.160   5.967   8.145  0.7177 -2.7005 -0.3230
   78MOL0     H10246   4.006   5.901   8.181  0.9839 -0.7551 -5.0081
   78MOL0     H10247   4.175   6.073   8.353  0.2806 -1.6147  1.4027
   78MOL0     H10248   4.057   5.965   8.431  1.9223  1.6687  2.0287
   78MOL0     H10249   4.012   6.216   8.127  0.4267 -0.1854  0.7485
   78MOL0     H10250   3.830   6.379   8.059 -0.6477  2.9576 -0.2884
   78MOL0     H10251   3.736   6.457   8.193  0.2100  0.6575 -0.0192
   78MOL0     H10252   3.659   6.210   8.030 -4.3800 -0.9336 -0.4189
   78MOL0     H10253   3.600   6.375   7.989  1.6848  0.8526 -1.5316
   78MOL0     H10254   3.541   6.222   8.246  2.7227 -0.7103 -0.3770
   78MOL0     H10255   3.510   6.388   8.226 -0.4467 -1.5517  1.0054
   78MOL0     H10256   3.415   6.170   8.020 -0.7036  0.5375 -0.0509
   78MOL0     H10257   3.393   6.336   8.005  1.6303 -1.3541 -2.1168
   78MOL0     H10258   3.048   6.235   8.285 -1.7538 -1.0487  0.8985
   78MOL0     H10259   2.841   6.148   8.178  1.3899  0.4882  2.1616
   78MOL0     H10260   2.572   5.915   7.914 -0.7994 -0.6892  0.6567
   78MOL0     H10261   2.367   5.871   7.785 -0.3804 -0.8921  1.2558
   78MOL0     H10262   2.179   5.851   7.683 -0.2814 -0.8218 -1.0969
   78MOL0     H10263   2.239   5.962   7.563 -1.8022 -0.6394 -2.2112
   78MOL0     H10264   1.965   5.872   7.607 -0.7371 -0.3238  0.3760
   78MOL0     H10265   2.066   5.883   7.467 -0.0086  0.0763  0.0184
   78MOL0     H10266   2.010   6.131   7.454 -0.4424  0.2397 -0.4015
   78MOL0     H10267   1.899   6.112   7.597  0.2904 -0.3523  0.6404
   78MOL0     H10268   1.871   6.008   7.316 -1.4034  2.2409 -0.4534
   78MOL0     H10269   1.813   5.905   7.449  0.6897 -0.4267 -1.1912
   78MOL0     H10270   1.647   6.038   7.349  1.7356 -3.2807  1.0660
   78MOL0     H10271   1.746   6.186   7.381  3.9470 -1.3499  0.3736
   78MOL0     H10272   1.707   6.107   7.631 -0.3394  1.0039  0.1116
   78MOL0     H10273   1.586   6.005   7.563 -2.5293  1.9275  2.2645
   78MOL0     H10274   1.445   6.219   7.495  0.7047  0.0300  0.2778
   78MOL0     H10275   1.487   6.203   7.659  1.5923 -0.9067 -0.0784
   78MOL0     H10276   1.626   6.373   7.440 -0.4828  1.1007 -0.4711
   78MOL0     H10277   1.701   6.358   7.590 -0.1322  3.4258 -1.0935
   78MOL0     H10278   2.257   6.287   7.824 -1.3773 -1.3062 -3.1111
   78MOL0     H10279   2.471   6.334   7.930  2.5561 -0.2330 -1.4015
   78MOL0     H10280   3.011   6.217   7.802  2.2657  0.3243 -0.0769
   78MOL0     H10281   3.224   6.254   7.895  2.7053 -2.1713  2.2150
   78MOL0     H10282   5.010   5.551   8.306 -0.5001  1.2747 -0.9182
   78MOL0     H10283   5.241   5.583   8.354  0.0727 -2.0024  3.3780
   78MOL0     H10284   5.583   5.728   8.348 -0.3930  0.6509 -1.1362
   78MOL0     H10285   5.821   5.740   8.312 -1.8327 -2.8866  0.7540
   78MOL0     H10286   6.038   6.102   8.469 -0.7465 -1.5198  0.6042
   78MOL0     H10287   5.983   6.104   8.307 -0.5848 -0.7272 -1.3178
   78MOL0     H10288   6.177   5.987   8.232  2.0117 -1.6178 -0.2567
   78MOL0     H10289   6.229   6.128   8.325  1.2830 -0.2320  2.9420
   78MOL0     H10290   6.212   5.842   8.419  0.5978 -0.0492 -0.2476
   78MOL0     H10291   6.304   5.959   8.508  1.9715 -2.7727  0.3031
   78MOL0     H10292   6.428   5.798   8.358  1.8559  0.8960  1.1883
   78MOL0     H10293   6.371   5.881   8.218 -0.9322  0.6997  1.1435
   78MOL0     H10294   6.661   6.148   8.380  0.6802 -0.4131  0.2887
   78MOL0     H10295   5.833   6.091   8.553  3.4863 -1.0484 -1.7757
   78MOL0     H10296   5.603   6.089   8.591  2.7437  1.6789  0.5022
   79MOL0     O10297   3.940   8.508   4.935 -0.1855 -0.8158  0.3946
   79MOL0     C10298   3.912   8.627   4.914  1.0162  0.3247 -0.1700
   79MOL0     O10299   3.791   8.690   4.940 -0.2553 -0.3014  1.2675
   79MOL0     C10300   3.688   8.635   5.008 -0.0028  0.1713 -0.6181
   79MOL0     C10301   3.699   8.529   5.097  0.6301 -1.2602  0.0707
   79MOL0     C10302   3.594   8.491   5.176  0.4946  0.5086 -0.1606
   79MOL0     C10303   3.468   8.550   5.171 -0.2112 -0.0854 -0.1105
   79MOL0     O10304   3.377   8.500   5.264 -0.4039  0.7013 -0.4183
   79MOL0     C10305   3.265   8.581   5.278 -0.3922  0.4459 -0.1757
   79MOL0     C10306   3.164   8.493   5.340 -1.2583 -0.2047 -0.0438
   79MOL0     C10307   3.028   8.557   5.345 -0.2198  0.2738 -0.0788
   79MOL0     C10308   2.938   8.485   5.435  0.2796 -0.1334  0.4981
   79MOL0     C10309   2.795   8.522   5.395  0.8780 -0.0917  0.2872
   79MOL0     C10310   2.697   8.482   5.505  0.4976  0.2247  0.2989
   79MOL0     C10311   2.558   8.521   5.459  0.2071 -0.7892 -0.3911
   79MOL0     C10312   2.461   8.474   5.572 -0.2969 -0.6958 -0.1647
   79MOL0     N10313   2.324   8.518   5.541 -0.3355 -0.3544 -0.0236
   79MOL0     C10314   2.265   8.521   5.418 -0.1392  0.1031  0.0026
   79MOL0     C10315   2.155   8.596   5.440  0.3688  1.0192 -0.4010
   79MOL0     C10316   2.048   8.628   5.331 -0.4658 -0.0616 -0.8534
   79MOL0     C10317   1.912   8.563   5.366  0.1966 -0.3121  0.2483
   79MOL0     C10318   1.819   8.583   5.250 -0.1829  0.0969 -0.1541
   79MOL0     C10319   1.672   8.562   5.289  0.7179  1.1659 -0.7434
   79MOL0     O10320   1.650   8.417   5.325  0.2267  0.2562 -0.5849
   79MOL0     C10321   1.521   8.391   5.363  0.2341  0.0172  0.1762
   79MOL0     C10322   1.403   8.470   5.333  0.0155 -0.0042 -0.7424
   79MOL0     C10323   1.278   8.421   5.382 -0.6107  0.1846 -0.3214
   79MOL0     C10324   1.262   8.299   5.447  0.3396 -0.2604 -0.2149
   79MOL0     C10325   1.136   8.250   5.494  0.0941  0.5062  0.9746
   79MOL0     O10326   1.034   8.342   5.491 -0.2358  0.0087 -0.9877
   79MOL0     C10327   0.905   8.295   5.515  0.4263 -0.1438  0.0026
   79MOL0     C10328   0.837   8.198   5.426 -1.0336 -0.0411 -0.4216
   79MOL0     C10329   0.712   8.151   5.451 -0.0005 -0.7871 -0.3637
   79MOL0     C10330   0.639   8.201   5.569  0.7977 -0.4658 -0.6017
   79MOL0     O10331   0.512   8.153   5.613 -0.5052 -0.0276  0.2200
   79MOL0     C10332   0.431   8.094   5.517  0.3308  0.0598  0.4665
   79MOL0     C10333   0.285   8.098   5.563  0.0313  0.5050 -0.8730
   79MOL0     C10334   0.203   8.014   5.457 -0.2111 -0.8844  0.5108
   79MOL0     C10335   0.054   8.019   5.509  0.2201 -0.0214  0.0718
   79MOL0     C10336  -0.045   8.085   5.411  0.3291 -0.0299  0.2852
   79MOL0     C10337  -0.183   8.098   5.471  0.6121  0.6400 -1.0463
   79MOL0     C10338  -0.191   8.222   5.571  0.3171 -0.5644 -0.0768
   79MOL0     C10339  -0.231   8.182   5.711 -0.4677 -0.0113 -0.1644
   79MOL0    Cl10340  -0.399   8.145   5.715  0.6253 -0.4158  0.4985
   79MOL0     C10341   0.702   8.297   5.654  0.1018  1.0245 -0.0081
   79MOL0     C10342   0.836   8.338   5.625  0.2012 -0.5209  0.3658
   79MOL0     O10343   1.122   8.131   5.525 -0.3408 -0.3644  0.1023
   79MOL0     C10344   1.378   8.220   5.451  0.6262  0.5017 -0.2135
   79MOL0     C10345   1.505   8.268   5.416  0.1645  0.3893 -1.0024
   79MOL0     N10346   2.153   8.644   5.571 -0.0310 -0.5829 -0.1338
   79MOL0     N10347   2.260   8.608   5.621  0.5382  0.5723 -0.7831
   79MOL0     C10348   3.463   8.667   5.086 -0.1427  0.2104 -0.1228
   79MOL0     C10349   3.564   8.710   5.007  0.0884  0.3878  0.5653
   79MOL0     C10350   4.021   8.719   4.870  0.8566  0.1550  0.1956
   79MOL0     C10351   4.001   8.852   4.823  0.1924 -0.4864  0.3668
   79MOL0     C10352   4.103   8.948   4.800 -0.4161  0.1819 -0.3180
   79MOL0     C10353   4.236   8.901   4.817  0.1218  0.0923  0.1647
   79MOL0     O10354   4.343   8.993   4.798  0.0792 -0.0876 -0.1149
   79MOL0     C10355   4.486   8.950   4.784 -0.4833 -0.4197  0.1712
   79MOL0     C10356   4.511   8.888   4.650 -0.0215 -0.6590 -0.3715
   79MOL0     C10357   4.658   8.893   4.604  0.6583  0.0828 -0.1149
   79MOL0     C10358   4.683   9.011   4.513  0.1241 -0.9682  0.6780
   79MOL0     C10359   4.827   9.041   4.492  0.0228  0.0749 -0.4870
   79MOL0     C10360   4.948   9.067   4.485  0.8018 -0.0437  0.0835
   79MOL0     C10361   4.249   8.777   4.873 -1.0987 -0.0670 -0.2358
   79MOL0     C10362   4.151   8.686   4.902 -0.5531  0.8214 -0.6396
   79MOL0     H10363   3.792   8.475   5.113  2.0223  1.0231  0.0785
   79MOL0     H10364   3.626   8.408   5.239  0.4530  1.3129  0.9615
   79MOL0     H10365   3.223   8.602   5.179  0.1402 -2.2759 -1.0725
   79MOL0     H10366   3.284   8.670   5.338  2.2309 -0.9846  1.2884
   79MOL0     H10367   3.203   8.459   5.437  2.4548 -2.0657 -1.9527
   79MOL0     H10368   3.158   8.406   5.274 -0.2487 -1.3522  1.2896
   79MOL0     H10369   2.985   8.566   5.245  1.0586 -1.5305 -0.8401
   79MOL0     H10370   3.026   8.657   5.390 -1.4265  0.3866 -0.3448
   79MOL0     H10371   2.951   8.378   5.414 -0.5370 -0.0228 -0.6965
   79MOL0     H10372   2.948   8.505   5.542 -1.4637  1.0810  0.4883
   79MOL0     H10373   2.770   8.475   5.299 -0.1531  1.3975 -0.2138
   79MOL0     H10374   2.798   8.629   5.375 -0.3053 -0.3442 -1.4113
   79MOL0     H10375   2.724   8.525   5.602 -0.7657  0.7622  0.4368
   79MOL0     H10376   2.705   8.373   5.515  0.8761  0.3547  1.6561
   79MOL0     H10377   2.553   8.629   5.442 -0.4997 -0.8689 -0.6906
   79MOL0     H10378   2.535   8.467   5.367  1.9727 -2.5688  0.1536
   79MOL0     H10379   2.491   8.518   5.667 -0.0534 -0.4687 -0.3463
   79MOL0     H10380   2.462   8.366   5.590  0.7479 -0.5619  0.6441
   79MOL0     H10381   2.302   8.480   5.324  1.9041 -0.6355  1.0686
   79MOL0     H10382   2.089   8.578   5.243  2.8671 -0.3913  0.7102
   79MOL0     H10383   2.037   8.737   5.322 -0.2470  0.3124  2.2742
   79MOL0     H10384   1.878   8.597   5.464  0.9823 -0.4273  0.5757
   79MOL0     H10385   1.938   8.457   5.360  3.7726  0.4088 -6.4409
   79MOL0     H10386   1.826   8.683   5.206 -0.2722 -0.7460 -2.2135
   79MOL0     H10387   1.852   8.511   5.175  0.5376 -0.3448  0.5665
   79MOL0     H10388   1.608   8.601   5.209 -1.7356  1.5272  1.2855
   79MOL0     H10389   1.654   8.626   5.376 -1.2014 -0.3253  0.0081
   79MOL0     H10390   1.396   8.558   5.269 -0.1889 -2.1253 -3.8673
   79MOL0     H10391   1.185   8.471   5.359 -1.1056 -0.9071 -0.7193
   79MOL0     H10392   0.892   8.166   5.337  2.0663  1.9389  0.6018
   79MOL0     H10393   0.671   8.074   5.387  1.0761 -2.8416  1.2865
   79MOL0     H10394   0.455   7.988   5.500 -0.3573  0.1208 -1.1353
   79MOL0     H10395   0.438   8.140   5.418  0.5513  1.5753  1.1657
   79MOL0     H10396   0.245   8.199   5.574  2.2046  1.9309 -4.5276
   79MOL0     H10397   0.281   8.036   5.653  0.3778  1.2024 -0.3657
   79MOL0     H10398   0.224   7.907   5.445  2.9494 -0.0583 -6.6064
   79MOL0     H10399   0.200   8.057   5.356 -2.0853 -1.4036  0.3063
   79MOL0     H10400   0.032   7.913   5.526 -0.2651 -0.4785 -2.9603
   79MOL0     H10401   0.040   8.077   5.601 -0.9963  2.7874 -1.7496
   79MOL0     H10402  -0.044   8.037   5.312 -1.8007 -0.3049  0.3492
   79MOL0     H10403  -0.018   8.187   5.382 -2.0031  0.6101  0.1936
   79MOL0     H10404  -0.221   8.007   5.518 -2.7074  1.8378 -1.1559
   79MOL0     H10405  -0.271   8.109   5.408  2.6620 -0.1288 -4.2595
   79MOL0     H10406  -0.098   8.279   5.564  1.3174 -2.3474 -3.4766
   79MOL0     H10407  -0.269   8.295   5.546  0.7459  0.0025  0.2058
   79MOL0     H10408  -0.208   8.268   5.774 -1.8618 -0.1530  0.5841
   79MOL0     H10409  -0.173   8.106   5.764  0.7921  1.4449  0.6317
   79MOL0     H10410   0.647   8.328   5.742 -0.2926  0.3574 -0.0132
   79MOL0     H10411   0.874   8.419   5.685  0.0728  0.1582 -0.4503
   79MOL0     H10412   1.382   8.123   5.498  2.2307  1.2051  1.2187
   79MOL0     H10413   1.586   8.197   5.424  1.6029  2.1503  1.2551
   79MOL0     H10414   3.374   8.728   5.094 -0.8917 -0.8879  0.1288
   79MOL0     H10415   3.548   8.802   4.952  1.5423  0.2510 -0.1469
   79MOL0     H10416   3.899   8.890   4.814  0.6178  0.4074 -0.8956
   79MOL0     H10417   4.074   9.051   4.783 -4.0148 -0.3351  1.5868
   79MOL0     H10418   4.523   8.889   4.867  0.4580  1.9468  1.5974
   79MOL0     H10419   4.540   9.045   4.780 -2.3133  0.7704  2.0411
   79MOL0     H10420   4.486   8.781   4.652 -2.0376 -0.2362  2.3714
   79MOL0     H10421   4.435   8.933   4.586  1.4640  3.8684  0.6981
   79MOL0     H10422   4.684   8.803   4.548 -1.6019 -0.2145 -0.7467
   79MOL0     H10423   4.724   8.905   4.691 -0.2120 -2.6069  1.0200
   79MOL0     H10424   4.638   8.989   4.416  1.8209 -0.8411 -0.1772
   79MOL0     H10425   4.639   9.104   4.550 -0.4369 -0.5061 -1.0579
   79MOL0     H10426   5.053   9.085   4.478  0.5911  1.2164 -0.1571
   79MOL0     H10427   4.349   8.737   4.884 -1.6507 -1.4472 -0.0906
   79MOL0     H10428   4.171   8.589   4.946  0.6017  1.7080  0.8645
   80MOL0     O10429   8.804  11.063   1.318  0.1662  0.1267  0.3512
   80MOL0     C10430   8.890  11.060   1.230  0.3262 -0.1264  0.0531
   80MOL0     O10431   8.875  11.002   1.108 -0.4763 -0.6196 -0.1063
   80MOL0     C10432   8.755  10.952   1.062  0.0280 -0.2493 -0.5049
   80MOL0     C10433   8.619  10.996   1.091  0.5088 -0.7497 -0.3129
   80MOL0     C10434   8.506  10.954   1.019  0.1509 -0.2345  0.2846
   80MOL0     C10435   8.525  10.854   0.920  0.0640 -0.4598  0.1306
   80MOL0     O10436   8.412  10.815   0.854 -0.7034 -0.0655 -0.2032
   80MOL0     C10437   8.421  10.721   0.746 -0.1329  0.2263  1.2866
   80MOL0     C10438   8.280  10.687   0.698 -0.1312 -0.1240 -0.2883
   80MOL0     C10439   8.249  10.754   0.569 -0.1970  0.2620 -0.6418
   80MOL0     C10440   8.102  10.734   0.526  0.2511  0.5995 -0.1316
   80MOL0     C10441   8.056  10.810   0.405 -0.3013  0.3967 -0.8023
   80MOL0     C10442   8.092  10.741   0.273 -0.3161 -0.0837  0.7016
   80MOL0     C10443   8.074  10.834   0.150  0.2232  0.3804 -0.5281
   80MOL0     C10444   8.118  10.765   0.015  0.8072  0.3089 -0.6058
   80MOL0     N10445   8.121  10.865  -0.094  0.1463 -0.6449  0.0347
   80MOL0     C10446   8.024  10.909  -0.180  0.4258 -0.8664 -0.1175
   80MOL0     C10447   8.076  11.008  -0.254 -0.8571  0.4200  0.0375
   80MOL0     C10448   8.016  11.088  -0.362 -0.5611  0.2552  0.6341
   80MOL0     C10449   7.858  11.085  -0.368 -0.6479  0.6177  0.5196
   80MOL0     C10450   7.799  10.970  -0.436  0.6572  0.4367  0.0184
   80MOL0     C10451   7.650  10.986  -0.418 -0.7386  0.2052  0.5200
   80MOL0     O10452   7.602  10.951  -0.289 -0.2234 -0.5855  0.0468
   80MOL0     C10453   7.469  10.978  -0.257 -0.1619 -0.3727 -0.6590
   80MOL0     C10454   7.369  11.013  -0.343 -0.5659  0.4179  0.5141
   80MOL0     C10455   7.236  11.034  -0.294 -0.8023 -0.1328  0.3674
   80MOL0     C10456   7.205  11.003  -0.161 -0.6654  0.4558  0.2386
   80MOL0     C10457   7.071  11.031  -0.092 -0.1991 -0.2903 -0.1006
   80MOL0     O10458   7.051  10.981   0.036  0.5411  0.3740 -0.3008
   80MOL0     C10459   6.931  11.008   0.096 -0.0789  0.2148  0.6713
   80MOL0     C10460   6.883  10.902   0.172 -0.3555  0.3707  0.5251
   80MOL0     C10461   6.748  10.904   0.214  0.2298 -0.7587  0.2966
   80MOL0     C10462   6.680  11.034   0.215  0.0720  0.6425 -0.2327
   80MOL0     O10463   6.560  11.030   0.284  0.0474  0.7527  0.1629
   80MOL0     C10464   6.460  11.120   0.228  0.6841  0.0333  0.0300
   80MOL0     C10465   6.362  11.157   0.340  0.0181  0.3553 -0.0023
   80MOL0     C10466   6.236  11.226   0.281 -0.2896 -0.8191 -0.5671
   80MOL0     C10467   6.156  11.152   0.175  0.1969 -0.1389  0.0319
   80MOL0     C10468   6.036  11.242   0.129 -0.7907  0.9294 -0.3518
   80MOL0     C10469   5.938  11.155   0.054  0.3029 -0.4246 -0.3169
   80MOL0     C10470   5.832  11.242  -0.016 -0.2097  0.2584  0.2534
   80MOL0     C10471   5.725  11.154  -0.082 -0.1197 -0.0273 -0.0394
   80MOL0    Cl10472   5.629  11.073   0.046  0.0261 -0.4592 -0.2716
   80MOL0     C10473   6.744  11.150   0.176 -0.0587  0.0968  0.3482
   80MOL0     C10474   6.865  11.129   0.102 -0.9065 -0.0532  0.3983
   80MOL0     O10475   6.988  11.097  -0.158 -0.9047  0.0996  0.5019
   80MOL0     C10476   7.308  10.951  -0.075 -0.2060 -0.3340 -0.1799
   80MOL0     C10477   7.436  10.947  -0.125 -0.4244 -0.9559  0.1623
   80MOL0     N10478   8.211  11.023  -0.217  0.5986 -0.1067  0.3399
   80MOL0     N10479   8.231  10.933  -0.130 -0.3479 -0.2573 -0.0587
   80MOL0     C10480   8.653  10.806   0.885  0.1633 -0.1185  0.2086
   80MOL0     C10481   8.764  10.866   0.947  0.1559  0.2915  0.0506
   80MOL0     C10482   9.031  11.091   1.267 -1.1035 -0.5748 -0.2279
   80MOL0     C10483   9.136  11.030   1.197  0.5692  0.5129  1.0688
   80MOL0     C10484   9.274  11.044   1.236  0.3533  0.5353  0.0719
   80MOL0     C10485   9.306  11.114   1.352 -0.3952 -0.2438 -0.6295
   80MOL0     O10486   9.437  11.130   1.407  0.8118  0.6463  0.2588
   80MOL0     C10487   9.557  11.091   1.343  0.0350  0.2464  0.0199
   80MOL0     C10488   9.677  11.160   1.417  0.6842  0.0801  0.3689
   80MOL0     C10489   9.801  11.169   1.333 -0.0133 -0.9349 -0.6946
   80MOL0     C10490   9.921  11.221   1.403 -1.3283 -0.9674  0.3089
   80MOL0     C10491   9.896  11.334   1.492  0.2272 -0.5789 -0.6901
   80MOL0     C10492   9.862  11.423   1.561 -0.3819  0.1619 -0.7966
   80MOL0     C10493   9.200  11.176   1.422  0.4295 -0.1824  0.0748
   80MOL0     C10494   9.060  11.165   1.378 -0.6408 -1.5979  0.4531
   80MOL0     H10495   8.589  11.052   1.179 -0.9980 -0.3268 -1.0637
   80MOL0     H10496   8.407  10.993   1.040  0.7821  1.7551 -0.2023
   80MOL0     H10497   8.464  10.629   0.787 -1.7417  0.3000  3.3663
   80MOL0     H10498   8.479  10.759   0.662  0.3290  0.3490  1.6538
   80MOL0     H10499   8.209  10.698   0.781  1.7317  0.4442  1.3042
   80MOL0     H10500   8.284  10.582   0.666 -2.6944  0.1104 -1.6759
   80MOL0     H10501   8.317  10.718   0.491 -0.6558 -1.9058 -0.0976
   80MOL0     H10502   8.269  10.861   0.579  2.7850 -0.3630  1.2117
   80MOL0     H10503   8.083  10.628   0.505  0.5681  0.1887  1.4952
   80MOL0     H10504   8.046  10.774   0.612 -2.9067 -2.7272 -0.3745
   80MOL0     H10505   8.099  10.911   0.410  0.8511  0.0810 -3.0187
   80MOL0     H10506   7.948  10.827   0.409 -0.0415  1.9368  0.8931
   80MOL0     H10507   8.027  10.653   0.271 -0.8380  0.3055 -0.4548
   80MOL0     H10508   8.186  10.686   0.263 -0.6460 -0.8489  1.7109
   80MOL0     H10509   7.967  10.857   0.155 -0.2386 -1.2867 -1.7434
   80MOL0     H10510   8.137  10.922   0.164  2.3137 -0.2315 -4.6548
   80MOL0     H10511   8.047  10.690  -0.020 -0.1036  0.7592  0.2282
   80MOL0     H10512   8.221  10.727   0.021  0.8113 -0.0292 -2.4139
   80MOL0     H10513   7.918  10.886  -0.179 -0.4102  2.3966  0.1395
   80MOL0     H10514   8.061  11.059  -0.457  1.4674  2.0034  0.9929
   80MOL0     H10515   8.049  11.191  -0.351  2.8836 -0.5178 -1.1239
   80MOL0     H10516   7.829  11.177  -0.419 -1.8211 -1.9729 -4.0410
   80MOL0     H10517   7.827  11.095  -0.264  0.6271 -1.6145  1.1880
   80MOL0     H10518   7.813  10.971  -0.545  0.3562 -0.1709 -0.0319
   80MOL0     H10519   7.833  10.873  -0.398  1.6603  0.9075  0.3571
   80MOL0     H10520   7.599  10.921  -0.490  0.2570  0.4248 -0.4163
   80MOL0     H10521   7.635  11.091  -0.445  1.5716 -0.1892 -3.0223
   80MOL0     H10522   7.394  11.037  -0.446  0.0733 -0.5889  0.4189
   80MOL0     H10523   7.164  11.076  -0.363 -0.1882  0.7348  0.2419
   80MOL0     H10524   6.943  10.812   0.176  0.8013  1.1219  0.5065
   80MOL0     H10525   6.697  10.823   0.265 -1.7915  0.3067  0.0890
   80MOL0     H10526   6.407  11.068   0.147  1.9242  1.3477 -1.6873
   80MOL0     H10527   6.497  11.208   0.176  2.7110 -0.2823  0.8505
   80MOL0     H10528   6.405  11.216   0.422  0.7062  0.8602 -0.7005
   80MOL0     H10529   6.336  11.057   0.374 -0.6618 -0.3913 -2.5411
   80MOL0     H10530   6.259  11.326   0.242  0.1863 -1.0774 -0.9485
   80MOL0     H10531   6.175  11.237   0.371  0.6123  1.4422 -0.1509
   80MOL0     H10532   6.214  11.126   0.086 -0.0239  1.3346 -0.5590
   80MOL0     H10533   6.123  11.054   0.211  1.1449 -0.2723  0.5837
   80MOL0     H10534   6.078  11.325   0.071  2.3467 -0.2723 -0.0091
   80MOL0     H10535   5.995  11.281   0.223  2.6713  2.2755  0.7545
   80MOL0     H10536   5.899  11.079   0.122  1.3698 -0.6049  0.1128
   80MOL0     H10537   5.990  11.099  -0.024 -0.1039 -0.6273 -0.4474
   80MOL0     H10538   5.798  11.316   0.057  0.2553 -0.9007  1.7014
   80MOL0     H10539   5.884  11.292  -0.099  2.3885  1.1506  2.2677
   80MOL0     H10540   5.767  11.068  -0.134  1.5068 -0.9939  2.6641
   80MOL0     H10541   5.670  11.223  -0.147 -1.4968 -0.8433  0.2186
   80MOL0     H10542   6.699  11.248   0.184 -0.9084  0.1890 -3.6066
   80MOL0     H10543   6.909  11.212   0.047  1.7718 -1.9023 -0.4031
   80MOL0     H10544   7.278  10.931   0.028  2.0247 -0.7616  0.4400
   80MOL0     H10545   7.508  10.907  -0.054  0.0782  0.7280  0.6657
   80MOL0     H10546   8.654  10.724   0.815  1.6923 -0.3386  0.4576
   80MOL0     H10547   8.864  10.844   0.913 -0.0885 -0.8859  0.0332
   80MOL0     H10548   9.123  10.970   1.107 -0.1766  0.9263  0.8959
   80MOL0     H10549   9.347  10.983   1.184 -1.0871  1.5587 -3.3979
   80MOL0     H10550   9.559  11.137   1.244  0.8465  3.1386  1.2648
   80MOL0     H10551   9.572  10.983   1.336 -3.0044 -0.2241 -0.7470
   80MOL0     H10552   9.643  11.253   1.464  2.9580  0.7488  0.8120
   80MOL0     H10553   9.681  11.099   1.508 -2.3481  0.9704  1.2187
   80MOL0     H10554   9.781  11.220   1.238 -0.2035  1.0842  0.3768
   80MOL0     H10555   9.825  11.071   1.289  2.9506  0.0131 -1.3624
   80MOL0     H10556   9.956  11.146   1.474 -1.2327 -1.4895 -0.2815
   80MOL0     H10557  10.000  11.258   1.336  1.1872  0.4280  3.7270
   80MOL0     H10558   9.814  11.503   1.614  0.0691 -0.0953  0.0206
   80MOL0     H10559   9.218  11.223   1.517 -1.0041 -1.2518  0.9120
   80MOL0     H10560   8.987  11.221   1.436  0.2374  1.3280 -1.0757
   81MOL0     O10561   4.127   7.561   0.435  0.1552  0.3545 -0.3722
   81MOL0     C10562   4.238   7.519   0.398 -0.6883  0.7176  0.2024
   81MOL0     O10563   4.258   7.407   0.316  0.3673  0.1458 -0.1926
   81MOL0     C10564   4.160   7.322   0.282  0.5341  1.2378  0.3096
   81MOL0     C10565   4.023   7.343   0.289 -0.2456  0.6210  0.0073
   81MOL0     C10566   3.930   7.254   0.234 -0.6576  0.7759 -0.2902
   81MOL0     C10567   3.976   7.136   0.166 -0.4443 -0.3690 -0.2939
   81MOL0     O10568   3.902   7.047   0.089  0.7939 -0.3004 -0.1013
   81MOL0     C10569   3.759   7.082   0.072 -0.4614  0.1497  0.8883
   81MOL0     C10570   3.690   6.962  -0.006 -0.2065 -0.6743  0.6092
   81MOL0     C10571   3.538   6.970  -0.027  1.0994 -0.1385 -0.1876
   81MOL0     C10572   3.490   7.094  -0.113 -0.2755 -0.1524 -0.1350
   81MOL0     C10573   3.337   7.093  -0.107 -0.3464 -0.0905  0.0806
   81MOL0     C10574   3.257   6.995  -0.191 -0.2021 -0.2849 -0.4332
   81MOL0     C10575   3.263   7.035  -0.341 -0.1145  0.3502 -0.2316
   81MOL0     C10576   3.141   6.968  -0.417  0.3190 -1.3425 -0.5363
   81MOL0     N10577   3.006   7.028  -0.374 -0.6675 -0.1960  0.1348
   81MOL0     C10578   2.895   6.962  -0.321  0.3701  0.5179  0.0720
   81MOL0     C10579   2.803   7.061  -0.287 -0.3685 -0.0787  0.4218
   81MOL0     C10580   2.662   7.049  -0.239  1.0353  0.3996  0.3107
   81MOL0     C10581   2.575   6.995  -0.358  0.0157  0.0933 -0.0252
   81MOL0     C10582   2.432   6.977  -0.305 -0.4127 -0.0217 -0.8289
   81MOL0     C10583   2.362   6.864  -0.377  0.4110  0.8356  0.7916
   81MOL0     O10584   2.241   6.851  -0.292  0.5412  0.7179 -0.4887
   81MOL0     C10585   2.136   6.786  -0.349 -0.4207 -0.7118  0.3712
   81MOL0     C10586   2.149   6.706  -0.463 -0.5435  1.3099 -0.9721
   81MOL0     C10587   2.025   6.643  -0.506  0.1397 -0.0273  0.4196
   81MOL0     C10588   1.906   6.658  -0.440 -0.2064 -1.0967 -0.3455
   81MOL0     C10589   1.783   6.591  -0.477  0.0129 -0.6184  0.7002
   81MOL0     O10590   1.663   6.639  -0.431 -0.2805 -0.2580 -0.2315
   81MOL0     C10591   1.551   6.564  -0.467 -0.0729 -0.8146  0.3964
   81MOL0     C10592   1.486   6.499  -0.371  0.0573  0.3115 -0.3107
   81MOL0     C10593   1.360   6.446  -0.393 -0.7856 -0.0068  0.3534
   81MOL0     C10594   1.308   6.433  -0.522 -0.3495 -0.5436  0.2884
   81MOL0     O10595   1.193   6.365  -0.566  0.1739  0.0525  0.0858
   81MOL0     C10596   1.132   6.289  -0.455 -0.1884  0.1927  0.6329
   81MOL0     C10597   1.051   6.175  -0.507 -0.0098 -0.0118 -0.0537
   81MOL0     C10598   0.942   6.201  -0.603  0.1024 -1.0832  0.2757
   81MOL0     C10599   0.840   6.089  -0.599  0.3934  0.7780 -0.2423
   81MOL0     C10600   0.722   6.116  -0.698  0.1484 -1.0073  0.4109
   81MOL0     C10601   0.638   6.246  -0.657  0.2675  0.2025 -0.7837
   81MOL0     C10602   0.511   6.270  -0.737  0.1241  0.8346  0.2945
   81MOL0     C10603   0.416   6.369  -0.679  0.6515  0.7319  0.3631
   81MOL0    Cl10604   0.254   6.353  -0.757  0.0139  0.0437  0.1621
   81MOL0     C10605   1.390   6.489  -0.629  0.7174  0.0473  0.3419
   81MOL0     C10606   1.501   6.560  -0.598  0.0178  0.2610 -0.1883
   81MOL0     O10607   1.798   6.503  -0.564  0.4698 -0.4615 -0.0388
   81MOL0     C10608   1.897   6.745  -0.331 -0.5920 -0.0799  0.0198
   81MOL0     C10609   2.013   6.804  -0.283  0.0767  0.2857 -0.3076
   81MOL0     N10610   2.868   7.184  -0.308 -0.1029  0.5830 -0.6467
   81MOL0     N10611   2.985   7.167  -0.364  0.7090  0.5678  0.0863
   81MOL0     C10612   4.120   7.115   0.165  0.2756  0.8833  0.3089
   81MOL0     C10613   4.204   7.204   0.218  1.1527  0.0905  0.2880
   81MOL0     C10614   4.359   7.604   0.427  0.2477 -0.0264 -0.8659
   81MOL0     C10615   4.338   7.735   0.477 -0.9733 -0.6222  0.5625
   81MOL0     C10616   4.452   7.815   0.487 -0.1176 -0.8551  0.1667
   81MOL0     C10617   4.583   7.776   0.455 -1.2518 -0.5095  0.2819
   81MOL0     O10618   4.679   7.868   0.484  1.1948  0.1697 -0.5481
   81MOL0     C10619   4.814   7.837   0.504  0.4139  0.7125 -0.2780
   81MOL0     C10620   4.890   7.969   0.533  0.2540  0.0066  0.5087
   81MOL0     C10621   5.039   7.939   0.512 -0.3085  0.2717 -0.3133
   81MOL0     C10622   5.129   8.052   0.570  0.3367 -0.1087 -0.2151
   81MOL0     C10623   5.267   8.021   0.583  0.5649  0.1578 -0.0090
   81MOL0     C10624   5.387   7.999   0.595 -0.5427  0.3208 -0.2521
   81MOL0     C10625   4.599   7.643   0.419  0.0381 -0.5290  0.0808
   81MOL0     C10626   4.493   7.557   0.403  0.7548 -0.8371 -0.4712
   81MOL0     H10627   3.978   7.428   0.339 -0.7518  0.7508 -0.6558
   81MOL0     H10628   3.825   7.281   0.247 -0.4450  1.6240 -0.2685
   81MOL0     H10629   3.743   7.174   0.015 -3.1596 -1.4745 -1.2651
   81MOL0     H10630   3.702   7.091   0.165 -2.6163 -0.5355 -0.2965
   81MOL0     H10631   3.714   6.869   0.047  1.9697 -0.3561  0.2888
   81MOL0     H10632   3.732   6.951  -0.107  2.1340  1.8770  1.1931
   81MOL0     H10633   3.478   6.952   0.063 -1.4026 -3.5135 -2.3289
   81MOL0     H10634   3.512   6.887  -0.093 -0.9974 -0.5154  1.0263
   81MOL0     H10635   3.523   7.185  -0.062  0.3173 -1.7994  2.6458
   81MOL0     H10636   3.549   7.096  -0.205  1.6854  0.6743  1.0739
   81MOL0     H10637   3.308   7.195  -0.131  0.7142 -0.3014 -2.4264
   81MOL0     H10638   3.311   7.070  -0.004  0.3657 -0.5933  0.1646
   81MOL0     H10639   3.156   7.016  -0.154  1.2779  2.6573  2.3741
   81MOL0     H10640   3.284   6.893  -0.160 -0.7448  0.0266  1.1711
   81MOL0     H10641   3.260   7.144  -0.346  0.7144  0.4810  1.2754
   81MOL0     H10642   3.357   7.005  -0.389 -0.1510  0.0173 -0.0951
   81MOL0     H10643   3.126   6.861  -0.400 -2.6741 -0.9972 -0.4575
   81MOL0     H10644   3.146   6.987  -0.525 -1.6566  0.3068 -0.4047
   81MOL0     H10645   2.893   6.854  -0.310 -0.4744  0.4667 -0.4890
   81MOL0     H10646   2.624   7.148  -0.212  0.0079  0.2183 -0.4520
   81MOL0     H10647   2.655   6.980  -0.154  0.3611 -1.6968 -1.3581
   81MOL0     H10648   2.612   6.900  -0.397 -2.4680 -0.2152 -1.9632
   81MOL0     H10649   2.590   7.065  -0.441  0.0836 -1.7423 -1.6626
   81MOL0     H10650   2.436   6.957  -0.197 -1.1282  1.2452 -0.5551
   81MOL0     H10651   2.388   7.077  -0.313  1.0578  1.0555  2.7097
   81MOL0     H10652   2.421   6.772  -0.383 -0.3774  0.3385  0.5319
   81MOL0     H10653   2.348   6.899  -0.480 -0.8246 -1.5484  0.0675
   81MOL0     H10654   2.239   6.701  -0.523 -1.0597 -1.0668 -1.6526
   81MOL0     H10655   2.033   6.581  -0.595  2.4295  2.0423 -0.9817
   81MOL0     H10656   1.528   6.504  -0.271  0.6400 -0.1360 -0.5243
   81MOL0     H10657   1.312   6.403  -0.306 -0.6256 -0.9170 -0.0027
   81MOL0     H10658   1.072   6.363  -0.401 -1.3973 -0.4158  0.1563
   81MOL0     H10659   1.200   6.255  -0.377 -0.5855  1.3894  1.5382
   81MOL0     H10660   1.006   6.126  -0.420  0.6412 -0.3187  0.1196
   81MOL0     H10661   1.110   6.097  -0.557  0.5261  0.8744 -0.8280
   81MOL0     H10662   0.970   6.220  -0.707  0.7571  1.6803  0.8851
   81MOL0     H10663   0.888   6.289  -0.567  0.1736 -0.3191 -1.3839
   81MOL0     H10664   0.899   6.006  -0.640  1.2084  1.4358 -0.4465
   81MOL0     H10665   0.794   6.064  -0.503  2.6670 -0.0445  0.6862
   81MOL0     H10666   0.648   6.037  -0.688 -0.0392 -0.6866  1.7288
   81MOL0     H10667   0.762   6.121  -0.799  0.1250  0.6734  0.4595
   81MOL0     H10668   0.705   6.332  -0.667  2.1955 -1.0184  0.7440
   81MOL0     H10669   0.610   6.239  -0.551  2.6917 -0.6241 -0.1296
   81MOL0     H10670   0.545   6.310  -0.834  2.1998  3.8632  2.0964
   81MOL0     H10671   0.456   6.177  -0.750 -0.6272  1.2810  0.2414
   81MOL0     H10672   0.444   6.472  -0.700  1.4752  0.5745  0.6536
   81MOL0     H10673   0.401   6.360  -0.571 -1.7104  2.0701  0.2097
   81MOL0     H10674   1.357   6.473  -0.731 -1.4639  2.8156  0.4803
   81MOL0     H10675   1.554   6.614  -0.676  0.4459  0.3662  0.1637
   81MOL0     H10676   1.810   6.744  -0.267 -0.8445 -1.2698 -0.3186
   81MOL0     H10677   2.009   6.842  -0.182  0.0446 -2.2017  0.6851
   81MOL0     H10678   4.159   7.026   0.116 -0.7911  1.1254 -1.0551
   81MOL0     H10679   4.312   7.193   0.210  1.3402  2.1152 -0.5815
   81MOL0     H10680   4.243   7.786   0.490 -1.4046 -1.0658 -0.6469
   81MOL0     H10681   4.456   7.919   0.520  4.7722 -0.0410 -2.0586
   81MOL0     H10682   4.853   7.789   0.414  1.0394 -1.5132  1.1123
   81MOL0     H10683   4.824   7.765   0.585 -3.0454  0.2950 -0.0824
   81MOL0     H10684   4.864   8.044   0.457  0.6108  0.1662  0.5444
   81MOL0     H10685   4.854   8.015   0.626 -2.3227  0.9724 -0.8401
   81MOL0     H10686   5.061   7.929   0.405  1.3768 -1.4620  0.1373
   81MOL0     H10687   5.063   7.844   0.562 -1.6995  0.7260  1.3053
   81MOL0     H10688   5.109   8.137   0.504  2.6728 -0.6173 -1.7031
   81MOL0     H10689   5.091   8.065   0.672  2.2717 -1.7788  0.8016
   81MOL0     H10690   5.493   7.982   0.605  0.0716  3.4616 -0.6054
   81MOL0     H10691   4.696   7.595   0.412  0.3238 -0.1113  0.9730
   81MOL0     H10692   4.510   7.452   0.383  0.3930 -1.3111  1.4574
   82MOL0     O10693   0.621   8.253   6.577 -0.0839 -0.1734 -0.1098
   82MOL0     C10694   0.591   8.330   6.484  1.5720 -0.1356  0.9015
   82MOL0     O10695   0.461   8.368   6.452 -0.4508 -0.2086 -0.5178
   82MOL0     C10696   0.353   8.324   6.527  0.5852  0.1974 -0.2509
   82MOL0     C10697   0.250   8.255   6.462  0.8829  0.4329  0.5316
   82MOL0     C10698   0.135   8.231   6.532 -0.2566 -0.5239  0.3197
   82MOL0     C10699   0.119   8.282   6.659 -0.5803  0.4808  0.5930
   82MOL0     O10700  -0.004   8.263   6.733 -0.0819 -1.1750 -0.4208
   82MOL0     C10701  -0.115   8.191   6.678 -1.2735 -0.3018  0.9338
   82MOL0     C10702  -0.225   8.179   6.782 -0.6123 -0.4648 -0.3817
   82MOL0     C10703  -0.340   8.091   6.728 -1.2615  1.2173  0.4120
   82MOL0     C10704  -0.484   8.156   6.760 -0.0732  0.3056  0.1405
   82MOL0     C10705  -0.601   8.110   6.663  0.3241  0.1145 -0.3159
   82MOL0     C10706  -0.741   8.135   6.728 -0.5138 -0.4094  0.9191
   82MOL0     C10707  -0.848   8.093   6.632  0.3264  0.1713 -0.0357
   82MOL0     C10708  -0.988   8.089   6.691  0.4366  0.1352 -0.0727
   82MOL0     N10709  -1.023   8.221   6.740  0.4032  0.7628 -0.2114
   82MOL0     C10710  -1.027   8.331   6.667  0.2668 -0.9606  0.0349
   82MOL0     C10711  -1.099   8.427   6.732  0.9759 -0.8175 -0.2541
   82MOL0     C10712  -1.111   8.580   6.701  0.4164  0.6131 -0.5876
   82MOL0     C10713  -1.236   8.625   6.629 -0.2655 -0.2832 -0.7898
   82MOL0     C10714  -1.250   8.774   6.629 -0.0817 -0.3058 -0.0365
   82MOL0     C10715  -1.344   8.825   6.515  0.1055 -0.3745  0.2732
   82MOL0     O10716  -1.448   8.733   6.471 -0.2171 -0.1723 -0.1909
   82MOL0     C10717  -1.564   8.710   6.546 -0.9820 -0.4089 -0.4967
   82MOL0     C10718  -1.588   8.741   6.681  0.6862  0.6113 -0.4541
   82MOL0     C10719  -1.706   8.701   6.745  0.2750 -0.2719  0.0952
   82MOL0     C10720  -1.797   8.623   6.680 -0.6268  0.0264 -0.7610
   82MOL0     C10721  -1.909   8.558   6.748 -1.3811 -0.3665  0.9788
   82MOL0     O10722  -1.994   8.483   6.675  0.2235  0.0889 -0.1240
   82MOL0     C10723  -2.105   8.429   6.736 -0.0715 -0.1541 -0.1657
   82MOL0     C10724  -2.137   8.301   6.714  0.2655  0.3438  0.2256
   82MOL0     C10725  -2.259   8.251   6.757  0.2518  0.4337  0.4944
   82MOL0     C10726  -2.344   8.312   6.846 -0.2457 -0.1442  0.7675
   82MOL0     O10727  -2.470   8.264   6.881 -0.5992  0.2902 -0.7607
   82MOL0     C10728  -2.466   8.124   6.912 -0.4519  0.8639  0.8088
   82MOL0     C10729  -2.567   8.088   7.008  0.1693  0.2430 -0.4445
   82MOL0     C10730  -2.702   8.098   6.942 -0.1119 -0.7077 -0.1092
   82MOL0     C10731  -2.813   8.059   7.037  0.0513 -0.0356  0.5541
   82MOL0     C10732  -2.829   7.911   7.056 -0.0433  0.1978  0.1846
   82MOL0     C10733  -2.968   7.887   7.114  0.0626 -0.5971  1.0823
   82MOL0     C10734  -2.973   7.744   7.158 -0.1246 -0.0618  0.0561
   82MOL0     C10735  -3.115   7.695   7.170 -0.1587  0.0969  0.4812
   82MOL0    Cl10736  -3.216   7.791   7.289 -0.3345 -0.1156  0.2028
   82MOL0     C10737  -2.312   8.448   6.881 -0.4236  0.2493  0.6961
   82MOL0     C10738  -2.185   8.503   6.828  0.6101 -0.3219 -0.6427
   82MOL0     O10739  -1.916   8.576   6.867  0.5921 -0.5887 -0.1140
   82MOL0     C10740  -1.775   8.595   6.547  0.2754 -0.7166  0.9842
   82MOL0     C10741  -1.665   8.642   6.476 -0.1468 -0.1979 -0.7254
   82MOL0     N10742  -1.132   8.370   6.857 -0.5541 -0.4615  0.0050
   82MOL0     N10743  -1.093   8.247   6.856 -0.8148 -0.1093  0.1298
   82MOL0     C10744   0.217   8.351   6.723 -0.0195 -0.8418  0.0998
   82MOL0     C10745   0.339   8.366   6.662 -0.6224  0.2358 -0.0131
   82MOL0     C10746   0.692   8.378   6.389  0.0860  0.5378 -0.4438
   82MOL0     C10747   0.828   8.348   6.417  0.6712  0.9329  0.4800
   82MOL0     C10748   0.919   8.365   6.313  0.1547  0.5789  0.5412
   82MOL0     C10749   0.880   8.430   6.192 -0.6270 -0.2958 -0.6548
   82MOL0     O10750   0.984   8.462   6.109 -0.7993  1.0179 -0.7379
   82MOL0     C10751   0.967   8.430   5.970 -0.4071 -0.4848  0.5248
   82MOL0     C10752   1.095   8.466   5.898 -0.0478 -0.5101 -0.2124
   82MOL0     C10753   1.208   8.357   5.913 -0.5060 -0.2307 -0.0728
   82MOL0     C10754   1.317   8.388   5.808 -0.3469 -0.2357 -0.2628
   82MOL0     C10755   1.414   8.282   5.787  0.3649  0.4945  0.6706
   82MOL0     C10756   1.489   8.185   5.783  0.3844 -0.7136 -0.3510
   82MOL0     C10757   0.752   8.476   6.174 -0.1697  0.0357 -0.2792
   82MOL0     C10758   0.658   8.440   6.269  0.1448 -0.2458  0.5886
   82MOL0     H10759   0.263   8.231   6.357 -3.2588  0.7697 -0.2089
   82MOL0     H10760   0.060   8.182   6.471  1.1538 -2.1131 -0.2217
   82MOL0     H10761  -0.073   8.092   6.656 -2.1081 -0.3571 -0.5168
   82MOL0     H10762  -0.145   8.248   6.590 -1.8777 -2.0476 -0.0452
   82MOL0     H10763  -0.256   8.279   6.815 -0.7483 -0.6632  0.1068
   82MOL0     H10764  -0.187   8.137   6.876  1.1857 -0.4082 -1.0479
   82MOL0     H10765  -0.324   7.993   6.774 -0.2952  1.7418  1.2203
   82MOL0     H10766  -0.322   8.077   6.621 -1.3689 -3.5054  0.8047
   82MOL0     H10767  -0.506   8.135   6.865 -0.1159 -1.1216 -0.1317
   82MOL0     H10768  -0.473   8.264   6.746  2.1408 -0.0704 -1.4741
   82MOL0     H10769  -0.579   8.004   6.655 -0.4880 -0.3907  2.7630
   82MOL0     H10770  -0.604   8.160   6.566 -0.5008  2.6940  0.9316
   82MOL0     H10771  -0.752   8.242   6.748 -0.4975 -0.3024  0.3604
   82MOL0     H10772  -0.759   8.082   6.822 -0.9272  0.6323  1.4388
   82MOL0     H10773  -0.855   8.149   6.539 -2.0004 -1.4001 -0.8927
   82MOL0     H10774  -0.819   7.992   6.600 -1.8187  0.3357 -2.8394
   82MOL0     H10775  -0.984   8.016   6.773 -2.7425  0.8469  0.8385
   82MOL0     H10776  -1.061   8.049   6.621  1.6494  1.5706 -2.2757
   82MOL0     H10777  -0.971   8.351   6.577 -0.3524 -0.7898 -0.3145
   82MOL0     H10778  -1.022   8.613   6.646  2.0334 -0.1095  1.4366
   82MOL0     H10779  -1.106   8.634   6.796 -0.9061  2.0398 -1.2829
   82MOL0     H10780  -1.327   8.574   6.664 -0.2295  1.0747  1.4909
   82MOL0     H10781  -1.215   8.596   6.525 -2.0700 -0.2535 -1.1994
   82MOL0     H10782  -1.294   8.807   6.724 -2.5517  3.2831 -2.1760
   82MOL0     H10783  -1.149   8.814   6.619 -0.5136  0.5773 -1.0342
   82MOL0     H10784  -1.284   8.847   6.427  1.3633 -1.4570  0.8229
   82MOL0     H10785  -1.389   8.918   6.550 -1.1701 -0.2557 -1.5293
   82MOL0     H10786  -1.513   8.803   6.728  0.8511  0.2586 -0.2492
   82MOL0     H10787  -1.709   8.717   6.853 -0.4426 -0.3384  0.0845
   82MOL0     H10788  -2.075   8.236   6.654 -3.8708 -1.8797 -2.0811
   82MOL0     H10789  -2.295   8.158   6.714  2.7240 -0.3182 -0.0783
   82MOL0     H10790  -2.368   8.093   6.951 -0.5749 -3.1227 -1.4476
   82MOL0     H10791  -2.488   8.064   6.823 -1.4897 -1.6411  2.6038
   82MOL0     H10792  -2.556   8.158   7.092  0.6079 -0.1265 -0.1910
   82MOL0     H10793  -2.562   7.989   7.054  0.9113  0.0186 -0.9985
   82MOL0     H10794  -2.697   8.036   6.852  0.7857 -0.5305 -0.1840
   82MOL0     H10795  -2.725   8.198   6.904 -0.3494  0.1871  2.2105
   82MOL0     H10796  -2.794   8.103   7.136  0.8536 -0.7931  0.7512
   82MOL0     H10797  -2.900   8.100   6.985 -0.8137 -2.6526 -0.2284
   82MOL0     H10798  -2.748   7.869   7.118  0.9856  0.5080 -0.9017
   82MOL0     H10799  -2.819   7.859   6.960 -2.2904  0.9467 -0.5027
   82MOL0     H10800  -3.045   7.904   7.039 -1.9810 -1.0826  2.9536
   82MOL0     H10801  -2.986   7.953   7.200  0.1398  2.2071 -0.9327
   82MOL0     H10802  -2.921   7.670   7.097 -0.9206 -1.1965  0.7150
   82MOL0     H10803  -2.923   7.734   7.255  1.1002  2.2249 -0.2590
   82MOL0     H10804  -3.108   7.592   7.207 -1.4845 -0.4445 -0.6715
   82MOL0     H10805  -3.172   7.694   7.077 -2.2308 -1.7598  1.6783
   82MOL0     H10806  -2.386   8.476   6.956 -0.6507 -3.3078  1.9830
   82MOL0     H10807  -2.168   8.605   6.863  0.2213  0.8686 -3.6430
   82MOL0     H10808  -1.836   8.534   6.481  1.8005  0.1536 -1.3312
   82MOL0     H10809  -1.645   8.599   6.379  1.9523 -2.2139  0.4992
   82MOL0     H10810   0.196   8.383   6.824 -0.5726  2.4180 -0.9352
   82MOL0     H10811   0.428   8.407   6.709  0.6325 -3.5586  1.2962
   82MOL0     H10812   0.847   8.304   6.515 -3.4025  0.0764  1.1025
   82MOL0     H10813   1.025   8.345   6.327  0.1154  1.2780  2.0795
   82MOL0     H10814   0.888   8.494   5.929  0.9898  0.4566 -0.7980
   82MOL0     H10815   0.937   8.325   5.961 -3.2409  0.3793 -1.4789
   82MOL0     H10816   1.069   8.485   5.794 -2.5126 -1.6580  0.1215
   82MOL0     H10817   1.128   8.564   5.933 -0.0054 -0.0731 -1.4241
   82MOL0     H10818   1.166   8.259   5.892  0.9385 -0.3204 -3.0750
   82MOL0     H10819   1.234   8.354   6.019 -1.7831 -0.3619  0.2553
   82MOL0     H10820   1.276   8.427   5.714  1.2010 -0.5007 -1.0838
   82MOL0     H10821   1.383   8.468   5.843  0.8783 -1.1041 -0.5197
   82MOL0     H10822   1.543   8.093   5.791  1.2206 -0.1719  0.3093
   82MOL0     H10823   0.722   8.514   6.076 -1.5261 -0.0106  0.0918
   82MOL0     H10824   0.555   8.459   6.238  0.6899 -2.1888 -2.8993
   83MOL0     O10825  10.879   0.294   2.072  0.9172  1.0360  0.2674
   83MOL0     C10826  10.985   0.340   2.104  0.5830 -0.3794 -0.2842
   83MOL0     O10827  11.015   0.399   2.222  0.2566 -0.2464 -0.3694
   83MOL0     C10828  10.923   0.410   2.327 -0.9570  0.2291 -0.0768
   83MOL0     C10829  10.981   0.488   2.431 -0.6124  1.3360 -0.7609
   83MOL0     C10830  10.912   0.496   2.550  0.1480  0.6086 -0.0289
   83MOL0     C10831  10.788   0.422   2.573 -0.6578  0.3424  0.6944
   83MOL0     O10832  10.714   0.414   2.692  1.2265  0.0066 -0.5580
   83MOL0     C10833  10.784   0.402   2.815 -0.3340  0.0384 -0.9484
   83MOL0     C10834  10.677   0.357   2.916 -0.5097  0.7007  0.0158
   83MOL0     C10835  10.744   0.332   3.054  0.8431  0.1317 -0.1004
   83MOL0     C10836  10.639   0.284   3.154  0.3809 -1.3743  0.5397
   83MOL0     C10837  10.698   0.226   3.282 -0.5938 -0.0250 -0.5123
   83MOL0     C10838  10.810   0.322   3.348 -0.1965 -0.7257  0.3296
   83MOL0     C10839  10.869   0.269   3.483  0.1258 -0.5278  0.3367
   83MOL0     C10840  10.979   0.366   3.520  0.2143 -0.3400 -0.3946
   83MOL0     N10841  11.050   0.312   3.641 -0.4940  0.7673 -0.3902
   83MOL0     C10842  11.029   0.377   3.760 -0.4227 -0.3903  0.6957
   83MOL0     C10843  11.072   0.286   3.847  0.2408 -0.3524 -0.1832
   83MOL0     C10844  11.060   0.292   3.995  0.3482 -0.9877 -0.6657
   83MOL0     C10845  10.913   0.279   4.030  0.4071 -0.0127  0.4028
   83MOL0     C10846  10.912   0.300   4.181  0.5458 -0.2408 -0.0555
   83MOL0     C10847  10.790   0.252   4.253 -0.4163  0.0100  1.4604
   83MOL0     O10848  10.670   0.314   4.205 -0.0503  0.0642  0.4988
   83MOL0     C10849  10.553   0.302   4.278  0.1076  1.1233 -0.3393
   83MOL0     C10850  10.468   0.411   4.295 -1.1589  0.7204 -0.4186
   83MOL0     C10851  10.355   0.411   4.378 -0.0405 -0.1279 -1.0178
   83MOL0     C10852  10.324   0.292   4.453 -0.1520  0.2874 -0.1225
   83MOL0     C10853  10.197   0.278   4.525 -0.3340  0.1641 -0.6223
   83MOL0     O10854  10.120   0.392   4.520 -0.0335 -0.6209 -0.2941
   83MOL0     C10855   9.995   0.393   4.576  0.4700 -0.7788 -0.1001
   83MOL0     C10856   9.900   0.288   4.594 -0.7205 -0.3135 -0.8915
   83MOL0     C10857   9.776   0.304   4.650 -0.2375 -0.4977 -0.6999
   83MOL0     C10858   9.740   0.437   4.684  0.3622  0.3097 -0.1563
   83MOL0     O10859   9.625   0.476   4.750 -0.4427  0.1343  0.1109
   83MOL0     C10860   9.537   0.373   4.778 -0.1579  0.7267 -0.4794
   83MOL0     C10861   9.404   0.427   4.831  0.0599  0.3330 -0.4544
   83MOL0     C10862   9.314   0.328   4.907 -0.5957  0.5806  0.6674
   83MOL0     C10863   9.180   0.400   4.935 -0.1801  0.0856 -0.1758
   83MOL0     C10864   9.054   0.306   4.923  0.0390  0.7007  0.0136
   83MOL0     C10865   8.920   0.373   4.940  0.2638  0.5429 -0.8904
   83MOL0     C10866   8.902   0.418   5.083  0.4084  0.0879 -0.3960
   83MOL0     C10867   8.848   0.298   5.180 -0.4557 -0.3862  0.5556
   83MOL0    Cl10868   8.675   0.257   5.141  0.2773 -0.4814  0.7012
   83MOL0     C10869   9.824   0.546   4.659 -0.5648 -0.3208 -0.4908
   83MOL0     C10870   9.949   0.519   4.609  0.3466  0.2769  0.4588
   83MOL0     O10871  10.177   0.173   4.576  0.2330  0.5263 -0.5362
   83MOL0     C10872  10.405   0.180   4.425 -0.6140  0.5928  0.6313
   83MOL0     C10873  10.518   0.186   4.345 -0.7577 -0.2709 -0.2090
   83MOL0     N10874  11.134   0.181   3.785 -0.0947 -0.0754 -0.7043
   83MOL0     N10875  11.122   0.194   3.662  0.6417  0.4441 -0.2859
   83MOL0     C10876  10.737   0.352   2.465  0.4314  0.0673  0.2775
   83MOL0     C10877  10.795   0.341   2.344 -0.6901 -0.2231 -0.4505
   83MOL0     C10878  11.113   0.321   2.025  0.4756  0.2003  0.0857
   83MOL0     C10879  11.100   0.263   1.896 -0.6737 -0.0863 -0.4795
   83MOL0     C10880  11.223   0.239   1.821  0.0412  0.1942  0.2077
   83MOL0     C10881  11.344   0.266   1.882  0.2542 -0.7506 -0.2043
   83MOL0     O10882  11.468   0.252   1.822 -0.8825 -0.2749  0.5912
   83MOL0     C10883  11.478   0.225   1.681 -0.2086 -0.5142 -0.2140
   83MOL0     C10884  11.631   0.240   1.669  0.4750 -0.0441  0.1991
   83MOL0     C10885  11.670   0.383   1.711  0.4469  0.3379  0.2501
   83MOL0     C10886  11.796   0.422   1.626  0.4445  0.3280 -0.7021
   83MOL0     C10887  11.820   0.569   1.646 -0.4867 -0.2501 -0.1278
   83MOL0     C10888  11.855   0.677   1.694 -0.0131  0.1618  0.3132
   83MOL0     C10889  11.348   0.324   2.004 -0.5997  0.3045  0.1398
   83MOL0     C10890  11.237   0.350   2.082  0.0892 -0.8022 -0.7661
   83MOL0     H10891  11.075   0.539   2.414 -0.0086  0.8731  1.0034
   83MOL0     H10892  10.950   0.572   2.617 -1.6864  2.0215 -0.4873
   83MOL0     H10893  10.817   0.502   2.845 -1.4884  0.1919 -0.1350
   83MOL0     H10894  10.864   0.328   2.806  0.2936  0.5026  0.5407
   83MOL0     H10895  10.636   0.262   2.880  0.7903  0.5476 -1.1357
   83MOL0     H10896  10.601   0.433   2.936  1.5786  2.4183  1.9877
   83MOL0     H10897  10.803   0.419   3.085 -1.1598  1.0460  1.3527
   83MOL0     H10898  10.815   0.249   3.056 -0.8899 -1.3930 -0.2075
   83MOL0     H10899  10.576   0.366   3.191  0.1754 -2.2857  2.2977
   83MOL0     H10900  10.560   0.220   3.113 -0.5631 -2.4376  3.7553
   83MOL0     H10901  10.746   0.131   3.258  0.8478  0.3968  0.5565
   83MOL0     H10902  10.617   0.223   3.356  0.3637  0.5403  0.6057
   83MOL0     H10903  10.760   0.419   3.355  0.2216 -0.4554 -0.2621
   83MOL0     H10904  10.890   0.330   3.273 -0.7738 -0.4432 -0.2626
   83MOL0     H10905  10.797   0.251   3.563  2.8830  1.0296  3.4320
   83MOL0     H10906  10.910   0.173   3.451 -0.0435  0.0578 -1.8002
   83MOL0     H10907  10.945   0.465   3.549  0.4100 -0.3666 -0.0729
   83MOL0     H10908  11.047   0.379   3.435  1.3440 -2.3698  0.1266
   83MOL0     H10909  10.978   0.469   3.788  2.7849  1.3857  1.2136
   83MOL0     H10910  11.096   0.393   4.015  2.0638 -1.6784 -0.1290
   83MOL0     H10911  11.122   0.213   4.037  0.8145 -0.6074 -0.6334
   83MOL0     H10912  10.899   0.173   4.012  1.4836 -0.2273  0.7157
   83MOL0     H10913  10.843   0.341   3.974 -0.7922 -0.6930  1.1217
   83MOL0     H10914  11.002   0.257   4.226  0.5526  0.9684  1.1370
   83MOL0     H10915  10.915   0.407   4.204  1.4763 -0.3780  0.4881
   83MOL0     H10916  10.799   0.286   4.357 -0.4007  1.5645  0.9700
   83MOL0     H10917  10.785   0.143   4.243  1.6367 -0.0397  0.4979
   83MOL0     H10918  10.484   0.504   4.241 -2.6731  1.1478 -0.1817
   83MOL0     H10919  10.298   0.503   4.389 -1.1878 -1.1317  3.3017
   83MOL0     H10920   9.927   0.189   4.560  0.2343  0.0133 -1.1121
   83MOL0     H10921   9.720   0.211   4.653 -0.1689 -0.5139  1.2059
   83MOL0     H10922   9.576   0.296   4.846  2.8118  0.3132 -2.4749
   83MOL0     H10923   9.516   0.320   4.684  0.8074 -1.5319  0.4900
   83MOL0     H10924   9.340   0.465   4.750 -2.2156  2.5032  2.1264
   83MOL0     H10925   9.421   0.518   4.890  2.4952 -0.6287  0.4348
   83MOL0     H10926   9.366   0.302   5.000 -0.1885  2.1927  0.9343
   83MOL0     H10927   9.289   0.238   4.851 -2.9554  0.4236  1.8322
   83MOL0     H10928   9.196   0.455   5.028 -1.2750 -0.8876  0.6168
   83MOL0     H10929   9.169   0.481   4.863 -0.8014  2.6402  2.5999
   83MOL0     H10930   9.066   0.222   4.992 -0.3426  0.8410  0.2547
   83MOL0     H10931   9.058   0.263   4.823  0.7585 -0.4628  0.5105
   83MOL0     H10932   8.847   0.301   4.902  0.2148 -0.1755  0.4973
   83MOL0     H10933   8.931   0.463   4.879  0.2825  2.3611  1.6484
   83MOL0     H10934   9.001   0.446   5.119  0.9747 -1.5209 -0.6314
   83MOL0     H10935   8.843   0.510   5.080 -0.4344 -0.4617 -2.2569
   83MOL0     H10936   8.861   0.332   5.284  2.8850  2.1238 -0.4827
   83MOL0     H10937   8.900   0.202   5.177  0.1954 -0.2460  3.5186
   83MOL0     H10938   9.795   0.646   4.690  2.7926  0.7893 -0.5194
   83MOL0     H10939  10.015   0.594   4.568 -0.3127 -0.1786 -1.5468
   83MOL0     H10940  10.382   0.085   4.471  0.7101  0.4936  1.1278
   83MOL0     H10941  10.585   0.101   4.342  1.2332  1.2601 -2.2533
   83MOL0     H10942  10.640   0.303   2.471  1.2485 -1.7653 -0.4520
   83MOL0     H10943  10.756   0.290   2.256 -2.5439  0.0076  0.1926
   83MOL0     H10944  11.006   0.233   1.850 -0.3714  0.3804 -1.4349
   83MOL0     H10945  11.221   0.189   1.724  1.8425  0.0495  0.2119
   83MOL0     H10946  11.425   0.302   1.623  2.2290  1.2080 -0.2800
   83MOL0     H10947  11.445   0.127   1.643 -0.1085 -0.7422  0.2784
   83MOL0     H10948  11.676   0.156   1.723  0.8443  0.5925  0.9085
   83MOL0     H10949  11.657   0.232   1.563  0.9551 -0.5553  0.3476
   83MOL0     H10950  11.695   0.370   1.817  2.1392 -2.7058 -0.3964
   83MOL0     H10951  11.595   0.462   1.701 -0.2129 -0.3929 -0.7345
   83MOL0     H10952  11.885   0.369   1.662 -0.4170  1.0538  2.8773
   83MOL0     H10953  11.786   0.408   1.518  0.9985  2.2152 -1.0271
   83MOL0     H10954  11.912   0.765   1.721  2.8592 -2.0744  2.1580
   83MOL0     H10955  11.448   0.345   2.040 -0.3714  1.8397 -1.2743
   83MOL0     H10956  11.249   0.379   2.186 -0.5334 -1.7758 -0.4115
   84MOL0     O10957   1.957   3.524   1.244  0.4354  0.1118  0.4720
   84MOL0     C10958   2.015   3.594   1.322 -0.9920 -0.3036  0.5667
   84MOL0     O10959   1.955   3.654   1.425  0.6950  0.4463 -0.3703
   84MOL0     C10960   1.821   3.627   1.453  0.1461 -0.1215 -0.5221
   84MOL0     C10961   1.729   3.723   1.409  0.4807  0.1242  0.5560
   84MOL0     C10962   1.591   3.707   1.430  0.2516  0.0570 -0.6111
   84MOL0     C10963   1.544   3.594   1.493 -0.4030 -0.3247 -0.4676
   84MOL0     O10964   1.411   3.597   1.521  0.1294 -0.1789 -0.0244
   84MOL0     C10965   1.332   3.482   1.565 -0.1419 -0.3673 -0.6564
   84MOL0     C10966   1.189   3.531   1.549 -0.1912 -0.7097 -0.1838
   84MOL0     C10967   1.085   3.448   1.618  0.0821  0.6901  0.9505
   84MOL0     C10968   0.960   3.490   1.555 -0.0978 -0.4346  0.2757
   84MOL0     C10969   0.840   3.414   1.621 -0.3623  0.6297 -0.6905
   84MOL0     C10970   0.853   3.388   1.776  0.1412 -0.3193  0.1916
   84MOL0     C10971   0.715   3.344   1.826  0.6787 -0.3091 -0.2171
   84MOL0     C10972   0.706   3.299   1.976 -0.6387 -0.4132 -0.2911
   84MOL0     N10973   0.562   3.285   2.011  0.4425  0.1219 -0.7311
   84MOL0     C10974   0.480   3.384   2.066  0.3446  0.3940  0.0326
   84MOL0     C10975   0.360   3.333   2.088  0.1165  0.6250  0.1510
   84MOL0     C10976   0.248   3.404   2.154 -0.5451 -0.3147 -0.2306
   84MOL0     C10977   0.130   3.316   2.212 -0.2483 -0.7853 -0.1646
   84MOL0     C10978   0.188   3.230   2.326  0.2230  0.3953 -0.6888
   84MOL0     C10979   0.076   3.151   2.404 -1.4318  0.5339  0.5844
   84MOL0     O10980   0.018   3.240   2.492 -0.4827 -0.9815  0.7421
   84MOL0     C10981  -0.092   3.201   2.565 -0.2011 -0.5750 -1.2463
   84MOL0     C10982  -0.143   3.294   2.660  0.0963  0.1865  0.3359
   84MOL0     C10983  -0.261   3.272   2.728  0.1217 -0.4148 -1.1436
   84MOL0     C10984  -0.336   3.153   2.700  0.0594 -0.7902  0.4950
   84MOL0     C10985  -0.467   3.126   2.767 -0.2454 -0.0473 -0.3571
   84MOL0     O10986  -0.519   3.227   2.843  0.8734  0.2666  0.4635
   84MOL0     C10987  -0.646   3.203   2.897  0.1910 -0.7856 -0.1248
   84MOL0     C10988  -0.729   3.312   2.902  0.1127 -0.9020 -0.0507
   84MOL0     C10989  -0.860   3.304   2.947 -1.0555 -0.4705 -0.4738
   84MOL0     C10990  -0.914   3.187   2.997  0.5909 -0.1308  0.3249
   84MOL0     O10991  -1.038   3.178   3.052 -0.0320  0.2026  0.4899
   84MOL0     C10992  -1.140   3.274   3.028 -0.1843  0.8150 -0.8158
   84MOL0     C10993  -1.263   3.228   3.110  0.8741  0.5654  0.3878
   84MOL0     C10994  -1.391   3.313   3.067  0.1464  0.2371 -0.0445
   84MOL0     C10995  -1.523   3.236   3.045  0.0136  0.0353  0.5667
   84MOL0     C10996  -1.622   3.243   3.167 -0.0530  0.6165  0.0815
   84MOL0     C10997  -1.745   3.165   3.145  0.5168 -0.3437 -0.4457
   84MOL0     C10998  -1.844   3.181   3.261 -0.5018 -0.5170  0.4909
   84MOL0     C10999  -1.972   3.097   3.220 -0.1727 -0.2632 -0.4969
   84MOL0    Cl11000  -1.939   2.916   3.186 -0.2155  0.1171 -0.2903
   84MOL0     C11001  -0.834   3.066   2.991 -0.4986 -0.8525  0.0326
   84MOL0     C11002  -0.695   3.077   2.945  0.3414  0.4202  0.5328
   84MOL0     O11003  -0.517   3.019   2.740 -0.5699  0.1232  0.1087
   84MOL0     C11004  -0.276   3.050   2.628  0.3591  0.2801  0.1629
   84MOL0     C11005  -0.157   3.072   2.554  0.2160  0.4437  0.0036
   84MOL0     N11006   0.369   3.201   2.044 -0.2457  0.2528  0.5100
   84MOL0     N11007   0.482   3.175   1.994 -0.1992 -0.1476  0.7796
   84MOL0     C11008   1.632   3.493   1.527  0.0359  0.0049 -0.1170
   84MOL0     C11009   1.773   3.506   1.520  0.9698 -0.8332  0.2120
   84MOL0     C11010   2.161   3.604   1.314 -0.6286 -0.0834  0.1924
   84MOL0     C11011   2.241   3.506   1.237  0.7656 -0.0613  0.2063
   84MOL0     C11012   2.373   3.503   1.244 -0.1285  0.5582  0.4374
   84MOL0     C11013   2.446   3.605   1.301  0.7679  0.1591 -0.1558
   84MOL0     O11014   2.579   3.614   1.279 -0.6438 -0.2105 -0.1620
   84MOL0     C11015   2.640   3.735   1.324  0.4082  0.3900 -0.4926
   84MOL0     C11016   2.788   3.720   1.312 -0.1495  0.0612 -0.8225
   84MOL0     C11017   2.838   3.738   1.167 -0.0079 -0.2215 -0.4900
   84MOL0     C11018   2.974   3.676   1.133 -0.3406 -0.0093 -0.5653
   84MOL0     C11019   3.086   3.735   1.210 -0.4152  0.4650  0.4580
   84MOL0     C11020   3.191   3.769   1.264 -0.1690 -0.2675 -0.8204
   84MOL0     C11021   2.374   3.697   1.376 -1.1569 -0.1748 -0.1748
   84MOL0     C11022   2.236   3.703   1.377 -0.0109  0.0817 -0.3278
   84MOL0     H11023   1.758   3.808   1.348 -2.3131  0.8552  0.0738
   84MOL0     H11024   1.525   3.790   1.406 -0.8504  0.0866  2.1815
   84MOL0     H11025   1.355   3.456   1.669 -3.0056 -0.2163  0.1032
   84MOL0     H11026   1.347   3.397   1.498 -1.9218  0.8507 -2.7283
   84MOL0     H11027   1.171   3.527   1.441 -1.6426 -3.7600  0.0516
   84MOL0     H11028   1.187   3.629   1.596 -1.1212 -0.8923  0.1684
   84MOL0     H11029   1.091   3.466   1.726 -2.4376  0.4202  1.1979
   84MOL0     H11030   1.106   3.342   1.601  0.8972  0.6205  2.2557
   84MOL0     H11031   0.944   3.596   1.577  1.3657  0.4129 -2.2450
   84MOL0     H11032   0.954   3.462   1.450 -0.1421 -3.6231  1.0242
   84MOL0     H11033   0.835   3.316   1.574  1.0911  0.4568 -0.5313
   84MOL0     H11034   0.744   3.459   1.594 -1.4691 -2.4153 -2.2243
   84MOL0     H11035   0.871   3.484   1.823  0.8011 -0.9191  1.1898
   84MOL0     H11036   0.940   3.324   1.793 -0.7235 -1.8763 -0.9138
   84MOL0     H11037   0.633   3.414   1.807  0.4109 -0.5294  0.1014
   84MOL0     H11038   0.689   3.256   1.766 -1.1727  0.3537 -0.4645
   84MOL0     H11039   0.751   3.376   2.040  0.5884 -2.2670  1.1666
   84MOL0     H11040   0.750   3.203   2.003 -0.0833  0.1939  1.0913
   84MOL0     H11041   0.519   3.481   2.095  1.4640 -0.0664  0.0943
   84MOL0     H11042   0.212   3.477   2.081 -0.8707 -1.1979 -0.9612
   84MOL0     H11043   0.286   3.461   2.240 -0.8782  0.5976 -0.6762
   84MOL0     H11044   0.087   3.254   2.132 -3.0331  0.7356  0.0045
   84MOL0     H11045   0.056   3.388   2.248  0.3670 -0.6409  0.8305
   84MOL0     H11046   0.250   3.149   2.287 -1.3842  0.0965 -2.7652
   84MOL0     H11047   0.255   3.286   2.393  1.1276 -0.9032 -0.4810
   84MOL0     H11048   0.115   3.058   2.448 -0.9444 -0.6401 -2.1028
   84MOL0     H11049   0.003   3.120   2.329  0.9568  0.0247 -1.6498
   84MOL0     H11050  -0.092   3.387   2.680  1.0603 -0.6106  1.7614
   84MOL0     H11051  -0.298   3.340   2.804  2.7808 -0.7404  0.5495
   84MOL0     H11052  -0.688   3.403   2.859  0.8331 -1.5084 -0.6819
   84MOL0     H11053  -0.922   3.393   2.944 -0.4040  0.1268  1.8291
   84MOL0     H11054  -1.162   3.268   2.921  0.7062 -1.2060 -0.9451
   84MOL0     H11055  -1.111   3.371   3.068  1.3265 -0.7140  2.1954
   84MOL0     H11056  -1.244   3.226   3.218 -2.1117  1.8258  1.0322
   84MOL0     H11057  -1.285   3.131   3.066 -0.4463  1.7918 -1.8205
   84MOL0     H11058  -1.368   3.348   2.967 -1.8443 -0.4769 -0.8213
   84MOL0     H11059  -1.407   3.384   3.149 -0.0812  0.7003 -0.4899
   84MOL0     H11060  -1.574   3.288   2.963  0.3634  0.0954  0.3875
   84MOL0     H11061  -1.504   3.133   3.012  0.6885  0.8667 -1.8564
   84MOL0     H11062  -1.638   3.350   3.186 -0.1447  0.5873  0.1695
   84MOL0     H11063  -1.570   3.196   3.251  2.2017  0.0650 -1.5255
   84MOL0     H11064  -1.718   3.060   3.130 -0.0853 -0.5775  0.0700
   84MOL0     H11065  -1.797   3.201   3.056  0.6210 -0.1982 -0.4500
   84MOL0     H11066  -1.809   3.132   3.352  0.2104 -0.5560  0.2040
   84MOL0     H11067  -1.876   3.285   3.273 -2.9830 -1.1503 -0.1958
   84MOL0     H11068  -2.025   3.140   3.135  0.2115 -1.6548 -1.4768
   84MOL0     H11069  -2.034   3.095   3.311  1.1964 -0.0142  0.4789
   84MOL0     H11070  -0.867   2.974   3.038  0.7156 -0.6483  1.3701
   84MOL0     H11071  -0.620   2.998   2.948  0.5765  0.5310 -1.1897
   84MOL0     H11072  -0.325   2.954   2.614  0.2666  0.6773 -3.1352
   84MOL0     H11073  -0.112   2.991   2.498 -1.4790  0.5411 -1.5864
   84MOL0     H11074   1.604   3.398   1.571  3.6269 -1.0290  0.2795
   84MOL0     H11075   1.845   3.427   1.542  0.7715 -1.1978 -0.4284
   84MOL0     H11076   2.184   3.442   1.169  0.1590  1.0115 -0.3188
   84MOL0     H11077   2.421   3.430   1.180 -2.4960 -0.9282  0.2192
   84MOL0     H11078   2.621   3.758   1.429 -2.2161  3.2379 -1.4561
   84MOL0     H11079   2.610   3.821   1.263  0.7416 -0.5593 -2.0510
   84MOL0     H11080   2.845   3.778   1.385 -0.8914 -1.8074  1.3467
   84MOL0     H11081   2.808   3.616   1.339 -1.1016  0.4994  1.7871
   84MOL0     H11082   2.833   3.843   1.137 -2.6717 -0.7476 -2.3333
   84MOL0     H11083   2.765   3.695   1.098  0.0390 -0.9641 -0.0825
   84MOL0     H11084   2.975   3.568   1.146  0.3092 -0.1358 -1.5146
   84MOL0     H11085   2.997   3.701   1.029  0.3025  3.0329  0.1996
   84MOL0     H11086   3.277   3.788   1.325 -1.9241  2.2092  1.0606
   84MOL0     H11087   2.414   3.785   1.425  0.9285 -0.7938 -0.6474
   84MOL0     H11088   2.185   3.782   1.432  1.1541 -0.1664  1.1655
   85MOL0     O11089   3.530   8.892   4.061  0.2586 -0.1800 -0.0815
   85MOL0     C11090   3.597   8.857   3.963  0.3655 -0.3845 -0.6602
   85MOL0     O11091   3.550   8.840   3.840  0.1759  0.1798  0.1155
   85MOL0     C11092   3.420   8.827   3.797 -0.6144 -0.1521  0.0644
   85MOL0     C11093   3.400   8.778   3.664  0.3489  0.6564  0.3117
   85MOL0     C11094   3.272   8.760   3.609 -0.2614  0.3717  0.9819
   85MOL0     C11095   3.156   8.788   3.686 -0.0811  0.2661  0.4051
   85MOL0     O11096   3.029   8.757   3.645  0.1282  0.3060 -0.1861
   85MOL0     C11097   2.996   8.810   3.518  0.1299  0.5560 -0.5414
   85MOL0     C11098   2.842   8.802   3.505 -0.2216 -0.8340  0.5973
   85MOL0     C11099   2.761   8.873   3.616 -0.4340 -0.0481 -0.1173
   85MOL0     C11100   2.629   8.921   3.571 -0.3298 -0.2589  0.4674
   85MOL0     C11101   2.554   8.817   3.496 -0.4979  1.0950 -1.0177
   85MOL0     C11102   2.407   8.851   3.478 -0.3988 -0.0763  0.1677
   85MOL0     C11103   2.315   8.841   3.592  0.6632 -0.5720 -0.3772
   85MOL0     C11104   2.280   8.698   3.626  0.1928  0.1124  0.5525
   85MOL0     N11105   2.180   8.688   3.743  0.1442  0.7930 -0.2044
   85MOL0     C11106   2.089   8.780   3.784  0.2115 -0.7887  0.0440
   85MOL0     C11107   2.042   8.736   3.906  0.3353 -1.0777  0.0265
   85MOL0     C11108   1.956   8.806   4.007 -0.8014 -0.4319 -0.0176
   85MOL0     C11109   1.807   8.772   3.984 -0.6192 -0.7226 -0.1299
   85MOL0     C11110   1.754   8.873   3.869 -0.0882 -0.6698 -0.3911
   85MOL0     C11111   1.606   8.884   3.859  0.5886  0.5663  0.6634
   85MOL0     O11112   1.565   8.949   3.988 -0.1440  0.1281  0.2474
   85MOL0     C11113   1.435   8.963   4.026 -0.3937 -0.1956 -0.4619
   85MOL0     C11114   1.330   8.903   3.954 -0.1645  0.6226 -0.1498
   85MOL0     C11115   1.200   8.913   3.998 -0.4710 -0.5201  0.8248
   85MOL0     C11116   1.171   8.970   4.121  1.0263  0.1855  0.9190
   85MOL0     C11117   1.033   8.979   4.167 -0.2002 -0.0161 -0.6887
   85MOL0     O11118   1.016   9.093   4.244  0.3814 -0.0295  0.0265
   85MOL0     C11119   0.893   9.124   4.303 -0.3918 -0.5282  1.1897
   85MOL0     C11120   0.822   9.045   4.393 -0.0125  0.5492 -0.4282
   85MOL0     C11121   0.708   9.081   4.464 -0.6625  0.6077  0.0799
   85MOL0     C11122   0.667   9.214   4.457  0.8610 -0.1475 -0.2833
   85MOL0     O11123   0.554   9.262   4.510  0.2868 -0.4053 -0.1444
   85MOL0     C11124   0.467   9.159   4.570  0.0043 -0.3016  0.1093
   85MOL0     C11125   0.350   9.208   4.644  0.3506  0.0881 -0.1404
   85MOL0     C11126   0.256   9.284   4.557  0.7507 -0.1609  0.4268
   85MOL0     C11127   0.144   9.355   4.627  0.1248 -0.0428 -0.2598
   85MOL0     C11128   0.195   9.471   4.721  0.7468  0.0640 -0.2628
   85MOL0     C11129   0.107   9.600   4.716  0.0028  0.1413  1.2311
   85MOL0     C11130  -0.037   9.567   4.766  0.2513 -0.4374 -0.0522
   85MOL0     C11131  -0.057   9.526   4.911 -0.6494 -0.9313  0.3790
   85MOL0    Cl11132  -0.231   9.486   4.953  0.7516  0.0404 -0.3152
   85MOL0     C11133   0.747   9.294   4.372  0.2815 -0.4289  0.1237
   85MOL0     C11134   0.861   9.254   4.301 -0.6277 -0.0981  0.0572
   85MOL0     O11135   0.958   8.881   4.158 -0.1376  0.0713  0.2681
   85MOL0     C11136   1.275   9.019   4.199  0.2009  0.6317  0.3255
   85MOL0     C11137   1.406   9.023   4.148  0.4228  0.1135  0.1705
   85MOL0     N11138   2.100   8.612   3.921 -0.4154 -0.8713  0.1704
   85MOL0     N11139   2.181   8.579   3.825  0.1548 -0.0590  0.2467
   85MOL0     C11140   3.179   8.830   3.816  0.9061 -0.5392 -0.2436
   85MOL0     C11141   3.303   8.839   3.878 -0.1873  0.0770  0.5663
   85MOL0     C11142   3.737   8.834   3.983  0.0482  0.0280 -0.7190
   85MOL0     C11143   3.798   8.804   4.102 -0.2435  0.0920  0.4299
   85MOL0     C11144   3.942   8.782   4.107 -0.4232  0.3385 -0.5752
   85MOL0     C11145   4.026   8.784   3.991  0.8182 -0.0573 -0.9135
   85MOL0     O11146   4.157   8.747   3.983 -0.0677  0.8467  0.1588
   85MOL0     C11147   4.233   8.722   4.105  0.3218 -0.4130 -0.3585
   85MOL0     C11148   4.378   8.732   4.066  0.1539 -0.2404 -0.3441
   85MOL0     C11149   4.409   8.880   4.032  0.7038 -0.7785  0.1905
   85MOL0     C11150   4.562   8.900   3.997  0.0373 -0.3376  0.5066
   85MOL0     C11151   4.649   8.869   4.114  0.5277  0.1849 -0.3579
   85MOL0     C11152   4.725   8.830   4.202 -0.1668 -0.5803  0.1912
   85MOL0     C11153   3.959   8.815   3.874  0.1687  0.0662  0.4568
   85MOL0     C11154   3.824   8.845   3.871 -1.1554  0.1055 -0.1084
   85MOL0     H11155   3.491   8.772   3.605  0.3748  2.8801  0.0693
   85MOL0     H11156   3.264   8.730   3.505 -2.4131 -0.4118  1.3079
   85MOL0     H11157   3.052   8.766   3.435  1.1613  1.5631 -0.4147
   85MOL0     H11158   3.021   8.916   3.510 -0.6432  0.8169  0.3210
   85MOL0     H11159   2.814   8.697   3.496 -1.5868 -0.4162 -0.3282
   85MOL0     H11160   2.828   8.860   3.413  0.7445 -1.4864  0.0217
   85MOL0     H11161   2.814   8.966   3.637 -0.0931 -0.2165 -0.2183
   85MOL0     H11162   2.742   8.810   3.703 -2.5381  0.2990 -0.2678
   85MOL0     H11163   2.571   8.949   3.660  1.2376 -0.3892  1.5664
   85MOL0     H11164   2.645   9.011   3.512  1.3109 -0.9733 -0.2384
   85MOL0     H11165   2.569   8.716   3.537  1.8827  2.5388  2.0777
   85MOL0     H11166   2.601   8.806   3.398  1.9544  0.5191  0.1603
   85MOL0     H11167   2.354   8.798   3.399  1.0681  0.1061 -0.9754
   85MOL0     H11168   2.402   8.958   3.453  0.2697 -0.0605  0.0921
   85MOL0     H11169   2.359   8.877   3.686  0.6885 -0.5823 -0.3855
   85MOL0     H11170   2.226   8.903   3.576  1.5418  0.7329 -0.3970
   85MOL0     H11171   2.365   8.631   3.637  0.2062 -0.0234 -0.2776
   85MOL0     H11172   2.224   8.660   3.539  0.6492  0.8599 -0.0881
   85MOL0     H11173   2.076   8.878   3.740 -0.0944  0.1055  1.9996
   85MOL0     H11174   1.978   8.912   3.988 -0.3366 -0.5769 -0.3105
   85MOL0     H11175   1.997   8.777   4.104 -1.1480 -1.6505 -0.2277
   85MOL0     H11176   1.762   8.784   4.083 -0.0782  0.8689 -0.0542
   85MOL0     H11177   1.794   8.673   3.938 -0.7213 -0.7756  0.0118
   85MOL0     H11178   1.813   8.965   3.882  0.3647 -0.9361 -0.5242
   85MOL0     H11179   1.782   8.835   3.770 -1.7539 -0.6495 -0.8974
   85MOL0     H11180   1.565   8.784   3.846  0.8471  0.6054 -0.5388
   85MOL0     H11181   1.574   8.942   3.772 -0.9409 -0.6395  0.3852
   85MOL0     H11182   1.358   8.848   3.865  0.3590  0.3127  0.2059
   85MOL0     H11183   1.114   8.873   3.945 -0.3503 -2.1843  1.8320
   85MOL0     H11184   0.855   8.942   4.406  2.4890  1.2475 -0.7078
   85MOL0     H11185   0.673   9.005   4.534  1.1044  1.1747  1.6784
   85MOL0     H11186   0.522   9.116   4.654 -0.1580  1.2668  1.0696
   85MOL0     H11187   0.432   9.081   4.503  1.5079 -1.6058  0.7921
   85MOL0     H11188   0.394   9.273   4.720 -0.5341 -0.5904  0.9784
   85MOL0     H11189   0.295   9.128   4.694 -0.8546 -0.6010 -2.4094
   85MOL0     H11190   0.203   9.222   4.484  0.8080  1.0779 -0.7055
   85MOL0     H11191   0.315   9.350   4.492  1.8046 -2.6777 -1.3334
   85MOL0     H11192   0.080   9.393   4.547  2.4811  1.0739 -1.7286
   85MOL0     H11193   0.094   9.280   4.688  0.2134 -0.3227 -0.5274
   85MOL0     H11194   0.295   9.504   4.689  0.4604  1.9657  0.6498
   85MOL0     H11195   0.199   9.445   4.827  0.9287  1.9843  0.2534
   85MOL0     H11196   0.101   9.625   4.610 -1.3794 -1.9624  0.7469
   85MOL0     H11197   0.161   9.682   4.764  3.6526 -2.0222  1.2111
   85MOL0     H11198  -0.096   9.659   4.758 -1.1628 -1.2802  0.3897
   85MOL0     H11199  -0.080   9.489   4.703  1.9925  0.2230 -2.1900
   85MOL0     H11200  -0.024   9.611   4.973 -1.5790 -2.7136  3.5599
   85MOL0     H11201   0.003   9.440   4.942  0.1269 -1.0819 -1.4155
   85MOL0     H11202   0.712   9.396   4.360  1.6084 -0.2389 -3.0082
   85MOL0     H11203   0.915   9.324   4.238 -0.9679  0.2608  0.1632
   85MOL0     H11204   1.248   9.055   4.298 -0.6239  2.0478 -0.3846
   85MOL0     H11205   1.484   9.074   4.204 -2.1842  2.1522  2.2278
   85MOL0     H11206   3.094   8.854   3.879 -0.9732 -0.8848 -2.4997
   85MOL0     H11207   3.301   8.874   3.981 -0.9832 -1.2268  1.0200
   85MOL0     H11208   3.745   8.798   4.197  0.1606  1.6419  0.7783
   85MOL0     H11209   3.978   8.760   4.207 -2.2042 -1.9376 -0.3359
   85MOL0     H11210   4.197   8.635   4.161 -3.8884  0.6670 -1.0158
   85MOL0     H11211   4.210   8.800   4.179 -1.7440  1.1947 -2.5511
   85MOL0     H11212   4.439   8.693   4.148 -2.3458  0.6180  2.0955
   85MOL0     H11213   4.401   8.668   3.980  0.9136 -0.3300 -0.0729
   85MOL0     H11214   4.390   8.938   4.123 -1.8643 -0.2458 -0.6022
   85MOL0     H11215   4.330   8.911   3.963 -1.0225 -1.8074  1.6285
   85MOL0     H11216   4.594   8.842   3.910 -3.1645  0.9174 -1.7022
   85MOL0     H11217   4.575   9.000   3.956 -0.2641 -1.0702 -1.4566
   85MOL0     H11218   4.776   8.774   4.277 -1.3414 -0.4446  1.1154
   85MOL0     H11219   4.014   8.824   3.781 -0.9541  0.1673 -0.2098
   85MOL0     H11220   3.786   8.863   3.771  0.4819  1.6961 -0.4964
   86MOL0     O11221   7.059  10.491   8.224  0.2260  0.9336  0.0933
   86MOL0     C11222   7.148  10.474   8.145 -0.4248 -0.5858  0.3881
   86MOL0     O11223   7.133  10.479   8.009 -0.1945 -0.5038  0.4725
   86MOL0     C11224   7.006  10.476   7.961  0.1356 -0.4394  0.6563
   86MOL0     C11225   6.936  10.596   7.927 -0.5679  0.1179  0.6371
   86MOL0     C11226   6.813  10.585   7.871 -0.5009 -0.3797 -0.1013
   86MOL0     C11227   6.741  10.466   7.866  0.1854 -0.1650  0.5695
   86MOL0     O11228   6.611  10.446   7.815  0.5524  0.3301 -0.8165
   86MOL0     C11229   6.571  10.524   7.710 -0.4622 -0.4632 -0.4470
   86MOL0     C11230   6.425  10.490   7.695 -0.1454  0.0686  0.1510
   86MOL0     C11231   6.412  10.335   7.666  0.4642  0.0299 -0.7054
   86MOL0     C11232   6.267  10.297   7.642 -0.4134  0.1999  0.7739
   86MOL0     C11233   6.242  10.328   7.500 -0.3208  0.6029  0.3615
   86MOL0     C11234   6.103  10.275   7.456  0.1800 -0.3373 -1.0052
   86MOL0     C11235   6.069  10.332   7.315 -0.3419 -0.1180  0.8338
   86MOL0     C11236   6.148  10.288   7.182  0.0309 -0.0241 -0.3465
   86MOL0     N11237   6.106  10.362   7.065  0.3790  0.0797  0.5202
   86MOL0     C11238   5.982  10.358   7.007  0.5238  0.2099  0.1431
   86MOL0     C11239   5.986  10.458   6.913  0.4999  0.0220 -0.3383
   86MOL0     C11240   5.879  10.497   6.816  0.2575  0.2811 -0.5944
   86MOL0     C11241   5.771  10.574   6.883  0.2440 -0.4790  0.0567
   86MOL0     C11242   5.690  10.628   6.776  0.5137 -0.0011  0.2221
   86MOL0     C11243   5.576  10.701   6.836 -0.1596 -0.0658  0.4558
   86MOL0     O11244   5.500  10.764   6.728  0.6087  0.1304 -0.4529
   86MOL0     C11245   5.376  10.794   6.758 -0.6958 -0.5553  0.2300
   86MOL0     C11246   5.284  10.771   6.651  0.6690 -0.0205 -0.0917
   86MOL0     C11247   5.146  10.799   6.666  0.0737  1.2404  0.5128
   86MOL0     C11248   5.103  10.860   6.789 -0.3134  0.0323  0.0019
   86MOL0     C11249   4.959  10.891   6.801 -0.6918 -0.0045  0.5689
   86MOL0     O11250   4.884  10.908   6.686 -0.3306  0.4871  0.5863
   86MOL0     C11251   4.748  10.935   6.689 -0.0185 -0.1694  0.3087
   86MOL0     C11252   4.660  10.898   6.791 -0.3103 -0.1173  0.5934
   86MOL0     C11253   4.525  10.915   6.781 -0.2629  0.2723 -0.7473
   86MOL0     C11254   4.466  11.002   6.687  0.0728 -0.5862  0.3128
   86MOL0     O11255   4.329  11.035   6.677 -0.6095  0.6870 -0.4845
   86MOL0     C11256   4.225  10.967   6.747  0.1667  0.0102  0.1965
   86MOL0     C11257   4.102  11.006   6.656 -0.5537  0.1762  0.3172
   86MOL0     C11258   4.060  11.151   6.662  0.2942 -0.2283  0.1546
   86MOL0     C11259   3.908  11.160   6.617 -0.6445 -0.4274  0.3483
   86MOL0     C11260   3.855  11.300   6.605 -0.3337  0.0323  0.4347
   86MOL0     C11261   3.878  11.381   6.737 -0.3862 -0.8359  0.7330
   86MOL0     C11262   3.808  11.529   6.727  0.8358  1.1023 -0.2597
   86MOL0     C11263   3.861  11.627   6.612 -0.4909 -0.6053 -1.0646
   86MOL0    Cl11264   4.039  11.672   6.614 -0.1067 -0.0901 -0.1736
   86MOL0     C11265   4.560  11.054   6.591  0.5308  0.3337 -0.6250
   86MOL0     C11266   4.697  11.010   6.586  0.8105  0.3375  0.9022
   86MOL0     O11267   4.917  10.902   6.914 -0.2697  0.3382 -0.0080
   86MOL0     C11268   5.195  10.877   6.890 -0.0020 -0.3582 -0.3077
   86MOL0     C11269   5.329  10.850   6.879  0.8891 -0.1129 -0.2281
   86MOL0     N11270   6.108  10.529   6.910  0.4630  0.4950 -0.5188
   86MOL0     N11271   6.186  10.454   7.001  0.7432 -0.5594 -0.3767
   86MOL0     C11272   6.807  10.351   7.912 -0.5014  0.7249  0.2565
   86MOL0     C11273   6.938  10.357   7.953  0.1272  0.0180 -0.2211
   86MOL0     C11274   7.287  10.444   8.188  0.4960 -0.1155 -0.1118
   86MOL0     C11275   7.385  10.402   8.096  0.7329 -0.4875 -0.4671
   86MOL0     C11276   7.515  10.371   8.128  0.3294 -0.2280  0.4684
   86MOL0     C11277   7.548  10.380   8.267 -0.0538 -0.2377  0.2011
   86MOL0     O11278   7.675  10.346   8.310  0.5482  0.9033  0.1353
   86MOL0     C11279   7.779  10.378   8.216  0.7293  0.0879 -0.5081
   86MOL0     C11280   7.914  10.380   8.288  0.4409 -0.5640  0.1656
   86MOL0     C11281   7.944  10.236   8.343  0.1816  0.5346  0.1938
   86MOL0     C11282   8.061  10.240   8.455  0.1816 -0.0295  0.8611
   86MOL0     C11283   8.201  10.242   8.402  0.3492  0.7586 -0.3787
   86MOL0     C11284   8.312  10.248   8.350  0.5113 -0.3144 -0.2634
   86MOL0     C11285   7.450  10.417   8.361  0.1175 -0.4636 -0.2097
   86MOL0     C11286   7.319  10.446   8.322  0.1388  0.0870  0.6073
   86MOL0     H11287   6.984  10.693   7.936  3.0928 -1.4561  0.0087
   86MOL0     H11288   6.771  10.674   7.825  0.1044 -0.5129 -0.9337
   86MOL0     H11289   6.620  10.484   7.621  3.5323  2.8221 -0.0087
   86MOL0     H11290   6.592  10.630   7.725  0.1403 -0.7272  0.7136
   86MOL0     H11291   6.389  10.540   7.605  0.2524  2.3686  1.1828
   86MOL0     H11292   6.363  10.528   7.777 -0.8465 -2.3569  0.8442
   86MOL0     H11293   6.449  10.278   7.752  0.4917  0.9833 -0.0666
   86MOL0     H11294   6.477  10.307   7.583  1.4954 -1.1361  0.4655
   86MOL0     H11295   6.267  10.187   7.649 -3.0863  0.1631  1.1341
   86MOL0     H11296   6.194  10.339   7.711  0.1765  1.1560  0.8348
   86MOL0     H11297   6.323  10.304   7.431 -2.1499  2.6560 -2.7615
   86MOL0     H11298   6.233  10.437   7.499 -0.0809  0.6681  2.0225
   86MOL0     H11299   6.042  10.326   7.531  1.5543  2.1211 -1.4225
   86MOL0     H11300   6.096  10.166   7.460 -1.6487 -0.2270 -0.7756
   86MOL0     H11301   5.963  10.319   7.293 -0.1664 -1.3268  0.6350
   86MOL0     H11302   6.085  10.440   7.316 -1.5794  0.0800  1.0248
   86MOL0     H11303   6.142  10.179   7.174 -2.2024 -0.1094  1.2676
   86MOL0     H11304   6.253  10.317   7.187 -0.3951  1.6924 -0.7361
   86MOL0     H11305   5.898  10.299   7.043  0.0120  1.3857  0.9147
   86MOL0     H11306   5.846  10.416   6.750  1.0240  1.4854 -2.5254
   86MOL0     H11307   5.941  10.565   6.757  3.3474 -1.7270  0.1138
   86MOL0     H11308   5.818  10.652   6.943  1.9534  0.3488 -2.2094
   86MOL0     H11309   5.708  10.518   6.953 -1.0482  0.8644  0.0007
   86MOL0     H11310   5.755  10.696   6.719  0.1434 -1.3902 -1.9785
   86MOL0     H11311   5.662  10.539   6.718  2.8395 -2.5263  2.6662
   86MOL0     H11312   5.617  10.783   6.896 -0.8145  0.8265 -0.2845
   86MOL0     H11313   5.520  10.637   6.905  1.9104 -0.3856  1.9031
   86MOL0     H11314   5.307  10.730   6.553  1.2620 -2.8558  1.1205
   86MOL0     H11315   5.082  10.764   6.586  0.1163 -0.2273  1.0962
   86MOL0     H11316   4.688  10.839   6.878 -5.4591 -1.6768  1.5740
   86MOL0     H11317   4.461  10.856   6.845  0.1973  0.4521 -0.1153
   86MOL0     H11318   4.213  10.993   6.852  1.3444  2.5392 -0.2083
   86MOL0     H11319   4.228  10.858   6.742  1.3402  0.0186  0.4586
   86MOL0     H11320   4.019  10.943   6.692 -0.6363 -1.0410 -1.8588
   86MOL0     H11321   4.119  10.970   6.554  1.7311  0.9897  0.3543
   86MOL0     H11322   4.117  11.224   6.604  0.0939  1.0524  1.4845
   86MOL0     H11323   4.071  11.181   6.767  1.9869 -0.7940  0.1625
   86MOL0     H11324   3.907  11.118   6.515  0.7432  1.1685 -0.3659
   86MOL0     H11325   3.841  11.100   6.679 -2.3517 -0.3905 -1.3679
   86MOL0     H11326   3.750  11.302   6.575 -0.0052 -0.9656 -0.8603
   86MOL0     H11327   3.919  11.343   6.527  0.8891 -3.1634 -0.4624
   86MOL0     H11328   3.987  11.386   6.749 -0.3012  0.0416 -0.2427
   86MOL0     H11329   3.847  11.330   6.828 -3.0467  1.2580  1.1233
   86MOL0     H11330   3.699  11.523   6.724  0.6462  2.7475  1.5853
   86MOL0     H11331   3.827  11.582   6.821  3.3955 -0.1399  0.0192
   86MOL0     H11332   3.805  11.721   6.607  2.5640  1.4667  0.8866
   86MOL0     H11333   3.842  11.584   6.513 -2.2063  2.6254 -2.2789
   86MOL0     H11334   4.519  11.123   6.518 -1.2480 -0.1741 -0.1674
   86MOL0     H11335   4.756  11.028   6.497 -1.2584  1.5608 -0.3169
   86MOL0     H11336   5.155  10.938   6.970 -1.8504 -0.1336 -1.3464
   86MOL0     H11337   5.391  10.878   6.964  3.1893  1.3237 -2.2315
   86MOL0     H11338   6.761  10.253   7.898 -0.4021  0.7247 -0.0668
   86MOL0     H11339   6.994  10.264   7.949  1.0326  0.4068  1.8049
   86MOL0     H11340   7.362  10.385   7.992  1.1423  1.3571 -0.8948
   86MOL0     H11341   7.582  10.330   8.054  0.7875 -1.3977  1.4981
   86MOL0     H11342   7.754  10.478   8.180  1.4219  0.0197 -1.2038
   86MOL0     H11343   7.778  10.302   8.137 -2.4741 -2.0974  1.3935
   86MOL0     H11344   7.992  10.405   8.216  0.6635  2.1682  1.2289
   86MOL0     H11345   7.931  10.454   8.367 -0.5109  1.4417 -1.3835
   86MOL0     H11346   7.965  10.166   8.261 -2.1450  2.7753 -2.5149
   86MOL0     H11347   7.858  10.196   8.398  0.8084  0.1694  0.9415
   86MOL0     H11348   8.041  10.318   8.529 -2.3629  2.0259 -1.7515
   86MOL0     H11349   8.061  10.148   8.515  2.0441 -0.4609  0.2635
   86MOL0     H11350   8.415  10.250   8.319  0.3587  1.2111 -0.7436
   86MOL0     H11351   7.471  10.438   8.465 -2.4583  1.9465 -0.0561
   86MOL0     H11352   7.248  10.470   8.401  0.9333 -2.8502  2.3581
   87MOL0     O11353   8.408   7.113  10.571  0.6327  0.4248 -0.4063
   87MOL0     C11354   8.465   7.027  10.504 -0.0374  0.4427  0.3142
   87MOL0     O11355   8.455   6.892  10.529 -0.0071 -0.1210  0.8310
   87MOL0     C11356   8.352   6.853  10.607  0.2018 -0.5177  0.4378
   87MOL0     C11357   8.368   6.807  10.739  0.1507 -0.2190 -0.0579
   87MOL0     C11358   8.260   6.808  10.826 -0.4441  1.0073  0.3551
   87MOL0     C11359   8.127   6.826  10.782  0.2135 -0.7316 -0.0147
   87MOL0     O11360   8.026   6.808  10.872 -0.2930  0.3747  0.1100
   87MOL0     C11361   7.894   6.773  10.826 -0.2317 -0.2147  1.6901
   87MOL0     C11362   7.802   6.753  10.946  0.0440  0.3396 -0.5873
   87MOL0     C11363   7.661   6.710  10.912  0.1053  0.2195  0.0920
   87MOL0     C11364   7.593   6.626  11.019 -0.7498 -0.1601 -1.0228
   87MOL0     C11365   7.455   6.583  10.968 -0.0462  0.3675 -0.2629
   87MOL0     C11366   7.349   6.688  10.936  1.1339 -0.4507 -0.2273
   87MOL0     C11367   7.306   6.759  11.071 -0.0635 -0.3906  0.3565
   87MOL0     C11368   7.176   6.714  11.136 -0.3202  0.6350 -0.0585
   87MOL0     N11369   7.178   6.576  11.167 -0.3040  0.2183  0.5806
   87MOL0     C11370   7.242   6.508  11.270 -1.1851 -0.4625 -0.1491
   87MOL0     C11371   7.217   6.375  11.242 -0.2892  0.1546 -0.3963
   87MOL0     C11372   7.270   6.263  11.317  0.3765  0.7108  0.5065
   87MOL0     C11373   7.178   6.211  11.422  0.5375 -0.1081 -0.9200
   87MOL0     C11374   7.240   6.086  11.499  0.1688 -0.8216  0.7884
   87MOL0     C11375   7.124   6.029  11.580  0.1806 -0.0056 -0.1673
   87MOL0     O11376   7.154   5.905  11.636 -0.1089  0.6634  1.3730
   87MOL0     C11377   7.065   5.808  11.590 -0.5592 -0.2674  0.3016
   87MOL0     C11378   7.052   5.777  11.456 -0.7730 -0.2289 -0.4505
   87MOL0     C11379   6.966   5.678  11.411  0.1194  0.6694  0.3640
   87MOL0     C11380   6.892   5.602  11.501  0.1209 -1.4047 -0.2177
   87MOL0     C11381   6.794   5.500  11.470 -0.2857 -0.2238  0.1681
   87MOL0     O11382   6.780   5.398  11.556  0.4290 -0.5440 -0.8159
   87MOL0     C11383   6.655   5.342  11.586  0.3078 -0.0818  0.2378
   87MOL0     C11384   6.551   5.428  11.624 -0.8027 -0.1338 -0.2954
   87MOL0     C11385   6.420   5.384  11.638  0.4370 -0.7029  0.5747
   87MOL0     C11386   6.391   5.251  11.613 -0.8659  0.4662 -0.0039
   87MOL0     O11387   6.268   5.193  11.632  0.3885  0.8222  0.6956
   87MOL0     C11388   6.155   5.255  11.685  0.1139  0.0099 -0.3852
   87MOL0     C11389   6.074   5.301  11.565 -0.2853 -0.1572  0.0472
   87MOL0     C11390   5.927   5.311  11.587  0.1001 -0.3067  0.3572
   87MOL0     C11391   5.867   5.173  11.633 -0.0812  0.0281  0.1648
   87MOL0     C11392   5.715   5.177  11.632 -0.4093  0.2078 -0.1214
   87MOL0     C11393   5.657   5.165  11.489 -0.6739  0.3400  0.3586
   87MOL0     C11394   5.502   5.167  11.480 -1.2879 -0.4540 -0.2798
   87MOL0     C11395   5.445   5.033  11.512  0.5894 -0.0995  0.3841
   87MOL0    Cl11396   5.266   5.031  11.509 -0.0633  0.1423  0.0821
   87MOL0     C11397   6.500   5.163  11.581 -0.5068  0.0975  0.4130
   87MOL0     C11398   6.628   5.211  11.558 -0.7164 -0.3047 -0.0204
   87MOL0     O11399   6.728   5.507  11.364  0.0629 -0.1854  0.0855
   87MOL0     C11400   6.905   5.630  11.640  0.5642  0.1349  1.3419
   87MOL0     C11401   6.980   5.745  11.679 -0.9976  0.2281  0.8034
   87MOL0     N11402   7.139   6.373  11.127 -0.7621 -0.2720  0.2009
   87MOL0     N11403   7.111   6.493  11.086 -0.8001 -0.0097  0.5350
   87MOL0     C11404   8.111   6.857  10.645  0.4697  0.7079  0.1872
   87MOL0     C11405   8.224   6.862  10.559 -0.2538 -0.6952  0.2446
   87MOL0     C11406   8.584   7.054  10.417  0.3272 -0.0041  0.8814
   87MOL0     C11407   8.653   6.949  10.354  0.4221 -0.4146 -0.7062
   87MOL0     C11408   8.769   6.981  10.275  0.5858  0.7982 -0.2348
   87MOL0     C11409   8.806   7.112  10.242  0.2196  0.3472 -0.3523
   87MOL0     O11410   8.913   7.132  10.157 -0.4250 -0.3110 -0.0778
   87MOL0     C11411   8.987   7.256  10.171 -0.4059  0.4790 -0.4291
   87MOL0     C11412   9.122   7.256  10.101 -0.4407 -0.0120  0.1958
   87MOL0     C11413   9.182   7.401  10.080  0.5870  0.4278  0.1463
   87MOL0     C11414   9.225   7.475  10.210  0.3148 -0.0336 -0.2051
   87MOL0     C11415   9.107   7.510  10.288  0.3853 -0.0583  0.3954
   87MOL0     C11416   9.009   7.530  10.358 -0.7945 -0.4038 -0.3642
   87MOL0     C11417   8.732   7.213  10.301 -0.2124 -0.7376  0.0477
   87MOL0     C11418   8.628   7.183  10.386  0.8171 -0.6670 -0.1006
   87MOL0     H11419   8.472   6.795  10.768  0.1462  0.3376  0.2076
   87MOL0     H11420   8.288   6.787  10.929  0.7723 -2.4466 -0.5134
   87MOL0     H11421   7.900   6.681  10.767  0.9290  0.5938  0.4808
   87MOL0     H11422   7.848   6.850  10.763 -1.9462 -0.4372  2.6183
   87MOL0     H11423   7.796   6.845  11.006  1.0817  0.4071 -0.5538
   87MOL0     H11424   7.846   6.679  11.014 -0.2748  0.8411  0.1828
   87MOL0     H11425   7.660   6.657  10.816  0.3175  0.4368 -0.0333
   87MOL0     H11426   7.605   6.802  10.897 -1.1188 -0.8292 -2.3690
   87MOL0     H11427   7.664   6.544  11.029  0.2105  0.6858 -0.6388
   87MOL0     H11428   7.603   6.676  11.116 -1.0401 -1.2034 -0.4540
   87MOL0     H11429   7.412   6.521  11.047  0.0223 -0.5205 -0.9128
   87MOL0     H11430   7.461   6.522  10.878 -0.1105  0.2453 -0.1848
   87MOL0     H11431   7.261   6.642  10.889  0.4738 -0.4854  1.0082
   87MOL0     H11432   7.394   6.760  10.867 -0.8998  1.1748  0.0547
   87MOL0     H11433   7.391   6.760  11.141 -0.9817  2.4612  1.5861
   87MOL0     H11434   7.293   6.865  11.047 -0.5924 -0.3366  0.8470
   87MOL0     H11435   7.090   6.747  11.078 -1.5446 -0.5731  1.0093
   87MOL0     H11436   7.170   6.764  11.233 -0.0651 -0.8787  0.7790
   87MOL0     H11437   7.307   6.551  11.345 -0.8050  0.0375 -0.7606
   87MOL0     H11438   7.359   6.297  11.370  0.6340 -0.8842  1.1471
   87MOL0     H11439   7.298   6.179  11.253  0.5374  0.8510  0.3964
   87MOL0     H11440   7.090   6.171  11.372 -2.1253 -1.2365  4.0052
   87MOL0     H11441   7.158   6.282  11.503 -0.1148 -1.8414  0.4788
   87MOL0     H11442   7.268   6.017  11.419 -0.1664 -1.1945  0.9885
   87MOL0     H11443   7.328   6.105  11.562  0.7990 -0.2885 -0.2236
   87MOL0     H11444   7.036   6.023  11.515  0.2476  3.4482 -0.7253
   87MOL0     H11445   7.108   6.096  11.665  0.5685  0.8929 -0.8022
   87MOL0     H11446   7.110   5.828  11.380 -1.9540  0.0166 -1.2052
   87MOL0     H11447   6.943   5.651  11.308 -0.4382 -2.3359  1.1839
   87MOL0     H11448   6.572   5.534  11.633 -0.8681 -0.0361 -1.1918
   87MOL0     H11449   6.349   5.461  11.666 -1.0274 -1.4498 -0.9177
   87MOL0     H11450   6.185   5.333  11.755 -1.4397 -0.4933  0.8908
   87MOL0     H11451   6.102   5.176  11.739  0.3263  0.0471 -0.1174
   87MOL0     H11452   6.099   5.245  11.474  0.2362  0.2904 -0.0946
   87MOL0     H11453   6.117   5.400  11.550 -0.6340  0.2291  1.5026
   87MOL0     H11454   5.873   5.351  11.500  1.7097 -3.0859 -2.1259
   87MOL0     H11455   5.913   5.382  11.668 -0.8324  0.7060 -0.6511
   87MOL0     H11456   5.899   5.090  11.569 -0.6227  0.9579 -1.3673
   87MOL0     H11457   5.905   5.162  11.736 -1.0089  3.2325  0.9492
   87MOL0     H11458   5.677   5.269  11.678 -1.7937 -0.0523 -0.6991
   87MOL0     H11459   5.684   5.098  11.700  2.1790 -1.4440 -0.7238
   87MOL0     H11460   5.696   5.079  11.434 -0.8553  0.1687  0.4942
   87MOL0     H11461   5.685   5.263  11.450 -0.6805 -0.0718 -0.7018
   87MOL0     H11462   5.460   5.237  11.552 -2.3829  0.7656 -2.0223
   87MOL0     H11463   5.475   5.198  11.379  0.9424 -0.9051 -1.0667
   87MOL0     H11464   5.487   4.997  11.607  0.4459 -4.1176 -0.8916
   87MOL0     H11465   5.491   4.962  11.443  1.4833 -0.2502  1.1130
   87MOL0     H11466   6.461   5.061  11.577 -1.0002  0.2511  1.0918
   87MOL0     H11467   6.703   5.137  11.531  0.1483 -0.3600  2.3332
   87MOL0     H11468   6.852   5.572  11.714  1.7089 -1.3990  1.0053
   87MOL0     H11469   6.978   5.773  11.784 -0.3378 -1.6948  1.3702
   87MOL0     H11470   8.013   6.874  10.601  0.3174 -0.2312  0.1368
   87MOL0     H11471   8.220   6.909  10.462  0.0813  1.9861  1.4473
   87MOL0     H11472   8.636   6.843  10.368  0.4534 -0.4423 -0.8733
   87MOL0     H11473   8.826   6.896  10.238 -2.3482 -2.1699  1.5360
   87MOL0     H11474   9.000   7.274  10.278  0.1593  0.3993 -0.4858
   87MOL0     H11475   8.925   7.338  10.131 -0.6136  1.1552  1.2011
   87MOL0     H11476   9.195   7.198  10.157  0.7963  1.1857 -0.1216
   87MOL0     H11477   9.110   7.212  10.001 -1.4398  2.3286 -0.7885
   87MOL0     H11478   9.109   7.462  10.027  1.9879  2.5028  0.4931
   87MOL0     H11479   9.268   7.395  10.011  0.0508  2.2310 -0.7399
   87MOL0     H11480   9.296   7.415  10.269  1.7635  0.5589 -1.2876
   87MOL0     H11481   9.281   7.564  10.180  0.4908 -0.6095 -1.6540
   87MOL0     H11482   8.929   7.550  10.427 -0.4886 -2.6595  0.7263
   87MOL0     H11483   8.757   7.318  10.289 -0.0856 -0.7225  0.4526
   87MOL0     H11484   8.572   7.257  10.442  1.0396 -1.6405  1.4770
   88MOL0     O11485   9.616  10.635   8.761  0.5077 -0.2231 -0.6086
   88MOL0     C11486   9.699  10.556   8.807 -0.4385 -0.5075  0.2753
   88MOL0     O11487   9.691  10.502   8.932 -0.1927 -0.5882 -0.1965
   88MOL0     C11488   9.579  10.530   9.014  0.0812  0.3981  0.3679
   88MOL0     C11489   9.535  10.662   9.037  0.7380  0.4909  0.5727
   88MOL0     C11490   9.420  10.682   9.115  0.5163 -0.0913 -0.0798
   88MOL0     C11491   9.349  10.580   9.175  0.2470 -0.1487  0.2885
   88MOL0     O11492   9.236  10.605   9.251 -0.8931 -0.2999  0.5667
   88MOL0     C11493   9.259  10.575   9.391 -0.2208 -0.0545  0.4745
   88MOL0     C11494   9.134  10.589   9.471 -0.4624  0.2089 -0.4502
   88MOL0     C11495   9.013  10.512   9.414 -0.7010  0.8966  0.0360
   88MOL0     C11496   8.888  10.529   9.500  0.9179  0.1098  0.4109
   88MOL0     C11497   8.768  10.432   9.471  0.3136 -0.1487  0.3839
   88MOL0     C11498   8.713  10.452   9.327 -0.4964  0.2866 -0.3063
   88MOL0     C11499   8.577  10.387   9.325 -0.3047  0.2807  0.3011
   88MOL0     C11500   8.539  10.373   9.178 -0.2232  0.0125 -0.0736
   88MOL0     N11501   8.405  10.309   9.173  0.3284 -0.3745  0.1337
   88MOL0     C11502   8.283  10.366   9.188 -0.2398 -0.3280 -0.3211
   88MOL0     C11503   8.193  10.273   9.159  0.0357  0.3615 -0.1559
   88MOL0     C11504   8.052  10.286   9.198  1.2623 -0.1270 -0.4538
   88MOL0     C11505   7.965  10.326   9.082 -0.4410  0.0167 -0.2275
   88MOL0     C11506   7.825  10.372   9.118 -0.3071  0.0724 -0.3406
   88MOL0     C11507   7.746  10.247   9.165 -0.6876 -0.2806 -0.2847
   88MOL0     O11508   7.610  10.297   9.190  0.0960  0.8148 -0.5472
   88MOL0     C11509   7.506  10.213   9.163 -0.7106  0.4260  0.4557
   88MOL0     C11510   7.518  10.079   9.113 -0.3959  0.9686  0.2169
   88MOL0     C11511   7.402   9.997   9.095  0.3275  0.7061  0.0496
   88MOL0     C11512   7.272  10.053   9.115 -0.2566  0.0713  0.1002
   88MOL0     C11513   7.154   9.967   9.096 -0.6889 -0.5232  0.5049
   88MOL0     O11514   7.044  10.007   9.170  0.5800 -0.3092  0.2344
   88MOL0     C11515   6.928   9.936   9.164  0.1075  0.5947  0.0610
   88MOL0     C11516   6.818  10.015   9.203 -0.0666 -0.2363 -0.0698
   88MOL0     C11517   6.690   9.970   9.224 -0.5341 -0.2798  0.0611
   88MOL0     C11518   6.667   9.832   9.201  0.5597 -0.6078 -0.5374
   88MOL0     O11519   6.541   9.780   9.209  0.6123 -0.5498 -0.0890
   88MOL0     C11520   6.423   9.858   9.163 -0.4688  0.0163  0.1888
   88MOL0     C11521   6.293   9.780   9.166 -0.0074  0.1401  0.7177
   88MOL0     C11522   6.175   9.847   9.099 -0.3011 -0.2306  0.6292
   88MOL0     C11523   6.054   9.761   9.082 -0.6524 -0.5067 -0.0107
   88MOL0     C11524   5.960   9.822   8.978 -0.0022  0.1070 -0.3715
   88MOL0     C11525   5.818   9.743   8.958 -0.1326 -0.8576 -0.2107
   88MOL0     C11526   5.717   9.833   8.884 -0.7654  0.2592 -0.4888
   88MOL0     C11527   5.587   9.763   8.881  0.5157 -0.8853 -0.2597
   88MOL0    Cl11528   5.464   9.882   8.831 -0.0374 -0.0314  0.7949
   88MOL0     C11529   6.772   9.750   9.160 -0.6999 -0.0829  0.8452
   88MOL0     C11530   6.903   9.800   9.150 -0.4896 -0.2904  0.8183
   88MOL0     O11531   7.157   9.872   9.029 -0.2243  0.6368 -0.2103
   88MOL0     C11532   7.261  10.183   9.178 -0.5830  0.3564 -0.0407
   88MOL0     C11533   7.376  10.260   9.202  0.4262  0.5374  0.3365
   88MOL0     N11534   8.268  10.157   9.129  0.8228  0.4103  0.3301
   88MOL0     N11535   8.393  10.176   9.146  0.1271 -0.1128 -0.5110
   88MOL0     C11536   9.400  10.453   9.155  0.2385  0.3433 -0.1584
   88MOL0     C11537   9.508  10.419   9.078 -0.1627 -0.6077 -0.2077
   88MOL0     C11538   9.829  10.531   8.736 -0.1240 -0.3807  0.6772
   88MOL0     C11539   9.860  10.609   8.616  0.3295 -0.1590 -0.2800
   88MOL0     C11540   9.976  10.583   8.545  0.0807  0.1320  0.0386
   88MOL0     C11541  10.078  10.502   8.591 -0.1967  0.7389 -0.0635
   88MOL0     O11542  10.193  10.502   8.510 -0.1148 -0.9566  0.3469
   88MOL0     C11543  10.308  10.417   8.544 -0.9018  0.3996  0.4472
   88MOL0     C11544  10.369  10.340   8.420 -0.1646 -0.7854 -0.1113
   88MOL0     C11545  10.273  10.268   8.335 -0.5019  1.2349  0.2333
   88MOL0     C11546  10.180  10.167   8.407  0.2630 -0.4394  0.2815
   88MOL0     C11547  10.261  10.062   8.468  0.0547  0.7352 -0.2817
   88MOL0     C11548  10.324   9.971   8.515  0.4294  0.0500  0.4692
   88MOL0     C11549  10.047  10.412   8.699 -0.7338  0.0851 -0.2435
   88MOL0     C11550   9.921  10.422   8.764 -0.0649  0.8388  1.0854
   88MOL0     H11551   9.570  10.753   8.990 -3.5789  2.3120  0.4067
   88MOL0     H11552   9.373  10.780   9.118  0.3276 -0.0943 -1.8038
   88MOL0     H11553   9.336  10.646   9.421 -0.2285  1.5235 -2.7217
   88MOL0     H11554   9.290  10.472   9.410 -0.4546 -0.2553 -0.1862
   88MOL0     H11555   9.110  10.695   9.481 -1.5987 -0.2061  2.1738
   88MOL0     H11556   9.143  10.551   9.574  1.2840 -2.0813 -1.3420
   88MOL0     H11557   9.042  10.407   9.419  0.3447  1.1980  0.9224
   88MOL0     H11558   8.994  10.539   9.309 -1.1181 -2.8916 -1.0077
   88MOL0     H11559   8.914  10.526   9.606  2.0203  1.3130  0.1904
   88MOL0     H11560   8.850  10.631   9.484 -0.4548 -0.4904 -0.3900
   88MOL0     H11561   8.694  10.441   9.551  1.3210  0.9937  1.2217
   88MOL0     H11562   8.817  10.335   9.482  1.2848  0.5026  2.4124
   88MOL0     H11563   8.777  10.405   9.252 -1.2653 -2.1131  0.4349
   88MOL0     H11564   8.706  10.558   9.300  1.8099  0.2892 -1.0562
   88MOL0     H11565   8.582  10.286   9.368  0.5775 -0.0594 -0.5674
   88MOL0     H11566   8.498  10.443   9.376 -0.4827  1.2341 -0.9814
   88MOL0     H11567   8.606  10.302   9.129 -2.8866 -1.5718 -1.6653
   88MOL0     H11568   8.538  10.467   9.122 -0.4633 -0.9158 -1.6857
   88MOL0     H11569   8.253  10.464   9.224 -0.9460 -0.3805 -0.7364
   88MOL0     H11570   8.043  10.370   9.267  2.2897  0.7555 -1.3491
   88MOL0     H11571   8.013  10.192   9.238  3.7780 -1.7048 -1.4835
   88MOL0     H11572   7.962  10.251   9.003  1.7230  1.3055 -1.6364
   88MOL0     H11573   8.010  10.415   9.037  0.7704  0.2050  1.2816
   88MOL0     H11574   7.824  10.446   9.199 -1.8140 -1.0605  0.7319
   88MOL0     H11575   7.778  10.415   9.029 -1.1032  1.4727  0.7138
   88MOL0     H11576   7.786  10.192   9.251 -1.4672 -2.1979 -1.0785
   88MOL0     H11577   7.753  10.175   9.083  3.0729 -1.0049  0.5034
   88MOL0     H11578   7.608  10.030   9.079 -2.8275 -2.7769 -1.4382
   88MOL0     H11579   7.425   9.900   9.054  0.8536  0.1094  1.6673
   88MOL0     H11580   6.825  10.121   9.224  1.3605  0.1338 -2.2199
   88MOL0     H11581   6.612  10.032   9.267 -1.9251 -2.6593  1.1230
   88MOL0     H11582   6.455   9.902   9.068 -1.5461 -1.7863 -1.0827
   88MOL0     H11583   6.402   9.931   9.241 -0.2498 -0.9141  1.1570
   88MOL0     H11584   6.246   9.759   9.262 -0.4649  3.2597  1.2869
   88MOL0     H11585   6.315   9.684   9.118  1.0978  0.3563  0.7433
   88MOL0     H11586   6.215   9.893   9.008 -0.1339  0.8843  1.2538
   88MOL0     H11587   6.169   9.932   9.167  1.9349 -1.2923  2.2941
   88MOL0     H11588   6.073   9.658   9.048  1.5555 -0.8453  2.0241
   88MOL0     H11589   6.004   9.756   9.179 -0.3402  0.7686  0.2287
   88MOL0     H11590   6.008   9.831   8.880  0.4702  0.3200 -0.1208
   88MOL0     H11591   5.925   9.920   9.013  1.4680 -0.3199  2.5708
   88MOL0     H11592   5.767   9.722   9.053 -1.4842  2.8134  0.0215
   88MOL0     H11593   5.836   9.646   8.910  2.4062 -0.7194  0.3078
   88MOL0     H11594   5.699   9.926   8.939  0.4593  1.1255 -1.4781
   88MOL0     H11595   5.736   9.861   8.780  0.5099 -0.1275 -0.3799
   88MOL0     H11596   5.558   9.732   8.983 -1.1103  0.9073 -0.1182
   88MOL0     H11597   5.579   9.671   8.823 -0.3973  0.3194 -2.1216
   88MOL0     H11598   6.764   9.643   9.144  0.0197  0.2440 -2.4022
   88MOL0     H11599   6.983   9.732   9.121  1.4639 -0.4008  5.5593
   88MOL0     H11600   7.170  10.209   9.231 -0.6967  0.8641 -0.4827
   88MOL0     H11601   7.373  10.359   9.244  1.6362  0.1128  1.4941
   88MOL0     H11602   9.338  10.371   9.191 -0.1262 -0.5884 -2.7081
   88MOL0     H11603   9.529  10.314   9.063 -2.0362 -0.9816 -0.4702
   88MOL0     H11604   9.785  10.680   8.580 -0.1731  1.1993  3.0753
   88MOL0     H11605  10.002  10.642   8.458  1.9893 -0.0592  0.4361
   88MOL0     H11606  10.276  10.334   8.608 -0.3790  0.6689  1.0714
   88MOL0     H11607  10.391  10.467   8.595  0.7612 -1.9597  0.1636
   88MOL0     H11608  10.421  10.415   8.361  0.4517 -0.1621  1.1803
   88MOL0     H11609  10.445  10.266   8.448  2.7233  2.1615  0.4155
   88MOL0     H11610  10.325  10.221   8.251 -1.0944  1.0553 -0.0351
   88MOL0     H11611  10.202  10.339   8.291 -0.6563  1.1508  0.3457
   88MOL0     H11612  10.113  10.214   8.480 -3.3747 -2.1584 -1.6679
   88MOL0     H11613  10.112  10.108   8.343 -2.3587  0.1064  2.3875
   88MOL0     H11614  10.370   9.884   8.556  1.9589  1.4236  1.7802
   88MOL0     H11615  10.120  10.342   8.738 -0.7315  0.9223  1.3173
   88MOL0     H11616   9.890  10.356   8.845  0.0424  1.2290  1.4481
   89MOL0     O11617   8.586   2.439   1.886 -0.3473  0.1360  0.3306
   89MOL0     C11618   8.612   2.439   1.765 -0.3952  0.5803 -0.3616
   89MOL0     O11619   8.521   2.409   1.668  0.1774 -0.0354  0.6312
   89MOL0     C11620   8.395   2.360   1.695  0.6150 -0.2521  0.2550
   89MOL0     C11621   8.286   2.414   1.626  0.9499 -0.2447 -0.1697
   89MOL0     C11622   8.154   2.364   1.655  0.1707 -0.2888 -0.2115
   89MOL0     C11623   8.136   2.262   1.756  0.5894 -0.0175  0.2765
   89MOL0     O11624   8.006   2.219   1.782 -0.1630  0.3542 -0.3424
   89MOL0     C11625   7.976   2.242   1.918 -0.2128  0.6174 -0.3771
   89MOL0     C11626   7.878   2.133   1.967 -0.2461  0.0350  0.2345
   89MOL0     C11627   7.735   2.148   1.905  0.6836 -0.2083  0.7325
   89MOL0     C11628   7.649   2.018   1.931  0.5060  0.1078 -0.0735
   89MOL0     C11629   7.520   2.032   1.845 -0.0980 -0.1794  0.0818
   89MOL0     C11630   7.402   1.979   1.923  0.5306  0.1573 -0.0741
   89MOL0     C11631   7.305   2.084   1.979 -0.5307  0.2605  0.6247
   89MOL0     C11632   7.222   2.032   2.094 -0.0155  0.3211  0.0222
   89MOL0     N11633   7.111   1.948   2.044 -0.0050  0.5004 -0.0448
   89MOL0     C11634   6.997   1.996   1.992 -0.0776  1.1231  1.3667
   89MOL0     C11635   6.926   1.882   1.969 -0.1973 -0.0407  0.3820
   89MOL0     C11636   6.785   1.868   1.925  0.4972  0.3825  0.4747
   89MOL0     C11637   6.692   1.863   2.046  0.2680 -1.0882  0.4813
   89MOL0     C11638   6.540   1.895   2.002 -0.5819 -0.4149 -0.0820
   89MOL0     C11639   6.521   2.047   1.974  0.1969  0.2246 -0.4748
   89MOL0     O11640   6.499   2.120   2.094  0.0105  0.1556  0.7339
   89MOL0     C11641   6.446   2.245   2.067 -0.4653 -0.3377 -0.2773
   89MOL0     C11642   6.395   2.320   2.175  0.1148  0.4107 -0.1205
   89MOL0     C11643   6.321   2.436   2.149  0.1749  0.3495 -0.0741
   89MOL0     C11644   6.289   2.484   2.015 -0.9124  0.5533 -0.3312
   89MOL0     C11645   6.201   2.600   1.988  0.3441 -0.3953  0.6748
   89MOL0     O11646   6.173   2.682   2.094 -0.4423 -0.0815  0.3716
   89MOL0     C11647   6.063   2.766   2.088 -0.0018 -0.8709 -0.2130
   89MOL0     C11648   5.931   2.709   2.075 -0.6174 -0.1188 -0.5868
   89MOL0     C11649   5.822   2.803   2.078 -0.2158  0.3680 -0.1899
   89MOL0     C11650   5.843   2.943   2.096  0.2406  0.1103 -0.2065
   89MOL0     O11651   5.739   3.024   2.112  0.1621 -0.4905 -0.1869
   89MOL0     C11652   5.607   2.979   2.090 -0.3860  0.5049 -0.0322
   89MOL0     C11653   5.506   3.095   2.100  0.1037  0.6754  0.0747
   89MOL0     C11654   5.374   3.071   2.032 -0.5375 -0.0902  0.1455
   89MOL0     C11655   5.273   3.186   2.042 -0.0643 -0.2741  0.1926
   89MOL0     C11656   5.139   3.159   1.976 -0.2538  0.5384  1.2486
   89MOL0     C11657   5.069   3.298   1.972 -0.4169 -0.1481 -0.1086
   89MOL0     C11658   4.932   3.286   1.895  0.3590  0.6932 -0.1054
   89MOL0     C11659   4.830   3.394   1.930  0.8166 -0.8047 -0.3040
   89MOL0    Cl11660   4.671   3.360   1.860  0.2564 -0.3264  0.0418
   89MOL0     C11661   5.968   2.991   2.124  0.1042  0.2452  0.2397
   89MOL0     C11662   6.072   2.902   2.120 -0.3697  0.3251  0.0148
   89MOL0     O11663   6.143   2.607   1.876  0.0019 -0.5775 -0.7197
   89MOL0     C11664   6.371   2.420   1.918  0.6606 -0.4701 -0.3191
   89MOL0     C11665   6.447   2.304   1.942  0.1821 -0.2966 -0.2511
   89MOL0     N11666   7.011   1.772   1.984  0.5791 -0.3056  0.9561
   89MOL0     N11667   7.116   1.813   2.035  0.1018  0.3143  0.8363
   89MOL0     C11668   8.241   2.208   1.819  0.1719  0.0000  0.4682
   89MOL0     C11669   8.369   2.257   1.788  0.1321  0.2593 -0.4395
   89MOL0     C11670   8.744   2.477   1.723  0.6720 -0.2121 -0.0581
   89MOL0     C11671   8.859   2.465   1.809 -0.2186 -0.0289 -0.9783
   89MOL0     C11672   8.986   2.499   1.758  0.0354 -0.0180 -0.3089
   89MOL0     C11673   9.009   2.558   1.635  0.0836  0.1034  0.7840
   89MOL0     O11674   9.143   2.593   1.613 -0.7297 -0.3478  0.5981
   89MOL0     C11675   9.185   2.648   1.482  0.0957 -0.1808 -1.4116
   89MOL0     C11676   9.151   2.796   1.477  0.7555 -0.1130  0.1003
   89MOL0     C11677   9.256   2.866   1.385  0.4532  0.3957 -0.3925
   89MOL0     C11678   9.222   3.015   1.358 -0.4084 -0.1902  0.5669
   89MOL0     C11679   9.319   3.086   1.264  0.7231 -0.3294 -0.2775
   89MOL0     C11680   9.385   3.151   1.187 -0.4158  0.1685 -0.0877
   89MOL0     C11681   8.895   2.575   1.546  0.2729 -0.5780 -0.2026
   89MOL0     C11682   8.765   2.542   1.593  0.0670  0.2860 -0.6142
   89MOL0     H11683   8.304   2.492   1.553  0.6342 -0.8070 -0.8537
   89MOL0     H11684   8.067   2.402   1.603  1.9018  1.6708 -1.8420
   89MOL0     H11685   7.933   2.342   1.931 -1.1794  0.0176  1.3576
   89MOL0     H11686   8.051   2.226   1.996 -1.9737 -2.4402  0.8709
   89MOL0     H11687   7.880   2.138   2.077  2.1722  3.8446  0.2056
   89MOL0     H11688   7.917   2.038   1.929 -0.7302  0.1240 -0.4982
   89MOL0     H11689   7.758   2.162   1.799  3.2892 -1.2110  1.0831
   89MOL0     H11690   7.685   2.233   1.952  1.7921 -0.4242  2.3612
   89MOL0     H11691   7.698   1.926   1.896  1.4573  1.4075 -2.3363
   89MOL0     H11692   7.622   2.018   2.037  0.0467 -0.5883 -0.1812
   89MOL0     H11693   7.515   1.983   1.747 -1.5404 -2.5819  1.2556
   89MOL0     H11694   7.491   2.136   1.825 -0.9368 -0.0330  1.8623
   89MOL0     H11695   7.434   1.916   2.006 -0.8538  0.8566  1.0443
   89MOL0     H11696   7.346   1.916   1.853  1.8454 -0.1119 -0.9252
   89MOL0     H11697   7.365   2.163   2.025 -1.4422  1.2046  0.2255
   89MOL0     H11698   7.247   2.134   1.901 -0.1724  0.6191  0.5822
   89MOL0     H11699   7.182   2.118   2.148 -0.2890  0.2423 -0.0492
   89MOL0     H11700   7.274   1.961   2.158 -1.1216 -1.0799 -0.5754
   89MOL0     H11701   6.959   2.097   1.984 -0.0834  0.9940 -1.1279
   89MOL0     H11702   6.768   1.779   1.863 -2.6136 -0.2789  2.0688
   89MOL0     H11703   6.763   1.955   1.864 -1.0730 -0.4045 -0.1397
   89MOL0     H11704   6.732   1.934   2.118  0.4698 -0.1788 -0.5043
   89MOL0     H11705   6.694   1.762   2.088  0.0621 -0.5615  1.8122
   89MOL0     H11706   6.511   1.834   1.916 -0.9032 -0.2897 -0.0640
   89MOL0     H11707   6.466   1.864   2.076 -0.5468 -0.5097 -0.0864
   89MOL0     H11708   6.431   2.053   1.913 -2.2815  1.4178  2.9737
   89MOL0     H11709   6.601   2.085   1.909  1.9225 -2.6134 -0.1926
   89MOL0     H11710   6.401   2.280   2.275  2.7513  0.1294 -0.3231
   89MOL0     H11711   6.276   2.479   2.237 -1.0490  3.7288 -2.1583
   89MOL0     H11712   5.917   2.604   2.050 -0.2520  0.0363 -1.4913
   89MOL0     H11713   5.726   2.762   2.048  0.3001  0.0260 -1.4100
   89MOL0     H11714   5.580   2.909   2.170 -0.6824  3.1724  2.3348
   89MOL0     H11715   5.592   2.934   1.991  1.0041  0.1426 -0.0886
   89MOL0     H11716   5.550   3.182   2.050 -0.7374 -0.7183 -3.4309
   89MOL0     H11717   5.487   3.122   2.204 -1.0896  0.8084 -0.1675
   89MOL0     H11718   5.338   2.974   2.065 -0.2044 -1.1233 -2.2761
   89MOL0     H11719   5.387   3.069   1.923  0.9474  1.0507  0.2596
   89MOL0     H11720   5.269   3.210   2.149  1.9661 -2.3523  0.8127
   89MOL0     H11721   5.319   3.278   2.004  0.9357  0.9754  4.0026
   89MOL0     H11722   5.078   3.094   2.040 -1.7491  2.0581  1.4582
   89MOL0     H11723   5.148   3.107   1.881  2.1329 -0.0924  1.7553
   89MOL0     H11724   5.139   3.355   1.911 -1.5529 -0.7422 -2.0692
   89MOL0     H11725   5.059   3.350   2.067  0.3626  0.0309 -0.1204
   89MOL0     H11726   4.954   3.289   1.788 -1.2673  0.4295 -0.4693
   89MOL0     H11727   4.886   3.189   1.913 -0.5412  0.0143 -4.8267
   89MOL0     H11728   4.855   3.497   1.902 -2.3161  0.2550  0.3902
   89MOL0     H11729   4.820   3.400   2.039 -2.3510 -0.2289 -0.5368
   89MOL0     H11730   5.979   3.094   2.157 -1.1571  0.0021  1.5478
   89MOL0     H11731   6.174   2.937   2.136 -0.1882 -0.9571  2.0098
   89MOL0     H11732   6.365   2.461   1.818 -0.3743 -1.5407 -0.7091
   89MOL0     H11733   6.506   2.264   1.860  1.5677  2.6421 -0.7929
   89MOL0     H11734   8.230   2.114   1.874  3.0820 -2.5054 -2.7685
   89MOL0     H11735   8.446   2.205   1.845 -1.3208 -1.6579 -0.1309
   89MOL0     H11736   8.848   2.431   1.912  0.4116  0.4796 -0.7357
   89MOL0     H11737   9.060   2.497   1.838  0.0773 -3.8112 -0.2514
   89MOL0     H11738   9.135   2.593   1.401 -0.2070 -0.4522 -1.0483
   89MOL0     H11739   9.293   2.632   1.481  0.3506  0.8922  1.3516
   89MOL0     H11740   9.049   2.809   1.439 -0.1393  1.1701  2.7440
   89MOL0     H11741   9.143   2.850   1.571 -1.1720 -0.3533  0.1016
   89MOL0     H11742   9.241   2.806   1.294 -1.1203 -0.2034  0.2237
   89MOL0     H11743   9.352   2.844   1.432  0.2441 -1.5673 -0.7592
   89MOL0     H11744   9.118   3.026   1.327 -0.1295 -0.2730 -0.4498
   89MOL0     H11745   9.239   3.075   1.447 -0.1710 -0.7001  0.8739
   89MOL0     H11746   9.438   3.195   1.104  1.3993 -2.4620 -0.4347
   89MOL0     H11747   8.914   2.623   1.450  0.0393  0.9685  0.4822
   89MOL0     H11748   8.679   2.565   1.532  0.5290  0.5169 -1.1902
   90MOL0     O11749   3.934   9.598  10.638 -0.4068  0.3796 -0.7467
   90MOL0     C11750   3.910   9.715  10.638  0.0516 -0.6341 -0.3934
   90MOL0     O11751   3.794   9.777  10.591 -0.0061  0.3491  0.6409
   90MOL0     C11752   3.702   9.706  10.511 -0.1301 -0.0362  0.3198
   90MOL0     C11753   3.658   9.756  10.385  0.6440 -0.3044 -1.5418
   90MOL0     C11754   3.571   9.686  10.306 -0.1911 -0.2497 -0.9851
   90MOL0     C11755   3.520   9.562  10.352  0.7823 -0.4119 -0.4789
   90MOL0     O11756   3.431   9.497  10.276  0.0311  0.0007 -0.5380
   90MOL0     C11757   3.497   9.391  10.206 -0.0224 -0.1860 -0.2031
   90MOL0     C11758   3.439   9.368  10.063  0.3907 -0.2608 -0.0911
   90MOL0     C11759   3.290   9.333  10.059 -0.2906 -0.5051 -0.1689
   90MOL0     C11760   3.257   9.195  10.122 -0.0022 -0.5909 -0.8030
   90MOL0     C11761   3.104   9.182  10.156  0.4118 -0.6481 -0.6839
   90MOL0     C11762   3.057   9.035  10.131 -0.2048  0.0682 -0.1577
   90MOL0     C11763   2.901   9.036  10.120 -0.4294 -0.5053  0.3197
   90MOL0     C11764   2.852   8.888  10.114 -0.2350 -0.3779 -0.2406
   90MOL0     N11765   2.708   8.873  10.097  0.7577  0.2199  0.1405
   90MOL0     C11766   2.637   8.880   9.979  0.4848 -0.3770  0.1663
   90MOL0     C11767   2.511   8.859  10.022  0.2852 -0.0588 -0.4922
   90MOL0     C11768   2.394   8.864   9.934  0.2600 -0.3927  0.3910
   90MOL0     C11769   2.318   8.729   9.929  0.1445 -1.3413  0.1764
   90MOL0     C11770   2.258   8.682  10.061  0.3132 -0.1796 -0.5740
   90MOL0     C11771   2.147   8.590  10.027 -0.4435  0.6441 -0.0413
   90MOL0     O11772   2.031   8.669   9.980 -0.0222  0.5245  0.4144
   90MOL0     C11773   1.908   8.606   9.982  0.5190 -0.2139 -0.3111
   90MOL0     C11774   1.882   8.471  10.028 -0.5048 -0.0432 -0.5238
   90MOL0     C11775   1.755   8.412  10.020 -0.3720  0.0322  0.7188
   90MOL0     C11776   1.652   8.482   9.961 -0.1453 -0.4202 -0.4268
   90MOL0     C11777   1.516   8.424   9.958 -0.2815  0.7694  0.0286
   90MOL0     O11778   1.499   8.294  10.003  0.0680 -0.1997  0.7349
   90MOL0     C11779   1.379   8.254  10.045 -0.2984  0.0682 -1.0600
   90MOL0     C11780   1.287   8.190   9.955 -0.2433 -0.1570 -0.4840
   90MOL0     C11781   1.169   8.128   9.998  0.8461 -0.7789  0.3141
   90MOL0     C11782   1.141   8.128  10.137 -0.0693 -0.6043 -0.4230
   90MOL0     O11783   1.016   8.073  10.171 -0.7519 -0.1624 -0.0546
   90MOL0     C11784   1.021   7.998  10.290  0.0454  0.3420  0.1756
   90MOL0     C11785   0.905   7.893  10.276  0.3475  0.2221  0.6532
   90MOL0     C11786   0.762   7.957  10.289  0.0898  0.0695 -1.0090
   90MOL0     C11787   0.724   7.993  10.430 -0.4190  0.1771 -0.7946
   90MOL0     C11788   0.572   8.039  10.457 -0.2056 -0.0290 -0.6931
   90MOL0     C11789   0.473   7.938  10.403 -0.2110 -0.1824  1.7671
   90MOL0     C11790   0.339   7.978  10.460  0.0361  0.1104  0.8468
   90MOL0     C11791   0.229   7.876  10.416 -0.7624 -0.7268 -0.1416
   90MOL0    Cl11792   0.271   7.725  10.486 -0.0276 -0.4586  0.1870
   90MOL0     C11793   1.238   8.181  10.229 -0.3207  0.6974 -0.2737
   90MOL0     C11794   1.355   8.248  10.184  0.2027  0.3912 -0.1994
   90MOL0     O11795   1.427   8.486   9.899  1.1957 -0.3094 -0.0511
   90MOL0     C11796   1.673   8.618   9.914  0.2651 -0.2669 -0.3626
   90MOL0     C11797   1.799   8.685   9.929 -0.5306  0.1786  0.0384
   90MOL0     N11798   2.502   8.852  10.155 -0.1042  0.7032 -0.9980
   90MOL0     N11799   2.625   8.842  10.200  0.1195 -0.0360 -0.5708
   90MOL0     C11800   3.565   9.517  10.472  0.1314 -0.3211  0.1357
   90MOL0     C11801   3.655   9.579  10.555  0.1016 -0.0133  0.7433
   90MOL0     C11802   4.006   9.806  10.701 -0.3237  0.8085  0.1136
   90MOL0     C11803   4.121   9.752  10.775  0.7079  0.8597 -0.2110
   90MOL0     C11804   4.207   9.838  10.837 -0.0601 -0.2112 -0.0291
   90MOL0     C11805   4.183   9.976  10.850 -0.7431  0.3964  0.3796
   90MOL0     O11806   4.259  10.052  10.922  0.3881 -0.2274 -0.0844
   90MOL0     C11807   4.363  10.009  11.008 -0.3060 -0.0143  0.4280
   90MOL0     C11808   4.424  10.124  11.080 -0.0997  0.0614 -0.6402
   90MOL0     C11809   4.534  10.085  11.179 -0.4286  0.2287 -0.1243
   90MOL0     C11810   4.584  10.218  11.247 -0.7695  0.3054  0.5214
   90MOL0     C11811   4.491  10.294  11.326  0.6213 -0.3240 -0.9705
   90MOL0     C11812   4.421  10.369  11.391 -0.0768 -0.0161 -0.4237
   90MOL0     C11813   4.076  10.028  10.773  0.3347  0.2378 -0.4722
   90MOL0     C11814   3.985   9.944  10.702 -0.4608 -1.0789  0.2883
   90MOL0     H11815   3.697   9.854  10.360 -1.9989  2.0662  2.6368
   90MOL0     H11816   3.528   9.729  10.216 -0.1542  0.1540 -0.8117
   90MOL0     H11817   3.498   9.304  10.272  2.8428 -0.2239 -0.1892
   90MOL0     H11818   3.600   9.406  10.175  0.5351 -2.2011  0.4929
   90MOL0     H11819   3.499   9.293  10.010 -2.1653 -1.9227 -0.7972
   90MOL0     H11820   3.449   9.458  10.001 -1.0888 -1.5766 -2.3746
   90MOL0     H11821   3.259   9.328   9.954 -1.6529 -1.8688  0.2529
   90MOL0     H11822   3.226   9.412  10.098 -1.1125 -1.8742  1.4234
   90MOL0     H11823   3.281   9.128  10.039 -0.0984  1.0151 -2.1896
   90MOL0     H11824   3.310   9.179  10.216  0.1809  2.9949 -0.1796
   90MOL0     H11825   3.052   9.245  10.084 -1.2376 -1.7153 -0.4777
   90MOL0     H11826   3.073   9.212  10.256 -1.7572 -0.1820 -1.4623
   90MOL0     H11827   3.093   8.968  10.209  0.2493 -0.8176 -1.0953
   90MOL0     H11828   3.101   9.005  10.035  1.3317 -2.6885  1.2796
   90MOL0     H11829   2.855   9.093  10.202  1.4948  0.3517  0.8577
   90MOL0     H11830   2.869   9.083  10.027 -1.5096  1.1917  1.4925
   90MOL0     H11831   2.896   8.841  10.202  0.5733  2.1057  0.7710
   90MOL0     H11832   2.892   8.847  10.021 -2.0092 -0.2197 -1.1220
   90MOL0     H11833   2.666   8.915   9.880 -1.7813  0.6914 -0.1855
   90MOL0     H11834   2.429   8.907   9.840 -2.2935  3.2329  0.8720
   90MOL0     H11835   2.322   8.942   9.960 -0.1080 -0.4755 -0.3506
   90MOL0     H11836   2.390   8.657   9.887  0.2102 -1.1587 -0.0207
   90MOL0     H11837   2.233   8.752   9.865 -2.0288 -3.4038  2.1158
   90MOL0     H11838   2.334   8.624  10.114  2.3360  2.2570 -0.6337
   90MOL0     H11839   2.211   8.757  10.126  0.7775  0.3013 -0.7895
   90MOL0     H11840   2.122   8.538  10.120  3.5882 -2.8693 -0.6187
   90MOL0     H11841   2.168   8.507   9.958  0.0633  1.4223 -0.8389
   90MOL0     H11842   1.969   8.418  10.066  0.6210 -0.0943 -2.9639
   90MOL0     H11843   1.755   8.310  10.057  0.0135  0.1581  1.0711
   90MOL0     H11844   1.308   8.187   9.848 -1.8664 -1.6090 -0.8143
   90MOL0     H11845   1.088   8.091   9.936 -0.8817 -2.8332  3.4950
   90MOL0     H11846   0.990   8.060  10.375 -1.5120 -0.6569  0.3769
   90MOL0     H11847   1.113   7.942  10.311 -1.6995 -2.0432  2.0333
   90MOL0     H11848   0.919   7.820  10.356 -3.5829 -0.4947  0.9314
   90MOL0     H11849   0.915   7.850  10.176  0.5772  0.8766  0.3891
   90MOL0     H11850   0.696   7.876  10.257  0.7885 -0.1452 -1.9523
   90MOL0     H11851   0.749   8.048  10.229 -0.1128  0.0362 -1.0174
   90MOL0     H11852   0.741   7.896  10.477  1.1012  0.6580 -0.2940
   90MOL0     H11853   0.795   8.068  10.465  0.9000 -0.5172 -1.8895
   90MOL0     H11854   0.563   8.138  10.412  3.6012  0.2907 -1.1414
   90MOL0     H11855   0.551   8.044  10.564  1.1069 -0.5951 -0.3839
   90MOL0     H11856   0.489   7.833  10.429 -0.7504 -0.5914  0.5064
   90MOL0     H11857   0.464   7.952  10.295 -2.7246  3.3238  2.2576
   90MOL0     H11858   0.350   7.972  10.569  1.8470 -0.1760  0.6769
   90MOL0     H11859   0.307   8.077  10.427  0.4586 -0.2234 -0.6375
   90MOL0     H11860   0.227   7.856  10.308 -0.7095 -0.3348 -0.2177
   90MOL0     H11861   0.128   7.901  10.448 -0.6895  0.5965 -0.8938
   90MOL0     H11862   1.208   8.190  10.333 -0.3766  2.4187 -0.4109
   90MOL0     H11863   1.428   8.294  10.251  0.2967  0.8041 -0.5829
   90MOL0     H11864   1.590   8.671   9.868 -2.0520 -2.9686  0.3865
   90MOL0     H11865   1.802   8.787   9.893  1.0099 -0.3454 -1.4668
   90MOL0     H11866   3.535   9.415  10.495 -1.5485  0.7450  3.3696
   90MOL0     H11867   3.688   9.545  10.652  0.5299 -0.6099  0.3946
   90MOL0     H11868   4.138   9.645  10.767 -0.6245  0.5731  0.3979
   90MOL0     H11869   4.291   9.795  10.890  1.9718  1.5562 -1.6492
   90MOL0     H11870   4.443   9.964  10.949  0.1245 -1.6333  2.1362
   90MOL0     H11871   4.320   9.936  11.077 -1.8307  0.4612  0.0136
   90MOL0     H11872   4.452  10.199  11.006 -2.1985 -0.2579 -1.8108
   90MOL0     H11873   4.343  10.167  11.139 -2.0579  0.2289 -3.3110
   90MOL0     H11874   4.620  10.035  11.132  2.7490  2.8440  2.4077
   90MOL0     H11875   4.500  10.016  11.256 -1.8157  0.5467 -0.4313
   90MOL0     H11876   4.668  10.200  11.315  0.0974  2.9621  0.2749
   90MOL0     H11877   4.617  10.278  11.161 -2.4570 -0.0505 -0.4327
   90MOL0     H11878   4.344  10.426  11.439 -0.7143 -0.9117 -0.3531
   90MOL0     H11879   4.075  10.136  10.774 -2.5195  0.3057 -1.2496
   90MOL0     H11880   3.899   9.986  10.652 -1.4570 -1.8714  1.2943
   91MOL0     O11881   3.752   4.001   1.655  1.3795  0.1086  0.3453
   91MOL0     C11882   3.790   3.950   1.757 -0.4103 -0.2961  0.0745
   91MOL0     O11883   3.840   4.021   1.862 -0.4676 -0.2702 -0.2064
   91MOL0     C11884   3.817   4.161   1.868  1.0868  0.7950  0.5923
   91MOL0     C11885   3.929   4.245   1.867  0.0800  0.5655 -0.6861
   91MOL0     C11886   3.902   4.383   1.869 -0.2970  0.6146  0.6148
   91MOL0     C11887   3.776   4.431   1.869  0.6841 -0.3385 -0.4540
   91MOL0     O11888   3.754   4.560   1.868  0.0186 -0.6504  0.2756
   91MOL0     C11889   3.698   4.611   1.990 -0.0381  0.4605 -0.1843
   91MOL0     C11890   3.737   4.760   2.011 -0.3640  0.2663  0.7725
   91MOL0     C11891   3.679   4.827   2.137  0.5616  0.1215  0.8160
   91MOL0     C11892   3.699   4.978   2.133  0.3041  0.6755  0.0238
   91MOL0     C11893   3.747   5.012   2.272  0.3760  0.1448  0.2628
   91MOL0     C11894   3.621   5.044   2.354 -0.4557  0.0367  0.6462
   91MOL0     C11895   3.659   5.134   2.474 -0.5566  0.9914  0.2225
   91MOL0     C11896   3.536   5.185   2.545 -0.6062 -0.5154  0.7047
   91MOL0     N11897   3.456   5.078   2.605 -0.5000  0.9840 -1.1639
   91MOL0     C11898   3.505   4.983   2.700  0.4762  0.6607  0.8519
   91MOL0     C11899   3.410   4.883   2.711 -1.1682  1.0229 -0.2328
   91MOL0     C11900   3.446   4.748   2.777 -0.1780  0.1655  0.5718
   91MOL0     C11901   3.398   4.732   2.921 -0.2979 -0.4066 -0.1119
   91MOL0     C11902   3.246   4.701   2.920  0.3380  0.3750  0.0355
   91MOL0     C11903   3.185   4.739   3.053 -0.4341 -0.3342 -0.1240
   91MOL0     O11904   3.050   4.683   3.055  0.0547  0.0122  0.4591
   91MOL0     C11905   2.948   4.779   3.057 -0.1903  0.3834 -0.0515
   91MOL0     C11906   2.937   4.894   2.969  0.7767 -0.1413 -0.0845
   91MOL0     C11907   2.824   4.971   2.959  0.0644  0.3316 -0.0247
   91MOL0     C11908   2.712   4.940   3.040  0.2528  0.4493 -0.4065
   91MOL0     C11909   2.593   5.022   3.039 -0.2598  0.9906  0.0578
   91MOL0     O11910   2.502   4.989   3.133 -0.2682 -0.9758  0.3012
   91MOL0     C11911   2.376   5.031   3.106  0.2529  0.3883  0.1196
   91MOL0     C11912   2.293   4.963   3.030  0.5376  0.4499  0.6365
   91MOL0     C11913   2.166   5.009   2.998 -0.1300 -0.6734  0.7212
   91MOL0     C11914   2.126   5.135   3.038 -0.2137 -0.3379 -0.2222
   91MOL0     O11915   1.995   5.159   3.010  0.4411 -0.5213  0.0982
   91MOL0     C11916   1.940   5.293   3.013 -0.6132 -0.3572  0.0388
   91MOL0     C11917   1.795   5.290   2.976 -0.4767 -0.3744 -0.0564
   91MOL0     C11918   1.746   5.434   2.966  0.4511 -0.4552  0.0293
   91MOL0     C11919   1.744   5.519   3.093  0.5038 -0.1614 -0.0788
   91MOL0     C11920   1.712   5.673   3.076  0.0461  0.4673  0.2121
   91MOL0     C11921   1.563   5.718   3.076  0.1521  0.1734  0.2877
   91MOL0     C11922   1.488   5.688   3.204 -0.0434  0.3380 -0.5982
   91MOL0     C11923   1.343   5.648   3.175 -0.7355  0.0960  0.4730
   91MOL0    Cl11924   1.252   5.760   3.075  0.1376  0.1010  0.0351
   91MOL0     C11925   2.212   5.216   3.111  0.3580 -0.2371 -0.0331
   91MOL0     C11926   2.337   5.162   3.150  0.3550  0.4435 -0.0936
   91MOL0     O11927   2.582   5.110   2.955  0.0584 -0.8313  0.1696
   91MOL0     C11928   2.720   4.831   3.129 -0.9713  0.4689 -0.9306
   91MOL0     C11929   2.837   4.754   3.137  0.9114 -0.0892  0.8779
   91MOL0     N11930   3.316   4.914   2.616  0.3498  0.2253  0.7045
   91MOL0     N11931   3.341   5.029   2.555 -0.9612 -0.3471 -0.0819
   91MOL0     C11932   3.666   4.346   1.857 -0.1552 -0.2686  0.1399
   91MOL0     C11933   3.682   4.208   1.857 -0.7009 -0.4665  0.5678
   91MOL0     C11934   3.776   3.808   1.764 -0.2439 -0.7382 -0.0815
   91MOL0     C11935   3.873   3.735   1.837  0.1446 -0.4565  0.5840
   91MOL0     C11936   3.866   3.593   1.827 -0.9442 -0.1872  0.4250
   91MOL0     C11937   3.769   3.520   1.754  0.1916 -0.1908 -0.2500
   91MOL0     O11938   3.768   3.383   1.737  0.5447  0.9715  0.1471
   91MOL0     C11939   3.872   3.297   1.776 -0.0008  0.6968  0.5867
   91MOL0     C11940   3.997   3.310   1.684 -0.6090  0.1644 -0.0887
   91MOL0     C11941   4.096   3.201   1.709 -0.7004  0.4210  0.2570
   91MOL0     C11942   4.186   3.192   1.580  0.2322 -0.1352 -0.8515
   91MOL0     C11943   4.312   3.122   1.611  0.4558  0.3441  0.1742
   91MOL0     C11944   4.415   3.083   1.654  0.9104  0.2121  0.4171
   91MOL0     C11945   3.665   3.598   1.697 -0.4164 -0.2523 -0.6494
   91MOL0     C11946   3.670   3.737   1.702 -1.1501 -0.4275 -0.2853
   91MOL0     H11947   4.033   4.214   1.868 -1.0800 -4.1157 -0.1432
   91MOL0     H11948   3.989   4.447   1.859 -0.5892  0.6629 -3.2238
   91MOL0     H11949   3.715   4.549   2.078  0.5086 -0.6811 -1.0727
   91MOL0     H11950   3.591   4.611   1.968  0.1278 -1.6798 -1.1763
   91MOL0     H11951   3.705   4.812   1.921  1.2233 -0.3678 -0.1900
   91MOL0     H11952   3.846   4.766   2.008 -0.3910  0.1443 -1.4118
   91MOL0     H11953   3.727   4.772   2.218 -0.1006  0.8594  1.7251
   91MOL0     H11954   3.572   4.808   2.146  0.8300 -1.1736  1.5391
   91MOL0     H11955   3.785   4.990   2.067  1.4354 -1.6664  0.9470
   91MOL0     H11956   3.610   5.033   2.099  0.8171  1.0036 -0.8236
   91MOL0     H11957   3.807   5.103   2.275  0.5302  0.0208  2.4057
   91MOL0     H11958   3.811   4.938   2.322  0.3766  0.4163  0.6659
   91MOL0     H11959   3.565   4.953   2.380  0.1326 -0.2182  1.0346
   91MOL0     H11960   3.550   5.099   2.291  0.7922  0.6606 -0.2432
   91MOL0     H11961   3.729   5.085   2.542  0.8295  0.6477 -1.3707
   91MOL0     H11962   3.714   5.214   2.424 -1.0614  1.0117 -0.3131
   91MOL0     H11963   3.471   5.245   2.481  0.2878 -1.6682 -1.3672
   91MOL0     H11964   3.563   5.259   2.621  0.6985 -0.9680  0.6996
   91MOL0     H11965   3.601   4.990   2.750  1.4423 -1.5163 -0.5548
   91MOL0     H11966   3.554   4.732   2.778  0.0844  0.6240 -3.3928
   91MOL0     H11967   3.402   4.674   2.710 -1.6822  0.5507  1.1025
   91MOL0     H11968   3.426   4.828   2.965  1.0638  0.0336 -1.8100
   91MOL0     H11969   3.462   4.649   2.952  0.2599  0.7226  1.8698
   91MOL0     H11970   3.190   4.744   2.836  0.4292  2.5143  0.9930
   91MOL0     H11971   3.224   4.596   2.900  2.9379  0.4739 -5.2118
   91MOL0     H11972   3.194   4.848   3.062  3.7718 -0.2187 -2.9884
   91MOL0     H11973   3.233   4.686   3.135 -1.0817 -0.6066  0.0838
   91MOL0     H11974   3.024   4.915   2.908 -0.6141  4.3141 -0.9368
   91MOL0     H11975   2.824   5.052   2.886 -1.2513  0.9061  0.5712
   91MOL0     H11976   2.335   4.865   3.004 -0.3488 -0.2096  1.6363
   91MOL0     H11977   2.095   4.945   2.946  1.8390 -0.6851 -2.1855
   91MOL0     H11978   1.991   5.360   2.943 -2.5524  2.7827  1.4016
   91MOL0     H11979   1.933   5.340   3.111 -2.7843  1.4447 -0.8897
   91MOL0     H11980   1.743   5.228   3.049 -0.8105  2.4434  2.2580
   91MOL0     H11981   1.779   5.247   2.876  0.7389  1.5832 -1.1571
   91MOL0     H11982   1.650   5.446   2.915  1.2851 -2.0263 -2.0900
   91MOL0     H11983   1.814   5.479   2.893  0.2298 -0.2147 -0.0307
   91MOL0     H11984   1.669   5.468   3.153 -0.9054  0.8016 -0.9625
   91MOL0     H11985   1.843   5.515   3.140 -0.9737 -1.6118  3.2604
   91MOL0     H11986   1.757   5.720   2.989 -2.2934  0.6941 -0.9447
   91MOL0     H11987   1.763   5.732   3.154  1.8018  0.7110 -1.0688
   91MOL0     H11988   1.512   5.662   2.996 -1.1130  0.7001  0.7043
   91MOL0     H11989   1.542   5.823   3.057  0.7062  0.1825 -0.2880
   91MOL0     H11990   1.526   5.609   3.269 -1.1641  2.7374  3.3557
   91MOL0     H11991   1.487   5.777   3.268  1.3532  0.3102 -0.5048
   91MOL0     H11992   1.291   5.638   3.271  0.9673  0.2007  1.4483
   91MOL0     H11993   1.338   5.546   3.136  1.1399 -0.6476  2.0155
   91MOL0     H11994   2.174   5.313   3.141 -2.6473 -1.7970  1.6770
   91MOL0     H11995   2.405   5.212   3.217  0.7525 -0.2640  0.0402
   91MOL0     H11996   2.643   4.804   3.201  0.9639 -1.4028  0.5732
   91MOL0     H11997   2.825   4.662   3.193  0.1397 -0.6911 -0.2293
   91MOL0     H11998   3.568   4.391   1.855 -0.5406 -1.0821  0.4624
   91MOL0     H11999   3.600   4.137   1.865 -1.4536  0.5696  2.7984
   91MOL0     H12000   3.963   3.779   1.879  1.9089  0.4249 -3.5968
   91MOL0     H12001   3.938   3.538   1.887 -1.6267  0.7192  2.1559
   91MOL0     H12002   3.838   3.194   1.786 -2.5610  1.4878  0.6158
   91MOL0     H12003   3.896   3.325   1.879 -0.1141 -1.3126  1.1881
   91MOL0     H12004   3.958   3.290   1.584 -3.9690 -0.8862  1.2725
   91MOL0     H12005   4.038   3.411   1.693 -0.5309  0.0058  1.6637
   91MOL0     H12006   4.044   3.107   1.731 -1.4428  1.2081  2.0929
   91MOL0     H12007   4.155   3.230   1.796 -0.1147  2.7049 -0.8181
   91MOL0     H12008   4.130   3.131   1.509  1.5040 -1.0722 -1.0950
   91MOL0     H12009   4.206   3.290   1.537  1.8638 -0.1018 -0.1175
   91MOL0     H12010   4.515   3.055   1.678  0.6716 -0.4991  0.6232
   91MOL0     H12011   3.589   3.539   1.646 -3.9773  2.6150  0.8974
   91MOL0     H12012   3.596   3.792   1.645 -0.0472  1.0760 -0.3467
   92MOL0     O12013  11.146   6.305   5.145 -0.2749 -0.0012  0.3806
   92MOL0     C12014  11.228   6.222   5.180  0.5550 -0.2481  0.8454
   92MOL0     O12015  11.205   6.085   5.190 -0.2272 -0.2430 -0.1247
   92MOL0     C12016  11.071   6.051   5.180 -0.1199  0.5887 -0.6376
   92MOL0     C12017  10.975   6.085   5.281  0.4308  0.9085 -0.0315
   92MOL0     C12018  10.841   6.060   5.256 -0.7750  0.5541  0.3804
   92MOL0     C12019  10.805   5.974   5.152  0.2642 -0.6265 -1.1628
   92MOL0     O12020  10.675   5.946   5.140 -0.6038  0.1104 -0.4368
   92MOL0     C12021  10.626   5.853   5.045 -0.5387  0.2155 -0.0531
   92MOL0     C12022  10.474   5.857   5.039  0.2036 -0.3457  0.8017
   92MOL0     C12023  10.411   5.717   5.043  0.0422 -0.6458  0.1419
   92MOL0     C12024  10.258   5.703   5.071  0.1474  0.7962 -0.1202
   92MOL0     C12025  10.179   5.782   4.965 -0.0231  0.0763 -0.3683
   92MOL0     C12026  10.164   5.934   4.999  0.5930 -0.5355 -0.8617
   92MOL0     C12027  10.040   5.996   4.920 -0.3834  0.5195 -0.2097
   92MOL0     C12028   9.988   6.129   4.975 -0.8102  0.7889  0.5732
   92MOL0     N12029   9.844   6.126   4.993 -0.6155 -0.9821  0.1379
   92MOL0     C12030   9.748   6.174   4.907 -0.9467  0.4568 -1.1488
   92MOL0     C12031   9.628   6.139   4.966  0.1917 -0.1124  0.7776
   92MOL0     C12032   9.487   6.157   4.905  0.6811  0.3647 -0.5573
   92MOL0     C12033   9.370   6.142   5.003 -0.7213 -0.7129 -0.2366
   92MOL0     C12034   9.234   6.129   4.928 -0.3390  0.6224 -0.0782
   92MOL0     C12035   9.104   6.123   5.011 -0.2366  0.4554  0.4120
   92MOL0     O12036   8.989   6.174   4.946 -0.6003 -0.4478  0.1257
   92MOL0     C12037   8.973   6.307   4.935 -0.8994  0.4979  0.7360
   92MOL0     C12038   8.870   6.344   4.842  0.3420  0.1911  0.5483
   92MOL0     C12039   8.851   6.469   4.798  0.6363  0.5624  0.7884
   92MOL0     C12040   8.932   6.577   4.849  0.3033  0.0340 -1.0222
   92MOL0     C12041   8.899   6.712   4.826  0.2015 -0.5571  0.8643
   92MOL0     O12042   8.960   6.807   4.889 -0.1450 -0.2793 -0.1193
   92MOL0     C12043   8.907   6.926   4.896 -0.6337 -0.6113  0.1307
   92MOL0     C12044   8.971   7.045   4.841  0.4596  0.3072 -0.7459
   92MOL0     C12045   8.899   7.158   4.840 -0.3884 -1.3931 -0.7978
   92MOL0     C12046   8.766   7.172   4.893  0.0163  0.2932  0.0990
   92MOL0     O12047   8.697   7.291   4.883  0.3398 -0.3696 -0.1378
   92MOL0     C12048   8.576   7.282   4.800  0.5106 -0.4314  0.0295
   92MOL0     C12049   8.487   7.405   4.836 -0.3896  0.4214  0.0487
   92MOL0     C12050   8.347   7.386   4.777  0.0301  0.3700 -0.1553
   92MOL0     C12051   8.246   7.459   4.858  0.2815  0.7677 -0.6049
   92MOL0     C12052   8.105   7.450   4.807 -0.8266  0.3595  0.1691
   92MOL0     C12053   8.012   7.547   4.889 -0.5144 -0.1050  0.3563
   92MOL0     C12054   7.862   7.524   4.863  0.4531  0.5778  0.7275
   92MOL0     C12055   7.782   7.579   4.982 -0.6943  0.1938  0.2605
   92MOL0    Cl12056   7.597   7.562   4.961 -0.2492 -0.4644 -0.3850
   92MOL0     C12057   8.710   7.056   4.959  0.1323 -0.1492 -0.2458
   92MOL0     C12058   8.792   6.946   4.957  0.0373  0.4717 -0.5111
   92MOL0     O12059   8.796   6.732   4.756  0.3131  1.0096 -0.5571
   92MOL0     C12060   9.027   6.548   4.953  0.1783 -0.1716 -0.7845
   92MOL0     C12061   9.054   6.408   4.989  0.1278 -0.1837  0.7925
   92MOL0     N12062   9.657   6.085   5.089  0.1778 -0.3812 -0.7311
   92MOL0     N12063   9.785   6.081   5.104 -0.2233 -0.3320 -1.0228
   92MOL0     C12064  10.900   5.930   5.060  0.5373  0.8689  1.0842
   92MOL0     C12065  11.032   5.978   5.065  0.7834  0.3078  0.3703
   92MOL0     C12066  11.366   6.273   5.211 -0.4226 -0.5628  0.1164
   92MOL0     C12067  11.467   6.183   5.245  0.2493 -0.9318  0.0953
   92MOL0     C12068  11.598   6.224   5.273  0.5093 -0.0637  0.6984
   92MOL0     C12069  11.629   6.359   5.269 -0.8318  0.3437  0.1586
   92MOL0     O12070  11.746   6.421   5.306  0.2088 -0.0131 -0.5392
   92MOL0     C12071  11.847   6.343   5.366  0.2386 -0.2942 -0.2533
   92MOL0     C12072  11.950   6.439   5.435 -0.0077  0.1107 -0.3419
   92MOL0     C12073  12.049   6.507   5.337  0.5740  0.2489 -0.2242
   92MOL0     C12074  12.150   6.600   5.408 -0.7489 -0.4481 -0.3491
   92MOL0     C12075  12.247   6.527   5.493  0.0446  0.6731  0.1108
   92MOL0     C12076  12.328   6.463   5.556  0.2974  0.9081  0.7288
   92MOL0     C12077  11.534   6.446   5.231 -0.5932 -0.9406  0.1417
   92MOL0     C12078  11.399   6.408   5.193 -0.9023 -0.5838 -0.1002
   92MOL0     H12079  11.001   6.155   5.360 -1.4622 -0.2854  1.7228
   92MOL0     H12080  10.764   6.112   5.313  0.0866  1.6952  0.5267
   92MOL0     H12081  10.649   5.749   5.072 -1.3065 -0.2144 -1.0257
   92MOL0     H12082  10.658   5.869   4.942 -1.1077 -0.0721 -0.2750
   92MOL0     H12083  10.439   5.904   4.947 -0.5634 -0.6065  0.9526
   92MOL0     H12084  10.441   5.920   5.123  1.3207  0.1924  0.8570
   92MOL0     H12085  10.455   5.657   5.124 -1.5339  0.3189  1.7943
   92MOL0     H12086  10.439   5.662   4.953  1.2018 -1.1417  0.7879
   92MOL0     H12087  10.235   5.596   5.067  0.6159  0.7250 -1.1262
   92MOL0     H12088  10.241   5.731   5.175  0.2313  1.0303 -0.1686
   92MOL0     H12089  10.079   5.738   4.955 -0.0577  0.2129 -0.6394
   92MOL0     H12090  10.229   5.777   4.867 -0.2069 -0.0722 -0.4549
   92MOL0     H12091  10.258   5.988   4.982  0.9367 -1.0436 -0.6237
   92MOL0     H12092  10.152   5.938   5.108  1.9176 -2.7449 -0.5540
   92MOL0     H12093  10.059   6.021   4.815  3.9419 -0.8354  0.0622
   92MOL0     H12094   9.959   5.924   4.932  0.6888 -0.1876  5.2927
   92MOL0     H12095  10.027   6.212   4.917 -1.8206  1.9787  1.5347
   92MOL0     H12096  10.035   6.141   5.073 -0.6787 -0.2770  0.6606
   92MOL0     H12097   9.749   6.233   4.816  0.0147  2.8210  0.2837
   92MOL0     H12098   9.470   6.079   4.831  1.7221  0.7006 -1.1601
   92MOL0     H12099   9.475   6.251   4.850  2.3241  1.4379  0.8236
   92MOL0     H12100   9.367   6.230   5.070  2.0034  1.3888 -2.6251
   92MOL0     H12101   9.385   6.050   5.059  2.6187 -0.6473 -0.8236
   92MOL0     H12102   9.222   6.213   4.859 -4.6244 -0.4534 -0.9321
   92MOL0     H12103   9.239   6.038   4.867  1.2624  0.9266 -0.4408
   92MOL0     H12104   9.128   6.159   5.112  0.5146 -1.2459  0.8904
   92MOL0     H12105   9.089   6.015   5.021  2.4844  0.0183  0.5827
   92MOL0     H12106   8.806   6.268   4.798  0.3928 -0.8818  2.2232
   92MOL0     H12107   8.773   6.473   4.723 -0.8786 -1.2058  2.1668
   92MOL0     H12108   9.071   7.047   4.797  0.6690 -2.7018 -0.5910
   92MOL0     H12109   8.938   7.248   4.794 -0.9326  0.1921  1.6202
   92MOL0     H12110   8.521   7.189   4.818  0.0752 -0.0148  0.9139
   92MOL0     H12111   8.592   7.279   4.692  0.4765  2.0609 -0.0817
   92MOL0     H12112   8.539   7.498   4.812  2.1757 -1.2619 -1.4524
   92MOL0     H12113   8.477   7.392   4.944 -0.1640 -1.3505 -0.1094
   92MOL0     H12114   8.329   7.279   4.764 -0.7207  0.6366 -1.4295
   92MOL0     H12115   8.341   7.431   4.678 -1.1241 -0.3232 -0.4099
   92MOL0     H12116   8.238   7.400   4.950  1.9333 -0.0597 -0.9475
   92MOL0     H12117   8.279   7.561   4.881  1.6827  0.7368 -2.2343
   92MOL0     H12118   8.060   7.351   4.814  2.5295 -1.4166 -1.0466
   92MOL0     H12119   8.104   7.469   4.700  2.9405 -0.3407 -0.1309
   92MOL0     H12120   8.032   7.649   4.855 -0.1078  0.7104  2.8328
   92MOL0     H12121   8.034   7.544   4.997 -0.5211 -1.3517  0.3325
   92MOL0     H12122   7.818   7.576   4.778 -1.5780 -1.0403  0.7071
   92MOL0     H12123   7.856   7.414   4.863  2.4100  0.3441  3.8981
   92MOL0     H12124   7.825   7.678   5.001  1.4731 -0.9314  1.5808
   92MOL0     H12125   7.814   7.515   5.065 -0.2542 -0.0187 -0.0686
   92MOL0     H12126   8.615   7.057   5.012  1.5768 -1.3044  2.5431
   92MOL0     H12127   8.756   6.866   5.021 -0.7613  1.1231 -0.1270
   92MOL0     H12128   9.083   6.626   5.003  1.5756 -1.3359 -0.4571
   92MOL0     H12129   9.134   6.377   5.055 -0.1645  1.0682  1.7809
   92MOL0     H12130  10.874   5.871   4.973  1.8502  2.4041 -0.4375
   92MOL0     H12131  11.100   5.948   4.985 -0.9233 -1.1217 -0.6164
   92MOL0     H12132  11.453   6.075   5.252 -2.0708 -0.5818  1.7701
   92MOL0     H12133  11.675   6.147   5.277 -0.8926 -1.6414 -0.9467
   92MOL0     H12134  11.880   6.270   5.292 -0.9928 -0.5443 -0.5691
   92MOL0     H12135  11.802   6.275   5.439 -0.9154  1.4990  0.8195
   92MOL0     H12136  11.916   6.518   5.503  1.0929 -1.4347  2.1552
   92MOL0     H12137  12.008   6.364   5.490  1.6774  0.2604 -1.8092
   92MOL0     H12138  11.997   6.571   5.265 -1.7441  0.9875  1.9438
   92MOL0     H12139  12.108   6.432   5.285  0.9432  0.4337 -0.0740
   92MOL0     H12140  12.207   6.653   5.331  2.1485 -1.0389  1.2648
   92MOL0     H12141  12.096   6.671   5.471 -1.7552 -1.3182 -0.2095
   92MOL0     H12142  12.404   6.403   5.603  0.8052  0.8587 -0.1341
   92MOL0     H12143  11.564   6.550   5.226 -2.1203 -0.4125  1.1864
   92MOL0     H12144  11.331   6.487   5.161  1.3381  1.5447  0.1185
   93MOL0     O12145   1.870   9.038  10.695 -0.5136  0.0240  0.4950
   93MOL0     C12146   1.939   8.999  10.600  0.1374 -0.1781 -0.4085
   93MOL0     O12147   1.894   8.915  10.503  0.3479 -0.5298 -0.0616
   93MOL0     C12148   1.762   8.888  10.484 -0.5572 -0.0047 -1.2121
   93MOL0     C12149   1.661   8.977  10.485 -0.2264 -1.0495  0.5207
   93MOL0     C12150   1.527   8.950  10.455  0.3638  0.2873 -0.2874
   93MOL0     C12151   1.492   8.822  10.400 -0.3970 -0.6940  0.1617
   93MOL0     O12152   1.361   8.808  10.367  0.1006 -0.3092 -0.4219
   93MOL0     C12153   1.318   8.700  10.280  0.3365 -0.5184  0.1070
   93MOL0     C12154   1.278   8.570  10.348 -0.2197 -0.6584  0.8069
   93MOL0     C12155   1.161   8.579  10.443  0.0111 -0.2326 -0.2467
   93MOL0     C12156   1.107   8.441  10.472  0.1222 -0.5210 -0.2385
   93MOL0     C12157   1.021   8.454  10.600  0.7283 -0.2420  0.2544
   93MOL0     C12158   0.964   8.317  10.634  0.7731  0.1019  1.2803
   93MOL0     C12159   0.856   8.328  10.748 -0.1083 -0.4461 -0.6486
   93MOL0     C12160   0.930   8.340  10.884 -0.0239  0.0886 -0.1666
   93MOL0     N12161   0.822   8.328  10.984 -0.5660 -0.4623 -0.2489
   93MOL0     C12162   0.713   8.411  10.987 -0.2993 -0.4194 -0.2337
   93MOL0     C12163   0.642   8.365  11.090 -0.4597  0.1741  0.0464
   93MOL0     C12164   0.514   8.424  11.133  0.7035 -0.3887  0.4102
   93MOL0     C12165   0.529   8.514  11.256  0.4434  0.1057 -0.7361
   93MOL0     C12166   0.390   8.538  11.315 -0.1792 -0.2707 -0.5183
   93MOL0     C12167   0.312   8.649  11.250  0.1022  0.2280  0.5435
   93MOL0     O12168   0.170   8.662  11.287 -0.3355  0.1878  0.2077
   93MOL0     C12169   0.084   8.558  11.246 -1.1262  0.1646  0.4361
   93MOL0     C12170  -0.015   8.528  11.334 -0.5077 -0.1720 -0.4505
   93MOL0     C12171  -0.107   8.429  11.307  0.5171 -0.6296 -0.9274
   93MOL0     C12172  -0.099   8.351  11.193  0.5294 -0.4408  0.0796
   93MOL0     C12173  -0.204   8.261  11.160  0.5347 -0.0022  0.0532
   93MOL0     O12174  -0.321   8.274  11.227 -0.6385 -0.0152  0.7887
   93MOL0     C12175  -0.438   8.212  11.186 -0.5076  1.1254 -0.1801
   93MOL0     C12176  -0.557   8.272  11.228 -0.6316  0.6487 -0.4593
   93MOL0     C12177  -0.680   8.212  11.206  0.4999  0.6963  0.3243
   93MOL0     C12178  -0.696   8.086  11.149  0.2055  0.5125 -0.1630
   93MOL0     O12179  -0.817   8.036  11.113  0.2824 -0.9460  0.4106
   93MOL0     C12180  -0.907   8.006  11.218  0.6421 -0.7417  0.3237
   93MOL0     C12181  -1.027   8.104  11.233 -0.1569 -0.1595 -1.5049
   93MOL0     C12182  -1.118   8.061  11.352 -0.0004 -0.7154  0.2345
   93MOL0     C12183  -1.254   8.146  11.341 -0.1454  0.0314 -0.2849
   93MOL0     C12184  -1.326   8.138  11.471  0.6634  0.0868 -0.0471
   93MOL0     C12185  -1.457   8.217  11.468 -0.9482  0.0172  0.0870
   93MOL0     C12186  -1.549   8.175  11.575  0.4093  0.6069  0.2119
   93MOL0     C12187  -1.678   8.257  11.597  0.7597 -0.0059 -0.3258
   93MOL0    Cl12188  -1.778   8.256  11.455  0.0099 -0.1666 -0.1047
   93MOL0     C12189  -0.577   8.028  11.095  0.6455  0.7677 -0.0185
   93MOL0     C12190  -0.454   8.087  11.113 -0.4905 -0.7461  0.6457
   93MOL0     O12191  -0.183   8.192  11.063  0.9556  0.1640  0.8103
   93MOL0     C12192   0.014   8.372  11.111 -0.5259  0.3737 -0.3070
   93MOL0     C12193   0.104   8.479  11.133  0.0313  0.1812 -0.2636
   93MOL0     N12194   0.691   8.239  11.127  0.3804 -0.1242  0.0297
   93MOL0     N12195   0.800   8.219  11.064  0.1520 -0.3265 -0.3343
   93MOL0     C12196   1.594   8.728  10.391 -1.0120  0.0926 -0.2962
   93MOL0     C12197   1.729   8.758  10.436  0.0523 -0.3099 -0.1150
   93MOL0     C12198   2.077   9.042  10.609 -1.1575  0.5718  0.9023
   93MOL0     C12199   2.127   9.101  10.736  0.5605  0.0048  0.4206
   93MOL0     C12200   2.252   9.152  10.752 -1.0137 -0.2497 -0.8294
   93MOL0     C12201   2.340   9.158  10.645 -0.1097  0.3154 -0.2743
   93MOL0     O12202   2.456   9.236  10.658  0.5542  0.3980 -0.0493
   93MOL0     C12203   2.539   9.255  10.546 -0.6096  0.1200 -0.0849
   93MOL0     C12204   2.630   9.133  10.510 -0.0623  0.1114 -0.6650
   93MOL0     C12205   2.758   9.142  10.594 -0.5130 -0.2089  0.5931
   93MOL0     C12206   2.845   9.018  10.588 -0.4619 -0.1952 -0.3949
   93MOL0     C12207   2.769   8.914  10.662  0.0439 -0.7275  0.0024
   93MOL0     C12208   2.687   8.835  10.705  0.2388  0.3249  0.6725
   93MOL0     C12209   2.300   9.099  10.521  0.3881  0.2276 -0.0514
   93MOL0     C12210   2.176   9.032  10.508 -0.5541  0.5702  0.5316
   93MOL0     H12211   1.691   9.072  10.527 -3.8716  2.1068 -3.1658
   93MOL0     H12212   1.451   9.024  10.478  1.9727  2.2048 -0.8155
   93MOL0     H12213   1.398   8.674  10.211  0.2119 -0.0623 -0.2147
   93MOL0     H12214   1.227   8.738  10.232 -0.4736 -0.7551  1.4065
   93MOL0     H12215   1.366   8.524  10.394  1.0962 -1.3071 -2.0934
   93MOL0     H12216   1.265   8.490  10.274  1.2172 -0.3775  0.2076
   93MOL0     H12217   1.090   8.650  10.400  1.8628  3.1709  1.9174
   93MOL0     H12218   1.202   8.625  10.533  3.4494 -2.5243 -0.4402
   93MOL0     H12219   1.050   8.395  10.391  1.2264 -3.1423  0.3567
   93MOL0     H12220   1.189   8.374  10.498  0.7633  0.6645  0.9294
   93MOL0     H12221   0.941   8.529  10.592 -4.0188 -4.6559  1.3128
   93MOL0     H12222   1.090   8.493  10.675 -0.0963  2.4998 -0.2681
   93MOL0     H12223   1.040   8.245  10.666  0.2135 -0.9556  0.3378
   93MOL0     H12224   0.914   8.280  10.544  2.3715  0.7153  0.0870
   93MOL0     H12225   0.783   8.408  10.732  0.1985  0.5341  2.2767
   93MOL0     H12226   0.792   8.240  10.748  0.2439 -0.7094 -1.4553
   93MOL0     H12227   0.986   8.434  10.887  0.1501  0.0305 -1.2203
   93MOL0     H12228   1.004   8.261  10.900  1.1847  0.8620 -1.6856
   93MOL0     H12229   0.688   8.489  10.916  0.4317 -0.4003 -0.4789
   93MOL0     H12230   0.447   8.341  11.157 -2.4232  1.6947 -0.4379
   93MOL0     H12231   0.467   8.474  11.048  2.5508 -3.4374 -2.6704
   93MOL0     H12232   0.575   8.611  11.237  0.8327 -0.1324 -1.0284
   93MOL0     H12233   0.591   8.458  11.326 -0.1024  1.5351  0.9586
   93MOL0     H12234   0.327   8.449  11.323 -1.4907  0.7543  1.7010
   93MOL0     H12235   0.415   8.577  11.415 -0.2837 -0.4174 -0.4349
   93MOL0     H12236   0.315   8.642  11.141 -0.6112 -1.9106  0.6200
   93MOL0     H12237   0.359   8.744  11.281 -0.0683  0.1227  1.1364
   93MOL0     H12238  -0.020   8.595  11.420  0.2215 -0.8414  0.1256
   93MOL0     H12239  -0.186   8.417  11.381  0.8712  1.5957 -0.1255
   93MOL0     H12240  -0.550   8.360  11.289  2.2908  1.0716 -1.2855
   93MOL0     H12241  -0.766   8.270  11.239  0.5898  0.7614  0.4458
   93MOL0     H12242  -0.856   7.988  11.313 -0.1006 -1.3880  0.6143
   93MOL0     H12243  -0.955   7.911  11.190 -1.0992  0.1818  0.0160
   93MOL0     H12244  -1.077   8.109  11.136 -0.7151  0.7888 -1.1829
   93MOL0     H12245  -0.989   8.204  11.256  2.2099 -1.3652  0.1185
   93MOL0     H12246  -1.065   8.079  11.446 -0.6607  0.4577  0.4060
   93MOL0     H12247  -1.142   7.955  11.352 -1.0406 -0.5934 -3.0150
   93MOL0     H12248  -1.219   8.246  11.312  0.9294 -0.1782  0.2310
   93MOL0     H12249  -1.312   8.116  11.254  0.5663  3.3909 -2.0972
   93MOL0     H12250  -1.269   8.162  11.561 -1.0497  1.4897  0.7335
   93MOL0     H12251  -1.342   8.032  11.492  2.1196 -0.1288  0.0630
   93MOL0     H12252  -1.507   8.201  11.372  0.0581  0.0095 -0.4414
   93MOL0     H12253  -1.433   8.323  11.481  1.0203 -0.7277  3.9780
   93MOL0     H12254  -1.574   8.069  11.560 -1.1176  0.7316  1.6706
   93MOL0     H12255  -1.499   8.178  11.672  0.2996  0.7449  0.2643
   93MOL0     H12256  -1.643   8.359  11.619  1.6367 -0.8198  2.3773
   93MOL0     H12257  -1.740   8.225  11.681 -2.3924  1.3126 -1.9937
   93MOL0     H12258  -0.583   7.939  11.033  1.6331  0.4615  0.3045
   93MOL0     H12259  -0.374   8.031  11.065 -0.2785  1.5961 -1.9553
   93MOL0     H12260   0.037   8.318  11.019  0.2683  2.5908 -1.4745
   93MOL0     H12261   0.181   8.511  11.063  1.0381  0.8724  1.1252
   93MOL0     H12262   1.587   8.628  10.350  1.0459  0.7241 -2.4060
   93MOL0     H12263   1.821   8.701  10.432  1.4956  1.9188  0.0139
   93MOL0     H12264   2.060   9.132  10.815 -0.0358 -0.0961 -0.0364
   93MOL0     H12265   2.277   9.196  10.848 -2.3928 -1.0384 -0.0768
   93MOL0     H12266   2.610   9.337  10.561  0.6914 -0.8051 -0.9605
   93MOL0     H12267   2.478   9.287  10.461 -3.5757 -1.0531  1.4546
   93MOL0     H12268   2.572   9.046  10.542 -0.6041  1.3497  2.0352
   93MOL0     H12269   2.648   9.117  10.403  2.0926  0.0358 -0.3238
   93MOL0     H12270   2.732   9.173  10.696  0.7520 -0.8012  1.1229
   93MOL0     H12271   2.822   9.224  10.560 -0.9408  0.8781  2.3020
   93MOL0     H12272   2.866   8.994  10.484 -0.6499 -0.8621 -0.2783
   93MOL0     H12273   2.942   9.040  10.634 -1.4118  0.5450  1.3844
   93MOL0     H12274   2.627   8.757  10.746 -0.9050  1.4850  1.2848
   93MOL0     H12275   2.362   9.109  10.433  2.2778  0.9445  1.2974
   93MOL0     H12276   2.149   8.972  10.422 -0.4692  0.2293  0.7424
   94MOL0     O12277   0.572   3.744   5.749  0.4781  0.0597 -0.1736
   94MOL0     C12278   0.616   3.848   5.799 -0.1444 -0.6164 -0.0013
   94MOL0     O12279   0.552   3.941   5.867  0.2392  0.2486  0.3406
   94MOL0     C12280   0.425   3.923   5.901  0.3196  0.9205  0.1063
   94MOL0     C12281   0.385   3.816   5.984 -0.0225  0.1393 -0.0567
   94MOL0     C12282   0.255   3.818   6.043  0.3278 -0.6514 -0.0345
   94MOL0     C12283   0.166   3.922   6.006  0.1644  0.1660  0.4807
   94MOL0     O12284   0.036   3.930   6.053 -0.2982  0.0789  0.3493
   94MOL0     C12285   0.030   3.903   6.198 -0.3746  0.1810  0.7552
   94MOL0     C12286  -0.105   3.937   6.256 -0.0815 -0.6714 -0.8082
   94MOL0     C12287  -0.217   3.852   6.201  0.2384 -0.8049  0.7536
   94MOL0     C12288  -0.351   3.861   6.288  0.5741 -0.6836  0.6120
   94MOL0     C12289  -0.399   4.006   6.308 -0.7151 -0.3692  0.5214
   94MOL0     C12290  -0.539   4.030   6.360  0.1566 -0.0679  0.1249
   94MOL0     C12291  -0.557   4.177   6.393  0.9627 -0.0365 -0.3050
   94MOL0     C12292  -0.668   4.192   6.493  0.6875 -0.1664  0.1251
   94MOL0     N12293  -0.791   4.129   6.437  0.2539  0.3487  0.2258
   94MOL0     C12294  -0.821   3.995   6.449  0.2127 -0.0770 -0.3431
   94MOL0     C12295  -0.938   3.982   6.382  1.0550  0.4011 -0.1749
   94MOL0     C12296  -1.025   3.860   6.356 -0.0388  0.7832  0.3249
   94MOL0     C12297  -1.150   3.869   6.440  0.6510 -0.1565  0.0346
   94MOL0     C12298  -1.246   3.744   6.429 -0.2071  0.9692 -0.0773
   94MOL0     C12299  -1.371   3.750   6.527 -0.0340 -0.5815  0.6382
   94MOL0     O12300  -1.336   3.758   6.663 -0.4958 -0.5454 -0.5241
   94MOL0     C12301  -1.436   3.782   6.756  0.9691  0.1922  0.3415
   94MOL0     C12302  -1.403   3.838   6.881 -0.6622 -0.1894  0.9327
   94MOL0     C12303  -1.499   3.875   6.972  0.4614 -0.4680 -0.1880
   94MOL0     C12304  -1.632   3.840   6.949  0.2497  0.2196 -0.2813
   94MOL0     C12305  -1.735   3.861   7.049  0.2151  0.8604  0.1058
   94MOL0     O12306  -1.691   3.884   7.177  0.2167  0.4813 -0.1460
   94MOL0     C12307  -1.780   3.876   7.277  0.8751 -0.0635 -0.6054
   94MOL0     C12308  -1.831   3.991   7.344  0.1627 -0.7520  0.0616
   94MOL0     C12309  -1.936   3.978   7.440 -0.2800 -0.4918  0.2745
   94MOL0     C12310  -1.977   3.847   7.481  1.0695 -0.0302  0.1503
   94MOL0     O12311  -2.076   3.833   7.577  0.4896 -0.1912  0.1894
   94MOL0     C12312  -2.132   3.702   7.603 -0.3196 -0.1157 -0.8310
   94MOL0     C12313  -2.234   3.721   7.716 -0.3381 -0.7558 -0.0281
   94MOL0     C12314  -2.298   3.590   7.751 -0.0334 -0.1593 -0.4797
   94MOL0     C12315  -2.416   3.590   7.853 -0.4319 -0.8984  0.8229
   94MOL0     C12316  -2.408   3.505   7.981  0.1173  0.1533 -0.3806
   94MOL0     C12317  -2.537   3.495   8.049 -0.1735 -0.4343 -0.1318
   94MOL0     C12318  -2.520   3.412   8.171  0.8018  0.4843 -0.9360
   94MOL0     C12319  -2.651   3.345   8.225 -0.6037  0.3692 -0.3622
   94MOL0    Cl12320  -2.628   3.236   8.375  0.1637 -0.1637  0.3680
   94MOL0     C12321  -1.910   3.737   7.425  0.4799  0.3972 -0.9972
   94MOL0     C12322  -1.816   3.744   7.320  0.3220  0.3975  0.5937
   94MOL0     O12323  -1.851   3.843   7.024  0.3591 -0.9829  0.5576
   94MOL0     C12324  -1.668   3.791   6.822 -0.2370  0.4359  0.5676
   94MOL0     C12325  -1.573   3.764   6.726 -0.5050 -0.9372 -0.1360
   94MOL0     N12326  -0.986   4.106   6.345 -0.4081 -0.3897  0.3775
   94MOL0     N12327  -0.892   4.191   6.366  0.0391 -0.1360  0.1307
   94MOL0     C12328   0.208   4.024   5.917 -0.2958  0.0374 -0.5143
   94MOL0     C12329   0.342   4.025   5.869  0.2127  0.2912  0.5699
   94MOL0     C12330   0.758   3.877   5.767  0.1161  0.1925  0.1958
   94MOL0     C12331   0.855   3.776   5.754 -0.1679 -0.0677  0.0886
   94MOL0     C12332   0.986   3.794   5.696 -0.0123 -0.0647 -0.3199
   94MOL0     C12333   1.031   3.923   5.681 -0.6502 -0.2016  1.2553
   94MOL0     O12334   1.150   3.954   5.629  0.1161 -0.4309 -0.0656
   94MOL0     C12335   1.264   3.879   5.680  0.7797 -1.3754 -0.2959
   94MOL0     C12336   1.372   3.972   5.736  0.2941 -0.7255 -0.3906
   94MOL0     C12337   1.402   4.088   5.639 -0.6707 -0.3963  0.0101
   94MOL0     C12338   1.436   4.041   5.499  0.8300  0.2528  0.1360
   94MOL0     C12339   1.489   4.146   5.411 -0.2789  0.4969 -0.6972
   94MOL0     C12340   1.532   4.210   5.319 -0.0169 -0.3524 -0.6393
   94MOL0     C12341   0.940   4.027   5.688  0.6625 -0.1949 -0.5280
   94MOL0     C12342   0.807   4.009   5.731  0.2868  0.4937  0.1671
   94MOL0     H12343   0.460   3.742   6.012 -2.6349 -3.6511 -2.0572
   94MOL0     H12344   0.225   3.740   6.113  1.3559 -1.4017 -0.3984
   94MOL0     H12345   0.106   3.969   6.240 -1.7798  0.9318  2.2019
   94MOL0     H12346   0.050   3.798   6.223  2.5942  0.9337  1.9648
   94MOL0     H12347  -0.120   4.044   6.235 -4.2775 -0.9584 -0.2448
   94MOL0     H12348  -0.101   3.924   6.364 -2.8445 -1.5342 -0.7415
   94MOL0     H12349  -0.191   3.746   6.191 -0.8490 -1.0843  0.8029
   94MOL0     H12350  -0.245   3.874   6.098  0.6321 -3.2691  0.0463
   94MOL0     H12351  -0.428   3.796   6.245 -0.6374 -0.1225  1.8683
   94MOL0     H12352  -0.320   3.812   6.381  1.1863 -0.3832  0.5694
   94MOL0     H12353  -0.411   4.061   6.214 -0.2252  0.1623  0.7595
   94MOL0     H12354  -0.328   4.055   6.375  0.6723 -0.7593 -0.6189
   94MOL0     H12355  -0.549   3.968   6.450  0.0998  0.6807  0.6509
   94MOL0     H12356  -0.605   3.997   6.280 -0.3409 -0.9829  0.8901
   94MOL0     H12357  -0.459   4.209   6.430  1.1524 -0.2209 -0.6468
   94MOL0     H12358  -0.571   4.219   6.294  0.3892  1.7269  0.4848
   94MOL0     H12359  -0.667   4.300   6.512  0.2364  0.2299 -1.8632
   94MOL0     H12360  -0.653   4.139   6.587  2.1831  1.5934  0.9544
   94MOL0     H12361  -0.762   3.917   6.496  1.3137  0.9154 -0.0188
   94MOL0     H12362  -0.968   3.768   6.373 -0.6077 -0.5255 -3.7320
   94MOL0     H12363  -1.049   3.856   6.249  0.9014 -4.2658  0.0649
   94MOL0     H12364  -1.212   3.959   6.431 -1.3451 -0.9234  3.8803
   94MOL0     H12365  -1.120   3.872   6.545 -1.3645 -3.0899  0.8214
   94MOL0     H12366  -1.285   3.732   6.327 -1.6359  1.6780  0.3544
   94MOL0     H12367  -1.192   3.651   6.450 -1.5620 -0.1554 -1.3428
   94MOL0     H12368  -1.417   3.652   6.515  0.8239 -0.8750 -0.2843
   94MOL0     H12369  -1.444   3.822   6.489 -1.1641 -2.0721 -0.0920
   94MOL0     H12370  -1.296   3.853   6.895 -0.6821  0.6594  0.2772
   94MOL0     H12371  -1.474   3.915   7.070  4.7900  0.9263 -1.6030
   94MOL0     H12372  -1.796   4.092   7.322 -2.7406  1.1655  3.2245
   94MOL0     H12373  -1.985   4.067   7.480 -1.6265 -1.2380  0.3366
   94MOL0     H12374  -2.056   3.630   7.634 -0.2320  0.5783  0.6416
   94MOL0     H12375  -2.185   3.661   7.516 -0.3604  1.1306 -1.4135
   94MOL0     H12376  -2.306   3.785   7.665  0.6100  0.7800  0.5009
   94MOL0     H12377  -2.175   3.770   7.793  0.1518  0.3337 -1.0636
   94MOL0     H12378  -2.225   3.527   7.801  0.3439  1.3864  1.0354
   94MOL0     H12379  -2.325   3.537   7.660 -1.0239  0.2600 -0.4498
   94MOL0     H12380  -2.442   3.691   7.886 -0.0865 -0.1673 -1.0430
   94MOL0     H12381  -2.497   3.559   7.787 -1.6325 -0.0828  1.8627
   94MOL0     H12382  -2.339   3.551   8.052  0.0319  0.3483 -0.4243
   94MOL0     H12383  -2.369   3.408   7.949  2.6090  1.6123 -2.0868
   94MOL0     H12384  -2.607   3.450   7.979  0.7649  2.0751 -2.8827
   94MOL0     H12385  -2.572   3.591   8.086  1.4504 -0.5092  1.7926
   94MOL0     H12386  -2.455   3.330   8.140  1.0594  1.4030 -2.9678
   94MOL0     H12387  -2.472   3.466   8.253 -0.6948  1.2701 -0.5399
   94MOL0     H12388  -2.699   3.282   8.150 -1.5161 -0.3360  0.7805
   94MOL0     H12389  -2.719   3.426   8.253 -1.5932  0.4222 -2.7608
   94MOL0     H12390  -1.928   3.632   7.448  1.4495  0.2794 -0.7218
   94MOL0     H12391  -1.774   3.659   7.267 -1.7220 -0.6758  0.6004
   94MOL0     H12392  -1.771   3.764   6.801  0.1543 -1.5516  0.9627
   94MOL0     H12393  -1.599   3.745   6.623 -0.5590  0.4392 -0.3946
   94MOL0     H12394   0.143   4.109   5.899  1.1258  1.3933  0.4998
   94MOL0     H12395   0.395   4.105   5.818  0.8544  0.5167  1.5574
   94MOL0     H12396   0.830   3.675   5.786 -1.5907 -0.5344 -2.2686
   94MOL0     H12397   1.048   3.708   5.669  0.4121 -0.4561  1.7030
   94MOL0     H12398   1.283   3.812   5.596 -0.3201 -0.2176 -1.5316
   94MOL0     H12399   1.237   3.820   5.768  3.6054 -1.7553  0.3891
   94MOL0     H12400   1.319   3.997   5.828 -1.3358 -2.4996 -0.7821
   94MOL0     H12401   1.465   3.919   5.758 -0.4896 -2.0172 -0.0477
   94MOL0     H12402   1.489   4.136   5.683 -1.6607  1.4157  0.1020
   94MOL0     H12403   1.313   4.151   5.636 -1.1932 -1.0346  1.4825
   94MOL0     H12404   1.506   3.958   5.486  0.6330  0.4227 -2.4121
   94MOL0     H12405   1.345   4.000   5.454  1.8734 -0.0240 -1.8060
   94MOL0     H12406   1.558   4.260   5.228  2.6054 -0.7141 -0.1620
   94MOL0     H12407   0.978   4.125   5.661  2.2241 -0.6958 -0.2743
   94MOL0     H12408   0.733   4.088   5.739 -2.0414 -1.5037 -0.5128
   95MOL0     O12409   0.225   0.148   4.189  0.1094 -0.2010  0.5468
   95MOL0     C12410   0.306   0.089   4.262  0.0612 -0.4310 -0.1750
   95MOL0     O12411   0.278   0.041   4.383 -0.1858  0.4281  0.4619
   95MOL0     C12412   0.153   0.062   4.433 -0.1793 -0.3454 -0.3086
   95MOL0     C12413   0.030   0.029   4.367 -0.8642 -0.4230 -0.0250
   95MOL0     C12414  -0.090   0.063   4.427 -0.1243 -0.2088 -0.3918
   95MOL0     C12415  -0.094   0.109   4.558 -0.2021  0.2192  0.0358
   95MOL0     O12416  -0.224   0.129   4.619  0.1581  0.0266 -0.5446
   95MOL0     C12417  -0.236   0.088   4.756 -1.0780 -0.9340 -0.1185
   95MOL0     C12418  -0.367   0.019   4.781 -0.6482 -0.0076  0.3247
   95MOL0     C12419  -0.484   0.116   4.754 -0.5594  0.5678 -0.8064
   95MOL0     C12420  -0.620   0.041   4.783  0.0847  0.7785 -0.6166
   95MOL0     C12421  -0.694   0.073   4.911 -0.3492 -0.1753 -0.2867
   95MOL0     C12422  -0.836   0.017   4.924  0.4172  1.2367  0.0271
   95MOL0     C12423  -0.881   0.047   5.065  0.4175  0.0871 -0.1648
   95MOL0     C12424  -1.006  -0.036   5.094  0.1088  1.0155  0.2177
   95MOL0     N12425  -1.062  -0.021   5.236  0.3436 -0.6903 -0.2890
   95MOL0     C12426  -1.197  -0.039   5.270 -0.2617 -0.1384 -0.0093
   95MOL0     C12427  -1.206  -0.069   5.405  0.4720 -0.3256  0.2900
   95MOL0     C12428  -1.323  -0.114   5.485  0.4357 -0.2153  0.6117
   95MOL0     C12429  -1.459  -0.123   5.408 -0.3391  0.1410  0.0615
   95MOL0     C12430  -1.570  -0.153   5.510 -0.2606  0.3813  0.6745
   95MOL0     C12431  -1.706  -0.174   5.452  0.4201 -0.2134 -0.2078
   95MOL0     O12432  -1.794  -0.203   5.560 -0.4524  0.1012 -0.0483
   95MOL0     C12433  -1.921  -0.233   5.532 -0.9915  0.0313 -0.2515
   95MOL0     C12434  -1.991  -0.186   5.425 -0.1754 -0.5585  0.8183
   95MOL0     C12435  -2.127  -0.210   5.405  0.8385 -0.6828 -0.3589
   95MOL0     C12436  -2.206  -0.269   5.507  0.0638 -0.8583  0.4455
   95MOL0     C12437  -2.357  -0.266   5.515 -0.1341  0.3324  0.1888
   95MOL0     O12438  -2.404  -0.273   5.634 -0.3683  0.3482  0.0159
   95MOL0     C12439  -2.541  -0.272   5.670  0.6143  1.1581  0.7500
   95MOL0     C12440  -2.649  -0.305   5.582  0.1253 -0.4018 -0.3555
   95MOL0     C12441  -2.779  -0.291   5.635 -0.1168 -0.1050 -0.7086
   95MOL0     C12442  -2.813  -0.259   5.770 -0.1389  0.0336  0.6592
   95MOL0     O12443  -2.945  -0.250   5.806 -0.5457  0.5524  0.1942
   95MOL0     C12444  -2.965  -0.253   5.951  0.4485  0.7190  0.4897
   95MOL0     C12445  -3.109  -0.312   5.971 -0.5705 -0.1658 -0.7699
   95MOL0     C12446  -3.118  -0.453   5.903  1.3920  0.7995  0.2705
   95MOL0     C12447  -3.256  -0.525   5.952 -0.3928 -0.4589 -0.3412
   95MOL0     C12448  -3.256  -0.672   5.922 -0.5668 -0.1684  0.3693
   95MOL0     C12449  -3.368  -0.746   5.983 -0.7762  0.2490  0.1767
   95MOL0     C12450  -3.490  -0.741   5.897 -0.2282 -0.5767 -0.1333
   95MOL0     C12451  -3.615  -0.808   5.965 -0.1461 -0.3764 -0.2862
   95MOL0    Cl12452  -3.608  -0.987   5.951 -0.0926 -0.5705 -0.2091
   95MOL0     C12453  -2.699  -0.236   5.851 -0.0023  0.0269 -0.1146
   95MOL0     C12454  -2.563  -0.249   5.807  0.2680 -0.3875  0.1502
   95MOL0     O12455  -2.423  -0.250   5.411 -0.0778  0.7872  0.0898
   95MOL0     C12456  -2.137  -0.306   5.619  0.1683  0.2158 -0.6826
   95MOL0     C12457  -2.001  -0.289   5.633  0.6472 -0.1532  0.3385
   95MOL0     N12458  -1.077  -0.066   5.447  0.8040 -0.6152 -0.3411
   95MOL0     N12459  -0.995  -0.030   5.350  0.1368  0.0844  0.1707
   95MOL0     C12460   0.028   0.130   4.629  0.2134  0.1362  0.4091
   95MOL0     C12461   0.151   0.103   4.565  0.1453 -0.7434 -0.0559
   95MOL0     C12462   0.439   0.052   4.205  0.4283 -0.1341 -0.2936
   95MOL0     C12463   0.477   0.098   4.084  0.8376 -0.3854 -0.9860
   95MOL0     C12464   0.594   0.068   4.022  0.1987 -0.0703  0.0025
   95MOL0     C12465   0.682  -0.015   4.088 -0.0122 -0.8937  0.3465
   95MOL0     O12466   0.800  -0.047   4.029 -0.9034  0.1676 -0.2623
   95MOL0     C12467   0.798  -0.116   3.901  0.7960 -0.0730 -0.1723
   95MOL0     C12468   0.736  -0.249   3.930  0.3609  0.1341  0.2868
   95MOL0     C12469   0.699  -0.335   3.803  0.6594 -0.6101  0.1015
   95MOL0     C12470   0.828  -0.389   3.746 -0.1974  0.6725 -0.7120
   95MOL0     C12471   0.913  -0.294   3.675 -0.0889  0.5162 -0.3677
   95MOL0     C12472   0.987  -0.215   3.623  0.0038  0.2938  0.1524
   95MOL0     C12473   0.648  -0.063   4.217 -0.5673  1.1507 -0.0000
   95MOL0     C12474   0.528  -0.030   4.277 -1.2335 -0.0292  0.5303
   95MOL0     H12475   0.034  -0.007   4.265  1.5148 -0.6045  0.0847
   95MOL0     H12476  -0.183   0.070   4.372 -0.1776 -0.6136 -0.3595
   95MOL0     H12477  -0.211   0.168   4.826 -0.5355 -2.4711  1.5343
   95MOL0     H12478  -0.155   0.017   4.776 -0.8127 -0.5619  0.1388
   95MOL0     H12479  -0.350  -0.016   4.883  3.4106  1.0960  0.2119
   95MOL0     H12480  -0.370  -0.060   4.705 -0.5145  1.6757 -1.5083
   95MOL0     H12481  -0.475   0.155   4.653 -1.3620 -2.1658 -2.0091
   95MOL0     H12482  -0.475   0.202   4.822 -0.6132  0.5965 -0.8360
   95MOL0     H12483  -0.684   0.074   4.700  1.2149  1.3204 -1.2908
   95MOL0     H12484  -0.592  -0.065   4.779 -0.8983  0.3884  1.4964
   95MOL0     H12485  -0.708   0.181   4.917  2.8147  0.2989  0.7186
   95MOL0     H12486  -0.637   0.033   4.995  0.2614 -3.1858 -1.9868
   95MOL0     H12487  -0.844  -0.089   4.902  3.7062  0.8515  0.1976
   95MOL0     H12488  -0.909   0.059   4.854 -1.4103 -3.2337 -1.1067
   95MOL0     H12489  -0.797   0.027   5.133  0.4372 -0.1837 -0.2688
   95MOL0     H12490  -0.907   0.153   5.071  0.8637  0.1469  1.0851
   95MOL0     H12491  -0.972  -0.139   5.082  0.1887  1.2515 -2.0369
   95MOL0     H12492  -1.084  -0.013   5.021 -0.3875  0.1942  0.4709
   95MOL0     H12493  -1.273  -0.047   5.193 -0.5970 -0.3972  0.3441
   95MOL0     H12494  -1.337  -0.051   5.573 -1.4343  1.7354 -0.9651
   95MOL0     H12495  -1.308  -0.215   5.525 -1.7912 -0.1962  1.6537
   95MOL0     H12496  -1.461  -0.209   5.340 -1.2589 -0.7238  1.1443
   95MOL0     H12497  -1.478  -0.030   5.353 -0.4361  0.0328 -0.0880
   95MOL0     H12498  -1.531  -0.244   5.555  1.3558  1.3923  1.4164
   95MOL0     H12499  -1.565  -0.075   5.586  0.7586  3.8653 -2.6278
   95MOL0     H12500  -1.713  -0.247   5.371 -1.4739  1.1182 -1.3321
   95MOL0     H12501  -1.733  -0.076   5.411  0.7043 -0.3789 -0.7975
   95MOL0     H12502  -1.937  -0.129   5.350  0.3613  1.1413  2.4106
   95MOL0     H12503  -2.187  -0.173   5.322 -1.3917 -1.6055  0.7503
   95MOL0     H12504  -2.646  -0.333   5.478 -2.5992 -1.1337 -0.3081
   95MOL0     H12505  -2.855  -0.323   5.565  2.0359  1.0217 -3.7629
   95MOL0     H12506  -2.961  -0.156   6.002  0.4874  0.0994  1.7193
   95MOL0     H12507  -2.895  -0.324   5.995  0.9062  0.5685 -0.4590
   95MOL0     H12508  -3.182  -0.253   5.914  1.5734  1.8624 -1.5681
   95MOL0     H12509  -3.132  -0.304   6.077 -0.2159  1.6726 -0.7957
   95MOL0     H12510  -3.034  -0.521   5.922  1.0590  0.5576  0.9425
   95MOL0     H12511  -3.139  -0.442   5.797 -4.6971 -1.7559  0.7718
   95MOL0     H12512  -3.261  -0.532   6.061  2.3700 -1.3838 -0.1799
   95MOL0     H12513  -3.345  -0.472   5.918 -0.9540 -1.6494 -0.8025
   95MOL0     H12514  -3.164  -0.716   5.962 -0.8182 -0.2543  0.8738
   95MOL0     H12515  -3.253  -0.673   5.813 -1.9562  0.3635  0.3012
   95MOL0     H12516  -3.384  -0.719   6.088 -0.9888 -3.0417  1.1047
   95MOL0     H12517  -3.336  -0.850   5.980  0.9101  0.7542 -2.5801
   95MOL0     H12518  -3.507  -0.635   5.880  2.1702 -0.3806 -1.8496
   95MOL0     H12519  -3.467  -0.788   5.801  2.1280 -0.1586  0.1710
   95MOL0     H12520  -3.710  -0.785   5.917  1.5373 -0.3062 -3.8501
   95MOL0     H12521  -3.630  -0.773   6.068 -1.2667  0.5336 -0.7462
   95MOL0     H12522  -2.709  -0.197   5.951  1.1970  0.7492 -0.2540
   95MOL0     H12523  -2.476  -0.232   5.869  0.3918 -2.5457  0.6739
   95MOL0     H12524  -2.193  -0.349   5.701 -0.7422  2.0275 -0.3010
   95MOL0     H12525  -1.953  -0.329   5.721  1.8206 -0.7905 -0.5627
   95MOL0     H12526   0.017   0.164   4.731 -1.0158 -3.2505  1.5462
   95MOL0     H12527   0.237   0.127   4.627  0.4569 -0.5928 -0.5400
   95MOL0     H12528   0.407   0.164   4.032 -2.0724 -0.6961  2.2122
   95MOL0     H12529   0.615   0.118   3.928 -3.0377  0.5766 -0.4933
   95MOL0     H12530   0.902  -0.140   3.875  0.7076 -1.1811  0.4122
   95MOL0     H12531   0.746  -0.068   3.818  2.0336  1.3386 -0.1827
   95MOL0     H12532   0.797  -0.306   4.001  1.6263  1.8380  0.6261
   95MOL0     H12533   0.641  -0.239   3.982 -0.4873 -2.9981 -0.4349
   95MOL0     H12534   0.643  -0.271   3.734 -0.3743 -2.2251 -0.6288
   95MOL0     H12535   0.630  -0.415   3.832 -1.8790  1.5348  0.2510
   95MOL0     H12536   0.882  -0.427   3.833 -1.3382  0.3159 -0.1425
   95MOL0     H12537   0.800  -0.468   3.676  2.1958 -2.0874  1.2239
   95MOL0     H12538   1.049  -0.143   3.573 -0.2193 -0.6310 -1.5440
   95MOL0     H12539   0.711  -0.134   4.268 -1.6017 -2.2404 -2.9811
   95MOL0     H12540   0.502  -0.057   4.379 -2.1598  1.0391  0.5994
   96MOL0     O12541   5.598   2.446   9.821  0.2150 -0.3031  0.2726
   96MOL0     C12542   5.645   2.397   9.716  0.2161 -0.4195  0.5245
   96MOL0     O12543   5.572   2.299   9.637  0.0150  0.1501  0.2855
   96MOL0     C12544   5.448   2.256   9.670 -0.4456 -0.7287  0.4689
   96MOL0     C12545   5.417   2.123   9.681 -0.7612 -0.0422  0.4916
   96MOL0     C12546   5.279   2.083   9.678 -0.7857  0.0511  0.1172
   96MOL0     C12547   5.172   2.179   9.684 -0.7916  0.0203  0.2417
   96MOL0     O12548   5.051   2.126   9.691  0.6785 -0.0468 -0.4651
   96MOL0     C12549   4.946   2.224   9.714 -0.0725  0.3650 -0.0638
   96MOL0     C12550   4.813   2.158   9.759 -0.4408 -0.1516 -0.6565
   96MOL0     C12551   4.693   2.252   9.740  0.4063 -0.4186  0.2205
   96MOL0     C12552   4.567   2.187   9.800  0.6423 -0.2237  0.9893
   96MOL0     C12553   4.540   2.042   9.744 -0.4980 -0.6685 -0.2290
   96MOL0     C12554   4.524   2.042   9.598  0.4122  0.1057  0.3033
   96MOL0     C12555   4.391   2.098   9.538  0.3934  0.0394 -0.1470
   96MOL0     C12556   4.260   2.031   9.591 -0.1313 -0.6833 -0.1745
   96MOL0     N12557   4.264   1.887   9.554  0.3869 -0.2035  0.4772
   96MOL0     C12558   4.247   1.850   9.421 -0.6212  0.4719 -0.7270
   96MOL0     C12559   4.249   1.716   9.427  0.0528  0.4181 -0.6959
   96MOL0     C12560   4.225   1.631   9.313 -1.0340 -0.0689  0.3376
   96MOL0     C12561   4.081   1.597   9.296 -0.2510 -1.3729 -0.5090
   96MOL0     C12562   4.058   1.531   9.163  0.3603  1.5389  0.4474
   96MOL0     C12563   3.909   1.492   9.146 -0.2825 -0.1601 -0.0248
   96MOL0     O12564   3.832   1.619   9.128 -0.2834  0.3393 -0.5448
   96MOL0     C12565   3.712   1.596   9.076  0.4505 -0.5342  0.1621
   96MOL0     C12566   3.692   1.615   8.947  0.1811 -0.1348  0.8326
   96MOL0     C12567   3.570   1.593   8.889 -0.2171  0.7450  0.3863
   96MOL0     C12568   3.459   1.558   8.969  0.1479  0.0826  0.3638
   96MOL0     C12569   3.330   1.529   8.907 -0.3050  0.5369  0.3241
   96MOL0     O12570   3.229   1.577   8.986  0.1567 -0.4831 -0.0912
   96MOL0     C12571   3.097   1.537   8.963 -0.1622  0.0962  0.1893
   96MOL0     C12572   3.035   1.465   8.858 -0.6056 -0.0700 -0.4664
   96MOL0     C12573   2.906   1.417   8.872  0.1021  0.1218 -0.1298
   96MOL0     C12574   2.828   1.454   8.980 -0.0656  0.0154 -0.1715
   96MOL0     O12575   2.694   1.413   8.997 -0.3685  0.0298 -0.3271
   96MOL0     C12576   2.640   1.308   8.911 -0.0765 -0.6024 -0.6515
   96MOL0     C12577   2.504   1.245   8.961  0.6954  0.2051  0.5637
   96MOL0     C12578   2.395   1.354   8.951  1.0460 -0.0295  0.2595
   96MOL0     C12579   2.252   1.301   8.970 -0.2270 -0.0401 -0.1651
   96MOL0     C12580   2.136   1.405   8.957 -0.4509 -0.5087 -0.0039
   96MOL0     C12581   2.073   1.394   8.816 -0.3837  0.0259 -0.2871
   96MOL0     C12582   1.967   1.493   8.795  0.1621  0.1056 -1.0340
   96MOL0     C12583   1.838   1.466   8.867  0.3465  0.0545  0.0020
   96MOL0    Cl12584   1.702   1.580   8.814 -0.4897  0.2859 -0.0173
   96MOL0     C12585   2.883   1.539   9.072 -0.5655 -0.2152  0.0663
   96MOL0     C12586   3.013   1.574   9.066  0.0516  0.0297  0.1078
   96MOL0     O12587   3.321   1.502   8.785 -0.1290 -0.2349 -0.0274
   96MOL0     C12588   3.478   1.532   9.105  0.7152  0.5495 -0.1558
   96MOL0     C12589   3.609   1.544   9.161 -0.5342  0.5766  0.1598
   96MOL0     N12590   4.268   1.678   9.563 -0.2695  0.3222 -0.4049
   96MOL0     N12591   4.289   1.781   9.634 -0.2249 -0.5640 -0.4553
   96MOL0     C12592   5.214   2.321   9.673  0.7060  0.4049 -0.3119
   96MOL0     C12593   5.347   2.355   9.665  0.2878  0.0577  0.0735
   96MOL0     C12594   5.772   2.444   9.664 -0.0576 -0.6253  0.9042
   96MOL0     C12595   5.833   2.560   9.701 -0.0094 -0.6881 -0.9163
   96MOL0     C12596   5.939   2.614   9.646  0.5690  1.1586 -0.5049
   96MOL0     C12597   6.016   2.548   9.548  0.7959 -0.1805 -0.1424
   96MOL0     O12598   6.136   2.597   9.506 -0.6117  0.0162 -0.0338
   96MOL0     C12599   6.205   2.523   9.407  0.4163 -0.3847  0.1404
   96MOL0     C12600   6.345   2.583   9.401  0.3991  0.0275 -0.5686
   96MOL0     C12601   6.349   2.716   9.321  0.5195  1.2445  0.6382
   96MOL0     C12602   6.380   2.699   9.169 -0.4109  0.0360 -0.1412
   96MOL0     C12603   6.394   2.835   9.107 -0.1077  0.2292  0.6966
   96MOL0     C12604   6.411   2.939   9.039 -0.5671  0.9695  0.0080
   96MOL0     C12605   5.958   2.429   9.504  0.1436  0.0548  0.2528
   96MOL0     C12606   5.831   2.378   9.553 -0.5901  0.0479  0.7405
   96MOL0     H12607   5.490   2.042   9.678 -0.4142  0.2636  0.5632
   96MOL0     H12608   5.246   1.980   9.680 -0.0900 -0.1888  1.9787
   96MOL0     H12609   4.932   2.274   9.618  1.1442  1.5416  0.3414
   96MOL0     H12610   4.984   2.299   9.784  1.2981  2.2483 -2.6393
   96MOL0     H12611   4.820   2.118   9.860  2.6963  0.1554 -0.6520
   96MOL0     H12612   4.795   2.077   9.688  0.8269 -0.2265 -0.9209
   96MOL0     H12613   4.681   2.278   9.635 -1.5653  0.0015  0.5094
   96MOL0     H12614   4.708   2.342   9.801 -0.3144  0.5952 -1.0438
   96MOL0     H12615   4.572   2.181   9.909 -0.8501 -2.3623  1.0035
   96MOL0     H12616   4.487   2.255   9.770  1.3039 -0.3142 -1.1465
   96MOL0     H12617   4.458   1.992   9.798 -0.2389 -1.3131 -0.4259
   96MOL0     H12618   4.632   1.987   9.766 -0.5431 -0.5612  0.2507
   96MOL0     H12619   4.539   1.937   9.572 -0.0915 -0.3850  1.9031
   96MOL0     H12620   4.606   2.100   9.555  1.7806 -1.3960  0.7800
   96MOL0     H12621   4.382   2.203   9.567  1.2575 -0.0722  0.5529
   96MOL0     H12622   4.402   2.083   9.430  0.6230  0.0022 -0.1186
   96MOL0     H12623   4.160   2.070   9.571 -0.1686 -0.0673  1.1239
   96MOL0     H12624   4.260   2.041   9.700 -0.5214  0.2522 -0.2530
   96MOL0     H12625   4.242   1.910   9.331  1.0488 -1.8225 -2.4668
   96MOL0     H12626   4.296   1.547   9.315  0.6862  1.3630  1.7010
   96MOL0     H12627   4.255   1.687   9.224  1.4727 -1.1298  0.4326
   96MOL0     H12628   4.020   1.688   9.305  1.3329 -0.2005 -1.0997
   96MOL0     H12629   4.038   1.527   9.368 -1.9059 -1.2004 -1.2797
   96MOL0     H12630   4.094   1.599   9.086  2.0157 -0.5926 -0.7747
   96MOL0     H12631   4.115   1.438   9.152 -0.9803  0.9736 -2.4845
   96MOL0     H12632   3.861   1.441   9.230 -1.2471  2.1698  0.9285
   96MOL0     H12633   3.906   1.432   9.054 -0.8166 -2.6156  1.5272
   96MOL0     H12634   3.783   1.642   8.894  0.0242 -2.4658 -0.7657
   96MOL0     H12635   3.553   1.586   8.782 -2.3819  1.0998  0.6656
   96MOL0     H12636   3.094   1.437   8.771 -0.3413 -1.9476  0.2757
   96MOL0     H12637   2.876   1.352   8.790 -1.3647  1.5582 -0.7832
   96MOL0     H12638   2.720   1.236   8.890  1.6147  1.3712 -1.3544
   96MOL0     H12639   2.625   1.348   8.810  0.2950 -4.0943 -2.2277
   96MOL0     H12640   2.519   1.197   9.058  0.1708 -1.4041 -0.1248
   96MOL0     H12641   2.476   1.167   8.889  0.8570 -0.9784  1.7370
   96MOL0     H12642   2.403   1.394   8.849  0.1555 -1.0520 -0.2353
   96MOL0     H12643   2.418   1.429   9.027 -0.6805  1.3867 -0.5223
   96MOL0     H12644   2.232   1.226   8.893 -0.4880  1.2107 -1.3587
   96MOL0     H12645   2.248   1.256   9.069 -1.2405  1.4665  0.5230
   96MOL0     H12646   2.166   1.508   8.979 -0.3581 -0.1487 -1.6735
   96MOL0     H12647   2.060   1.383   9.033 -1.3484  1.9479 -0.0977
   96MOL0     H12648   2.053   1.289   8.793  0.9292 -0.2658 -0.2095
   96MOL0     H12649   2.155   1.410   8.745 -0.3670 -0.4925 -0.3836
   96MOL0     H12650   2.001   1.594   8.820  0.5761 -0.1245 -0.6378
   96MOL0     H12651   1.942   1.485   8.689  0.1484  2.4693 -1.2581
   96MOL0     H12652   1.849   1.478   8.975 -1.4910 -0.2349  0.2580
   96MOL0     H12653   1.816   1.362   8.842 -0.0740  0.7693 -3.0603
   96MOL0     H12654   2.819   1.576   9.151  0.8376 -1.8622  2.0825
   96MOL0     H12655   3.057   1.626   9.150 -0.7289 -0.3317  0.7492
   96MOL0     H12656   3.393   1.494   9.162  0.4353 -0.8278 -1.4100
   96MOL0     H12657   3.618   1.511   9.264 -1.0543  2.2934  0.7830
   96MOL0     H12658   5.139   2.399   9.669 -1.6341 -1.6090  1.2352
   96MOL0     H12659   5.369   2.458   9.640  1.7493 -0.5846 -1.5488
   96MOL0     H12660   5.778   2.622   9.772  0.1818 -1.6878  0.1391
   96MOL0     H12661   5.975   2.706   9.691 -1.0997  2.2521 -1.3188
   96MOL0     H12662   6.151   2.537   9.313  1.2972 -1.8123 -0.6106
   96MOL0     H12663   6.207   2.416   9.427 -0.4104 -1.2517 -3.6543
   96MOL0     H12664   6.376   2.590   9.506 -2.5590  2.0012  0.3011
   96MOL0     H12665   6.405   2.504   9.354  0.5853 -1.5353  2.1040
   96MOL0     H12666   6.419   2.785   9.368  1.3374  0.2386  0.9277
   96MOL0     H12667   6.246   2.753   9.309  0.0025 -0.6216 -1.4356
   96MOL0     H12668   6.469   2.640   9.148 -0.9479 -0.3585 -1.3723
   96MOL0     H12669   6.300   2.641   9.122  1.1779 -1.7818 -0.6935
   96MOL0     H12670   6.405   3.033   8.986  1.4716  0.8715 -0.4625
   96MOL0     H12671   6.014   2.371   9.431 -0.3277  1.4192 -1.2415
   96MOL0     H12672   5.774   2.302   9.500 -3.4374  0.9354  2.3388
   97MOL0     O12673   0.755   7.289   5.947 -0.0601 -0.4076 -1.0548
   97MOL0     C12674   0.831   7.228   6.024 -0.1423 -0.8176  0.5997
   97MOL0     O12675   0.799   7.174   6.135  0.0271  0.6682 -0.5748
   97MOL0     C12676   0.675   7.192   6.185  0.3780  0.1225  0.2700
   97MOL0     C12677   0.587   7.087   6.209  0.3865  0.5794 -0.2581
   97MOL0     C12678   0.467   7.104   6.263  0.7596 -0.4880  0.4443
   97MOL0     C12679   0.417   7.229   6.299  0.1733  0.0021 -1.0092
   97MOL0     O12680   0.295   7.243   6.361 -0.4203  0.3100  0.3093
   97MOL0     C12681   0.176   7.247   6.285 -0.3982 -0.2669 -0.2473
   97MOL0     C12682   0.153   7.391   6.232  0.7141 -0.2642  0.6057
   97MOL0     C12683   0.033   7.399   6.143 -0.0139  0.1203 -1.1232
   97MOL0     C12684  -0.101   7.383   6.225 -0.7788 -1.5168  1.1248
   97MOL0     C12685  -0.218   7.370   6.138  0.0170  0.1509 -0.5278
   97MOL0     C12686  -0.353   7.314   6.209 -0.3321  0.0277 -0.3251
   97MOL0     C12687  -0.463   7.294   6.113  0.1375 -0.5322  0.4942
   97MOL0     C12688  -0.585   7.244   6.185  0.3934 -0.2480  0.5149
   97MOL0     N12689  -0.695   7.219   6.089 -0.8636 -0.3279  0.4231
   97MOL0     C12690  -0.713   7.101   6.027  0.1035 -0.5152  0.1730
   97MOL0     C12691  -0.814   7.133   5.943  0.0695  0.8527 -0.1434
   97MOL0     C12692  -0.868   7.053   5.827  0.1733 -0.4061 -0.0626
   97MOL0     C12693  -1.021   7.067   5.822  0.1988 -0.5523 -0.7276
   97MOL0     C12694  -1.075   6.972   5.715 -0.3154 -0.1750  0.5253
   97MOL0     C12695  -1.225   7.008   5.664 -0.2175  0.4326  0.1637
   97MOL0     O12696  -1.321   6.999   5.768  0.4132 -1.0061 -0.0820
   97MOL0     C12697  -1.396   6.890   5.789 -0.2911  0.0850 -0.5080
   97MOL0     C12698  -1.529   6.914   5.834 -0.3421  0.1143  0.4157
   97MOL0     C12699  -1.623   6.806   5.837 -0.0599 -0.0770  0.9436
   97MOL0     C12700  -1.588   6.683   5.787  0.0333 -0.6993  0.9700
   97MOL0     C12701  -1.689   6.577   5.759 -0.5562  0.1148 -0.0754
   97MOL0     O12702  -1.816   6.630   5.751 -0.2875 -1.0956 -0.3761
   97MOL0     C12703  -1.936   6.562   5.743  0.1525  0.8203  0.0436
   97MOL0     C12704  -2.038   6.617   5.665 -0.3081  1.3956 -0.0266
   97MOL0     C12705  -2.153   6.546   5.632 -0.4066  0.0433 -0.2005
   97MOL0     C12706  -2.171   6.414   5.683 -0.8058  0.2314 -0.5157
   97MOL0     O12707  -2.288   6.344   5.677  0.6258  0.2842 -0.0183
   97MOL0     C12708  -2.375   6.370   5.577 -0.2820  0.4387 -0.2006
   97MOL0     C12709  -2.483   6.257   5.576 -0.0289 -0.3349  1.0394
   97MOL0     C12710  -2.572   6.256   5.456 -0.4640  0.2876  0.0364
   97MOL0     C12711  -2.710   6.202   5.502 -0.2603  0.5337 -0.6786
   97MOL0     C12712  -2.783   6.165   5.377 -0.4882 -0.2688  0.1943
   97MOL0     C12713  -2.930   6.117   5.413 -0.0277 -0.3333 -0.1222
   97MOL0     C12714  -3.014   6.073   5.305 -0.3885 -0.0721 -0.3517
   97MOL0     C12715  -2.946   5.960   5.215 -0.0196  0.1788 -0.7399
   97MOL0    Cl12716  -2.883   5.823   5.303  0.0560  0.4732  0.0673
   97MOL0     C12717  -2.075   6.367   5.771  0.2779 -0.4446 -1.0862
   97MOL0     C12718  -1.959   6.434   5.795  0.4005  0.0197 -0.4435
   97MOL0     O12719  -1.661   6.458   5.757 -0.5327 -0.5657 -0.0776
   97MOL0     C12720  -1.456   6.661   5.757 -0.0674  0.1510  0.3447
   97MOL0     C12721  -1.359   6.760   5.752 -0.1123  0.2737  0.0212
   97MOL0     N12722  -0.855   7.258   5.970  0.8339  0.2258 -0.0456
   97MOL0     N12723  -0.788   7.314   6.056  0.2944  0.4518 -0.9978
   97MOL0     C12724   0.505   7.337   6.284 -0.3920 -0.9176  0.6208
   97MOL0     C12725   0.633   7.322   6.225 -0.1530 -0.0089  0.2634
   97MOL0     C12726   0.968   7.222   5.965  0.7785 -0.7210  0.2062
   97MOL0     C12727   1.030   7.324   5.884 -0.1878  0.1131  0.0783
   97MOL0     C12728   1.156   7.322   5.839  0.0442  0.5689 -0.7674
   97MOL0     C12729   1.247   7.226   5.881  1.2215 -0.0780 -0.3450
   97MOL0     O12730   1.382   7.236   5.846  0.4808 -0.5470  0.0650
   97MOL0     C12731   1.472   7.220   5.960 -0.0059  0.2203  0.0986
   97MOL0     C12732   1.614   7.259   5.908 -0.1287  0.6670 -0.8634
   97MOL0     C12733   1.711   7.311   6.024 -0.7800 -0.2453  0.2698
   97MOL0     C12734   1.846   7.250   6.010  0.2608  0.2259  0.4752
   97MOL0     C12735   1.956   7.308   6.097  0.1749 -0.0664 -0.0057
   97MOL0     C12736   2.044   7.341   6.159  0.4353 -0.0594  0.2174
   97MOL0     C12737   1.188   7.117   5.958  0.4512 -0.2820 -0.6934
   97MOL0     C12738   1.050   7.109   5.997 -0.0020 -0.4156  0.6001
   97MOL0     H12739   0.630   6.992   6.181 -0.0285  0.3087  0.0132
   97MOL0     H12740   0.403   7.017   6.271  1.0349 -0.5700  2.0307
   97MOL0     H12741   0.102   7.230   6.364 -0.0028  1.1875  0.4774
   97MOL0     H12742   0.168   7.167   6.212 -3.0477 -0.8190  0.5357
   97MOL0     H12743   0.232   7.430   6.167  1.1513 -1.4218  0.4181
   97MOL0     H12744   0.144   7.459   6.317 -3.0519  1.9577 -1.3094
   97MOL0     H12745   0.035   7.317   6.070  1.5907 -0.2626 -0.6947
   97MOL0     H12746   0.033   7.498   6.096 -1.4040  1.0782  0.7802
   97MOL0     H12747  -0.095   7.294   6.288  1.5453 -3.0931 -1.1294
   97MOL0     H12748  -0.120   7.470   6.289  2.0226  0.0074  0.0157
   97MOL0     H12749  -0.200   7.299   6.056 -0.3474 -1.5324  0.7979
   97MOL0     H12750  -0.254   7.466   6.099 -0.0227  0.3643  0.0249
   97MOL0     H12751  -0.381   7.377   6.293  3.2996 -1.1954  2.0211
   97MOL0     H12752  -0.324   7.213   6.241  0.8553 -0.5946 -3.0729
   97MOL0     H12753  -0.499   7.392   6.083 -1.2764 -1.1921 -0.0559
   97MOL0     H12754  -0.434   7.234   6.027  0.0591 -1.3335  1.0089
   97MOL0     H12755  -0.618   7.319   6.258  0.2890 -0.8917  1.1481
   97MOL0     H12756  -0.570   7.141   6.220  1.5313 -1.5348 -3.2518
   97MOL0     H12757  -0.652   7.011   6.027 -0.2306 -0.7468 -0.3906
   97MOL0     H12758  -0.838   6.948   5.833 -1.0006 -0.7219  0.4412
   97MOL0     H12759  -0.829   7.098   5.735  0.2208  1.3000  0.7652
   97MOL0     H12760  -1.046   7.169   5.794  0.8503  0.9758  3.5628
   97MOL0     H12761  -1.070   7.048   5.918 -0.4816 -0.8671 -1.1316
   97MOL0     H12762  -1.009   6.987   5.629 -0.5144  0.0256  0.4066
   97MOL0     H12763  -1.075   6.865   5.734  3.5601 -1.0146 -2.7947
   97MOL0     H12764  -1.251   6.955   5.572 -0.9876 -0.6285  0.9616
   97MOL0     H12765  -1.239   7.111   5.630 -1.7916 -0.1671 -1.0985
   97MOL0     H12766  -1.562   7.014   5.862 -0.1100  0.6252 -1.0535
   97MOL0     H12767  -1.724   6.809   5.876 -0.5822 -3.7555  0.2599
   97MOL0     H12768  -2.019   6.718   5.631 -0.4664  1.8671  1.2149
   97MOL0     H12769  -2.233   6.588   5.573  0.1433  0.1887 -0.8585
   97MOL0     H12770  -2.314   6.376   5.486 -0.3523  0.7303 -0.2263
   97MOL0     H12771  -2.421   6.469   5.585 -1.6671 -0.0664 -1.5490
   97MOL0     H12772  -2.546   6.273   5.663  0.7631  1.3467  1.3592
   97MOL0     H12773  -2.441   6.157   5.587  0.7775 -0.2470 -0.7838
   97MOL0     H12774  -2.535   6.188   5.379 -1.3443  0.5748 -0.6578
   97MOL0     H12775  -2.583   6.359   5.420  0.0007 -0.2108 -1.6109
   97MOL0     H12776  -2.693   6.111   5.561  0.4342  0.9070 -0.2992
   97MOL0     H12777  -2.766   6.280   5.553  0.8544  1.2576 -0.5292
   97MOL0     H12778  -2.731   6.084   5.325 -0.8595  0.5310 -1.5149
   97MOL0     H12779  -2.796   6.253   5.312  0.8983  0.0911  0.3889
   97MOL0     H12780  -2.974   6.193   5.477  1.3487  1.4177 -1.1519
   97MOL0     H12781  -2.913   6.037   5.486  2.1084  0.2427  0.0851
   97MOL0     H12782  -3.099   6.027   5.356 -0.2757  1.0795  0.9285
   97MOL0     H12783  -3.046   6.161   5.250  0.6826  1.1509  0.8973
   97MOL0     H12784  -2.865   6.000   5.154 -1.2013  0.3078 -2.2892
   97MOL0     H12785  -3.024   5.928   5.144  1.1342 -1.8023 -1.1891
   97MOL0     H12786  -2.089   6.265   5.804 -2.2388  0.0340 -0.4375
   97MOL0     H12787  -1.877   6.393   5.853  1.8721  1.7693 -1.1955
   97MOL0     H12788  -1.427   6.562   5.724  0.2068  1.0587 -2.3248
   97MOL0     H12789  -1.260   6.729   5.721  0.7404 -0.6065  3.2917
   97MOL0     H12790   0.486   7.438   6.319  0.2065 -1.2391  1.9678
   97MOL0     H12791   0.696   7.409   6.212 -1.5436  1.2851  1.7289
   97MOL0     H12792   0.969   7.411   5.862 -1.3796 -0.7231 -0.0068
   97MOL0     H12793   1.193   7.406   5.781  3.1584 -1.5437 -2.1152
   97MOL0     H12794   1.472   7.117   5.996 -1.1192 -0.1412 -0.8413
   97MOL0     H12795   1.439   7.297   6.030 -0.0331  0.5156 -0.2336
   97MOL0     H12796   1.657   7.173   5.856 -2.2578 -0.6464 -0.5665
   97MOL0     H12797   1.605   7.338   5.833  2.7933  0.1935 -1.8740
   97MOL0     H12798   1.669   7.301   6.125  0.5299 -0.8540  0.7742
   97MOL0     H12799   1.721   7.416   5.996  0.6363 -1.2483 -3.5205
   97MOL0     H12800   1.849   7.140   6.011  1.6225  0.2508  0.4602
   97MOL0     H12801   1.866   7.266   5.904 -4.2935 -1.4651 -0.9039
   97MOL0     H12802   2.116   7.377   6.229  0.5055 -0.8907  0.5849
   97MOL0     H12803   1.241   7.028   5.991 -0.5100 -0.8682 -0.6884
   97MOL0     H12804   1.012   7.020   6.046 -2.9053  0.5969  0.4013
   98MOL0     O12805   4.643   0.615   6.850 -0.0380 -0.9260 -0.1111
   98MOL0     C12806   4.709   0.607   6.748  0.6076 -0.0255  0.0271
   98MOL0     O12807   4.670   0.630   6.620 -0.2190 -0.8422 -0.1815
   98MOL0     C12808   4.545   0.679   6.599 -0.9855 -0.2947  0.0125
   98MOL0     C12809   4.468   0.616   6.502 -0.3065 -0.0118  0.0749
   98MOL0     C12810   4.349   0.676   6.462 -0.4123  0.3378 -0.6381
   98MOL0     C12811   4.302   0.790   6.529  0.1234  0.6207  0.3579
   98MOL0     O12812   4.178   0.842   6.504  0.1282 -0.0114  0.0540
   98MOL0     C12813   4.079   0.766   6.432 -0.0427 -0.2568 -0.5629
   98MOL0     C12814   4.084   0.805   6.282  0.3008  0.2494 -0.3871
   98MOL0     C12815   3.952   0.761   6.211  0.2816  0.5638 -0.7719
   98MOL0     C12816   3.942   0.816   6.075 -0.6998 -0.3827  0.5277
   98MOL0     C12817   3.815   0.784   5.996 -0.1861 -0.4223  0.5469
   98MOL0     C12818   3.689   0.860   6.044  0.8003  0.6445 -0.4803
   98MOL0     C12819   3.555   0.839   5.974 -0.8331  0.1458 -0.5020
   98MOL0     C12820   3.512   0.690   5.983  0.0861  0.6446 -0.4021
   98MOL0     N12821   3.372   0.674   5.952  0.2396 -0.0106 -0.1735
   98MOL0     C12822   3.265   0.699   6.033 -0.1473  0.4710  0.3733
   98MOL0     C12823   3.161   0.683   5.952 -0.4104  1.0087  0.5243
   98MOL0     C12824   3.017   0.670   5.996 -0.1122  1.0294 -0.6575
   98MOL0     C12825   2.975   0.531   5.966  0.2704  0.0981 -0.1366
   98MOL0     C12826   2.839   0.498   6.018  0.4899  0.3126  0.2457
   98MOL0     C12827   2.747   0.481   5.896 -0.0310  0.1608  0.7071
   98MOL0     O12828   2.626   0.433   5.953  0.2868  0.0058 -0.5307
   98MOL0     C12829   2.510   0.444   5.882  0.4324 -0.0235 -0.6567
   98MOL0     C12830   2.487   0.497   5.755  0.2162 -0.1287  0.8737
   98MOL0     C12831   2.364   0.489   5.693 -0.7751 -0.6787  0.5951
   98MOL0     C12832   2.253   0.443   5.768  0.0080 -0.6634 -0.0485
   98MOL0     C12833   2.115   0.448   5.707  0.3246 -0.0862  0.0228
   98MOL0     O12834   2.088   0.541   5.613 -0.6811  0.1506  0.2138
   98MOL0     C12835   1.969   0.532   5.555  0.2463  0.1365  0.4218
   98MOL0     C12836   1.841   0.500   5.618 -0.2162 -0.0486  0.2482
   98MOL0     C12837   1.722   0.489   5.545  0.1992  0.5243  0.2674
   98MOL0     C12838   1.726   0.504   5.406 -0.6869 -0.1956 -0.3278
   98MOL0     O12839   1.608   0.493   5.340 -0.7584 -0.2748  0.1435
   98MOL0     C12840   1.605   0.485   5.197 -0.3041 -0.1105 -0.1592
   98MOL0     C12841   1.463   0.451   5.155  0.1837  0.5634 -0.3331
   98MOL0     C12842   1.475   0.383   5.019 -0.2303 -0.0047  0.5178
   98MOL0     C12843   1.548   0.477   4.921  0.6310 -0.6577 -0.6146
   98MOL0     C12844   1.572   0.407   4.781 -0.2885  0.1612  0.0957
   98MOL0     C12845   1.621   0.518   4.682 -0.4408 -0.0317  0.0263
   98MOL0     C12846   1.723   0.467   4.576  0.2759  0.4613 -0.4364
   98MOL0     C12847   1.675   0.340   4.509  0.2940  0.4002 -0.3022
   98MOL0    Cl12848   1.789   0.320   4.372  0.1595 -0.2866 -0.2690
   98MOL0     C12849   1.851   0.533   5.344 -0.1086 -0.3539  0.7251
   98MOL0     C12850   1.971   0.550   5.414 -0.0900 -1.1900 -0.5808
   98MOL0     O12851   2.037   0.358   5.742 -0.0962  0.2777  0.8028
   98MOL0     C12852   2.281   0.379   5.890 -0.3390 -0.2686 -0.5387
   98MOL0     C12853   2.409   0.371   5.944 -0.7761  0.6958 -0.3999
   98MOL0     N12854   3.210   0.670   5.817 -0.4638  0.3135 -0.2965
   98MOL0     N12855   3.330   0.668   5.822 -0.6091 -0.1276  0.3836
   98MOL0     C12856   4.373   0.847   6.634 -1.0803  0.1894 -0.1342
   98MOL0     C12857   4.502   0.798   6.665  0.0824 -0.0227 -0.1418
   98MOL0     C12858   4.854   0.583   6.757 -0.7344  0.6346  0.1056
   98MOL0     C12859   4.919   0.564   6.876 -0.1282  0.4298 -0.4447
   98MOL0     C12860   5.062   0.530   6.875 -0.2240  0.1481  0.4387
   98MOL0     C12861   5.139   0.522   6.764  0.4968 -0.3184  0.0013
   98MOL0     O12862   5.273   0.504   6.761 -0.3399  0.8306 -0.0811
   98MOL0     C12863   5.348   0.498   6.883 -1.1946  0.0987 -0.2934
   98MOL0     C12864   5.501   0.498   6.844 -0.1680 -0.2600 -0.3697
   98MOL0     C12865   5.592   0.519   6.966  0.2624  0.6196 -0.1747
   98MOL0     C12866   5.729   0.567   6.911  0.3655  0.2697 -1.0204
   98MOL0     C12867   5.833   0.525   7.007  0.2560  0.7325 -0.2850
   98MOL0     C12868   5.924   0.508   7.084 -0.2108  0.1305 -0.8120
   98MOL0     C12869   5.067   0.527   6.648  0.1486  0.2487  1.3149
   98MOL0     C12870   4.929   0.567   6.638  0.0122  0.9287  0.1474
   98MOL0     H12871   4.499   0.526   6.451  2.4090  0.4903  0.7276
   98MOL0     H12872   4.301   0.633   6.375  1.5882  0.6570 -1.9671
   98MOL0     H12873   3.981   0.793   6.472 -1.1102  0.5414 -3.4737
   98MOL0     H12874   4.088   0.658   6.448 -1.0618 -0.2062  0.4172
   98MOL0     H12875   4.172   0.765   6.230  0.6586  0.4936  0.0151
   98MOL0     H12876   4.088   0.913   6.262  0.0486 -0.0754 -2.4527
   98MOL0     H12877   3.869   0.788   6.277 -0.0921 -0.1250 -0.9477
   98MOL0     H12878   3.941   0.652   6.212  1.5730  0.2912  3.0948
   98MOL0     H12879   3.966   0.923   6.077 -0.2207 -0.4705 -0.0212
   98MOL0     H12880   4.028   0.778   6.019  0.1583  1.8647  0.2354
   98MOL0     H12881   3.804   0.675   5.998 -2.1093 -0.2937 -0.5871
   98MOL0     H12882   3.825   0.805   5.889 -0.4614 -0.6932  0.4660
   98MOL0     H12883   3.718   0.965   6.052  2.6095  0.1599 -0.1856
   98MOL0     H12884   3.680   0.839   6.150 -1.4294 -0.3676 -0.8106
   98MOL0     H12885   3.478   0.903   6.020  0.2844 -1.4856  4.1746
   98MOL0     H12886   3.568   0.860   5.867  2.2654 -1.3720 -0.5245
   98MOL0     H12887   3.536   0.655   6.084 -0.4507  0.7544 -0.2346
   98MOL0     H12888   3.564   0.622   5.915 -0.6667 -0.4836  0.1286
   98MOL0     H12889   3.260   0.732   6.136  1.2029  1.2502  0.2071
   98MOL0     H12890   2.959   0.740   5.936  0.6832  1.1539 -1.2957
   98MOL0     H12891   3.013   0.703   6.100  0.9693  0.3050 -0.3606
   98MOL0     H12892   3.049   0.460   6.004 -0.3400 -0.4315  0.0795
   98MOL0     H12893   2.972   0.525   5.857 -0.6879  1.2669 -0.1857
   98MOL0     H12894   2.823   0.412   6.083 -1.8203 -2.0964 -3.1582
   98MOL0     H12895   2.789   0.578   6.073 -1.7746  1.4552 -3.1276
   98MOL0     H12896   2.780   0.403   5.826 -0.4719 -1.4106  2.1572
   98MOL0     H12897   2.727   0.575   5.845 -0.5153  1.3801  2.9792
   98MOL0     H12898   2.573   0.526   5.695 -0.1896  0.8318  0.7441
   98MOL0     H12899   2.360   0.527   5.592 -1.4851  0.0557  0.8917
   98MOL0     H12900   1.828   0.495   5.726 -0.2587 -0.2750  0.2329
   98MOL0     H12901   1.633   0.451   5.594 -0.2943  1.7875  0.4036
   98MOL0     H12902   1.676   0.411   5.160 -2.0955 -0.9963 -2.0346
   98MOL0     H12903   1.636   0.581   5.154  1.0271 -0.6596 -0.4757
   98MOL0     H12904   1.400   0.540   5.152 -1.5948 -0.6240  0.0931
   98MOL0     H12905   1.412   0.382   5.223  0.8772 -0.0865 -0.4527
   98MOL0     H12906   1.379   0.347   4.983  0.6035 -2.0270  0.1649
   98MOL0     H12907   1.531   0.289   5.033 -0.8723 -0.8498 -2.0596
   98MOL0     H12908   1.497   0.573   4.914  3.3642  0.8208 -1.6923
   98MOL0     H12909   1.651   0.488   4.958 -0.0072  0.1472  1.0272
   98MOL0     H12910   1.489   0.357   4.730 -1.4043  2.6166 -0.6652
   98MOL0     H12911   1.651   0.331   4.784 -2.5031 -2.2952 -0.1341
   98MOL0     H12912   1.667   0.598   4.739 -1.5189  1.1702 -0.7412
   98MOL0     H12913   1.532   0.552   4.628  1.3167 -0.6611 -3.5786
   98MOL0     H12914   1.740   0.546   4.502 -0.8169  0.3266 -0.8423
   98MOL0     H12915   1.812   0.446   4.637 -0.6223  0.7489  1.0245
   98MOL0     H12916   1.573   0.335   4.470  0.9058 -0.5750 -1.9229
   98MOL0     H12917   1.685   0.257   4.579  2.5804 -0.4544 -1.5249
   98MOL0     H12918   1.868   0.536   5.237  3.5085 -2.3108  1.0899
   98MOL0     H12919   2.059   0.575   5.355 -0.6296 -0.1307 -0.9599
   98MOL0     H12920   2.198   0.346   5.951  0.1901 -0.9853 -0.1865
   98MOL0     H12921   2.417   0.338   6.047 -0.4572  1.8358 -0.0412
   98MOL0     H12922   4.333   0.928   6.695 -0.2218  0.0976  0.5739
   98MOL0     H12923   4.563   0.850   6.739 -0.5830 -0.0535  0.4432
   98MOL0     H12924   4.856   0.559   6.964  1.1229 -1.9188  0.4173
   98MOL0     H12925   5.111   0.518   6.971 -1.3634 -2.1714  0.7934
   98MOL0     H12926   5.329   0.398   6.924  0.6834 -1.4258 -2.8545
   98MOL0     H12927   5.326   0.574   6.959  0.3753 -1.8591  2.3043
   98MOL0     H12928   5.542   0.410   6.795 -0.9059 -1.5009  1.1633
   98MOL0     H12929   5.502   0.584   6.777  0.4048 -0.2259 -0.3231
   98MOL0     H12930   5.609   0.422   7.013  0.5729 -0.8947 -3.1969
   98MOL0     H12931   5.552   0.593   7.035  1.8830  2.2818 -0.9153
   98MOL0     H12932   5.745   0.533   6.808 -0.7647 -0.4986 -0.9528
   98MOL0     H12933   5.721   0.676   6.900  2.5267  0.5095 -0.6571
   98MOL0     H12934   6.001   0.486   7.155 -1.7818 -1.4093  0.5134
   98MOL0     H12935   5.133   0.533   6.562  0.1047  1.8451  1.3629
   98MOL0     H12936   4.892   0.596   6.540  0.4128  0.4591 -0.1507
   99MOL0     O12937   7.604   5.811   1.205 -0.6317 -0.0141 -0.9358
   99MOL0     C12938   7.644   5.913   1.155 -0.4571 -0.3750 -0.0391
   99MOL0     O12939   7.621   6.038   1.213  0.3490  0.1068 -0.1731
   99MOL0     C12940   7.514   6.053   1.299 -0.7075  0.6735  0.2993
   99MOL0     C12941   7.395   5.976   1.303 -0.0992  0.0964  0.6316
   99MOL0     C12942   7.294   6.011   1.383  0.5136  0.2031  0.4740
   99MOL0     C12943   7.304   6.117   1.469 -0.2798 -1.1790  0.1600
   99MOL0     O12944   7.208   6.167   1.557 -0.7687 -0.0204  0.2603
   99MOL0     C12945   7.094   6.091   1.587 -0.6166 -0.3073 -0.3697
   99MOL0     C12946   6.969   6.172   1.612  0.4428  0.1906 -0.1091
   99MOL0     C12947   6.857   6.087   1.670 -0.2530  0.2282 -0.0265
   99MOL0     C12948   6.739   6.179   1.702 -0.7134 -1.1335 -0.0689
   99MOL0     C12949   6.617   6.109   1.755  0.6617 -0.4050 -0.3864
   99MOL0     C12950   6.510   6.210   1.798 -0.2446  0.2576 -0.8191
   99MOL0     C12951   6.372   6.157   1.798 -0.4283 -0.3152  0.3076
   99MOL0     C12952   6.315   6.139   1.661  0.1569  0.2510 -0.1750
   99MOL0     N12953   6.170   6.098   1.669  0.4157  0.5574  0.2945
   99MOL0     C12954   6.066   6.171   1.709 -0.3838 -0.3457  0.2019
   99MOL0     C12955   5.959   6.092   1.722  0.0295  0.6567  0.2090
   99MOL0     C12956   5.826   6.123   1.782  0.2822  0.1205 -0.2795
   99MOL0     C12957   5.728   6.131   1.673  0.3140  0.2147 -0.2539
   99MOL0     C12958   5.580   6.122   1.717  0.0933 -0.1747  0.1739
   99MOL0     C12959   5.554   6.266   1.772 -0.9799  0.0780  0.9639
   99MOL0     O12960   5.431   6.266   1.846 -0.3024  0.3764 -0.9312
   99MOL0     C12961   5.303   6.262   1.794 -0.7648 -0.7171 -0.2006
   99MOL0     C12962   5.278   6.299   1.660  0.3280  0.1303  0.4540
   99MOL0     C12963   5.147   6.284   1.614 -0.1910 -0.4145 -0.1892
   99MOL0     C12964   5.036   6.245   1.687  0.1743 -0.5262  0.3623
   99MOL0     C12965   4.901   6.235   1.621 -0.8449 -0.5722 -0.5884
   99MOL0     O12966   4.880   6.325   1.519  0.0916 -0.1481 -0.2441
   99MOL0     C12967   4.763   6.320   1.452  1.2382  0.3897  0.9703
   99MOL0     C12968   4.637   6.310   1.519 -0.0388  0.0325  0.3774
   99MOL0     C12969   4.520   6.308   1.444 -0.2568 -0.2572  0.3868
   99MOL0     C12970   4.523   6.322   1.306  0.1583 -0.1521  0.4765
   99MOL0     O12971   4.412   6.325   1.227  0.1483 -0.7077 -0.4968
   99MOL0     C12972   4.286   6.359   1.288 -0.8962  0.8525 -0.0083
   99MOL0     C12973   4.193   6.418   1.185  0.5471  0.4045 -0.9057
   99MOL0     C12974   4.049   6.411   1.242 -1.1542 -0.2804 -0.7546
   99MOL0     C12975   3.948   6.448   1.133 -0.4383 -0.2497 -0.5408
   99MOL0     C12976   3.812   6.479   1.199 -0.4488 -0.0110  0.3795
   99MOL0     C12977   3.718   6.530   1.094  0.2811 -0.7757 -0.6905
   99MOL0     C12978   3.574   6.554   1.138  0.3202  0.4307 -0.3713
   99MOL0     C12979   3.481   6.596   1.028 -0.7831  0.1111  0.5827
   99MOL0    Cl12980   3.480   6.478   0.898 -0.2663 -0.1378 -0.2200
   99MOL0     C12981   4.643   6.335   1.240  0.6566 -0.0572  0.3656
   99MOL0     C12982   4.767   6.331   1.310  0.3659  0.6473  0.1558
   99MOL0     O12983   4.820   6.158   1.670 -0.3611  0.4184  0.4368
   99MOL0     C12984   5.056   6.209   1.822 -1.0881 -0.1668  0.8303
   99MOL0     C12985   5.190   6.229   1.867 -0.4980 -1.1996 -0.1953
   99MOL0     N12986   6.000   5.966   1.673  0.1748 -0.4503  0.5221
   99MOL0     N12987   6.120   5.975   1.642 -0.6508 -0.5551 -0.3968
   99MOL0     C12988   7.418   6.197   1.473 -0.7631  0.4022  0.3060
   99MOL0     C12989   7.521   6.163   1.382  0.3894  0.9443 -0.0508
   99MOL0     C12990   7.721   5.916   1.025 -0.2177 -0.0444 -0.3548
   99MOL0     C12991   7.776   5.790   0.983  0.0899  0.0594 -0.7783
   99MOL0     C12992   7.848   5.779   0.861 -0.3107 -0.4323 -0.2768
   99MOL0     C12993   7.860   5.899   0.780 -0.8206  0.5465 -0.2933
   99MOL0     O12994   7.935   5.884   0.660 -0.4154  0.5684  0.2924
   99MOL0     C12995   7.906   5.977   0.554  0.2908  0.0918 -0.2897
   99MOL0     C12996   7.998   5.966   0.434 -0.0873  0.5539 -0.2739
   99MOL0     C12997   8.126   6.050   0.455 -0.1046 -0.2299 -0.2065
   99MOL0     C12998   8.228   6.044   0.331 -0.4570  0.6061  0.2562
   99MOL0     C12999   8.286   6.171   0.301  0.2344 -0.2110 -0.5945
   99MOL0     C13000   8.329   6.274   0.246 -0.5717 -0.6194  0.5397
   99MOL0     C13001   7.804   6.015   0.824  0.0106  0.3433  0.1718
   99MOL0     C13002   7.731   6.028   0.943 -0.1984 -0.2826  0.4838
   99MOL0     H13003   7.381   5.904   1.223  1.5464 -0.3058  0.6800
   99MOL0     H13004   7.205   5.953   1.361 -0.3137  0.7161  2.2675
   99MOL0     H13005   7.105   6.032   1.678  1.7213  0.0988 -0.3304
   99MOL0     H13006   7.076   6.031   1.497  2.0895  0.0259 -1.2195
   99MOL0     H13007   6.939   6.205   1.512  0.0632  0.4236  0.0797
   99MOL0     H13008   6.988   6.263   1.670  2.4370  0.2340 -0.7436
   99MOL0     H13009   6.883   6.020   1.752 -4.2799  0.3382  1.5203
   99MOL0     H13010   6.817   6.018   1.595  0.9083 -0.0559 -0.4231
   99MOL0     H13011   6.775   6.258   1.769 -0.1694 -0.5665 -1.0136
   99MOL0     H13012   6.706   6.230   1.611  1.4017  0.7275  0.1197
   99MOL0     H13013   6.641   6.040   1.836 -0.3647 -2.0309 -1.4129
   99MOL0     H13014   6.575   6.053   1.671  4.3208 -2.4296 -1.0358
   99MOL0     H13015   6.515   6.296   1.731  2.5024  1.8504  1.1987
   99MOL0     H13016   6.529   6.239   1.901 -0.5937 -1.3070 -0.2842
   99MOL0     H13017   6.353   6.062   1.849 -0.2789 -1.2127 -1.2357
   99MOL0     H13018   6.317   6.238   1.847  0.8502  1.9848 -1.8009
   99MOL0     H13019   6.374   6.065   1.607 -0.0065  0.4993 -0.6985
   99MOL0     H13020   6.330   6.232   1.605  1.8594  0.1967  0.1280
   99MOL0     H13021   6.065   6.271   1.750 -2.4748  0.0360 -0.6209
   99MOL0     H13022   5.828   6.212   1.845 -0.3554 -0.0392 -0.0223
   99MOL0     H13023   5.793   6.042   1.848 -1.5684 -0.1676 -1.4795
   99MOL0     H13024   5.755   6.052   1.602 -0.9465 -2.1587  1.7790
   99MOL0     H13025   5.735   6.226   1.620 -0.9410 -0.0396 -0.9315
   99MOL0     H13026   5.518   6.104   1.629  2.3971 -2.8076 -1.0976
   99MOL0     H13027   5.548   6.042   1.784  0.3434 -0.8812 -0.5339
   99MOL0     H13028   5.547   6.345   1.696 -0.2578 -0.5094  0.2667
   99MOL0     H13029   5.634   6.303   1.837 -0.2256 -1.2048  0.7838
   99MOL0     H13030   5.354   6.323   1.587  1.0415 -1.9684  0.4374
   99MOL0     H13031   5.130   6.320   1.513 -0.0246  1.1428  0.3074
   99MOL0     H13032   4.641   6.301   1.627  1.2663  1.6346  0.4959
   99MOL0     H13033   4.422   6.294   1.487 -1.3637  3.3309 -0.6740
   99MOL0     H13034   4.297   6.422   1.377  0.2799 -1.2308  1.4112
   99MOL0     H13035   4.232   6.268   1.320  0.3414 -1.0511 -2.9254
   99MOL0     H13036   4.195   6.348   1.101 -0.4250  0.2821 -0.8387
   99MOL0     H13037   4.227   6.518   1.155  1.5944  0.2130 -0.3959
   99MOL0     H13038   4.041   6.471   1.333  1.4296  2.7877 -2.3756
   99MOL0     H13039   4.019   6.313   1.280 -0.7553  0.6369  2.1613
   99MOL0     H13040   3.984   6.539   1.084  1.0500 -0.6403 -0.2172
   99MOL0     H13041   3.944   6.369   1.058  2.4013  0.0734 -1.1351
   99MOL0     H13042   3.832   6.540   1.288 -1.2621 -0.5689  0.9611
   99MOL0     H13043   3.771   6.384   1.235 -0.6768  0.1658  0.5861
   99MOL0     H13044   3.716   6.450   1.019 -0.2209  1.1179 -2.8464
   99MOL0     H13045   3.762   6.618   1.045  2.5441 -1.8415 -0.6816
   99MOL0     H13046   3.524   6.471   1.188 -2.5768  2.6178  0.6679
   99MOL0     H13047   3.576   6.631   1.216 -1.7592 -1.7330  2.0168
   99MOL0     H13048   3.526   6.689   0.992 -1.5863  1.5784  3.1591
   99MOL0     H13049   3.384   6.630   1.064 -0.8081  0.5656  0.1015
   99MOL0     H13050   4.643   6.358   1.134 -1.1904  0.6136  0.4736
   99MOL0     H13051   4.861   6.337   1.254  0.7705 -3.4629  0.0875
   99MOL0     H13052   4.972   6.174   1.880 -1.1779 -1.8568 -0.2257
   99MOL0     H13053   5.204   6.212   1.973  1.0114 -2.0812 -0.5099
   99MOL0     H13054   7.434   6.288   1.530 -2.0815 -0.2386  1.7806
   99MOL0     H13055   7.607   6.229   1.385  1.1113  0.0256  3.0025
   99MOL0     H13056   7.753   5.700   1.039 -1.8908  0.3030 -1.1226
   99MOL0     H13057   7.909   5.692   0.840  2.7808  1.2685  0.9661
   99MOL0     H13058   7.914   6.082   0.585  2.1507  0.4668 -1.8790
   99MOL0     H13059   7.803   5.966   0.518 -1.5233  0.8349  3.9522
   99MOL0     H13060   8.032   5.862   0.427 -2.7697 -0.6965  2.8285
   99MOL0     H13061   7.941   5.987   0.343 -0.2540  2.5984  0.2522
   99MOL0     H13062   8.188   6.016   0.539  1.8091 -1.2537 -1.9365
   99MOL0     H13063   8.101   6.155   0.469  2.2570  0.2924  0.6502
   99MOL0     H13064   8.310   5.974   0.353  0.4841  0.7287 -2.4085
   99MOL0     H13065   8.181   5.997   0.244  2.4479 -2.1888 -0.0189
   99MOL0     H13066   8.358   6.368   0.203  2.1196 -1.2844  0.7081
   99MOL0     H13067   7.826   6.101   0.762  0.4594  0.1682  0.0848
   99MOL0     H13068   7.687   6.124   0.966 -1.9765 -0.9163 -0.0289
  100MOL0     O13069   6.716   0.473   6.511 -0.0558 -0.4435 -0.2818
  100MOL0     C13070   6.803   0.489   6.431 -0.5785 -0.3159 -0.2435
  100MOL0     O13071   6.779   0.494   6.296 -0.4674  0.4782  0.2054
  100MOL0     C13072   6.648   0.503   6.254 -0.4966  1.2547  0.2583
  100MOL0     C13073   6.562   0.615   6.286  0.7633  0.3472 -0.5353
  100MOL0     C13074   6.428   0.612   6.250 -0.5079  0.2010  0.3211
  100MOL0     C13075   6.381   0.509   6.170 -0.0985  0.3820 -0.2912
  100MOL0     O13076   6.263   0.512   6.101 -0.9302  0.3202 -0.6037
  100MOL0     C13077   6.160   0.568   6.177  0.1381  0.5703 -0.2351
  100MOL0     C13078   6.032   0.548   6.097  0.2876 -0.1333 -0.3885
  100MOL0     C13079   5.901   0.599   6.163  0.4879  0.5150  0.7551
  100MOL0     C13080   5.783   0.580   6.061 -0.3613  0.3406 -0.4796
  100MOL0     C13081   5.652   0.614   6.134  0.0740 -0.0281  0.2480
  100MOL0     C13082   5.548   0.579   6.030  0.4754 -0.3464 -0.7888
  100MOL0     C13083   5.413   0.606   6.080  0.1596 -0.7793  0.4546
  100MOL0     C13084   5.323   0.628   5.965  0.3471  0.3231  0.0282
  100MOL0     N13085   5.186   0.632   6.022 -0.0457  0.0472  0.2558
  100MOL0     C13086   5.123   0.532   6.099 -0.4816  0.1790  0.6268
  100MOL0     C13087   5.014   0.591   6.141 -0.4841  0.3528 -0.2746
  100MOL0     C13088   4.911   0.509   6.222 -1.4572 -0.0415  0.9386
  100MOL0     C13089   4.772   0.560   6.212  0.1025 -0.3704  0.2916
  100MOL0     C13090   4.721   0.575   6.076  0.1602 -0.4677  0.1080
  100MOL0     C13091   4.579   0.609   6.074  0.3789  0.2365  0.1073
  100MOL0     O13092   4.526   0.581   5.942  0.5638  0.0691 -0.0248
  100MOL0     C13093   4.395   0.541   5.923 -1.4606 -0.7848  0.4284
  100MOL0     C13094   4.367   0.499   5.792 -0.0199 -0.0885  0.0660
  100MOL0     C13095   4.235   0.464   5.759  0.0245  0.9629 -0.2425
  100MOL0     C13096   4.129   0.461   5.851 -0.3847 -0.7225  0.4491
  100MOL0     C13097   3.990   0.414   5.825 -0.6118 -0.9029  0.6237
  100MOL0     O13098   3.959   0.404   5.689  0.1063  0.3572  0.3976
  100MOL0     C13099   3.846   0.340   5.661  0.0515 -0.5737  0.1060
  100MOL0     C13100   3.855   0.219   5.593  0.4223 -1.3478 -0.4797
  100MOL0     C13101   3.740   0.156   5.545  0.6290  0.2087  0.2915
  100MOL0     C13102   3.613   0.215   5.559 -0.3744  1.6670  0.1314
  100MOL0     O13103   3.497   0.160   5.511  0.3859 -0.4855 -0.2458
  100MOL0     C13104   3.493   0.057   5.406  0.8589 -0.1153  0.3645
  100MOL0     C13105   3.357   0.041   5.345 -0.3136 -0.2226  0.7561
  100MOL0     C13106   3.256  -0.035   5.424  0.1527  0.6916  0.0914
  100MOL0     C13107   3.135  -0.041   5.343  0.1631  0.8280 -0.5325
  100MOL0     C13108   3.039  -0.149   5.391 -0.4704  0.2313 -0.1800
  100MOL0     C13109   2.914  -0.145   5.311 -0.1576 -0.1102  0.1547
  100MOL0     C13110   2.808  -0.238   5.380 -0.4758 -1.0697  0.4953
  100MOL0     C13111   2.684  -0.248   5.312  0.0480 -0.8628  0.4016
  100MOL0    Cl13112   2.583  -0.378   5.385 -0.2878  0.2490 -0.0613
  100MOL0     C13113   3.604   0.334   5.630  0.1203 -0.4111  0.5103
  100MOL0     C13114   3.720   0.394   5.691  0.6783  0.2405 -1.0311
  100MOL0     O13115   3.913   0.385   5.922 -0.0144 -0.5538 -0.5009
  100MOL0     C13116   4.165   0.499   5.984 -0.0120 -0.2897  0.1241
  100MOL0     C13117   4.293   0.534   6.024  0.7785 -0.3315  0.6986
  100MOL0     N13118   5.018   0.720   6.092  0.0659 -0.9014  0.1549
  100MOL0     N13119   5.115   0.741   6.018  0.3846  0.3566 -0.1738
  100MOL0     C13120   6.465   0.396   6.142 -0.2156 -0.1934 -0.0667
  100MOL0     C13121   6.596   0.398   6.182  0.1611 -0.9735  0.8551
  100MOL0     C13122   6.934   0.514   6.478 -0.0745  0.1152  1.1652
  100MOL0     C13123   6.963   0.556   6.606 -0.1172  0.9436 -0.6931
  100MOL0     C13124   7.086   0.581   6.650  0.3422  0.1447 -0.3731
  100MOL0     C13125   7.192   0.557   6.561  0.1084  0.2055  0.8577
  100MOL0     O13126   7.327   0.562   6.598  0.6170  0.0205  0.0355
  100MOL0     C13127   7.368   0.631   6.715  0.4571  0.0294  0.1850
  100MOL0     C13128   7.501   0.708   6.680  0.3696  0.1430 -0.8248
  100MOL0     C13129   7.493   0.811   6.572 -0.2605 -0.1031 -0.5318
  100MOL0     C13130   7.625   0.898   6.568 -0.5320 -0.8734  0.9188
  100MOL0     C13131   7.621   0.968   6.442 -0.5700 -0.0749  0.2779
  100MOL0     C13132   7.605   1.014   6.329 -0.2205  0.0245 -0.7761
  100MOL0     C13133   7.175   0.515   6.427  0.3514  0.0157 -0.2475
  100MOL0     C13134   7.040   0.490   6.388  0.1341 -0.0599  0.8579
  100MOL0     H13135   6.596   0.703   6.339 -1.8046  0.0579  1.8523
  100MOL0     H13136   6.357   0.689   6.279 -0.6636  0.1710  0.0232
  100MOL0     H13137   6.171   0.675   6.198 -0.7170  1.1514 -2.4363
  100MOL0     H13138   6.145   0.511   6.269  0.6904 -0.7715 -0.9533
  100MOL0     H13139   6.014   0.441   6.080 -0.8354 -0.3112  1.5924
  100MOL0     H13140   6.040   0.606   6.005 -1.1938 -0.4944 -0.7843
  100MOL0     H13141   5.904   0.706   6.188 -0.8052  0.8734 -0.4814
  100MOL0     H13142   5.887   0.533   6.249  0.1026  1.6668  1.6064
  100MOL0     H13143   5.806   0.647   5.978  3.9247 -0.3653 -0.0780
  100MOL0     H13144   5.770   0.475   6.033 -3.2401  0.7670 -1.0070
  100MOL0     H13145   5.640   0.721   6.158  0.9653  0.4597 -1.3330
  100MOL0     H13146   5.644   0.551   6.222 -1.7865  0.3131  0.3806
  100MOL0     H13147   5.552   0.470   6.016  0.1599 -0.5987  0.8739
  100MOL0     H13148   5.580   0.627   5.937  0.0526  2.3777  0.4043
  100MOL0     H13149   5.385   0.521   6.144  0.7274  0.7914  2.9431
  100MOL0     H13150   5.432   0.697   6.138  0.4663  0.0664 -0.9229
  100MOL0     H13151   5.329   0.548   5.891  1.2267  1.9340 -1.7344
  100MOL0     H13152   5.348   0.723   5.917 -2.1187  1.4058  0.7162
  100MOL0     H13153   5.156   0.430   6.117 -0.0900 -0.1306 -1.5346
  100MOL0     H13154   4.940   0.506   6.327  0.1997 -4.7480  0.5765
  100MOL0     H13155   4.916   0.409   6.179  1.0771  0.1798  0.5860
  100MOL0     H13156   4.764   0.656   6.263 -0.8561 -0.6085  0.5989
  100MOL0     H13157   4.710   0.491   6.270 -2.0721  0.5585 -0.8246
  100MOL0     H13158   4.779   0.651   6.024  1.2064 -1.5787 -0.3945
  100MOL0     H13159   4.729   0.475   6.032 -0.3200  0.7466 -2.9982
  100MOL0     H13160   4.555   0.707   6.117 -0.5579 -1.4300  3.7953
  100MOL0     H13161   4.522   0.549   6.145  1.0342  0.6598  1.0248
  100MOL0     H13162   4.438   0.490   5.711 -0.4238 -0.2390 -0.2705
  100MOL0     H13163   4.213   0.434   5.658  1.1736 -1.0806  0.0497
  100MOL0     H13164   3.955   0.186   5.567  1.3302  0.1590  0.9133
  100MOL0     H13165   3.754   0.053   5.512  1.2192 -1.5464  5.1975
  100MOL0     H13166   3.525  -0.037   5.451 -1.2081 -2.4687 -2.6385
  100MOL0     H13167   3.561   0.086   5.326  0.4783 -0.8718 -0.2517
  100MOL0     H13168   3.370  -0.024   5.258 -3.0722  2.2867 -1.7840
  100MOL0     H13169   3.319   0.138   5.313 -1.1389 -0.5588  0.6791
  100MOL0     H13170   3.229   0.027   5.511 -2.3231  0.6706 -0.5923
  100MOL0     H13171   3.276  -0.141   5.442 -4.9262 -0.1333  2.8510
  100MOL0     H13172   3.091   0.059   5.347 -1.5058  0.2313 -2.1664
  100MOL0     H13173   3.153  -0.074   5.240 -0.1176 -1.4593  0.0815
  100MOL0     H13174   3.018  -0.132   5.497 -0.0255  2.2424 -0.3866
  100MOL0     H13175   3.088  -0.247   5.387 -0.0376  0.3660  1.3419
  100MOL0     H13176   2.930  -0.183   5.210  1.0171 -0.0054  0.2926
  100MOL0     H13177   2.874  -0.044   5.297 -1.5812  0.4031  5.5847
  100MOL0     H13178   2.847  -0.340   5.386 -1.0977 -1.6436 -3.1931
  100MOL0     H13179   2.803  -0.196   5.481 -1.6786  1.8471 -0.6573
  100MOL0     H13180   2.692  -0.270   5.206  1.7944 -0.6493  0.4612
  100MOL0     H13181   2.633  -0.151   5.315 -3.2254 -2.4269  0.2330
  100MOL0     H13182   3.505   0.370   5.656 -0.0350 -0.5797  0.1543
  100MOL0     H13183   3.723   0.488   5.745  1.7034 -0.1449 -0.3746
  100MOL0     H13184   4.085   0.499   6.057  0.8976 -0.4269  1.1526
  100MOL0     H13185   4.316   0.575   6.121  2.2724  0.3270  0.1054
  100MOL0     H13186   6.444   0.311   6.078  1.7015  0.0709 -1.1434
  100MOL0     H13187   6.664   0.318   6.152 -0.5315 -1.4291  0.4687
  100MOL0     H13188   6.887   0.586   6.678  0.4929 -0.8308  0.7789
  100MOL0     H13189   7.102   0.602   6.755 -1.3528  1.1302 -0.2754
  100MOL0     H13190   7.389   0.555   6.792 -0.8796 -1.4325 -0.8295
  100MOL0     H13191   7.299   0.706   6.755 -3.0815 -1.3312 -2.8452
  100MOL0     H13192   7.527   0.760   6.772  0.6677 -0.9500 -0.2796
  100MOL0     H13193   7.574   0.633   6.651  1.0960 -1.4722  4.2149
  100MOL0     H13194   7.398   0.864   6.583  0.8325  1.9793 -0.5672
  100MOL0     H13195   7.494   0.758   6.477  1.9781 -1.1327  0.0008
  100MOL0     H13196   7.620   0.974   6.647 -0.7736  1.9489 -1.6376
  100MOL0     H13197   7.716   0.839   6.580 -0.9691 -1.5960  0.7578
  100MOL0     H13198   7.571   1.029   6.228  0.7059 -0.2699 -1.1382
  100MOL0     H13199   7.255   0.474   6.367 -1.1117 -5.2244  0.8644
  100MOL0     H13200   7.021   0.448   6.290  0.3617  1.3224  0.1944
  101MOL0     O13201   5.481   0.549   9.836 -0.1791 -0.5194 -0.3170
  101MOL0     C13202   5.592   0.526   9.784 -0.4800  0.4000 -0.4577
  101MOL0     O13203   5.609   0.468   9.660 -0.6017 -0.3107  0.9089
  101MOL0     C13204   5.503   0.430   9.578 -0.2001  0.4356 -0.5916
  101MOL0     C13205   5.381   0.491   9.575 -0.2095  0.1269  0.3062
  101MOL0     C13206   5.290   0.460   9.476 -0.7861 -0.2842 -0.9518
  101MOL0     C13207   5.303   0.348   9.390  0.2320 -0.0078  0.0820
  101MOL0     O13208   5.210   0.300   9.299 -0.1782 -0.2078 -0.3771
  101MOL0     C13209   5.078   0.267   9.346  0.9704 -0.0802  0.5505
  101MOL0     C13210   4.990   0.219   9.230  0.2882 -0.2518  0.9849
  101MOL0     C13211   4.840   0.257   9.243 -0.7305  0.7614  0.1069
  101MOL0     C13212   4.764   0.211   9.121 -0.2305 -1.1342  0.8613
  101MOL0     C13213   4.632   0.280   9.109  0.2644  0.1327 -1.1419
  101MOL0     C13214   4.546   0.239   9.227  0.9950 -0.1686  0.0255
  101MOL0     C13215   4.398   0.278   9.208 -0.2436 -0.2227 -0.4992
  101MOL0     C13216   4.322   0.250   9.336  0.7452  0.0645 -0.0766
  101MOL0     N13217   4.178   0.212   9.313 -0.2996  0.3436  0.5449
  101MOL0     C13218   4.139   0.097   9.247  0.0431  0.4441  0.0060
  101MOL0     C13219   4.006   0.073   9.277  0.0348  0.1882 -0.1312
  101MOL0     C13220   3.908  -0.035   9.224  0.5836  0.1118 -0.1765
  101MOL0     C13221   3.802  -0.059   9.337 -0.4384 -0.1563  0.0865
  101MOL0     C13222   3.717  -0.182   9.288 -1.2031 -0.1833 -0.5560
  101MOL0     C13223   3.599  -0.192   9.394 -0.0360  0.7858  0.1896
  101MOL0     O13224   3.538  -0.314   9.369  0.5312  0.0415  0.6750
  101MOL0     C13225   3.410  -0.305   9.328 -0.3156  0.7598 -0.0756
  101MOL0     C13226   3.310  -0.369   9.396  0.1798 -0.4278 -0.1098
  101MOL0     C13227   3.177  -0.368   9.348 -0.6894 -0.1810  0.2365
  101MOL0     C13228   3.138  -0.289   9.234  0.1435 -0.2756 -0.1841
  101MOL0     C13229   3.002  -0.282   9.184  0.2391  0.5205 -0.5453
  101MOL0     O13230   2.908  -0.364   9.231  0.3758 -0.1596  0.1140
  101MOL0     C13231   2.776  -0.351   9.202 -0.2939  0.4769 -0.3933
  101MOL0     C13232   2.712  -0.230   9.179  0.3701 -0.0560  0.4812
  101MOL0     C13233   2.575  -0.224   9.175  0.2037  0.0548 -0.5251
  101MOL0     C13234   2.494  -0.337   9.170  0.3351  0.8706  0.3380
  101MOL0     O13235   2.357  -0.329   9.167 -0.3105 -0.6681 -0.0356
  101MOL0     C13236   2.283  -0.204   9.157  0.1608 -0.0177  0.2149
  101MOL0     C13237   2.249  -0.148   9.297 -0.1369 -0.7983 -0.3577
  101MOL0     C13238   2.166  -0.010   9.296  0.3121  1.0603  0.2121
  101MOL0     C13239   2.014  -0.024   9.316  0.8609 -0.2877  0.7721
  101MOL0     C13240   1.957   0.116   9.300 -0.9426  0.4315 -0.5357
  101MOL0     C13241   1.804   0.103   9.277  0.3617 -0.3652  0.6974
  101MOL0     C13242   1.750   0.247   9.313  0.0478 -0.2376  0.6228
  101MOL0     C13243   1.603   0.257   9.261 -0.7499 -0.1263 -0.0543
  101MOL0    Cl13244   1.525   0.414   9.271 -0.1005 -0.1540 -0.4100
  101MOL0     C13245   2.558  -0.460   9.204  0.1335 -0.2461  0.0044
  101MOL0     C13246   2.694  -0.463   9.231  0.1940 -0.0319 -0.2775
  101MOL0     O13247   2.984  -0.202   9.090  0.1646 -0.2268 -0.0866
  101MOL0     C13248   3.240  -0.211   9.176 -0.5937  0.6431  0.2098
  101MOL0     C13249   3.376  -0.225   9.220 -0.6157 -0.6599 -0.2796
  101MOL0     N13250   3.966   0.180   9.358  0.1516 -0.3949  0.5706
  101MOL0     N13251   4.074   0.241   9.395 -0.2032 -0.7623 -0.2361
  101MOL0     C13252   5.424   0.275   9.405  0.0059  0.2081 -0.5367
  101MOL0     C13253   5.521   0.316   9.499 -0.1549  0.1070  0.6506
  101MOL0     C13254   5.712   0.545   9.868 -0.1755 -0.2182  0.3613
  101MOL0     C13255   5.716   0.622   9.986  0.7450 -0.3547  0.7146
  101MOL0     C13256   5.829   0.639  10.067  1.0799  0.6401 -0.1620
  101MOL0     C13257   5.943   0.576  10.023 -0.3693  0.3514  0.1625
  101MOL0     O13258   6.058   0.583  10.096  0.0792  1.4115  0.3468
  101MOL0     C13259   6.070   0.636  10.226  0.9544 -0.5739  0.1533
  101MOL0     C13260   6.221   0.605  10.270 -0.1182  1.6093 -0.5217
  101MOL0     C13261   6.332   0.643  10.174  0.0489 -1.1220  0.3193
  101MOL0     C13262   6.327   0.789  10.141 -0.1420  0.6013  0.4786
  101MOL0     C13263   6.447   0.833  10.071  0.5742  0.2072 -0.2035
  101MOL0     C13264   6.542   0.885  10.015  0.5617 -0.5425  0.2209
  101MOL0     C13265   5.947   0.510   9.902 -0.4827  0.4569  0.3672
  101MOL0     C13266   5.831   0.486   9.822 -0.0942  0.0707 -0.5506
  101MOL0     H13267   5.363   0.586   9.625 -1.6561  0.8144 -1.3944
  101MOL0     H13268   5.207   0.530   9.488 -0.7706 -0.5552  1.0121
  101MOL0     H13269   5.022   0.353   9.384  0.9285  1.4449 -2.6123
  101MOL0     H13270   5.082   0.193   9.427  0.9349 -0.2508  0.3972
  101MOL0     H13271   4.991   0.110   9.237 -1.6851 -0.1943  3.4611
  101MOL0     H13272   5.038   0.249   9.136 -1.3790 -0.7765 -0.0868
  101MOL0     H13273   4.845   0.365   9.260 -0.9958  0.7097  0.5335
  101MOL0     H13274   4.797   0.210   9.332 -0.2735 -0.5033 -0.3243
  101MOL0     H13275   4.803   0.238   9.022 -0.7393  0.9937  1.1877
  101MOL0     H13276   4.749   0.103   9.116 -3.1160 -0.7751 -3.0266
  101MOL0     H13277   4.585   0.248   9.015  2.4034 -0.0070 -2.2241
  101MOL0     H13278   4.638   0.389   9.109  0.8533  0.1150 -0.1787
  101MOL0     H13279   4.583   0.288   9.317  2.1301 -0.2630 -0.3751
  101MOL0     H13280   4.550   0.131   9.244 -1.3630 -0.1239  1.2837
  101MOL0     H13281   4.395   0.383   9.178  0.1454 -0.6482 -2.1449
  101MOL0     H13282   4.359   0.232   9.117 -1.1703 -1.1572  0.3389
  101MOL0     H13283   4.338   0.328   9.411 -0.9749 -0.7620  1.2182
  101MOL0     H13284   4.363   0.156   9.375 -4.2074 -2.4381 -0.0932
  101MOL0     H13285   4.200   0.030   9.188  1.4812  0.2072  1.6881
  101MOL0     H13286   3.965  -0.126   9.204  0.9966  0.1749  0.6600
  101MOL0     H13287   3.857   0.004   9.135  0.7683  0.1564 -0.2628
  101MOL0     H13288   3.751   0.038   9.341  1.2082  0.8143 -0.9792
  101MOL0     H13289   3.851  -0.076   9.433  1.7551 -2.1153 -1.2699
  101MOL0     H13290   3.675  -0.172   9.187 -1.6053 -1.7484 -0.5570
  101MOL0     H13291   3.771  -0.276   9.298 -0.0826  0.4572 -0.3822
  101MOL0     H13292   3.536  -0.104   9.380  1.8842  2.6625  2.2946
  101MOL0     H13293   3.632  -0.199   9.499 -0.6073  2.3083  0.4957
  101MOL0     H13294   3.331  -0.433   9.481  0.9943 -1.0569 -0.7640
  101MOL0     H13295   3.103  -0.430   9.399  0.9270 -2.6719 -0.2730
  101MOL0     H13296   2.774  -0.140   9.176 -1.0366  1.0267  2.0793
  101MOL0     H13297   2.525  -0.128   9.160  0.3437  0.5836  2.0332
  101MOL0     H13298   2.199  -0.221   9.089  1.1668  1.0929 -1.3780
  101MOL0     H13299   2.328  -0.125   9.097 -1.1373 -0.7374 -1.8050
  101MOL0     H13300   2.335  -0.132   9.363  0.5468  1.0637 -1.5839
  101MOL0     H13301   2.185  -0.223   9.343 -0.9362 -0.6579 -1.2138
  101MOL0     H13302   2.191   0.037   9.200  2.9221 -2.8561 -1.2632
  101MOL0     H13303   2.199   0.057   9.377  0.3768  0.4381  0.7125
  101MOL0     H13304   1.968  -0.101   9.253 -1.5743 -0.4999  2.6750
  101MOL0     H13305   1.981  -0.045   9.418 -0.6873  2.0836  0.8404
  101MOL0     H13306   1.993   0.172   9.213 -0.1459  1.0575  0.1733
  101MOL0     H13307   1.965   0.179   9.389 -3.2491 -1.6616  1.2785
  101MOL0     H13308   1.745   0.026   9.328  1.4760 -3.3987 -2.2782
  101MOL0     H13309   1.788   0.076   9.173  0.7649 -0.0930  0.5642
  101MOL0     H13310   1.749   0.248   9.422  2.6662  0.8073  0.7115
  101MOL0     H13311   1.820   0.323   9.275  1.7767 -1.3838  1.4148
  101MOL0     H13312   1.542   0.197   9.329 -0.0270  1.5631  2.1922
  101MOL0     H13313   1.595   0.219   9.159  0.5775  1.2193 -0.6841
  101MOL0     H13314   2.501  -0.552   9.211 -1.3092  0.5772 -0.5185
  101MOL0     H13315   2.748  -0.553   9.256  0.3263  0.1026 -0.0761
  101MOL0     H13316   3.228  -0.140   9.094  3.4384  0.4048 -0.8088
  101MOL0     H13317   3.446  -0.154   9.177 -1.2424  1.6811  2.2948
  101MOL0     H13318   5.453   0.192   9.342  0.5542 -1.7341  2.1122
  101MOL0     H13319   5.615   0.264   9.514  0.3823  1.3253  1.6242
  101MOL0     H13320   5.629   0.681  10.014  0.0492  0.3223 -2.5407
  101MOL0     H13321   5.834   0.713  10.146 -1.0797 -0.3432  0.9784
  101MOL0     H13322   6.002   0.591  10.298  0.4802 -0.0931  0.0143
  101MOL0     H13323   6.062   0.744  10.212  1.7472 -0.6524 -1.1570
  101MOL0     H13324   6.238   0.653  10.367 -0.6166  0.3146  0.2390
  101MOL0     H13325   6.239   0.501  10.301 -0.8294  1.7466  0.3912
  101MOL0     H13326   6.314   0.588  10.081 -1.9724 -1.1909  0.6930
  101MOL0     H13327   6.424   0.607  10.220  0.7262  0.7626  0.5029
  101MOL0     H13328   6.245   0.810  10.071 -0.0799  0.0004  0.2209
  101MOL0     H13329   6.306   0.850  10.229 -0.7626  2.3393 -0.8193
  101MOL0     H13330   6.624   0.931   9.964 -0.3889  0.5872 -0.3238
  101MOL0     H13331   6.032   0.454   9.864 -1.0859 -0.4199  0.2641
  101MOL0     H13332   5.837   0.422   9.735  1.9276  0.0099 -0.4132
  102MOL0     O13333   4.351   4.988   0.280 -0.1758 -0.1250  0.4089
  102MOL0     C13334   4.450   4.994   0.352 -0.8161 -0.1135  0.4758
  102MOL0     O13335   4.463   4.927   0.473 -0.0212  0.1513 -0.4745
  102MOL0     C13336   4.353   4.868   0.537 -0.0733 -0.2221  0.3715
  102MOL0     C13337   4.230   4.928   0.560 -0.3779  0.5753 -0.1560
  102MOL0     C13338   4.136   4.869   0.649 -0.0813 -0.0123  0.1395
  102MOL0     C13339   4.172   4.752   0.723  0.7514 -0.9683 -0.8655
  102MOL0     O13340   4.081   4.711   0.814  0.3798 -0.0400  0.0119
  102MOL0     C13341   4.134   4.660   0.938  0.0473  0.4360  0.4040
  102MOL0     C13342   4.104   4.512   0.949 -0.6770 -0.4809 -0.8124
  102MOL0     C13343   3.979   4.497   1.049 -0.7705  0.3061  0.6332
  102MOL0     C13344   3.843   4.567   1.001 -0.1126 -0.1608  0.1108
  102MOL0     C13345   3.730   4.548   1.100  0.4411 -0.0834  0.0089
  102MOL0     C13346   3.594   4.602   1.045 -0.3932  0.9106  1.0821
  102MOL0     C13347   3.482   4.581   1.145 -0.3147 -0.2476 -0.3809
  102MOL0     C13348   3.353   4.630   1.087  0.5299 -0.6340  0.2941
  102MOL0     N13349   3.258   4.668   1.194 -0.5293  0.0544  0.3127
  102MOL0     C13350   3.163   4.770   1.175  0.2662  0.2365  0.1099
  102MOL0     C13351   3.099   4.781   1.290 -0.3058  0.0234  0.3245
  102MOL0     C13352   2.980   4.873   1.308  0.0546  0.5678 -0.1541
  102MOL0     C13353   2.858   4.814   1.242  0.6293  0.1679 -0.9582
  102MOL0     C13354   2.800   4.693   1.334 -0.2374 -0.4035 -0.6743
  102MOL0     C13355   2.644   4.686   1.319 -0.3234  0.6382  0.6468
  102MOL0     O13356   2.582   4.687   1.452  1.0237 -0.0917 -0.1022
  102MOL0     C13357   2.446   4.705   1.454  0.3678  0.2165  0.0042
  102MOL0     C13358   2.360   4.696   1.342  0.6060 -0.5674 -0.0617
  102MOL0     C13359   2.219   4.727   1.375  0.5404 -0.9343  0.2683
  102MOL0     C13360   2.170   4.773   1.502  0.1742 -0.8215 -0.1389
  102MOL0     C13361   2.033   4.792   1.529  0.3830 -0.0948 -0.3779
  102MOL0     O13362   1.969   4.857   1.433 -0.0230  0.2287 -0.0981
  102MOL0     C13363   1.832   4.842   1.418 -0.5223  0.3680 -0.5186
  102MOL0     C13364   1.780   4.710   1.413 -0.4553 -0.1538  1.0199
  102MOL0     C13365   1.646   4.704   1.372 -0.5161  0.3903 -0.2186
  102MOL0     C13366   1.561   4.807   1.360 -0.3344  0.0341 -0.0171
  102MOL0     O13367   1.440   4.790   1.304 -0.1886  0.3987 -0.0577
  102MOL0     C13368   1.337   4.871   1.357 -0.3266 -0.4598 -0.2414
  102MOL0     C13369   1.208   4.831   1.285  0.6879  0.1488 -0.6048
  102MOL0     C13370   1.087   4.890   1.355 -0.4789  0.1716  0.5190
  102MOL0     C13371   0.955   4.847   1.274 -0.4261 -0.2223 -0.4671
  102MOL0     C13372   0.835   4.912   1.333  0.0928  0.0199 -0.1569
  102MOL0     C13373   0.706   4.858   1.283  0.0754  0.1955 -0.0878
  102MOL0     C13374   0.596   4.889   1.382 -1.1306 -0.3632 -0.2114
  102MOL0     C13375   0.459   4.865   1.315  0.1987  0.6599  0.1751
  102MOL0    Cl13376   0.319   4.917   1.420  0.7669 -0.0115  0.1510
  102MOL0     C13377   1.614   4.932   1.383  0.2705  0.5574  0.9595
  102MOL0     C13378   1.751   4.954   1.403 -0.3437  0.5744  0.2557
  102MOL0     O13379   1.985   4.737   1.630 -0.4395  0.4049 -0.1854
  102MOL0     C13380   2.266   4.777   1.599 -0.1279 -0.4598 -0.5047
  102MOL0     C13381   2.400   4.754   1.576  0.1636  0.0232  0.5805
  102MOL0     N13382   3.156   4.685   1.377  0.6014  0.0143 -0.1181
  102MOL0     N13383   3.252   4.618   1.318  0.4966  0.8089 -0.0910
  102MOL0     C13384   4.284   4.678   0.689  0.0314 -0.0151  0.2769
  102MOL0     C13385   4.376   4.745   0.602  0.7464 -0.6040  0.1997
  102MOL0     C13386   4.565   5.078   0.300 -0.5676  0.2974  0.6086
  102MOL0     C13387   4.686   5.082   0.367 -0.1108 -0.4248  0.0816
  102MOL0     C13388   4.794   5.136   0.317 -0.7530 -0.0747 -0.0011
  102MOL0     C13389   4.788   5.211   0.199  0.4794 -0.3674 -0.5282
  102MOL0     O13390   4.889   5.281   0.132  0.1788  0.8405  0.5175
  102MOL0     C13391   5.014   5.293   0.201 -0.1556 -0.5723 -0.6870
  102MOL0     C13392   5.118   5.374   0.129  0.3171  0.6782  0.2856
  102MOL0     C13393   5.155   5.311  -0.001  0.1497 -1.1711 -0.0826
  102MOL0     C13394   5.238   5.395  -0.090 -0.2161  0.6772  0.0753
  102MOL0     C13395   5.350   5.474  -0.028 -0.3532 -0.0354  0.1963
  102MOL0     C13396   5.448   5.533   0.006  0.7124 -0.5711 -0.4357
  102MOL0     C13397   4.662   5.215   0.140  0.1618 -0.5520  0.3343
  102MOL0     C13398   4.550   5.145   0.178 -0.1450 -0.4233 -0.0337
  102MOL0     H13399   4.214   5.026   0.516 -1.3532 -0.5378 -2.4239
  102MOL0     H13400   4.041   4.919   0.665 -1.1592 -1.3647 -1.5984
  102MOL0     H13401   4.091   4.719   1.019 -2.8768  1.4174 -1.6479
  102MOL0     H13402   4.243   4.660   0.944  0.0354 -0.9559  0.9829
  102MOL0     H13403   4.182   4.451   0.995 -2.3755 -3.8158 -2.0293
  102MOL0     H13404   4.078   4.462   0.855 -1.4172 -0.5340 -0.5828
  102MOL0     H13405   4.021   4.542   1.140  1.2652 -0.5423  0.1697
  102MOL0     H13406   3.947   4.395   1.071  1.8831 -1.1057 -1.4988
  102MOL0     H13407   3.856   4.670   0.965  0.3626 -1.1647 -2.8236
  102MOL0     H13408   3.822   4.506   0.913  1.5637 -0.9235  0.2008
  102MOL0     H13409   3.740   4.621   1.182 -2.1468 -0.9413  1.1876
  102MOL0     H13410   3.732   4.450   1.150 -0.5356  0.0052  0.2512
  102MOL0     H13411   3.556   4.539   0.964  1.3743  1.2741 -0.1045
  102MOL0     H13412   3.611   4.705   1.013  0.0612 -0.1568 -2.5859
  102MOL0     H13413   3.482   4.473   1.161 -0.1224 -0.1346  0.4137
  102MOL0     H13414   3.507   4.637   1.235 -2.7338 -1.0482  0.8815
  102MOL0     H13415   3.305   4.552   1.027  1.0489  1.2454 -2.7282
  102MOL0     H13416   3.367   4.714   1.019  0.5790 -2.2391 -1.7787
  102MOL0     H13417   3.132   4.826   1.087  0.6381  0.7454  0.2950
  102MOL0     H13418   3.001   4.968   1.259  1.0924  0.9250  0.9287
  102MOL0     H13419   2.960   4.895   1.413 -0.1936 -0.3561  0.0085
  102MOL0     H13420   2.868   4.789   1.136 -1.6176  2.7399 -1.8823
  102MOL0     H13421   2.780   4.890   1.239 -0.6086 -0.9532  0.8614
  102MOL0     H13422   2.844   4.603   1.291 -1.8301 -2.8928  2.4865
  102MOL0     H13423   2.839   4.704   1.436  2.3062 -0.5803 -1.5471
  102MOL0     H13424   2.618   4.597   1.260  1.0722  2.6391 -3.3554
  102MOL0     H13425   2.601   4.770   1.263 -3.6899  0.0723  2.1084
  102MOL0     H13426   2.373   4.666   1.238  1.7497  0.6590 -0.3051
  102MOL0     H13427   2.147   4.723   1.293  2.7163 -2.4448 -1.7258
  102MOL0     H13428   1.824   4.613   1.433  0.9447  0.4687  1.1163
  102MOL0     H13429   1.623   4.598   1.371  0.7887  0.0524  1.3668
  102MOL0     H13430   1.355   4.976   1.334  2.0545 -0.9709 -0.9312
  102MOL0     H13431   1.330   4.862   1.466 -1.8653  1.2033 -0.1609
  102MOL0     H13432   1.191   4.724   1.282 -2.0783  0.3290  2.6363
  102MOL0     H13433   1.209   4.856   1.179 -1.9714 -1.8267 -1.1910
  102MOL0     H13434   1.095   4.998   1.338 -0.7437 -0.0554 -1.2027
  102MOL0     H13435   1.077   4.859   1.460  0.2239 -3.5711 -0.3813
  102MOL0     H13436   0.983   4.869   1.170  1.9979 -2.8750 -0.4903
  102MOL0     H13437   0.948   4.738   1.275  1.9868 -0.4193  1.2241
  102MOL0     H13438   0.842   5.018   1.309  0.8956 -0.1713 -0.7878
  102MOL0     H13439   0.840   4.909   1.443 -0.2566 -2.0941 -0.1557
  102MOL0     H13440   0.721   4.749   1.285  1.4736  0.3807  0.7107
  102MOL0     H13441   0.692   4.899   1.183 -1.0737  0.2772  0.0964
  102MOL0     H13442   0.613   4.834   1.475 -0.0347  2.0398  1.0843
  102MOL0     H13443   0.601   4.997   1.399 -0.5359 -0.3134 -0.6947
  102MOL0     H13444   0.461   4.757   1.294  1.1636  0.9317 -1.3343
  102MOL0     H13445   0.457   4.924   1.223 -1.0150  0.5008  0.0906
  102MOL0     H13446   1.539   5.011   1.381 -0.2923  0.0283  0.7928
  102MOL0     H13447   1.791   5.055   1.412  0.6733  0.3920 -1.5977
  102MOL0     H13448   2.237   4.805   1.700 -1.7630 -1.3759 -0.6858
  102MOL0     H13449   2.473   4.756   1.656 -0.1876 -1.4605  0.9763
  102MOL0     H13450   4.310   4.582   0.733  0.1712  0.3145  0.9150
  102MOL0     H13451   4.475   4.702   0.592  1.6206  1.2402  0.3875
  102MOL0     H13452   4.692   5.030   0.462  0.6126 -0.3312  0.0868
  102MOL0     H13453   4.886   5.123   0.373  1.9470 -1.6848 -4.2680
  102MOL0     H13454   5.048   5.192   0.224  0.2081 -0.3796 -0.3527
  102MOL0     H13455   5.000   5.336   0.301 -0.7668  0.5391 -1.2355
  102MOL0     H13456   5.093   5.479   0.115  1.2587  0.6690 -1.9082
  102MOL0     H13457   5.205   5.369   0.196  0.3511 -0.4559  0.1892
  102MOL0     H13458   5.065   5.280  -0.056 -0.5572  2.5524 -1.2724
  102MOL0     H13459   5.214   5.222   0.025  1.1462  0.0462  2.1131
  102MOL0     H13460   5.289   5.333  -0.164  1.4189  2.5560 -0.4365
  102MOL0     H13461   5.168   5.460  -0.143 -1.6962 -2.2628 -1.8426
  102MOL0     H13462   5.528   5.594   0.043 -1.7784  2.9365 -0.3279
  102MOL0     H13463   4.676   5.263   0.043  3.0726 -0.8578  0.5009
  102MOL0     H13464   4.469   5.150   0.106  2.8581 -1.2000 -3.7782
  103MOL0     O13465  10.112   7.720  10.392 -0.0022  0.1267  0.2111
  103MOL0     C13466  10.097   7.605  10.369 -0.6473  0.2115 -0.2524
  103MOL0     O13467   9.985   7.529  10.400 -0.2926 -0.2684  0.2159
  103MOL0     C13468   9.858   7.585  10.388  0.2075 -0.8070 -0.2703
  103MOL0     C13469   9.754   7.497  10.390 -0.3862  0.3212 -0.1796
  103MOL0     C13470   9.622   7.538  10.380  0.2533  0.6154 -0.2181
  103MOL0     C13471   9.595   7.674  10.368  0.1435 -0.3970  0.0034
  103MOL0     O13472   9.459   7.707  10.371  0.1205 -0.1086 -0.6636
  103MOL0     C13473   9.424   7.826  10.440 -0.2683 -0.1092 -0.5881
  103MOL0     C13474   9.449   7.816  10.593  0.5793  0.1853 -0.1763
  103MOL0     C13475   9.353   7.722  10.672  0.2638 -0.4685  0.0860
  103MOL0     C13476   9.204   7.731  10.645  0.5725  0.0816  0.2287
  103MOL0     C13477   9.119   7.689  10.773 -0.3188 -0.3333  0.0440
  103MOL0     C13478   8.974   7.722  10.724 -1.0282 -0.0270 -0.7301
  103MOL0     C13479   8.866   7.712  10.836 -0.6305  0.6086 -0.3836
  103MOL0     C13480   8.730   7.774  10.794 -0.2137  0.4233 -0.0927
  103MOL0     N13481   8.615   7.750  10.887 -0.2306 -0.8247  0.3501
  103MOL0     C13482   8.501   7.692  10.850 -0.0754 -0.3625  0.0108
  103MOL0     C13483   8.433   7.690  10.962  0.3015  0.1867 -0.0965
  103MOL0     C13484   8.299   7.625  10.970 -0.6717  0.8104  0.0517
  103MOL0     C13485   8.266   7.589  11.117  0.1571  0.9236 -0.3368
  103MOL0     C13486   8.131   7.511  11.131 -1.3358  0.2750  0.0613
  103MOL0     C13487   8.012   7.605  11.141 -0.8012  0.4030  0.5156
  103MOL0     O13488   7.898   7.525  11.149 -0.3149  0.6427  0.2636
  103MOL0     C13489   7.782   7.579  11.186 -0.1887  0.2987 -0.1251
  103MOL0     C13490   7.748   7.717  11.193  0.3070 -0.1628  0.4797
  103MOL0     C13491   7.619   7.758  11.221  0.2034  0.0427 -0.1426
  103MOL0     C13492   7.521   7.660  11.245 -0.4605 -0.4810  0.2690
  103MOL0     C13493   7.381   7.691  11.284  0.0411  0.2105 -0.2906
  103MOL0     O13494   7.278   7.605  11.269  1.0449  0.3965  0.2387
  103MOL0     C13495   7.148   7.659  11.286  0.6182 -0.4500  0.4276
  103MOL0     C13496   7.090   7.735  11.190 -1.0831 -0.3491  0.1665
  103MOL0     C13497   6.953   7.776  11.206  0.0072  0.5566  0.3077
  103MOL0     C13498   6.877   7.740  11.323  0.4233 -0.3132  0.1066
  103MOL0     O13499   6.749   7.778  11.338 -0.6845  0.5114  0.3625
  103MOL0     C13500   6.705   7.848  11.452 -0.7168  0.0336 -0.7925
  103MOL0     C13501   6.567   7.918  11.432 -1.0244  0.1306 -0.0794
  103MOL0     C13502   6.460   7.806  11.434  0.0815 -0.1248 -0.1112
  103MOL0     C13503   6.309   7.840  11.410  0.4840 -0.8543 -1.1348
  103MOL0     C13504   6.236   7.704  11.422  0.3422  0.3006 -0.0978
  103MOL0     C13505   6.081   7.705  11.407 -0.1160  0.7154 -0.0439
  103MOL0     C13506   6.017   7.577  11.473  0.1331  0.3952 -0.0241
  103MOL0     C13507   5.876   7.549  11.429 -0.3553  0.1948 -0.8554
  103MOL0    Cl13508   5.879   7.402  11.313 -0.2058 -0.2652 -0.1154
  103MOL0     C13509   6.945   7.672  11.426  0.1850 -0.7660 -0.6081
  103MOL0     C13510   7.076   7.635  11.407 -1.4154 -0.1794  0.1374
  103MOL0     O13511   7.363   7.810  11.314 -0.3453  0.7527 -0.0920
  103MOL0     C13512   7.551   7.523  11.237  0.2803  0.2899 -0.8561
  103MOL0     C13513   7.683   7.483  11.214  0.0985  0.1677 -0.2333
  103MOL0     N13514   8.495   7.769  11.053 -0.0347  0.4905  0.2590
  103MOL0     N13515   8.607   7.812  11.007  0.4516 -0.3979  0.2954
  103MOL0     C13516   9.697   7.766  10.359  0.5930  0.0792  0.5654
  103MOL0     C13517   9.824   7.723  10.382 -0.0491 -0.5963  0.5252
  103MOL0     C13518  10.219   7.529  10.329 -0.5405 -0.5557  1.1341
  103MOL0     C13519  10.331   7.600  10.280  0.5455  0.7483 -0.1862
  103MOL0     C13520  10.459   7.536  10.267  0.4169 -1.3419  0.3826
  103MOL0     C13521  10.464   7.397  10.282 -0.6122  0.5180  0.3400
  103MOL0     O13522  10.577   7.315  10.279 -0.5029 -0.6327 -0.1521
  103MOL0     C13523  10.685   7.367  10.195  0.2744  0.7027 -0.9619
  103MOL0     C13524  10.763   7.247  10.159 -0.3540 -0.2479  0.1124
  103MOL0     C13525  10.703   7.180  10.030 -0.1251 -0.5910 -0.2172
  103MOL0     C13526  10.740   7.035  10.024 -1.0220  0.2623 -0.3904
  103MOL0     C13527  10.730   6.984   9.885  0.0123 -0.0675 -0.1794
  103MOL0     C13528  10.700   6.968   9.769  0.3422  0.0088 -0.0016
  103MOL0     C13529  10.350   7.323  10.314 -0.2435 -0.2384 -0.0758
  103MOL0     C13530  10.227   7.392  10.346 -0.7895  0.6618 -0.9388
  103MOL0     H13531   9.780   7.392  10.396 -0.1669  0.2716 -1.6242
  103MOL0     H13532   9.535   7.472  10.379  0.1212  0.7247  1.1932
  103MOL0     H13533   9.321   7.851  10.416 -0.6881  0.6203  1.7204
  103MOL0     H13534   9.488   7.902  10.394  2.0762 -1.3906  0.3615
  103MOL0     H13535   9.452   7.916  10.638 -1.6826 -0.0267  0.5450
  103MOL0     H13536   9.550   7.776  10.609 -0.5359 -2.0577  1.8678
  103MOL0     H13537   9.377   7.735  10.778  1.6991 -2.1294  0.0058
  103MOL0     H13538   9.382   7.620  10.649 -2.1085 -1.4352  1.0805
  103MOL0     H13539   9.173   7.832  10.617 -0.6052  0.9787  4.1418
  103MOL0     H13540   9.180   7.674  10.554 -1.3362 -0.7981  1.2043
  103MOL0     H13541   9.139   7.747  10.863 -0.5808 -0.1023 -0.0487
  103MOL0     H13542   9.121   7.580  10.781  1.2786 -0.4648 -1.4328
  103MOL0     H13543   8.954   7.657  10.639 -0.6769 -0.5703 -0.4068
  103MOL0     H13544   8.967   7.826  10.689  0.3076  0.5792  0.6632
  103MOL0     H13545   8.849   7.606  10.856  1.1771  0.1294 -1.1584
  103MOL0     H13546   8.901   7.755  10.930  1.3646 -0.1214 -0.7386
  103MOL0     H13547   8.704   7.734  10.696 -1.9451  0.6122  0.2734
  103MOL0     H13548   8.741   7.882  10.778  2.2445  0.1571 -0.6879
  103MOL0     H13549   8.485   7.662  10.747 -0.7445  0.9364 -0.2849
  103MOL0     H13550   8.298   7.532  10.912 -0.2433  0.7391  0.1531
  103MOL0     H13551   8.224   7.692  10.927  0.3016  2.3093  0.6002
  103MOL0     H13552   8.262   7.683  11.174 -0.0022  1.3132 -0.9827
  103MOL0     H13553   8.346   7.526  11.155 -3.1140 -3.1877  0.4205
  103MOL0     H13554   8.120   7.440  11.049  0.9190  1.0194 -0.9840
  103MOL0     H13555   8.130   7.443  11.217 -2.1209 -1.1579 -1.0426
  103MOL0     H13556   8.008   7.659  11.047  0.5589 -1.1154 -0.4734
  103MOL0     H13557   8.012   7.679  11.222  3.4978  2.1574 -0.8182
  103MOL0     H13558   7.806   7.802  11.157 -0.2272 -0.7223 -1.8819
  103MOL0     H13559   7.597   7.864  11.215 -0.6319 -0.1554 -1.0040
  103MOL0     H13560   7.152   7.770  11.109 -0.9944  1.1614  0.8637
  103MOL0     H13561   6.902   7.826  11.124  1.0487  0.4641 -0.4173
  103MOL0     H13562   6.778   7.919  11.492 -1.0048 -1.2411  2.2736
  103MOL0     H13563   6.679   7.782  11.535 -3.0294  3.4681  1.4795
  103MOL0     H13564   6.561   7.974  11.339  2.4196 -0.5454 -0.8408
  103MOL0     H13565   6.555   7.994  11.510  1.0658  0.8368 -0.3891
  103MOL0     H13566   6.448   7.770  11.537 -1.9743  2.0292  0.4992
  103MOL0     H13567   6.479   7.726  11.362 -1.7793 -0.8963  0.1897
  103MOL0     H13568   6.270   7.910  11.485  2.3621 -0.1679 -0.7476
  103MOL0     H13569   6.298   7.887  11.312 -3.6650  1.6193  0.2803
  103MOL0     H13570   6.250   7.663  11.522 -0.2394  0.6359  0.1244
  103MOL0     H13571   6.268   7.629  11.348 -1.5911  0.1325 -0.8292
  103MOL0     H13572   6.058   7.726  11.303  2.5097 -0.8202 -1.0188
  103MOL0     H13573   6.045   7.789  11.467  0.2843 -0.0431  1.3189
  103MOL0     H13574   6.074   7.486  11.449 -1.6732 -0.9567  0.6080
  103MOL0     H13575   6.021   7.585  11.582 -0.3850  0.9525 -0.0422
  103MOL0     H13576   5.838   7.640  11.382 -0.8475  1.7435  2.2711
  103MOL0     H13577   5.812   7.529  11.515  0.4302 -0.6481 -0.4472
  103MOL0     H13578   6.894   7.643  11.518 -0.1509 -0.9663 -0.8567
  103MOL0     H13579   7.126   7.577  11.484 -2.9931 -0.9208  0.6359
  103MOL0     H13580   7.469   7.454  11.247  0.7459 -0.1709 -0.1453
  103MOL0     H13581   7.712   7.380  11.195  0.5014  0.0595  0.8909
  103MOL0     H13582   9.677   7.871  10.342  0.4927 -0.0250  0.0316
  103MOL0     H13583   9.897   7.802  10.371 -2.5388  2.0676  1.7423
  103MOL0     H13584  10.316   7.706  10.265 -3.5813  0.5447  1.3474
  103MOL0     H13585  10.544   7.597  10.241 -1.7057  1.9495  0.5911
  103MOL0     H13586  10.749   7.438  10.249  1.1957  0.3302 -1.5453
  103MOL0     H13587  10.646   7.411  10.103  1.8055 -0.0590 -2.0195
  103MOL0     H13588  10.864   7.287  10.144 -1.3239  2.3287 -0.1310
  103MOL0     H13589  10.760   7.173  10.239 -1.5935 -0.5431 -0.1785
  103MOL0     H13590  10.731   7.235   9.940 -1.0867 -1.3455 -0.9974
  103MOL0     H13591  10.594   7.188  10.025 -0.0517 -0.0823 -1.1512
  103MOL0     H13592  10.839   7.021  10.068 -0.9630 -0.9362 -0.8659
  103MOL0     H13593  10.692   6.973  10.100  0.3037 -1.0275 -0.5555
  103MOL0     H13594  10.685   6.949   9.665 -1.2343 -3.4815  0.6973
  103MOL0     H13595  10.352   7.215  10.322 -4.4508 -0.4457  0.4593
  103MOL0     H13596  10.145   7.333  10.384  1.2579 -0.7030  1.7466
  104MOL0     O13597   1.101   5.173   2.318 -0.3030  0.2688 -0.0231
  104MOL0     C13598   1.159   5.166   2.207  0.0401 -0.0798 -0.6691
  104MOL0     O13599   1.089   5.177   2.087 -0.5460 -0.0863  0.1636
  104MOL0     C13600   0.959   5.201   2.112  0.4775  1.4905  0.2513
  104MOL0     C13601   0.905   5.325   2.088 -0.5258 -0.2491 -0.6103
  104MOL0     C13602   0.776   5.362   2.122 -0.4833 -0.3432  0.2758
  104MOL0     C13603   0.691   5.264   2.174  0.4552 -0.5987 -0.3490
  104MOL0     O13604   0.560   5.298   2.220  0.5095  0.0622  0.1314
  104MOL0     C13605   0.475   5.213   2.303 -0.5540  0.0911  0.1735
  104MOL0     C13606   0.383   5.131   2.214  0.0918  0.0400  0.0321
  104MOL0     C13607   0.325   5.005   2.282  0.0763 -0.6889 -1.0696
  104MOL0     C13608   0.269   5.033   2.430  0.1440  0.1625 -0.4671
  104MOL0     C13609   0.193   4.917   2.484  0.1030 -0.2956  0.5065
  104MOL0     C13610   0.177   4.935   2.636 -0.3380 -0.5474  0.0237
  104MOL0     C13611   0.114   4.813   2.691 -0.2229  0.6968 -0.2697
  104MOL0     C13612   0.100   4.832   2.840  0.1022  0.0742  0.5182
  104MOL0     N13613   0.029   4.716   2.896  0.3386 -0.2499 -0.3394
  104MOL0     C13614  -0.106   4.693   2.884 -0.0508  0.3292 -0.7340
  104MOL0     C13615  -0.136   4.571   2.932 -0.2024  0.6185 -0.0734
  104MOL0     C13616  -0.279   4.509   2.943  0.0971  0.2444 -0.0979
  104MOL0     C13617  -0.341   4.522   3.084 -0.6044 -0.8508  0.8602
  104MOL0     C13618  -0.268   4.429   3.183  0.8100 -0.1459 -0.2412
  104MOL0     C13619  -0.341   4.435   3.318  0.2992 -0.1651 -0.1490
  104MOL0     O13620  -0.468   4.358   3.322  0.4287 -0.6033  0.7080
  104MOL0     C13621  -0.534   4.346   3.443 -0.5167  0.2957  0.2179
  104MOL0     C13622  -0.471   4.298   3.562 -0.5848 -1.1478  0.5055
  104MOL0     C13623  -0.535   4.299   3.681 -0.2401  0.1079  0.0812
  104MOL0     C13624  -0.665   4.356   3.688 -0.1357  0.0987  1.2904
  104MOL0     C13625  -0.735   4.347   3.813 -0.8446  0.4338  0.8137
  104MOL0     O13626  -0.863   4.386   3.818  0.1048 -0.3095 -0.5407
  104MOL0     C13627  -0.951   4.350   3.918 -0.2491 -0.5217  0.5429
  104MOL0     C13628  -1.079   4.405   3.895 -0.1868 -0.0599 -0.4092
  104MOL0     C13629  -1.192   4.376   3.972  0.0298  0.3784  0.5623
  104MOL0     C13630  -1.181   4.286   4.081  0.7545  0.7399 -0.8340
  104MOL0     O13631  -1.293   4.237   4.149 -0.2789  0.1974 -0.7454
  104MOL0     C13632  -1.424   4.288   4.118 -0.3768 -0.3208  0.5732
  104MOL0     C13633  -1.532   4.222   4.210 -1.3171 -0.5304 -0.2069
  104MOL0     C13634  -1.663   4.300   4.185 -0.2995  0.5032 -0.0400
  104MOL0     C13635  -1.775   4.243   4.270  0.5052 -0.3459 -0.0208
  104MOL0     C13636  -1.908   4.320   4.245 -0.3246  0.6978 -0.7801
  104MOL0     C13637  -2.006   4.314   4.355  0.1680  1.0885  0.1607
  104MOL0     C13638  -2.047   4.169   4.389 -0.2391  0.7939 -0.4621
  104MOL0     C13639  -2.187   4.142   4.444  0.3973  0.3966 -0.7658
  104MOL0    Cl13640  -2.308   4.210   4.343 -0.0428  0.1468  0.2611
  104MOL0     C13641  -1.046   4.233   4.104 -0.1664  0.1424  0.0385
  104MOL0     C13642  -0.934   4.259   4.025 -0.4538 -0.9323  0.3413
  104MOL0     O13643  -0.672   4.291   3.907  0.1901  0.3914  0.0134
  104MOL0     C13644  -0.728   4.401   3.570  0.3529  0.3726 -0.7068
  104MOL0     C13645  -0.665   4.390   3.444 -0.9356 -0.6087  0.0482
  104MOL0     N13646  -0.018   4.511   2.963  0.2975  0.3007 -0.1713
  104MOL0     N13647   0.072   4.600   2.953  0.1522 -0.2068  0.7577
  104MOL0     C13648   0.732   5.131   2.176 -0.2289 -0.2466  0.1721
  104MOL0     C13649   0.867   5.098   2.143 -0.6520 -0.5418 -0.1192
  104MOL0     C13650   1.306   5.158   2.203 -0.6429 -0.4586 -0.2868
  104MOL0     C13651   1.385   5.127   2.320  0.0576  0.0555  0.4375
  104MOL0     C13652   1.527   5.098   2.298  0.5863  0.2609  0.1626
  104MOL0     C13653   1.581   5.097   2.175  0.1166  0.0099 -0.1632
  104MOL0     O13654   1.712   5.050   2.155 -0.0582  0.3184  0.2730
  104MOL0     C13655   1.822   5.076   2.241 -0.3113  0.9145 -0.7357
  104MOL0     C13656   1.840   5.225   2.260 -0.5954  0.2300  0.1367
  104MOL0     C13657   1.976   5.265   2.318 -1.2058  0.2751  0.0047
  104MOL0     C13658   2.086   5.255   2.216 -0.7941 -0.1547 -0.0157
  104MOL0     C13659   2.215   5.306   2.259 -0.3223  0.5302 -0.5230
  104MOL0     C13660   2.322   5.351   2.310 -0.2419  0.3326  0.3249
  104MOL0     C13661   1.513   5.144   2.072  0.1908  0.9370 -0.1329
  104MOL0     C13662   1.376   5.159   2.076  0.5003 -0.5510 -0.4476
  104MOL0     H13663   0.975   5.398   2.047  0.8386 -1.3173 -0.2449
  104MOL0     H13664   0.726   5.457   2.106  0.6968  0.0034 -1.6697
  104MOL0     H13665   0.414   5.278   2.367 -0.7646  0.6604 -0.5868
  104MOL0     H13666   0.537   5.152   2.369 -0.9557 -0.3416  0.1538
  104MOL0     H13667   0.432   5.111   2.118  1.3591  2.9971 -0.0523
  104MOL0     H13668   0.304   5.203   2.191  0.3827  0.3271 -0.0707
  104MOL0     H13669   0.400   4.925   2.286  1.4878  0.6050  1.7662
  104MOL0     H13670   0.241   4.974   2.220  0.4411 -1.5634 -1.1396
  104MOL0     H13671   0.356   5.048   2.494 -0.7908 -1.5409  1.3347
  104MOL0     H13672   0.205   5.122   2.426 -1.8653 -1.2524 -1.5988
  104MOL0     H13673   0.246   4.823   2.462  2.1756  0.6550  1.2062
  104MOL0     H13674   0.094   4.904   2.441  0.6832 -2.1440 -0.3914
  104MOL0     H13675   0.124   5.027   2.663 -0.1780  0.2227 -2.1102
  104MOL0     H13676   0.273   4.946   2.687 -0.5700  0.1173  0.3292
  104MOL0     H13677   0.014   4.798   2.648 -1.0328 -0.7519  1.9009
  104MOL0     H13678   0.174   4.723   2.678  0.3866  0.9955  0.4226
  104MOL0     H13679   0.054   4.927   2.867  1.0284  0.0331  2.3996
  104MOL0     H13680   0.200   4.835   2.882  0.8865  2.2216 -1.3108
  104MOL0     H13681  -0.175   4.769   2.847  0.1248  1.6125  1.3976
  104MOL0     H13682  -0.257   4.403   2.923  1.4281  0.4980 -0.0612
  104MOL0     H13683  -0.350   4.549   2.870 -1.1480  0.4551  1.1834
  104MOL0     H13684  -0.446   4.492   3.078 -0.5701 -0.7202 -1.0154
  104MOL0     H13685  -0.333   4.628   3.107 -1.9778 -0.3450 -0.7665
  104MOL0     H13686  -0.281   4.329   3.142  2.0148  0.4805 -2.2944
  104MOL0     H13687  -0.165   4.459   3.199 -0.3190  3.0270  2.0377
  104MOL0     H13688  -0.349   4.540   3.345 -3.7433 -0.5871  0.9549
  104MOL0     H13689  -0.278   4.391   3.397  0.4441 -1.2304 -0.8337
  104MOL0     H13690  -0.369   4.263   3.549 -0.2273  0.0091  0.0543
  104MOL0     H13691  -0.491   4.251   3.768  0.9669 -0.6697 -0.9222
  104MOL0     H13692  -1.087   4.480   3.817  0.5954 -0.0961 -0.5297
  104MOL0     H13693  -1.285   4.427   3.948 -0.9125 -1.4546  0.1178
  104MOL0     H13694  -1.451   4.286   4.012  1.2132  2.5131  0.0029
  104MOL0     H13695  -1.421   4.397   4.128  2.2117 -0.0516 -1.7398
  104MOL0     H13696  -1.505   4.242   4.314  0.1030 -1.7493 -0.3029
  104MOL0     H13697  -1.541   4.114   4.194  2.0213 -1.3063  2.1343
  104MOL0     H13698  -1.693   4.288   4.081 -1.6540 -1.3464  0.5179
  104MOL0     H13699  -1.652   4.407   4.209 -1.1107  0.0515  2.8220
  104MOL0     H13700  -1.783   4.136   4.250  3.7538 -1.3278  3.0217
  104MOL0     H13701  -1.753   4.252   4.377 -1.4853  1.1240  0.3282
  104MOL0     H13702  -1.963   4.281   4.159 -1.2702 -1.6725  0.7917
  104MOL0     H13703  -1.887   4.426   4.226 -0.2647  0.5624 -1.5011
  104MOL0     H13704  -2.087   4.387   4.340  0.9201  2.3716  1.9297
  104MOL0     H13705  -1.962   4.354   4.447  0.4661  1.8344 -0.2962
  104MOL0     H13706  -2.045   4.115   4.294  0.6748  2.0937 -1.2067
  104MOL0     H13707  -1.971   4.130   4.458  0.5402  3.4606  0.3051
  104MOL0     H13708  -2.205   4.179   4.546  1.4857  2.5741 -1.2948
  104MOL0     H13709  -2.209   4.035   4.437 -0.2997  0.5337 -0.7779
  104MOL0     H13710  -1.032   4.161   4.184  1.9765  0.2784 -0.1513
  104MOL0     H13711  -0.839   4.209   4.044  0.4548  0.7338  0.3692
  104MOL0     H13712  -0.822   4.454   3.583  2.2787  3.5866  1.9393
  104MOL0     H13713  -0.717   4.422   3.354  0.7774 -0.2934 -0.8763
  104MOL0     H13714   0.665   5.052   2.205 -1.5754  0.0105 -2.0217
  104MOL0     H13715   0.895   4.994   2.145 -1.8254 -0.8604  0.8549
  104MOL0     H13716   1.330   5.116   2.412 -2.1661  2.3416 -0.5154
  104MOL0     H13717   1.564   5.061   2.393 -1.6728 -1.4533  0.4588
  104MOL0     H13718   1.915   5.029   2.208  0.2616  0.6308  1.1548
  104MOL0     H13719   1.808   5.018   2.333  1.4995  0.4443 -0.7162
  104MOL0     H13720   1.822   5.276   2.165  2.1442  0.3125 -0.4189
  104MOL0     H13721   1.750   5.262   2.309 -0.9195 -0.6723  0.2367
  104MOL0     H13722   1.996   5.191   2.396 -3.1816  0.9165  1.2039
  104MOL0     H13723   1.971   5.368   2.355 -1.5630  1.0624 -2.1215
  104MOL0     H13724   2.107   5.152   2.187  1.4040 -0.6041  2.7894
  104MOL0     H13725   2.050   5.310   2.128  2.2659  1.4411 -0.4037
  104MOL0     H13726   2.410   5.386   2.359  1.3731  2.5303 -3.6448
  104MOL0     H13727   1.565   5.169   1.980 -2.7951 -2.4981 -3.0754
  104MOL0     H13728   1.335   5.175   1.977 -1.7131 -0.4400  0.4363
  105MOL0     O13729  10.083   3.847   5.831  0.0325  0.6362  0.4215
  105MOL0     C13730  10.113   3.811   5.717  0.5860  0.1236  0.4000
  105MOL0     O13731  10.032   3.767   5.619 -0.1367  0.1756 -0.4023
  105MOL0     C13732   9.898   3.741   5.642 -0.0439  0.1133 -0.3336
  105MOL0     C13733   9.851   3.690   5.766 -0.2310 -0.0468  0.4695
  105MOL0     C13734   9.719   3.649   5.789 -0.2319  0.5780 -1.1881
  105MOL0     C13735   9.621   3.663   5.687 -0.4032  0.5966  0.4291
  105MOL0     O13736   9.490   3.619   5.717 -0.4938  0.2856 -0.4840
  105MOL0     C13737   9.390   3.613   5.613  0.5919 -0.1304  0.0971
  105MOL0     C13738   9.265   3.533   5.647 -0.4665 -0.3430  0.0205
  105MOL0     C13739   9.291   3.385   5.672  0.2133 -1.0867  0.4002
  105MOL0     C13740   9.153   3.318   5.696 -0.1964 -0.4049  0.0049
  105MOL0     C13741   9.165   3.166   5.665  0.3023  0.5696 -0.3142
  105MOL0     C13742   9.034   3.103   5.706  0.1758  0.0433  0.1612
  105MOL0     C13743   9.034   2.948   5.698 -0.1248 -0.0825 -0.3037
  105MOL0     C13744   8.911   2.894   5.770  0.7241  0.6886 -0.1882
  105MOL0     N13745   8.793   2.952   5.726  0.1792  0.4462  0.5349
  105MOL0     C13746   8.742   2.947   5.605 -0.4782 -0.4101  1.0600
  105MOL0     C13747   8.625   3.008   5.616 -0.3200 -0.1712  0.4847
  105MOL0     C13748   8.525   3.006   5.504 -0.1425 -1.0232 -0.5861
  105MOL0     C13749   8.382   2.976   5.557 -0.1825  0.3528  0.3690
  105MOL0     C13750   8.270   2.952   5.449 -0.2187 -0.3297 -0.3486
  105MOL0     C13751   8.209   3.084   5.392 -0.1805  0.2201  0.1759
  105MOL0     O13752   8.070   3.057   5.357  0.2176  0.2079 -0.4279
  105MOL0     C13753   7.972   3.039   5.452  0.0058 -1.0863 -0.1324
  105MOL0     C13754   7.850   2.987   5.397  1.4419 -0.1542  0.2048
  105MOL0     C13755   7.747   2.960   5.484  0.4506  0.5281 -0.6013
  105MOL0     C13756   7.762   2.984   5.627  0.3958 -1.2497 -0.5305
  105MOL0     C13757   7.643   2.969   5.716  0.1294 -0.0922  0.2890
  105MOL0     O13758   7.530   2.914   5.658 -0.1580  0.4234 -0.2550
  105MOL0     C13759   7.430   2.877   5.748 -0.3019 -0.5930  0.2459
  105MOL0     C13760   7.297   2.904   5.716  1.0950 -0.2885 -0.2390
  105MOL0     C13761   7.189   2.870   5.803 -1.2141 -0.6095  0.4213
  105MOL0     C13762   7.210   2.795   5.915  0.0492  0.3039 -1.0469
  105MOL0     O13763   7.112   2.739   5.997 -0.0404 -0.4776  0.3520
  105MOL0     C13764   7.007   2.824   6.038  0.9373 -0.1021  0.6907
  105MOL0     C13765   6.886   2.752   6.093  0.9267  0.2099  0.3843
  105MOL0     C13766   6.769   2.842   6.115 -0.8201 -0.3907 -0.5054
  105MOL0     C13767   6.651   2.754   6.165  0.2133 -0.6596  0.9250
  105MOL0     C13768   6.553   2.845   6.244 -0.5558  0.6317  0.4137
  105MOL0     C13769   6.445   2.762   6.300  0.2887 -0.7133 -0.0461
  105MOL0     C13770   6.342   2.846   6.379 -0.6658 -0.2406  0.3548
  105MOL0     C13771   6.228   2.768   6.429 -0.6871  0.2758 -0.5081
  105MOL0    Cl13772   6.117   2.715   6.297 -0.1092 -0.1214  0.0366
  105MOL0     C13773   7.340   2.761   5.952  0.2409  0.1407  0.5490
  105MOL0     C13774   7.449   2.802   5.872  0.3776  0.4983  0.4898
  105MOL0     O13775   7.646   2.993   5.835 -0.3068  0.5585  0.5949
  105MOL0     C13776   7.882   3.043   5.674 -0.0362  0.1527 -0.3041
  105MOL0     C13777   7.987   3.068   5.593 -0.0506  0.0342  0.4009
  105MOL0     N13778   8.601   3.041   5.747 -0.2640 -0.2864  0.7329
  105MOL0     N13779   8.708   3.014   5.812  0.9561 -0.1379  0.0800
  105MOL0     C13780   9.665   3.729   5.564 -0.2980 -0.4543  0.1949
  105MOL0     C13781   9.807   3.761   5.541  0.8239  0.3436  0.2083
  105MOL0     C13782  10.247   3.831   5.676 -0.1626  0.0082  0.1949
  105MOL0     C13783  10.300   3.795   5.548 -0.0304 -0.2147 -0.4982
  105MOL0     C13784  10.435   3.802   5.517  0.5565  0.1517  0.3429
  105MOL0     C13785  10.526   3.859   5.606 -0.1040 -0.4451 -0.2914
  105MOL0     O13786  10.660   3.875   5.571  0.0232  0.8278  0.9002
  105MOL0     C13787  10.753   3.952   5.637 -0.0873  1.3274 -0.3109
  105MOL0     C13788  10.889   3.913   5.601 -0.0184  0.4383 -0.0227
  105MOL0     C13789  10.933   3.933   5.456 -0.2272  0.5342 -0.1594
  105MOL0     C13790  11.068   3.884   5.424  0.6253 -1.2086 -0.0321
  105MOL0     C13791  11.080   3.891   5.281 -0.9474 -0.9449  0.1115
  105MOL0     C13792  11.098   3.921   5.162  0.5259  0.0382  0.4781
  105MOL0     C13793  10.475   3.888   5.736  0.0480  0.3128  0.1279
  105MOL0     C13794  10.335   3.889   5.767  0.3304  0.0231 -0.8272
  105MOL0     H13795   9.921   3.685   5.849 -0.5527 -2.7626  0.6735
  105MOL0     H13796   9.689   3.610   5.885 -0.9174 -0.5093 -1.8190
  105MOL0     H13797   9.440   3.560   5.532  0.0634 -0.8673  0.2421
  105MOL0     H13798   9.363   3.715   5.584  0.8530  0.3378  1.4284
  105MOL0     H13799   9.190   3.557   5.571 -2.1469  2.1059  2.2874
  105MOL0     H13800   9.228   3.579   5.739 -0.4868  1.1110 -0.6894
  105MOL0     H13801   9.366   3.371   5.751  0.3814 -1.8439  0.1224
  105MOL0     H13802   9.344   3.357   5.581  1.1455  0.0009  0.5914
  105MOL0     H13803   9.137   3.326   5.804 -1.1432 -3.4484  0.1731
  105MOL0     H13804   9.072   3.361   5.636 -0.2098 -1.4238 -0.7238
  105MOL0     H13805   9.260   3.132   5.707 -1.1083 -0.9792  1.7949
  105MOL0     H13806   9.173   3.147   5.558  1.0364  0.8540 -0.3144
  105MOL0     H13807   8.959   3.138   5.634 -0.2540 -0.7055  0.2329
  105MOL0     H13808   9.001   3.135   5.805  0.1948 -1.1055  0.5542
  105MOL0     H13809   9.035   2.908   5.596 -0.8821 -0.3483 -0.2157
  105MOL0     H13810   9.125   2.917   5.750  0.4240  1.1364 -0.5237
  105MOL0     H13811   8.923   2.902   5.878  1.8644 -3.5155  0.2040
  105MOL0     H13812   8.917   2.785   5.756  1.6676  1.0811 -4.0875
  105MOL0     H13813   8.778   2.896   5.517  1.4131  1.1346  0.8760
  105MOL0     H13814   8.563   2.938   5.428  0.6164 -0.4151 -0.7627
  105MOL0     H13815   8.526   3.110   5.469 -2.7935 -0.8799 -0.4669
  105MOL0     H13816   8.348   3.051   5.629  1.1565  0.1594  1.2470
  105MOL0     H13817   8.405   2.881   5.606  3.2220  0.3354 -0.9625
  105MOL0     H13818   8.308   2.892   5.366 -1.8829  1.2865 -2.3541
  105MOL0     H13819   8.194   2.893   5.504 -0.0430  1.0325  1.4476
  105MOL0     H13820   8.262   3.119   5.303  2.1743 -1.6339  0.7419
  105MOL0     H13821   8.211   3.157   5.473 -1.7813 -0.8955  1.2941
  105MOL0     H13822   7.849   2.967   5.290 -2.3337  0.1719  0.0233
  105MOL0     H13823   7.650   2.927   5.449  0.2584  2.2814 -1.8434
  105MOL0     H13824   7.288   2.964   5.626  2.4917 -2.5578 -1.9871
  105MOL0     H13825   7.087   2.899   5.777 -0.8890 -0.4147 -0.6846
  105MOL0     H13826   6.982   2.901   5.964 -0.0081 -0.5562  0.5214
  105MOL0     H13827   7.047   2.882   6.121  1.8533  1.5199 -0.8112
  105MOL0     H13828   6.907   2.701   6.188  0.4235  1.0864  0.9777
  105MOL0     H13829   6.855   2.677   6.019  0.2908  1.0355 -0.2039
  105MOL0     H13830   6.737   2.884   6.019  0.1148 -0.4646 -0.8710
  105MOL0     H13831   6.790   2.922   6.187 -2.0073 -0.7968  0.3048
  105MOL0     H13832   6.596   2.707   6.083 -0.8873 -2.2505  2.5154
  105MOL0     H13833   6.676   2.670   6.231 -3.7202 -3.2089 -0.4836
  105MOL0     H13834   6.498   2.917   6.183  0.9993  2.5640  1.1849
  105MOL0     H13835   6.603   2.889   6.331 -0.3470 -0.1019  0.6758
  105MOL0     H13836   6.483   2.685   6.369  0.6745 -0.7286 -0.2732
  105MOL0     H13837   6.404   2.717   6.210  0.7812 -3.5865  1.0358
  105MOL0     H13838   6.391   2.896   6.464  0.8185  1.0241 -1.1827
  105MOL0     H13839   6.312   2.926   6.311  2.2141 -0.1444 -0.9215
  105MOL0     H13840   6.178   2.831   6.502  3.0595  0.6493  1.9977
  105MOL0     H13841   6.270   2.679   6.478 -2.7220 -2.1671 -2.8361
  105MOL0     H13842   7.357   2.694   6.035  2.1763 -0.2552 -0.1014
  105MOL0     H13843   7.548   2.768   5.899 -0.2795 -1.2093  0.8759
  105MOL0     H13844   7.886   3.070   5.779  1.0017  0.4574 -0.4128
  105MOL0     H13845   8.075   3.114   5.637 -0.4691  1.9096 -0.6518
  105MOL0     H13846   9.591   3.756   5.489  0.4058  1.4268  0.1214
  105MOL0     H13847   9.837   3.795   5.442  2.4543 -2.4776 -0.3870
  105MOL0     H13848  10.230   3.751   5.477 -1.6257  1.8965 -0.3555
  105MOL0     H13849  10.467   3.777   5.416 -0.3989  0.4609 -0.0466
  105MOL0     H13850  10.747   3.926   5.743  3.1803 -3.7470 -1.0330
  105MOL0     H13851  10.736   4.056   5.605 -0.6242  0.4607 -3.1418
  105MOL0     H13852  10.969   3.970   5.650  1.5031 -0.7680 -0.9972
  105MOL0     H13853  10.899   3.808   5.631 -2.3218  0.3722  0.6948
  105MOL0     H13854  10.923   4.039   5.430  1.4231  0.4006 -1.5248
  105MOL0     H13855  10.863   3.869   5.402  0.4911 -0.3943 -0.0170
  105MOL0     H13856  11.148   3.948   5.463  1.4711 -1.4265 -1.3349
  105MOL0     H13857  11.098   3.788   5.467  1.6164  0.4127  3.2773
  105MOL0     H13858  11.088   3.965   5.065 -3.3836 -0.5738  0.4249
  105MOL0     H13859  10.552   3.908   5.810  0.8862  1.1595 -0.9342
  105MOL0     H13860  10.298   3.916   5.865 -0.6149  0.0590 -1.1846
  106MOL0     O13861   3.099   1.251   9.933 -0.9388  0.5490 -0.1483
  106MOL0     C13862   3.087   1.291   9.821  0.2261  0.2344 -0.2316
  106MOL0     O13863   2.973   1.294   9.743  0.0197 -1.0207  0.2306
  106MOL0     C13864   2.862   1.266   9.814  0.7947 -0.6233 -0.3798
  106MOL0     C13865   2.820   1.135   9.824 -0.2984  0.7698  0.3272
  106MOL0     C13866   2.712   1.101   9.897  0.0251  0.0081 -0.2456
  106MOL0     C13867   2.629   1.192   9.951  0.2345 -0.0717 -0.8483
  106MOL0     O13868   2.516   1.148  10.017 -0.0060 -0.0431  0.2273
  106MOL0     C13869   2.399   1.227  10.038 -0.0908  0.2627 -0.0451
  106MOL0     C13870   2.312   1.152  10.139  0.0127 -0.6127  0.8085
  106MOL0     C13871   2.177   1.224  10.163  0.6918 -0.5469 -0.3840
  106MOL0     C13872   2.064   1.125  10.225  0.0058 -0.8511 -0.3920
  106MOL0     C13873   1.921   1.179  10.196  0.8858 -0.3468  0.8074
  106MOL0     C13874   1.817   1.116  10.295 -0.1617  0.0810  0.1508
  106MOL0     C13875   1.667   1.141  10.266  0.3291 -0.0856  0.4858
  106MOL0     C13876   1.586   1.029  10.323  0.4002 -0.1546 -0.2653
  106MOL0     N13877   1.448   1.040  10.263 -0.2514  0.5049 -0.2740
  106MOL0     C13878   1.407   1.010  10.139  0.2444  0.0966  0.3133
  106MOL0     C13879   1.283   1.043  10.135  0.8283 -0.2445 -1.1223
  106MOL0     C13880   1.205   1.029  10.002 -0.5654  0.2426  0.3041
  106MOL0     C13881   1.062   0.988  10.037 -0.3781  0.4645 -0.1592
  106MOL0     C13882   0.971   1.103  10.086 -0.3168  0.5164  0.4386
  106MOL0     C13883   0.820   1.080  10.053 -0.2030  1.0801  0.3043
  106MOL0     O13884   0.772   0.990  10.149 -0.0800 -0.6445 -0.9978
  106MOL0     C13885   0.643   0.996  10.187 -0.1539  0.1663  0.2921
  106MOL0     C13886   0.551   0.928  10.109  1.2996  0.3097 -0.5133
  106MOL0     C13887   0.415   0.924  10.150  0.0436  0.8314  0.3380
  106MOL0     C13888   0.367   0.987  10.261 -0.9927 -0.0181 -0.1193
  106MOL0     C13889   0.228   0.975  10.302 -0.8175  0.3320  0.0595
  106MOL0     O13890   0.196   1.043  10.418 -0.6101  0.2062 -0.8823
  106MOL0     C13891   0.087   1.000  10.490 -0.2250  1.0739 -0.4596
  106MOL0     C13892  -0.039   0.974  10.446 -0.0573 -0.1774  0.6527
  106MOL0     C13893  -0.146   0.940  10.538 -0.1932 -0.3198  0.3479
  106MOL0     C13894  -0.116   0.936  10.674 -0.1186 -0.4287 -0.2534
  106MOL0     O13895  -0.209   0.912  10.772 -0.5464  0.6742  1.0188
  106MOL0     C13896  -0.349   0.924  10.739  0.2977  0.4390  0.7234
  106MOL0     C13897  -0.429   0.929  10.865 -0.4275 -0.0572  0.8445
  106MOL0     C13898  -0.577   0.924  10.835 -0.3455 -0.1281 -0.1033
  106MOL0     C13899  -0.670   0.919  10.963 -0.4151  0.4446 -0.5960
  106MOL0     C13900  -0.820   0.944  10.933  0.7710 -0.7172 -0.8039
  106MOL0     C13901  -0.910   0.979  11.048  0.1147  1.0962 -0.3124
  106MOL0     C13902  -1.051   1.036  11.013  0.6496  0.1933  0.1367
  106MOL0     C13903  -1.167   1.022  11.115  0.3902  0.8087 -0.0771
  106MOL0    Cl13904  -1.244   0.863  11.111  0.4066  0.7311  0.0828
  106MOL0     C13905   0.012   0.973  10.715  0.2893  0.0131 -0.1470
  106MOL0     C13906   0.122   0.994  10.631 -0.1131 -0.0168  0.3297
  106MOL0     O13907   0.156   0.895  10.249  0.1486 -0.0558  0.7965
  106MOL0     C13908   0.461   1.064  10.336 -0.5862  0.3970 -0.9923
  106MOL0     C13909   0.600   1.061  10.299 -0.5312 -0.0948  0.0253
  106MOL0     N13910   1.253   1.113  10.250  0.3042  0.4285 -0.1822
  106MOL0     N13911   1.353   1.110  10.328  0.1675  1.0638  0.7746
  106MOL0     C13912   2.668   1.326   9.937 -0.1210 -0.9714  0.3334
  106MOL0     C13913   2.786   1.367   9.879 -0.5813 -0.6476  0.1776
  106MOL0     C13914   3.209   1.358   9.763 -0.7246  0.6226 -0.3261
  106MOL0     C13915   3.330   1.348   9.828  0.6581  0.1758  0.3672
  106MOL0     C13916   3.445   1.394   9.753  0.0470 -0.0053 -0.1892
  106MOL0     C13917   3.437   1.465   9.633 -0.1962  0.3440  0.0256
  106MOL0     O13918   3.546   1.517   9.560 -0.7840  0.0176  0.0940
  106MOL0     C13919   3.677   1.503   9.620 -0.3742  0.7970 -0.3001
  106MOL0     C13920   3.775   1.564   9.522 -0.0041 -0.1153  0.9272
  106MOL0     C13921   3.761   1.716   9.506 -0.3446 -0.1276 -0.8527
  106MOL0     C13922   3.850   1.796   9.607 -0.6310 -0.5618 -0.1452
  106MOL0     C13923   3.849   1.936   9.569 -0.1342 -0.0604  1.0275
  106MOL0     C13924   3.835   2.051   9.549  0.1845  0.0942 -0.1253
  106MOL0     C13925   3.307   1.481   9.578 -0.4056 -0.2015 -0.1978
  106MOL0     C13926   3.197   1.421   9.633  0.2712 -0.1710 -0.1080
  106MOL0     H13927   2.892   1.068   9.776  1.7664  3.2049 -0.2211
  106MOL0     H13928   2.680   0.997   9.906 -1.3491  0.3437 -0.9434
  106MOL0     H13929   2.350   1.237   9.941  1.5364  0.5870 -0.8634
  106MOL0     H13930   2.423   1.328  10.075 -1.6016  0.6424 -0.0316
  106MOL0     H13931   2.358   1.131  10.236 -0.7623 -1.4661  1.0145
  106MOL0     H13932   2.296   1.051  10.099 -2.0913 -0.1145  0.2574
  106MOL0     H13933   2.135   1.258  10.068  1.1217 -1.5648 -0.9554
  106MOL0     H13934   2.183   1.315  10.224 -1.5470 -0.1178 -0.7188
  106MOL0     H13935   2.071   1.026  10.179  0.3797 -0.6801 -0.7075
  106MOL0     H13936   2.089   1.114  10.331  1.3353 -0.3507 -0.6328
  106MOL0     H13937   1.890   1.149  10.095  2.5252 -2.9996  1.0023
  106MOL0     H13938   1.915   1.288  10.205  1.5295 -0.3093  0.8051
  106MOL0     H13939   1.845   1.155  10.393 -1.2590  0.7761  0.2113
  106MOL0     H13940   1.831   1.007  10.299 -0.4811  0.0320 -0.0409
  106MOL0     H13941   1.626   1.233  10.308 -3.9194 -2.3366  1.7914
  106MOL0     H13942   1.662   1.143  10.157 -2.0894 -0.5768  0.5313
  106MOL0     H13943   1.586   1.040  10.432  1.3240 -0.0878 -0.2652
  106MOL0     H13944   1.630   0.933  10.294  1.7775  1.2723 -3.2558
  106MOL0     H13945   1.463   0.973  10.054 -2.8417 -0.6251 -1.5576
  106MOL0     H13946   1.252   0.956   9.935 -2.1618 -0.5890  0.0423
  106MOL0     H13947   1.199   1.127   9.953 -1.0499 -0.1552 -0.4514
  106MOL0     H13948   1.063   0.910  10.114  0.6803  2.4007  1.9040
  106MOL0     H13949   1.015   0.944   9.949 -2.2890  2.0076  0.0478
  106MOL0     H13950   0.972   1.109  10.195 -2.4556 -2.2997  0.7240
  106MOL0     H13951   0.992   1.194  10.028  0.1172 -0.2318 -0.6258
  106MOL0     H13952   0.808   1.043   9.951 -3.2292 -0.5121  1.1003
  106MOL0     H13953   0.768   1.176  10.064 -0.4172  0.6910  3.6349
  106MOL0     H13954   0.586   0.881  10.018 -1.2781  1.2556 -2.1055
  106MOL0     H13955   0.353   0.856  10.093  0.5482 -0.6063  1.4372
  106MOL0     H13956  -0.060   0.990  10.341  1.6854  0.3831  0.3668
  106MOL0     H13957  -0.247   0.912  10.511 -0.5075  0.5131  0.6135
  106MOL0     H13958  -0.385   0.836  10.686 -1.1296  0.3310  1.8150
  106MOL0     H13959  -0.363   1.011  10.674  0.5243  0.0943  0.2103
  106MOL0     H13960  -0.394   1.013  10.926  0.3783 -0.9050  1.5903
  106MOL0     H13961  -0.406   0.833  10.913 -0.0400 -1.2842 -1.6419
  106MOL0     H13962  -0.607   0.833  10.782 -2.4658  0.0317  0.7373
  106MOL0     H13963  -0.600   1.010  10.772  0.1527  1.0672  1.3148
  106MOL0     H13964  -0.664   0.819  11.006 -1.8706 -0.7295 -2.9600
  106MOL0     H13965  -0.620   0.991  11.029 -1.8697  0.3854  0.6336
  106MOL0     H13966  -0.849   0.847  10.890 -1.3940 -1.2244  1.5316
  106MOL0     H13967  -0.836   1.007  10.845  0.8328 -0.2228 -0.4582
  106MOL0     H13968  -0.855   1.051  11.109  1.5498 -0.6278  0.5369
  106MOL0     H13969  -0.919   0.891  11.112  3.0883  1.8295  1.3000
  106MOL0     H13970  -1.038   1.143  10.998 -1.0345  0.2404 -1.3758
  106MOL0     H13971  -1.080   0.995  10.915 -0.4418 -0.8645  0.8779
  106MOL0     H13972  -1.241   1.097  11.084 -0.4147  1.2278  2.6396
  106MOL0     H13973  -1.134   1.042  11.217 -0.5177  0.3955  0.3102
  106MOL0     H13974   0.043   0.962  10.818  4.4192  2.3459 -0.8951
  106MOL0     H13975   0.221   1.007  10.675  0.4513 -2.5159 -0.0757
  106MOL0     H13976   0.437   1.103  10.434  2.7408  0.4476 -0.0776
  106MOL0     H13977   0.659   1.128  10.361 -0.3876 -0.8246  0.6977
  106MOL0     H13978   2.607   1.406   9.977  0.5435  1.2926 -2.7705
  106MOL0     H13979   2.817   1.471   9.882 -1.3776 -0.3714 -0.7481
  106MOL0     H13980   3.336   1.303   9.926 -0.2116  2.2549  1.4452
  106MOL0     H13981   3.537   1.367   9.805  0.8425 -0.3385 -1.7051
  106MOL0     H13982   3.695   1.397   9.644 -0.2418  0.5720 -1.3690
  106MOL0     H13983   3.668   1.559   9.714 -2.0683  1.0445 -0.5727
  106MOL0     H13984   3.879   1.536   9.543  0.1461 -0.3077 -0.0428
  106MOL0     H13985   3.763   1.510   9.428 -0.3220  0.8056  0.4238
  106MOL0     H13986   3.657   1.746   9.519  0.2804  0.7630  3.3077
  106MOL0     H13987   3.798   1.740   9.405 -0.5018  3.5461 -0.1773
  106MOL0     H13988   3.804   1.792   9.706  1.9738 -2.1286  1.1205
  106MOL0     H13989   3.951   1.758   9.624 -0.3281  0.4380  0.4047
  106MOL0     H13990   3.815   2.153   9.524  0.9238  0.1241 -0.6181
  106MOL0     H13991   3.304   1.547   9.492  0.7325  1.9563  1.3186
  106MOL0     H13992   3.097   1.437   9.594  0.1566 -0.5270  0.0382
  107MOL0     O13993   7.791   4.478   3.217 -0.0284 -0.1728 -0.0637
  107MOL0     C13994   7.741   4.449   3.104 -0.0102 -0.1497 -0.4469
  107MOL0     O13995   7.609   4.398   3.089  0.2469 -0.4435 -0.0652
  107MOL0     C13996   7.532   4.378   3.197  0.4428 -0.4868  0.0024
  107MOL0     C13997   7.448   4.480   3.225  0.3613  0.5957  0.0809
  107MOL0     C13998   7.341   4.459   3.324  0.1919  0.8195  0.5017
  107MOL0     C13999   7.323   4.329   3.380  0.2945 -0.0177 -0.9365
  107MOL0     O14000   7.225   4.279   3.467 -0.8018  0.3473 -0.3658
  107MOL0     C14001   7.101   4.348   3.458  0.3619 -0.0619 -0.0500
  107MOL0     C14002   7.007   4.251   3.511  0.5694  0.1516 -0.5688
  107MOL0     C14003   6.889   4.328   3.562  0.3732 -0.3965 -0.0216
  107MOL0     C14004   6.789   4.241   3.624  1.1709 -0.3491  0.3390
  107MOL0     C14005   6.674   4.314   3.693 -0.4985 -0.1409  0.4569
  107MOL0     C14006   6.566   4.219   3.741  0.5241  0.2586 -0.1859
  107MOL0     C14007   6.435   4.298   3.798 -0.0394 -0.0570  1.0701
  107MOL0     C14008   6.326   4.211   3.873 -0.3753  0.1908  0.3467
  107MOL0     N14009   6.231   4.306   3.933  0.0543  0.8014  0.0518
  107MOL0     C14010   6.255   4.389   4.033 -0.4429 -0.1504  0.1970
  107MOL0     C14011   6.127   4.440   4.055 -0.3139 -0.9130 -0.4208
  107MOL0     C14012   6.095   4.570   4.143 -0.1738  0.1352  0.8728
  107MOL0     C14013   5.964   4.630   4.115 -0.1873 -0.1751  0.3401
  107MOL0     C14014   5.957   4.771   4.160  0.2684 -0.0768 -0.7929
  107MOL0     C14015   5.810   4.802   4.198  0.2626  0.3220 -0.1759
  107MOL0     O14016   5.735   4.813   4.077  0.3523 -0.7118  1.2397
  107MOL0     C14017   5.603   4.863   4.073 -0.4827 -0.4921  0.2864
  107MOL0     C14018   5.532   4.854   3.952 -0.6466  0.4182 -0.1481
  107MOL0     C14019   5.397   4.896   3.937 -0.6138 -0.5587 -0.0038
  107MOL0     C14020   5.336   4.953   4.046 -0.0505 -0.7148 -0.0182
  107MOL0     C14021   5.210   5.016   4.027  0.5502 -0.1663  0.2487
  107MOL0     O14022   5.161   5.039   3.905  0.1711  0.2137 -0.4374
  107MOL0     C14023   5.028   5.087   3.912  0.5509 -0.5629  0.1782
  107MOL0     C14024   5.004   5.227   3.916  0.3963 -0.3724 -0.5141
  107MOL0     C14025   4.878   5.283   3.880  0.0938 -0.0559  0.3841
  107MOL0     C14026   4.778   5.184   3.840 -0.0528  0.0359  1.0964
  107MOL0     O14027   4.656   5.208   3.788  0.5339 -0.0439 -0.2468
  107MOL0     C14028   4.596   5.325   3.836 -0.2445 -0.3048 -0.0402
  107MOL0     C14029   4.446   5.330   3.799  0.1271 -0.4731 -0.1201
  107MOL0     C14030   4.370   5.191   3.804  0.1188 -0.0191  0.1516
  107MOL0     C14031   4.226   5.205   3.759 -0.1266  0.8762  0.8095
  107MOL0     C14032   4.158   5.069   3.747  0.3175 -0.5125 -0.0507
  107MOL0     C14033   4.006   5.084   3.717  0.0921 -0.1468 -0.1701
  107MOL0     C14034   3.959   4.943   3.712  0.3002  1.1076  0.5658
  107MOL0     C14035   3.809   4.947   3.746 -0.3632  0.0642 -0.1270
  107MOL0    Cl14036   3.747   4.783   3.745 -0.4817  0.0775 -0.5709
  107MOL0     C14037   4.806   5.043   3.849  0.1370 -0.6724 -0.6517
  107MOL0     C14038   4.933   4.994   3.878 -0.2677 -0.0575  0.6802
  107MOL0     O14039   5.145   5.035   4.135  0.5247 -0.8407 -0.0451
  107MOL0     C14040   5.406   4.960   4.172 -0.9034  0.0939  0.2119
  107MOL0     C14041   5.538   4.915   4.185 -0.3565  0.9647  0.6422
  107MOL0     N14042   6.038   4.381   3.968  0.0214  0.1394 -0.3393
  107MOL0     N14043   6.102   4.300   3.900  0.0971  0.1876  0.2169
  107MOL0     C14044   7.417   4.225   3.348 -0.4091 -0.2711  0.0588
  107MOL0     C14045   7.510   4.244   3.254  0.4456  0.2227  0.9444
  107MOL0     C14046   7.831   4.453   2.989  0.5160  0.9058 -0.2354
  107MOL0     C14047   7.776   4.427   2.863  0.2802 -0.0430 -0.0318
  107MOL0     C14048   7.856   4.448   2.751  0.5759 -0.5846 -0.3447
  107MOL0     C14049   7.995   4.473   2.759  0.5628 -1.1984  0.7112
  107MOL0     O14050   8.093   4.471   2.661 -0.0357 -0.8392 -0.7760
  107MOL0     C14051   8.055   4.438   2.529 -0.4012  0.4436 -0.1016
  107MOL0     C14052   8.177   4.421   2.442  0.0713  0.1733  0.3737
  107MOL0     C14053   8.237   4.555   2.396 -0.1848  0.5385 -0.3042
  107MOL0     C14054   8.341   4.528   2.282 -1.2161  0.0342 -0.6119
  107MOL0     C14055   8.403   4.654   2.244 -0.1518 -0.1984  1.0540
  107MOL0     C14056   8.464   4.746   2.194 -0.0189  0.3761  0.2788
  107MOL0     C14057   8.045   4.497   2.885 -0.1983  0.3449  0.2219
  107MOL0     C14058   7.965   4.493   3.004  0.7472 -0.5118  0.3051
  107MOL0     H14059   7.459   4.564   3.157 -0.1075 -1.3916 -2.6299
  107MOL0     H14060   7.268   4.539   3.334 -1.3891 -0.1107 -2.3098
  107MOL0     H14061   7.079   4.379   3.356 -2.4655 -1.4228  0.0352
  107MOL0     H14062   7.107   4.438   3.519 -0.6838 -0.2777  0.3968
  107MOL0     H14063   7.050   4.204   3.600 -0.6473  3.7292  2.1489
  107MOL0     H14064   6.978   4.179   3.434 -1.8948  0.5075 -0.0812
  107MOL0     H14065   6.838   4.390   3.488  0.2138 -1.2482 -0.6379
  107MOL0     H14066   6.927   4.392   3.642  0.8597  0.0194 -0.5815
  107MOL0     H14067   6.757   4.164   3.553  0.8800  1.1854 -1.2668
  107MOL0     H14068   6.844   4.185   3.700  1.6341 -2.6657 -1.5495
  107MOL0     H14069   6.632   4.387   3.622 -3.0660  0.0784  2.0687
  107MOL0     H14070   6.714   4.378   3.771  0.2767  0.4841 -0.4232
  107MOL0     H14071   6.615   4.164   3.822  2.3710  1.7300 -0.2280
  107MOL0     H14072   6.539   4.148   3.662  0.2041  1.6754 -1.3930
  107MOL0     H14073   6.480   4.371   3.866  1.5192  2.0049 -1.9464
  107MOL0     H14074   6.401   4.340   3.703  2.4792 -2.3878 -1.0348
  107MOL0     H14075   6.374   4.150   3.950 -2.1508  0.3577  1.6480
  107MOL0     H14076   6.269   4.146   3.805  1.0261 -0.2681 -0.4282
  107MOL0     H14077   6.344   4.421   4.086 -0.8752 -1.9504  2.1810
  107MOL0     H14078   6.170   4.647   4.122 -0.7448  0.3292 -0.6153
  107MOL0     H14079   6.102   4.540   4.247  3.4642 -0.3990  0.6196
  107MOL0     H14080   5.891   4.564   4.162  1.0056 -2.5315 -0.9679
  107MOL0     H14081   5.955   4.626   4.006 -1.3233 -0.8812  0.4449
  107MOL0     H14082   6.018   4.787   4.249  0.7635 -1.2673 -0.9004
  107MOL0     H14083   5.997   4.830   4.077 -3.0018  0.4993 -2.1149
  107MOL0     H14084   5.811   4.895   4.256 -0.2848 -1.0959  2.2544
  107MOL0     H14085   5.767   4.728   4.265 -0.0380  0.8697  0.2406
  107MOL0     H14086   5.590   4.825   3.865  4.1792  3.8448  1.4406
  107MOL0     H14087   5.348   4.897   3.840  3.2333 -0.1889 -2.1204
  107MOL0     H14088   5.080   5.303   3.933  0.7980 -0.5300 -1.5468
  107MOL0     H14089   4.864   5.390   3.869  0.2465  0.1903  2.1982
  107MOL0     H14090   4.642   5.417   3.797 -0.6090  0.0055  0.2596
  107MOL0     H14091   4.599   5.327   3.945  2.7120 -0.7472 -0.0173
  107MOL0     H14092   4.426   5.374   3.701 -3.0393  1.7304  1.3455
  107MOL0     H14093   4.407   5.403   3.871  1.4970  1.5156 -1.2688
  107MOL0     H14094   4.373   5.151   3.906  2.1235 -0.7733 -0.1568
  107MOL0     H14095   4.432   5.122   3.746  1.5929  1.1185  0.3263
  107MOL0     H14096   4.176   5.269   3.833 -1.4423 -0.5517  1.2095
  107MOL0     H14097   4.237   5.260   3.665 -1.0259 -0.8371 -0.3438
  107MOL0     H14098   4.173   5.013   3.840 -0.3509  0.1954  0.4975
  107MOL0     H14099   4.196   5.008   3.665 -0.8551 -1.4704  0.0909
  107MOL0     H14100   3.984   5.142   3.627  0.6155 -0.2024 -0.3379
  107MOL0     H14101   3.965   5.137   3.803 -1.1435 -1.0835 -0.1481
  107MOL0     H14102   3.965   4.899   3.611 -2.0732  1.6741  0.1182
  107MOL0     H14103   3.998   4.881   3.793 -1.2370 -0.6344  0.0595
  107MOL0     H14104   3.757   4.999   3.665 -0.2267 -0.1767 -0.3682
  107MOL0     H14105   3.799   5.001   3.841 -2.0522  0.0578 -0.2802
  107MOL0     H14106   4.722   4.977   3.828  0.6642 -1.1297 -1.3843
  107MOL0     H14107   4.969   4.892   3.891  0.7844 -0.0903 -1.8593
  107MOL0     H14108   5.364   5.008   4.260  1.6148  0.9668  1.0353
  107MOL0     H14109   5.591   4.932   4.278  0.8368  2.1690 -0.2182
  107MOL0     H14110   7.392   4.125   3.384 -1.2066 -1.7301 -4.0636
  107MOL0     H14111   7.576   4.163   3.223  0.8514  0.7954  0.2923
  107MOL0     H14112   7.669   4.408   2.853  0.1005 -0.2398  1.9063
  107MOL0     H14113   7.813   4.423   2.654 -0.3636 -1.5286  0.2858
  107MOL0     H14114   7.988   4.513   2.484 -2.4803 -1.8281 -1.0219
  107MOL0     H14115   8.003   4.343   2.518 -0.4888  0.3148  1.2996
  107MOL0     H14116   8.246   4.359   2.499 -1.9632 -0.0767  2.7000
  107MOL0     H14117   8.153   4.359   2.355  0.2295 -2.1821  1.9179
  107MOL0     H14118   8.293   4.595   2.480  1.2600 -0.5397 -0.7121
  107MOL0     H14119   8.156   4.625   2.371 -0.4973  0.6220  0.8959
  107MOL0     H14120   8.422   4.463   2.317  1.6793  3.2143 -0.8752
  107MOL0     H14121   8.290   4.483   2.197 -1.8927 -1.2360  0.4226
  107MOL0     H14122   8.515   4.832   2.156 -0.8081  0.7493  0.0471
  107MOL0     H14123   8.150   4.524   2.895 -0.5651  2.4632 -1.1612
  107MOL0     H14124   8.007   4.522   3.099  0.7538  2.4408 -0.4803
  108MOL0     O14125   9.268   0.353   4.530  0.4983  0.6015 -0.3507
  108MOL0     C14126   9.267   0.454   4.470 -0.7690 -0.0097  0.6157
  108MOL0     O14127   9.151   0.511   4.429  0.6036 -0.4162  1.2074
  108MOL0     C14128   9.039   0.474   4.497 -0.6006  0.4969  0.6883
  108MOL0     C14129   8.979   0.344   4.484 -0.8537  0.4730  1.0270
  108MOL0     C14130   8.862   0.304   4.549  0.0599  0.2965  0.1858
  108MOL0     C14131   8.786   0.403   4.613  0.4698 -0.6459  0.2601
  108MOL0     O14132   8.663   0.381   4.661  0.1001 -1.2139  0.4378
  108MOL0     C14133   8.619   0.252   4.683 -0.3148  0.3820 -0.0496
  108MOL0     C14134   8.506   0.258   4.793 -0.1108  0.1170 -0.5271
  108MOL0     C14135   8.454   0.120   4.834  0.4584 -0.4831  0.2839
  108MOL0     C14136   8.341   0.074   4.737  0.6990 -0.0251  0.3442
  108MOL0     C14137   8.280  -0.065   4.775  0.3650 -0.2379  0.2283
  108MOL0     C14138   8.194  -0.122   4.659  0.2923  0.7252 -0.5246
  108MOL0     C14139   8.102  -0.244   4.706 -0.0884 -0.8538 -0.1253
  108MOL0     C14140   8.182  -0.334   4.798 -0.3862 -0.5503  0.5173
  108MOL0     N14141   8.109  -0.456   4.831 -0.1095 -0.5863  0.2404
  108MOL0     C14142   8.037  -0.532   4.748 -1.1201  0.4751  0.8402
  108MOL0     C14143   7.983  -0.637   4.814 -0.2174  0.6735  0.8801
  108MOL0     C14144   7.898  -0.738   4.751  0.0492 -0.1367 -0.1599
  108MOL0     C14145   7.758  -0.718   4.805 -0.6912 -0.0279  0.2413
  108MOL0     C14146   7.681  -0.826   4.737  0.4955 -0.6251  0.3294
  108MOL0     C14147   7.538  -0.825   4.796 -0.0792  0.6287  0.5730
  108MOL0     O14148   7.468  -0.935   4.721  0.4196  0.0533 -0.5505
  108MOL0     C14149   7.338  -0.979   4.748 -0.2308 -0.6218 -0.8505
  108MOL0     C14150   7.288  -1.066   4.661 -0.5107 -0.1633 -0.9518
  108MOL0     C14151   7.149  -1.108   4.676 -0.4021  0.9371 -0.7500
  108MOL0     C14152   7.070  -1.060   4.779  0.1888  0.8226  0.2016
  108MOL0     C14153   6.929  -1.111   4.801 -0.6495 -0.1672  0.1538
  108MOL0     O14154   6.873  -1.177   4.689 -0.6824 -0.1410  0.7555
  108MOL0     C14155   6.741  -1.228   4.691 -0.1374  0.4668  0.3363
  108MOL0     C14156   6.712  -1.324   4.595  0.4316 -0.1468  1.0342
  108MOL0     C14157   6.580  -1.375   4.586 -0.6667 -0.3943  1.7149
  108MOL0     C14158   6.482  -1.328   4.670  0.4243  1.1803 -0.3092
  108MOL0     O14159   6.350  -1.381   4.659  0.3564  0.7744  0.4643
  108MOL0     C14160   6.314  -1.486   4.560  0.0529 -0.8482 -0.2586
  108MOL0     C14161   6.164  -1.520   4.581 -0.4388 -0.0002  0.3544
  108MOL0     C14162   6.090  -1.421   4.496  1.1420  0.3303  0.1351
  108MOL0     C14163   5.948  -1.468   4.490  0.2937  1.0933 -0.6503
  108MOL0     C14164   5.855  -1.390   4.397  0.0510 -0.0581  0.6389
  108MOL0     C14165   5.707  -1.444   4.396 -0.4638  0.0530 -0.2208
  108MOL0     C14166   5.633  -1.443   4.531 -0.6837  0.7290 -0.2928
  108MOL0     C14167   5.488  -1.464   4.526  0.5910 -0.6791 -0.4023
  108MOL0    Cl14168   5.401  -1.369   4.395 -0.1762  0.0106  0.2048
  108MOL0     C14169   6.503  -1.227   4.760 -1.0192 -0.1604 -0.4631
  108MOL0     C14170   6.637  -1.174   4.772  0.4546  0.5892  0.5958
  108MOL0     O14171   6.872  -1.084   4.911 -0.1763 -0.0849  1.0435
  108MOL0     C14172   7.123  -0.972   4.869  0.0645  0.0567  0.3117
  108MOL0     C14173   7.256  -0.919   4.849  0.2013  0.5544 -0.2531
  108MOL0     N14174   8.029  -0.630   4.941  0.3255 -1.5161 -0.3018
  108MOL0     N14175   8.102  -0.515   4.951 -0.1614 -0.0391  0.8314
  108MOL0     C14176   8.833   0.536   4.625 -0.3987  0.1855  0.1031
  108MOL0     C14177   8.964   0.563   4.577  0.5188 -0.1461  0.3967
  108MOL0     C14178   9.389   0.521   4.423 -0.4386  0.3324  0.4511
  108MOL0     C14179   9.389   0.644   4.366  0.1015 -1.0887 -0.7384
  108MOL0     C14180   9.500   0.704   4.311 -1.4676 -0.8828  0.9737
  108MOL0     C14181   9.626   0.641   4.325 -0.4351 -0.2366 -0.4792
  108MOL0     O14182   9.734   0.710   4.274 -0.2547 -0.1391 -0.2198
  108MOL0     C14183   9.871   0.657   4.278 -0.2798 -0.4228 -0.0492
  108MOL0     C14184   9.903   0.577   4.151  0.4707  0.8907  0.4983
  108MOL0     C14185   9.883   0.653   4.020  0.9801  0.4331 -0.8505
  108MOL0     C14186   9.921   0.567   3.903  0.0200 -0.3253  0.5572
  108MOL0     C14187  10.067   0.548   3.870  1.2195 -0.9275  0.0981
  108MOL0     C14188  10.181   0.535   3.841 -0.7747  0.2467  0.4431
  108MOL0     C14189   9.633   0.519   4.391  0.6869  0.4698  0.1816
  108MOL0     C14190   9.517   0.451   4.424  0.1978  0.5885 -0.2541
  108MOL0     H14191   9.029   0.275   4.418 -1.4574  0.9321  0.0659
  108MOL0     H14192   8.824   0.205   4.524 -1.0067  0.8690 -0.5149
  108MOL0     H14193   8.695   0.183   4.721 -0.5505 -0.1025 -0.4464
  108MOL0     H14194   8.567   0.214   4.595  1.2906  0.9999 -1.3063
  108MOL0     H14195   8.420   0.322   4.769  0.0114  0.9268  1.0651
  108MOL0     H14196   8.563   0.295   4.879  0.6103 -0.1388 -0.8916
  108MOL0     H14197   8.410   0.125   4.934  0.1528 -3.0070  0.3364
  108MOL0     H14198   8.540   0.052   4.835  0.8122 -0.0907 -1.0438
  108MOL0     H14199   8.266   0.154   4.727 -1.3680 -1.8119  0.7022
  108MOL0     H14200   8.385   0.075   4.637 -3.6983  1.0270 -1.8698
  108MOL0     H14201   8.229  -0.048   4.870  0.1056 -0.2137  0.0853
  108MOL0     H14202   8.362  -0.135   4.795 -0.2082 -1.2573 -0.8538
  108MOL0     H14203   8.253  -0.148   4.571  1.5985 -2.3301  1.1275
  108MOL0     H14204   8.124  -0.042   4.630 -1.0720 -0.5420 -0.8650
  108MOL0     H14205   8.014  -0.206   4.759 -1.4845 -2.5915 -1.0804
  108MOL0     H14206   8.051  -0.295   4.624 -3.3364 -1.1114  1.8633
  108MOL0     H14207   8.209  -0.281   4.890 -0.2736  1.2165 -0.4808
  108MOL0     H14208   8.274  -0.355   4.743 -1.5143  0.4405 -1.9044
  108MOL0     H14209   8.023  -0.522   4.640  0.5231 -1.0933  0.4480
  108MOL0     H14210   7.934  -0.839   4.773 -1.5064 -0.8941 -0.9064
  108MOL0     H14211   7.912  -0.719   4.644 -0.8878  0.4716 -0.1867
  108MOL0     H14212   7.732  -0.614   4.784  1.2828  0.8838  1.9252
  108MOL0     H14213   7.749  -0.736   4.913 -0.5988  0.4804  0.3342
  108MOL0     H14214   7.680  -0.810   4.629 -1.9024 -0.1136  0.3776
  108MOL0     H14215   7.721  -0.924   4.767 -0.9963 -0.2361  4.2585
  108MOL0     H14216   7.490  -0.729   4.773  3.0015  2.0855 -0.2834
  108MOL0     H14217   7.548  -0.846   4.903  0.3065 -1.2082  0.2018
  108MOL0     H14218   7.346  -1.100   4.575  1.3265 -0.2321  0.2638
  108MOL0     H14219   7.111  -1.173   4.598 -0.6606  0.1857 -0.0182
  108MOL0     H14220   6.789  -1.358   4.525  0.1935 -0.9119  1.1391
  108MOL0     H14221   6.551  -1.456   4.520 -0.7024  1.7495 -1.1066
  108MOL0     H14222   6.375  -1.575   4.578 -1.8871 -2.4039 -1.1306
  108MOL0     H14223   6.329  -1.450   4.458 -2.7436  0.3302 -0.3291
  108MOL0     H14224   6.144  -1.534   4.688 -1.8178 -2.3182 -0.1389
  108MOL0     H14225   6.148  -1.616   4.531 -0.2964 -1.7204  3.3862
  108MOL0     H14226   6.123  -1.410   4.393  0.6595  2.0629  0.1353
  108MOL0     H14227   6.105  -1.322   4.541  0.5082  1.1410 -1.3579
  108MOL0     H14228   5.952  -1.569   4.449 -0.5489  0.2026  1.3249
  108MOL0     H14229   5.897  -1.468   4.587 -0.3475  1.1176 -0.9825
  108MOL0     H14230   5.898  -1.384   4.296  2.1833  0.3589  1.5204
  108MOL0     H14231   5.851  -1.285   4.429  2.3353  0.1685  0.3223
  108MOL0     H14232   5.718  -1.547   4.360  1.4746  0.9458 -2.4442
  108MOL0     H14233   5.652  -1.398   4.313  2.2877 -2.2263 -3.6208
  108MOL0     H14234   5.679  -1.512   4.602 -2.2800  2.5852  2.7838
  108MOL0     H14235   5.651  -1.339   4.559  1.2601  0.3809 -0.1576
  108MOL0     H14236   5.446  -1.437   4.624 -2.0717  1.4768 -2.0059
  108MOL0     H14237   5.469  -1.570   4.505 -1.9313 -0.0769 -1.5441
  108MOL0     H14238   6.428  -1.195   4.831 -0.2083 -0.1344  0.4078
  108MOL0     H14239   6.652  -1.099   4.849  0.9890 -2.0181  3.2077
  108MOL0     H14240   7.079  -0.934   4.961  0.5863 -1.0202  1.0278
  108MOL0     H14241   7.293  -0.838   4.911  2.3161 -0.2805 -0.3642
  108MOL0     H14242   8.787   0.617   4.680 -1.1248 -0.0554 -0.1460
  108MOL0     H14243   9.009   0.659   4.601 -2.4769  2.3872 -2.9661
  108MOL0     H14244   9.295   0.697   4.355  0.8962  0.7055  0.6437
  108MOL0     H14245   9.497   0.799   4.259  1.1650 -0.0676  2.1023
  108MOL0     H14246   9.885   0.599   4.370  2.6042 -0.1676 -0.2334
  108MOL0     H14247   9.936   0.744   4.290 -1.0755  0.1169  0.4655
  108MOL0     H14248  10.007   0.543   4.149  0.2495  0.0517  1.8643
  108MOL0     H14249   9.838   0.489   4.156 -0.4339  1.6058  3.3384
  108MOL0     H14250   9.951   0.739   4.022  0.2661  1.0438  1.6271
  108MOL0     H14251   9.778   0.684   4.009  1.5667  2.3194 -1.6802
  108MOL0     H14252   9.889   0.467   3.932  0.4950 -1.1417 -1.5290
  108MOL0     H14253   9.869   0.589   3.810 -3.3049  0.5440  2.4769
  108MOL0     H14254  10.283   0.527   3.809 -1.0274 -1.2037 -0.0784
  108MOL0     H14255   9.731   0.473   4.399  0.8150  0.9630  1.9855
  108MOL0     H14256   9.517   0.346   4.451  1.1893 -0.0854 -2.5542
  109MOL0     O14257   9.503   6.993   6.788  0.2016  0.2087 -0.3351
  109MOL0     C14258   9.529   6.869   6.781  0.0390 -0.4419  0.3616
  109MOL0     O14259   9.434   6.772   6.779  0.1787 -0.5607  0.3834
  109MOL0     C14260   9.296   6.784   6.768 -0.7518  0.0596 -0.5048
  109MOL0     C14261   9.216   6.900   6.741 -0.7907 -0.3770  0.7445
  109MOL0     C14262   9.075   6.889   6.737 -0.2233  0.7607 -0.4487
  109MOL0     C14263   9.013   6.760   6.733 -0.1337 -0.3270  0.4996
  109MOL0     O14264   8.880   6.756   6.720  0.2669 -0.3150 -0.1106
  109MOL0     C14265   8.810   6.633   6.696  0.6817 -0.4231 -0.0316
  109MOL0     C14266   8.661   6.665   6.674 -0.7358 -0.0813  0.0598
  109MOL0     C14267   8.593   6.765   6.770 -0.1687  0.2674  0.4460
  109MOL0     C14268   8.444   6.772   6.736 -0.2159 -0.7414  0.5691
  109MOL0     C14269   8.359   6.824   6.851  1.1550 -0.2404 -0.7642
  109MOL0     C14270   8.205   6.809   6.829  0.1953  0.0141 -0.2052
  109MOL0     C14271   8.130   6.882   6.937  0.0375 -0.2522  0.2054
  109MOL0     C14272   7.976   6.873   6.924  0.0967  0.2901 -0.8672
  109MOL0     N14273   7.917   6.929   6.797 -0.8681  0.2028 -0.8845
  109MOL0     C14274   7.854   7.049   6.785  0.4861 -0.7829  0.7104
  109MOL0     C14275   7.793   7.053   6.669 -0.1373 -0.6118  0.0198
  109MOL0     C14276   7.699   7.157   6.613 -0.3478  0.8506 -0.1471
  109MOL0     C14277   7.768   7.224   6.493  0.3945  0.9286  0.4968
  109MOL0     C14278   7.833   7.359   6.546  0.1265  0.4408  0.1596
  109MOL0     C14279   7.888   7.422   6.420  0.0895 -0.2265 -0.2685
  109MOL0     O14280   7.931   7.553   6.458  0.0009  0.1860 -0.6260
  109MOL0     C14281   8.058   7.566   6.517  0.3872  0.0453 -0.5345
  109MOL0     C14282   8.081   7.690   6.591  0.8336 -0.9199  0.4804
  109MOL0     C14283   8.208   7.713   6.639  0.5548 -0.3952  0.0385
  109MOL0     C14284   8.319   7.627   6.616  0.6720 -0.0294  0.8717
  109MOL0     C14285   8.454   7.658   6.659 -0.0427  0.2116  0.1607
  109MOL0     O14286   8.479   7.770   6.745 -0.4990 -0.2877  0.8596
  109MOL0     C14287   8.613   7.795   6.771 -0.0534 -0.1953 -1.0130
  109MOL0     C14288   8.701   7.839   6.672  0.0311  0.6551  0.0736
  109MOL0     C14289   8.838   7.845   6.702  0.2945  0.7397  0.1606
  109MOL0     C14290   8.883   7.817   6.832  0.0082  0.2396  0.6384
  109MOL0     O14291   9.021   7.851   6.851 -0.0204 -0.2599 -0.0736
  109MOL0     C14292   9.070   7.873   6.981 -0.3209  0.3169  0.3008
  109MOL0     C14293   9.219   7.834   6.980 -0.2695 -0.2555 -0.6139
  109MOL0     C14294   9.323   7.926   6.920 -0.2210 -0.1863  0.4482
  109MOL0     C14295   9.335   7.914   6.770 -0.2677 -0.8572 -0.6598
  109MOL0     C14296   9.405   8.042   6.717  0.2453 -0.0891 -0.8201
  109MOL0     C14297   9.548   8.067   6.774  0.2466 -0.0822  0.9906
  109MOL0     C14298   9.646   8.144   6.685  0.9653 -0.0038  0.1490
  109MOL0     C14299   9.583   8.277   6.643  1.0419 -0.0826  0.0954
  109MOL0    Cl14300   9.697   8.362   6.537  0.0759  0.1535  0.0566
  109MOL0     C14301   8.796   7.771   6.934  0.1341  0.0561 -0.1284
  109MOL0     C14302   8.661   7.765   6.903  1.2098  0.0365 -0.4582
  109MOL0     O14303   8.540   7.583   6.616 -0.1693 -0.0804 -0.3308
  109MOL0     C14304   8.292   7.506   6.556 -0.6699 -0.1060 -0.4671
  109MOL0     C14305   8.170   7.475   6.499  0.8190 -0.1946  0.4801
  109MOL0     N14306   7.842   6.942   6.599  0.2758  1.4087 -0.0646
  109MOL0     N14307   7.910   6.863   6.678 -0.6295  0.6515 -1.5092
  109MOL0     C14308   9.095   6.646   6.758 -0.2444  1.0764  0.5095
  109MOL0     C14309   9.235   6.660   6.768 -0.4843  0.4038 -0.4462
  109MOL0     C14310   9.670   6.825   6.782 -0.6672 -1.3281 -0.9917
  109MOL0     C14311   9.721   6.699   6.814  0.4016 -0.6825 -0.0740
  109MOL0     C14312   9.857   6.677   6.831  0.1558  0.1488  0.7553
  109MOL0     C14313   9.955   6.772   6.787  0.7585  0.0251 -0.5924
  109MOL0     O14314  10.089   6.742   6.808  0.5074 -0.1972 -0.6184
  109MOL0     C14315  10.176   6.849   6.769 -0.1006 -0.8733 -0.6742
  109MOL0     C14316  10.313   6.791   6.800 -0.7327 -1.3944 -0.2166
  109MOL0     C14317  10.363   6.692   6.698  0.6245  0.2327 -0.2424
  109MOL0     C14318  10.486   6.617   6.756 -0.2678 -0.2456  0.3073
  109MOL0     C14319  10.515   6.501   6.662  0.1696 -1.0733  0.0878
  109MOL0     C14320  10.516   6.411   6.581  0.0034 -0.6737 -0.0020
  109MOL0     C14321   9.904   6.893   6.742  0.0741 -0.8939  0.1463
  109MOL0     C14322   9.765   6.925   6.736 -0.7033 -0.1664 -0.1055
  109MOL0     H14323   9.270   6.994   6.742  1.7955 -1.7646  2.5815
  109MOL0     H14324   9.008   6.975   6.739 -0.1893  0.8035  2.3178
  109MOL0     H14325   8.820   6.566   6.782  1.5174  1.7992  1.7066
  109MOL0     H14326   8.844   6.591   6.601  1.9081  2.0816 -0.8087
  109MOL0     H14327   8.607   6.571   6.686 -1.9567  0.5544 -0.2435
  109MOL0     H14328   8.655   6.706   6.573 -0.5336 -0.8825 -0.2889
  109MOL0     H14329   8.632   6.867   6.762  2.8396 -0.7509  1.1177
  109MOL0     H14330   8.628   6.725   6.865 -1.7022 -0.9613  0.5392
  109MOL0     H14331   8.438   6.850   6.660  0.2645 -0.3408  0.9352
  109MOL0     H14332   8.410   6.677   6.693  1.5564 -1.4527  0.6575
  109MOL0     H14333   8.390   6.926   6.875 -0.4424  0.3622 -1.1901
  109MOL0     H14334   8.385   6.775   6.945 -0.1816  0.4158 -0.0275
  109MOL0     H14335   8.166   6.707   6.829  0.5719 -0.1413  0.5519
  109MOL0     H14336   8.183   6.852   6.731  1.9803  1.5158 -0.0337
  109MOL0     H14337   8.150   6.831   7.031 -3.5127  1.1878  1.9544
  109MOL0     H14338   8.166   6.985   6.950 -0.4998 -0.3292  2.8343
  109MOL0     H14339   7.927   6.927   7.006 -0.5392 -0.6697 -0.5953
  109MOL0     H14340   7.951   6.767   6.928  1.1457  0.0800  0.8865
  109MOL0     H14341   7.837   7.123   6.862  0.4653 -0.0802  0.0347
  109MOL0     H14342   7.668   7.232   6.685  0.1906 -0.9437  2.0565
  109MOL0     H14343   7.612   7.102   6.575 -0.3752 -0.1524  1.3052
  109MOL0     H14344   7.689   7.254   6.423 -0.1306 -1.6697 -0.1170
  109MOL0     H14345   7.840   7.161   6.439 -0.3334 -0.8311  1.5255
  109MOL0     H14346   7.753   7.424   6.583 -1.5805 -1.2748 -0.3307
  109MOL0     H14347   7.912   7.340   6.619  2.5384 -2.2693 -2.8811
  109MOL0     H14348   7.810   7.426   6.344  0.8866 -1.3288 -1.1837
  109MOL0     H14349   7.966   7.360   6.374 -0.7833 -1.5357 -0.0283
  109MOL0     H14350   8.002   7.761   6.614  1.0649 -0.6599  0.4650
  109MOL0     H14351   8.225   7.801   6.700 -1.4542 -0.3056  0.5329
  109MOL0     H14352   8.657   7.879   6.581 -2.8408  1.2467  1.5899
  109MOL0     H14353   8.910   7.874   6.627 -0.3558  1.2905 -0.2661
  109MOL0     H14354   9.010   7.822   7.057 -3.0469  4.2158  1.0974
  109MOL0     H14355   9.051   7.978   7.007 -1.0975 -0.0866  1.4833
  109MOL0     H14356   9.230   7.734   6.935 -2.3868 -0.3524 -1.0315
  109MOL0     H14357   9.250   7.820   7.084  2.6066  1.7594 -1.0820
  109MOL0     H14358   9.420   7.903   6.963 -0.0909  0.2872  0.4155
  109MOL0     H14359   9.302   8.029   6.949 -2.9394 -0.1233 -1.2994
  109MOL0     H14360   9.390   7.827   6.731  0.1855 -0.5016 -0.8192
  109MOL0     H14361   9.236   7.907   6.725 -1.3544  0.4338  1.3978
  109MOL0     H14362   9.338   8.122   6.748 -0.6303 -1.8840  2.4003
  109MOL0     H14363   9.402   8.033   6.608 -1.1863 -1.3856 -0.7077
  109MOL0     H14364   9.586   7.967   6.796 -0.8623 -0.3897  1.6077
  109MOL0     H14365   9.548   8.118   6.871  0.0906  4.5537 -1.1791
  109MOL0     H14366   9.738   8.173   6.737 -0.1345  0.6563  1.8157
  109MOL0     H14367   9.677   8.090   6.595 -1.5835 -0.1401 -0.7259
  109MOL0     H14368   9.554   8.335   6.731 -1.1708 -2.5698  1.1611
  109MOL0     H14369   9.489   8.250   6.593  0.9528 -1.9005  1.1693
  109MOL0     H14370   8.832   7.736   7.030  0.2252 -0.5351 -0.3724
  109MOL0     H14371   8.582   7.719   6.962  1.5101 -1.4246 -1.1370
  109MOL0     H14372   8.374   7.440   6.532 -0.0891 -0.5464  2.3553
  109MOL0     H14373   8.146   7.385   6.444 -1.8276 -2.6422  5.0645
  109MOL0     H14374   9.058   6.544   6.748  1.1835  0.0736  3.8689
  109MOL0     H14375   9.292   6.569   6.788 -1.6321 -0.4457 -0.9789
  109MOL0     H14376   9.650   6.624   6.844  0.6814 -0.1645  2.0328
  109MOL0     H14377   9.886   6.586   6.881  0.0378 -0.5170 -0.3536
  109MOL0     H14378  10.157   6.937   6.832 -1.6519 -1.8970  0.3459
  109MOL0     H14379  10.175   6.872   6.662  3.5458 -2.6960 -1.2748
  109MOL0     H14380  10.378   6.879   6.802 -0.4496 -1.6091  1.0077
  109MOL0     H14381  10.323   6.757   6.904  2.0590  0.2881  0.1610
  109MOL0     H14382  10.399   6.739   6.606  3.0370  1.0046  1.0165
  109MOL0     H14383  10.279   6.630   6.664  1.7490 -0.1307 -2.5329
  109MOL0     H14384  10.578   6.675   6.763 -0.0203 -0.7583  1.5771
  109MOL0     H14385  10.456   6.585   6.856 -1.3027  1.9401  0.7642
  109MOL0     H14386  10.516   6.334   6.506 -2.3750  0.6338 -1.4696
  109MOL0     H14387   9.964   6.975   6.705  0.1048 -2.6509 -4.2799
  109MOL0     H14388   9.729   7.026   6.718 -1.5395 -0.3559  0.4297
  110MOL0     O14389   5.858   5.633   5.984  0.0899  0.1873  0.1237
  110MOL0     C14390   5.928   5.708   6.047 -1.0342 -0.8215 -0.4600
  110MOL0     O14391   5.883   5.793   6.147 -0.1874 -0.0301  0.4399
  110MOL0     C14392   5.749   5.787   6.177  0.4261  0.7458  0.3890
  110MOL0     C14393   5.653   5.824   6.080 -0.4220  0.0328  0.7944
  110MOL0     C14394   5.513   5.804   6.109 -0.4833  0.0281 -0.2132
  110MOL0     C14395   5.477   5.775   6.245  0.0663  0.0421  0.9975
  110MOL0     O14396   5.347   5.780   6.294  0.0206  0.1559  0.2635
  110MOL0     C14397   5.249   5.738   6.208  0.1065  0.1250  0.9272
  110MOL0     C14398   5.138   5.664   6.292 -0.4377 -0.2401 -0.4147
  110MOL0     C14399   5.005   5.711   6.245 -0.2455 -0.2979  0.5374
  110MOL0     C14400   4.892   5.677   6.336 -0.3562  0.7687  0.5280
  110MOL0     C14401   4.750   5.724   6.272  0.3315 -0.2752 -0.0564
  110MOL0     C14402   4.626   5.690   6.365 -0.0708  0.2535 -0.2204
  110MOL0     C14403   4.511   5.782   6.337  0.0903 -0.2996 -0.3447
  110MOL0     C14404   4.418   5.731   6.232 -0.9558  0.7755 -0.3921
  110MOL0     N14405   4.310   5.826   6.221  1.2468  0.6722  0.3908
  110MOL0     C14406   4.307   5.951   6.170 -0.4638 -0.7876  0.1657
  110MOL0     C14407   4.181   5.989   6.142  1.0685 -0.1174  0.7008
  110MOL0     C14408   4.128   6.098   6.060 -0.8739 -0.3339 -0.0764
  110MOL0     C14409   4.179   6.229   6.115 -0.4120  0.8688 -0.3885
  110MOL0     C14410   4.190   6.335   6.016 -0.5721  0.0653 -0.8076
  110MOL0     C14411   4.326   6.326   5.941  0.2720  0.0939  0.4747
  110MOL0     O14412   4.315   6.353   5.801 -0.3099  0.4710 -0.2030
  110MOL0     C14413   4.426   6.319   5.727  0.0081  0.1079 -0.0867
  110MOL0     C14414   4.411   6.301   5.590 -0.3433  0.1531  0.3054
  110MOL0     C14415   4.510   6.267   5.502 -0.3338  0.5842  0.2966
  110MOL0     C14416   4.644   6.253   5.562  0.0375  0.4065  0.6476
  110MOL0     C14417   4.767   6.243   5.475 -0.6667  0.1753  0.0469
  110MOL0     O14418   4.878   6.263   5.550 -0.0828  0.4827 -0.4513
  110MOL0     C14419   4.995   6.231   5.502 -0.0152  0.0375  0.9889
  110MOL0     C14420   5.090   6.327   5.470 -0.1325  0.9095 -0.1534
  110MOL0     C14421   5.206   6.279   5.408 -0.3394 -0.3191 -0.1592
  110MOL0     C14422   5.239   6.147   5.374 -0.2478  1.2568 -0.1861
  110MOL0     O14423   5.358   6.100   5.325 -0.0364 -0.3236 -0.4568
  110MOL0     C14424   5.450   6.203   5.283 -0.5002 -0.4200 -1.0006
  110MOL0     C14425   5.587   6.147   5.229  0.7020 -0.2854 -0.2889
  110MOL0     C14426   5.695   6.261   5.228 -0.0112 -0.2057 -0.3740
  110MOL0     C14427   5.811   6.212   5.157 -0.8162 -0.1551  0.5598
  110MOL0     C14428   5.928   6.307   5.182  0.1627  0.4987  0.3880
  110MOL0     C14429   6.044   6.271   5.096  0.5429  0.0960 -0.7831
  110MOL0     C14430   6.150   6.383   5.104  0.0838  0.5777  0.4690
  110MOL0     C14431   6.289   6.344   5.056  0.6764 -0.3453 -0.0810
  110MOL0    Cl14432   6.401   6.479   5.096 -0.2557 -0.4361  0.0179
  110MOL0     C14433   5.140   6.046   5.405  0.1701  0.1582  0.2896
  110MOL0     C14434   5.020   6.087   5.472 -0.1498 -0.0034 -0.4672
  110MOL0     O14435   4.760   6.195   5.360  0.0729 -0.0396 -0.1184
  110MOL0     C14436   4.653   6.263   5.701 -0.1753 -0.3134 -0.0179
  110MOL0     C14437   4.547   6.290   5.780 -0.3097  0.4564 -0.0029
  110MOL0     N14438   4.102   5.879   6.185  0.1444  0.3041  0.7307
  110MOL0     N14439   4.176   5.790   6.233 -0.2437  0.4320  0.1054
  110MOL0     C14440   5.576   5.745   6.344  0.5959  0.6578  0.6560
  110MOL0     C14441   5.712   5.747   6.304  0.6348  0.0389  0.0715
  110MOL0     C14442   6.070   5.721   5.998 -0.0419 -0.0699 -0.0821
  110MOL0     C14443   6.166   5.780   6.080  0.1691 -0.0825 -0.2892
  110MOL0     C14444   6.295   5.804   6.025 -0.3136 -0.0747  0.4035
  110MOL0     C14445   6.330   5.770   5.892 -0.4479 -0.2441 -0.2977
  110MOL0     O14446   6.453   5.812   5.848  0.5321  0.3527 -0.0412
  110MOL0     C14447   6.465   5.888   5.725  0.3693  0.5834  0.3187
  110MOL0     C14448   6.529   5.806   5.610 -0.5699 -0.0958 -0.4782
  110MOL0     C14449   6.677   5.765   5.639  0.0486 -0.4130  0.5902
  110MOL0     C14450   6.780   5.856   5.570  0.1951 -1.9013  0.5850
  110MOL0     C14451   6.910   5.790   5.565 -0.4947 -0.0461 -0.5230
  110MOL0     C14452   7.022   5.732   5.558 -0.3072 -0.0195 -0.8366
  110MOL0     C14453   6.234   5.708   5.806  0.2610  0.0388 -0.0084
  110MOL0     C14454   6.101   5.692   5.858  0.3849  0.2743 -0.0678
  110MOL0     H14455   5.676   5.860   5.980  2.5446  3.7946  2.5875
  110MOL0     H14456   5.443   5.836   6.032  0.6022  1.9377 -0.4799
  110MOL0     H14457   5.284   5.662   6.139  0.2458  0.5683  0.5028
  110MOL0     H14458   5.209   5.824   6.153  0.4596 -0.0985  0.3209
  110MOL0     H14459   5.147   5.685   6.399  2.1500 -0.7613 -0.4535
  110MOL0     H14460   5.140   5.555   6.292  1.2253 -0.2455  0.4743
  110MOL0     H14461   4.996   5.667   6.145 -0.4936 -1.6955  1.1465
  110MOL0     H14462   5.000   5.820   6.235 -1.5233 -0.4324 -0.6248
  110MOL0     H14463   4.882   5.569   6.349 -3.4926  1.1949  2.7789
  110MOL0     H14464   4.916   5.730   6.428  3.0669  0.1414  0.1076
  110MOL0     H14465   4.731   5.669   6.179 -2.5599  0.0380  0.2824
  110MOL0     H14466   4.746   5.831   6.250 -1.4990 -0.3838 -0.3464
  110MOL0     H14467   4.653   5.702   6.471 -1.2756 -1.0525  0.2698
  110MOL0     H14468   4.605   5.584   6.348 -0.3479  0.3161 -0.2664
  110MOL0     H14469   4.447   5.783   6.425  1.1078 -2.1563  0.4748
  110MOL0     H14470   4.544   5.884   6.313 -0.1613 -0.2177 -0.3420
  110MOL0     H14471   4.378   5.634   6.262  3.5689 -1.2928 -0.1427
  110MOL0     H14472   4.470   5.724   6.136  0.3498  0.5580  0.2953
  110MOL0     H14473   4.394   6.013   6.149 -2.3033  2.0334  0.2579
  110MOL0     H14474   4.018   6.101   6.065 -0.9865  0.1833 -2.0464
  110MOL0     H14475   4.160   6.076   5.957  0.2383 -1.0034  0.3954
  110MOL0     H14476   4.279   6.216   6.158 -0.6947  2.1834  0.7527
  110MOL0     H14477   4.114   6.262   6.196 -0.8504  0.0079 -0.3796
  110MOL0     H14478   4.109   6.326   5.942 -3.1014  0.8934  1.7118
  110MOL0     H14479   4.180   6.424   6.078  0.7212  0.1107 -0.6479
  110MOL0     H14480   4.359   6.223   5.955 -0.5254 -0.1826  0.3690
  110MOL0     H14481   4.397   6.394   5.989  0.8307  0.6665 -1.0899
  110MOL0     H14482   4.316   6.313   5.540  0.5073 -2.4596 -2.1724
  110MOL0     H14483   4.489   6.256   5.396  0.7127  0.2934  0.1049
  110MOL0     H14484   5.068   6.428   5.504 -0.4109  0.3852  1.3013
  110MOL0     H14485   5.281   6.357   5.402 -1.8964  1.1656 -2.1328
  110MOL0     H14486   5.470   6.283   5.356  0.6727 -0.5253 -1.1934
  110MOL0     H14487   5.400   6.263   5.206 -1.4577 -1.4865 -1.2236
  110MOL0     H14488   5.576   6.102   5.130  0.1530  1.6892 -1.1889
  110MOL0     H14489   5.619   6.070   5.299 -4.8572 -3.7878 -0.9971
  110MOL0     H14490   5.712   6.299   5.329  0.2238  1.3768 -0.9878
  110MOL0     H14491   5.658   6.343   5.166 -0.4329  1.5566  2.0665
  110MOL0     H14492   5.840   6.114   5.197  0.7906 -0.2951 -0.8219
  110MOL0     H14493   5.787   6.200   5.050 -0.4010  2.0635  0.1794
  110MOL0     H14494   5.960   6.313   5.287 -0.4476  2.1789  0.5050
  110MOL0     H14495   5.897   6.408   5.153 -2.9594 -0.6088 -0.4789
  110MOL0     H14496   6.005   6.261   4.995 -1.4656  1.8963 -0.2592
  110MOL0     H14497   6.080   6.175   5.135  2.0781  1.4457  1.3855
  110MOL0     H14498   6.123   6.476   5.053 -1.7588 -0.4429 -0.5245
  110MOL0     H14499   6.166   6.411   5.208  1.9661 -0.3719  0.4744
  110MOL0     H14500   6.287   6.323   4.949  2.5273  1.1996 -0.4646
  110MOL0     H14501   6.317   6.250   5.104 -2.3235 -1.9059 -1.1141
  110MOL0     H14502   5.148   5.940   5.385 -1.4168 -0.2699  1.7299
  110MOL0     H14503   4.949   6.008   5.493  1.1211 -0.8552  0.7863
  110MOL0     H14504   4.750   6.263   5.750 -1.1001 -0.0878  1.8656
  110MOL0     H14505   4.581   6.299   5.883  0.4242 -0.1478 -0.1768
  110MOL0     H14506   5.539   5.715   6.442 -2.7858 -1.8953 -1.1884
  110MOL0     H14507   5.782   5.718   6.383 -1.1642 -1.0044  1.3490
  110MOL0     H14508   6.149   5.795   6.186  0.8011 -2.8748  0.2969
  110MOL0     H14509   6.375   5.840   6.088 -0.9654  0.3641  0.9825
  110MOL0     H14510   6.530   5.973   5.749 -1.8426  1.6752  2.9718
  110MOL0     H14511   6.369   5.929   5.692  0.8132  1.3245 -0.0905
  110MOL0     H14512   6.464   5.722   5.582 -0.8887  0.7915 -2.6654
  110MOL0     H14513   6.534   5.869   5.521  2.7219  1.1400  0.4401
  110MOL0     H14514   6.694   5.666   5.597  1.2293 -0.3412  0.8434
  110MOL0     H14515   6.692   5.754   5.746 -0.6603  2.0345  1.0058
  110MOL0     H14516   6.748   5.888   5.470  1.7826 -1.1003  0.2898
  110MOL0     H14517   6.793   5.949   5.626 -2.2946 -0.7599 -0.5714
  110MOL0     H14518   7.116   5.681   5.550  2.0566  3.9593 -1.0555
  110MOL0     H14519   6.256   5.693   5.700 -1.7112 -0.6055 -0.3569
  110MOL0     H14520   6.022   5.646   5.800  0.5089 -0.3172  0.2194
  111MOL0     O14521   5.371   7.999   5.510  0.2251  0.4310 -0.6768
  111MOL0     C14522   5.465   7.920   5.532 -0.4039 -0.0597 -0.0378
  111MOL0     O14523   5.453   7.785   5.520  0.1436  0.5403 -0.0393
  111MOL0     C14524   5.331   7.747   5.477  0.1878 -0.7736 -0.2133
  111MOL0     C14525   5.299   7.782   5.347  0.1827  0.8246  0.5992
  111MOL0     C14526   5.167   7.769   5.305 -1.0695 -0.1953  0.3081
  111MOL0     C14527   5.064   7.725   5.392  0.4059  0.7100 -0.5156
  111MOL0     O14528   4.940   7.717   5.338  0.0013 -0.4473 -0.1849
  111MOL0     C14529   4.830   7.688   5.425  0.3860 -0.3044 -0.4278
  111MOL0     C14530   4.695   7.732   5.352  0.0889 -0.1081 -0.3008
  111MOL0     C14531   4.689   7.672   5.209 -1.0575 -0.0373  0.6337
  111MOL0     C14532   4.554   7.702   5.151  0.2342  0.7607 -0.3652
  111MOL0     C14533   4.533   7.655   5.013 -0.5062 -0.2462  0.2203
  111MOL0     C14534   4.517   7.501   4.999 -0.7272  1.3687  0.1558
  111MOL0     C14535   4.542   7.457   4.860 -0.2820  0.0398  0.7116
  111MOL0     C14536   4.470   7.317   4.834 -0.5879 -0.5835 -0.6872
  111MOL0     N14537   4.547   7.213   4.915 -0.1990 -0.3188 -0.8077
  111MOL0     C14538   4.682   7.201   4.904 -0.0933 -0.8129  0.0060
  111MOL0     C14539   4.724   7.121   5.003 -0.2190  0.2007  0.2055
  111MOL0     C14540   4.870   7.083   5.033  0.2588 -0.2519  0.0327
  111MOL0     C14541   4.881   6.955   5.120  0.2598 -0.1023  0.6876
  111MOL0     C14542   4.875   6.825   5.032  0.8002  0.2075  0.8004
  111MOL0     C14543   4.726   6.788   4.998 -0.0967  0.3547  0.0165
  111MOL0     O14544   4.729   6.668   4.934  0.3385  0.2346  0.3844
  111MOL0     C14545   4.605   6.613   4.920 -0.5816 -0.2212 -0.0195
  111MOL0     C14546   4.523   6.668   4.822  0.3134 -0.7207  0.2442
  111MOL0     C14547   4.391   6.620   4.811 -0.4153 -0.3929  0.0002
  111MOL0     C14548   4.338   6.535   4.908  1.2768 -1.0409  0.2717
  111MOL0     C14549   4.194   6.498   4.901 -1.2348  0.3992 -0.0753
  111MOL0     O14550   4.125   6.569   4.808  0.3070  0.2522 -0.8135
  111MOL0     C14551   3.994   6.565   4.832  0.1069 -0.3343  0.0831
  111MOL0     C14552   3.946   6.635   4.944  1.0271 -0.2719  0.5851
  111MOL0     C14553   3.807   6.633   4.984  0.8238  0.6107 -0.0683
  111MOL0     C14554   3.716   6.567   4.900 -0.3452 -0.2596 -0.3502
  111MOL0     O14555   3.583   6.581   4.928  0.1143  0.2086 -0.0572
  111MOL0     C14556   3.485   6.504   4.857 -0.3986  0.0304 -0.5638
  111MOL0     C14557   3.346   6.534   4.907 -0.1835  0.0939  0.2454
  111MOL0     C14558   3.247   6.446   4.831  0.3802  0.3798 -0.8684
  111MOL0     C14559   3.097   6.444   4.876 -0.3485 -0.0756 -0.2377
  111MOL0     C14560   3.024   6.385   4.758 -0.3578  0.1254 -0.0902
  111MOL0     C14561   2.876   6.382   4.768 -0.2616 -0.7719 -0.4091
  111MOL0     C14562   2.832   6.289   4.886 -0.4341  0.2620 -0.2010
  111MOL0     C14563   2.680   6.290   4.897 -0.3532  0.1231 -0.4982
  111MOL0    Cl14564   2.597   6.222   4.749 -0.0647  0.0091  0.5136
  111MOL0     C14565   3.761   6.495   4.787 -0.9471 -0.4436 -0.2093
  111MOL0     C14566   3.901   6.491   4.760 -0.5328  0.4886  0.4184
  111MOL0     O14567   4.144   6.421   4.983 -0.6507  0.3556 -1.1106
  111MOL0     C14568   4.412   6.489   5.014 -0.3279  0.3336  0.7078
  111MOL0     C14569   4.543   6.541   5.015  0.1940  0.4420 -0.4230
  111MOL0     N14570   4.606   7.088   5.080 -1.6698  0.3303  0.3703
  111MOL0     N14571   4.506   7.148   5.029 -0.1197  0.4942  0.5393
  111MOL0     C14572   5.104   7.691   5.525 -0.1123 -0.0074 -0.6750
  111MOL0     C14573   5.240   7.700   5.568 -0.5121 -0.2464  0.0534
  111MOL0     C14574   5.596   7.981   5.561 -0.2816  0.0627 -0.2441
  111MOL0     C14575   5.697   7.904   5.616 -0.1532  0.7332 -0.0519
  111MOL0     C14576   5.820   7.964   5.643 -0.0358 -0.2726  0.3523
  111MOL0     C14577   5.852   8.095   5.613  0.2786 -0.2105 -1.0421
  111MOL0     O14578   5.967   8.168   5.629 -0.0394 -0.8536 -0.5849
  111MOL0     C14579   6.058   8.117   5.721  0.7292 -0.0863 -0.5136
  111MOL0     C14580   6.193   8.163   5.678  0.0709  0.1181 -0.6264
  111MOL0     C14581   6.302   8.112   5.772 -0.2455  0.7034  0.0251
  111MOL0     C14582   6.437   8.188   5.756  0.1312  0.2659  0.0884
  111MOL0     C14583   6.544   8.150   5.846 -0.1827  0.0713 -0.4572
  111MOL0     C14584   6.637   8.119   5.922 -0.6041  0.4921  0.9088
  111MOL0     C14585   5.757   8.168   5.554  0.6571  0.0144  0.4391
  111MOL0     C14586   5.624   8.114   5.537  0.2192  0.4466 -0.5068
  111MOL0     H14587   5.378   7.826   5.287  0.1876  1.1420  0.8378
  111MOL0     H14588   5.132   7.795   5.206 -3.0032  1.3281  1.3161
  111MOL0     H14589   4.840   7.742   5.519  1.9623 -0.3216 -0.5603
  111MOL0     H14590   4.826   7.579   5.438 -2.2153 -0.7228 -3.4408
  111MOL0     H14591   4.687   7.841   5.346 -0.7399 -0.2161 -1.5004
  111MOL0     H14592   4.606   7.705   5.411  0.4998  1.2427  1.0115
  111MOL0     H14593   4.724   7.569   5.217  3.5738  1.0818 -1.7634
  111MOL0     H14594   4.765   7.726   5.152  0.0718 -2.7296 -0.5654
  111MOL0     H14595   4.476   7.659   5.214 -1.1252  1.1541 -1.7451
  111MOL0     H14596   4.539   7.810   5.145  0.2993  0.6946 -2.0966
  111MOL0     H14597   4.613   7.693   4.948 -1.0801 -0.4249 -0.6090
  111MOL0     H14598   4.440   7.698   4.974 -1.6182 -2.8638 -0.2080
  111MOL0     H14599   4.420   7.465   5.036  0.6154 -2.7011  0.2107
  111MOL0     H14600   4.584   7.443   5.062 -1.3347 -0.6622 -0.9809
  111MOL0     H14601   4.502   7.524   4.783  0.1739 -1.0247 -0.4838
  111MOL0     H14602   4.651   7.453   4.845 -0.1497  3.2669 -0.0917
  111MOL0     H14603   4.478   7.273   4.734 -0.8952  3.2709 -2.5729
  111MOL0     H14604   4.365   7.317   4.867 -0.3336  2.7845  0.4762
  111MOL0     H14605   4.740   7.262   4.835 -0.7284 -0.0578  0.1220
  111MOL0     H14606   4.922   7.164   5.085  2.0333 -1.0461 -0.4023
  111MOL0     H14607   4.913   7.065   4.933 -2.3659 -0.4058 -1.1609
  111MOL0     H14608   4.807   6.956   5.201  1.0462 -0.2470  1.4251
  111MOL0     H14609   4.975   6.952   5.176  0.8570 -1.8422 -0.3600
  111MOL0     H14610   4.928   6.850   4.940  1.3759 -1.4972  0.6413
  111MOL0     H14611   4.929   6.737   5.069 -1.1987 -0.7824  1.4964
  111MOL0     H14612   4.667   6.860   4.939 -2.1146 -1.2246  0.0043
  111MOL0     H14613   4.671   6.793   5.093  0.1191 -3.0186  0.4078
  111MOL0     H14614   4.562   6.736   4.747  0.6861 -3.2002 -1.9685
  111MOL0     H14615   4.336   6.666   4.730  2.4865  1.9982 -0.8014
  111MOL0     H14616   4.014   6.691   5.008 -0.2464 -0.3975  2.1050
  111MOL0     H14617   3.783   6.690   5.073  0.4140  2.6029 -1.3775
  111MOL0     H14618   3.502   6.397   4.869  2.6974  0.3464 -1.2723
  111MOL0     H14619   3.496   6.538   4.754  0.4529  1.3426 -0.0740
  111MOL0     H14620   3.325   6.642   4.902 -0.6056 -0.0274 -0.7030
  111MOL0     H14621   3.352   6.506   5.012  2.1422  1.5898  0.5750
  111MOL0     H14622   3.272   6.340   4.840 -0.7651  0.1969  0.3109
  111MOL0     H14623   3.249   6.482   4.727 -0.0027  0.6744 -0.7741
  111MOL0     H14624   3.084   6.373   4.958  1.0203 -0.6442 -0.4833
  111MOL0     H14625   3.065   6.546   4.900 -0.1863  0.3501 -1.7022
  111MOL0     H14626   3.064   6.284   4.748  1.7617  0.8028  0.9223
  111MOL0     H14627   3.053   6.447   4.672  1.2924 -1.1876 -0.5264
  111MOL0     H14628   2.823   6.349   4.678 -0.7738  0.0859 -0.4351
  111MOL0     H14629   2.842   6.485   4.783 -3.1555 -1.5734 -0.7826
  111MOL0     H14630   2.847   6.184   4.861 -1.0855  0.0113  0.4146
  111MOL0     H14631   2.883   6.299   4.983 -1.3598 -1.0060  0.4412
  111MOL0     H14632   2.648   6.393   4.916  1.1101  0.5545 -0.2975
  111MOL0     H14633   2.640   6.226   4.976 -1.5312  2.3225  0.7760
  111MOL0     H14634   3.702   6.435   4.719  1.2984 -3.0455 -0.0102
  111MOL0     H14635   3.943   6.428   4.682 -0.8113  0.6861  0.1069
  111MOL0     H14636   4.384   6.439   5.106 -0.2627  2.4927  1.9731
  111MOL0     H14637   4.609   6.523   5.099  0.8569 -1.4932 -1.2893
  111MOL0     H14638   5.033   7.665   5.603  0.0621  3.3429  0.8006
  111MOL0     H14639   5.270   7.675   5.670 -2.7410 -0.0131  0.8314
  111MOL0     H14640   5.665   7.805   5.647 -1.3245  1.7060  2.0261
  111MOL0     H14641   5.890   7.899   5.694  0.2702 -1.6134 -1.6863
  111MOL0     H14642   6.060   8.007   5.718 -0.9201 -0.1275 -2.7330
  111MOL0     H14643   6.037   8.152   5.822 -0.0428  1.0289 -1.0484
  111MOL0     H14644   6.220   8.123   5.580  0.8258 -0.1195 -0.3266
  111MOL0     H14645   6.204   8.272   5.686  0.9126 -0.0359  0.5595
  111MOL0     H14646   6.321   8.007   5.747 -0.1504  0.3949  1.3427
  111MOL0     H14647   6.268   8.123   5.875 -0.4592  1.9544 -0.1621
  111MOL0     H14648   6.472   8.187   5.652  1.4789  1.8602  0.4765
  111MOL0     H14649   6.415   8.292   5.781  1.1102  0.6740 -0.7011
  111MOL0     H14650   6.713   8.094   5.993 -1.0336 -0.9979  0.8804
  111MOL0     H14651   5.778   8.272   5.531  3.1007 -0.9008 -2.0919
  111MOL0     H14652   5.544   8.172   5.493 -1.4434 -2.7608 -2.0759
  112MOL0     O14653   9.150   4.802   0.644  0.0820 -0.2278  0.8508
  112MOL0     C14654   9.077   4.791   0.744 -0.1752  1.0025  1.1087
  112MOL0     O14655   8.938   4.799   0.747  0.1523  0.0928 -0.0715
  112MOL0     C14656   8.855   4.852   0.648 -0.1829  0.2113  0.0570
  112MOL0     C14657   8.885   4.873   0.513  0.2397 -0.2848 -1.4687
  112MOL0     C14658   8.792   4.935   0.428  0.1169 -0.6210 -0.3657
  112MOL0     C14659   8.671   4.975   0.487  0.3351 -0.3619  0.0915
  112MOL0     O14660   8.573   5.044   0.415 -0.5587  0.3301 -0.3798
  112MOL0     C14661   8.614   5.116   0.303 -1.0207 -0.4837  0.6848
  112MOL0     C14662   8.522   5.242   0.284 -0.1875  0.4698 -0.0780
  112MOL0     C14663   8.550   5.326   0.162  0.2664  1.0386  0.0714
  112MOL0     C14664   8.460   5.448   0.155  0.2073  0.8119  0.4794
  112MOL0     C14665   8.518   5.551   0.054  0.3764  0.0248 -0.9321
  112MOL0     C14666   8.499   5.517  -0.099  0.0790  1.3239 -0.2983
  112MOL0     C14667   8.586   5.614  -0.180  1.2039 -0.1030  0.5369
  112MOL0     C14668   8.564   5.602  -0.332  0.1406  0.3903 -0.1127
  112MOL0     N14669   8.428   5.637  -0.382  0.2230 -0.1191  0.3662
  112MOL0     C14670   8.329   5.708  -0.326 -0.8841  0.2026 -0.2193
  112MOL0     C14671   8.226   5.699  -0.408  0.4439  0.5582  0.9577
  112MOL0     C14672   8.090   5.755  -0.375 -0.3396 -0.5857 -0.2895
  112MOL0     C14673   7.980   5.698  -0.471  0.0657 -0.5113 -0.4378
  112MOL0     C14674   7.845   5.782  -0.446 -0.2284 -0.5019 -0.2797
  112MOL0     C14675   7.746   5.738  -0.558  0.1555 -0.0635 -0.4534
  112MOL0     O14676   7.612   5.781  -0.531 -0.1998  0.2983  0.2132
  112MOL0     C14677   7.521   5.676  -0.554 -0.1675  0.4446  0.0029
  112MOL0     C14678   7.423   5.644  -0.462 -0.2958 -0.2174 -0.5304
  112MOL0     C14679   7.326   5.548  -0.494  0.4945 -0.2453 -0.5022
  112MOL0     C14680   7.314   5.489  -0.627  0.1313  0.4239  0.0255
  112MOL0     C14681   7.200   5.379  -0.649 -0.2820 -0.7471 -0.6788
  112MOL0     O14682   7.169   5.327  -0.771  0.2026 -0.3675 -0.0162
  112MOL0     C14683   7.045   5.266  -0.777  0.4825 -0.5964 -0.3452
  112MOL0     C14684   6.924   5.329  -0.730  0.4769  0.0802 -0.0770
  112MOL0     C14685   6.798   5.267  -0.737 -0.1253 -0.6438 -0.0019
  112MOL0     C14686   6.779   5.151  -0.804  0.5597 -0.2783 -0.2617
  112MOL0     O14687   6.653   5.106  -0.788  0.0491 -0.3574  0.3380
  112MOL0     C14688   6.617   4.985  -0.869 -0.5753 -0.3520  0.2389
  112MOL0     C14689   6.467   4.988  -0.900  0.0935  0.5417 -0.2104
  112MOL0     C14690   6.380   4.950  -0.780 -1.0451  0.5636  0.2823
  112MOL0     C14691   6.235   4.993  -0.798  0.3111  0.4221 -0.0048
  112MOL0     C14692   6.155   4.892  -0.873  0.2026  0.4324  0.1689
  112MOL0     C14693   6.011   4.927  -0.866  0.5123 -1.2007 -0.0820
  112MOL0     C14694   5.965   5.006  -0.990 -0.3825 -0.0624 -0.4460
  112MOL0     C14695   5.935   4.916  -1.106  0.5264  0.0341  0.8571
  112MOL0    Cl14696   5.905   5.001  -1.257 -0.4148  0.0672  0.1047
  112MOL0     C14697   6.891   5.086  -0.858 -1.4454 -1.2020  0.0997
  112MOL0     C14698   7.018   5.142  -0.844 -0.8803  0.1255  0.0495
  112MOL0     O14699   7.139   5.351  -0.546 -0.6233  0.4202  0.0332
  112MOL0     C14700   7.406   5.538  -0.721 -0.4067  0.1510  0.1266
  112MOL0     C14701   7.514   5.620  -0.681 -0.2888 -0.0770 -0.0393
  112MOL0     N14702   8.259   5.621  -0.520  0.5512 -0.0497 -1.3945
  112MOL0     N14703   8.380   5.597  -0.504  0.3013  0.3217 -1.0328
  112MOL0     C14704   8.641   4.950   0.620  1.2704  0.6293  0.6319
  112MOL0     C14705   8.737   4.892   0.697 -0.3305  0.7598 -0.6953
  112MOL0     C14706   9.132   4.725   0.862  0.3521 -0.2620 -0.0002
  112MOL0     C14707   9.061   4.735   0.985 -0.1959  0.0266 -0.5582
  112MOL0     C14708   9.107   4.685   1.101  0.2020 -0.6774  0.1571
  112MOL0     C14709   9.224   4.614   1.107 -0.5868  0.0073 -0.0855
  112MOL0     O14710   9.259   4.549   1.220 -0.2234  0.3620  0.0600
  112MOL0     C14711   9.191   4.551   1.341  0.5430 -0.4016 -0.0716
  112MOL0     C14712   9.255   4.451   1.441  0.7913  0.5476  0.1378
  112MOL0     C14713   9.236   4.309   1.386 -0.1846  0.3546 -0.0444
  112MOL0     C14714   9.285   4.200   1.476 -0.1523  0.4820 -0.1815
  112MOL0     C14715   9.243   4.201   1.614 -0.5113  0.0060  0.7659
  112MOL0     C14716   9.213   4.206   1.734  0.4619 -0.6291 -0.3849
  112MOL0     C14717   9.302   4.614   0.992 -0.0094  0.3745  0.2745
  112MOL0     C14718   9.258   4.663   0.869  0.1249  0.4442 -0.8044
  112MOL0     H14719   8.982   4.852   0.469 -1.3244 -3.0565 -3.9739
  112MOL0     H14720   8.819   4.963   0.327  3.3424 -1.4980  0.1507
  112MOL0     H14721   8.616   5.049   0.216  2.7973 -0.2498  0.3847
  112MOL0     H14722   8.717   5.146   0.326 -0.8571  0.6344 -1.2287
  112MOL0     H14723   8.525   5.304   0.374 -3.6461 -2.2708  2.1884
  112MOL0     H14724   8.419   5.206   0.277 -0.1390  0.5843 -1.7767
  112MOL0     H14725   8.533   5.260   0.076  0.3618 -0.2139  0.9988
  112MOL0     H14726   8.657   5.348   0.156  0.9574 -2.1712 -1.5781
  112MOL0     H14727   8.359   5.419   0.123  0.0888 -0.4256  1.8676
  112MOL0     H14728   8.446   5.485   0.257  4.2655  0.2482  1.4347
  112MOL0     H14729   8.625   5.548   0.076  0.2396 -3.8900 -0.0263
  112MOL0     H14730   8.475   5.649   0.075  0.9247  0.1232 -0.2324
  112MOL0     H14731   8.390   5.518  -0.116  0.0606 -0.1155 -0.3719
  112MOL0     H14732   8.527   5.415  -0.125 -4.3289 -0.9166  2.4886
  112MOL0     H14733   8.573   5.716  -0.144  0.9693  0.7018 -1.6604
  112MOL0     H14734   8.690   5.581  -0.171  1.2837 -0.2242 -0.6393
  112MOL0     H14735   8.596   5.507  -0.374  0.8492  1.4410 -2.0741
  112MOL0     H14736   8.631   5.678  -0.374  2.2437 -0.5896  1.3054
  112MOL0     H14737   8.335   5.752  -0.227  0.1199 -0.4849  0.0465
  112MOL0     H14738   8.092   5.863  -0.388 -2.4472 -0.3669  0.9435
  112MOL0     H14739   8.063   5.726  -0.273  0.4344 -1.0851 -0.2141
  112MOL0     H14740   7.955   5.593  -0.456  3.4017 -1.5027 -1.0161
  112MOL0     H14741   8.018   5.712  -0.573 -1.6501  0.8565 -0.9434
  112MOL0     H14742   7.814   5.757  -0.344  0.5924 -2.2224 -0.4063
  112MOL0     H14743   7.856   5.890  -0.448 -1.6751 -0.3456 -0.9349
  112MOL0     H14744   7.749   5.629  -0.572 -0.6797  0.3042 -4.8896
  112MOL0     H14745   7.768   5.786  -0.653  0.4010  2.1072  0.6330
  112MOL0     H14746   7.431   5.694  -0.366  0.3105  3.1789 -2.1989
  112MOL0     H14747   7.263   5.508  -0.415  0.3289 -0.5222 -0.7741
  112MOL0     H14748   6.919   5.420  -0.671 -1.0078  0.3763 -0.6131
  112MOL0     H14749   6.717   5.326  -0.696 -1.0608 -1.3298 -0.8053
  112MOL0     H14750   6.645   4.888  -0.826 -2.9591 -1.2241 -0.0100
  112MOL0     H14751   6.661   4.982  -0.969 -2.4966 -1.3142 -0.6200
  112MOL0     H14752   6.436   4.919  -0.979  0.1442 -0.7689  0.8644
  112MOL0     H14753   6.446   5.092  -0.924  1.3350  1.0069  0.6167
  112MOL0     H14754   6.427   4.991  -0.691  3.0302 -3.2557  0.2408
  112MOL0     H14755   6.385   4.844  -0.753  1.8881  0.8765  1.3777
  112MOL0     H14756   6.193   5.004  -0.697 -0.5609 -1.6948 -0.0937
  112MOL0     H14757   6.243   5.090  -0.847  0.8494  0.5343  0.2833
  112MOL0     H14758   6.158   4.793  -0.827 -4.4100 -0.2745 -0.5623
  112MOL0     H14759   6.191   4.884  -0.977  2.7976 -0.8907  1.0682
  112MOL0     H14760   5.985   4.991  -0.782 -1.3959 -0.9432 -0.8315
  112MOL0     H14761   5.944   4.841  -0.857 -3.1676  0.9993 -3.1357
  112MOL0     H14762   5.880   5.071  -0.967 -1.2771 -0.7411 -1.6878
  112MOL0     H14763   6.045   5.071  -1.027 -1.0959  1.3999  0.4853
  112MOL0     H14764   5.851   4.851  -1.080  2.3582 -1.8469  2.5028
  112MOL0     H14765   6.019   4.848  -1.120 -1.0755 -2.0800  1.1210
  112MOL0     H14766   6.889   4.990  -0.908  1.0688 -0.6880 -1.1399
  112MOL0     H14767   7.099   5.075  -0.872 -1.2469 -0.7473  1.0086
  112MOL0     H14768   7.391   5.496  -0.820 -2.4959  3.1284 -0.9956
  112MOL0     H14769   7.581   5.657  -0.759 -0.7581 -0.8145 -0.8103
  112MOL0     H14770   8.556   4.993   0.673  0.0922 -1.1594  0.2939
  112MOL0     H14771   8.723   4.866   0.802  0.6697  0.1428 -0.6964
  112MOL0     H14772   8.967   4.789   0.996 -0.9706 -1.8254  3.6516
  112MOL0     H14773   9.051   4.696   1.193  0.7990 -0.5393  0.5098
  112MOL0     H14774   9.088   4.519   1.327  0.7536 -1.3462  0.4277
  112MOL0     H14775   9.193   4.650   1.387  2.4913 -0.7117  0.6070
  112MOL0     H14776   9.361   4.473   1.452  0.8838  2.7567 -3.6020
  112MOL0     H14777   9.204   4.460   1.538  0.5270  0.4802  0.0053
  112MOL0     H14778   9.289   4.291   1.292  4.4563  1.1319  2.1323
  112MOL0     H14779   9.130   4.289   1.372 -0.1105 -0.2458  0.2170
  112MOL0     H14780   9.252   4.103   1.437 -0.7035  0.8506 -0.6577
  112MOL0     H14781   9.393   4.207   1.466  0.1533 -1.7278  0.9542
  112MOL0     H14782   9.189   4.203   1.839  1.3543  3.4976  0.1176
  112MOL0     H14783   9.393   4.556   1.001 -0.0439  0.0272 -1.3747
  112MOL0     H14784   9.320   4.642   0.783  0.0978  0.8628 -0.9299
  113MOL0     O14785   9.691   9.364   3.641  0.3661  0.4521  0.2129
  113MOL0     C14786   9.651   9.327   3.751 -0.6212 -0.0134 -0.5548
  113MOL0     O14787   9.721   9.243   3.841 -0.3603 -0.6248 -0.3445
  113MOL0     C14788   9.846   9.192   3.819 -0.3430 -0.1822  0.1134
  113MOL0     C14789   9.946   9.239   3.730  0.1647  0.7508  0.7465
  113MOL0     C14790  10.069   9.168   3.709  0.7972  0.3271 -0.1962
  113MOL0     C14791  10.094   9.057   3.796  1.2510  0.8882  0.3940
  113MOL0     O14792  10.213   8.993   3.785 -0.4072  0.1730  0.3597
  113MOL0     C14793  10.330   9.068   3.791 -0.5427  0.7610  0.4660
  113MOL0     C14794  10.455   8.992   3.843  0.3403  0.8692  0.2049
  113MOL0     C14795  10.505   8.886   3.745 -0.1938  0.2104  0.3275
  113MOL0     C14796  10.607   8.784   3.801  0.3977 -0.0387  0.8450
  113MOL0     C14797  10.747   8.845   3.814  0.0306 -0.7330 -0.5324
  113MOL0     C14798  10.845   8.731   3.826  0.2269  0.0643 -0.4767
  113MOL0     C14799  10.975   8.740   3.750 -0.2931  0.5070 -0.8636
  113MOL0     C14800  11.063   8.626   3.781 -0.2021  1.0146  0.4895
  113MOL0     N14801  11.139   8.634   3.907 -0.0282  0.5827 -0.2973
  113MOL0     C14802  11.222   8.729   3.955  0.5192  0.0570  0.1428
  113MOL0     C14803  11.266   8.673   4.074  0.3245 -0.1482  0.0412
  113MOL0     C14804  11.364   8.731   4.175  0.6447  0.5343 -0.2583
  113MOL0     C14805  11.298   8.779   4.308  0.2389 -0.4643 -0.1832
  113MOL0     C14806  11.407   8.796   4.419  0.8801 -0.5120 -0.2447
  113MOL0     C14807  11.349   8.825   4.559  0.0410 -0.0077 -0.1525
  113MOL0     O14808  11.274   8.946   4.557  0.1979 -0.1306 -0.1059
  113MOL0     C14809  11.146   8.949   4.577  0.2041 -0.6852 -0.8034
  113MOL0     C14810  11.086   9.073   4.577 -0.5427 -0.1426 -0.1577
  113MOL0     C14811  10.948   9.092   4.579  0.9705  0.1654  0.3957
  113MOL0     C14812  10.868   8.978   4.598  0.5757  0.7074 -0.4447
  113MOL0     C14813  10.718   8.989   4.618  0.2960 -0.3183 -0.4362
  113MOL0     O14814  10.635   8.878   4.608 -0.1595 -0.8097 -0.1896
  113MOL0     C14815  10.499   8.886   4.625  0.0568 -0.9600  0.0994
  113MOL0     C14816  10.419   9.004   4.642 -0.6279  0.4131 -0.3646
  113MOL0     C14817  10.279   8.992   4.649 -0.4052 -0.3575 -0.1041
  113MOL0     C14818  10.218   8.876   4.639  0.4769  0.0780 -0.9816
  113MOL0     O14819  10.083   8.857   4.649 -0.3670 -0.1218  0.1907
  113MOL0     C14820  10.012   8.954   4.731 -0.1414  0.6138  0.9440
  113MOL0     C14821   9.874   8.884   4.735 -0.9192 -0.4674  0.6957
  113MOL0     C14822   9.770   8.988   4.771  0.1684 -0.0693 -0.4391
  113MOL0     C14823   9.640   8.913   4.813  0.0357  0.2276 -0.0274
  113MOL0     C14824   9.537   9.007   4.866  0.5543 -0.3936 -0.1959
  113MOL0     C14825   9.482   9.106   4.753 -0.0566  0.5166  0.2070
  113MOL0     C14826   9.368   9.188   4.807  0.3452 -0.2988 -0.7104
  113MOL0     C14827   9.248   9.111   4.869  0.5371 -0.2656 -0.3212
  113MOL0    Cl14828   9.109   9.217   4.846 -0.0502  0.2219 -0.2925
  113MOL0     C14829  10.297   8.764   4.624 -1.2560 -0.5239  0.9816
  113MOL0     C14830  10.442   8.762   4.621  0.4546 -0.5544  0.0479
  113MOL0     O14831  10.686   9.100   4.659 -0.6730  0.6653 -0.0226
  113MOL0     C14832  10.925   8.853   4.602 -0.4961 -0.7043  0.0003
  113MOL0     C14833  11.065   8.836   4.593  0.6599  0.4055 -0.7723
  113MOL0     N14834  11.212   8.552   4.095 -1.2954 -0.6751  0.3148
  113MOL0     N14835  11.135   8.526   3.993  0.1027  0.8058 -0.0130
  113MOL0     C14836   9.999   9.013   3.886 -0.1353  1.0965  0.5493
  113MOL0     C14837   9.886   9.089   3.902  1.2153 -0.0554  0.3444
  113MOL0     C14838   9.517   9.384   3.800  1.2624 -0.7362 -0.6588
  113MOL0     C14839   9.464   9.373   3.932 -0.6680 -0.1127  0.5784
  113MOL0     C14840   9.341   9.424   3.964  0.4789 -0.0720  0.3919
  113MOL0     C14841   9.265   9.488   3.870 -0.2626  0.5251 -0.3415
  113MOL0     O14842   9.147   9.532   3.921 -0.0829 -0.1677 -0.1446
  113MOL0     C14843   9.082   9.645   3.867  0.1367 -0.1554  0.1419
  113MOL0     C14844   8.941   9.618   3.841  0.5219 -0.3030  0.0256
  113MOL0     C14845   8.867   9.578   3.968  0.6869  0.0074  0.0178
  113MOL0     C14846   8.724   9.515   3.944  0.4873  0.8633  0.6285
  113MOL0     C14847   8.660   9.507   4.074  0.1584 -0.0899 -0.5588
  113MOL0     C14848   8.602   9.498   4.184 -0.4750 -0.4133  0.9274
  113MOL0     C14849   9.319   9.513   3.743 -0.0724 -1.3056  0.2786
  113MOL0     C14850   9.436   9.453   3.708 -0.7096 -0.9538  0.7518
  113MOL0     H14851   9.927   9.331   3.676 -1.5018 -0.2332 -0.4701
  113MOL0     H14852  10.151   9.193   3.642  2.0075 -1.3313  0.5881
  113MOL0     H14853  10.306   9.151   3.857 -0.5938  0.6098  0.6378
  113MOL0     H14854  10.353   9.118   3.696 -1.6139 -1.3453 -1.0015
  113MOL0     H14855  10.432   8.934   3.933  1.2074  2.4663  1.4974
  113MOL0     H14856  10.540   9.059   3.857  3.1528 -2.4225  0.2911
  113MOL0     H14857  10.539   8.931   3.651  0.3811 -1.0512 -0.0825
  113MOL0     H14858  10.418   8.828   3.716  1.5549 -1.9165 -0.9150
  113MOL0     H14859  10.573   8.749   3.898 -0.7793 -2.0002 -0.2102
  113MOL0     H14860  10.612   8.700   3.731 -0.7649 -0.1436  0.8741
  113MOL0     H14861  10.746   8.898   3.909 -0.5253 -2.5608  0.5321
  113MOL0     H14862  10.779   8.906   3.728  1.2894  1.6953  1.5276
  113MOL0     H14863  10.797   8.636   3.801 -1.6473 -0.0331  2.9335
  113MOL0     H14864  10.860   8.713   3.933  1.8975 -3.1892 -1.1319
  113MOL0     H14865  10.942   8.742   3.646 -1.0096 -0.5434 -0.6755
  113MOL0     H14866  11.024   8.835   3.773 -0.6148  0.7077 -1.0052
  113MOL0     H14867  11.137   8.617   3.701 -1.3181 -1.2157 -0.3722
  113MOL0     H14868  11.005   8.533   3.773 -0.0061  0.8475  1.0005
  113MOL0     H14869  11.242   8.829   3.916 -0.8364  0.6906  0.9828
  113MOL0     H14870  11.423   8.813   4.133 -0.5795  0.1372 -2.9880
  113MOL0     H14871  11.431   8.649   4.201  0.5948  0.8858  1.0397
  113MOL0     H14872  11.222   8.710   4.346  1.4930 -0.9272  1.6249
  113MOL0     H14873  11.238   8.869   4.296  2.1416  1.1343  1.5802
  113MOL0     H14874  11.459   8.700   4.426  0.9185 -0.5283 -0.6997
  113MOL0     H14875  11.477   8.872   4.382 -0.3937  0.5618 -0.5183
  113MOL0     H14876  11.430   8.838   4.631 -0.9468 -1.2196  1.2338
  113MOL0     H14877  11.293   8.738   4.595  1.3785 -1.3966 -1.2783
  113MOL0     H14878  11.138   9.167   4.564 -2.5771  1.3515  1.7397
  113MOL0     H14879  10.900   9.189   4.576  0.6316  0.0312 -3.7033
  113MOL0     H14880  10.458   9.104   4.625 -1.6153  1.1092  1.1852
  113MOL0     H14881  10.230   9.087   4.636  1.9379  0.6911 -2.3939
  113MOL0     H14882  10.012   9.047   4.674 -0.4717  0.0316 -0.0395
  113MOL0     H14883  10.043   8.978   4.833 -1.2123 -0.5064  1.5581
  113MOL0     H14884   9.880   8.803   4.809 -3.1930 -3.5069 -2.1174
  113MOL0     H14885   9.853   8.839   4.637 -0.5131 -1.1376  0.9085
  113MOL0     H14886   9.738   9.056   4.692 -2.7445 -1.2997 -0.4424
  113MOL0     H14887   9.811   9.041   4.858  0.3077  1.0471 -1.1618
  113MOL0     H14888   9.607   8.851   4.729  0.0517  1.9050 -1.3491
  113MOL0     H14889   9.666   8.847   4.895  0.7049  0.9024  0.3161
  113MOL0     H14890   9.571   9.067   4.951 -0.3433  0.0085 -0.1150
  113MOL0     H14891   9.458   8.939   4.901  1.4262 -1.2650  0.1426
  113MOL0     H14892   9.447   9.051   4.665  1.6627 -0.4478  0.1016
  113MOL0     H14893   9.563   9.167   4.712  0.4338 -1.4601 -1.9619
  113MOL0     H14894   9.400   9.266   4.876  3.1428 -2.1508  0.2710
  113MOL0     H14895   9.342   9.246   4.718 -1.6959  0.4534  0.3343
  113MOL0     H14896   9.257   9.092   4.976 -0.4732 -0.2609 -0.2232
  113MOL0     H14897   9.224   9.013   4.827 -0.1621 -0.1296 -0.2551
  113MOL0     H14898  10.245   8.672   4.599 -0.8691 -0.3265 -0.6960
  113MOL0     H14899  10.495   8.669   4.606  0.6272 -1.1341  3.5073
  113MOL0     H14900  10.870   8.760   4.606 -0.8585 -0.4750  0.6189
  113MOL0     H14901  11.093   8.733   4.610  2.7796  1.1392  0.6828
  113MOL0     H14902  10.000   8.917   3.938 -0.7916 -1.4910 -3.7796
  113MOL0     H14903   9.805   9.059   3.968 -0.5206  1.7887 -0.8453
  113MOL0     H14904   9.517   9.329   4.015 -0.4758 -1.4765 -0.2271
  113MOL0     H14905   9.303   9.404   4.064 -0.4750  2.6200  0.6509
  113MOL0     H14906   9.122   9.679   3.771  1.1131 -1.7285 -0.0580
  113MOL0     H14907   9.097   9.726   3.939  0.5951  0.6067 -0.7865
  113MOL0     H14908   8.894   9.712   3.812 -0.3432 -1.0481 -1.1008
  113MOL0     H14909   8.924   9.537   3.770 -0.3078  0.1278 -0.2800
  113MOL0     H14910   8.858   9.666   4.032 -0.0294 -1.6102  2.3105
  113MOL0     H14911   8.930   9.503   4.018  0.2650  0.4371  1.2491
  113MOL0     H14912   8.659   9.576   3.882  0.6855  1.2952  0.8431
  113MOL0     H14913   8.720   9.411   3.910 -1.7255 -0.2283  3.7454
  113MOL0     H14914   8.550   9.492   4.277 -1.2420  1.6577  0.6765
  113MOL0     H14915   9.267   9.571   3.668  1.0239 -0.7918 -0.1097
  113MOL0     H14916   9.459   9.469   3.603 -0.3491  1.5412  1.1458
  114MOL0     O14917   8.329  10.730   9.363 -0.3194 -0.7747  0.3342
  114MOL0     C14918   8.328  10.850   9.332 -0.0574 -0.5435  0.3091
  114MOL0     O14919   8.235  10.917   9.254  0.5420 -0.0136 -0.9066
  114MOL0     C14920   8.106  10.876   9.246  0.2978  0.8832  0.7325
  114MOL0     C14921   8.017  10.953   9.167 -0.3550  0.2673  0.1045
  114MOL0     C14922   7.880  10.925   9.161 -0.1897  1.1317  1.1372
  114MOL0     C14923   7.827  10.816   9.219  0.8619 -0.0525  0.1684
  114MOL0     O14924   7.691  10.791   9.205 -0.0417 -0.5689 -0.5320
  114MOL0     C14925   7.629  10.680   9.277 -0.3367  0.4392 -0.2160
  114MOL0     C14926   7.481  10.693   9.278  0.2640  0.0340 -0.0237
  114MOL0     C14927   7.415  10.683   9.142 -0.4745 -0.0822  0.1327
  114MOL0     C14928   7.269  10.692   9.163  0.5159  0.0152 -0.1732
  114MOL0     C14929   7.181  10.700   9.035  0.1936 -0.6374  0.1349
  114MOL0     C14930   7.027  10.695   9.053 -0.0949 -0.4276 -0.9458
  114MOL0     C14931   6.975  10.563   9.123  0.0945  0.5478  0.3895
  114MOL0     C14932   6.823  10.540   9.123  0.0016  0.3234  0.1117
  114MOL0     N14933   6.750  10.660   9.156 -0.2501 -0.7181 -0.8088
  114MOL0     C14934   6.742  10.721   9.284  0.1891 -0.2149  1.5984
  114MOL0     C14935   6.684  10.837   9.252 -0.3732 -0.0637  0.5301
  114MOL0     C14936   6.636  10.944   9.352  0.3164  0.2443  0.4768
  114MOL0     C14937   6.685  11.082   9.302 -0.2627 -0.5623 -0.0970
  114MOL0     C14938   6.677  11.201   9.403  0.2706 -0.7444 -0.6061
  114MOL0     C14939   6.539  11.239   9.460 -0.3477  0.6497 -0.6264
  114MOL0     O14940   6.519  11.147   9.569 -0.0194 -0.2706 -0.0847
  114MOL0     C14941   6.450  11.192   9.673  1.3952  0.8690  0.0924
  114MOL0     C14942   6.331  11.278   9.662 -0.6206 -1.3120 -0.5662
  114MOL0     C14943   6.250  11.316   9.770  0.0367 -0.0181  0.4058
  114MOL0     C14944   6.274  11.269   9.898 -0.2687  1.3174  0.3180
  114MOL0     C14945   6.181  11.306  10.006  0.4988 -0.8983  0.4896
  114MOL0     O14946   6.056  11.363   9.978  0.1497  0.1568  0.5886
  114MOL0     C14947   5.973  11.406  10.083  0.1643  0.0036  0.3863
  114MOL0     C14948   5.834  11.389  10.056  0.6326 -0.2701 -0.0631
  114MOL0     C14949   5.729  11.419  10.146 -0.0520 -0.1431  0.2218
  114MOL0     C14950   5.767  11.459  10.274 -0.9753  0.0440  0.1672
  114MOL0     O14951   5.684  11.458  10.381 -0.1119  0.3267 -0.3162
  114MOL0     C14952   5.544  11.462  10.354  0.1709 -0.3233 -0.5685
  114MOL0     C14953   5.462  11.495  10.480 -0.5579  0.3428  0.3159
  114MOL0     C14954   5.312  11.519  10.441 -0.5390 -0.4593 -0.0415
  114MOL0     C14955   5.256  11.398  10.366  0.0230  0.7366  0.4312
  114MOL0     C14956   5.108  11.421  10.324 -0.2358 -0.9874 -0.9182
  114MOL0     C14957   5.043  11.295  10.286  0.9509 -0.0851  0.1848
  114MOL0     C14958   4.902  11.336  10.221 -1.1731 -0.1729  0.8016
  114MOL0     C14959   4.817  11.203  10.194 -0.1326  0.0874  0.5446
  114MOL0    Cl14960   4.642  11.245  10.187 -0.2622  0.0537 -0.3682
  114MOL0     C14961   5.901  11.495  10.296  0.4051 -0.2327  0.1104
  114MOL0     C14962   6.005  11.469  10.204  0.7332  0.5250  0.1155
  114MOL0     O14963   6.238  11.306  10.116  0.0850 -0.3035 -0.0373
  114MOL0     C14964   6.389  11.182   9.915 -0.1181  0.4796 -1.1565
  114MOL0     C14965   6.473  11.140   9.807  0.0479  0.3832 -0.4152
  114MOL0     N14966   6.661  10.847   9.115 -0.0105 -0.3274 -0.6923
  114MOL0     N14967   6.698  10.739   9.061  0.1391  0.2281  0.3684
  114MOL0     C14968   7.909  10.742   9.302  0.3134  0.3209  0.0468
  114MOL0     C14969   8.046  10.770   9.319 -0.4841 -0.2371  0.8062
  114MOL0     C14970   8.457  10.920   9.350 -0.0231  0.3885 -0.1233
  114MOL0     C14971   8.481  11.049   9.297 -0.2751 -0.2447  0.1696
  114MOL0     C14972   8.604  11.117   9.316 -0.3642  0.3969  0.2388
  114MOL0     C14973   8.700  11.058   9.398 -0.7921  0.6165  0.0804
  114MOL0     O14974   8.814  11.123   9.439 -0.6297  0.4679  0.2968
  114MOL0     C14975   8.835  11.253   9.396 -0.0793  1.2421  0.5226
  114MOL0     C14976   8.942  11.323   9.467  0.3857 -0.5528 -0.2511
  114MOL0     C14977   8.892  11.358   9.611  0.0055 -0.1239 -0.1668
  114MOL0     C14978   8.985  11.457   9.694  0.5778  0.4808  0.5780
  114MOL0     C14979   9.132  11.414   9.703 -0.2588  0.4858  0.9697
  114MOL0     C14980   9.252  11.408   9.712  0.3402  1.3576 -0.9889
  114MOL0     C14981   8.690  10.921   9.428  0.0156 -0.1448 -0.2944
  114MOL0     C14982   8.571  10.855   9.409 -0.5316 -0.2110  0.1144
  114MOL0     H14983   8.058  11.039   9.114  0.5517 -1.6333 -2.4982
  114MOL0     H14984   7.823  10.983   9.089  1.0783 -3.2479 -4.0022
  114MOL0     H14985   7.663  10.676   9.380 -3.7115 -0.7002  0.9672
  114MOL0     H14986   7.647  10.583   9.229 -0.8369  0.6238 -0.7960
  114MOL0     H14987   7.448  10.786   9.325  1.4410 -0.2973  1.5551
  114MOL0     H14988   7.444  10.620   9.350 -1.9430  1.2612  0.1759
  114MOL0     H14989   7.436  10.586   9.096 -3.2262 -0.6886  0.0414
  114MOL0     H14990   7.453  10.759   9.072 -1.3111 -0.3529 -0.6320
  114MOL0     H14991   7.243  10.610   9.230 -2.5784  1.3548  0.4513
  114MOL0     H14992   7.237  10.785   9.211 -0.9839 -0.5398 -0.0475
  114MOL0     H14993   7.207  10.630   8.956  0.4824 -0.0986 -0.2559
  114MOL0     H14994   7.198  10.797   8.987 -2.8170  0.8650  1.8166
  114MOL0     H14995   6.975  10.694   8.957 -1.9624 -0.8253  0.0358
  114MOL0     H14996   6.991  10.784   9.105 -1.7600 -0.0420 -2.6887
  114MOL0     H14997   7.022  10.483   9.065 -0.9918 -0.1305  0.4041
  114MOL0     H14998   7.011  10.548   9.225  1.6765 -3.5644 -0.5724
  114MOL0     H14999   6.798  10.462   9.195 -0.7080  0.9643  0.5782
  114MOL0     H15000   6.792  10.501   9.026  0.9190 -0.0410 -0.0446
  114MOL0     H15001   6.765  10.687   9.384 -0.7512  0.9189  2.2284
  114MOL0     H15002   6.670  10.916   9.452  5.0765  1.1544 -0.6693
  114MOL0     H15003   6.527  10.952   9.350  0.4301  1.9917 -0.6483
  114MOL0     H15004   6.639  11.108   9.206 -3.8672  1.1470  1.8936
  114MOL0     H15005   6.794  11.075   9.291  0.0882  0.7057  1.9703
  114MOL0     H15006   6.737  11.170   9.489  0.1062 -1.3567 -0.7092
  114MOL0     H15007   6.722  11.290   9.357  1.5147 -0.9336  0.1857
  114MOL0     H15008   6.462  11.221   9.384 -1.9945 -1.7261  1.4320
  114MOL0     H15009   6.544  11.345   9.485  0.2308  0.0573  1.9671
  114MOL0     H15010   6.302  11.328   9.570 -0.7221  0.2261  0.2600
  114MOL0     H15011   6.168  11.379   9.736 -1.9657 -3.1018 -0.9481
  114MOL0     H15012   5.796  11.341   9.966 -1.8189  0.0036  0.7261
  114MOL0     H15013   5.627  11.389  10.128  0.7444 -2.6050 -0.5142
  114MOL0     H15014   5.519  11.364  10.312  0.1100 -0.7027  0.3400
  114MOL0     H15015   5.532  11.546  10.285 -0.9221 -0.6155 -0.7531
  114MOL0     H15016   5.503  11.577  10.539  0.2622 -0.6516  1.1695
  114MOL0     H15017   5.477  11.406  10.543 -1.5456 -0.3368 -0.3649
  114MOL0     H15018   5.300  11.608  10.378  0.8613 -0.7520 -0.7633
  114MOL0     H15019   5.251  11.544  10.528 -0.6720  3.4429 -1.0503
  114MOL0     H15020   5.320  11.379  10.279  0.6098  2.7792  0.3727
  114MOL0     H15021   5.262  11.312  10.434  1.9118  2.4979  2.6503
  114MOL0     H15022   5.106  11.502  10.250 -1.1171  1.5484  1.6683
  114MOL0     H15023   5.049  11.471  10.402 -0.2672 -0.4300 -1.2890
  114MOL0     H15024   5.040  11.225  10.370  1.3901  0.7696  0.9274
  114MOL0     H15025   5.095  11.246  10.204 -0.1070  1.2960 -1.3743
  114MOL0     H15026   4.857  11.405  10.293 -1.6868 -1.5069  1.7942
  114MOL0     H15027   4.913  11.389  10.125 -0.6082 -0.8622  0.4750
  114MOL0     H15028   4.832  11.122  10.266  1.0665  0.0069  0.2302
  114MOL0     H15029   4.854  11.172  10.096  1.5860  4.2393 -0.3374
  114MOL0     H15030   5.936  11.540  10.389  1.7801  0.2425 -0.6089
  114MOL0     H15031   6.106  11.503  10.225  0.6567  0.9604 -0.2086
  114MOL0     H15032   6.406  11.153  10.018 -1.8622 -0.8110 -1.1988
  114MOL0     H15033   6.547  11.064   9.828  1.0332  1.3619 -0.3061
  114MOL0     H15034   7.875  10.654   9.356 -3.8603 -0.0784 -2.7034
  114MOL0     H15035   8.104  10.714   9.391  3.3718  1.8528 -0.3827
  114MOL0     H15036   8.408  11.110   9.245 -0.6930  0.2189  1.2743
  114MOL0     H15037   8.628  11.205   9.258  0.5114 -1.0994 -1.7910
  114MOL0     H15038   8.742  11.311   9.401 -0.3279  0.9138 -0.1394
  114MOL0     H15039   8.865  11.252   9.291 -0.4100 -1.4126  0.4050
  114MOL0     H15040   9.027  11.254   9.472  1.2991  0.4532 -1.4189
  114MOL0     H15041   8.966  11.413   9.409 -0.1491 -0.2497 -0.0144
  114MOL0     H15042   8.880  11.264   9.665  0.6165 -1.4211 -2.1844
  114MOL0     H15043   8.794  11.406   9.603  0.9376  1.6299 -2.2598
  114MOL0     H15044   8.981  11.552   9.639  2.1567 -0.2408 -0.8849
  114MOL0     H15045   8.941  11.461   9.794  4.5354 -3.8342  2.8829
  114MOL0     H15046   9.358  11.393   9.712 -0.0290 -2.9657  0.5481
  114MOL0     H15047   8.769  10.865   9.477 -2.3824 -2.1862  1.4696
  114MOL0     H15048   8.558  10.756   9.452  0.3460 -0.8520 -1.0554
  115MOL0     O15049   8.730   5.353   7.711 -0.4019 -0.0116 -0.2689
  115MOL0     C15050   8.736   5.359   7.836  0.1887 -0.5089  0.1539
  115MOL0     O15051   8.650   5.420   7.925 -0.5613  0.8218 -0.3279
  115MOL0     C15052   8.544   5.477   7.871 -0.1822  0.1679 -0.3170
  115MOL0     C15053   8.545   5.615   7.848  0.4887  0.1896 -0.8559
  115MOL0     C15054   8.424   5.668   7.809  0.4635  0.4260  0.5419
  115MOL0     C15055   8.305   5.599   7.815 -0.4027 -0.6483 -0.3117
  115MOL0     O15056   8.194   5.667   7.784  0.3228 -0.4948  0.3276
  115MOL0     C15057   8.068   5.610   7.810 -0.0728  0.4499 -0.4838
  115MOL0     C15058   8.040   5.592   7.958 -0.2560  0.1502 -0.0891
  115MOL0     C15059   7.921   5.509   7.987  0.5436  0.0198  0.1371
  115MOL0     C15060   7.910   5.491   8.143  0.0287 -0.9773 -0.3100
  115MOL0     C15061   7.829   5.364   8.182  0.0264 -0.6998 -0.3399
  115MOL0     C15062   7.682   5.371   8.133  0.5930 -0.4332 -0.0445
  115MOL0     C15063   7.595   5.476   8.209  0.0607  0.1398  0.2779
  115MOL0     C15064   7.457   5.493   8.148  0.0266  1.1896 -0.1991
  115MOL0     N15065   7.369   5.567   8.241  1.0014  1.3289 -0.3230
  115MOL0     C15066   7.310   5.515   8.354 -0.4459 -0.1030  0.2230
  115MOL0     C15067   7.235   5.618   8.401  0.4002  1.0842 -0.8996
  115MOL0     C15068   7.152   5.619   8.522  0.2725  0.7577  0.7486
  115MOL0     C15069   7.006   5.573   8.507  0.3972 -0.2349  1.0077
  115MOL0     C15070   6.903   5.678   8.445  0.0965 -0.3637 -0.3509
  115MOL0     C15071   6.759   5.636   8.475 -0.7538  1.1954  0.2150
  115MOL0     O15072   6.738   5.642   8.619  0.4925 -0.9388 -0.1021
  115MOL0     C15073   6.618   5.613   8.674  0.5972  0.2961 -0.1915
  115MOL0     C15074   6.606   5.615   8.816 -0.3750 -0.1798  0.3072
  115MOL0     C15075   6.487   5.592   8.879 -0.2841  0.0501 -0.5114
  115MOL0     C15076   6.369   5.558   8.806  1.0251 -0.6172 -0.6165
  115MOL0     C15077   6.245   5.523   8.884 -0.3351 -0.8296  0.3735
  115MOL0     O15078   6.222   5.585   9.005  0.6683  0.7168  0.5349
  115MOL0     C15079   6.098   5.585   9.073  0.0358 -0.6614 -1.1950
  115MOL0     C15080   5.975   5.572   9.007  0.4222  0.4915 -0.5325
  115MOL0     C15081   5.862   5.569   9.079 -0.1645 -0.2368 -0.1789
  115MOL0     C15082   5.848   5.601   9.212 -0.6028  0.3812 -0.1219
  115MOL0     O15083   5.723   5.586   9.270 -0.4216  0.7316  0.2722
  115MOL0     C15084   5.701   5.646   9.400 -0.6509 -0.1017 -0.4866
  115MOL0     C15085   5.555   5.614   9.441  0.7144 -0.0000  0.6363
  115MOL0     C15086   5.451   5.675   9.347  0.2697 -0.0388  0.6118
  115MOL0     C15087   5.312   5.668   9.412  0.4103 -0.0487  0.6065
  115MOL0     C15088   5.205   5.698   9.305  0.0755  0.2572  0.0173
  115MOL0     C15089   5.069   5.704   9.367  0.4636  0.1247  0.2361
  115MOL0     C15090   4.959   5.723   9.258 -0.1962  0.1010 -0.5298
  115MOL0     C15091   4.816   5.729   9.308  0.3842 -0.1773  0.1268
  115MOL0    Cl15092   4.791   5.904   9.347  0.1846 -0.1032  0.2779
  115MOL0     C15093   5.970   5.638   9.280  0.6162  0.2617  0.9466
  115MOL0     C15094   6.085   5.625   9.208 -0.3157  0.4395 -0.4432
  115MOL0     O15095   6.191   5.420   8.840  0.1051 -0.0968 -0.3579
  115MOL0     C15096   6.377   5.558   8.664 -0.9229 -0.4217 -1.0211
  115MOL0     C15097   6.497   5.582   8.602  0.6196 -0.1550 -0.1582
  115MOL0     N15098   7.247   5.723   8.318 -0.5729 -0.1250  0.2957
  115MOL0     N15099   7.323   5.689   8.222  0.4179 -0.3239  0.5649
  115MOL0     C15100   8.312   5.458   7.817 -0.4289  1.0646 -0.3794
  115MOL0     C15101   8.435   5.395   7.841  0.2113 -1.1231  0.3363
  115MOL0     C15102   8.851   5.286   7.884 -0.3673 -0.3682 -0.1283
  115MOL0     C15103   8.876   5.289   8.025 -0.6280 -0.2059  0.6889
  115MOL0     C15104   9.002   5.251   8.072 -0.0204  0.4721 -0.8574
  115MOL0     C15105   9.087   5.177   7.994  0.3599  0.2287 -0.6383
  115MOL0     O15106   9.206   5.125   8.033  0.3145 -0.4086 -0.1103
  115MOL0     C15107   9.255   5.160   8.164  0.0802  0.1044  0.3235
  115MOL0     C15108   9.302   5.301   8.163 -0.9052  0.4552  0.0992
  115MOL0     C15109   9.313   5.354   8.312 -0.4908  0.3885 -0.0138
  115MOL0     C15110   9.395   5.267   8.404 -1.0214 -0.3178 -0.0709
  115MOL0     C15111   9.530   5.250   8.343 -0.1270 -0.4407  0.9203
  115MOL0     C15112   9.644   5.246   8.297  0.0596 -0.3876  0.0063
  115MOL0     C15113   9.055   5.159   7.861 -0.0718 -0.5849  0.6788
  115MOL0     C15114   8.939   5.215   7.806  0.1237  1.0325 -0.6583
  115MOL0     H15115   8.631   5.681   7.835  0.1355  0.2006 -3.9456
  115MOL0     H15116   8.402   5.769   7.775  3.8143  0.0315 -3.6296
  115MOL0     H15117   8.057   5.516   7.755 -0.5431  0.9083 -1.1958
  115MOL0     H15118   7.984   5.674   7.781 -1.0455 -1.2649 -1.6436
  115MOL0     H15119   8.030   5.692   8.001  1.6225  0.9097 -1.2656
  115MOL0     H15120   8.128   5.548   8.007  0.5407  1.7105 -0.0403
  115MOL0     H15121   7.931   5.415   7.933  0.4939  1.6221 -2.8875
  115MOL0     H15122   7.837   5.564   7.941  1.7697  0.8682 -1.1799
  115MOL0     H15123   8.014   5.491   8.177  0.8546 -4.2707 -2.4393
  115MOL0     H15124   7.864   5.579   8.190 -1.7437 -1.0650 -1.7491
  115MOL0     H15125   7.831   5.347   8.290  1.5656  0.4570 -0.1591
  115MOL0     H15126   7.887   5.282   8.139 -2.0222 -1.4165 -1.9334
  115MOL0     H15127   7.633   5.274   8.144 -0.2186  0.1835  2.4912
  115MOL0     H15128   7.681   5.392   8.025  1.8517 -0.4984 -0.0864
  115MOL0     H15129   7.581   5.443   8.312  0.8211 -1.6156 -0.1565
  115MOL0     H15130   7.644   5.574   8.211  0.5450 -0.1105  1.5318
  115MOL0     H15131   7.407   5.397   8.136 -0.8038  1.3445  1.6619
  115MOL0     H15132   7.456   5.541   8.050 -0.6252 -1.4177 -1.5555
  115MOL0     H15133   7.336   5.420   8.399  1.1403  0.8334  1.3703
  115MOL0     H15134   7.158   5.713   8.577  2.5398 -1.1448  4.1318
  115MOL0     H15135   7.190   5.551   8.599 -1.8178 -1.2766  0.1087
  115MOL0     H15136   6.972   5.550   8.609  1.1251  1.6688  1.7175
  115MOL0     H15137   7.012   5.480   8.449  1.0331  0.4840 -0.1051
  115MOL0     H15138   6.920   5.777   8.488 -3.0135 -0.4063  1.2152
  115MOL0     H15139   6.909   5.677   8.335  1.7032 -2.3276 -0.2919
  115MOL0     H15140   6.733   5.538   8.435 -1.2222  1.8187 -1.0742
  115MOL0     H15141   6.700   5.711   8.421  0.8284  1.1615 -1.6662
  115MOL0     H15142   6.686   5.645   8.882  0.2418  0.0727 -0.5305
  115MOL0     H15143   6.476   5.596   8.987 -1.1506 -1.2893 -0.5197
  115MOL0     H15144   5.975   5.547   8.902  3.1203 -2.5566  0.0416
  115MOL0     H15145   5.770   5.546   9.025  0.4266 -0.3058 -1.1878
  115MOL0     H15146   5.725   5.753   9.401  0.3340 -0.3139  0.8424
  115MOL0     H15147   5.773   5.600   9.469  1.5834  3.1335 -0.4361
  115MOL0     H15148   5.533   5.639   9.545 -2.2921 -1.4703  0.4660
  115MOL0     H15149   5.540   5.505   9.437 -2.1234  0.2647  1.4310
  115MOL0     H15150   5.438   5.628   9.249 -4.6670  3.4222 -0.8291
  115MOL0     H15151   5.464   5.783   9.336  1.1888 -0.3697 -2.2814
  115MOL0     H15152   5.293   5.568   9.451 -0.3047 -0.0230  0.3452
  115MOL0     H15153   5.317   5.736   9.498  1.3821  0.9981 -0.2482
  115MOL0     H15154   5.206   5.622   9.226  2.4652 -2.3231  2.3274
  115MOL0     H15155   5.239   5.791   9.259  0.0178  0.5687  0.5966
  115MOL0     H15156   5.063   5.791   9.434 -1.1240  1.4054 -1.4686
  115MOL0     H15157   5.050   5.619   9.434 -1.3235 -0.4606 -0.9419
  115MOL0     H15158   4.986   5.816   9.208  2.1112 -0.5496 -0.5785
  115MOL0     H15159   4.976   5.645   9.184  1.6675 -1.2139  1.1642
  115MOL0     H15160   4.797   5.671   9.398  1.3161 -0.3798  0.1998
  115MOL0     H15161   4.738   5.706   9.234 -1.4249  0.3439  1.8003
  115MOL0     H15162   5.970   5.678   9.381  0.4737 -0.8834  1.4197
  115MOL0     H15163   6.178   5.649   9.259 -0.2782  0.2504 -0.4251
  115MOL0     H15164   6.284   5.534   8.615 -1.9140 -2.5329  1.6330
  115MOL0     H15165   6.492   5.576   8.494  1.5039  3.3043 -0.5148
  115MOL0     H15166   8.215   5.413   7.795 -0.6387  1.5306 -0.4352
  115MOL0     H15167   8.455   5.289   7.849  1.2239 -0.8636  1.7015
  115MOL0     H15168   8.817   5.345   8.096  0.4398  3.3806 -1.0489
  115MOL0     H15169   9.017   5.280   8.176  0.4544  1.9895 -1.3344
  115MOL0     H15170   9.346   5.099   8.176 -1.1439 -1.7362  0.6419
  115MOL0     H15171   9.187   5.140   8.247 -2.0245 -4.2592 -2.1194
  115MOL0     H15172   9.401   5.297   8.116 -0.3988 -2.4071  1.2186
  115MOL0     H15173   9.253   5.373   8.097  2.6352  2.1843 -0.9085
  115MOL0     H15174   9.217   5.380   8.357  0.5967  1.7897  1.6262
  115MOL0     H15175   9.367   5.449   8.307  1.5872 -0.4653  3.2540
  115MOL0     H15176   9.407   5.310   8.504  2.5969 -0.3538 -0.3553
  115MOL0     H15177   9.344   5.172   8.423 -1.8138  0.0397 -0.3782
  115MOL0     H15178   9.740   5.222   8.256  1.6105  0.3073  2.9216
  115MOL0     H15179   9.127   5.093   7.813  2.6887  2.6087  0.0576
  115MOL0     H15180   8.930   5.213   7.698  0.6389 -0.4214 -0.6960
  116MOL0     O15181   3.208   6.517  10.944  0.3256 -0.2453 -0.2189
  116MOL0     C15182   3.283   6.426  10.969  0.6802  0.9687  0.0662
  116MOL0     O15183   3.248   6.297  10.943 -0.5732 -0.3250 -0.2565
  116MOL0     C15184   3.119   6.274  10.910  0.5125  0.8232  0.4736
  116MOL0     C15185   3.010   6.278  11.001 -0.4928 -0.4711  1.1218
  116MOL0     C15186   2.876   6.249  10.960 -0.7674  0.3453  0.5291
  116MOL0     C15187   2.850   6.227  10.820  0.5809 -0.0453  0.4647
  116MOL0     O15188   2.732   6.205  10.768  0.0136  0.1845 -0.2041
  116MOL0     C15189   2.623   6.192  10.861  0.7875 -0.0034  0.6557
  116MOL0     C15190   2.504   6.155  10.768  0.3142  0.0729 -1.0779
  116MOL0     C15191   2.388   6.102  10.855 -0.1671 -0.7270  0.5733
  116MOL0     C15192   2.321   6.216  10.943 -0.2425 -0.6624  0.9062
  116MOL0     C15193   2.260   6.327  10.862  0.5871  0.3703  0.1704
  116MOL0     C15194   2.174   6.293  10.742 -0.1391  0.3464  0.0118
  116MOL0     C15195   2.059   6.193  10.772 -0.2735 -0.1764 -0.7695
  116MOL0     C15196   1.941   6.268  10.844  0.7910  0.4165  0.7947
  116MOL0     N15197   1.818   6.170  10.859 -0.8953  0.0174  0.2468
  116MOL0     C15198   1.689   6.205  10.825 -0.4064  0.0359  0.1745
  116MOL0     C15199   1.616   6.093  10.857  0.2242  0.1453 -0.2826
  116MOL0     C15200   1.466   6.077  10.829  0.5122  0.3843  0.5972
  116MOL0     C15201   1.431   6.011  10.696  0.0123  1.0094  0.5260
  116MOL0     C15202   1.454   6.100  10.575 -0.4544 -0.1910 -0.7677
  116MOL0     C15203   1.358   6.070  10.466 -0.0433 -0.6320  0.0834
  116MOL0     O15204   1.353   5.929  10.448  0.1589  0.5132 -0.0053
  116MOL0     C15205   1.228   5.883  10.397 -0.2815  0.4606  0.1680
  116MOL0     C15206   1.153   5.795  10.466  0.5510  0.4411 -0.0918
  116MOL0     C15207   1.025   5.758  10.421 -0.3868 -0.1823  0.0566
  116MOL0     C15208   0.971   5.821  10.310 -0.2254 -0.0474  0.1392
  116MOL0     C15209   0.846   5.771  10.263 -0.5303  0.0178 -0.1365
  116MOL0     O15210   0.805   5.841  10.163 -0.0205 -0.3851 -0.5774
  116MOL0     C15211   0.699   5.809  10.080  0.8233 -0.2289  0.8086
  116MOL0     C15212   0.711   5.686   9.998 -0.9361  0.2207 -0.1573
  116MOL0     C15213   0.603   5.652   9.906 -0.2787  0.0624  0.6316
  116MOL0     C15214   0.483   5.725   9.903  0.4112  0.0290 -0.0295
  116MOL0     O15215   0.383   5.666   9.834  0.1335  0.4298  0.4350
  116MOL0     C15216   0.257   5.726   9.830  0.6129 -0.9413 -0.2043
  116MOL0     C15217   0.160   5.645   9.752  0.0993  0.6044  0.4078
  116MOL0     C15218   0.190   5.638   9.603  0.0155 -0.3276  0.6392
  116MOL0     C15219   0.050   5.628   9.523  0.4202  0.4023  0.2782
  116MOL0     C15220   0.095   5.626   9.379  0.6616  0.0720 -0.3544
  116MOL0     C15221  -0.039   5.648   9.298  0.1212  0.9170 -0.4631
  116MOL0     C15222  -0.007   5.653   9.155 -0.5516 -0.0334  0.2070
  116MOL0     C15223  -0.125   5.599   9.076  0.5435  0.1566 -0.2613
  116MOL0    Cl15224  -0.285   5.669   9.130 -0.0481 -0.4512 -0.2669
  116MOL0     C15225   0.474   5.846   9.975  0.5624  0.0803 -0.0925
  116MOL0     C15226   0.586   5.891  10.053 -0.4666 -0.6272 -0.3478
  116MOL0     O15227   0.799   5.664  10.304  0.5359  0.7466  0.5552
  116MOL0     C15228   1.047   5.919  10.241  0.0198  0.6766 -0.5506
  116MOL0     C15229   1.178   5.954  10.288 -0.4183  0.3797  0.4944
  116MOL0     N15230   1.698   5.993  10.897  0.6211 -0.4015  0.1246
  116MOL0     N15231   1.818   6.044  10.905 -0.3256 -0.3636  0.3092
  116MOL0     C15232   2.956   6.226  10.735  0.5253 -0.2732  0.7042
  116MOL0     C15233   3.087   6.255  10.776 -0.2891 -1.0031 -0.2794
  116MOL0     C15234   3.418   6.450  11.017 -0.2998  0.1113 -0.5991
  116MOL0     C15235   3.490   6.564  10.980 -1.0089  0.3651 -0.1901
  116MOL0     C15236   3.630   6.584  11.003  0.3971 -0.4146  0.2188
  116MOL0     C15237   3.702   6.489  11.082  0.6340  0.0400  0.4401
  116MOL0     O15238   3.830   6.501  11.120 -0.0319 -0.0695 -0.3795
  116MOL0     C15239   3.910   6.611  11.086  0.1956 -0.2453  0.1559
  116MOL0     C15240   4.017   6.653  11.188  0.0013 -0.1158 -0.2718
  116MOL0     C15241   4.135   6.552  11.189  0.5016 -0.4446  0.6417
  116MOL0     C15242   4.246   6.623  11.278  1.1907  0.2997  0.3950
  116MOL0     C15243   4.342   6.529  11.338 -0.2405 -0.3012 -0.0015
  116MOL0     C15244   4.396   6.440  11.406  0.2845 -0.0228 -0.1747
  116MOL0     C15245   3.635   6.372  11.112 -0.4100 -0.6680 -0.1579
  116MOL0     C15246   3.496   6.347  11.077 -0.3262  0.2607  0.1539
  116MOL0     H15247   3.016   6.290  11.109  0.6189 -2.6731  1.3539
  116MOL0     H15248   2.799   6.245  11.037  0.7906  1.2265  2.1852
  116MOL0     H15249   2.601   6.290  10.905 -1.3052  0.1200 -0.5455
  116MOL0     H15250   2.638   6.123  10.944 -1.1741  0.2271  1.2438
  116MOL0     H15251   2.531   6.067  10.709 -1.0757 -1.3135  0.2514
  116MOL0     H15252   2.470   6.236  10.702 -1.1834 -0.5531 -1.1143
  116MOL0     H15253   2.435   6.021  10.911  0.5870 -0.5099  0.2639
  116MOL0     H15254   2.300   6.059  10.806 -1.7925 -0.1758  2.8785
  116MOL0     H15255   2.239   6.172  11.001 -2.3442  0.8930 -0.7265
  116MOL0     H15256   2.397   6.252  11.013 -0.9752  0.1867  1.2726
  116MOL0     H15257   2.341   6.395  10.834  0.1799 -0.2327 -2.8114
  116MOL0     H15258   2.184   6.380  10.920  1.0622  3.1462 -1.5882
  116MOL0     H15259   2.237   6.240  10.671 -0.6948 -0.4415  0.1050
  116MOL0     H15260   2.122   6.376  10.693  3.5611  2.3877 -0.8196
  116MOL0     H15261   2.026   6.157  10.674 -0.5983  1.5604 -1.3225
  116MOL0     H15262   2.085   6.101  10.825 -0.0134  1.1764  1.6086
  116MOL0     H15263   1.911   6.365  10.804  1.4663 -0.0204 -0.8622
  116MOL0     H15264   1.983   6.294  10.941  0.2444 -0.8584  1.4092
  116MOL0     H15265   1.659   6.299  10.780 -1.0315  0.6274  1.7676
  116MOL0     H15266   1.420   6.176  10.824  0.2460  0.2667 -5.1246
  116MOL0     H15267   1.416   6.018  10.908 -2.4096  0.1617 -1.2697
  116MOL0     H15268   1.328   5.973  10.698  1.2877 -2.8325  0.6595
  116MOL0     H15269   1.487   5.917  10.686 -2.0372 -0.4710  2.0284
  116MOL0     H15270   1.448   6.205  10.604 -2.3597 -0.0883 -1.3916
  116MOL0     H15271   1.558   6.084  10.545 -0.3572  0.3685 -0.7357
  116MOL0     H15272   1.404   6.103  10.372 -0.9789 -0.7483 -0.4301
  116MOL0     H15273   1.262   6.120  10.484  0.6020  1.9465 -2.7034
  116MOL0     H15274   1.191   5.759  10.561 -2.9092 -2.2024  0.5046
  116MOL0     H15275   0.982   5.678  10.479  0.7968 -0.7854  0.1498
  116MOL0     H15276   0.791   5.612  10.001 -1.3327 -0.2173 -0.2880
  116MOL0     H15277   0.599   5.564   9.842 -1.7954  0.7357 -0.2644
  116MOL0     H15278   0.260   5.822   9.778  0.4399 -0.9357 -0.2010
  116MOL0     H15279   0.212   5.745   9.927 -0.6756 -1.1471 -0.7454
  116MOL0     H15280   0.058   5.681   9.769  0.0644  0.5208  0.3749
  116MOL0     H15281   0.158   5.543   9.790  0.8872  0.0917 -0.8667
  116MOL0     H15282   0.253   5.550   9.589 -1.1093 -0.9694 -0.7419
  116MOL0     H15283   0.241   5.729   9.568  0.1422 -0.6847 -0.1299
  116MOL0     H15284  -0.003   5.535   9.548  1.1123 -0.6462 -1.9198
  116MOL0     H15285  -0.018   5.713   9.534 -1.7457 -1.1495 -0.3670
  116MOL0     H15286   0.140   5.528   9.356 -2.8623 -2.3177  1.9430
  116MOL0     H15287   0.163   5.711   9.364 -1.0689  1.7953  1.1341
  116MOL0     H15288  -0.080   5.747   9.320 -2.0185  0.2430 -1.2335
  116MOL0     H15289  -0.115   5.571   9.316 -2.3462  3.0358 -1.2788
  116MOL0     H15290   0.007   5.749   9.104 -2.4870 -0.4587 -1.2051
  116MOL0     H15291   0.082   5.591   9.140  0.3881  1.2020  0.5171
  116MOL0     H15292  -0.128   5.490   9.084  0.2371  0.0348 -1.7488
  116MOL0     H15293  -0.117   5.633   8.972 -1.2822  4.7961  0.8565
  116MOL0     H15294   0.384   5.906   9.968  0.4259 -0.2344 -1.1966
  116MOL0     H15295   0.578   5.984  10.109 -0.9590  0.6713 -2.4546
  116MOL0     H15296   1.016   5.966  10.148  2.3132  0.8933 -1.2655
  116MOL0     H15297   1.249   6.024  10.246  0.7863 -1.1445 -0.1229
  116MOL0     H15298   2.942   6.219  10.628 -0.5223  1.8552  0.6358
  116MOL0     H15299   3.168   6.265  10.705 -1.0325  0.5717 -0.9578
  116MOL0     H15300   3.438   6.642  10.925 -0.0803 -0.6371 -2.6184
  116MOL0     H15301   3.680   6.671  10.963 -1.3450  1.3599  1.7056
  116MOL0     H15302   3.852   6.703  11.073  0.3987  0.3385  2.9223
  116MOL0     H15303   3.956   6.586  10.989 -0.1042 -0.5970  0.1040
  116MOL0     H15304   4.051   6.750  11.151 -1.5457 -1.0794 -4.9166
  116MOL0     H15305   3.971   6.660  11.287  0.0177 -1.4963 -0.1504
  116MOL0     H15306   4.182   6.543  11.091  0.5634  1.2528  0.4964
  116MOL0     H15307   4.095   6.457  11.226 -0.2365 -0.8859 -1.1945
  116MOL0     H15308   4.292   6.691  11.206  2.0716 -0.2345  0.4416
  116MOL0     H15309   4.202   6.678  11.362  2.4420  0.5701  0.8842
  116MOL0     H15310   4.455   6.367  11.457 -1.2447 -1.6002 -0.5873
  116MOL0     H15311   3.698   6.302  11.165  2.5513  1.7145 -0.2684
  116MOL0     H15312   3.443   6.258  11.106  0.4240 -0.5831 -0.9764
  117MOL0     O15313  11.017  10.309   5.753 -0.3297  0.7752  0.2501
  117MOL0     C15314  11.114  10.378   5.778 -0.3395  0.0834  0.1113
  117MOL0     O15315  11.129  10.462   5.890 -0.0079 -0.0796  0.4562
  117MOL0     C15316  11.046  10.459   6.004 -0.1391 -0.5166  0.4203
  117MOL0     C15317  10.933  10.378   6.023  0.1653 -0.2789 -0.0739
  117MOL0     C15318  10.862  10.392   6.143 -1.0136 -0.3082 -0.8972
  117MOL0     C15319  10.905  10.475   6.240 -0.4012  0.1859  0.9616
  117MOL0     O15320  10.837  10.483   6.356 -0.2464 -0.0493  0.6688
  117MOL0     C15321  10.694  10.496   6.342 -0.1659  0.3340 -0.1277
  117MOL0     C15322  10.620  10.549   6.460 -0.1212 -0.2500 -1.0659
  117MOL0     C15323  10.467  10.506   6.458  0.4683 -0.0502  0.3895
  117MOL0     C15324  10.382  10.566   6.343  0.2139  0.7562  0.1689
  117MOL0     C15325  10.241  10.583   6.390  0.1573  0.0531  1.1386
  117MOL0     C15326  10.159  10.655   6.283 -0.2493 -0.6834  0.5005
  117MOL0     C15327  10.008  10.656   6.329  0.6830  0.6163  0.0670
  117MOL0     C15328   9.916  10.656   6.211  0.2778 -0.2663  0.1917
  117MOL0     N15329   9.768  10.665   6.251 -0.5307 -0.7193 -0.0015
  117MOL0     C15330   9.668  10.677   6.159 -0.7546  0.3066 -0.4680
  117MOL0     C15331   9.552  10.679   6.231 -0.0851 -0.0604  0.6441
  117MOL0     C15332   9.413  10.714   6.174 -0.0260 -0.4633 -0.3782
  117MOL0     C15333   9.352  10.586   6.106 -0.0693 -0.1241 -0.7471
  117MOL0     C15334   9.228  10.624   6.020 -0.0100 -0.3902  1.0084
  117MOL0     C15335   9.107  10.672   6.107 -0.4882  0.3305 -0.4622
  117MOL0     O15336   8.995  10.682   6.019 -0.0349  0.1814 -0.1220
  117MOL0     C15337   8.871  10.679   6.071  0.5171 -0.7426 -0.3287
  117MOL0     C15338   8.766  10.683   5.978  0.2559 -0.1921  0.0989
  117MOL0     C15339   8.634  10.683   6.024  0.0343 -0.2795  0.4103
  117MOL0     C15340   8.604  10.711   6.159 -0.8927  0.3833  0.0173
  117MOL0     C15341   8.468  10.701   6.212  0.1476  0.0947  0.0554
  117MOL0     O15342   8.445  10.743   6.342 -0.0493 -0.2082 -0.8663
  117MOL0     C15343   8.313  10.751   6.382  0.7725 -0.3093 -0.0238
  117MOL0     C15344   8.269  10.877   6.422 -0.2259  0.4347  0.1396
  117MOL0     C15345   8.140  10.901   6.470 -0.3639 -0.2373 -0.4779
  117MOL0     C15346   8.042  10.793   6.458 -1.2984 -0.4580  0.0512
  117MOL0     O15347   7.920  10.821   6.510 -0.0718 -0.3433 -0.1110
  117MOL0     C15348   7.815  10.773   6.430  0.8427 -0.0419 -0.0613
  117MOL0     C15349   7.804  10.866   6.306  0.5926  0.1588  0.0782
  117MOL0     C15350   7.706  10.827   6.184  0.8455 -0.0524 -0.1803
  117MOL0     C15351   7.587  10.735   6.228  0.3246  0.1370  0.8374
  117MOL0     C15352   7.492  10.725   6.111 -0.4175  0.6741  0.7563
  117MOL0     C15353   7.392  10.842   6.103  0.5316  0.7811  0.2950
  117MOL0     C15354   7.275  10.834   6.199 -0.6522  0.0313  0.1747
  117MOL0     C15355   7.175  10.944   6.182  1.0738 -1.0118 -0.6678
  117MOL0    Cl15356   7.009  10.889   6.244  0.2493  0.2439  0.5301
  117MOL0     C15357   8.084  10.667   6.400  0.4596  0.2186  0.6247
  117MOL0     C15358   8.217  10.652   6.374  0.4878 -0.3625  0.2433
  117MOL0     O15359   8.382  10.659   6.134  0.0843  0.1586 -0.2338
  117MOL0     C15360   8.711  10.731   6.250  0.6839 -0.6081 -0.1520
  117MOL0     C15361   8.837  10.711   6.203 -0.1766 -0.2041 -0.6309
  117MOL0     N15362   9.584  10.669   6.364 -0.1374 -0.2681 -1.0554
  117MOL0     N15363   9.720  10.661   6.375  0.3952  0.0938 -0.4271
  117MOL0     C15364  11.013  10.551   6.221 -0.9162 -0.1860  0.4358
  117MOL0     C15365  11.090  10.549   6.103 -0.1977  0.6160  0.5858
  117MOL0     C15366  11.216  10.370   5.677 -0.0809 -0.3882  0.5198
  117MOL0     C15367  11.238  10.254   5.602  0.4068 -0.5925 -0.7571
  117MOL0     C15368  11.335  10.254   5.502 -0.1933 -0.2127  0.3048
  117MOL0     C15369  11.416  10.364   5.468 -0.0927 -1.0646  0.4594
  117MOL0     O15370  11.518  10.352   5.377 -0.0321 -0.5069  0.1410
  117MOL0     C15371  11.645  10.395   5.419 -0.4608  0.3941  0.3456
  117MOL0     C15372  11.705  10.314   5.532  0.4374 -0.5785  0.2884
  117MOL0     C15373  11.860  10.311   5.510 -0.6818  0.3377  0.0995
  117MOL0     C15374  11.922  10.199   5.607  0.0429  0.0681  0.0862
  117MOL0     C15375  11.917  10.235   5.745 -0.3633 -0.4828  0.2465
  117MOL0     C15376  11.931  10.295   5.848 -0.2955  0.4253 -0.2731
  117MOL0     C15377  11.383  10.485   5.536  0.0307 -0.5198 -0.4057
  117MOL0     C15378  11.289  10.486   5.640 -0.3538 -0.3984 -0.7320
  117MOL0     H15379  10.899  10.302   5.953  0.5386 -1.7782  1.3198
  117MOL0     H15380  10.776  10.328   6.159 -1.3228  0.5313  1.1557
  117MOL0     H15381  10.657  10.394   6.326 -1.5359  0.8313 -0.2493
  117MOL0     H15382  10.667  10.562   6.260  0.1246 -0.3429 -0.7785
  117MOL0     H15383  10.636  10.654   6.487 -0.8995 -1.1668  3.9827
  117MOL0     H15384  10.675  10.500   6.541  0.2321  1.3613 -0.2953
  117MOL0     H15385  10.425  10.527   6.556  1.2974  2.1333  0.3234
  117MOL0     H15386  10.477  10.398   6.440 -1.4937  0.0062 -1.4789
  117MOL0     H15387  10.417  10.667   6.318  1.1516  0.1745 -1.0139
  117MOL0     H15388  10.387  10.511   6.248 -0.4483  0.9174  0.0408
  117MOL0     H15389  10.242  10.653   6.475  0.6403  2.3643 -0.6535
  117MOL0     H15390  10.201  10.491   6.434 -2.6012  0.9369  0.6956
  117MOL0     H15391  10.182  10.597   6.194  0.1362  0.1749  0.0276
  117MOL0     H15392  10.198  10.755   6.263 -2.6941  0.4092  0.8329
  117MOL0     H15393   9.988  10.563   6.382  1.8407 -0.8439 -1.9180
  117MOL0     H15394   9.989  10.736   6.402 -0.1988 -0.1834  0.7412
  117MOL0     H15395   9.924  10.558   6.162  0.4240 -0.4924  0.6634
  117MOL0     H15396   9.938  10.738   6.142  1.1026 -0.7419 -0.1178
  117MOL0     H15397   9.688  10.678   6.052  5.0277  0.7743  0.3078
  117MOL0     H15398   9.434  10.788   6.096 -1.6899 -1.7920 -2.1964
  117MOL0     H15399   9.339  10.750   6.245  1.9451  0.9245  1.0614
  117MOL0     H15400   9.313  10.512   6.177 -0.0587  0.3160 -0.2753
  117MOL0     H15401   9.429  10.533   6.049 -0.9185 -1.8410 -0.3621
  117MOL0     H15402   9.257  10.689   5.937 -0.1182 -0.2941  1.0447
  117MOL0     H15403   9.198  10.529   5.974  1.6363 -1.4633  2.0369
  117MOL0     H15404   9.121  10.775   6.140 -3.6064  1.0484 -1.0696
  117MOL0     H15405   9.088  10.596   6.184 -1.7281 -1.2138 -2.1990
  117MOL0     H15406   8.792  10.678   5.873 -1.3384  1.4368 -0.4217
  117MOL0     H15407   8.552  10.661   5.957  0.5083 -2.1007  0.3845
  117MOL0     H15408   8.337  10.961   6.432 -0.2888  0.2417  3.4305
  117MOL0     H15409   8.115  11.001   6.502  3.4391  0.5623  0.5407
  117MOL0     H15410   7.724  10.797   6.486  2.1033 -0.6636  2.4411
  117MOL0     H15411   7.817  10.667   6.405  0.5925 -0.0830  0.0801
  117MOL0     H15412   7.905  10.883   6.266  0.7847  0.6641  0.7543
  117MOL0     H15413   7.766  10.961   6.345 -1.0954 -1.0395  1.5026
  117MOL0     H15414   7.762  10.780   6.103  1.0892  0.7685 -0.4943
  117MOL0     H15415   7.666  10.916   6.135 -1.2123 -2.4864 -3.3072
  117MOL0     H15416   7.613  10.632   6.252  0.0210 -0.9381 -2.9040
  117MOL0     H15417   7.546  10.780   6.320  0.0467  0.1770  0.6949
  117MOL0     H15418   7.439  10.630   6.115 -0.4275  0.6413 -0.0082
  117MOL0     H15419   7.541  10.712   6.014 -3.0738 -1.1531 -0.4527
  117MOL0     H15420   7.351  10.854   6.002 -0.9272  0.8702  0.8890
  117MOL0     H15421   7.448  10.935   6.123  1.4806 -0.0887  1.8559
  117MOL0     H15422   7.222  10.739   6.183 -1.9223  0.5494  1.1645
  117MOL0     H15423   7.299  10.834   6.305 -1.5300 -0.1992  0.3772
  117MOL0     H15424   7.162  10.985   6.081  3.0821 -2.0774 -1.4174
  117MOL0     H15425   7.213  11.023   6.247 -0.6537 -1.2773  0.7408
  117MOL0     H15426   8.010  10.591   6.379 -0.5108  1.0900  0.8033
  117MOL0     H15427   8.257  10.556   6.343 -0.9808 -1.3960  1.4265
  117MOL0     H15428   8.697  10.744   6.357 -0.5669 -2.4819 -0.0500
  117MOL0     H15429   8.918  10.715   6.275  1.3873 -0.1168 -2.3214
  117MOL0     H15430  11.035  10.621   6.301 -1.0329  0.8731 -0.4308
  117MOL0     H15431  11.178  10.613   6.103  0.1466  0.1652 -0.5184
  117MOL0     H15432  11.185  10.164   5.630  1.0947 -0.6985  0.2591
  117MOL0     H15433  11.367  10.161   5.456 -0.0675 -0.2665  0.4985
  117MOL0     H15434  11.642  10.500   5.449  0.4532  0.4617  0.2262
  117MOL0     H15435  11.708  10.387   5.330 -2.5518 -0.2803 -1.1738
  117MOL0     H15436  11.681  10.360   5.629  0.8750 -1.2290  0.7173
  117MOL0     H15437  11.653  10.218   5.536 -1.3806  0.2627 -1.7659
  117MOL0     H15438  11.893  10.411   5.540 -0.4210  0.2218  0.2054
  117MOL0     H15439  11.885  10.282   5.408  2.4736 -1.7120  1.2937
  117MOL0     H15440  11.865  10.107   5.587  0.7210  0.0348 -1.9080
  117MOL0     H15441  12.025  10.179   5.577  1.1418  4.0143  0.6833
  117MOL0     H15442  11.962  10.341   5.940 -0.5664 -1.2171  0.6866
  117MOL0     H15443  11.420  10.586   5.521  2.7559 -1.5798 -1.4112
  117MOL0     H15444  11.281  10.577   5.699  0.4352 -0.9026  0.1844
  118MOL0     O15445   0.594   4.349   6.091  0.0262 -0.5593 -0.1753
  118MOL0     C15446   0.587   4.379   5.979 -0.3042 -0.4383  1.0374
  118MOL0     O15447   0.471   4.415   5.907 -0.0312  0.1148 -0.1034
  118MOL0     C15448   0.352   4.423   5.976  0.6377  0.8654  0.8057
  118MOL0     C15449   0.306   4.326   6.073  0.2993 -0.1562  0.4340
  118MOL0     C15450   0.180   4.348   6.126  0.6540 -0.5926  0.6410
  118MOL0     C15451   0.094   4.455   6.076 -0.7471  0.7578  0.4815
  118MOL0     O15452  -0.036   4.481   6.113 -0.6851  0.1454  0.4546
  118MOL0     C15453  -0.090   4.366   6.190  0.2803  0.1498  0.0023
  118MOL0     C15454  -0.237   4.382   6.158 -0.0747 -1.1726 -0.2339
  118MOL0     C15455  -0.299   4.518   6.199 -0.2103 -0.4792  0.9167
  118MOL0     C15456  -0.450   4.514   6.188 -0.0801  0.5111  0.4487
  118MOL0     C15457  -0.520   4.649   6.195  0.1638  0.5950 -0.6613
  118MOL0     C15458  -0.669   4.629   6.135 -0.0552  0.5663 -0.6990
  118MOL0     C15459  -0.750   4.519   6.202 -0.4245  0.4266  0.0049
  118MOL0     C15460  -0.786   4.553   6.351 -0.0783 -1.4305  0.8878
  118MOL0     N15461  -0.909   4.634   6.358 -0.2575 -0.4376  0.2090
  118MOL0     C15462  -1.032   4.570   6.373  0.0828  0.1252  0.0143
  118MOL0     C15463  -1.120   4.667   6.336  1.0722  0.5091 -0.1529
  118MOL0     C15464  -1.275   4.664   6.317 -0.6115 -0.9018  0.1638
  118MOL0     C15465  -1.315   4.702   6.171 -0.8407  0.5620  0.1055
  118MOL0     C15466  -1.233   4.612   6.077 -0.2352  0.1274 -0.5913
  118MOL0     C15467  -1.275   4.643   5.934  0.9121 -0.0540  0.3052
  118MOL0     O15468  -1.200   4.573   5.832 -0.1467 -0.9098 -0.4603
  118MOL0     C15469  -1.065   4.603   5.814 -0.2215 -0.4546 -0.9890
  118MOL0     C15470  -0.998   4.525   5.726  0.7496 -0.6133 -0.9908
  118MOL0     C15471  -0.864   4.538   5.700 -0.2743  0.1821 -0.7324
  118MOL0     C15472  -0.782   4.636   5.769  0.1920  0.2340  0.6823
  118MOL0     C15473  -0.642   4.650   5.746  0.9359  1.3440  0.1275
  118MOL0     O15474  -0.585   4.765   5.795  0.2456 -0.1252  0.0313
  118MOL0     C15475  -0.448   4.768   5.814 -0.3693 -0.6306 -0.3829
  118MOL0     C15476  -0.367   4.666   5.861  0.5941 -0.6511 -0.3219
  118MOL0     C15477  -0.230   4.684   5.867 -0.1372 -0.1305 -0.2876
  118MOL0     C15478  -0.173   4.813   5.847  0.5568  0.2288 -1.1791
  118MOL0     O15479  -0.041   4.821   5.863  0.2688 -0.2804 -0.5064
  118MOL0     C15480   0.029   4.916   5.780  0.6704 -0.2396  0.0924
  118MOL0     C15481   0.175   4.857   5.793  0.3576 -0.3953 -0.3271
  118MOL0     C15482   0.267   4.973   5.741  0.4200  0.5219  0.6316
  118MOL0     C15483   0.417   4.932   5.716  0.2625 -0.9841  0.3683
  118MOL0     C15484   0.417   4.830   5.594 -0.5937  0.1712 -0.8813
  118MOL0     C15485   0.548   4.813   5.529  0.3709 -0.1117 -0.7172
  118MOL0     C15486   0.609   4.938   5.459  0.5129  0.4174 -0.5002
  118MOL0     C15487   0.758   4.929   5.437  0.0810 -0.5296 -0.0592
  118MOL0    Cl15488   0.812   4.776   5.366  0.0889 -0.2109  0.1292
  118MOL0     C15489  -0.255   4.917   5.812  0.7472 -0.7219 -0.6899
  118MOL0     C15490  -0.395   4.894   5.799  0.7948  0.3278  0.3855
  118MOL0     O15491  -0.584   4.561   5.682 -0.0180  0.4424  0.4982
  118MOL0     C15492  -0.859   4.721   5.844 -0.1396 -0.4826  0.8182
  118MOL0     C15493  -0.993   4.703   5.880 -0.0302 -0.5406  0.5184
  118MOL0     N15494  -1.054   4.789   6.324 -0.8033  0.3417 -0.1486
  118MOL0     N15495  -0.929   4.761   6.338  0.5631  0.5520 -0.5198
  118MOL0     C15496   0.142   4.539   5.982 -0.1602 -0.3593 -0.2053
  118MOL0     C15497   0.267   4.515   5.925  0.3391 -0.3143  0.4435
  118MOL0     C15498   0.710   4.381   5.894 -0.1800  0.6745  0.0596
  118MOL0     C15499   0.835   4.334   5.951  0.4720 -0.7004 -0.6996
  118MOL0     C15500   0.947   4.347   5.878 -0.3968  0.0985  0.0750
  118MOL0     C15501   0.945   4.408   5.751 -0.2694  1.2345 -0.5355
  118MOL0     O15502   1.053   4.450   5.672 -0.6411  0.1949 -0.0613
  118MOL0     C15503   1.181   4.439   5.733  0.2905  0.5352  0.2067
  118MOL0     C15504   1.290   4.473   5.630 -0.0958 -0.3275 -0.1600
  118MOL0     C15505   1.435   4.471   5.693  0.8135  0.8022  0.5119
  118MOL0     C15506   1.540   4.475   5.589  0.3265 -0.3788 -0.5184
  118MOL0     C15507   1.674   4.493   5.656 -0.2557 -0.6252 -0.0776
  118MOL0     C15508   1.776   4.510   5.719  0.7460 -0.5389  0.0817
  118MOL0     C15509   0.825   4.458   5.710 -0.7302 -0.2021 -0.4467
  118MOL0     C15510   0.705   4.448   5.772 -0.1690 -0.0105 -0.3589
  118MOL0     H15511   0.369   4.243   6.105  0.6550 -0.5323 -1.1215
  118MOL0     H15512   0.133   4.290   6.206  0.3236  0.4295  1.2059
  118MOL0     H15513  -0.070   4.383   6.296  0.2028 -2.8447  0.5780
  118MOL0     H15514  -0.056   4.267   6.159  0.0043 -0.0285  0.2738
  118MOL0     H15515  -0.296   4.312   6.218  0.1514  0.8217  2.4853
  118MOL0     H15516  -0.253   4.355   6.053  3.4411 -1.0284 -0.9096
  118MOL0     H15517  -0.256   4.601   6.142 -0.2992 -0.2699  1.1537
  118MOL0     H15518  -0.263   4.540   6.300 -3.3397  1.4302  1.7591
  118MOL0     H15519  -0.466   4.467   6.090  0.6540 -2.2102  1.5410
  118MOL0     H15520  -0.490   4.442   6.260  1.2593 -0.7758 -0.0219
  118MOL0     H15521  -0.463   4.717   6.131  0.4392 -0.3061 -1.4011
  118MOL0     H15522  -0.531   4.688   6.297  1.6793 -0.5060 -0.0324
  118MOL0     H15523  -0.661   4.620   6.026 -0.7497 -2.2172 -0.5888
  118MOL0     H15524  -0.722   4.722   6.157  1.2599  0.8997  1.3982
  118MOL0     H15525  -0.840   4.507   6.141  1.1514  2.4071 -2.9105
  118MOL0     H15526  -0.697   4.423   6.195 -1.2503 -0.0360 -0.0684
  118MOL0     H15527  -0.706   4.618   6.390  1.0485 -2.5011  0.4336
  118MOL0     H15528  -0.780   4.469   6.420  1.1285  0.2169  2.9219
  118MOL0     H15529  -1.041   4.465   6.401  0.4000 -0.0234 -0.4252
  118MOL0     H15530  -1.318   4.735   6.388  0.5901 -0.0384  0.0528
  118MOL0     H15531  -1.303   4.560   6.338 -0.5036 -0.7667  1.0125
  118MOL0     H15532  -1.287   4.807   6.155  3.5267  0.1831  3.3225
  118MOL0     H15533  -1.421   4.684   6.152 -0.7499  0.2899 -0.1264
  118MOL0     H15534  -1.125   4.623   6.087  0.0975 -1.9338 -1.4063
  118MOL0     H15535  -1.264   4.509   6.097 -1.9188  0.5051 -1.0762
  118MOL0     H15536  -1.285   4.749   5.908 -2.0520 -0.2030  0.4757
  118MOL0     H15537  -1.377   4.605   5.921  1.1310 -0.5988  0.1548
  118MOL0     H15538  -1.054   4.456   5.663 -1.7255  0.6811 -0.3315
  118MOL0     H15539  -0.811   4.488   5.619  0.5360  1.2664 -0.8823
  118MOL0     H15540  -0.401   4.567   5.890  1.3454 -0.9046 -0.2791
  118MOL0     H15541  -0.164   4.602   5.895 -0.2334  0.7714  2.9909
  118MOL0     H15542   0.007   5.016   5.818 -0.7112 -0.0533 -1.1099
  118MOL0     H15543  -0.004   4.910   5.676 -0.8303  0.1153  0.5194
  118MOL0     H15544   0.191   4.766   5.734  2.3522  0.0590 -0.5618
  118MOL0     H15545   0.194   4.842   5.899 -2.6088  0.7537  0.4599
  118MOL0     H15546   0.271   5.053   5.815  2.7371  1.4380 -0.3812
  118MOL0     H15547   0.225   5.011   5.647 -4.1476 -1.5868  1.5810
  118MOL0     H15548   0.465   5.027   5.693 -1.0872  0.1905  2.1719
  118MOL0     H15549   0.467   4.889   5.804  3.1712 -0.6612 -1.0163
  118MOL0     H15550   0.341   4.861   5.521 -2.3094 -0.6920  0.4489
  118MOL0     H15551   0.386   4.731   5.628 -1.5554  0.9970  0.8192
  118MOL0     H15552   0.536   4.733   5.455 -2.8140 -3.1885  2.6934
  118MOL0     H15553   0.617   4.772   5.604 -2.1471 -2.1482  0.6549
  118MOL0     H15554   0.559   4.935   5.361 -0.9209 -2.8259  0.1722
  118MOL0     H15555   0.583   5.033   5.505 -3.0028 -0.3981 -0.5028
  118MOL0     H15556   0.810   4.943   5.532 -0.3782  1.4238 -0.0651
  118MOL0     H15557   0.783   5.009   5.367 -1.1434 -0.2870 -0.2367
  118MOL0     H15558  -0.226   5.021   5.806 -1.1256 -0.0853  0.3677
  118MOL0     H15559  -0.463   4.975   5.776  1.3086  0.5496 -0.3901
  118MOL0     H15560  -0.812   4.807   5.890  1.9806 -0.4086 -1.2953
  118MOL0     H15561  -1.051   4.768   5.944  2.5137  0.9267  1.5178
  118MOL0     H15562   0.068   4.612   5.950  0.6491  0.5898  0.0362
  118MOL0     H15563   0.303   4.596   5.864 -1.7627 -0.4213 -1.0543
  118MOL0     H15564   0.830   4.287   6.049 -1.6068  0.9372  0.0511
  118MOL0     H15565   1.041   4.328   5.929 -0.2327  2.0232  0.5733
  118MOL0     H15566   1.189   4.333   5.763  1.9295  0.8714  1.1057
  118MOL0     H15567   1.194   4.499   5.824  1.2835 -1.0615  1.1663
  118MOL0     H15568   1.289   4.405   5.544 -0.0961 -0.2498 -0.2212
  118MOL0     H15569   1.277   4.568   5.578 -1.4686 -1.2759 -1.6293
  118MOL0     H15570   1.459   4.374   5.736  0.9287  1.1240  1.1846
  118MOL0     H15571   1.450   4.548   5.770  2.5374 -0.0775  1.0999
  118MOL0     H15572   1.533   4.381   5.532 -2.0242  0.1345 -1.1880
  118MOL0     H15573   1.524   4.564   5.527 -0.2377  0.1000  0.2953
  118MOL0     H15574   1.863   4.539   5.773  0.2821 -0.7925  0.9878
  118MOL0     H15575   0.833   4.513   5.617 -3.0553  0.0747 -0.5284
  118MOL0     H15576   0.618   4.491   5.724 -0.0911 -0.1826 -0.6517
  119MOL0     O15577   7.234   4.400   2.608  0.4714  0.1884  0.4437
  119MOL0     C15578   7.320   4.309   2.610 -0.0995 -0.3091  0.0081
  119MOL0     O15579   7.326   4.215   2.701  0.5160  0.6610 -0.5112
  119MOL0     C15580   7.220   4.215   2.788 -0.6618 -0.0611 -0.3113
  119MOL0     C15581   7.236   4.275   2.917 -0.1752 -0.4453  0.1069
  119MOL0     C15582   7.131   4.274   3.006 -0.2195 -0.1009  0.2499
  119MOL0     C15583   7.006   4.232   2.974 -0.3649  0.3907  0.4687
  119MOL0     O15584   6.908   4.225   3.063 -0.4959  0.4227 -0.1114
  119MOL0     C15585   6.852   4.093   3.088  0.1797 -0.3843 -0.3260
  119MOL0     C15586   6.726   4.098   3.184 -0.1149 -0.3538  0.7205
  119MOL0     C15587   6.617   4.182   3.117 -0.6088 -0.2606 -0.2043
  119MOL0     C15588   6.504   4.191   3.223 -0.4249 -0.9586  0.1153
  119MOL0     C15589   6.374   4.256   3.167  0.4247 -0.3116  0.2020
  119MOL0     C15590   6.308   4.332   3.276 -0.6385 -0.2841 -0.5389
  119MOL0     C15591   6.202   4.435   3.237 -0.4422  0.1063  0.4914
  119MOL0     C15592   6.069   4.363   3.205 -0.5292  0.4271 -1.3987
  119MOL0     N15593   5.959   4.461   3.199  0.0926  0.2764 -1.2562
  119MOL0     C15594   5.934   4.572   3.115 -0.3900  0.0702 -0.0733
  119MOL0     C15595   5.844   4.659   3.164  0.1823 -0.6596  0.3036
  119MOL0     C15596   5.819   4.799   3.111 -0.0954 -0.0654 -0.5910
  119MOL0     C15597   5.734   4.787   2.977 -0.4709  0.1055 -0.4284
  119MOL0     C15598   5.594   4.733   3.000 -0.0189 -0.5139 -0.2429
  119MOL0     C15599   5.508   4.702   2.885 -0.3329 -0.4856  0.3886
  119MOL0     O15600   5.467   4.828   2.820  0.6556  0.0878  0.3966
  119MOL0     C15601   5.360   4.846   2.725  0.1733  0.7080  0.1473
  119MOL0     C15602   5.318   4.972   2.685  0.6675 -0.6427 -0.4957
  119MOL0     C15603   5.205   4.985   2.604  0.4526 -0.4453  0.1775
  119MOL0     C15604   5.143   4.882   2.538 -0.5884  0.4556 -0.1835
  119MOL0     C15605   5.033   4.895   2.438  1.1224 -0.1037 -0.1192
  119MOL0     O15606   4.954   4.788   2.399  0.1484  0.2909  0.6704
  119MOL0     C15607   4.837   4.807   2.333  0.4462  0.2034 -0.1123
  119MOL0     C15608   4.835   4.818   2.199 -0.4963  0.1108 -0.2037
  119MOL0     C15609   4.719   4.810   2.127 -0.2692  0.9219  0.4843
  119MOL0     C15610   4.599   4.788   2.201  0.2090 -0.0499  0.3802
  119MOL0     O15611   4.472   4.798   2.140  0.1645 -0.4926 -0.8829
  119MOL0     C15612   4.467   4.906   2.045 -0.7207  0.3375  0.0823
  119MOL0     C15613   4.332   4.926   1.999 -0.5139 -0.5395  0.6082
  119MOL0     C15614   4.309   4.831   1.881  0.1045  0.3175  0.3499
  119MOL0     C15615   4.160   4.806   1.852  0.5142  0.1578  0.3014
  119MOL0     C15616   4.070   4.923   1.814 -0.2074 -0.4536  0.2769
  119MOL0     C15617   4.112   4.987   1.677 -0.0518 -0.2489  0.6599
  119MOL0     C15618   3.994   5.060   1.606  0.0197 -0.0207  0.4610
  119MOL0     C15619   3.950   5.189   1.660  0.4318 -0.8291 -0.3780
  119MOL0    Cl15620   3.821   5.255   1.551  0.3186 -0.4268 -0.1637
  119MOL0     C15621   4.604   4.788   2.336  0.9190 -0.5346  0.5793
  119MOL0     C15622   4.722   4.785   2.399 -0.1164 -0.4363 -0.6867
  119MOL0     O15623   5.016   5.009   2.404  0.0835 -0.0266  0.0872
  119MOL0     C15624   5.183   4.754   2.578 -0.3546 -0.1731 -0.4468
  119MOL0     C15625   5.285   4.739   2.672 -0.2125  0.3512 -0.3013
  119MOL0     N15626   5.817   4.602   3.289 -0.1682 -0.8488  0.4810
  119MOL0     N15627   5.881   4.492   3.308 -0.0534 -0.3592 -0.6665
  119MOL0     C15628   6.995   4.181   2.844 -0.4407  0.2069 -0.2552
  119MOL0     C15629   7.095   4.172   2.752  0.3493  0.1502 -0.0373
  119MOL0     C15630   7.441   4.332   2.524  0.3138 -0.5827 -0.2068
  119MOL0     C15631   7.560   4.259   2.545 -0.1776  0.0268  0.4339
  119MOL0     C15632   7.675   4.292   2.470 -0.0984 -0.7146  0.1709
  119MOL0     C15633   7.668   4.403   2.384  0.0071  0.0127  0.5268
  119MOL0     O15634   7.770   4.426   2.303 -0.2041 -0.4474  0.3740
  119MOL0     C15635   7.752   4.377   2.171 -0.0072 -0.0308 -0.1659
  119MOL0     C15636   7.895   4.360   2.115 -0.1630 -0.9021 -0.7509
  119MOL0     C15637   7.873   4.341   1.970 -0.4025 -0.4807 -0.0940
  119MOL0     C15638   8.010   4.325   1.896 -0.1221 -0.4020  0.9225
  119MOL0     C15639   8.081   4.202   1.911 -0.4063  0.1083 -1.1320
  119MOL0     C15640   8.154   4.103   1.908  0.6566  0.3856  0.6343
  119MOL0     C15641   7.548   4.467   2.354 -0.0290 -0.7482 -1.1347
  119MOL0     C15642   7.442   4.433   2.431  0.0705  0.5447  0.0446
  119MOL0     H15643   7.330   4.320   2.947 -1.1362  1.5947  0.2272
  119MOL0     H15644   7.150   4.308   3.107  1.7568 -1.3959  0.3659
  119MOL0     H15645   6.923   4.028   3.139 -0.8300  0.6923  2.7303
  119MOL0     H15646   6.821   4.037   3.000 -4.6252 -0.7101  1.2624
  119MOL0     H15647   6.760   4.144   3.278 -0.7775 -0.9574  1.2657
  119MOL0     H15648   6.696   3.994   3.202 -0.2332 -0.4862 -0.2119
  119MOL0     H15649   6.579   4.131   3.028 -0.1937  1.6742 -1.5280
  119MOL0     H15650   6.651   4.279   3.080  2.2697 -1.9473 -2.3698
  119MOL0     H15651   6.472   4.099   3.272 -4.3276 -0.7170 -1.6484
  119MOL0     H15652   6.539   4.254   3.306 -2.8525 -0.3338  0.7416
  119MOL0     H15653   6.314   4.170   3.135 -1.1767  0.6568  0.5335
  119MOL0     H15654   6.388   4.324   3.083 -1.5118 -1.3083 -1.0088
  119MOL0     H15655   6.391   4.393   3.313  1.3686 -2.7385 -0.7558
  119MOL0     H15656   6.286   4.249   3.343 -0.2838  0.3561  0.3892
  119MOL0     H15657   6.181   4.506   3.318 -1.6232  0.9773 -0.5388
  119MOL0     H15658   6.240   4.502   3.159  2.6696 -1.2320  0.7108
  119MOL0     H15659   6.042   4.293   3.284  1.4826  0.5067 -0.5740
  119MOL0     H15660   6.081   4.299   3.117 -0.2562  1.1754 -1.9193
  119MOL0     H15661   5.999   4.591   3.030  2.0150 -0.1086  1.6338
  119MOL0     H15662   5.914   4.850   3.092 -0.5553  0.8164 -0.5851
  119MOL0     H15663   5.764   4.862   3.181  1.4022 -0.6276  1.1789
  119MOL0     H15664   5.794   4.723   2.912 -0.7528 -0.8907  0.2742
  119MOL0     H15665   5.727   4.888   2.934  2.1472  0.7476  0.4638
  119MOL0     H15666   5.597   4.639   3.054 -4.3350 -0.5036  0.3574
  119MOL0     H15667   5.542   4.808   3.060  2.2281  0.6070  0.4238
  119MOL0     H15668   5.421   4.641   2.909 -2.6533  2.3344 -0.3258
  119MOL0     H15669   5.575   4.647   2.818  0.0628  1.7319 -1.1569
  119MOL0     H15670   5.374   5.053   2.730  0.2921 -0.9516  0.5621
  119MOL0     H15671   5.163   5.083   2.586 -0.9739 -1.2875 -1.3089
  119MOL0     H15672   4.935   4.827   2.158  0.3819 -2.2890  1.1851
  119MOL0     H15673   4.721   4.823   2.020  2.0389  2.4702  0.6388
  119MOL0     H15674   4.535   4.888   1.962 -1.5499  0.9851 -0.7652
  119MOL0     H15675   4.493   4.998   2.099 -1.4903  0.6959 -0.1362
  119MOL0     H15676   4.320   5.029   1.963 -2.4106 -0.7578  0.5230
  119MOL0     H15677   4.252   4.915   2.073 -0.1943 -0.9953  0.8878
  119MOL0     H15678   4.360   4.737   1.902  0.9642  0.9694  1.2538
  119MOL0     H15679   4.362   4.879   1.799  0.8364  0.6437  1.0028
  119MOL0     H15680   4.158   4.738   1.766 -1.4671  0.6032 -0.0641
  119MOL0     H15681   4.115   4.753   1.937  1.1482  0.2919  0.7216
  119MOL0     H15682   4.079   4.994   1.897  1.3232  0.4416 -0.6172
  119MOL0     H15683   3.964   4.894   1.810 -0.6790  1.2403 -0.3463
  119MOL0     H15684   4.145   4.912   1.605 -0.2243  2.3525 -2.3714
  119MOL0     H15685   4.197   5.053   1.696 -0.5458 -0.1799  3.0128
  119MOL0     H15686   4.025   5.072   1.502 -0.0572 -1.1239  0.2933
  119MOL0     H15687   3.907   4.995   1.599  0.2379 -0.4265  1.3255
  119MOL0     H15688   4.035   5.258   1.668  2.7056 -3.2285 -2.0142
  119MOL0     H15689   3.916   5.190   1.764  1.7084 -1.0252  0.0598
  119MOL0     H15690   4.516   4.758   2.392  0.5261 -0.2168  0.1451
  119MOL0     H15691   4.717   4.744   2.499 -0.3136 -1.2128 -1.0081
  119MOL0     H15692   5.125   4.669   2.544  0.7948 -0.1276 -2.7009
  119MOL0     H15693   5.308   4.635   2.695 -0.5486  0.1464 -0.8694
  119MOL0     H15694   6.895   4.149   2.814 -0.4029 -0.2131  0.0605
  119MOL0     H15695   7.076   4.125   2.656  0.8759  0.9285 -0.5279
  119MOL0     H15696   7.561   4.175   2.613  1.8794  0.7839  1.4245
  119MOL0     H15697   7.767   4.236   2.480  0.3132  0.0514  0.8004
  119MOL0     H15698   7.695   4.449   2.111  2.2053  2.3530  0.3942
  119MOL0     H15699   7.708   4.277   2.174  0.9798 -0.4613  0.3338
  119MOL0     H15700   7.948   4.448   2.152 -0.1675 -0.6260 -1.3955
  119MOL0     H15701   7.933   4.266   2.156 -0.0078  0.6157  2.9782
  119MOL0     H15702   7.834   4.425   1.911  2.1364  0.0275 -1.2301
  119MOL0     H15703   7.803   4.259   1.950 -1.4295  1.0678 -3.7259
  119MOL0     H15704   7.967   4.328   1.795 -2.7976 -3.5780  1.7698
  119MOL0     H15705   8.076   4.410   1.915 -1.9618  1.4506 -0.4738
  119MOL0     H15706   8.211   4.014   1.897 -2.7500 -1.7267 -2.4414
  119MOL0     H15707   7.541   4.548   2.283  1.9258 -0.0103 -0.5458
  119MOL0     H15708   7.348   4.486   2.416 -2.1908 -2.8517  1.1227
  120MOL0     O15709   4.070   2.316   7.053  0.0208  0.0060 -0.1643
  120MOL0     C15710   4.099   2.425   6.995  0.2839 -0.4786 -0.8460
  120MOL0     O15711   4.002   2.523   6.974 -0.0705 -0.0150  0.8050
  120MOL0     C15712   3.872   2.475   6.948 -0.7546  0.3435 -0.0156
  120MOL0     C15713   3.757   2.551   6.975 -0.6515  0.5778 -0.1216
  120MOL0     C15714   3.626   2.507   6.945  0.1716  0.2687  0.5770
  120MOL0     C15715   3.605   2.378   6.884 -0.3774 -0.2685 -0.0630
  120MOL0     O15716   3.490   2.318   6.841 -0.5789 -0.2470 -0.0788
  120MOL0     C15717   3.377   2.396   6.859  0.0918  0.7107 -0.6472
  120MOL0     C15718   3.253   2.310   6.845 -0.6012  0.1050 -0.2823
  120MOL0     C15719   3.275   2.185   6.933  0.8243 -0.2947  0.1795
  120MOL0     C15720   3.161   2.078   6.935  0.1470 -0.9335  0.2906
  120MOL0     C15721   3.200   1.955   7.015 -0.1504  0.3717  0.0970
  120MOL0     C15722   3.086   1.853   7.009  0.0823 -0.0500 -0.0253
  120MOL0     C15723   3.120   1.706   7.053  1.7382  1.3787  0.4058
  120MOL0     C15724   3.004   1.606   7.008 -0.0707  0.1788  0.0244
  120MOL0     N15725   3.007   1.476   7.069 -0.0733  0.1334 -0.8628
  120MOL0     C15726   2.902   1.387   7.069  0.0392 -0.2711  0.5859
  120MOL0     C15727   2.926   1.286   7.162 -0.2130 -0.2603 -0.0790
  120MOL0     C15728   2.844   1.174   7.202  1.3223 -0.5673 -0.6434
  120MOL0     C15729   2.692   1.206   7.212 -0.8484  1.2216  0.6195
  120MOL0     C15730   2.614   1.089   7.272  0.7508  0.8807  0.8692
  120MOL0     C15731   2.471   1.134   7.290  0.5091  0.1483 -0.6181
  120MOL0     O15732   2.411   1.133   7.159  0.0392  0.5885  0.0376
  120MOL0     C15733   2.274   1.146   7.140  0.1754 -0.3521 -0.0839
  120MOL0     C15734   2.179   1.117   7.236  0.1765 -0.4879 -0.0946
  120MOL0     C15735   2.038   1.141   7.206 -0.4060  1.0500 -0.6214
  120MOL0     C15736   1.997   1.188   7.080 -0.2278  0.3728 -0.2659
  120MOL0     C15737   1.853   1.196   7.036 -0.5642 -0.4441 -0.3665
  120MOL0     O15738   1.758   1.155   7.127 -0.4704 -0.2741  0.5532
  120MOL0     C15739   1.624   1.128   7.103  0.4284  0.1774  0.7127
  120MOL0     C15740   1.561   1.077   7.217 -0.4381 -0.4777  0.0804
  120MOL0     C15741   1.432   1.030   7.207  0.1583  0.2498 -0.2305
  120MOL0     C15742   1.363   1.022   7.083 -0.0653 -0.4308  0.7426
  120MOL0     O15743   1.238   0.966   7.079  0.0918 -0.3387 -0.1663
  120MOL0     C15744   1.189   0.882   6.967  0.0654  0.1670 -0.0035
  120MOL0     C15745   1.062   0.806   7.006 -0.6116  1.0551  0.2854
  120MOL0     C15746   0.961   0.907   7.076 -0.6261  0.1258 -0.1902
  120MOL0     C15747   0.818   0.855   7.084  0.6054 -0.0933 -0.3124
  120MOL0     C15748   0.781   0.780   7.211 -0.1704  0.2862  0.7268
  120MOL0     C15749   0.634   0.742   7.211 -0.0649 -0.5476 -0.3105
  120MOL0     C15750   0.592   0.614   7.291 -0.5913  0.3115 -0.8129
  120MOL0     C15751   0.641   0.475   7.234  0.1386  0.7241 -0.3218
  120MOL0    Cl15752   0.618   0.338   7.355  0.1259  0.1599  0.6042
  120MOL0     C15753   1.424   1.076   6.973  0.2126  0.0206  0.6947
  120MOL0     C15754   1.553   1.127   6.978 -0.2952 -0.7628  0.6679
  120MOL0     O15755   1.839   1.240   6.923  0.6789 -0.1647  0.1992
  120MOL0     C15756   2.104   1.211   6.986  0.3397  0.1694 -0.4595
  120MOL0     C15757   2.243   1.192   7.016  0.4800 -0.0879 -0.0725
  120MOL0     N15758   3.047   1.327   7.218 -0.3041  0.2848 -0.3395
  120MOL0     N15759   3.094   1.436   7.163 -0.0123  0.5227  0.4919
  120MOL0     C15760   3.720   2.302   6.856  0.0833 -0.2085  0.3794
  120MOL0     C15761   3.845   2.350   6.882 -0.1673  0.0710 -0.0423
  120MOL0     C15762   4.239   2.450   6.975 -0.3899  0.8304 -0.0906
  120MOL0     C15763   4.338   2.350   6.963 -0.2313 -0.5428 -0.2073
  120MOL0     C15764   4.473   2.383   6.945  0.6510  0.3348  0.2369
  120MOL0     C15765   4.519   2.517   6.935  0.1709 -0.0256  0.1415
  120MOL0     O15766   4.652   2.565   6.928  0.2985 -0.2716  0.4511
  120MOL0     C15767   4.751   2.465   6.930  0.3456  0.4665  0.7704
  120MOL0     C15768   4.770   2.391   6.793  0.0392 -0.3795 -0.4354
  120MOL0     C15769   4.810   2.486   6.673 -0.1164  0.3252 -0.8565
  120MOL0     C15770   4.818   2.395   6.546  0.3462 -0.2706  0.6093
  120MOL0     C15771   4.820   2.468   6.419 -0.8161 -0.1277 -0.2278
  120MOL0     C15772   4.824   2.502   6.308 -0.6760 -0.1868 -0.6829
  120MOL0     C15773   4.416   2.615   6.939 -0.0007 -0.2442 -0.7120
  120MOL0     C15774   4.278   2.582   6.955  0.0390 -0.7744  0.5977
  120MOL0     H15775   3.778   2.648   7.019 -2.4381  0.4842  1.0451
  120MOL0     H15776   3.546   2.575   6.970  1.6923  2.3730  0.0223
  120MOL0     H15777   3.395   2.476   6.786  2.7632  1.5634  0.7771
  120MOL0     H15778   3.382   2.430   6.963 -1.1148 -1.5748  0.2185
  120MOL0     H15779   3.235   2.274   6.743 -1.0774  3.0538 -1.3532
  120MOL0     H15780   3.169   2.370   6.882  1.0147  1.7608  0.9140
  120MOL0     H15781   3.279   2.213   7.039  2.0048 -5.0713  1.6154
  120MOL0     H15782   3.364   2.125   6.915  1.5101 -0.2052  2.8266
  120MOL0     H15783   3.071   2.133   6.966  0.4125  2.3781 -3.7957
  120MOL0     H15784   3.144   2.052   6.830  0.5268  0.6973 -0.2097
  120MOL0     H15785   3.217   1.983   7.119 -2.7966  1.1542  0.3831
  120MOL0     H15786   3.299   1.917   6.988  0.8287  2.1006  1.1248
  120MOL0     H15787   3.065   1.856   6.902 -0.7976  3.3306  0.1127
  120MOL0     H15788   3.000   1.890   7.066 -1.7545 -1.7568 -1.5695
  120MOL0     H15789   3.213   1.667   7.010 -0.6136 -2.2746 -1.9479
  120MOL0     H15790   3.129   1.711   7.162  1.6429 -0.1012  0.5041
  120MOL0     H15791   3.005   1.595   6.900 -2.1366 -1.3089  0.1164
  120MOL0     H15792   2.903   1.645   7.024  0.4735  0.5792  3.2109
  120MOL0     H15793   2.811   1.404   7.013 -1.6300 -0.5718  3.0555
  120MOL0     H15794   2.880   1.140   7.300  0.3317  2.0048  0.6872
  120MOL0     H15795   2.856   1.088   7.135 -0.2747  0.7247 -2.7100
  120MOL0     H15796   2.665   1.220   7.106  0.0861 -2.4631 -0.2404
  120MOL0     H15797   2.674   1.295   7.272 -0.6669  1.9903 -0.4464
  120MOL0     H15798   2.610   0.998   7.212 -2.7135 -0.1991  2.4784
  120MOL0     H15799   2.652   1.060   7.371 -0.4924 -3.5065  0.2625
  120MOL0     H15800   2.463   1.236   7.328 -0.9490  0.2441 -1.1132
  120MOL0     H15801   2.413   1.074   7.361 -0.5100  2.7244  0.8791
  120MOL0     H15802   2.204   1.085   7.337  2.6815 -2.4206 -1.1875
  120MOL0     H15803   1.977   1.109   7.290  1.0195  1.2782  0.5525
  120MOL0     H15804   1.615   1.073   7.311  1.1689 -1.1803 -0.8259
  120MOL0     H15805   1.387   0.988   7.296 -0.0797  0.2570 -0.3464
  120MOL0     H15806   1.266   0.809   6.942 -0.8298 -1.9622  2.9754
  120MOL0     H15807   1.169   0.945   6.880 -0.3299  0.0000 -0.0343
  120MOL0     H15808   1.088   0.730   7.079  1.2435  2.2557  0.9505
  120MOL0     H15809   1.021   0.751   6.921  1.0979  0.8122 -0.4276
  120MOL0     H15810   0.955   1.004   7.024 -0.5594  2.2266  3.4017
  120MOL0     H15811   0.996   0.936   7.176 -0.1323 -0.0807 -0.2990
  120MOL0     H15812   0.755   0.944   7.079  2.1988  1.0361 -1.1460
  120MOL0     H15813   0.783   0.802   6.996 -0.8859  1.7616 -0.9063
  120MOL0     H15814   0.823   0.833   7.298 -0.2494  1.0190  0.3330
  120MOL0     H15815   0.835   0.685   7.211 -0.8193 -0.1003  1.5989
  120MOL0     H15816   0.603   0.728   7.107  1.3878 -0.1481 -0.8135
  120MOL0     H15817   0.576   0.823   7.256 -0.4512 -0.2724 -1.2723
  120MOL0     H15818   0.633   0.623   7.392 -1.1162 -3.4676 -0.1457
  120MOL0     H15819   0.485   0.620   7.309 -0.1661  1.5667  1.8343
  120MOL0     H15820   0.742   0.489   7.195  0.1378 -1.1755 -1.1133
  120MOL0     H15821   0.581   0.445   7.148 -1.4613 -2.2790  1.6573
  120MOL0     H15822   1.373   1.074   6.877 -0.8304 -2.6988  1.1964
  120MOL0     H15823   1.601   1.156   6.885  1.0603  0.2825  1.6565
  120MOL0     H15824   2.082   1.251   6.887  1.8801 -0.8538 -1.2498
  120MOL0     H15825   2.321   1.216   6.944  0.0007 -1.5845 -1.1588
  120MOL0     H15826   3.692   2.204   6.820 -3.1659  0.6135  0.2957
  120MOL0     H15827   3.921   2.275   6.860 -1.6031 -1.2308 -0.7914
  120MOL0     H15828   4.304   2.248   6.976  2.7081 -1.3938  1.9450
  120MOL0     H15829   4.549   2.305   6.941  0.4512  0.1874 -2.0935
  120MOL0     H15830   4.733   2.393   7.011 -1.4625 -2.4976 -1.9802
  120MOL0     H15831   4.849   2.510   6.945  0.6114 -0.2187  1.1510
  120MOL0     H15832   4.849   2.316   6.794  0.4194 -0.0958 -3.1704
  120MOL0     H15833   4.682   2.336   6.760 -0.8229 -0.8058  2.3260
  120MOL0     H15834   4.910   2.527   6.694 -0.3125  0.9133 -1.0513
  120MOL0     H15835   4.748   2.576   6.664  5.6220  4.8155 -1.4401
  120MOL0     H15836   4.900   2.326   6.565  1.4343  1.2504  1.7224
  120MOL0     H15837   4.734   2.325   6.548  0.8565 -0.9306 -0.2475
  120MOL0     H15838   4.826   2.530   6.204 -1.6738 -3.8747 -1.8823
  120MOL0     H15839   4.451   2.717   6.944 -1.6159  0.3503 -0.8300
  120MOL0     H15840   4.216   2.665   6.987  0.5013  0.1303 -0.7497
  121MOL0     O15841  10.978   8.836  10.019  0.2308  0.7524  0.4807
  121MOL0     C15842  10.896   8.829   9.924  0.6677  0.4359 -0.2009
  121MOL0     O15843  10.758   8.828   9.942  0.1647  0.4303  0.0139
  121MOL0     C15844  10.697   8.754  10.035  1.3246  0.1080 -0.4719
  121MOL0     C15845  10.566   8.793  10.077  0.2280  0.6063  0.3535
  121MOL0     C15846  10.502   8.736  10.184 -0.3315 -0.3142 -0.7310
  121MOL0     C15847  10.559   8.628  10.248 -0.0148  0.9887 -0.0881
  121MOL0     O15848  10.509   8.561  10.354  0.2242  0.0608 -0.4253
  121MOL0     C15849  10.371   8.567  10.385  0.1703  0.1303 -0.5450
  121MOL0     C15850  10.347   8.523  10.524  0.4528 -0.4330 -0.1324
  121MOL0     C15851  10.212   8.455  10.541  0.3122 -0.1766 -0.1581
  121MOL0     C15852  10.111   8.551  10.491  0.5204 -0.7148 -0.8917
  121MOL0     C15853   9.973   8.511  10.544  0.0036  0.0922 -0.8392
  121MOL0     C15854   9.868   8.557  10.444  0.7341  0.6205 -0.2079
  121MOL0     C15855   9.721   8.519  10.472  0.6338 -0.1031 -0.6569
  121MOL0     C15856   9.643   8.631  10.558  0.5364  0.8950  0.0836
  121MOL0     N15857   9.505   8.571  10.580  0.0977 -0.1801 -0.1330
  121MOL0     C15858   9.459   8.534  10.705  0.4363 -0.4569 -1.2934
  121MOL0     C15859   9.323   8.547  10.695  0.5254  0.4814  0.7268
  121MOL0     C15860   9.251   8.522  10.823  0.0039  0.5234 -0.2839
  121MOL0     C15861   9.100   8.488  10.794  0.0206  0.1072 -0.2102
  121MOL0     C15862   9.016   8.512  10.919 -0.4200 -0.3567 -0.7076
  121MOL0     C15863   8.866   8.541  10.908  0.0468  0.1430  0.4630
  121MOL0     O15864   8.822   8.566  11.042 -0.5089 -0.0865  0.5817
  121MOL0     C15865   8.687   8.561  11.065  0.3580  0.0150  0.5842
  121MOL0     C15866   8.644   8.569  11.204 -0.2779 -0.3879  0.6770
  121MOL0     C15867   8.512   8.563  11.236 -0.0278 -0.0983  0.8117
  121MOL0     C15868   8.412   8.553  11.131  0.2970  0.3618 -0.3985
  121MOL0     C15869   8.268   8.538  11.158  0.0834  0.0520  0.2879
  121MOL0     O15870   8.200   8.622  11.091  0.9924  0.8112  0.0053
  121MOL0     C15871   8.060   8.619  11.070 -0.2637  0.3079  0.4200
  121MOL0     C15872   8.004   8.744  11.027 -0.4599  0.5962 -0.0326
  121MOL0     C15873   7.864   8.747  11.015  0.1834 -0.2137  0.7197
  121MOL0     C15874   7.789   8.638  11.021  1.2802 -0.7687  0.2288
  121MOL0     O15875   7.648   8.648  11.012  0.0669  0.1158 -0.2099
  121MOL0     C15876   7.577   8.523  11.014 -0.0836 -0.3324 -0.6053
  121MOL0     C15877   7.431   8.554  11.009  0.9992 -0.0778  1.0458
  121MOL0     C15878   7.397   8.613  10.869  0.6449 -0.4821 -0.5093
  121MOL0     C15879   7.249   8.578  10.834 -0.2759  1.1003  0.0303
  121MOL0     C15880   7.189   8.656  10.715 -0.4726  0.3268  0.2283
  121MOL0     C15881   7.042   8.615  10.689 -0.3281  0.0452 -0.7142
  121MOL0     C15882   7.027   8.474  10.628 -0.3080 -0.6928 -0.7645
  121MOL0     C15883   6.879   8.453  10.615  0.1376 -0.3353  0.8301
  121MOL0    Cl15884   6.802   8.564  10.490  0.1177  0.3693  0.4366
  121MOL0     C15885   7.849   8.514  11.047  0.0154 -0.0110  0.7493
  121MOL0     C15886   7.981   8.501  11.079  0.0415  0.4378  0.6734
  121MOL0     O15887   8.218   8.465  11.242  0.7266  0.5961  0.5439
  121MOL0     C15888   8.450   8.555  10.997 -0.3356 -1.4481 -0.1135
  121MOL0     C15889   8.586   8.553  10.965  0.4646 -0.4586 -0.2034
  121MOL0     N15890   9.283   8.590  10.567 -0.9398  0.2583  0.9048
  121MOL0     N15891   9.397   8.611  10.508 -0.5847 -0.2361 -0.2211
  121MOL0     C15892  10.684   8.586  10.201  0.8936  0.3678 -0.6977
  121MOL0     C15893  10.750   8.648  10.093 -1.4751  1.2650 -0.1128
  121MOL0     C15894  10.943   8.846   9.783 -0.7217 -0.4839  0.2821
  121MOL0     C15895  10.851   8.887   9.683 -0.4325 -0.5084  0.9405
  121MOL0     C15896  10.899   8.897   9.546 -0.0718  0.7542 -0.1584
  121MOL0     C15897  11.031   8.866   9.512 -0.7252 -0.1939 -0.1800
  121MOL0     O15898  11.070   8.878   9.383 -0.1083  0.1722  0.4654
  121MOL0     C15899  11.194   8.831   9.331  0.1142 -0.2896  0.3795
  121MOL0     C15900  11.203   8.674   9.345 -0.4720 -0.0590  0.5506
  121MOL0     C15901  11.312   8.627   9.241 -0.3632 -0.1096 -0.2460
  121MOL0     C15902  11.298   8.475   9.220  0.7697  0.3806 -0.5846
  121MOL0     C15903  11.406   8.423   9.141  0.5278  0.8646 -0.7843
  121MOL0     C15904  11.505   8.393   9.077 -1.0581  0.2615  0.2004
  121MOL0     C15905  11.117   8.841   9.617  0.6243 -1.0255  0.3608
  121MOL0     C15906  11.068   8.823   9.750 -0.9362 -0.3759  0.6310
  121MOL0     H15907  10.530   8.878  10.019  1.1845 -1.2492 -3.2406
  121MOL0     H15908  10.408   8.773  10.223  0.9842  0.7865  1.5736
  121MOL0     H15909  10.308   8.518  10.310  0.1943  0.6888 -0.9360
  121MOL0     H15910  10.337   8.671  10.394  0.3442  0.1289  0.1692
  121MOL0     H15911  10.355   8.617  10.580 -1.0203 -0.7059  0.6005
  121MOL0     H15912  10.422   8.456  10.567  0.5739 -0.5750 -0.5687
  121MOL0     H15913  10.193   8.424  10.644  0.5195 -3.0891 -0.8933
  121MOL0     H15914  10.210   8.364  10.480 -0.4960 -2.2982  2.8499
  121MOL0     H15915  10.138   8.652  10.520  0.2198 -1.3339  1.8672
  121MOL0     H15916  10.098   8.540  10.383  0.7577  0.5760 -1.0598
  121MOL0     H15917   9.955   8.559  10.641 -4.0483 -3.6168  0.5578
  121MOL0     H15918   9.954   8.405  10.557 -0.5095 -0.0233 -2.3542
  121MOL0     H15919   9.888   8.502  10.352 -1.1645  0.0366 -0.3170
  121MOL0     H15920   9.879   8.662  10.416  0.0820  0.5641 -0.6882
  121MOL0     H15921   9.673   8.510  10.373  1.1300 -0.5012 -0.8656
  121MOL0     H15922   9.714   8.420  10.517 -1.3050  0.8794  1.4261
  121MOL0     H15923   9.638   8.724  10.501 -0.6052 -1.3409 -3.9234
  121MOL0     H15924   9.678   8.640  10.661 -1.1803 -3.0826  1.2047
  121MOL0     H15925   9.516   8.510  10.794  0.1939 -0.6475 -1.1872
  121MOL0     H15926   9.256   8.623  10.866  2.9677  0.8372 -1.1637
  121MOL0     H15927   9.290   8.444  10.889  0.1330  1.4690  0.8047
  121MOL0     H15928   9.084   8.387  10.754 -2.8848  0.7152 -0.7757
  121MOL0     H15929   9.072   8.550  10.708 -1.0388  0.9674  0.7319
  121MOL0     H15930   9.033   8.426  10.984  0.1743  0.6540  0.5373
  121MOL0     H15931   9.066   8.594  10.973 -0.6850 -0.2028 -0.6958
  121MOL0     H15932   8.811   8.453  10.876  1.4417 -0.4946 -0.2736
  121MOL0     H15933   8.842   8.628  10.846  0.2140  1.4654  2.1722
  121MOL0     H15934   8.724   8.580  11.275 -0.0500  1.8063  0.1505
  121MOL0     H15935   8.467   8.554  11.334  0.1393 -3.3978  0.7142
  121MOL0     H15936   8.060   8.837  11.033  1.5879 -0.5886  0.2032
  121MOL0     H15937   7.818   8.843  10.995  0.2916 -0.5750 -1.5710
  121MOL0     H15938   7.591   8.466  11.106  0.1918  0.3443 -0.2202
  121MOL0     H15939   7.600   8.456  10.931  0.4084 -0.0113 -0.7355
  121MOL0     H15940   7.400   8.625  11.086 -0.9316 -0.9090  1.0754
  121MOL0     H15941   7.377   8.460  11.020  0.8411 -0.3195 -1.2437
  121MOL0     H15942   7.460   8.579  10.786 -0.7461 -1.3954 -1.2385
  121MOL0     H15943   7.416   8.720  10.881  1.9197 -0.9103  1.6697
  121MOL0     H15944   7.241   8.471  10.815  1.4696  1.3539 -2.6459
  121MOL0     H15945   7.190   8.601  10.923  0.2847 -0.7615  0.9298
  121MOL0     H15946   7.241   8.638  10.621 -3.2070  0.7690 -1.5009
  121MOL0     H15947   7.188   8.762  10.743 -0.9761 -0.2031  2.3568
  121MOL0     H15948   7.000   8.688  10.618  3.4903  1.8027 -1.4143
  121MOL0     H15949   7.002   8.621  10.791  2.4603 -0.9312  0.5221
  121MOL0     H15950   7.072   8.478  10.529  0.0130  1.4791 -0.5690
  121MOL0     H15951   7.070   8.394  10.690 -0.9203  1.5075  2.7748
  121MOL0     H15952   6.830   8.458  10.713 -1.2436 -1.9114  0.2819
  121MOL0     H15953   6.861   8.350  10.583 -0.4089  0.1218 -0.3905
  121MOL0     H15954   7.788   8.424  11.043 -1.5274  0.9464  1.5469
  121MOL0     H15955   8.023   8.401  11.078  0.1122  0.4626  1.0235
  121MOL0     H15956   8.380   8.544  10.914  0.3820 -1.6548 -0.7060
  121MOL0     H15957   8.615   8.560  10.861 -2.2664  0.1845 -0.9946
  121MOL0     H15958  10.717   8.507  10.268 -2.4654 -0.0030  0.7125
  121MOL0     H15959  10.850   8.613  10.072 -1.4909  0.1919  1.3912
  121MOL0     H15960  10.749   8.920   9.696 -0.9723 -0.0879 -2.9788
  121MOL0     H15961  10.845   8.916   9.453 -0.0116  0.6814 -0.2089
  121MOL0     H15962  11.276   8.877   9.387 -2.4011  0.4595  3.7891
  121MOL0     H15963  11.194   8.850   9.224 -2.3709 -1.0417  0.1750
  121MOL0     H15964  11.236   8.652   9.447 -0.2638  0.4105  0.5888
  121MOL0     H15965  11.113   8.614   9.328  1.0592 -1.7342 -2.7375
  121MOL0     H15966  11.402   8.647   9.301 -1.5787 -0.5705  1.8075
  121MOL0     H15967  11.319   8.682   9.146  0.5893 -0.1453 -0.2142
  121MOL0     H15968  11.293   8.430   9.319  1.2718  3.0359  0.7294
  121MOL0     H15969  11.203   8.460   9.168  0.8591  1.0304 -0.9473
  121MOL0     H15970  11.592   8.384   9.015 -1.0252  3.1495 -0.3475
  121MOL0     H15971  11.224   8.827   9.602  0.9605 -1.6851  2.8925
  121MOL0     H15972  11.149   8.792   9.815  0.7761  0.3458 -1.0512
  122MOL0     O15973   3.329   2.090   6.536  0.5394 -0.2510 -0.3650
  122MOL0     C15974   3.387   1.992   6.486 -0.4441 -0.8009 -0.3166
  122MOL0     O15975   3.334   1.876   6.457  1.0095 -0.1634  0.1079
  122MOL0     C15976   3.201   1.854   6.476 -0.1193 -0.0415 -0.3439
  122MOL0     C15977   3.134   1.800   6.364 -0.1165 -0.0009  0.2155
  122MOL0     C15978   3.001   1.763   6.372  0.5435 -0.3127 -0.1517
  122MOL0     C15979   2.935   1.760   6.495  0.9628 -0.1260 -0.5892
  122MOL0     O15980   2.804   1.728   6.487 -0.1267 -0.8078 -0.5262
  122MOL0     C15981   2.746   1.654   6.593 -0.0909 -0.5213  0.7851
  122MOL0     C15982   2.651   1.550   6.527 -0.6200  0.2836 -0.4709
  122MOL0     C15983   2.527   1.606   6.450  0.0331 -0.0893  0.0270
  122MOL0     C15984   2.399   1.522   6.461 -0.6722 -0.0083  0.2171
  122MOL0     C15985   2.345   1.511   6.593  0.9599 -0.5034 -0.0409
  122MOL0     C15986   2.213   1.439   6.588 -0.4664 -0.4125  0.1749
  122MOL0     C15987   2.118   1.472   6.708  0.3705 -0.2505 -0.4663
  122MOL0     C15988   1.975   1.411   6.696  0.5370  0.6017  0.4476
  122MOL0     N15989   1.900   1.507   6.610 -0.3727  0.1148  0.3831
  122MOL0     C15990   1.801   1.594   6.650 -0.8533  0.0966 -0.7893
  122MOL0     C15991   1.755   1.644   6.534  0.8005 -0.5047  0.0232
  122MOL0     C15992   1.669   1.760   6.504 -0.3354 -0.2281  0.3953
  122MOL0     C15993   1.528   1.764   6.571 -0.3310 -0.5667  0.1850
  122MOL0     C15994   1.450   1.886   6.504  0.3755  0.0112  0.3226
  122MOL0     C15995   1.328   1.930   6.583  0.6921 -0.4957 -0.8980
  122MOL0     O15996   1.292   2.061   6.529 -0.2905 -0.1143 -0.0369
  122MOL0     C15997   1.165   2.103   6.557 -0.7621 -0.6086 -1.2462
  122MOL0     C15998   1.105   2.165   6.454 -0.6299 -0.6008  0.7989
  122MOL0     C15999   0.978   2.223   6.469 -0.1571  0.3351 -0.8428
  122MOL0     C16000   0.909   2.213   6.585  0.1073  0.4198  0.0769
  122MOL0     C16001   0.767   2.259   6.596 -0.0919  0.2909  0.2069
  122MOL0     O16002   0.709   2.310   6.485 -0.1597 -0.0630  0.6838
  122MOL0     C16003   0.588   2.371   6.496 -0.8904 -0.4710  0.5920
  122MOL0     C16004   0.587   2.512   6.530 -0.3302 -0.3517  0.2950
  122MOL0     C16005   0.473   2.581   6.547 -0.4930 -0.2083 -0.9570
  122MOL0     C16006   0.348   2.515   6.539  0.0188  0.3656  0.1322
  122MOL0     O16007   0.232   2.580   6.562 -0.0770  0.3515  0.0598
  122MOL0     C16008   0.119   2.504   6.613  0.4170 -0.8062 -0.7073
  122MOL0     C16009  -0.003   2.592   6.630 -0.1735 -0.0991 -0.6375
  122MOL0     C16010  -0.092   2.532   6.740 -0.1751 -0.6439  0.1377
  122MOL0     C16011  -0.197   2.636   6.787 -0.3592  0.6068  0.5168
  122MOL0     C16012  -0.298   2.560   6.864 -0.2140  0.0332 -0.2602
  122MOL0     C16013  -0.415   2.639   6.915  0.3720  0.0050 -0.0592
  122MOL0     C16014  -0.510   2.553   7.003 -0.1761 -0.8659 -0.7333
  122MOL0     C16015  -0.616   2.648   7.061 -0.2147  0.3920 -0.0937
  122MOL0    Cl16016  -0.548   2.783   7.166  0.2228  0.0753 -0.0935
  122MOL0     C16017   0.352   2.380   6.503  0.4145  0.9300 -0.6567
  122MOL0     C16018   0.472   2.310   6.488 -0.3451  0.1624  0.1212
  122MOL0     O16019   0.711   2.248   6.703  0.6676 -0.2531 -0.1709
  122MOL0     C16020   0.976   2.153   6.696 -0.0842  0.0634 -0.0886
  122MOL0     C16021   1.106   2.102   6.681  0.3935 -0.2240  0.3255
  122MOL0     N16022   1.816   1.584   6.425  0.4521 -0.5634 -0.1023
  122MOL0     N16023   1.909   1.506   6.471  0.3032 -0.2101 -0.5154
  122MOL0     C16024   3.010   1.799   6.617  0.4144 -1.1055 -0.0702
  122MOL0     C16025   3.143   1.839   6.597 -0.7929 -0.5877  0.0550
  122MOL0     C16026   3.524   2.008   6.455  0.2551  0.0264  0.5207
  122MOL0     C16027   3.605   2.093   6.535 -0.8055  0.8585  0.5513
  122MOL0     C16028   3.741   2.110   6.506 -0.4676  0.1351  0.4181
  122MOL0     C16029   3.801   2.051   6.398  0.2959 -0.8073 -1.6389
  122MOL0     O16030   3.940   2.071   6.395  0.2892 -0.0908  0.0394
  122MOL0     C16031   3.993   2.084   6.262 -0.0541 -0.4945  0.1105
  122MOL0     C16032   4.149   2.070   6.271  0.1530  0.4702 -0.5618
  122MOL0     C16033   4.222   2.186   6.335 -0.0747 -0.3625  0.0359
  122MOL0     C16034   4.243   2.179   6.483 -0.3057 -0.5398 -0.2950
  122MOL0     C16035   4.349   2.264   6.526 -0.3883  0.1535  0.1925
  122MOL0     C16036   4.439   2.339   6.560  0.3907 -0.4292  0.9811
  122MOL0     C16037   3.727   1.970   6.317  0.2719  0.8429  0.6978
  122MOL0     C16038   3.584   1.963   6.337 -0.2976 -0.8874 -0.3532
  122MOL0     H16039   3.177   1.802   6.264 -3.0707 -0.6831 -1.2045
  122MOL0     H16040   2.965   1.717   6.281  3.3753 -3.4139  0.0637
  122MOL0     H16041   2.684   1.709   6.664 -1.3036  0.3686 -0.8952
  122MOL0     H16042   2.822   1.604   6.654  0.4842  2.2950  2.5264
  122MOL0     H16043   2.618   1.481   6.605 -0.2771  1.3829  0.6765
  122MOL0     H16044   2.713   1.498   6.452 -0.1969  3.0763 -2.2162
  122MOL0     H16045   2.553   1.616   6.345 -0.1877  0.9132  0.0609
  122MOL0     H16046   2.502   1.708   6.481 -1.0403  1.3656 -4.7705
  122MOL0     H16047   2.318   1.559   6.398 -2.5200 -2.5738  0.8983
  122MOL0     H16048   2.428   1.425   6.418  0.6224  0.8810 -0.9973
  122MOL0     H16049   2.328   1.613   6.630  0.7575 -0.0300 -1.3903
  122MOL0     H16050   2.412   1.453   6.657  2.1942 -0.1424 -0.9632
  122MOL0     H16051   2.232   1.331   6.590  1.0261 -0.3271 -2.9386
  122MOL0     H16052   2.164   1.455   6.492 -0.5174 -1.6404 -0.0158
  122MOL0     H16053   2.163   1.435   6.800  1.8475 -0.6365 -1.3082
  122MOL0     H16054   2.114   1.579   6.730  2.3310 -0.1633 -0.3837
  122MOL0     H16055   1.931   1.412   6.797  0.8616  2.9741  0.6130
  122MOL0     H16056   1.977   1.309   6.656 -0.7180  0.6721  0.1664
  122MOL0     H16057   1.784   1.629   6.751 -1.3412  0.1760 -0.8937
  122MOL0     H16058   1.658   1.758   6.395  1.5003 -2.0999  0.1918
  122MOL0     H16059   1.730   1.846   6.531 -0.0710 -0.2910  0.0082
  122MOL0     H16060   1.545   1.785   6.677  2.1053  2.0493 -0.6087
  122MOL0     H16061   1.475   1.668   6.561 -3.2423  0.9160  0.3819
  122MOL0     H16062   1.509   1.978   6.504 -0.2675  0.4256  0.6041
  122MOL0     H16063   1.419   1.861   6.402  0.0659  0.5602  0.2822
  122MOL0     H16064   1.356   1.938   6.688 -0.4976  0.2759 -0.6304
  122MOL0     H16065   1.243   1.861   6.580 -0.3979  0.7310  0.5546
  122MOL0     H16066   1.155   2.162   6.358 -1.3945  1.1802  0.3007
  122MOL0     H16067   0.925   2.265   6.384 -2.4297 -1.3650 -0.3768
  122MOL0     H16068   0.674   2.576   6.539 -0.8435  0.2630  1.0638
  122MOL0     H16069   0.480   2.689   6.558 -0.1174 -0.3752  0.7124
  122MOL0     H16070   0.144   2.457   6.708 -0.4214 -2.0180 -1.0501
  122MOL0     H16071   0.098   2.425   6.540  0.1775  0.3922 -1.9771
  122MOL0     H16072  -0.061   2.622   6.542 -0.9745  0.8195  0.1646
  122MOL0     H16073   0.030   2.688   6.671 -2.0254  1.1316 -1.8581
  122MOL0     H16074  -0.037   2.505   6.831 -0.8626  3.6210  2.0958
  122MOL0     H16075  -0.139   2.447   6.691  1.5395 -2.9134  2.1719
  122MOL0     H16076  -0.144   2.719   6.836 -0.0745  1.0420 -0.4873
  122MOL0     H16077  -0.254   2.679   6.704  0.0065 -0.6235 -0.3894
  122MOL0     H16078  -0.248   2.520   6.952  1.1046  0.6913 -0.6811
  122MOL0     H16079  -0.330   2.477   6.801 -0.3191 -0.0666 -0.0727
  122MOL0     H16080  -0.479   2.670   6.832 -2.2670  1.2794  2.2505
  122MOL0     H16081  -0.392   2.733   6.967 -3.4394  0.8003  0.5365
  122MOL0     H16082  -0.565   2.478   6.945  0.0917 -1.2376 -0.5076
  122MOL0     H16083  -0.446   2.498   7.073  1.6138  2.1085  0.1676
  122MOL0     H16084  -0.680   2.590   7.128 -1.4039 -2.5252 -3.4421
  122MOL0     H16085  -0.676   2.687   6.978  0.8222 -0.0978 -1.0840
  122MOL0     H16086   0.268   2.317   6.474  1.3336 -0.1955 -0.9460
  122MOL0     H16087   0.478   2.204   6.463  3.0288  0.6033 -1.4534
  122MOL0     H16088   0.928   2.137   6.792  0.3805  0.4771  0.2199
  122MOL0     H16089   1.153   2.063   6.771 -1.0347  0.6663  1.4918
  122MOL0     H16090   2.953   1.797   6.709 -0.0126  0.3053 -0.2770
  122MOL0     H16091   3.207   1.838   6.685  1.5808 -0.0624 -1.5629
  122MOL0     H16092   3.569   2.139   6.627  1.4683  3.3894  0.2890
  122MOL0     H16093   3.806   2.166   6.573  1.9368  0.0184 -1.6775
  122MOL0     H16094   3.984   2.189   6.232  1.5723  0.7048  3.3245
  122MOL0     H16095   3.957   2.021   6.180  0.8513 -1.6777  0.5920
  122MOL0     H16096   4.183   1.975   6.313  1.4830  0.3975 -1.7333
  122MOL0     H16097   4.175   2.067   6.165 -2.0838 -0.7561 -1.1369
  122MOL0     H16098   4.177   2.281   6.306 -0.6345 -0.9344 -1.0375
  122MOL0     H16099   4.321   2.190   6.287 -0.3728  1.5554 -0.5176
  122MOL0     H16100   4.155   2.217   6.537  1.0425  0.8567  1.0274
  122MOL0     H16101   4.260   2.076   6.513 -1.5498 -0.1430  1.9636
  122MOL0     H16102   4.525   2.399   6.581  2.8932 -2.7430 -1.7061
  122MOL0     H16103   3.771   1.915   6.235 -0.5490  2.3668 -0.8197
  122MOL0     H16104   3.524   1.910   6.264  0.4033  0.7280 -2.2147
  123MOL0     O16105   4.742  10.112   8.491  0.3687 -0.2395 -0.3947
  123MOL0     C16106   4.818  10.039   8.545 -0.0352  0.1125  0.3001
  123MOL0     O16107   4.795   9.911   8.584  0.3747 -0.0342 -0.1870
  123MOL0     C16108   4.671   9.864   8.570  0.2750  0.4994 -0.1100
  123MOL0     C16109   4.602   9.859   8.446 -0.0931 -0.3550 -0.0743
  123MOL0     C16110   4.472   9.801   8.433 -1.3176  0.3087 -0.5769
  123MOL0     C16111   4.420   9.730   8.544  0.0909  0.4641 -0.1001
  123MOL0     O16112   4.288   9.674   8.554 -0.8449  0.3834  0.2520
  123MOL0     C16113   4.199   9.701   8.445 -0.3975  0.2948  0.3200
  123MOL0     C16114   4.143   9.846   8.447  0.0926  0.3679 -0.0834
  123MOL0     C16115   4.017   9.856   8.356  0.6557  0.8112 -1.3281
  123MOL0     C16116   3.888   9.904   8.424  0.9300 -0.3282  0.0187
  123MOL0     C16117   3.766   9.873   8.332  0.5353 -0.3038  0.9139
  123MOL0     C16118   3.770   9.941   8.197 -0.6792 -0.2123  0.0392
  123MOL0     C16119   3.774  10.096   8.213 -0.1940  0.7156  0.6705
  123MOL0     C16120   3.750  10.151   8.072  0.0888 -0.0955  0.2517
  123MOL0     N16121   3.780  10.293   8.053 -0.3126 -0.5675 -0.2608
  123MOL0     C16122   3.735  10.398   8.136 -0.2948 -0.4634  0.7659
  123MOL0     C16123   3.767  10.504   8.061 -0.5470 -0.7982 -0.6491
  123MOL0     C16124   3.739  10.639   8.105  0.2582 -0.8942 -0.3128
  123MOL0     C16125   3.657  10.716   8.004 -0.7150 -0.7059  0.1172
  123MOL0     C16126   3.516  10.651   8.003 -0.5041  0.5322 -0.0629
  123MOL0     C16127   3.411  10.732   7.924 -0.7303  0.5443 -0.0217
  123MOL0     O16128   3.376  10.843   8.006  0.1998  0.5034  0.6246
  123MOL0     C16129   3.308  10.947   7.948  0.4052  0.1044  0.2597
  123MOL0     C16130   3.258  10.946   7.816  0.8043  0.6790  0.1024
  123MOL0     C16131   3.184  11.052   7.770 -0.1418  0.7611 -0.3623
  123MOL0     C16132   3.152  11.156   7.850 -0.6516 -0.9407 -0.7189
  123MOL0     C16133   3.039  11.248   7.808 -0.1636 -0.2362 -0.8958
  123MOL0     O16134   3.000  11.336   7.903 -0.7678  0.2802  0.0774
  123MOL0     C16135   2.896  11.424   7.882  0.3010  0.5468  0.1325
  123MOL0     C16136   2.892  11.530   7.979  0.1482  0.7232 -0.1608
  123MOL0     C16137   2.792  11.628   7.970 -0.5508 -0.6824 -0.5539
  123MOL0     C16138   2.694  11.632   7.865  0.6728 -0.9777 -0.8412
  123MOL0     O16139   2.596  11.723   7.848 -0.3277  0.1296 -0.7159
  123MOL0     C16140   2.620  11.856   7.901  0.5544  0.4156 -0.2747
  123MOL0     C16141   2.513  11.944   7.858 -0.4050  0.0926 -0.2463
  123MOL0     C16142   2.382  11.883   7.914 -0.1182  0.2040 -0.0870
  123MOL0     C16143   2.255  11.977   7.905  0.1286  0.0536  0.4491
  123MOL0     C16144   2.147  11.937   8.008 -0.8269 -0.3169 -0.6013
  123MOL0     C16145   2.070  12.055   8.064 -0.0440  1.2890  0.3978
  123MOL0     C16146   1.959  12.006   8.153  0.9967 -0.2516  0.0629
  123MOL0     C16147   1.898  12.107   8.242  0.2253  1.1972 -0.1083
  123MOL0    Cl16148   1.810  12.239   8.152 -0.2180  0.7326  0.0510
  123MOL0     C16149   2.693  11.524   7.770  0.2937 -0.4199  0.0155
  123MOL0     C16150   2.792  11.425   7.781  0.0729 -0.0566 -0.1184
  123MOL0     O16151   2.989  11.231   7.700 -0.4767  0.0527  0.0105
  123MOL0     C16152   3.197  11.160   7.986  0.1331  0.3370 -0.2426
  123MOL0     C16153   3.278  11.060   8.027  0.6948 -0.7555 -0.2237
  123MOL0     N16154   3.850  10.464   7.956 -0.0292 -0.4972 -0.1156
  123MOL0     N16155   3.851  10.340   7.955 -0.0542 -0.2922  0.9167
  123MOL0     C16156   4.494   9.732   8.660 -0.3670  0.3416 -0.1665
  123MOL0     C16157   4.616   9.796   8.680  0.5736 -0.4559 -0.7001
  123MOL0     C16158   4.956  10.073   8.563  0.6504 -0.4214  0.6944
  123MOL0     C16159   4.996  10.205   8.510 -0.7388  0.1030 -0.6496
  123MOL0     C16160   5.134  10.233   8.527 -0.1082 -0.3253 -0.0869
  123MOL0     C16161   5.226  10.141   8.588 -0.9860  0.2671  0.2609
  123MOL0     O16162   5.358  10.168   8.606 -0.2467 -0.1277  0.5449
  123MOL0     C16163   5.397  10.302   8.643  1.0273  0.6336  0.1244
  123MOL0     C16164   5.540  10.298   8.624 -0.3166  0.3912  0.0528
  123MOL0     C16165   5.594  10.420   8.704  0.4276 -0.6348  0.2035
  123MOL0     C16166   5.745  10.405   8.732 -0.3555 -0.6825  0.0092
  123MOL0     C16167   5.775  10.295   8.828  0.8399  0.3701 -0.5047
  123MOL0     C16168   5.815  10.215   8.915 -0.8826 -1.3741  0.0342
  123MOL0     C16169   5.182  10.017   8.631  0.3768 -0.2930  0.7537
  123MOL0     C16170   5.052   9.984   8.610  0.4826 -0.0175 -0.2667
  123MOL0     H16171   4.635   9.923   8.365 -0.9183  2.0510  1.4064
  123MOL0     H16172   4.430   9.794   8.333  1.6908 -1.2610 -1.8915
  123MOL0     H16173   4.113   9.635   8.458 -1.1770  1.1535 -0.3298
  123MOL0     H16174   4.241   9.675   8.348 -1.0263 -0.4474  0.2369
  123MOL0     H16175   4.224   9.910   8.409  1.3513 -1.3839 -0.4596
  123MOL0     H16176   4.132   9.877   8.551 -0.8679  2.5335 -0.7688
  123MOL0     H16177   3.986   9.767   8.300 -1.4459 -0.6371  1.7760
  123MOL0     H16178   4.048   9.930   8.282 -2.4157  1.5574 -2.0032
  123MOL0     H16179   3.879   9.849   8.518 -1.7392 -1.4136 -0.7791
  123MOL0     H16180   3.898  10.010   8.449  1.8651 -0.2352 -0.7149
  123MOL0     H16181   3.673   9.912   8.374  0.5467  1.8172 -0.8520
  123MOL0     H16182   3.766   9.764   8.320  2.5925 -0.1228 -2.0875
  123MOL0     H16183   3.688   9.910   8.131 -1.0520 -1.5101  1.0617
  123MOL0     H16184   3.857   9.901   8.143 -0.1201  3.0081 -1.6605
  123MOL0     H16185   3.690  10.122   8.277 -1.9316 -0.8154 -0.8522
  123MOL0     H16186   3.863  10.135   8.262 -2.4644  0.9862  5.0733
  123MOL0     H16187   3.646  10.126   8.053  0.6394 -0.9902 -1.8481
  123MOL0     H16188   3.800  10.085   8.001 -1.4385 -0.0130 -0.9374
  123MOL0     H16189   3.677  10.400   8.227 -1.3372  2.3678  0.1424
  123MOL0     H16190   3.833  10.694   8.115 -0.2934  0.2711 -1.3060
  123MOL0     H16191   3.693  10.652   8.203 -1.6725 -1.6451 -1.0815
  123MOL0     H16192   3.717  10.723   7.913  0.4571  0.0882  0.9040
  123MOL0     H16193   3.642  10.818   8.042  1.5460 -0.8365  1.6248
  123MOL0     H16194   3.526  10.554   7.953 -1.6959  0.2922  0.1273
  123MOL0     H16195   3.488  10.633   8.107  1.7606 -1.9068  0.2439
  123MOL0     H16196   3.327  10.666   7.901 -0.7621  0.3297  0.6750
  123MOL0     H16197   3.459  10.763   7.831 -1.0374 -0.5761 -0.5571
  123MOL0     H16198   3.268  10.855   7.759  1.3681  1.0259 -0.3605
  123MOL0     H16199   3.128  11.039   7.678 -1.7966  1.1368  0.5461
  123MOL0     H16200   2.967  11.531   8.057  1.7243 -0.8990 -1.5599
  123MOL0     H16201   2.801  11.708   8.043  2.8830 -0.1850 -1.3514
  123MOL0     H16202   2.721  11.883   7.869  2.4198 -3.7250  1.3991
  123MOL0     H16203   2.615  11.851   8.010 -0.1753  2.5522 -0.1632
  123MOL0     H16204   2.509  11.950   7.749  2.2631 -2.0099 -0.5646
  123MOL0     H16205   2.524  12.042   7.906  0.3589 -0.6209  1.1070
  123MOL0     H16206   2.402  11.868   8.020  2.5393  3.5758  0.0362
  123MOL0     H16207   2.356  11.787   7.868  1.1207 -0.5922  0.8380
  123MOL0     H16208   2.265  12.085   7.910 -2.9029  0.5231 -1.2488
  123MOL0     H16209   2.211  11.961   7.806 -1.9857  0.7998  1.2093
  123MOL0     H16210   2.176  11.877   8.095 -0.6469 -0.0262 -0.4598
  123MOL0     H16211   2.084  11.868   7.951  0.0044 -2.5768  1.0527
  123MOL0     H16212   2.032  12.110   7.977  0.0156  0.5973 -0.0806
  123MOL0     H16213   2.140  12.120   8.116  0.8100  0.2483  0.5970
  123MOL0     H16214   1.876  11.978   8.088 -1.7046  0.6385  2.9005
  123MOL0     H16215   1.981  11.918   8.214 -1.9504 -1.0488  0.1393
  123MOL0     H16216   1.972  12.160   8.302  0.2147  2.2186 -0.9787
  123MOL0     H16217   1.828  12.041   8.295 -0.0335 -0.9329 -2.8514
  123MOL0     H16218   2.613  11.522   7.697 -2.9355  1.1404  3.2156
  123MOL0     H16219   2.783  11.357   7.697 -0.8072  0.0944 -0.1575
  123MOL0     H16220   3.174  11.245   8.050  1.9484  1.9352 -1.5693
  123MOL0     H16221   3.327  11.053   8.123 -0.0081 -1.7792  0.0787
  123MOL0     H16222   4.440   9.691   8.744  0.3927  0.5125  0.4156
  123MOL0     H16223   4.662   9.802   8.778 -0.9016  1.4398 -0.0475
  123MOL0     H16224   4.919  10.266   8.463 -2.0889 -1.0595 -0.0614
  123MOL0     H16225   5.174  10.328   8.493 -3.1289  1.2306  0.4265
  123MOL0     H16226   5.379  10.324   8.749  2.8447  0.3762  0.5267
  123MOL0     H16227   5.352  10.383   8.584 -0.3131 -0.2701 -0.1190
  123MOL0     H16228   5.591  10.208   8.661  2.2861  1.9723  0.6044
  123MOL0     H16229   5.569  10.297   8.518  0.6860  2.0790  0.2763
  123MOL0     H16230   5.537  10.430   8.797 -0.6636 -0.2935 -0.4859
  123MOL0     H16231   5.586  10.507   8.639  1.7772 -1.3650 -0.9994
  123MOL0     H16232   5.793  10.379   8.637 -0.8433 -1.5036 -0.0247
  123MOL0     H16233   5.781  10.503   8.765  0.4058  0.0186 -2.6352
  123MOL0     H16234   5.860  10.144   8.982  1.0740 -0.7325 -0.5429
  123MOL0     H16235   5.246   9.943   8.677  1.1869 -0.2468 -0.2643
  123MOL0     H16236   5.017   9.882   8.627 -0.0005  0.3085  0.7615
  124MOL0     O16237   6.088   1.573   1.603  0.1753 -0.3163  0.3564
  124MOL0     C16238   6.170   1.506   1.541 -0.9495 -0.0292 -0.3053
  124MOL0     O16239   6.140   1.404   1.464 -0.8550  0.7419  0.1570
  124MOL0     C16240   6.010   1.348   1.466 -0.7597 -0.4479 -0.3383
  124MOL0     C16241   5.946   1.321   1.349 -0.0417  1.0688  0.8236
  124MOL0     C16242   5.822   1.266   1.343  0.4618 -0.1519  0.2246
  124MOL0     C16243   5.764   1.209   1.454 -0.0912 -0.3108 -0.4723
  124MOL0     O16244   5.645   1.144   1.436  0.2276 -0.4454 -0.1953
  124MOL0     C16245   5.558   1.102   1.542  1.1541 -0.0498  1.1388
  124MOL0     C16246   5.480   0.974   1.496  0.3138 -0.5165 -0.9551
  124MOL0     C16247   5.568   0.853   1.519 -0.3557  0.4135  0.3939
  124MOL0     C16248   5.555   0.749   1.408 -0.3332 -0.2986 -0.0150
  124MOL0     C16249   5.663   0.642   1.423  0.5581 -0.1468  0.3677
  124MOL0     C16250   5.642   0.556   1.545  0.3117 -0.8166 -0.4706
  124MOL0     C16251   5.744   0.438   1.564 -0.1868 -1.3214 -0.2271
  124MOL0     C16252   5.746   0.372   1.703  0.2107  0.0181 -0.3791
  124MOL0     N16253   5.632   0.300   1.753  0.2463 -0.2111  0.4649
  124MOL0     C16254   5.623   0.162   1.756  0.0807  0.1666  0.9309
  124MOL0     C16255   5.501   0.141   1.809  0.4634  0.2905  0.0653
  124MOL0     C16256   5.437   0.007   1.837 -0.4076 -1.2044  0.3432
  124MOL0     C16257   5.480  -0.046   1.972 -0.0301 -0.9903 -0.1920
  124MOL0     C16258   5.392   0.007   2.080 -0.1005 -0.3786 -0.4851
  124MOL0     C16259   5.426  -0.029   2.221 -0.1105 -0.6495  0.3977
  124MOL0     O16260   5.314  -0.023   2.309  0.5268 -0.6302 -0.2727
  124MOL0     C16261   5.281   0.100   2.373 -0.1595  0.0247  0.5834
  124MOL0     C16262   5.168   0.093   2.455  1.1253 -0.2588 -0.1540
  124MOL0     C16263   5.128   0.204   2.538 -0.3628 -0.0318 -0.5554
  124MOL0     C16264   5.200   0.320   2.528  1.1679 -0.4541 -0.7484
  124MOL0     C16265   5.180   0.433   2.617 -0.0306 -0.8197 -1.4981
  124MOL0     O16266   5.132   0.403   2.741 -0.2437 -0.0916  0.4421
  124MOL0     C16267   5.115   0.499   2.837  0.2193 -0.7954  1.0206
  124MOL0     C16268   5.216   0.593   2.868  0.6859 -0.6513 -0.3253
  124MOL0     C16269   5.187   0.690   2.962  0.6851 -0.2311 -0.0795
  124MOL0     C16270   5.059   0.708   3.010 -0.0783  0.7406  0.3090
  124MOL0     O16271   5.033   0.806   3.095  0.3324  0.6399  0.3120
  124MOL0     C16272   5.012   0.931   3.034  0.8610  0.1279 -0.3796
  124MOL0     C16273   4.939   1.026   3.129  0.0963 -0.1228 -0.2349
  124MOL0     C16274   4.805   0.999   3.183 -0.3188  0.2587 -0.3722
  124MOL0     C16275   4.750   1.095   3.287  0.7571 -0.2927 -0.0010
  124MOL0     C16276   4.698   1.227   3.226 -0.7122 -0.1093 -0.4096
  124MOL0     C16277   4.631   1.306   3.342 -0.2741  1.0702  0.4589
  124MOL0     C16278   4.567   1.436   3.290  0.1451  0.0448 -0.4383
  124MOL0     C16279   4.509   1.527   3.398  0.2038  0.2123 -0.4882
  124MOL0    Cl16280   4.405   1.439   3.518  0.4287  0.1198 -0.0650
  124MOL0     C16281   4.957   0.628   2.975  0.1658 -0.0547 -0.0775
  124MOL0     C16282   4.988   0.519   2.891  0.5836 -1.3076 -0.3310
  124MOL0     O16283   5.217   0.544   2.583 -0.3138 -0.4467  0.9138
  124MOL0     C16284   5.312   0.325   2.442  0.3932  0.0159  0.3945
  124MOL0     C16285   5.350   0.219   2.362  0.5599 -0.4308  0.5378
  124MOL0     N16286   5.440   0.258   1.840  0.2191 -0.1156 -0.1798
  124MOL0     N16287   5.521   0.356   1.815  1.5692  0.4998  0.3250
  124MOL0     C16288   5.826   1.230   1.579  1.0448 -0.9900 -0.5268
  124MOL0     C16289   5.951   1.299   1.580  0.4559 -0.2638  0.7997
  124MOL0     C16290   6.316   1.539   1.566 -0.2985 -0.0346 -0.1157
  124MOL0     C16291   6.417   1.438   1.545 -0.0034 -0.0860  0.6772
  124MOL0     C16292   6.553   1.479   1.544  0.0942 -0.3103 -0.0175
  124MOL0     C16293   6.585   1.614   1.572  0.5940  0.0599 -0.7581
  124MOL0     O16294   6.716   1.649   1.577 -1.1810  0.2340  1.0158
  124MOL0     C16295   6.769   1.785   1.562  0.6806  0.6063 -0.5153
  124MOL0     C16296   6.913   1.767   1.604  0.3742  0.1881  0.2439
  124MOL0     C16297   6.987   1.901   1.593  0.4392 -1.3809  0.7477
  124MOL0     C16298   7.138   1.875   1.602  0.1827  0.6455 -0.1825
  124MOL0     C16299   7.221   1.993   1.580  0.4267  0.1301 -0.4693
  124MOL0     C16300   7.285   2.094   1.571  0.5239 -0.4960  0.1772
  124MOL0     C16301   6.487   1.707   1.610  0.4153  0.7449  0.1933
  124MOL0     C16302   6.355   1.667   1.609  0.2949 -0.0522 -0.4374
  124MOL0     H16303   5.994   1.349   1.257 -0.2572  0.8770  0.6517
  124MOL0     H16304   5.780   1.265   1.243  3.1744 -0.9084 -1.0127
  124MOL0     H16305   5.480   1.179   1.545 -0.2864 -1.4476  1.2042
  124MOL0     H16306   5.605   1.085   1.639 -0.3146 -0.1963  1.8589
  124MOL0     H16307   5.446   0.976   1.392  0.7752 -4.4122 -1.3518
  124MOL0     H16308   5.394   0.955   1.561  0.1400 -1.0728 -1.3322
  124MOL0     H16309   5.531   0.807   1.611 -0.7147 -1.0146 -0.4297
  124MOL0     H16310   5.668   0.890   1.542 -1.0613  3.0451 -0.4406
  124MOL0     H16311   5.450   0.716   1.404  0.3381 -2.4925 -1.6472
  124MOL0     H16312   5.577   0.795   1.311  0.9437 -1.9796 -0.5747
  124MOL0     H16313   5.758   0.695   1.432 -0.7299  2.0714  1.9220
  124MOL0     H16314   5.657   0.586   1.329 -0.3853  0.6018 -0.0426
  124MOL0     H16315   5.543   0.510   1.555  0.8026 -2.2175 -1.6000
  124MOL0     H16316   5.659   0.623   1.629  3.6119 -2.5485  0.4369
  124MOL0     H16317   5.723   0.356   1.495 -0.0127 -2.4804  1.0489
  124MOL0     H16318   5.843   0.467   1.529  1.7815 -0.8156  4.8095
  124MOL0     H16319   5.768   0.447   1.780  0.1638  0.0987 -0.4427
  124MOL0     H16320   5.835   0.309   1.715  0.5433  0.2643 -1.4014
  124MOL0     H16321   5.707   0.094   1.740  0.9852  1.5084 -0.1995
  124MOL0     H16322   5.471  -0.071   1.768  0.1502  0.8508 -1.8411
  124MOL0     H16323   5.330   0.026   1.827 -0.0846 -0.4182 -2.5130
  124MOL0     H16324   5.581  -0.014   1.999  0.0320 -1.1535 -0.2284
  124MOL0     H16325   5.481  -0.156   1.968  1.9050 -0.9661 -1.6480
  124MOL0     H16326   5.378   0.115   2.074  2.7585  0.2003  1.2703
  124MOL0     H16327   5.293  -0.038   2.071 -0.4021 -0.3268  1.9003
  124MOL0     H16328   5.509   0.033   2.256 -0.9524 -0.4223  2.0514
  124MOL0     H16329   5.470  -0.130   2.220 -1.1362 -1.1431 -1.8051
  124MOL0     H16330   5.104   0.006   2.456  2.0127 -0.9204 -0.0181
  124MOL0     H16331   5.035   0.211   2.594 -0.8281 -0.4267 -1.2535
  124MOL0     H16332   5.311   0.585   2.816  0.4725  0.5791 -0.9336
  124MOL0     H16333   5.271   0.749   3.000  0.3077  0.8226 -0.8321
  124MOL0     H16334   4.941   0.922   2.952 -0.5328  1.7307  0.5757
  124MOL0     H16335   5.108   0.975   3.005  2.3309 -1.7052  1.3365
  124MOL0     H16336   4.932   1.116   3.068  0.8958 -1.5332 -2.5299
  124MOL0     H16337   5.005   1.042   3.215 -2.0610  0.3191  1.4132
  124MOL0     H16338   4.808   0.900   3.230 -1.3166 -0.9458 -2.6698
  124MOL0     H16339   4.729   0.991   3.105 -0.3682 -4.3887 -0.0860
  124MOL0     H16340   4.669   1.058   3.351 -3.0446  1.1647 -3.5623
  124MOL0     H16341   4.840   1.102   3.349  2.0319 -0.3149 -1.7737
  124MOL0     H16342   4.619   1.206   3.153  0.1422 -2.6956 -0.6876
  124MOL0     H16343   4.785   1.276   3.180  0.2429 -1.9478 -0.6307
  124MOL0     H16344   4.713   1.324   3.411  4.1867 -0.8895 -3.7602
  124MOL0     H16345   4.560   1.242   3.396  1.3628 -0.5006  0.8166
  124MOL0     H16346   4.645   1.491   3.236  2.0694 -1.8765  0.2305
  124MOL0     H16347   4.490   1.411   3.216  0.9970  0.4037 -1.4802
  124MOL0     H16348   4.451   1.601   3.342 -0.4646 -1.3458 -1.9516
  124MOL0     H16349   4.581   1.583   3.457  2.2959 -2.5302 -0.2305
  124MOL0     H16350   4.857   0.657   3.007  0.7566  1.3066  0.6328
  124MOL0     H16351   4.900   0.473   2.848 -0.1030  0.2087 -0.5851
  124MOL0     H16352   5.368   0.418   2.441 -0.8371  0.7782  0.1948
  124MOL0     H16353   5.440   0.228   2.304 -0.3650  0.2732 -0.8329
  124MOL0     H16354   5.773   1.198   1.668  3.5500 -1.7395  0.8062
  124MOL0     H16355   6.002   1.324   1.673  0.0676  1.2455  0.6273
  124MOL0     H16356   6.392   1.340   1.505  2.8812  0.4143 -2.8614
  124MOL0     H16357   6.626   1.409   1.505  2.4736  1.1603  1.5080
  124MOL0     H16358   6.724   1.860   1.628 -0.4941  0.3818 -1.0405
  124MOL0     H16359   6.759   1.821   1.460 -1.6452 -0.1579 -0.6145
  124MOL0     H16360   6.927   1.732   1.707 -1.6986  1.8481  1.1532
  124MOL0     H16361   6.967   1.705   1.531 -1.3705  0.1994 -1.0983
  124MOL0     H16362   6.953   1.974   1.668 -1.2291  1.9840 -2.9329
  124MOL0     H16363   6.967   1.947   1.496  0.4206  0.0574  1.4013
  124MOL0     H16364   7.156   1.839   1.704 -0.2718 -1.3092 -0.7491
  124MOL0     H16365   7.167   1.801   1.528  0.8425  0.2556  0.4532
  124MOL0     H16366   7.341   2.184   1.560 -2.6694  1.4519 -1.4980
  124MOL0     H16367   6.507   1.810   1.636 -1.6016  0.8469  1.5524
  124MOL0     H16368   6.289   1.749   1.637  0.7949  0.9896 -2.1196
  125MOL0     O16369   5.975   0.107   1.795  0.8576 -0.1456 -0.0650
  125MOL0     C16370   6.068   0.123   1.873  0.7228  0.6317 -0.1993
  125MOL0     O16371   6.062   0.185   1.993  0.4252 -0.2072  0.2588
  125MOL0     C16372   5.952   0.246   2.042 -0.2369 -0.4579 -0.6901
  125MOL0     C16373   5.832   0.184   2.043 -0.0838  0.3132  0.1087
  125MOL0     C16374   5.721   0.249   2.095 -0.7811 -0.2686 -0.5891
  125MOL0     C16375   5.735   0.374   2.153 -0.5806 -0.7168 -0.3381
  125MOL0     O16376   5.625   0.439   2.206 -0.3275  0.1513  0.4828
  125MOL0     C16377   5.550   0.522   2.115 -0.0809 -0.4115  0.5068
  125MOL0     C16378   5.437   0.585   2.187 -0.0565 -0.0807 -0.7380
  125MOL0     C16379   5.477   0.705   2.269  0.2662 -0.3434 -0.8172
  125MOL0     C16380   5.363   0.808   2.281 -0.0186  0.8115  0.4892
  125MOL0     C16381   5.397   0.934   2.364  0.4272  0.0410 -0.1475
  125MOL0     C16382   5.282   0.990   2.458  0.1283  0.4369 -0.5634
  125MOL0     C16383   5.216   0.886   2.552 -0.1628  0.1636 -1.1399
  125MOL0     C16384   5.149   0.938   2.676 -0.5499 -0.6507 -0.7286
  125MOL0     N16385   5.230   1.030   2.761  0.2057 -0.0861  0.2419
  125MOL0     C16386   5.216   1.168   2.758  0.4937  0.1092  1.3731
  125MOL0     C16387   5.296   1.210   2.858  0.3462 -0.0150  0.0927
  125MOL0     C16388   5.293   1.352   2.903 -0.3951 -0.9340  0.0848
  125MOL0     C16389   5.440   1.401   2.887 -0.2334  0.2657 -0.0643
  125MOL0     C16390   5.470   1.540   2.949 -0.3010 -0.5887  0.0210
  125MOL0     C16391   5.436   1.562   3.101  0.5403 -0.0386 -0.1429
  125MOL0     O16392   5.512   1.673   3.158  0.8881  0.0051  0.0966
  125MOL0     C16393   5.471   1.797   3.116  0.0906 -0.1329 -0.1838
  125MOL0     C16394   5.558   1.902   3.147 -0.4461 -0.5678 -0.0878
  125MOL0     C16395   5.522   2.038   3.115  0.0860  0.2102  0.3190
  125MOL0     C16396   5.407   2.072   3.039 -0.2916 -0.2854 -0.4404
  125MOL0     C16397   5.377   2.211   3.010 -0.0528 -0.1815 -0.2434
  125MOL0     O16398   5.254   2.234   2.965  0.1509  0.3538  0.1839
  125MOL0     C16399   5.219   2.362   2.947 -0.0615 -0.0970 -0.0992
  125MOL0     C16400   5.235   2.435   2.825  0.0516 -0.0816 -0.2664
  125MOL0     C16401   5.213   2.577   2.809  0.5029  0.0858  0.3636
  125MOL0     C16402   5.165   2.641   2.925  0.3766 -0.8797 -0.4954
  125MOL0     O16403   5.126   2.772   2.923 -0.1503 -0.0209 -0.1907
  125MOL0     C16404   5.083   2.831   2.805 -0.2105  0.3410  0.2690
  125MOL0     C16405   5.018   2.963   2.831 -0.6063 -0.3930  0.1949
  125MOL0     C16406   4.952   3.007   2.701 -0.6892 -0.2121 -0.5243
  125MOL0     C16407   4.940   3.155   2.693  0.5077 -0.9090 -0.1709
  125MOL0     C16408   4.861   3.229   2.806 -0.2779 -0.1105 -0.4869
  125MOL0     C16409   4.719   3.182   2.839  0.2285 -0.0104 -0.4613
  125MOL0     C16410   4.677   3.241   2.973 -0.8024 -0.4744  0.3596
  125MOL0     C16411   4.527   3.245   3.003 -0.2930  0.0521  0.3685
  125MOL0    Cl16412   4.439   3.087   2.957  0.2054  0.0316  0.3121
  125MOL0     C16413   5.139   2.575   3.045 -0.4423  0.7637  1.1149
  125MOL0     C16414   5.166   2.434   3.052  0.1539  0.6707  0.3305
  125MOL0     O16415   5.467   2.289   3.009  0.2688 -0.5960 -0.1903
  125MOL0     C16416   5.318   1.968   3.013  0.0901 -0.1146 -0.1623
  125MOL0     C16417   5.358   1.836   3.045  0.3003 -0.2406  0.4698
  125MOL0     N16418   5.355   1.098   2.919 -0.2888 -0.3275  0.4852
  125MOL0     N16419   5.317   0.988   2.857 -1.0827 -0.1757  0.3053
  125MOL0     C16420   5.863   0.431   2.156  0.0159  0.1474  0.0891
  125MOL0     C16421   5.975   0.362   2.115 -0.6465  0.0329 -0.1935
  125MOL0     C16422   6.201   0.065   1.837 -0.5727 -0.5945  0.4248
  125MOL0     C16423   6.306   0.074   1.930 -0.4103  0.0246 -1.7478
  125MOL0     C16424   6.433   0.026   1.892 -0.0228 -0.1688  0.4010
  125MOL0     C16425   6.453  -0.029   1.774 -0.3351 -0.3571  0.1579
  125MOL0     O16426   6.582  -0.072   1.756 -0.6690  0.8421 -0.4275
  125MOL0     C16427   6.627  -0.128   1.630 -0.0784 -0.3244  0.1271
  125MOL0     C16428   6.739  -0.218   1.671  0.7986 -0.2157 -0.2857
  125MOL0     C16429   6.809  -0.295   1.557  0.3354  0.2636 -0.2329
  125MOL0     C16430   6.896  -0.418   1.604 -0.6024  0.2883  0.4057
  125MOL0     C16431   6.994  -0.383   1.703  0.0091 -0.4575  0.2370
  125MOL0     C16432   7.079  -0.351   1.787 -0.4737  0.3292 -0.1906
  125MOL0     C16433   6.346  -0.051   1.683  0.5665 -0.4547  0.5854
  125MOL0     C16434   6.218   0.003   1.710 -0.5081 -0.1557 -0.6284
  125MOL0     H16435   5.809   0.084   2.007 -1.4540 -0.0227  1.8044
  125MOL0     H16436   5.626   0.195   2.093 -0.3158 -1.0786 -1.5137
  125MOL0     H16437   5.519   0.463   2.028 -4.5439 -2.0528  2.8920
  125MOL0     H16438   5.612   0.602   2.072  0.8915 -0.7572  1.2286
  125MOL0     H16439   5.384   0.510   2.247 -1.1310 -0.1122 -1.6877
  125MOL0     H16440   5.369   0.620   2.108 -1.2649 -1.6167 -0.4416
  125MOL0     H16441   5.565   0.752   2.224 -2.3732  3.0516 -2.9629
  125MOL0     H16442   5.508   0.667   2.367  0.6915 -1.2156 -1.2796
  125MOL0     H16443   5.334   0.830   2.178 -0.4469  1.1470  0.6783
  125MOL0     H16444   5.272   0.762   2.321 -1.6341  1.5590 -2.1056
  125MOL0     H16445   5.429   1.011   2.292  0.0758  3.1048  2.6922
  125MOL0     H16446   5.481   0.911   2.430  2.8931  4.1338 -1.4698
  125MOL0     H16447   5.202   1.030   2.396  0.4132  2.7864  0.4699
  125MOL0     H16448   5.326   1.077   2.508  2.3786  0.0080 -1.6519
  125MOL0     H16449   5.139   0.826   2.504 -0.2612  0.2515 -1.0929
  125MOL0     H16450   5.295   0.819   2.586 -1.6903 -0.4875  1.3968
  125MOL0     H16451   5.133   0.851   2.741  0.3549 -1.0890 -1.0749
  125MOL0     H16452   5.053   0.978   2.643 -1.2720 -2.7863 -1.3677
  125MOL0     H16453   5.167   1.243   2.696  0.1919  0.5170  2.0845
  125MOL0     H16454   5.272   1.359   3.010  0.4249  0.5298  0.1772
  125MOL0     H16455   5.227   1.419   2.848  0.0778 -1.4148 -1.1117
  125MOL0     H16456   5.459   1.412   2.780 -0.6109  3.1952  0.0694
  125MOL0     H16457   5.512   1.326   2.920 -0.6147 -0.0016  0.1723
  125MOL0     H16458   5.574   1.558   2.921 -0.4557  0.4267  0.0429
  125MOL0     H16459   5.418   1.615   2.887  0.3559  0.5284  0.7787
  125MOL0     H16460   5.473   1.473   3.152  3.7688  1.3106  0.0611
  125MOL0     H16461   5.329   1.578   3.119  0.9495 -0.0368  2.7280
  125MOL0     H16462   5.656   1.885   3.191  0.9325  1.3835 -2.1928
  125MOL0     H16463   5.591   2.117   3.141  0.4278 -0.6935  2.4020
  125MOL0     H16464   5.284   2.378   2.746  0.8990  1.4016 -0.8413
  125MOL0     H16465   5.234   2.629   2.716 -0.3291  0.1878  0.2289
  125MOL0     H16466   4.996   2.772   2.774 -0.6845 -0.2170  2.4424
  125MOL0     H16467   5.162   2.830   2.730  0.5310  0.2422  1.0351
  125MOL0     H16468   5.095   3.038   2.851  0.8147 -1.5674 -0.6879
  125MOL0     H16469   4.950   2.963   2.917  2.7813  0.4095  3.0942
  125MOL0     H16470   4.854   2.960   2.692 -0.5456 -0.3623 -1.4104
  125MOL0     H16471   5.018   2.970   2.622 -0.2116 -0.8828  0.1829
  125MOL0     H16472   5.038   3.204   2.690 -0.2525  0.6336 -1.3866
  125MOL0     H16473   4.894   3.185   2.598  0.3672 -1.0586 -0.1488
  125MOL0     H16474   4.836   3.330   2.772  1.2881 -0.0897 -1.6502
  125MOL0     H16475   4.915   3.219   2.901  0.5867 -0.5359 -1.0202
  125MOL0     H16476   4.726   3.073   2.848 -2.2627 -0.2112 -0.1403
  125MOL0     H16477   4.643   3.203   2.763 -0.4337  1.4107  0.5469
  125MOL0     H16478   4.728   3.188   3.053 -2.5699 -3.1093 -0.1379
  125MOL0     H16479   4.711   3.345   2.973 -1.1093 -0.2467  3.9416
  125MOL0     H16480   4.474   3.324   2.949  2.8047  0.4693 -2.3951
  125MOL0     H16481   4.519   3.259   3.111  0.0341 -0.7496  0.5006
  125MOL0     H16482   5.088   2.624   3.128  1.7381 -0.8835  3.5818
  125MOL0     H16483   5.130   2.387   3.143 -4.0783 -1.9986 -2.3760
  125MOL0     H16484   5.220   1.979   2.967  0.5280 -1.8261 -1.6274
  125MOL0     H16485   5.297   1.753   3.011  0.5086 -0.2985  0.2303
  125MOL0     H16486   5.871   0.532   2.196 -1.1013 -0.0213  0.7929
  125MOL0     H16487   6.076   0.401   2.121 -0.4952 -0.1277 -1.4620
  125MOL0     H16488   6.288   0.116   2.029  3.0509 -1.7705 -0.1859
  125MOL0     H16489   6.514   0.037   1.963 -1.9375  1.1053  2.5564
  125MOL0     H16490   6.660  -0.047   1.564 -2.3982  2.7583  2.4442
  125MOL0     H16491   6.553  -0.183   1.571 -1.6809  3.1630 -1.4464
  125MOL0     H16492   6.808  -0.147   1.718  2.3839 -2.4635  1.0273
  125MOL0     H16493   6.698  -0.295   1.737  2.3994 -0.6865  0.2014
  125MOL0     H16494   6.874  -0.227   1.502  1.9444 -0.5868  0.5308
  125MOL0     H16495   6.744  -0.344   1.484  0.7941 -2.1524  0.8458
  125MOL0     H16496   6.839  -0.502   1.644  0.4832 -0.3376  0.6838
  125MOL0     H16497   6.950  -0.447   1.513 -3.0724  2.1931 -1.8573
  125MOL0     H16498   7.150  -0.323   1.863 -1.3281 -0.4721  0.9431
  125MOL0     H16499   6.366  -0.110   1.595  2.5577 -1.0320  1.3574
  125MOL0     H16500   6.143   0.007   1.632 -0.4471  0.0308 -0.6782
  126MOL0     O16501   0.920   3.883  11.166 -1.2843  0.5735  0.9713
  126MOL0     C16502   0.974   3.956  11.083  0.0362  0.2076 -0.5126
  126MOL0     O16503   0.923   3.984  10.961  0.0954  0.5442  0.1845
  126MOL0     C16504   0.796   3.947  10.930 -0.1376 -0.4485  0.1570
  126MOL0     C16505   0.684   4.037  10.972  0.8384  0.8015  0.0030
  126MOL0     C16506   0.549   3.997  10.941  1.1592  0.6096  0.6015
  126MOL0     C16507   0.522   3.885  10.857  0.3422 -0.3723 -0.2342
  126MOL0     O16508   0.394   3.853  10.814 -0.2795  0.1493 -0.1411
  126MOL0     C16509   0.270   3.873  10.896 -0.1232  0.0511 -1.0102
  126MOL0     C16510   0.154   3.794  10.830  1.1546  0.3093 -0.3117
  126MOL0     C16511   0.035   3.768  10.925 -0.3363  0.1245 -0.3694
  126MOL0     C16512  -0.029   3.887  10.991 -0.1683 -0.1367 -0.4693
  126MOL0     C16513  -0.177   3.872  11.035 -0.6537  0.6507  0.1970
  126MOL0     C16514  -0.205   3.740  11.116 -0.4805  0.7201 -0.2211
  126MOL0     C16515  -0.331   3.753  11.212 -0.0521  0.0230  0.0665
  126MOL0     C16516  -0.447   3.753  11.116 -0.0049 -0.1913 -0.5065
  126MOL0     N16517  -0.575   3.757  11.199 -0.6433 -0.9629  0.2508
  126MOL0     C16518  -0.620   3.651  11.270 -0.3939 -0.4696 -0.4188
  126MOL0     C16519  -0.731   3.696  11.337 -0.7853  0.6390 -0.4865
  126MOL0     C16520  -0.835   3.610  11.409 -0.7729  0.5945 -0.9681
  126MOL0     C16521  -0.975   3.661  11.405 -0.4782 -0.5976  0.3984
  126MOL0     C16522  -1.066   3.558  11.479 -0.4153 -0.3560  0.4762
  126MOL0     C16523  -1.196   3.634  11.519 -0.2106 -0.6234  0.3064
  126MOL0     O16524  -1.265   3.572  11.631 -0.3773 -0.5270 -0.3354
  126MOL0     C16525  -1.380   3.632  11.685 -0.3371 -0.3111  0.2141
  126MOL0     C16526  -1.445   3.741  11.626  0.4307 -0.5738  0.1343
  126MOL0     C16527  -1.560   3.786  11.678 -0.2966 -0.4244 -0.6649
  126MOL0     C16528  -1.615   3.734  11.794  0.0617  0.1536 -0.1150
  126MOL0     C16529  -1.730   3.804  11.855  0.0818 -1.2782 -0.6302
  126MOL0     O16530  -1.793   3.735  11.959  0.1548  0.0299 -0.3115
  126MOL0     C16531  -1.863   3.794  12.063 -0.1218 -0.2754  0.1389
  126MOL0     C16532  -1.827   3.907  12.137 -0.7734  0.1019  0.0398
  126MOL0     C16533  -1.907   3.945  12.245 -0.0404 -0.2717 -0.6404
  126MOL0     C16534  -2.012   3.862  12.286  0.3740  0.4856  0.0523
  126MOL0     O16535  -2.073   3.894  12.406  0.0406  0.8820 -1.0165
  126MOL0     C16536  -2.169   3.817  12.479  0.1391  0.4515  0.7370
  126MOL0     C16537  -2.194   3.890  12.613 -0.5356 -0.7153  1.7538
  126MOL0     C16538  -2.322   3.838  12.677  0.3174  0.5482 -0.1615
  126MOL0     C16539  -2.347   3.901  12.811  0.5858  0.9943 -0.6164
  126MOL0     C16540  -2.413   3.795  12.904  0.0330 -1.0554 -0.4405
  126MOL0     C16541  -2.463   3.867  13.031 -0.2356 -0.4040  0.0948
  126MOL0     C16542  -2.517   3.775  13.148  0.0922 -0.5231  0.6001
  126MOL0     C16543  -2.441   3.652  13.184  0.4856  0.1230 -0.5321
  126MOL0    Cl16544  -2.273   3.669  13.252  0.5270  0.6799  0.2872
  126MOL0     C16545  -2.047   3.744  12.216 -0.1066 -0.2378 -0.0214
  126MOL0     C16546  -1.975   3.716  12.104  0.0192  0.4278 -0.7256
  126MOL0     O16547  -1.767   3.911  11.817 -1.0654  0.3730 -0.8599
  126MOL0     C16548  -1.555   3.619  11.852  0.3352  0.6057  0.4134
  126MOL0     C16549  -1.434   3.572  11.796  0.7463 -0.0623  0.1785
  126MOL0     N16550  -0.734   3.830  11.311 -0.3586 -0.7495 -0.7243
  126MOL0     N16551  -0.642   3.870  11.234  0.0616 -0.3751  0.4821
  126MOL0     C16552   0.628   3.805  10.816  0.4665  0.2720 -0.0767
  126MOL0     C16553   0.760   3.834  10.851  0.1305 -0.2664 -0.0187
  126MOL0     C16554   1.123   3.972  11.090 -0.4036 -0.5368  1.0576
  126MOL0     C16555   1.197   3.930  11.202 -0.0727  0.2851  0.4584
  126MOL0     C16556   1.333   3.939  11.211  0.4221  0.1340  0.0002
  126MOL0     C16557   1.405   4.006  11.107  0.0037 -1.0653 -1.2311
  126MOL0     O16558   1.535   4.019  11.137 -0.3896  0.2875 -0.0351
  126MOL0     C16559   1.605   4.137  11.090 -0.2107  0.4064  0.5257
  126MOL0     C16560   1.665   4.104  10.950 -0.2252 -0.0779 -0.0308
  126MOL0     C16561   1.817   4.068  10.950  1.0320 -0.2729 -0.0990
  126MOL0     C16562   1.847   3.945  11.038 -0.1088  0.7400  0.0862
  126MOL0     C16563   1.995   3.934  11.058  0.0707 -1.1419  0.1694
  126MOL0     C16564   2.114   3.947  11.082 -0.9886 -0.1824 -0.9565
  126MOL0     C16565   1.340   4.054  10.991 -0.5991 -0.0129 -0.8900
  126MOL0     C16566   1.199   4.038  10.991  0.2495 -0.8903  0.2746
  126MOL0     H16567   0.693   4.129  11.029  0.0189  1.4582 -0.8837
  126MOL0     H16568   0.458   4.052  10.962 -1.5711 -2.9747 -0.6608
  126MOL0     H16569   0.248   3.979  10.907  1.8683  0.6955 -2.4784
  126MOL0     H16570   0.288   3.837  10.997  0.9062 -0.0550 -1.2163
  126MOL0     H16571   0.196   3.697  10.804 -0.7104 -1.2575  2.0931
  126MOL0     H16572   0.111   3.844  10.743 -1.4951 -1.1809  0.0370
  126MOL0     H16573   0.067   3.694  10.999  0.3806  0.0795 -0.7204
  126MOL0     H16574  -0.047   3.727  10.865 -0.9745  1.2256 -0.2721
  126MOL0     H16575   0.037   3.906  11.076  1.6055 -0.7305 -1.6523
  126MOL0     H16576  -0.015   3.980  10.935 -0.1333 -0.3166 -0.7602
  126MOL0     H16577  -0.235   3.876  10.942 -0.2322  1.4597 -0.0400
  126MOL0     H16578  -0.208   3.953  11.101 -1.3298 -2.5079  4.1407
  126MOL0     H16579  -0.115   3.703  11.166 -0.2747  1.3107 -0.1437
  126MOL0     H16580  -0.230   3.658  11.048 -0.8759  0.4718  0.2238
  126MOL0     H16581  -0.329   3.671  11.283  3.3563 -0.8710 -0.8723
  126MOL0     H16582  -0.324   3.851  11.260 -1.5629  1.2203 -1.9774
  126MOL0     H16583  -0.449   3.656  11.065  0.5115 -1.2461  1.3759
  126MOL0     H16584  -0.434   3.840  11.052  0.9351 -0.9549 -1.3840
  126MOL0     H16585  -0.576   3.552  11.273  3.1317  0.9422  2.0807
  126MOL0     H16586  -0.815   3.603  11.516  0.1263 -0.5282 -1.1891
  126MOL0     H16587  -0.830   3.507  11.373  1.7019 -0.5399  2.1862
  126MOL0     H16588  -1.006   3.666  11.300  2.0720  1.2538 -0.3599
  126MOL0     H16589  -0.989   3.763  11.439 -0.4732 -0.4546 -0.0190
  126MOL0     H16590  -1.097   3.474  11.415  0.7395  1.0198 -2.0160
  126MOL0     H16591  -1.025   3.526  11.575  1.2967  0.9363  0.2206
  126MOL0     H16592  -1.260   3.654  11.432 -0.6283 -0.8111  0.5661
  126MOL0     H16593  -1.171   3.731  11.563 -2.5575  0.2371 -0.1117
  126MOL0     H16594  -1.415   3.790  11.534 -0.8025  0.8658  0.4596
  126MOL0     H16595  -1.616   3.856  11.617 -0.5345 -0.1550 -0.1416
  126MOL0     H16596  -1.737   3.966  12.118 -0.8353  0.2325  0.1499
  126MOL0     H16597  -1.873   4.027  12.309  0.9189 -0.7886 -0.4714
  126MOL0     H16598  -2.135   3.716  12.503 -1.7707 -0.8758 -1.6805
  126MOL0     H16599  -2.258   3.812  12.416  0.2734  0.1192  0.5730
  126MOL0     H16600  -2.206   3.998  12.600  1.1695 -0.8529 -3.9964
  126MOL0     H16601  -2.114   3.870  12.685  1.6466  0.8601 -0.0811
  126MOL0     H16602  -2.314   3.729  12.681  0.4953  0.5710  0.1588
  126MOL0     H16603  -2.399   3.868  12.606 -0.7191 -2.2063 -0.3232
  126MOL0     H16604  -2.258   3.930  12.867 -2.3256  1.9681  4.0664
  126MOL0     H16605  -2.414   3.985  12.792  0.6459  0.9602 -0.9730
  126MOL0     H16606  -2.330   3.728  12.929  1.7527  1.8530  2.3634
  126MOL0     H16607  -2.502   3.749  12.859 -1.8667 -0.1577  2.1131
  126MOL0     H16608  -2.530   3.948  13.000 -1.1782 -1.6275 -1.2453
  126MOL0     H16609  -2.374   3.917  13.069  1.1758 -1.3107 -1.8194
  126MOL0     H16610  -2.507   3.838  13.237  0.2971 -1.7971  1.5145
  126MOL0     H16611  -2.621   3.747  13.129  0.4941 -1.1398 -0.8456
  126MOL0     H16612  -2.443   3.578  13.103  1.5255  0.4021 -0.8400
  126MOL0     H16613  -2.495   3.615  13.271  2.2576 -0.3290  0.4300
  126MOL0     H16614  -2.131   3.679  12.235  0.0374 -1.0315 -1.9176
  126MOL0     H16615  -2.016   3.631  12.050 -0.4014  1.3405 -1.8735
  126MOL0     H16616  -1.605   3.577  11.939 -0.9695  1.0032 -0.1299
  126MOL0     H16617  -1.389   3.485  11.842 -0.1868  0.8592  3.0072
  126MOL0     H16618   0.614   3.724  10.745  2.3461 -0.7738  0.6640
  126MOL0     H16619   0.840   3.767  10.819  0.7997  0.6104 -0.2262
  126MOL0     H16620   1.139   3.886  11.282 -1.5541  1.4857  0.1025
  126MOL0     H16621   1.389   3.899  11.294  0.0775  0.5640  0.4442
  126MOL0     H16622   1.679   4.169  11.165 -0.7765  1.7950  0.5230
  126MOL0     H16623   1.526   4.211  11.074 -4.0415 -3.2557  0.9440
  126MOL0     H16624   1.608   4.025  10.901 -2.6700  1.5869  0.0036
  126MOL0     H16625   1.655   4.197  10.894  3.3599 -0.0817 -0.9270
  126MOL0     H16626   1.873   4.148  10.999 -1.1235  0.6249  1.0174
  126MOL0     H16627   1.868   4.062  10.854  2.2343  0.7717  0.4555
  126MOL0     H16628   1.798   3.961  11.135  0.6791  0.7916  0.4858
  126MOL0     H16629   1.808   3.861  10.979 -0.5636  1.9171 -1.3272
  126MOL0     H16630   2.216   3.973  11.101  0.2916 -3.8325 -2.0560
  126MOL0     H16631   1.393   4.100  10.908  0.2392  0.5301 -0.0808
  126MOL0     H16632   1.140   4.069  10.905  0.2797 -2.1268 -0.2168
  127MOL0     O16633   3.806   9.057   2.361  0.7781  0.0114 -0.2245
  127MOL0     C16634   3.708   9.123   2.400  0.3069  0.4395 -0.0905
  127MOL0     O16635   3.711   9.208   2.505  0.0531 -0.2057  0.1483
  127MOL0     C16636   3.828   9.227   2.586  0.4830  0.4749 -0.5245
  127MOL0     C16637   3.860   9.355   2.614  0.1014  0.0915 -0.8860
  127MOL0     C16638   3.977   9.381   2.690  0.1178 -0.4899 -0.0185
  127MOL0     C16639   4.073   9.283   2.710  0.1660  0.0428  0.3194
  127MOL0     O16640   4.193   9.315   2.770 -0.4544 -0.5141  0.9861
  127MOL0     C16641   4.294   9.217   2.797  0.2364  0.0759  0.8665
  127MOL0     C16642   4.403   9.278   2.881  0.3343 -0.7911 -1.1057
  127MOL0     C16643   4.357   9.301   3.024  0.4827  0.5747 -0.0844
  127MOL0     C16644   4.483   9.333   3.117  0.3203  0.5150 -0.5569
  127MOL0     C16645   4.448   9.329   3.268  0.3505  0.3525 -0.0592
  127MOL0     C16646   4.373   9.445   3.331 -0.4014 -0.2117  0.0696
  127MOL0     C16647   4.358   9.424   3.481 -0.2972 -0.6824 -0.1615
  127MOL0     C16648   4.261   9.528   3.541  0.1081 -0.9275 -0.2731
  127MOL0     N16649   4.128   9.502   3.493  0.1674  0.7408  0.8334
  127MOL0     C16650   4.031   9.420   3.548  0.4922  0.0901 -0.1543
  127MOL0     C16651   3.914   9.445   3.478  0.9671  0.6799 -0.3848
  127MOL0     C16652   3.782   9.403   3.533  0.6026 -0.6118 -0.7062
  127MOL0     C16653   3.682   9.527   3.552  0.3868  0.9045  1.2154
  127MOL0     C16654   3.555   9.480   3.629 -0.7158  0.5904 -0.2208
  127MOL0     C16655   3.498   9.604   3.691 -0.2355 -0.0919 -0.3377
  127MOL0     O16656   3.471   9.713   3.597 -0.9918  0.0521 -0.6537
  127MOL0     C16657   3.351   9.699   3.531  0.3449 -0.5282  0.0705
  127MOL0     C16658   3.337   9.788   3.422 -0.1380  0.5814  0.0056
  127MOL0     C16659   3.213   9.809   3.363  0.2368  0.3723 -0.0905
  127MOL0     C16660   3.098   9.732   3.410  0.0371  0.2748  0.4370
  127MOL0     C16661   2.964   9.764   3.342 -0.4680 -0.4739 -0.2297
  127MOL0     O16662   2.970   9.863   3.240 -0.2468  0.4865  0.0175
  127MOL0     C16663   2.859   9.893   3.167  0.5745  0.1213  1.0886
  127MOL0     C16664   2.854   9.863   3.030  0.1964 -0.5350  0.0844
  127MOL0     C16665   2.758   9.912   2.946  0.4030  0.4739  0.0375
  127MOL0     C16666   2.661  10.004   3.000  0.1052  0.0519  0.0945
  127MOL0     O16667   2.555  10.050   2.927 -0.2130  0.1802 -0.8042
  127MOL0     C16668   2.535  10.013   2.791  0.5205 -0.3660 -0.2764
  127MOL0     C16669   2.457   9.886   2.764 -0.1200  0.3787 -0.7281
  127MOL0     C16670   2.418   9.865   2.616 -0.7761  0.2341 -0.3401
  127MOL0     C16671   2.310   9.960   2.552 -0.3307 -0.5258  0.4463
  127MOL0     C16672   2.180   9.974   2.627 -0.2139  0.2102  0.3100
  127MOL0     C16673   2.076  10.054   2.561 -0.0912  0.0426 -0.3379
  127MOL0     C16674   1.945  10.043   2.638 -0.7000  0.0681  0.5924
  127MOL0     C16675   1.972  10.089   2.786  1.0678 -0.4302  0.6428
  127MOL0    Cl16676   2.032  10.257   2.800 -0.7162 -0.1051 -0.0153
  127MOL0     C16677   2.663  10.033   3.136 -0.7381 -0.4860 -0.5256
  127MOL0     C16678   2.768   9.988   3.222 -1.0639 -0.0909  0.0973
  127MOL0     O16679   2.860   9.707   3.385 -0.0819  0.1276  0.7987
  127MOL0     C16680   3.111   9.631   3.508  0.6187 -0.3277  0.9970
  127MOL0     C16681   3.238   9.620   3.567  0.2984 -0.1024 -0.2099
  127MOL0     N16682   3.933   9.545   3.386 -0.1226  0.4609 -1.0647
  127MOL0     N16683   4.063   9.570   3.392  0.9024 -0.6760 -0.0815
  127MOL0     C16684   4.034   9.151   2.682 -0.2138  0.5436 -0.2758
  127MOL0     C16685   3.908   9.125   2.626 -0.8802  0.3349  0.0204
  127MOL0     C16686   3.598   9.119   2.309 -0.1956  0.4671 -0.0762
  127MOL0     C16687   3.483   9.190   2.348  1.0474 -0.0877  0.2571
  127MOL0     C16688   3.367   9.188   2.263  0.3377  0.5055  0.8002
  127MOL0     C16689   3.365   9.117   2.138  0.1218 -0.2664 -1.2001
  127MOL0     O16690   3.260   9.102   2.051  0.2842 -0.7763  1.1436
  127MOL0     C16691   3.162   9.021   2.122  0.0361  0.0535  0.3091
  127MOL0     C16692   3.086   8.912   2.042 -1.0166 -0.2190 -0.2744
  127MOL0     C16693   3.168   8.782   2.062 -0.0878  0.4926 -0.6030
  127MOL0     C16694   3.111   8.672   1.968 -0.2637  0.2702 -0.1718
  127MOL0     C16695   3.132   8.709   1.831  0.6231  0.6515  0.8106
  127MOL0     C16696   3.142   8.721   1.712  0.3174 -0.0619  0.8169
  127MOL0     C16697   3.481   9.047   2.107  0.0686 -0.3977 -0.5837
  127MOL0     C16698   3.592   9.048   2.185 -0.5769  0.1263 -0.3028
  127MOL0     H16699   3.800   9.438   2.579  1.6394  1.1712 -1.0873
  127MOL0     H16700   4.001   9.484   2.712 -2.3548  0.9185 -3.1726
  127MOL0     H16701   4.329   9.182   2.699 -1.0850  0.7740  0.1206
  127MOL0     H16702   4.248   9.138   2.856 -1.4304 -0.0798 -0.5795
  127MOL0     H16703   4.435   9.375   2.841  1.1375 -1.1250 -1.2939
  127MOL0     H16704   4.491   9.212   2.878 -0.4751 -2.2455  2.2208
  127MOL0     H16705   4.311   9.210   3.063  0.7620 -0.2312 -1.5635
  127MOL0     H16706   4.277   9.376   3.025 -0.9698 -0.9077 -0.1678
  127MOL0     H16707   4.558   9.257   3.096 -1.5149 -0.9041 -2.4042
  127MOL0     H16708   4.521   9.433   3.092 -0.4836  1.4138  1.6238
  127MOL0     H16709   4.535   9.309   3.332 -0.3969  0.2125  0.9380
  127MOL0     H16710   4.376   9.249   3.287  1.0920 -0.6054 -1.0924
  127MOL0     H16711   4.277   9.456   3.280  1.1590 -0.3012 -3.1447
  127MOL0     H16712   4.430   9.535   3.306  0.7401 -0.5583  1.3023
  127MOL0     H16713   4.333   9.322   3.512  0.4377 -0.7352  0.2876
  127MOL0     H16714   4.454   9.451   3.527 -1.0300 -0.2221  1.1462
  127MOL0     H16715   4.288   9.631   3.516 -0.6311 -0.6515  0.0608
  127MOL0     H16716   4.263   9.523   3.650  3.8296  2.6719  0.0771
  127MOL0     H16717   4.030   9.364   3.641 -3.0822  2.1012  1.2088
  127MOL0     H16718   3.814   9.364   3.630  2.0024  1.1571 -0.3865
  127MOL0     H16719   3.747   9.326   3.465  5.5285 -3.8940 -0.0380
  127MOL0     H16720   3.657   9.567   3.454 -0.7483 -0.6660  0.8218
  127MOL0     H16721   3.737   9.601   3.611  1.4766  2.0735 -1.1625
  127MOL0     H16722   3.487   9.430   3.559  1.8706  0.1708 -2.5906
  127MOL0     H16723   3.576   9.407   3.708 -0.6162  1.0327  0.1668
  127MOL0     H16724   3.569   9.653   3.758 -1.3165  2.1112 -0.7211
  127MOL0     H16725   3.414   9.564   3.749 -0.9309 -2.9133 -3.0392
  127MOL0     H16726   3.432   9.832   3.392 -0.7794 -0.4436 -4.0888
  127MOL0     H16727   3.205   9.874   3.277 -0.8089 -1.3216 -1.3610
  127MOL0     H16728   2.930   9.795   2.995  0.4835 -0.9122  1.3788
  127MOL0     H16729   2.741   9.875   2.845  1.3773 -0.9939  0.3786
  127MOL0     H16730   2.625  10.011   2.730  0.7139  0.1827 -0.0141
  127MOL0     H16731   2.477  10.096   2.749  1.3181  1.0973  1.4083
  127MOL0     H16732   2.367   9.901   2.824  2.5405  2.4174  3.2223
  127MOL0     H16733   2.529   9.815   2.805  1.9584  3.1557  0.8448
  127MOL0     H16734   2.392   9.760   2.601 -2.4024  0.8202 -2.0897
  127MOL0     H16735   2.511   9.869   2.557 -2.1391 -0.0360 -2.6534
  127MOL0     H16736   2.353  10.060   2.541 -1.6456  0.3865  2.8746
  127MOL0     H16737   2.301   9.916   2.453  0.6255  2.2022 -0.9305
  127MOL0     H16738   2.207  10.013   2.726 -4.7795  0.9204  1.4940
  127MOL0     H16739   2.159   9.868   2.639  2.7249 -0.6225 -0.9820
  127MOL0     H16740   2.054  10.013   2.461 -0.5503 -1.5363  0.3775
  127MOL0     H16741   2.106  10.158   2.548 -0.3948 -0.0030 -1.5319
  127MOL0     H16742   1.861  10.093   2.589 -0.1289  1.0120  0.5464
  127MOL0     H16743   1.909   9.940   2.637  2.1266 -1.1500 -3.2593
  127MOL0     H16744   2.042  10.025   2.841 -0.3862 -2.2798  0.4619
  127MOL0     H16745   1.876  10.090   2.837  1.5061  0.4591  1.4864
  127MOL0     H16746   2.582  10.090   3.179 -1.5233 -1.8284 -0.1656
  127MOL0     H16747   2.770  10.004   3.329  1.4701 -0.1359  0.1125
  127MOL0     H16748   3.026   9.568   3.530 -0.9717  0.9880 -0.9611
  127MOL0     H16749   3.261   9.539   3.635  2.2311  0.1894 -0.4391
  127MOL0     H16750   4.096   9.066   2.709 -0.1680  0.9083  0.8422
  127MOL0     H16751   3.880   9.025   2.594  0.2470 -0.0346  0.1434
  127MOL0     H16752   3.487   9.253   2.437  0.8784  2.3927 -1.3952
  127MOL0     H16753   3.282   9.240   2.305 -1.2560 -0.9019 -0.5623
  127MOL0     H16754   3.080   9.084   2.157  0.6016  1.0512 -0.1432
  127MOL0     H16755   3.214   8.965   2.200  2.0815 -0.4800 -1.3519
  127MOL0     H16756   2.984   8.898   2.081 -1.0219 -0.2999 -0.3152
  127MOL0     H16757   3.081   8.938   1.936 -3.4472  0.6432 -0.0111
  127MOL0     H16758   3.174   8.747   2.165 -0.0278  2.2084  0.0070
  127MOL0     H16759   3.268   8.813   2.030  0.1538  0.0529 -0.2778
  127MOL0     H16760   3.158   8.576   1.990  0.7543  0.6581 -0.6045
  127MOL0     H16761   3.007   8.650   1.992  0.1407 -3.0484 -1.0104
  127MOL0     H16762   3.158   8.733   1.606  0.4130 -0.0936  0.8272
  127MOL0     H16763   3.489   8.984   2.019  3.8378 -1.3602  0.2796
  127MOL0     H16764   3.684   9.000   2.153 -0.4494  0.8077 -0.9850
  128MOL0     O16765   5.142   5.394   6.058  0.0857  0.4843  0.1202
  128MOL0     C16766   5.175   5.329   5.959  0.5359 -0.6374  0.0685
  128MOL0     O16767   5.084   5.267   5.874 -0.1241  0.2608 -0.3359
  128MOL0     C16768   4.951   5.305   5.885 -0.4147  0.8887 -0.2665
  128MOL0     C16769   4.910   5.439   5.877  0.4689 -0.1059  0.3929
  128MOL0     C16770   4.775   5.473   5.863  0.2194 -0.3786  0.3366
  128MOL0     C16771   4.676   5.377   5.855  0.9455  0.1952 -0.3119
  128MOL0     O16772   4.549   5.418   5.861 -0.3272 -0.0400  0.4569
  128MOL0     C16773   4.437   5.325   5.831  0.3248  0.1679  0.5239
  128MOL0     C16774   4.309   5.389   5.876  0.7279 -0.0243 -0.6342
  128MOL0     C16775   4.309   5.425   6.028 -0.9175  0.0946 -0.6434
  128MOL0     C16776   4.179   5.485   6.072 -0.6070 -0.7761 -0.7220
  128MOL0     C16777   4.048   5.428   6.023 -0.6409  0.1467  0.3063
  128MOL0     C16778   3.922   5.471   6.103 -0.9198 -0.9213 -0.1342
  128MOL0     C16779   3.923   5.400   6.241 -0.1104  0.6348  0.0148
  128MOL0     C16780   3.793   5.414   6.326 -0.4999 -0.4511  0.3523
  128MOL0     N16781   3.681   5.335   6.257  0.1520  0.5545 -0.5676
  128MOL0     C16782   3.606   5.381   6.153  0.3941 -0.5831  0.4709
  128MOL0     C16783   3.546   5.267   6.110 -0.1100  0.8181 -0.1280
  128MOL0     C16784   3.445   5.266   6.001  0.2724 -0.5300 -0.0583
  128MOL0     C16785   3.312   5.205   6.049  0.5321 -0.4014  0.2924
  128MOL0     C16786   3.208   5.242   5.938 -0.0535  0.0609 -0.7764
  128MOL0     C16787   3.073   5.170   5.962 -0.7219  0.3119 -0.2964
  128MOL0     O16788   3.028   5.196   6.094 -0.0884 -0.2383 -0.2807
  128MOL0     C16789   2.931   5.288   6.106 -0.3080  0.8189  0.0445
  128MOL0     C16790   2.802   5.262   6.053 -0.0726 -0.0621  0.1100
  128MOL0     C16791   2.698   5.360   6.071 -1.0667 -0.1173  0.0887
  128MOL0     C16792   2.723   5.483   6.143 -0.3909  0.2144  0.5856
  128MOL0     C16793   2.631   5.600   6.157  0.1068 -0.3138  0.2113
  128MOL0     O16794   2.528   5.603   6.066  0.3409 -0.0360 -0.4947
  128MOL0     C16795   2.418   5.672   6.104 -0.4083 -0.2223  0.5007
  128MOL0     C16796   2.306   5.595   6.120  0.1579  0.1609  0.4686
  128MOL0     C16797   2.181   5.645   6.138  0.2172 -0.4079  0.2515
  128MOL0     C16798   2.153   5.780   6.125  1.4132 -0.7610  0.6728
  128MOL0     O16799   2.031   5.849   6.131  0.0474  0.1773 -0.6045
  128MOL0     C16800   1.911   5.773   6.094 -0.1248  0.1808  0.3351
  128MOL0     C16801   1.790   5.865   6.103  0.6089 -0.2670 -0.8458
  128MOL0     C16802   1.659   5.812   6.036  0.0685  0.0540 -0.4463
  128MOL0     C16803   1.551   5.912   6.043 -0.3161  0.0673  0.1019
  128MOL0     C16804   1.411   5.859   6.016 -0.0787  0.7422  0.0781
  128MOL0     C16805   1.342   5.782   6.130  0.2169 -0.1131  0.5680
  128MOL0     C16806   1.187   5.780   6.110  0.2998 -0.6472 -0.0845
  128MOL0     C16807   1.115   5.657   6.166 -0.1802 -0.8511  0.4588
  128MOL0    Cl16808   1.132   5.673   6.342  0.1640 -0.3939  0.1376
  128MOL0     C16809   2.269   5.863   6.101  0.5472  0.5099 -0.4671
  128MOL0     C16810   2.405   5.813   6.096  0.7126  0.9677 -0.1039
  128MOL0     O16811   2.643   5.675   6.256  0.3916 -0.0496 -0.3404
  128MOL0     C16812   2.852   5.503   6.197 -0.1681  0.4563 -0.2638
  128MOL0     C16813   2.954   5.405   6.183 -0.1802  0.2924  0.9336
  128MOL0     N16814   3.581   5.159   6.191  0.3867 -0.4332  0.6211
  128MOL0     N16815   3.660   5.201   6.281  0.0023  0.3303  0.3432
  128MOL0     C16816   4.715   5.238   5.857  0.1572 -0.4566 -0.1001
  128MOL0     C16817   4.855   5.210   5.858  0.3532  0.0521  0.0595
  128MOL0     C16818   5.312   5.297   5.936 -0.1601 -0.3644  0.5427
  128MOL0     C16819   5.416   5.347   6.020 -0.2139 -0.5441 -0.6731
  128MOL0     C16820   5.545   5.307   6.007 -0.7316 -0.6051 -0.2383
  128MOL0     C16821   5.583   5.220   5.912 -0.1334 -0.0637 -0.2888
  128MOL0     O16822   5.713   5.177   5.906  0.4398  0.4228 -0.0484
  128MOL0     C16823   5.818   5.282   5.889 -0.3942  0.7623 -0.3741
  128MOL0     C16824   5.946   5.221   5.836 -0.5373 -0.3831 -0.1478
  128MOL0     C16825   6.056   5.326   5.839  0.7659  0.1377  0.0295
  128MOL0     C16826   6.168   5.275   5.755 -0.7334  0.0047  0.9152
  128MOL0     C16827   6.293   5.355   5.753  0.1360 -0.4154  0.7975
  128MOL0     C16828   6.394   5.421   5.772  0.0051 -0.4268  1.1986
  128MOL0     C16829   5.493   5.172   5.821  0.0316 -0.8915 -0.4461
  128MOL0     C16830   5.357   5.208   5.825  0.6864 -0.0473 -0.3570
  128MOL0     H16831   4.987   5.514   5.860  1.4213 -0.8764  1.2011
  128MOL0     H16832   4.754   5.579   5.858  0.3690 -0.4130 -2.2056
  128MOL0     H16833   4.443   5.230   5.885  1.1811 -0.6969 -1.0162
  128MOL0     H16834   4.428   5.307   5.724  1.2081  3.2135 -0.1630
  128MOL0     H16835   4.227   5.323   5.845 -0.0715  1.4227 -1.6934
  128MOL0     H16836   4.302   5.482   5.819  0.3218  0.7586  0.6395
  128MOL0     H16837   4.397   5.486   6.052 -1.3085  0.4859 -0.1803
  128MOL0     H16838   4.303   5.333   6.086 -2.1925  1.5231  1.6715
  128MOL0     H16839   4.173   5.496   6.181 -1.6151 -0.5699 -0.7866
  128MOL0     H16840   4.186   5.587   6.034  0.8613  0.0077  1.4333
  128MOL0     H16841   4.057   5.319   6.011 -0.7663  0.2113 -0.3913
  128MOL0     H16842   4.029   5.460   5.921 -3.0591 -1.5956  0.1100
  128MOL0     H16843   3.825   5.459   6.055 -1.5363  0.8266  0.5748
  128MOL0     H16844   3.939   5.578   6.119  2.4663 -1.0454 -2.0159
  128MOL0     H16845   3.927   5.294   6.215  2.1706  0.6801  0.0051
  128MOL0     H16846   4.013   5.428   6.296 -0.6968  0.4730  1.0832
  128MOL0     H16847   3.775   5.520   6.344 -0.7540 -0.6543  1.3460
  128MOL0     H16848   3.812   5.367   6.423 -2.2059 -1.2949  0.3038
  128MOL0     H16849   3.600   5.476   6.102 -1.5960 -0.4478  0.8987
  128MOL0     H16850   3.471   5.204   5.914 -2.5488 -1.1736 -0.5333
  128MOL0     H16851   3.431   5.372   5.976  0.2145 -0.3462  0.7362
  128MOL0     H16852   3.292   5.248   6.148 -3.0754 -0.2449 -0.3872
  128MOL0     H16853   3.323   5.097   6.066 -0.7661 -0.7853 -1.1269
  128MOL0     H16854   3.194   5.350   5.938 -1.1663 -0.0505  0.5019
  128MOL0     H16855   3.243   5.217   5.837  1.9873  0.6108 -0.2404
  128MOL0     H16856   3.087   5.062   5.958 -0.9132  0.2967 -0.5646
  128MOL0     H16857   2.998   5.183   5.884  0.7821  1.3492 -1.6436
  128MOL0     H16858   2.792   5.170   5.997  0.0410  0.3305 -0.5798
  128MOL0     H16859   2.600   5.352   6.025 -0.3930  1.3229 -1.7350
  128MOL0     H16860   2.321   5.487   6.123 -1.0079  0.0009  0.8888
  128MOL0     H16861   2.098   5.578   6.159  0.2771  0.0729  2.1491
  128MOL0     H16862   1.912   5.684   6.157  5.2264 -0.6498 -0.4378
  128MOL0     H16863   1.909   5.736   5.992 -1.8105  1.1903 -0.0423
  128MOL0     H16864   1.808   5.964   6.060 -2.1416  0.1120 -1.2724
  128MOL0     H16865   1.765   5.870   6.209 -1.4358 -1.5744 -1.2243
  128MOL0     H16866   1.621   5.725   6.092 -2.9986 -0.1084 -2.5341
  128MOL0     H16867   1.678   5.772   5.936 -0.6311 -1.1092 -0.1350
  128MOL0     H16868   1.550   5.956   6.144 -0.3662  3.4390 -1.2284
  128MOL0     H16869   1.574   5.988   5.968 -0.1781 -0.0570  0.0193
  128MOL0     H16870   1.419   5.785   5.936 -0.1692 -0.3381  1.0427
  128MOL0     H16871   1.354   5.947   5.983  1.2252  1.8830  0.7711
  128MOL0     H16872   1.370   5.830   6.224 -0.4399 -1.5027  1.5109
  128MOL0     H16873   1.378   5.679   6.140 -1.2885 -1.3561 -4.1512
  128MOL0     H16874   1.143   5.868   6.157  0.5693 -0.0082 -1.0097
  128MOL0     H16875   1.152   5.783   6.007 -2.2340 -1.0881  0.6944
  128MOL0     H16876   1.168   5.565   6.140 -1.3073 -1.1687 -0.8511
  128MOL0     H16877   1.014   5.659   6.124  0.6843  0.9804 -1.7680
  128MOL0     H16878   2.265   5.969   6.077 -0.6580  0.2743 -1.3788
  128MOL0     H16879   2.489   5.876   6.069  1.4292  0.0407 -0.1197
  128MOL0     H16880   2.880   5.593   6.250  0.7203 -0.5805  1.1015
  128MOL0     H16881   3.051   5.420   6.230  0.6661 -0.5277 -0.4636
  128MOL0     H16882   4.646   5.155   5.856 -1.4573  0.7525  2.0534
  128MOL0     H16883   4.884   5.107   5.844 -1.1561 -0.6677  1.7918
  128MOL0     H16884   5.388   5.412   6.103 -1.8579 -2.0763  0.0263
  128MOL0     H16885   5.617   5.350   6.076 -1.0849  0.6806 -0.6370
  128MOL0     H16886   5.837   5.329   5.986  0.8348 -2.1073  0.8748
  128MOL0     H16887   5.789   5.364   5.823  1.0659  1.8933  0.3260
  128MOL0     H16888   5.970   5.133   5.897  0.2914 -1.5801 -2.0947
  128MOL0     H16889   5.931   5.182   5.734  0.5093 -0.1435 -0.4062
  128MOL0     H16890   6.089   5.350   5.940  0.9938 -1.4345  0.3599
  128MOL0     H16891   6.019   5.415   5.786  0.6056 -0.0786 -0.2254
  128MOL0     H16892   6.190   5.169   5.772 -0.3789 -0.7282 -2.9876
  128MOL0     H16893   6.136   5.276   5.650  1.7855  0.3165  0.0627
  128MOL0     H16894   6.489   5.467   5.793  0.8753 -0.5861 -1.8630
  128MOL0     H16895   5.528   5.096   5.752  1.2803 -0.5834 -0.1746
  128MOL0     H16896   5.281   5.177   5.755 -1.0853 -1.5400  2.0763
  129MOL0     O16897   8.079   9.808   2.136  0.5274  0.1572 -0.3312
  129MOL0     C16898   8.149   9.777   2.233  0.3357 -0.4294  0.1734
  129MOL0     O16899   8.153   9.844   2.351 -0.5454 -0.9860  0.0095
  129MOL0     C16900   8.065   9.934   2.394 -0.4649  0.0491  0.1481
  129MOL0     C16901   8.113  10.020   2.493  0.4633  0.2289  0.4118
  129MOL0     C16902   8.020  10.113   2.546  0.2788  0.2373 -0.1390
  129MOL0     C16903   7.884  10.107   2.517  0.4442  0.1369  0.9570
  129MOL0     O16904   7.789  10.174   2.588 -0.0037 -0.0339  0.6298
  129MOL0     C16905   7.815  10.247   2.704 -0.1653  0.5784  0.0130
  129MOL0     C16906   7.673  10.268   2.765 -0.7944  0.0224  0.7714
  129MOL0     C16907   7.577  10.359   2.694 -0.6194  0.5355  0.5437
  129MOL0     C16908   7.593  10.509   2.728  0.4128 -0.1190 -0.1819
  129MOL0     C16909   7.463  10.590   2.676  0.4525 -0.5031 -0.9974
  129MOL0     C16910   7.495  10.741   2.689 -0.3141 -0.0949  0.2918
  129MOL0     C16911   7.377  10.823   2.651  0.7552  0.2403  0.5608
  129MOL0     C16912   7.407  10.966   2.656 -0.1433 -0.0683 -0.4954
  129MOL0     N16913   7.298  11.049   2.598  0.4613 -0.0195  0.5006
  129MOL0     C16914   7.168  11.055   2.625 -0.8589 -0.4518  0.0294
  129MOL0     C16915   7.114  11.146   2.542 -0.6902 -0.0224  0.8526
  129MOL0     C16916   6.975  11.196   2.544 -0.5563 -0.9478  0.2454
  129MOL0     C16917   6.861  11.110   2.484  0.3083 -0.1599 -0.1061
  129MOL0     C16918   6.735  11.204   2.462 -0.4866  0.1643  0.7867
  129MOL0     C16919   6.620  11.128   2.398  0.3338 -0.3002  0.0470
  129MOL0     O16920   6.505  11.214   2.388  0.2079 -0.2200 -0.2370
  129MOL0     C16921   6.391  11.166   2.323  0.2088  0.4854 -0.2342
  129MOL0     C16922   6.277  11.252   2.309 -0.0187  1.3274 -0.1333
  129MOL0     C16923   6.160  11.213   2.249  0.2066  0.0645 -0.2165
  129MOL0     C16924   6.150  11.076   2.199 -0.5151 -0.4072  0.3706
  129MOL0     C16925   6.028  11.033   2.122 -0.4204  0.1284  0.6721
  129MOL0     O16926   6.039  10.942   2.026  0.1783 -0.3263 -0.3030
  129MOL0     C16927   5.926  10.914   1.951  0.0849  0.9653 -0.0430
  129MOL0     C16928   5.831  10.819   1.994  0.3869 -0.1420  0.3945
  129MOL0     C16929   5.717  10.790   1.921 -0.4373  0.6642  0.2757
  129MOL0     C16930   5.691  10.864   1.801  0.3314 -0.2866  0.3625
  129MOL0     O16931   5.581  10.843   1.718  0.3397 -0.0802  0.6073
  129MOL0     C16932   5.491  10.733   1.762  0.4381  0.4735 -0.1229
  129MOL0     C16933   5.384  10.722   1.643  0.2203 -0.3766 -0.2545
  129MOL0     C16934   5.276  10.837   1.648 -0.0549  0.5928 -0.0280
  129MOL0     C16935   5.176  10.827   1.532 -0.6938  0.0608 -0.0170
  129MOL0     C16936   5.060  10.935   1.547  0.6148  0.7004  0.4036
  129MOL0     C16937   5.127  11.064   1.583 -0.6976 -0.6392  0.5478
  129MOL0     C16938   5.037  11.182   1.552 -0.9453 -0.1310  0.5220
  129MOL0     C16939   5.005  11.210   1.401  0.4431 -0.0222 -0.8461
  129MOL0    Cl16940   5.147  11.233   1.310  0.0578 -0.2448 -0.0430
  129MOL0     C16941   5.778  10.962   1.762  0.3845  0.3196  0.2877
  129MOL0     C16942   5.897  10.987   1.836  1.2574 -0.1078  0.3174
  129MOL0     O16943   5.931  11.095   2.141  0.1721 -0.4662  0.3764
  129MOL0     C16944   6.266  10.995   2.205 -0.0461 -0.3984  0.4545
  129MOL0     C16945   6.373  11.037   2.281 -1.1576  0.1611  0.9199
  129MOL0     N16946   7.211  11.192   2.455 -0.2454 -0.2418  0.4729
  129MOL0     N16947   7.322  11.140   2.496 -0.4866 -0.3798  0.6127
  129MOL0     C16948   7.846  10.025   2.408  0.4967 -0.2600 -0.4967
  129MOL0     C16949   7.929   9.935   2.357 -0.7976  0.1961  0.3126
  129MOL0     C16950   8.229   9.656   2.205  0.4007 -1.1826  0.4143
  129MOL0     C16951   8.289   9.594   2.309 -0.5192  0.6423  0.6815
  129MOL0     C16952   8.373   9.478   2.292 -0.5221 -0.3552  0.0717
  129MOL0     C16953   8.384   9.432   2.159  0.4054  0.2602 -0.3666
  129MOL0     O16954   8.458   9.314   2.120  0.0137  0.1502  0.0587
  129MOL0     C16955   8.498   9.223   2.227  0.4741  0.0212 -0.0907
  129MOL0     C16956   8.547   9.097   2.165  0.0093 -0.8399 -0.4875
  129MOL0     C16957   8.600   9.010   2.277  0.7766  0.2231 -0.9101
  129MOL0     C16958   8.705   8.922   2.223 -0.8003  0.2930 -0.8736
  129MOL0     C16959   8.778   8.842   2.316 -0.2238  0.3217 -0.0576
  129MOL0     C16960   8.839   8.769   2.394  0.2700  0.5077 -0.5961
  129MOL0     C16961   8.324   9.504   2.053  0.3640  0.0108  0.4292
  129MOL0     C16962   8.244   9.614   2.071 -0.6552 -0.6780 -0.1375
  129MOL0     H16963   8.216  10.002   2.521  0.6397  1.1291  0.3726
  129MOL0     H16964   8.052  10.183   2.622 -1.4616  0.7577  0.1421
  129MOL0     H16965   7.871  10.339   2.680  1.2547 -0.3727 -0.4521
  129MOL0     H16966   7.871  10.186   2.774  1.6714 -1.6968 -3.1613
  129MOL0     H16967   7.690  10.305   2.867  2.8786 -0.8645  0.6363
  129MOL0     H16968   7.629  10.167   2.763  0.7923 -0.6986  0.4477
  129MOL0     H16969   7.480  10.312   2.715 -0.7466 -0.3938 -1.7863
  129MOL0     H16970   7.593  10.346   2.586 -0.5538  0.4412  0.5643
  129MOL0     H16971   7.594  10.526   2.836 -2.4271  1.2093 -0.2774
  129MOL0     H16972   7.687  10.545   2.685  1.2812 -1.9789  0.0792
  129MOL0     H16973   7.369  10.570   2.727 -0.3696  0.9114 -1.8782
  129MOL0     H16974   7.455  10.570   2.568 -2.2495  1.1974 -1.2128
  129MOL0     H16975   7.577  10.771   2.624 -1.0533  0.3812 -0.4392
  129MOL0     H16976   7.523  10.762   2.793  1.3539  2.7839 -0.6350
  129MOL0     H16977   7.344  10.799   2.549 -0.7924  0.5352  0.9696
  129MOL0     H16978   7.300  10.788   2.720  1.1651  0.2857  1.0497
  129MOL0     H16979   7.508  10.989   2.621  1.4132 -2.8613  1.7419
  129MOL0     H16980   7.411  10.988   2.763 -0.9822  2.4839 -0.9152
  129MOL0     H16981   7.121  10.993   2.701 -1.0648  0.6709  0.8365
  129MOL0     H16982   6.976  11.297   2.503 -0.1121 -0.5472  1.2032
  129MOL0     H16983   6.946  11.223   2.646 -0.9439  2.3138 -0.6278
  129MOL0     H16984   6.839  11.022   2.546 -2.2115  0.1089 -0.5226
  129MOL0     H16985   6.887  11.072   2.384  0.2103 -0.4212 -0.0347
  129MOL0     H16986   6.701  11.241   2.559 -1.9031 -2.1694  1.2730
  129MOL0     H16987   6.770  11.285   2.397  1.4910  1.5891  3.4265
  129MOL0     H16988   6.595  11.033   2.446  0.6771 -0.4959 -0.1531
  129MOL0     H16989   6.652  11.098   2.297 -1.4957  1.2366 -1.0419
  129MOL0     H16990   6.291  11.352   2.349 -2.3878  0.5790  2.9707
  129MOL0     H16991   6.079  11.285   2.244  0.4989  0.3698 -0.6643
  129MOL0     H16992   5.843  10.759   2.084  0.9221 -3.0400 -1.4873
  129MOL0     H16993   5.648  10.715   1.957  0.2710  0.0611  0.3927
  129MOL0     H16994   5.444  10.763   1.856 -3.1927 -0.7012 -1.3557
  129MOL0     H16995   5.530  10.634   1.785 -2.9948 -1.2304 -0.9157
  129MOL0     H16996   5.321  10.633   1.654 -2.0482  1.1138 -0.5142
  129MOL0     H16997   5.426  10.703   1.544  0.7192  0.3842 -0.1923
  129MOL0     H16998   5.331  10.931   1.644 -2.4767  2.1832  1.2941
  129MOL0     H16999   5.221  10.832   1.743  2.0424  2.3803  1.4009
  129MOL0     H17000   5.235  10.826   1.440  1.5980 -0.6506  1.3892
  129MOL0     H17001   5.127  10.729   1.533 -1.2286  0.2426 -2.3430
  129MOL0     H17002   4.990  10.905   1.625 -0.9753  3.0292 -0.0152
  129MOL0     H17003   4.996  10.947   1.459  1.3833  1.3797 -0.0760
  129MOL0     H17004   5.212  11.077   1.516 -1.7408 -0.4235 -0.7941
  129MOL0     H17005   5.156  11.060   1.689  0.7561  0.2170  0.2050
  129MOL0     H17006   4.943  11.199   1.605 -1.2795  2.6988 -0.8291
  129MOL0     H17007   5.092  11.273   1.577  1.0555 -0.6861 -1.5500
  129MOL0     H17008   4.945  11.301   1.398  1.2190  0.5038 -0.5748
  129MOL0     H17009   4.935  11.132   1.367 -2.7566  2.4466 -0.3322
  129MOL0     H17010   5.754  11.022   1.674  0.9192 -0.0469 -0.1135
  129MOL0     H17011   5.971  11.057   1.799  1.5028 -0.7090 -0.3730
  129MOL0     H17012   6.263  10.893   2.169 -0.1235 -1.0424  2.2221
  129MOL0     H17013   6.448  10.960   2.294  0.1921  1.5342  1.6446
  129MOL0     H17014   7.742  10.024   2.376  0.6031 -1.9167 -0.8989
  129MOL0     H17015   7.894   9.863   2.283  1.4262 -1.0207  0.3487
  129MOL0     H17016   8.286   9.638   2.409  0.8013 -0.8257  1.4046
  129MOL0     H17017   8.425   9.437   2.379  0.5560 -1.6009 -1.1165
  129MOL0     H17018   8.419   9.205   2.301 -0.0880 -0.8103 -0.8768
  129MOL0     H17019   8.581   9.273   2.278  0.6478  1.3852 -1.6245
  129MOL0     H17020   8.484   9.039   2.097  1.6744 -1.8453 -1.2499
  129MOL0     H17021   8.638   9.114   2.107 -0.2862 -2.2856 -1.4209
  129MOL0     H17022   8.517   8.954   2.322  1.6176 -0.2575  0.0578
  129MOL0     H17023   8.648   9.067   2.357  1.8465 -1.6371 -0.1753
  129MOL0     H17024   8.653   8.863   2.148 -3.2709  1.1053  0.1019
  129MOL0     H17025   8.784   8.982   2.176 -0.5662 -0.6059 -1.6455
  129MOL0     H17026   8.900   8.708   2.458 -0.2418  0.2477 -0.3523
  129MOL0     H17027   8.343   9.475   1.950 -0.9960  2.6843 -0.6802
  129MOL0     H17028   8.198   9.654   1.981 -1.4490 -1.2186  0.0243
  130MOL0     O17029   2.668   5.348   8.571 -0.0879 -0.3656 -0.1293
  130MOL0     C17030   2.731   5.406   8.481 -0.6004  0.0673 -0.6297
  130MOL0     O17031   2.683   5.464   8.365 -0.2539 -0.4741 -0.2726
  130MOL0     C17032   2.562   5.445   8.310 -0.4208 -0.1496 -0.4069
  130MOL0     C17033   2.448   5.382   8.369 -0.6113  0.9914  0.1867
  130MOL0     C17034   2.339   5.352   8.299 -0.6226  0.4879 -0.0809
  130MOL0     C17035   2.329   5.392   8.163  0.1759 -0.3005  0.0555
  130MOL0     O17036   2.223   5.369   8.089  0.0896 -0.6723 -0.0152
  130MOL0     C17037   2.092   5.364   8.147 -0.4503 -0.2411 -0.0322
  130MOL0     C17038   1.999   5.371   8.031  0.7875 -0.3318  0.5241
  130MOL0     C17039   1.852   5.349   8.070 -0.3945 -0.0479  0.3584
  130MOL0     C17040   1.748   5.355   7.960  0.0019  0.1148 -0.0083
  130MOL0     C17041   1.607   5.347   8.020  0.3737  0.4197  0.2594
  130MOL0     C17042   1.546   5.482   8.034  0.7300 -0.3902 -0.0972
  130MOL0     C17043   1.391   5.478   8.027 -0.3442 -1.0651  0.3889
  130MOL0     C17044   1.312   5.389   8.125  0.3542 -0.3090  0.5134
  130MOL0     N17045   1.174   5.419   8.151 -0.1010  0.2729  0.6332
  130MOL0     C17046   1.096   5.510   8.075  0.0762  0.6570 -0.4454
  130MOL0     C17047   0.977   5.507   8.145 -0.0950 -0.0576  0.0171
  130MOL0     C17048   0.846   5.563   8.104 -0.4359  0.3299  0.2098
  130MOL0     C17049   0.743   5.552   8.218 -0.9513 -0.2833  1.1551
  130MOL0     C17050   0.621   5.636   8.200  0.1568  0.3034  1.2572
  130MOL0     C17051   0.526   5.569   8.097 -0.2672  0.0203  0.2634
  130MOL0     O17052   0.519   5.430   8.111 -0.1199  0.3899 -0.3046
  130MOL0     C17053   0.454   5.367   8.214  0.4561 -0.0311  0.0836
  130MOL0     C17054   0.349   5.427   8.279  0.1632  0.1295 -0.4510
  130MOL0     C17055   0.284   5.343   8.377 -0.3925  0.2060 -1.3419
  130MOL0     C17056   0.312   5.207   8.391 -0.8164  0.9282  0.2925
  130MOL0     C17057   0.234   5.133   8.492  0.0537  0.6024  0.3737
  130MOL0     O17058   0.179   5.204   8.592  0.2714 -0.1795 -1.5923
  130MOL0     C17059   0.084   5.149   8.685  0.7606 -0.6494 -1.2408
  130MOL0     C17060   0.123   5.033   8.760  0.1585 -0.2121  0.6736
  130MOL0     C17061   0.031   4.975   8.845  0.0247  0.3098 -0.1338
  130MOL0     C17062  -0.089   5.033   8.877  0.3325  0.0755 -0.3997
  130MOL0     O17063  -0.163   4.967   8.972  0.1590  0.3116 -0.1375
  130MOL0     C17064  -0.287   5.018   9.018  0.0522 -0.1780 -0.5484
  130MOL0     C17065  -0.408   4.971   8.943  0.5629 -0.4294  0.6095
  130MOL0     C17066  -0.534   5.007   9.029  0.6358  0.3965  0.0528
  130MOL0     C17067  -0.651   4.959   8.948 -0.7302  0.8399  0.8135
  130MOL0     C17068  -0.772   4.990   9.032  0.1704 -1.1307  1.7175
  130MOL0     C17069  -0.902   4.946   8.964  0.4266 -0.4228  0.0182
  130MOL0     C17070  -1.030   5.005   9.038 -0.4138 -1.4901 -1.5849
  130MOL0     C17071  -1.151   4.940   8.975 -0.7096  0.5671  0.8335
  130MOL0    Cl17072  -1.304   5.025   9.024  0.0573 -0.2280 -0.7531
  130MOL0     C17073  -0.128   5.147   8.804  0.1597  0.0587 -0.3592
  130MOL0     C17074  -0.045   5.202   8.707 -0.1206 -0.0032  0.4246
  130MOL0     O17075   0.217   5.013   8.474 -0.2761  0.7795 -0.3432
  130MOL0     C17076   0.416   5.150   8.312 -0.0566 -0.2175  0.6194
  130MOL0     C17077   0.483   5.233   8.223 -0.4949  0.3722  0.5104
  130MOL0     N17078   0.986   5.415   8.248  0.7158 -0.3723  0.5083
  130MOL0     N17079   1.104   5.369   8.252 -1.4150 -1.1484 -0.2604
  130MOL0     C17080   2.447   5.446   8.103  0.7936 -0.0317  0.2821
  130MOL0     C17081   2.559   5.478   8.181 -0.1144  1.0995 -0.8518
  130MOL0     C17082   2.868   5.449   8.515  0.0053 -0.0597 -0.2115
  130MOL0     C17083   2.939   5.532   8.428 -0.2029 -0.9480  0.5060
  130MOL0     C17084   3.070   5.567   8.469 -0.8305  1.6049 -0.3797
  130MOL0     C17085   3.123   5.521   8.590  0.0734  0.3405  0.1623
  130MOL0     O17086   3.251   5.563   8.623 -0.1712  0.2958 -0.4881
  130MOL0     C17087   3.351   5.510   8.540 -0.1149 -0.1681 -0.3867
  130MOL0     C17088   3.472   5.497   8.642  0.9053  0.3026  0.3791
  130MOL0     C17089   3.442   5.422   8.776  0.0069  0.3782 -0.5098
  130MOL0     C17090   3.562   5.418   8.884  0.9499  0.5611  0.1311
  130MOL0     C17091   3.624   5.549   8.904  0.8873  0.9826 -0.2872
  130MOL0     C17092   3.684   5.650   8.931 -0.2607  0.2433 -0.0410
  130MOL0     C17093   3.059   5.429   8.671 -0.4266  0.5438  0.7416
  130MOL0     C17094   2.934   5.390   8.630  0.0358  0.3285 -0.7172
  130MOL0     H17095   2.448   5.359   8.475 -0.9871 -0.3804 -0.0964
  130MOL0     H17096   2.261   5.301   8.355 -0.7306 -0.8464 -1.3759
  130MOL0     H17097   2.071   5.448   8.215 -1.5708  0.6033 -1.3761
  130MOL0     H17098   2.088   5.271   8.203  2.9623 -0.4276  0.1358
  130MOL0     H17099   2.026   5.297   7.955 -0.5292 -1.3444  1.0010
  130MOL0     H17100   2.004   5.471   7.988  1.9217 -1.0173 -1.0508
  130MOL0     H17101   1.834   5.419   8.152  0.8478  0.5608  0.1298
  130MOL0     H17102   1.835   5.252   8.118 -1.8831 -0.3890 -0.8129
  130MOL0     H17103   1.760   5.452   7.912 -2.3443  0.6147  0.3147
  130MOL0     H17104   1.763   5.280   7.882 -0.3322  1.2970 -1.2475
  130MOL0     H17105   1.622   5.297   8.116 -0.2805 -2.1417 -0.8802
  130MOL0     H17106   1.548   5.275   7.962  0.1761 -1.4035  2.5808
  130MOL0     H17107   1.587   5.549   7.958  0.3952  0.0885  0.1381
  130MOL0     H17108   1.575   5.527   8.130 -0.2375  0.5818 -0.2487
  130MOL0     H17109   1.357   5.581   8.035  1.3319 -0.3748 -0.7100
  130MOL0     H17110   1.365   5.454   7.923  3.3585 -0.0325 -0.9411
  130MOL0     H17111   1.362   5.374   8.221 -0.7518 -2.2851  0.8183
  130MOL0     H17112   1.324   5.294   8.072 -2.4693  1.4597 -3.8790
  130MOL0     H17113   1.106   5.573   7.987 -3.3625 -1.7454 -2.8443
  130MOL0     H17114   0.817   5.510   8.013  0.7715  0.1253 -0.0813
  130MOL0     H17115   0.847   5.667   8.070 -2.8030 -0.2608 -1.9282
  130MOL0     H17116   0.792   5.587   8.309 -1.5785  3.3927  0.2256
  130MOL0     H17117   0.717   5.449   8.245 -1.4166 -0.5816 -0.3484
  130MOL0     H17118   0.579   5.632   8.301  1.0152 -0.5127  1.5983
  130MOL0     H17119   0.632   5.735   8.155 -0.9523 -0.4412 -0.7451
  130MOL0     H17120   0.557   5.585   7.993 -2.9752 -1.8477 -0.9726
  130MOL0     H17121   0.430   5.620   8.108  1.4776  3.2520  1.8087
  130MOL0     H17122   0.316   5.530   8.270  0.7956  0.3190 -0.6827
  130MOL0     H17123   0.199   5.385   8.430 -0.7354 -2.7333  0.6529
  130MOL0     H17124   0.216   4.988   8.728 -0.7845  0.3774 -3.4450
  130MOL0     H17125   0.056   4.880   8.893 -0.5293  1.6399  3.0134
  130MOL0     H17126  -0.281   5.123   9.048  0.3197 -1.0856  3.1009
  130MOL0     H17127  -0.288   4.974   9.119  0.1177  0.0629 -0.4399
  130MOL0     H17128  -0.407   4.864   8.923  0.5441 -0.5665  1.3156
  130MOL0     H17129  -0.417   5.029   8.850  1.6085 -0.3578  0.5403
  130MOL0     H17130  -0.543   5.113   9.058  0.7021 -0.1818  2.4000
  130MOL0     H17131  -0.544   4.946   9.119 -1.0436  0.7474  0.1253
  130MOL0     H17132  -0.661   5.014   8.854  0.0117  1.6045  1.1680
  130MOL0     H17133  -0.649   4.853   8.921 -2.8307  1.5369 -2.7593
  130MOL0     H17134  -0.774   5.099   9.048  0.3977 -1.0057  0.9496
  130MOL0     H17135  -0.765   4.947   9.132 -2.2624 -1.1324  1.9402
  130MOL0     H17136  -0.897   4.837   8.954  0.0928 -0.4529  0.1580
  130MOL0     H17137  -0.910   4.992   8.865  1.6276  1.1764  0.6319
  130MOL0     H17138  -1.028   4.983   9.145  0.6794 -1.4438 -1.5835
  130MOL0     H17139  -1.041   5.111   9.011 -1.5017 -0.8417  1.1463
  130MOL0     H17140  -1.165   4.835   9.003  1.3127  0.3099  0.9716
  130MOL0     H17141  -1.141   4.947   8.867 -0.1171 -2.1210  0.6337
  130MOL0     H17142  -0.228   5.189   8.810 -0.8397 -2.3495  2.3074
  130MOL0     H17143  -0.074   5.290   8.649  1.9811 -1.7422 -3.7449
  130MOL0     H17144   0.433   5.045   8.331  1.8771  0.3924  2.6615
  130MOL0     H17145   0.547   5.183   8.151  0.8383 -0.3064  2.0894
  130MOL0     H17146   2.441   5.460   7.996 -2.2549 -4.2670 -0.3804
  130MOL0     H17147   2.649   5.515   8.131 -0.1157  0.6658 -1.1810
  130MOL0     H17148   2.897   5.566   8.334 -0.6130 -0.1564  0.9662
  130MOL0     H17149   3.137   5.624   8.406  3.3597 -1.3743  0.9878
  130MOL0     H17150   3.369   5.578   8.457  1.7426  0.3452  0.3921
  130MOL0     H17151   3.333   5.409   8.501  0.5541 -0.9478  1.2247
  130MOL0     H17152   3.543   5.439   8.583  1.3864 -1.9433  2.9705
  130MOL0     H17153   3.509   5.599   8.659 -3.0279  2.0413 -0.3071
  130MOL0     H17154   3.414   5.319   8.752 -2.0948  1.1388 -1.6349
  130MOL0     H17155   3.354   5.468   8.824  0.3162  1.4397 -0.9282
  130MOL0     H17156   3.509   5.387   8.975  1.9307 -0.3281  0.4212
  130MOL0     H17157   3.636   5.342   8.858  1.7950  1.2248  0.5515
  130MOL0     H17158   3.730   5.741   8.963  0.9341 -1.0303  2.1399
  130MOL0     H17159   3.108   5.395   8.762  2.8466  1.5148 -0.5048
  130MOL0     H17160   2.879   5.329   8.702  0.5714  0.9640  0.2599
  131MOL0     O17161   4.781   5.759   0.767  0.0437 -0.4504  0.2588
  131MOL0     C17162   4.769   5.672   0.855 -0.2830  0.8378  0.4988
  131MOL0     O17163   4.651   5.632   0.908 -0.2449 -0.4127  0.2807
  131MOL0     C17164   4.525   5.656   0.853 -0.7182 -0.4999 -0.3450
  131MOL0     C17165   4.496   5.679   0.720  0.5815 -0.0569 -0.8741
  131MOL0     C17166   4.368   5.721   0.677  1.2635  0.7468 -0.1266
  131MOL0     C17167   4.266   5.719   0.775  0.4998 -0.5836  0.2935
  131MOL0     O17168   4.129   5.716   0.744 -0.0890 -0.8566 -0.0594
  131MOL0     C17169   4.088   5.740   0.608  1.2594 -0.2873  0.3699
  131MOL0     C17170   3.936   5.773   0.601  0.0547  0.8473  0.6492
  131MOL0     C17171   3.842   5.669   0.665  0.6015 -0.6633  0.6397
  131MOL0     C17172   3.844   5.538   0.587  0.3766  0.2162 -0.2914
  131MOL0     C17173   3.744   5.429   0.638 -0.7084 -0.3131  0.9931
  131MOL0     C17174   3.743   5.299   0.550  0.7308 -0.0885 -0.5208
  131MOL0     C17175   3.647   5.207   0.624 -1.1705  1.2362  0.1879
  131MOL0     C17176   3.501   5.247   0.631 -0.1386  0.4016 -0.0948
  131MOL0     N17177   3.451   5.275   0.502  0.3724 -0.8687  0.2470
  131MOL0     C17178   3.433   5.399   0.448 -0.5521  0.2031  0.7393
  131MOL0     C17179   3.391   5.373   0.320 -0.1308  0.7073 -0.0525
  131MOL0     C17180   3.357   5.470   0.219  0.0577 -0.4537  0.0615
  131MOL0     C17181   3.222   5.542   0.241  0.3465  0.3809 -0.1714
  131MOL0     C17182   3.099   5.461   0.216  0.3095 -0.3308  0.0634
  131MOL0     C17183   2.972   5.543   0.211 -0.2562 -0.1538 -0.1909
  131MOL0     O17184   2.856   5.459   0.187 -0.3667  0.2190 -0.7714
  131MOL0     C17185   2.728   5.511   0.198  0.0293 -0.2258 -0.2705
  131MOL0     C17186   2.619   5.428   0.183  0.0554  0.7623 -0.5020
  131MOL0     C17187   2.488   5.465   0.196  0.2337 -0.9429  0.8002
  131MOL0     C17188   2.459   5.599   0.211  0.1976 -0.5395 -0.0855
  131MOL0     C17189   2.319   5.643   0.233 -0.6603  0.1813  0.5100
  131MOL0     O17190   2.230   5.541   0.254  0.4039 -0.3681 -0.1335
  131MOL0     C17191   2.092   5.560   0.271  0.2200 -0.0597  0.7558
  131MOL0     C17192   2.032   5.438   0.306 -0.2613 -0.0023  0.0788
  131MOL0     C17193   1.895   5.421   0.316  0.0485 -0.0489 -0.8179
  131MOL0     C17194   1.807   5.528   0.282 -0.0889 -0.2714 -0.4356
  131MOL0     O17195   1.669   5.527   0.281  0.2751 -0.3858 -0.4208
  131MOL0     C17196   1.597   5.402   0.274 -0.3069 -0.3639 -0.5782
  131MOL0     C17197   1.440   5.417   0.278 -0.2602  0.6312  0.4486
  131MOL0     C17198   1.379   5.489   0.154  0.8082 -1.1633  0.2549
  131MOL0     C17199   1.222   5.507   0.179 -0.4379 -0.4320 -1.0763
  131MOL0     C17200   1.184   5.626   0.264  0.7488 -0.0140 -0.0106
  131MOL0     C17201   1.041   5.664   0.233 -0.5847 -0.2989  0.3717
  131MOL0     C17202   0.980   5.792   0.283 -0.3945 -0.5929  0.2665
  131MOL0     C17203   0.848   5.821   0.213  0.1120  0.1892 -0.6061
  131MOL0    Cl17204   0.757   5.955   0.301 -0.1906  0.4371  0.2258
  131MOL0     C17205   1.869   5.655   0.267  0.7682  0.8380  0.1874
  131MOL0     C17206   2.007   5.668   0.251  0.8491  0.9406 -0.6069
  131MOL0     O17207   2.295   5.765   0.233  0.1525  0.4648 -0.2636
  131MOL0     C17208   2.566   5.691   0.218 -0.2598  0.4354 -0.5381
  131MOL0     C17209   2.694   5.642   0.223 -0.4367  0.5387  0.2361
  131MOL0     N17210   3.364   5.233   0.310  0.2358 -0.5990 -0.3531
  131MOL0     N17211   3.404   5.178   0.418  0.1760  0.1063  0.7298
  131MOL0     C17212   4.300   5.711   0.906 -0.2455 -0.5167 -0.4153
  131MOL0     C17213   4.433   5.681   0.947  0.0402  0.4249  0.2477
  131MOL0     C17214   4.893   5.611   0.893 -0.2805  0.2137 -0.1237
  131MOL0     C17215   5.018   5.643   0.836 -0.9770  0.0438 -0.2193
  131MOL0     C17216   5.140   5.587   0.882 -0.2383  0.1367 -0.3327
  131MOL0     C17217   5.137   5.491   0.986 -0.1721  0.0164  0.0212
  131MOL0     O17218   5.256   5.424   1.011 -0.1424 -0.5098  1.1098
  131MOL0     C17219   5.288   5.334   1.117 -1.1507  0.8183  0.1939
  131MOL0     C17220   5.306   5.420   1.238  0.0931  0.6330 -0.7045
  131MOL0     C17221   5.434   5.507   1.230  0.6567 -0.3268 -0.6214
  131MOL0     C17222   5.566   5.430   1.212  0.3675 -0.0578  0.0253
  131MOL0     C17223   5.676   5.523   1.221 -0.1363 -0.0298 -0.2689
  131MOL0     C17224   5.754   5.619   1.224 -0.1137 -1.0141  0.1088
  131MOL0     C17225   5.010   5.448   1.033  0.1417 -0.0951  0.6454
  131MOL0     C17226   4.891   5.515   0.997 -0.8468  0.3766 -0.1162
  131MOL0     H17227   4.578   5.673   0.650  0.0198 -0.8166 -1.4878
  131MOL0     H17228   4.350   5.724   0.570  0.1885 -0.2570  0.0123
  131MOL0     H17229   4.117   5.658   0.543  1.6028  0.9483 -1.0807
  131MOL0     H17230   4.128   5.833   0.567  1.2686  0.5163  2.1002
  131MOL0     H17231   3.910   5.796   0.498 -0.5983  0.7124  0.7806
  131MOL0     H17232   3.913   5.868   0.650 -4.7693  0.7965 -1.0138
  131MOL0     H17233   3.742   5.714   0.671  0.4171 -0.9286 -0.2940
  131MOL0     H17234   3.859   5.647   0.771 -2.1649 -1.5212  0.9900
  131MOL0     H17235   3.815   5.558   0.483 -1.8050 -0.2452  0.1883
  131MOL0     H17236   3.948   5.506   0.598  0.2595 -0.1155 -0.1559
  131MOL0     H17237   3.641   5.465   0.634 -0.1101  1.3250 -0.7938
  131MOL0     H17238   3.784   5.403   0.737  3.0326  2.0240  0.2985
  131MOL0     H17239   3.844   5.259   0.542  1.2769  1.5768 -3.4193
  131MOL0     H17240   3.720   5.323   0.446 -3.3858  0.4276  0.3187
  131MOL0     H17241   3.649   5.115   0.566  0.8082  2.5359 -1.9635
  131MOL0     H17242   3.678   5.185   0.727  0.2271  1.2849 -0.1920
  131MOL0     H17243   3.487   5.335   0.694  3.3640  1.4395 -0.5569
  131MOL0     H17244   3.447   5.165   0.678  2.8393 -0.7474  1.5615
  131MOL0     H17245   3.444   5.498   0.491 -0.5682  0.4293  0.2269
  131MOL0     H17246   3.355   5.413   0.125 -1.3623 -1.6400  0.7814
  131MOL0     H17247   3.436   5.547   0.212  0.0907 -0.5464 -0.7010
  131MOL0     H17248   3.223   5.623   0.167 -0.2481  0.1061 -0.4868
  131MOL0     H17249   3.228   5.577   0.344 -0.2486  0.3702 -0.1305
  131MOL0     H17250   3.117   5.414   0.119  3.2620 -1.3750  1.0102
  131MOL0     H17251   3.099   5.380   0.290  0.7538 -2.2528 -1.9324
  131MOL0     H17252   2.979   5.619   0.133 -1.6387 -1.1169 -1.3028
  131MOL0     H17253   2.969   5.591   0.309  3.4371  1.3203 -0.6485
  131MOL0     H17254   2.639   5.326   0.150  2.4512  0.5561  1.3871
  131MOL0     H17255   2.408   5.392   0.190 -2.0864  1.4856  0.4363
  131MOL0     H17256   2.086   5.348   0.331  0.6230  1.3289  3.6948
  131MOL0     H17257   1.849   5.327   0.347 -0.8427  0.7976  0.5284
  131MOL0     H17258   1.623   5.332   0.353  2.5457 -0.1837 -1.2472
  131MOL0     H17259   1.631   5.344   0.187  2.2610 -2.3194  1.5317
  131MOL0     H17260   1.400   5.471   0.365 -2.8685  2.8486 -1.9063
  131MOL0     H17261   1.397   5.317   0.273 -0.0899  0.6055 -2.2401
  131MOL0     H17262   1.379   5.433   0.060 -4.8219 -1.4952  0.1370
  131MOL0     H17263   1.426   5.588   0.153 -0.6375 -0.4377 -1.1117
  131MOL0     H17264   1.180   5.524   0.080  1.1817  0.2573 -1.6883
  131MOL0     H17265   1.190   5.411   0.220 -0.0174 -0.4163 -0.7000
  131MOL0     H17266   1.247   5.715   0.258 -0.5511  0.9331  0.0145
  131MOL0     H17267   1.183   5.590   0.367  0.5163 -3.0033 -0.9605
  131MOL0     H17268   0.980   5.588   0.282 -1.9655  1.1638  0.9671
  131MOL0     H17269   1.023   5.668   0.125  0.8590  0.5154  0.1324
  131MOL0     H17270   0.974   5.788   0.392  0.7036  1.9859  0.5197
  131MOL0     H17271   1.039   5.884   0.272 -1.3516  0.0341  0.3286
  131MOL0     H17272   0.782   5.734   0.213  1.0507 -0.5423 -0.8254
  131MOL0     H17273   0.869   5.851   0.110 -1.8628 -1.1023 -1.4414
  131MOL0     H17274   1.802   5.739   0.262 -3.6200 -2.1795  2.1985
  131MOL0     H17275   2.052   5.762   0.221  1.9664  0.8577  0.7364
  131MOL0     H17276   2.552   5.799   0.221 -1.6035  0.3027 -1.1131
  131MOL0     H17277   2.775   5.712   0.241 -0.7442  0.2912  3.0541
  131MOL0     H17278   4.220   5.735   0.975 -0.3638  2.1408 -1.3664
  131MOL0     H17279   4.452   5.676   1.054  2.8258 -1.7130 -0.2088
  131MOL0     H17280   5.025   5.719   0.759  1.0981  1.4024  1.1981
  131MOL0     H17281   5.231   5.622   0.833  1.4257 -2.8732  0.3665
  131MOL0     H17282   5.380   5.284   1.085  0.3732  1.6385  2.9494
  131MOL0     H17283   5.210   5.261   1.142 -2.2928  1.8486 -0.2521
  131MOL0     H17284   5.219   5.485   1.245  0.3291  0.8832  0.0585
  131MOL0     H17285   5.305   5.365   1.333  1.7882  1.2131 -0.2982
  131MOL0     H17286   5.449   5.555   1.327 -1.3717 -1.6633  0.4304
  131MOL0     H17287   5.421   5.584   1.153 -1.4648  0.5797  0.5774
  131MOL0     H17288   5.574   5.350   1.286 -1.9711  0.3120  0.7678
  131MOL0     H17289   5.574   5.382   1.114  0.7353  1.7445 -0.8622
  131MOL0     H17290   5.830   5.693   1.234  0.5519 -1.6600 -0.1214
  131MOL0     H17291   5.005   5.358   1.093  2.7877 -1.0775 -0.4522
  131MOL0     H17292   4.799   5.481   1.044 -1.0453  2.1290  0.8552
  132MOL0     O17293  11.102   1.143   2.736 -0.7178  0.2898  0.8192
  132MOL0     C17294  11.137   1.170   2.850 -0.0640  0.8176  0.4592
  132MOL0     O17295  11.071   1.128   2.968 -0.1029 -0.5296 -0.1908
  132MOL0     C17296  10.964   1.040   2.961 -0.5052 -0.0011 -0.0858
  132MOL0     C17297  10.848   1.059   3.036  0.2696 -0.4818  0.7674
  132MOL0     C17298  10.752   0.960   3.037  0.4559  0.5373  0.5437
  132MOL0     C17299  10.768   0.835   2.970 -1.2417 -0.2111  0.0138
  132MOL0     O17300  10.698   0.722   2.986 -0.5267 -0.1680 -0.0992
  132MOL0     C17301  10.591   0.714   3.082 -0.1266 -0.0389  0.1075
  132MOL0     C17302  10.460   0.730   3.020  0.0152 -0.8968  0.4697
  132MOL0     C17303  10.339   0.693   3.105  0.4696  0.4746  0.5707
  132MOL0     C17304  10.340   0.767   3.236  0.2509 -0.5129  0.2928
  132MOL0     C17305  10.202   0.761   3.310  0.0614  0.1768  0.2439
  132MOL0     C17306  10.105   0.864   3.253 -0.0496 -0.3211  0.8626
  132MOL0     C17307   9.956   0.847   3.303 -0.9365 -0.2882  0.1784
  132MOL0     C17308   9.948   0.862   3.459 -0.5652  0.3013 -0.9688
  132MOL0     N17309   9.812   0.860   3.506 -0.1840  0.6894 -0.4615
  132MOL0     C17310   9.751   0.754   3.559 -0.1215  0.3102  1.0705
  132MOL0     C17311   9.638   0.799   3.602  1.0953 -0.3933 -0.9686
  132MOL0     C17312   9.533   0.739   3.689  1.0345 -0.6290  0.4656
  132MOL0     C17313   9.402   0.705   3.616 -0.2882  0.0440 -0.1894
  132MOL0     C17314   9.292   0.678   3.727 -0.7344 -0.7669  0.2331
  132MOL0     C17315   9.171   0.628   3.653  0.3787  0.6248 -0.8357
  132MOL0     O17316   9.110   0.739   3.606  0.1733 -0.3934  0.1394
  132MOL0     C17317   8.978   0.734   3.599  0.1638  0.1562  0.2460
  132MOL0     C17318   8.914   0.662   3.506  0.2439 -0.0603 -0.2976
  132MOL0     C17319   8.782   0.683   3.499 -0.4463  0.2168  0.6508
  132MOL0     C17320   8.706   0.762   3.589 -0.1692  0.1878 -0.6639
  132MOL0     C17321   8.560   0.770   3.583 -0.1155  0.6795  0.6258
  132MOL0     O17322   8.494   0.816   3.694  0.3405  0.3165  0.1098
  132MOL0     C17323   8.364   0.855   3.685  0.4348  0.0698  0.3596
  132MOL0     C17324   8.331   0.976   3.626 -1.3852  0.3214  0.4574
  132MOL0     C17325   8.201   1.022   3.617  0.3752 -0.0590  0.1738
  132MOL0     C17326   8.094   0.959   3.685 -0.0963 -0.5066  0.7165
  132MOL0     O17327   7.974   1.015   3.666  0.3321 -0.4021 -0.1453
  132MOL0     C17328   7.863   0.963   3.730  0.4772 -0.2744  0.2542
  132MOL0     C17329   7.727   1.015   3.672  0.1322 -0.1083 -0.3314
  132MOL0     C17330   7.605   0.971   3.752 -0.7932 -0.1960  0.5640
  132MOL0     C17331   7.489   0.914   3.663 -0.6826  0.4308 -0.6228
  132MOL0     C17332   7.357   0.914   3.743 -0.2158 -0.0179 -0.1774
  132MOL0     C17333   7.291   1.049   3.752  1.0705 -0.6004 -0.0368
  132MOL0     C17334   7.167   1.040   3.840 -0.3332 -0.5100 -0.3307
  132MOL0     C17335   7.096   1.171   3.814  0.0374 -0.3995 -0.0827
  132MOL0    Cl17336   6.939   1.162   3.901 -0.4875  0.0877  0.3170
  132MOL0     C17337   8.127   0.835   3.749  0.1281  0.6719  0.0470
  132MOL0     C17338   8.258   0.781   3.742 -0.2208  0.0325  0.2397
  132MOL0     O17339   8.514   0.762   3.470  0.3573 -0.1087 -0.3924
  132MOL0     C17340   8.777   0.826   3.697 -0.8097  0.7381  0.7160
  132MOL0     C17341   8.914   0.813   3.697  0.2510  0.8693 -0.2540
  132MOL0     N17342   9.620   0.918   3.532  0.2355  0.8793 -0.4528
  132MOL0     N17343   9.723   0.962   3.485 -0.5583  0.1277 -0.1388
  132MOL0     C17344  10.896   0.821   2.910  0.7437  0.2734  0.6394
  132MOL0     C17345  10.989   0.919   2.899 -0.0413 -0.4763 -0.2729
  132MOL0     C17346  11.256   1.250   2.879  1.0662 -0.5368  0.4104
  132MOL0     C17347  11.334   1.303   2.775 -0.5441 -0.6679 -0.2380
  132MOL0     C17348  11.443   1.388   2.798  0.7001  0.4367 -0.1932
  132MOL0     C17349  11.473   1.428   2.927 -0.5868 -0.0894  0.4032
  132MOL0     O17350  11.581   1.505   2.935  0.0592  0.7766  0.4462
  132MOL0     C17351  11.573   1.621   3.009 -0.8691 -0.8861 -0.9115
  132MOL0     C17352  11.707   1.695   2.999  1.5732  0.0265  0.3877
  132MOL0     C17353  11.715   1.843   3.035 -0.6075 -0.0304 -0.3671
  132MOL0     C17354  11.707   1.881   3.177  0.4154 -0.3038 -0.5905
  132MOL0     C17355  11.593   1.821   3.243 -0.9910  0.3469 -0.2343
  132MOL0     C17356  11.512   1.762   3.310 -0.0953  0.3380 -0.1128
  132MOL0     C17357  11.394   1.377   3.033  0.1355 -0.3761  0.7987
  132MOL0     C17358  11.285   1.296   3.015  0.0643  0.7958  1.1056
  132MOL0     H17359  10.845   1.156   3.084 -0.8167 -1.4941  2.8892
  132MOL0     H17360  10.661   0.988   3.089 -0.2898  2.3702 -1.6069
  132MOL0     H17361  10.608   0.785   3.164  0.1355  1.7623 -1.4507
  132MOL0     H17362  10.592   0.612   3.121  0.7559 -0.2752 -0.4988
  132MOL0     H17363  10.450   0.670   2.929 -0.8800  1.4629 -1.0753
  132MOL0     H17364  10.445   0.834   2.992 -1.5223 -0.6154  2.1567
  132MOL0     H17365  10.340   0.585   3.124  0.7392  0.7588  2.3519
  132MOL0     H17366  10.248   0.723   3.052  2.5673  1.7951 -2.5414
  132MOL0     H17367  10.414   0.717   3.299  0.2592 -0.6888  0.1420
  132MOL0     H17368  10.373   0.871   3.221 -0.7158 -0.0095  1.4545
  132MOL0     H17369  10.213   0.782   3.417 -0.1535  0.7053  0.1623
  132MOL0     H17370  10.160   0.660   3.311 -1.2927  0.6981  2.2481
  132MOL0     H17371  10.104   0.847   3.145  3.0519 -0.6229  0.8019
  132MOL0     H17372  10.133   0.965   3.282 -2.8153 -0.1378  3.3315
  132MOL0     H17373   9.901   0.930   3.256 -0.3464 -0.0150 -0.0435
  132MOL0     H17374   9.911   0.757   3.260 -1.3870  0.0509 -0.0745
  132MOL0     H17375  10.012   0.944   3.493 -0.7381  0.3460 -0.7501
  132MOL0     H17376   9.988   0.773   3.509 -0.8845  1.3779  1.3707
  132MOL0     H17377   9.794   0.656   3.579 -0.2003 -0.2127 -1.1454
  132MOL0     H17378   9.510   0.810   3.769  0.5605 -1.1729  0.8227
  132MOL0     H17379   9.580   0.652   3.736  4.7531  0.9460  0.0724
  132MOL0     H17380   9.421   0.612   3.563 -1.4782 -1.4141  1.8080
  132MOL0     H17381   9.375   0.795   3.559 -2.4373 -0.6132 -0.2882
  132MOL0     H17382   9.313   0.593   3.791 -2.1829 -1.0018  0.4299
  132MOL0     H17383   9.261   0.765   3.785 -2.2643 -0.6328 -0.7132
  132MOL0     H17384   9.107   0.567   3.717  0.7813  0.6546 -0.4019
  132MOL0     H17385   9.208   0.573   3.566 -0.1609  2.0009 -1.9763
  132MOL0     H17386   8.973   0.605   3.435  0.8424  0.5652 -0.3193
  132MOL0     H17387   8.744   0.629   3.413  2.6833  1.5739 -1.7882
  132MOL0     H17388   8.419   1.028   3.588  0.4568 -1.1221  2.4944
  132MOL0     H17389   8.184   1.100   3.544 -1.1302 -0.5521 -0.0418
  132MOL0     H17390   7.867   1.011   3.829 -1.2374 -2.6699  1.5895
  132MOL0     H17391   7.871   0.854   3.737 -3.2070 -0.5876  3.7593
  132MOL0     H17392   7.721   0.991   3.565  0.4993 -1.8439  0.0075
  132MOL0     H17393   7.728   1.124   3.681  1.1809 -0.0234 -1.2351
  132MOL0     H17394   7.573   1.060   3.807 -2.5949 -0.5242  0.1005
  132MOL0     H17395   7.633   0.897   3.829 -0.2165 -0.7268 -0.1427
  132MOL0     H17396   7.488   0.978   3.574  1.0439  2.0405  0.4515
  132MOL0     H17397   7.512   0.810   3.639 -0.3647  0.5933 -1.0353
  132MOL0     H17398   7.378   0.872   3.842 -2.4180 -0.7284  0.0318
  132MOL0     H17399   7.288   0.842   3.698  1.6226 -2.9982  1.4239
  132MOL0     H17400   7.256   1.073   3.651  0.1511  0.5719  0.5437
  132MOL0     H17401   7.370   1.118   3.781  1.0214 -1.0177  1.1106
  132MOL0     H17402   7.106   0.956   3.806  0.1348 -0.2358 -1.9380
  132MOL0     H17403   7.196   1.026   3.945  0.8077  0.9116 -0.4211
  132MOL0     H17404   7.082   1.184   3.707 -2.3524  0.5829  0.2777
  132MOL0     H17405   7.145   1.265   3.841  0.9826  0.0401 -3.0178
  132MOL0     H17406   8.046   0.785   3.801 -1.2566  2.5433 -0.2027
  132MOL0     H17407   8.276   0.685   3.790 -0.8605 -0.3043 -0.1701
  132MOL0     H17408   8.733   0.878   3.782 -2.1185  1.0444 -0.1250
  132MOL0     H17409   8.970   0.875   3.767  2.5556  0.5332 -1.7025
  132MOL0     H17410  10.924   0.728   2.863 -0.8397 -0.7419  1.6077
  132MOL0     H17411  11.079   0.912   2.840  1.9617 -0.2314  2.5747
  132MOL0     H17412  11.329   1.284   2.668 -1.1235  0.8771 -0.5139
  132MOL0     H17413  11.506   1.422   2.717 -0.0708 -0.9879 -1.4496
  132MOL0     H17414  11.554   1.600   3.115 -1.3581  1.7405 -0.3827
  132MOL0     H17415  11.496   1.688   2.968 -0.3418 -0.6797 -1.5730
  132MOL0     H17416  11.774   1.643   3.068  0.8369  0.1290  1.2002
  132MOL0     H17417  11.749   1.691   2.898  0.8822 -0.3479  0.1096
  132MOL0     H17418  11.648   1.907   2.976  2.0985  0.0091 -3.7023
  132MOL0     H17419  11.815   1.870   3.003  0.7555 -2.1371  1.7816
  132MOL0     H17420  11.801   1.852   3.225 -0.1061  0.1380  0.7420
  132MOL0     H17421  11.704   1.990   3.186  0.2338 -0.3403 -0.1699
  132MOL0     H17422  11.447   1.699   3.368 -1.5958  1.6797 -0.2745
  132MOL0     H17423  11.417   1.409   3.134  1.2043 -1.5500  0.9609
  132MOL0     H17424  11.219   1.270   3.097 -1.4133  0.5983 -0.1071
  133MOL0     O17425   6.811   8.375   5.446 -0.5054  0.0444 -0.5050
  133MOL0     C17426   6.872   8.467   5.396 -0.3098 -0.6460  0.0525
  133MOL0     O17427   6.835   8.544   5.289 -0.1602  0.2397 -0.1983
  133MOL0     C17428   6.724   8.517   5.207 -0.3486  0.0288 -0.5206
  133MOL0     C17429   6.605   8.449   5.239  0.7011 -0.0833 -0.3362
  133MOL0     C17430   6.508   8.432   5.143  0.4997  0.0086  0.6537
  133MOL0     C17431   6.519   8.495   5.018  0.7907  0.5622  0.9886
  133MOL0     O17432   6.401   8.500   4.939 -0.1346 -0.3982 -0.1319
  133MOL0     C17433   6.337   8.380   4.890 -0.2654 -1.3161  0.2641
  133MOL0     C17434   6.428   8.314   4.782 -0.0893  0.2885 -0.3661
  133MOL0     C17435   6.370   8.192   4.705 -0.1070 -0.4431  0.3513
  133MOL0     C17436   6.463   8.147   4.595 -0.0820 -0.8777  0.3272
  133MOL0     C17437   6.382   8.062   4.495 -0.2941  0.4929  0.2411
  133MOL0     C17438   6.348   7.921   4.559  0.0770 -0.5685 -0.7829
  133MOL0     C17439   6.312   7.812   4.461  0.5253  0.1451 -0.1827
  133MOL0     C17440   6.168   7.818   4.412  0.6577  0.1547  0.5436
  133MOL0     N17441   6.075   7.759   4.504  1.0120  0.8443  0.0216
  133MOL0     C17442   6.055   7.621   4.518  0.1084 -0.1078 -0.4281
  133MOL0     C17443   5.953   7.616   4.599  0.1076  0.1149 -0.3123
  133MOL0     C17444   5.911   7.486   4.657  0.3457  0.8508  0.3443
  133MOL0     C17445   5.788   7.424   4.575 -0.8094 -0.5058  0.0977
  133MOL0     C17446   5.679   7.379   4.672  1.3928  0.0762 -0.1393
  133MOL0     C17447   5.566   7.323   4.587 -0.1037  0.6153  0.5947
  133MOL0     O17448   5.434   7.311   4.663  0.2168  0.3383 -0.4109
  133MOL0     C17449   5.325   7.234   4.619 -1.0308  0.1111  0.5781
  133MOL0     C17450   5.307   7.214   4.482 -1.2391 -0.7296  0.0346
  133MOL0     C17451   5.204   7.133   4.440 -0.0112 -0.3547 -0.1322
  133MOL0     C17452   5.110   7.081   4.527  0.1423  0.0903 -1.3658
  133MOL0     C17453   4.991   7.000   4.487  0.9498 -0.2787  0.3835
  133MOL0     O17454   4.876   7.017   4.557 -0.2625  0.1924 -0.4108
  133MOL0     C17455   4.760   6.962   4.522  0.9215  0.6943  0.2878
  133MOL0     C17456   4.703   6.934   4.392  0.5779 -0.6811  0.5679
  133MOL0     C17457   4.573   6.903   4.379  0.0803  0.5319 -0.3654
  133MOL0     C17458   4.479   6.909   4.482  0.3909  0.0054 -1.4599
  133MOL0     O17459   4.349   6.871   4.457 -0.8199 -0.0692  0.0353
  133MOL0     C17460   4.264   6.898   4.567 -0.6678  0.4340  0.8320
  133MOL0     C17461   4.120   6.851   4.534  0.0290 -1.0035  0.0101
  133MOL0     C17462   4.065   6.925   4.416  0.0661  0.1249 -0.6088
  133MOL0     C17463   3.927   6.876   4.387 -0.5376 -0.2189 -0.4575
  133MOL0     C17464   3.865   6.954   4.264 -0.0501  0.4111 -0.6097
  133MOL0     C17465   3.755   6.876   4.188 -0.5893 -0.8348 -0.4600
  133MOL0     C17466   3.722   6.937   4.048 -0.3534  0.8428 -0.9755
  133MOL0     C17467   3.583   6.907   3.999  0.5627  0.4851  0.4190
  133MOL0    Cl17468   3.459   6.967   4.120 -0.0623 -0.4010 -0.5187
  133MOL0     C17469   4.525   6.943   4.615 -0.1185 -1.0879 -0.0380
  133MOL0     C17470   4.666   6.968   4.629  0.1911 -0.3063  0.3618
  133MOL0     O17471   5.003   6.937   4.381 -0.0210  0.7479 -0.3662
  133MOL0     C17472   5.136   7.102   4.670 -0.0714 -0.1165 -0.9751
  133MOL0     C17473   5.238   7.189   4.715  0.2260 -1.0700  0.1753
  133MOL0     N17474   5.904   7.737   4.636 -0.5627 -0.6317 -0.0776
  133MOL0     N17475   5.967   7.826   4.573  0.0922 -0.0717 -0.3448
  133MOL0     C17476   6.637   8.566   4.985 -0.6367  0.1964  0.1138
  133MOL0     C17477   6.740   8.578   5.079  0.3466  0.4456 -0.2530
  133MOL0     C17478   6.999   8.516   5.458  0.3468  0.8827  0.6451
  133MOL0     C17479   7.079   8.611   5.391 -0.0299 -0.2600  0.1656
  133MOL0     C17480   7.212   8.631   5.432  0.2144  0.0365  0.2767
  133MOL0     C17481   7.259   8.568   5.544  0.1034  0.5120  0.0018
  133MOL0     O17482   7.390   8.573   5.590 -0.6960  0.6925  0.4513
  133MOL0     C17483   7.489   8.587   5.488 -0.2846 -0.1758 -0.0924
  133MOL0     C17484   7.513   8.735   5.492 -0.1342 -0.4816 -0.5451
  133MOL0     C17485   7.582   8.783   5.361  0.2056  0.3381 -0.1709
  133MOL0     C17486   7.618   8.927   5.362 -0.2868 -0.2373  0.1913
  133MOL0     C17487   7.677   8.983   5.483  0.0625  0.1647 -0.0727
  133MOL0     C17488   7.712   9.027   5.589  0.6673  0.8706 -0.6927
  133MOL0     C17489   7.174   8.484   5.616  0.0373 -0.2557 -0.1448
  133MOL0     C17490   7.044   8.456   5.576  0.2029 -0.0815  0.6449
  133MOL0     H17491   6.588   8.403   5.336  2.5434 -0.6634 -0.2437
  133MOL0     H17492   6.417   8.380   5.171  1.5282 -1.7564  0.8819
  133MOL0     H17493   6.241   8.400   4.841  0.9557 -0.4520 -1.9142
  133MOL0     H17494   6.322   8.312   4.975  2.1840 -2.5497 -0.2080
  133MOL0     H17495   6.523   8.282   4.827 -0.7457 -0.0805  0.8134
  133MOL0     H17496   6.455   8.393   4.712 -0.6843  1.6842  0.9251
  133MOL0     H17497   6.274   8.216   4.658 -0.7425 -2.5465  0.4741
  133MOL0     H17498   6.356   8.108   4.773  0.9601 -0.0830  1.0462
  133MOL0     H17499   6.494   8.238   4.543 -0.9510 -0.1385  1.0481
  133MOL0     H17500   6.550   8.088   4.625  1.7313  0.8382 -1.3047
  133MOL0     H17501   6.445   8.037   4.409 -0.3123 -2.2618  0.9329
  133MOL0     H17502   6.295   8.115   4.456  0.1330  2.2387  1.5385
  133MOL0     H17503   6.266   7.933   4.630 -0.1021 -0.7000 -0.9685
  133MOL0     H17504   6.435   7.894   4.620 -1.9582 -1.9973  1.7003
  133MOL0     H17505   6.386   7.834   4.383  1.4823 -0.8848  0.4085
  133MOL0     H17506   6.339   7.710   4.491  2.8579 -0.2495 -3.1377
  133MOL0     H17507   6.164   7.754   4.324 -0.5674  0.3968  0.4066
  133MOL0     H17508   6.140   7.921   4.389  0.7989  0.2658  0.8603
  133MOL0     H17509   6.114   7.533   4.493  0.1914 -0.8425  2.0385
  133MOL0     H17510   5.870   7.496   4.757  1.9377 -3.1404  1.5836
  133MOL0     H17511   6.002   7.426   4.672 -0.0393 -0.1885 -1.1655
  133MOL0     H17512   5.833   7.346   4.512 -0.9411  1.6351 -2.8658
  133MOL0     H17513   5.740   7.500   4.513 -1.0708 -1.9193 -1.4955
  133MOL0     H17514   5.705   7.299   4.741  1.3600  0.5668  0.4508
  133MOL0     H17515   5.650   7.467   4.732 -1.2208 -0.3527 -0.6317
  133MOL0     H17516   5.580   7.226   4.539 -3.6554  0.4203 -0.3985
  133MOL0     H17517   5.552   7.388   4.500 -0.3362 -0.0570  0.1224
  133MOL0     H17518   5.381   7.255   4.414  0.8747  0.1456  2.6776
  133MOL0     H17519   5.195   7.122   4.332  0.2987  0.0794 -0.2060
  133MOL0     H17520   4.748   6.923   4.293 -2.4391 -0.8147 -0.8922
  133MOL0     H17521   4.540   6.878   4.279 -0.3978 -2.6822  0.4930
  133MOL0     H17522   4.267   6.998   4.611 -1.5152  0.1361  1.5921
  133MOL0     H17523   4.303   6.838   4.650 -2.3741 -0.3847  1.0873
  133MOL0     H17524   4.051   6.876   4.615  2.2118 -1.6740  2.2077
  133MOL0     H17525   4.115   6.742   4.527 -0.3694 -1.1079  1.6295
  133MOL0     H17526   4.132   6.901   4.333  0.1874 -1.0967 -0.1719
  133MOL0     H17527   4.064   7.032   4.438  2.0491 -0.4491  2.9462
  133MOL0     H17528   3.935   6.773   4.353 -3.0386  0.0950 -2.3170
  133MOL0     H17529   3.863   6.878   4.476  1.6708  1.8054  1.2253
  133MOL0     H17530   3.946   6.982   4.196 -0.1293  1.6786 -0.2113
  133MOL0     H17531   3.824   7.049   4.299 -0.7662  1.1105 -3.1381
  133MOL0     H17532   3.666   6.892   4.249 -1.2689  0.7909 -1.7965
  133MOL0     H17533   3.789   6.772   4.187  4.3284  0.5387 -1.0298
  133MOL0     H17534   3.737   7.045   4.048  0.0037  0.7930 -1.0844
  133MOL0     H17535   3.795   6.882   3.988  0.5346 -0.5294  1.2355
  133MOL0     H17536   3.563   6.799   3.994  1.4927  0.3251 -0.0031
  133MOL0     H17537   3.573   6.948   3.898  1.5352  1.0940  0.5603
  133MOL0     H17538   4.476   6.956   4.710 -2.3097  0.8453 -1.3309
  133MOL0     H17539   4.708   6.974   4.729 -0.5362 -0.9909  0.7187
  133MOL0     H17540   5.064   7.057   4.737 -0.1359 -1.5131 -1.9541
  133MOL0     H17541   5.247   7.222   4.818 -2.0403 -1.4169  0.5477
  133MOL0     H17542   6.652   8.623   4.894 -1.1201  1.5970  0.8866
  133MOL0     H17543   6.832   8.633   5.066 -0.7527  2.2870 -0.6878
  133MOL0     H17544   7.053   8.665   5.301  1.4336  0.2847  0.0522
  133MOL0     H17545   7.284   8.685   5.370 -0.9072  0.8328 -0.3797
  133MOL0     H17546   7.448   8.552   5.392 -0.6241  0.8865 -0.3483
  133MOL0     H17547   7.572   8.519   5.505 -0.7054 -2.5755 -5.5396
  133MOL0     H17548   7.421   8.790   5.515 -1.5546 -2.2185 -1.7778
  133MOL0     H17549   7.582   8.746   5.577 -2.9020 -0.7315  1.9009
  133MOL0     H17550   7.513   8.761   5.279  0.8631  0.3311 -0.7343
  133MOL0     H17551   7.673   8.722   5.348  2.2363  3.2868 -0.9181
  133MOL0     H17552   7.688   8.935   5.279 -1.4267 -1.0815 -0.8830
  133MOL0     H17553   7.533   8.987   5.329 -0.6580 -0.2906  1.0304
  133MOL0     H17554   7.751   9.072   5.678 -3.0176  2.0470  0.4863
  133MOL0     H17555   7.199   8.433   5.708 -0.0848  0.1588  0.1252
  133MOL0     H17556   6.981   8.387   5.632 -1.0635  0.0857 -0.5199
  134MOL0     O17557   7.988   4.403   4.523 -0.2492 -0.1468 -0.3329
  134MOL0     C17558   8.006   4.330   4.626 -0.4389 -1.3480 -0.0283
  134MOL0     O17559   7.908   4.300   4.715  0.3474 -0.3889  0.3009
  134MOL0     C17560   7.773   4.321   4.692  0.4113 -0.2954 -0.2228
  134MOL0     C17561   7.717   4.433   4.626 -0.7969  0.2174  0.3133
  134MOL0     C17562   7.580   4.453   4.612 -0.7082 -0.3079  0.5448
  134MOL0     C17563   7.497   4.369   4.677  0.5938  0.2225 -0.8860
  134MOL0     O17564   7.358   4.383   4.665 -0.3726  0.5169  0.0512
  134MOL0     C17565   7.274   4.375   4.783 -0.4468  0.3883 -0.3824
  134MOL0     C17566   7.125   4.415   4.767 -0.1465  0.2079  0.6810
  134MOL0     C17567   7.041   4.390   4.898  0.3804 -0.7321  0.3182
  134MOL0     C17568   6.898   4.452   4.875 -0.0036  0.3530 -0.7000
  134MOL0     C17569   6.808   4.427   5.001  0.2140  0.1847  0.5505
  134MOL0     C17570   6.661   4.485   4.981 -0.5103  0.0168 -0.1866
  134MOL0     C17571   6.587   4.482   5.118  0.5410 -0.1907  0.0866
  134MOL0     C17572   6.591   4.338   5.174  0.1916 -0.7799 -0.1841
  134MOL0     N17573   6.505   4.347   5.285 -0.3205  0.4895 -0.7592
  134MOL0     C17574   6.373   4.370   5.297  0.2814 -0.1729  0.3587
  134MOL0     C17575   6.349   4.376   5.436  0.3947 -0.3970  0.0405
  134MOL0     C17576   6.219   4.408   5.491  0.6185 -0.2348  0.9513
  134MOL0     C17577   6.186   4.319   5.608  0.3285 -0.1015 -0.2277
  134MOL0     C17578   6.035   4.339   5.662 -0.5398 -0.1243  0.1973
  134MOL0     C17579   6.003   4.252   5.786 -0.8701  0.2792 -0.5853
  134MOL0     O17580   5.893   4.299   5.861  0.0159 -0.1411  0.0828
  134MOL0     C17581   5.760   4.278   5.831  0.8765 -0.2865  0.4101
  134MOL0     C17582   5.702   4.208   5.722 -0.7976  0.1476  0.2561
  134MOL0     C17583   5.567   4.207   5.706  0.4212  0.1578  0.2028
  134MOL0     C17584   5.480   4.286   5.792  1.4874  0.4056  0.4196
  134MOL0     C17585   5.331   4.295   5.768  0.4141 -0.5388 -0.1910
  134MOL0     O17586   5.263   4.369   5.863 -0.2520  0.1025  0.1344
  134MOL0     C17587   5.133   4.336   5.885  0.1531  0.2300 -0.4869
  134MOL0     C17588   5.035   4.357   5.788  0.7621 -0.5162 -0.6243
  134MOL0     C17589   4.898   4.331   5.814 -0.2335  0.9272 -0.4038
  134MOL0     C17590   4.861   4.285   5.940 -0.1694 -0.5486  0.3426
  134MOL0     O17591   4.725   4.270   5.951 -0.0390 -0.2379  0.1208
  134MOL0     C17592   4.668   4.229   6.072  0.1069  0.4019 -0.4117
  134MOL0     C17593   4.521   4.190   6.051  0.3688 -0.0943 -0.6279
  134MOL0     C17594   4.434   4.320   6.036  0.0016  0.3536 -0.3034
  134MOL0     C17595   4.296   4.284   5.989 -0.1137  0.0168 -1.2814
  134MOL0     C17596   4.211   4.412   5.990  0.4953  0.0304  0.0885
  134MOL0     C17597   4.055   4.398   5.977  0.5549 -0.4072  0.2507
  134MOL0     C17598   3.991   4.368   6.117  0.6169  0.3536  0.0204
  134MOL0     C17599   3.864   4.290   6.099  0.8641  0.8582 -0.4195
  134MOL0    Cl17600   3.802   4.286   6.266 -0.1294  0.1657  0.6184
  134MOL0     C17601   4.954   4.279   6.042  0.1831 -1.0798 -0.0044
  134MOL0     C17602   5.093   4.303   6.016 -0.1224  0.4680  0.9309
  134MOL0     O17603   5.280   4.228   5.677  0.6603 -0.2533  0.0522
  134MOL0     C17604   5.535   4.358   5.898 -0.3594 -0.7634 -0.5488
  134MOL0     C17605   5.674   4.351   5.921  0.2195  0.1744  0.1614
  134MOL0     N17606   6.474   4.346   5.498 -1.0927  0.4607  0.5396
  134MOL0     N17607   6.565   4.333   5.406 -0.2599  0.5344 -0.0382
  134MOL0     C17608   7.545   4.271   4.755 -0.2129  0.1483  0.1799
  134MOL0     C17609   7.686   4.246   4.764  0.4226  0.7582  0.4503
  134MOL0     C17610   8.147   4.295   4.657  0.1001 -0.0330  0.2415
  134MOL0     C17611   8.174   4.236   4.777 -0.6225 -0.0889 -0.0266
  134MOL0     C17612   8.300   4.184   4.814  0.0356 -0.0988  0.1026
  134MOL0     C17613   8.403   4.190   4.724  0.4410  0.0375 -0.0568
  134MOL0     O17614   8.526   4.149   4.762  0.2275 -0.5435 -0.1553
  134MOL0     C17615   8.602   4.071   4.660  0.0185  0.4205  0.5883
  134MOL0     C17616   8.717   3.984   4.704  0.2344 -0.2230 -0.2289
  134MOL0     C17617   8.672   3.884   4.821 -0.3498  0.9050 -0.4988
  134MOL0     C17618   8.783   3.783   4.854 -0.9086  0.2712 -0.2635
  134MOL0     C17619   8.898   3.858   4.894 -0.3206 -0.1190  0.0529
  134MOL0     C17620   8.982   3.934   4.942 -0.1318  0.1824  0.8440
  134MOL0     C17621   8.381   4.249   4.597  0.2191 -0.4246 -0.3415
  134MOL0     C17622   8.252   4.302   4.561 -0.2671  0.5796  0.1870
  134MOL0     H17623   7.796   4.496   4.586  1.4045 -2.0496  0.8822
  134MOL0     H17624   7.541   4.542   4.565 -0.3235  0.2112  1.1993
  134MOL0     H17625   7.319   4.432   4.864  0.3331  0.7779 -1.0824
  134MOL0     H17626   7.264   4.268   4.805 -3.2412  0.6438 -0.0621
  134MOL0     H17627   7.080   4.354   4.688 -2.1532 -0.2385  2.0646
  134MOL0     H17628   7.128   4.522   4.744 -0.9896 -0.0916 -1.0162
  134MOL0     H17629   7.093   4.447   4.976  0.1255  2.1457 -1.4636
  134MOL0     H17630   7.048   4.282   4.914  1.0591 -0.5952  0.9897
  134MOL0     H17631   6.912   4.560   4.877 -1.2551  0.5740  2.9307
  134MOL0     H17632   6.849   4.418   4.783  0.2636 -0.3119 -0.6073
  134MOL0     H17633   6.851   4.478   5.088  2.7261 -0.7087 -0.0714
  134MOL0     H17634   6.801   4.321   5.025 -2.3941  0.3160  0.5636
  134MOL0     H17635   6.605   4.414   4.919 -0.6301 -0.9153  0.9475
  134MOL0     H17636   6.651   4.584   4.936 -1.9070  1.1408  2.3450
  134MOL0     H17637   6.643   4.550   5.183 -1.3446  0.8355  0.6986
  134MOL0     H17638   6.483   4.512   5.107  0.0470 -1.0869  1.9253
  134MOL0     H17639   6.693   4.317   5.207  0.4946  1.9129  0.8827
  134MOL0     H17640   6.548   4.267   5.103 -1.2106 -1.2186  1.0430
  134MOL0     H17641   6.300   4.393   5.220 -1.8334  3.3640  3.1087
  134MOL0     H17642   6.139   4.404   5.417  0.7703 -1.3657  0.8413
  134MOL0     H17643   6.220   4.509   5.534 -1.1034 -0.2005  0.9813
  134MOL0     H17644   6.253   4.332   5.694 -0.1199 -0.6576  0.2119
  134MOL0     H17645   6.195   4.214   5.582  0.6297 -0.6103  1.7303
  134MOL0     H17646   6.028   4.445   5.688 -0.9509  0.0034 -0.4253
  134MOL0     H17647   5.965   4.315   5.582 -1.2568  1.1156  0.4319
  134MOL0     H17648   6.085   4.262   5.857 -1.7054  1.8340  0.2194
  134MOL0     H17649   5.994   4.146   5.759  0.6660 -0.0086 -0.0532
  134MOL0     H17650   5.772   4.165   5.651 -1.1322 -3.1187  1.7631
  134MOL0     H17651   5.529   4.146   5.625  2.2752  0.3730 -0.8666
  134MOL0     H17652   5.062   4.393   5.690 -1.6537  0.5083 -0.9826
  134MOL0     H17653   4.828   4.344   5.733  0.5666 -0.7855 -1.4322
  134MOL0     H17654   4.679   4.314   6.140 -0.2598  0.6450 -0.6526
  134MOL0     H17655   4.709   4.132   6.100 -2.3945 -0.2277  1.4979
  134MOL0     H17656   4.489   4.129   6.136 -3.7926 -0.6230 -2.3399
  134MOL0     H17657   4.510   4.135   5.957  1.6880 -1.8761  0.1964
  134MOL0     H17658   4.474   4.391   5.963 -0.0196 -0.5110 -1.1623
  134MOL0     H17659   4.421   4.362   6.136 -0.5488 -2.5080  0.9313
  134MOL0     H17660   4.304   4.246   5.886 -0.2513  2.2986 -2.1980
  134MOL0     H17661   4.253   4.204   6.050  1.3423 -2.8914 -3.7717
  134MOL0     H17662   4.254   4.477   5.914 -1.2194  3.1314  1.5687
  134MOL0     H17663   4.225   4.465   6.085 -0.9070 -1.1724  1.0199
  134MOL0     H17664   4.027   4.328   5.899  0.2249  0.3524 -0.3270
  134MOL0     H17665   4.001   4.490   5.951 -1.3751 -2.2505 -2.8918
  134MOL0     H17666   4.062   4.308   6.175 -0.2279 -1.4516 -0.7654
  134MOL0     H17667   3.980   4.465   6.167  1.4656  0.5303 -0.1089
  134MOL0     H17668   3.879   4.187   6.065  1.8214  0.3786  1.3721
  134MOL0     H17669   3.799   4.349   6.033 -0.2761 -0.6189 -0.6795
  134MOL0     H17670   4.924   4.253   6.143 -3.2177 -0.5162 -0.7495
  134MOL0     H17671   5.167   4.300   6.095  0.7587  2.2960  0.2294
  134MOL0     H17672   5.476   4.426   5.958  0.4058  2.7811 -3.4253
  134MOL0     H17673   5.696   4.404   6.013 -2.0498 -3.8644  3.3265
  134MOL0     H17674   7.477   4.210   4.815  1.8779 -0.0596  2.4975
  134MOL0     H17675   7.739   4.173   4.825 -0.1622 -0.1472 -0.0840
  134MOL0     H17676   8.105   4.226   4.860  2.3462 -1.5406  2.4782
  134MOL0     H17677   8.298   4.154   4.918  0.6310 -0.7959 -0.0850
  134MOL0     H17678   8.638   4.136   4.580 -0.6197 -1.6042 -1.4561
  134MOL0     H17679   8.536   3.998   4.611 -0.5347  0.7590  0.8192
  134MOL0     H17680   8.752   3.926   4.618 -0.8173  0.5036 -1.1687
  134MOL0     H17681   8.799   4.050   4.732  0.5038 -2.3397  5.1538
  134MOL0     H17682   8.581   3.832   4.790  0.8721 -1.4046 -0.4755
  134MOL0     H17683   8.646   3.943   4.909  1.9071  1.7444 -0.3144
  134MOL0     H17684   8.754   3.709   4.930  0.4452 -1.9833 -1.8055
  134MOL0     H17685   8.808   3.729   4.762  1.1289  0.4551  0.1349
  134MOL0     H17686   9.058   4.001   4.978  2.4514 -1.7214 -0.6853
  134MOL0     H17687   8.470   4.270   4.539  0.3849  2.9320  0.8755
  134MOL0     H17688   8.238   4.349   4.464  1.5856 -0.0890 -0.4514
  135MOL0     O17689   8.950   5.549  10.374 -0.7186 -0.2703 -0.0684
  135MOL0     C17690   8.965   5.562  10.493 -0.0598  0.9772 -0.6522
  135MOL0     O17691   8.871   5.524  10.587 -0.3275  0.2715 -0.0540
  135MOL0     C17692   8.777   5.440  10.538 -0.1287 -0.1964 -0.0395
  135MOL0     C17693   8.648   5.495  10.522 -0.3680 -0.1461  0.1841
  135MOL0     C17694   8.534   5.414  10.482 -0.2820 -0.4997  0.7238
  135MOL0     C17695   8.558   5.277  10.452  0.7323 -0.4580  0.4627
  135MOL0     O17696   8.460   5.196  10.401  0.1913  0.4672  0.2674
  135MOL0     C17697   8.404   5.237  10.276  0.9839  0.6356 -0.5359
  135MOL0     C17698   8.368   5.109  10.204  0.1447  0.5905  0.4555
  135MOL0     C17699   8.479   5.004  10.192  0.0464 -0.9903  0.2726
  135MOL0     C17700   8.441   4.894  10.097 -0.9916  0.0559 -0.7921
  135MOL0     C17701   8.561   4.795  10.050 -0.5384 -0.1784 -0.2931
  135MOL0     C17702   8.500   4.660  10.004 -0.5253 -0.0351 -0.3560
  135MOL0     C17703   8.596   4.595   9.911 -0.8040 -0.6280 -1.1095
  135MOL0     C17704   8.606   4.654   9.773 -0.0239  0.2280  0.2917
  135MOL0     N17705   8.707   4.570   9.703  0.1210  0.2810  0.7568
  135MOL0     C17706   8.838   4.600   9.697 -0.0705 -0.8023  0.1750
  135MOL0     C17707   8.894   4.513   9.617  0.4554  0.4419 -0.3144
  135MOL0     C17708   9.037   4.482   9.596  0.5932  0.1565 -0.4498
  135MOL0     C17709   9.060   4.331   9.554 -0.0710  0.3549 -0.1273
  135MOL0     C17710   9.211   4.286   9.543  0.2758 -0.3556 -0.6275
  135MOL0     C17711   9.230   4.137   9.530  0.0514  0.4064 -0.3390
  135MOL0     O17712   9.221   4.108   9.389  0.0006  0.1654  0.4938
  135MOL0     C17713   9.145   4.000   9.348  0.4212 -0.6207 -0.1293
  135MOL0     C17714   9.089   4.018   9.222 -0.2073  0.5276  0.3079
  135MOL0     C17715   8.999   3.925   9.163 -0.2856  0.2269  0.0640
  135MOL0     C17716   8.966   3.808   9.233 -0.1668 -0.4448  0.1390
  135MOL0     C17717   8.869   3.708   9.174  0.2481 -0.5841 -0.2802
  135MOL0     O17718   8.811   3.621   9.257  0.1435  0.7951  0.1428
  135MOL0     C17719   8.728   3.528   9.203  1.0625  0.0012 -0.1411
  135MOL0     C17720   8.764   3.454   9.088  0.0623 -0.0179  1.0222
  135MOL0     C17721   8.698   3.344   9.040  0.7989  0.1684 -0.6545
  135MOL0     C17722   8.582   3.303   9.116 -0.9277 -0.2092 -0.1213
  135MOL0     O17723   8.506   3.192   9.095  0.2723  0.0191 -0.2537
  135MOL0     C17724   8.446   3.183   8.967 -0.6082 -0.5678 -0.0670
  135MOL0     C17725   8.356   3.062   8.965  0.2097 -0.2576  0.5391
  135MOL0     C17726   8.251   3.065   9.084  0.2939 -0.8050 -0.7302
  135MOL0     C17727   8.159   2.953   9.063 -0.1392  0.2672  0.4621
  135MOL0     C17728   8.039   2.956   9.164 -1.1163 -0.2048  0.7623
  135MOL0     C17729   8.069   2.866   9.286 -0.3427  0.2543 -0.6356
  135MOL0     C17730   8.068   2.715   9.262  0.2362  0.0383 -0.0739
  135MOL0     C17731   8.104   2.622   9.375  0.6726 -0.3762 -0.4793
  135MOL0    Cl17732   8.019   2.461   9.377  0.3459  0.4410  0.0458
  135MOL0     C17733   8.548   3.372   9.237 -0.2529  0.6007  0.1541
  135MOL0     C17734   8.617   3.490   9.277 -0.4834  0.2975 -0.4763
  135MOL0     O17735   8.833   3.735   9.059 -0.1033  0.4025 -0.3527
  135MOL0     C17736   9.027   3.790   9.358 -0.1696  0.3201 -0.3311
  135MOL0     C17737   9.111   3.883   9.420  0.2449  0.5020 -0.7693
  135MOL0     N17738   8.800   4.428   9.572 -0.3329  0.0170 -0.3610
  135MOL0     N17739   8.684   4.461   9.624  0.6078  0.5279 -0.4481
  135MOL0     C17740   8.689   5.227  10.462  0.2082  0.5804 -0.1348
  135MOL0     C17741   8.796   5.304  10.510 -0.1024 -0.2647 -0.3694
  135MOL0     C17742   9.085   5.641  10.545 -0.2196 -0.3775 -0.2921
  135MOL0     C17743   9.190   5.685  10.448  0.0736  0.1814 -0.5078
  135MOL0     C17744   9.292   5.757  10.499 -0.2159  0.2242  0.2784
  135MOL0     C17745   9.304   5.797  10.634 -0.0012  1.0728 -0.1671
  135MOL0     O17746   9.405   5.882  10.669  0.5421  0.2897  0.3314
  135MOL0     C17747   9.441   5.882  10.804  0.5742 -0.6339  0.2317
  135MOL0     C17748   9.591   5.904  10.825 -0.0446 -0.1884  0.0703
  135MOL0     C17749   9.638   6.051  10.792  0.7172 -0.9660  0.2899
  135MOL0     C17750   9.773   6.103  10.846 -0.6600 -0.3895 -0.1127
  135MOL0     C17751   9.795   6.083  10.988 -0.0865  0.6278  0.4272
  135MOL0     C17752   9.805   6.072  11.107 -0.6866  0.9350 -0.0214
  135MOL0     C17753   9.200   5.750  10.719 -0.9050 -0.4193 -0.3439
  135MOL0     C17754   9.096   5.673  10.679  0.0672 -0.5006  1.0048
  135MOL0     H17755   8.634   5.601  10.543 -4.1766 -0.4174 -0.2211
  135MOL0     H17756   8.433   5.436  10.449  0.9022  1.0727 -2.2340
  135MOL0     H17757   8.475   5.298  10.219 -0.0782  0.0461 -2.5759
  135MOL0     H17758   8.312   5.295  10.285 -0.8862 -2.1365 -0.7999
  135MOL0     H17759   8.330   5.128  10.102  0.3179  2.4493  0.6903
  135MOL0     H17760   8.281   5.071  10.258 -0.3704  1.7668  0.4926
  135MOL0     H17761   8.494   4.957  10.289 -1.0727 -0.9317  0.4824
  135MOL0     H17762   8.571   5.056  10.161 -0.6080 -0.3010 -0.5699
  135MOL0     H17763   8.367   4.827  10.141 -1.0504  0.3250 -0.4781
  135MOL0     H17764   8.404   4.930  10.000  1.0480  0.8928 -1.3107
  135MOL0     H17765   8.631   4.767  10.129 -0.2005  0.4209 -0.3805
  135MOL0     H17766   8.605   4.844   9.963  0.8526 -4.5936 -2.3761
  135MOL0     H17767   8.400   4.676   9.963 -0.3976 -0.1661 -0.7208
  135MOL0     H17768   8.491   4.591  10.089  0.7777 -0.0833 -0.2316
  135MOL0     H17769   8.690   4.599   9.965 -1.2500 -1.3404 -0.2603
  135MOL0     H17770   8.568   4.490   9.902 -1.1945 -0.6897  0.4950
  135MOL0     H17771   8.635   4.760   9.774  1.7319 -0.2302  0.4508
  135MOL0     H17772   8.506   4.649   9.728  0.4269  1.8554 -1.0036
  135MOL0     H17773   8.882   4.678   9.758  1.5263 -1.4042 -0.1790
  135MOL0     H17774   9.095   4.510   9.685  2.2974 -2.1248 -0.7609
  135MOL0     H17775   9.073   4.546   9.515 -0.9534  3.1643  1.0571
  135MOL0     H17776   9.007   4.322   9.458  1.6322  2.4392 -1.3646
  135MOL0     H17777   9.017   4.265   9.629 -0.7642  0.5920 -0.3074
  135MOL0     H17778   9.264   4.337   9.462  0.0381  1.0227  0.0567
  135MOL0     H17779   9.263   4.308   9.637  1.3165 -0.8091 -1.0810
  135MOL0     H17780   9.151   4.083   9.582  0.4387 -2.0208 -2.0920
  135MOL0     H17781   9.334   4.119   9.559  0.2184 -0.4217 -1.3760
  135MOL0     H17782   9.127   4.100   9.161 -3.0951 -0.0970 -2.5937
  135MOL0     H17783   8.962   3.941   9.063 -1.6849  0.8793  0.6557
  135MOL0     H17784   8.845   3.479   9.020 -0.6196 -0.4828  0.0211
  135MOL0     H17785   8.722   3.286   8.951  1.1047 -0.0541 -0.4287
  135MOL0     H17786   8.520   3.179   8.887 -0.8410  0.5097 -0.3525
  135MOL0     H17787   8.378   3.263   8.939  2.5608  1.7108 -1.7949
  135MOL0     H17788   8.411   2.969   8.984  0.8218  0.0546  0.3541
  135MOL0     H17789   8.306   3.071   8.868 -0.3630  2.4309  1.0200
  135MOL0     H17790   8.198   3.160   9.073  0.3447 -1.0480 -3.8592
  135MOL0     H17791   8.288   3.074   9.187  1.2257  3.4073 -1.2122
  135MOL0     H17792   8.116   2.960   8.963  0.7062  1.1217  0.1483
  135MOL0     H17793   8.204   2.853   9.067 -1.3094 -0.3365 -0.6168
  135MOL0     H17794   7.950   2.913   9.115 -1.5382  2.5689 -1.1174
  135MOL0     H17795   8.025   3.060   9.191 -2.2167 -0.1340  0.0056
  135MOL0     H17796   7.992   2.891   9.359  0.2647 -0.5617  0.3107
  135MOL0     H17797   8.170   2.885   9.324 -0.6803 -1.2286  1.1549
  135MOL0     H17798   7.967   2.683   9.234 -0.3081 -0.3784  2.1837
  135MOL0     H17799   8.135   2.684   9.181 -1.6039 -4.2957 -0.2261
  135MOL0     H17800   8.076   2.679   9.464  0.7296 -0.4607 -0.4061
  135MOL0     H17801   8.212   2.617   9.395  0.3379  0.0086  1.6355
  135MOL0     H17802   8.464   3.336   9.296  1.1963 -0.0783  1.9100
  135MOL0     H17803   8.585   3.552   9.361  0.2763 -1.1866  0.9589
  135MOL0     H17804   9.012   3.705   9.423 -1.0018  0.6809 -0.0421
  135MOL0     H17805   9.151   3.875   9.520 -2.1472 -0.3029  0.1999
  135MOL0     H17806   8.701   5.127  10.424 -2.3726  0.8089 -1.7405
  135MOL0     H17807   8.894   5.263  10.533 -0.0731  0.7589  1.5217
  135MOL0     H17808   9.187   5.655  10.344 -2.6448 -0.5601 -0.2869
  135MOL0     H17809   9.356   5.797  10.422 -0.2100  1.6043  0.9602
  135MOL0     H17810   9.425   5.781  10.844  0.4763 -1.5635 -1.9948
  135MOL0     H17811   9.380   5.955  10.858  1.2338  0.3607 -0.3518
  135MOL0     H17812   9.615   5.874  10.928 -0.7434 -0.2646  0.2135
  135MOL0     H17813   9.644   5.833  10.761  2.0955  0.2090  1.2827
  135MOL0     H17814   9.550   6.112  10.815 -0.6011 -2.7356  0.1397
  135MOL0     H17815   9.638   6.067  10.684 -1.2375 -2.3981  0.0341
  135MOL0     H17816   9.853   6.053  10.790  1.8387  0.8774  2.1132
  135MOL0     H17817   9.789   6.209  10.826  0.3993 -0.9776 -2.8427
  135MOL0     H17818   9.806   6.068  11.214 -0.1863  0.7299 -0.0310
  135MOL0     H17819   9.199   5.778  10.824 -2.0962  0.0135 -0.4516
  135MOL0     H17820   9.014   5.649  10.745 -2.3127  2.4457 -0.6348
  136MOL0     O17821   6.559  10.552   2.733  0.4338  0.4657  0.0188
  136MOL0     C17822   6.548  10.667   2.685 -0.3426 -0.8421  0.3829
  136MOL0     O17823   6.477  10.710   2.579 -0.2055 -0.1172 -0.0165
  136MOL0     C17824   6.407  10.626   2.496 -0.0830  0.4362  0.1031
  136MOL0     C17825   6.420  10.491   2.475  0.0001 -0.4596  0.5593
  136MOL0     C17826   6.333  10.420   2.394  0.5845  0.7746 -0.6678
  136MOL0     C17827   6.210  10.470   2.337 -0.3043  0.2268 -0.0948
  136MOL0     O17828   6.118  10.387   2.261  0.0624  0.2144 -0.3396
  136MOL0     C17829   6.002  10.442   2.191 -0.0179 -0.2259  0.1346
  136MOL0     C17830   5.991  10.387   2.052  0.2233  0.1259 -0.1168
  136MOL0     C17831   5.863  10.440   1.983 -0.9921  0.5244 -0.6505
  136MOL0     C17832   5.866  10.420   1.830 -0.1194  0.0171 -0.7080
  136MOL0     C17833   5.733  10.467   1.768 -0.2972 -0.4136 -0.2591
  136MOL0     C17834   5.725  10.444   1.621 -0.4127 -0.4234  0.2634
  136MOL0     C17835   5.739  10.293   1.578  0.3107 -0.1261  0.1989
  136MOL0     C17836   5.659  10.187   1.672  0.8969 -0.0289 -0.3078
  136MOL0     N17837   5.509  10.214   1.665 -0.3470 -0.2034 -0.2436
  136MOL0     C17838   5.425  10.169   1.556  0.5003 -0.0514  0.0086
  136MOL0     C17839   5.308  10.233   1.578 -0.1766 -0.2374  0.1627
  136MOL0     C17840   5.190  10.243   1.476  0.1662 -0.3644 -0.7374
  136MOL0     C17841   5.227  10.296   1.339  0.3735  0.1755  0.1701
  136MOL0     C17842   5.297  10.430   1.334  0.1996 -0.0417  0.2392
  136MOL0     C17843   5.366  10.452   1.204  0.4567 -0.7491 -0.4737
  136MOL0     O17844   5.439  10.575   1.206 -0.8884 -0.6603  0.6599
  136MOL0     C17845   5.573  10.588   1.253  0.6837  0.8595 -0.1088
  136MOL0     C17846   5.674  10.507   1.208  0.4999  0.2920 -0.5633
  136MOL0     C17847   5.810  10.530   1.245  0.2229 -0.5892  0.1970
  136MOL0     C17848   5.843  10.642   1.324 -0.3296  0.3611 -0.7035
  136MOL0     C17849   5.975  10.668   1.380  0.1822  0.4589 -0.3478
  136MOL0     O17850   5.978  10.750   1.498 -0.3210  0.2628  0.1756
  136MOL0     C17851   6.100  10.758   1.564  0.2419  0.4258  0.8300
  136MOL0     C17852   6.214  10.796   1.502 -0.0209  0.3458 -0.0762
  136MOL0     C17853   6.337  10.813   1.562  0.6640 -0.2560 -0.3145
  136MOL0     C17854   6.338  10.799   1.703  0.3497 -0.4429  0.2976
  136MOL0     O17855   6.455  10.808   1.766  0.5186 -0.3842  0.2535
  136MOL0     C17856   6.495  10.699   1.854  0.6126  0.1882  0.3313
  136MOL0     C17857   6.554  10.764   1.980  0.3326 -1.5055  0.4519
  136MOL0     C17858   6.683  10.692   2.020  0.2007  0.5028  0.4973
  136MOL0     C17859   6.728  10.751   2.149  0.3136 -0.6120 -0.3053
  136MOL0     C17860   6.841  10.660   2.199  0.4133  0.4766 -0.6527
  136MOL0     C17861   6.877  10.688   2.350  0.5684  0.8129  0.2905
  136MOL0     C17862   6.971  10.589   2.400 -0.5496 -0.5976 -0.8578
  136MOL0     C17863   6.985  10.616   2.548 -0.2866  0.5773 -0.0615
  136MOL0    Cl17864   7.038  10.787   2.581 -0.0378  0.5050 -0.0461
  136MOL0     C17865   6.224  10.755   1.774  0.3990 -0.9847 -0.0729
  136MOL0     C17866   6.103  10.744   1.700  0.2727 -0.1292 -0.4511
  136MOL0     O17867   6.077  10.614   1.328  0.1854 -0.0851 -0.0647
  136MOL0     C17868   5.733  10.727   1.353 -0.6368  0.7079  0.5622
  136MOL0     C17869   5.605  10.701   1.328  0.2420 -0.2287 -0.3531
  136MOL0     N17870   5.310  10.287   1.707  0.3008 -0.7284  0.4453
  136MOL0     N17871   5.432  10.276   1.752 -0.0908 -0.5491 -0.8035
  136MOL0     C17872   6.191  10.611   2.357  0.4003  0.1325 -0.7732
  136MOL0     C17873   6.292  10.680   2.434  0.0887  0.1067  0.7620
  136MOL0     C17874   6.607  10.782   2.760  0.7641  0.2434 -0.2421
  136MOL0     C17875   6.682  10.758   2.876 -0.8688 -0.4969 -0.0539
  136MOL0     C17876   6.734  10.868   2.950  0.2146 -0.1054 -0.4164
  136MOL0     C17877   6.700  11.004   2.917  0.1350  1.0416  0.1691
  136MOL0     O17878   6.753  11.109   2.984 -0.1572  0.1489  0.1599
  136MOL0     C17879   6.803  11.089   3.122  0.2777  0.2298  0.2258
  136MOL0     C17880   6.960  11.052   3.119  0.2712  0.0041 -1.0905
  136MOL0     C17881   7.046  11.134   3.030  0.5199 -0.7814  0.2661
  136MOL0     C17882   7.197  11.113   3.039 -0.1162 -0.6281 -0.2598
  136MOL0     C17883   7.239  10.980   3.004 -0.7023  0.5612 -0.0754
  136MOL0     C17884   7.263  10.865   2.990 -0.0777  0.0746 -0.2859
  136MOL0     C17885   6.614  11.028   2.813  0.4372 -0.3765 -0.7905
  136MOL0     C17886   6.568  10.916   2.735  0.2002  0.0929  0.1779
  136MOL0     H17887   6.503  10.439   2.520  0.2265 -0.7101 -0.1274
  136MOL0     H17888   6.356  10.316   2.375 -0.3349  0.5943 -0.8607
  136MOL0     H17889   6.011  10.551   2.189  2.0359 -0.3536  0.1127
  136MOL0     H17890   5.912  10.411   2.244 -0.0197  0.9364  0.8385
  136MOL0     H17891   5.996  10.278   2.064  1.6737  0.1225 -0.5174
  136MOL0     H17892   6.083  10.413   1.999  1.1968  1.2784  1.9898
  136MOL0     H17893   5.849  10.546   2.008  0.4070  0.8487 -1.1385
  136MOL0     H17894   5.777  10.386   2.022  1.6550 -2.6871  1.2686
  136MOL0     H17895   5.947  10.482   1.791  0.6133  1.2167  2.4065
  136MOL0     H17896   5.875  10.314   1.805 -3.2757 -1.0747  2.0109
  136MOL0     H17897   5.726  10.574   1.790  0.7205 -0.5069  0.6174
  136MOL0     H17898   5.648  10.414   1.813 -0.9130 -0.5859 -1.5800
  136MOL0     H17899   5.801  10.501   1.568  0.7694 -0.2345  2.0547
  136MOL0     H17900   5.627  10.484   1.594 -0.3714  0.2205  1.0267
  136MOL0     H17901   5.705  10.288   1.474  1.9271  1.4583 -0.4674
  136MOL0     H17902   5.846  10.270   1.581 -0.1607 -2.5696  2.8454
  136MOL0     H17903   5.698  10.179   1.774  0.9285 -0.5531 -0.3591
  136MOL0     H17904   5.669  10.086   1.633 -3.2586 -0.8376  0.2797
  136MOL0     H17905   5.447  10.105   1.470  3.7022 -0.1832  0.7901
  136MOL0     H17906   5.106  10.298   1.520  0.5170 -0.3836 -0.0285
  136MOL0     H17907   5.157  10.141   1.456 -1.2042  0.2808 -2.0123
  136MOL0     H17908   5.132  10.299   1.285 -1.2639  0.8296  2.8668
  136MOL0     H17909   5.277  10.211   1.292  1.3878 -0.4991  2.3137
  136MOL0     H17910   5.228  10.515   1.345 -0.0788  0.0370 -1.7615
  136MOL0     H17911   5.372  10.440   1.413  0.0277  0.2509  0.3676
  136MOL0     H17912   5.287  10.457   1.129 -0.5822 -2.6742  0.4208
  136MOL0     H17913   5.424  10.362   1.185  0.0121 -1.4289  1.2379
  136MOL0     H17914   5.657  10.414   1.153 -1.7143 -1.2396  2.4190
  136MOL0     H17915   5.889  10.457   1.225  0.3327 -0.1632 -0.9774
  136MOL0     H17916   6.205  10.818   1.396 -0.6075  1.6501  0.2254
  136MOL0     H17917   6.429  10.848   1.515  2.8116 -1.1454  2.8845
  136MOL0     H17918   6.578  10.650   1.803  0.8441 -0.0615  0.9342
  136MOL0     H17919   6.432  10.612   1.871 -0.7435  0.3275 -3.1507
  136MOL0     H17920   6.484  10.760   2.064  2.8562  0.8635  2.8736
  136MOL0     H17921   6.580  10.868   1.961  0.6143 -1.5939  0.3452
  136MOL0     H17922   6.756  10.711   1.941 -0.0906  0.9198  0.3236
  136MOL0     H17923   6.665  10.584   2.026 -1.0975  0.4930 -2.2183
  136MOL0     H17924   6.765  10.851   2.127 -0.8496  0.4108  2.0564
  136MOL0     H17925   6.650  10.761   2.224  0.4680 -0.8363 -0.1116
  136MOL0     H17926   6.929  10.683   2.139  1.3535  1.1072  0.9095
  136MOL0     H17927   6.818  10.555   2.180  0.5057  0.6180 -1.5607
  136MOL0     H17928   6.783  10.683   2.405  0.2057  3.8488  0.1538
  136MOL0     H17929   6.913  10.791   2.354  3.0929 -0.0263  0.8732
  136MOL0     H17930   6.921  10.495   2.372 -1.3889  0.1486 -1.9530
  136MOL0     H17931   7.071  10.603   2.358  1.0097 -0.2117  2.6533
  136MOL0     H17932   7.058  10.546   2.589 -0.0386 -0.3994 -2.0552
  136MOL0     H17933   6.893  10.609   2.608  1.8291 -0.7790  3.3293
  136MOL0     H17934   6.227  10.724   1.878  1.7059  4.6641  1.9927
  136MOL0     H17935   6.017  10.706   1.755  1.7640 -1.2804  1.1975
  136MOL0     H17936   5.753  10.816   1.412  2.5886 -0.1556  0.9301
  136MOL0     H17937   5.527  10.764   1.367  0.9731  0.0830  0.6581
  136MOL0     H17938   6.099  10.664   2.337 -1.5249 -1.6542  2.4476
  136MOL0     H17939   6.291  10.787   2.453  0.9682 -0.0364  1.7027
  136MOL0     H17940   6.697  10.656   2.907  0.9119 -0.4451 -0.6813
  136MOL0     H17941   6.788  10.845   3.041 -2.2929 -1.2485  0.8679
  136MOL0     H17942   6.751  11.011   3.178  3.1900 -0.2200  2.5375
  136MOL0     H17943   6.781  11.183   3.175 -1.4341  1.4921 -2.4766
  136MOL0     H17944   6.991  11.075   3.222  2.5079 -1.7408 -1.2923
  136MOL0     H17945   6.969  10.945   3.099 -1.1116 -0.4587  0.4388
  136MOL0     H17946   7.017  11.237   3.054 -2.1679 -0.6788 -2.6509
  136MOL0     H17947   7.025  11.122   2.923  1.8099  2.7004 -0.5290
  136MOL0     H17948   7.257  11.174   2.971  0.8205 -1.0302  0.1968
  136MOL0     H17949   7.219  11.150   3.139  0.5778 -0.8160 -0.3390
  136MOL0     H17950   7.276  10.759   2.997  0.4345  0.2335  1.5299
  136MOL0     H17951   6.600  11.135   2.804  0.8231  0.1266  2.8959
  136MOL0     H17952   6.504  10.937   2.650 -0.0860 -1.4143 -0.0059
  137MOL0     O17953   0.889   6.586   4.829 -0.8515 -0.3395  0.2251
  137MOL0     C17954   0.917   6.495   4.902  0.5988  0.3362 -0.3554
  137MOL0     O17955   0.833   6.388   4.923  0.2710 -0.2325 -0.2048
  137MOL0     C17956   0.704   6.385   4.864 -0.2787  1.0470 -0.7010
  137MOL0     C17957   0.667   6.399   4.733 -0.6898  0.3835  0.4321
  137MOL0     C17958   0.535   6.379   4.694  0.0509  0.9398 -0.0717
  137MOL0     C17959   0.439   6.323   4.775  0.1053 -0.3021 -0.4654
  137MOL0     O17960   0.321   6.297   4.721 -0.2693 -0.8059  0.2099
  137MOL0     C17961   0.226   6.232   4.800  0.5654 -0.6885  0.6323
  137MOL0     C17962   0.122   6.209   4.704  0.3316  0.5483 -0.4838
  137MOL0     C17963  -0.001   6.170   4.774 -0.3863 -0.9454  0.4362
  137MOL0     C17964  -0.123   6.190   4.674  0.3541  0.2774  0.0206
  137MOL0     C17965  -0.255   6.131   4.736 -0.5892  1.0556 -0.0368
  137MOL0     C17966  -0.334   6.248   4.801  0.2072  0.3584  0.4015
  137MOL0     C17967  -0.472   6.207   4.853 -0.3830 -0.3990  0.4346
  137MOL0     C17968  -0.513   6.309   4.960 -0.4019 -0.0252  0.2514
  137MOL0     N17969  -0.654   6.307   5.007 -0.0285  0.3452  0.1944
  137MOL0     C17970  -0.688   6.235   5.121 -0.5563  0.7109  0.0086
  137MOL0     C17971  -0.825   6.255   5.130 -0.7779 -0.2567 -0.0851
  137MOL0     C17972  -0.911   6.211   5.240 -0.4870  0.8086 -0.5310
  137MOL0     C17973  -0.855   6.253   5.377  0.1903 -0.5488  0.7367
  137MOL0     C17974  -0.850   6.411   5.386 -0.2508  0.0186  0.1054
  137MOL0     C17975  -0.728   6.450   5.474 -0.1433 -0.7462 -0.4771
  137MOL0     O17976  -0.712   6.596   5.467  0.8301  0.1577  0.1131
  137MOL0     C17977  -0.615   6.647   5.544 -0.2986 -0.4918  0.3471
  137MOL0     C17978  -0.611   6.785   5.556 -0.5175 -0.0079 -0.5302
  137MOL0     C17979  -0.528   6.840   5.641 -0.3423 -0.0020 -0.0359
  137MOL0     C17980  -0.440   6.774   5.728 -0.8215 -0.4146 -0.3706
  137MOL0     C17981  -0.353   6.846   5.826  0.3839  0.0831 -0.1084
  137MOL0     O17982  -0.249   6.774   5.887 -0.0547 -0.0884 -0.1858
  137MOL0     C17983  -0.173   6.820   6.000  0.0369 -0.5389 -0.1780
  137MOL0     C17984  -0.171   6.949   6.054  0.5073 -0.2958 -0.2859
  137MOL0     C17985  -0.096   6.985   6.169  0.0511  0.3852 -0.0612
  137MOL0     C17986  -0.015   6.895   6.233  0.6924 -0.3777 -0.6338
  137MOL0     O17987   0.025   6.933   6.365  0.9578  0.0186 -0.0010
  137MOL0     C17988   0.075   6.833   6.446 -0.1461 -0.6424 -0.5309
  137MOL0     C17989   0.120   6.909   6.572 -0.1697  0.7656  0.0315
  137MOL0     C17990  -0.010   6.960   6.645 -0.3881 -0.0053  0.5855
  137MOL0     C17991   0.015   7.051   6.767 -0.0850 -0.7433  0.0168
  137MOL0     C17992  -0.125   7.116   6.813 -0.0742 -0.9000 -1.0192
  137MOL0     C17993  -0.093   7.205   6.931  0.4105  0.3259  0.3514
  137MOL0     C17994  -0.211   7.292   6.968  0.3967  0.3453 -0.0537
  137MOL0     C17995  -0.320   7.213   7.040  0.5533 -0.0279 -0.5024
  137MOL0    Cl17996  -0.258   7.126   7.193  0.2898  0.1415 -0.4882
  137MOL0     C17997  -0.004   6.770   6.183 -0.3095  1.1070  0.2750
  137MOL0     C17998  -0.087   6.733   6.064 -0.3209  0.2014 -0.4719
  137MOL0     O17999  -0.406   6.947   5.873  0.3584 -0.0087 -0.3627
  137MOL0     C18000  -0.444   6.635   5.720 -0.1580 -0.2686  0.3174
  137MOL0     C18001  -0.524   6.576   5.623 -0.0836  0.0556 -0.7161
  137MOL0     N18002  -0.859   6.320   5.014 -0.1754  0.2404  0.0992
  137MOL0     N18003  -0.757   6.358   4.948  0.0962 -0.1989 -0.3912
  137MOL0     C18004   0.479   6.302   4.911  1.0957  1.2977 -0.4874
  137MOL0     C18005   0.605   6.342   4.954  0.1110  0.0756 -0.8468
  137MOL0     C18006   1.049   6.494   4.968  1.1343 -0.7390 -0.4091
  137MOL0     C18007   1.075   6.418   5.081 -0.2425 -0.0313 -0.8608
  137MOL0     C18008   1.197   6.422   5.139  0.2104  0.0496 -0.7059
  137MOL0     C18009   1.308   6.493   5.091 -0.2388 -1.6463  0.4032
  137MOL0     O18010   1.429   6.505   5.146 -0.5957 -0.0129 -0.0245
  137MOL0     C18011   1.469   6.411   5.243 -1.0634  0.3552 -0.0351
  137MOL0     C18012   1.615   6.405   5.259  0.4226  0.6238 -1.2850
  137MOL0     C18013   1.682   6.530   5.310 -0.0086  0.0285 -0.2853
  137MOL0     C18014   1.838   6.504   5.325  0.6585  1.5507 -1.1128
  137MOL0     C18015   1.897   6.627   5.368  0.6599  0.2743  0.1028
  137MOL0     C18016   1.942   6.733   5.421 -0.8954  0.3603  1.0159
  137MOL0     C18017   1.277   6.570   4.980 -0.7202 -0.3432  0.5549
  137MOL0     C18018   1.152   6.565   4.913  0.4064  0.1813  0.3744
  137MOL0     H18019   0.740   6.425   4.658 -0.1122 -2.8851 -0.2719
  137MOL0     H18020   0.509   6.403   4.591 -1.2635 -0.6616 -0.1411
  137MOL0     H18021   0.189   6.299   4.878 -1.6717 -2.1809  0.9659
  137MOL0     H18022   0.268   6.141   4.844  0.5049 -0.2448  1.6275
  137MOL0     H18023   0.148   6.133   4.630  1.1767 -0.4057  0.7550
  137MOL0     H18024   0.099   6.295   4.639 -0.4658 -1.0014 -2.3539
  137MOL0     H18025  -0.024   6.224   4.867 -0.5071 -3.2735  1.8347
  137MOL0     H18026   0.015   6.066   4.802  0.7316 -1.0845 -0.6542
  137MOL0     H18027  -0.139   6.296   4.653 -1.0604  0.3037  1.0873
  137MOL0     H18028  -0.105   6.134   4.581 -1.1147 -0.1998  0.0026
  137MOL0     H18029  -0.236   6.046   4.803  1.5063  0.1285 -1.7039
  137MOL0     H18030  -0.310   6.085   4.654  1.0344 -2.5659  0.6822
  137MOL0     H18031  -0.352   6.318   4.720 -1.2707 -0.4457 -0.0129
  137MOL0     H18032  -0.270   6.283   4.883  2.8566 -0.5336 -1.1648
  137MOL0     H18033  -0.556   6.213   4.783  0.0107  2.3637  0.0873
  137MOL0     H18034  -0.474   6.109   4.901 -1.3507  0.8040  3.0470
  137MOL0     H18035  -0.494   6.411   4.923  2.2867 -0.1076  1.1746
  137MOL0     H18036  -0.441   6.289   5.041  2.5116 -1.8137 -2.5443
  137MOL0     H18037  -0.620   6.184   5.188 -1.6029 -1.3117 -0.3765
  137MOL0     H18038  -0.927   6.103   5.239  1.2468  0.5169 -1.6816
  137MOL0     H18039  -0.994   6.279   5.221  0.7389  2.9380  1.2657
  137MOL0     H18040  -0.756   6.209   5.393  0.3225 -0.3142  0.5810
  137MOL0     H18041  -0.928   6.221   5.451 -1.4019  0.8189 -0.1766
  137MOL0     H18042  -0.835   6.444   5.283 -1.9405  1.2513  0.2160
  137MOL0     H18043  -0.943   6.450   5.429 -0.5626  0.6451 -1.1003
  137MOL0     H18044  -0.637   6.401   5.437 -1.0298 -1.6772 -1.4718
  137MOL0     H18045  -0.743   6.422   5.579 -1.6375  1.9438  0.1006
  137MOL0     H18046  -0.668   6.853   5.494  0.2898  1.7769  0.6119
  137MOL0     H18047  -0.535   6.948   5.640  1.0690  0.1539  1.4481
  137MOL0     H18048  -0.225   7.032   6.010 -1.6546 -0.0902  2.4688
  137MOL0     H18049  -0.102   7.089   6.201  1.2177 -0.0188  1.5906
  137MOL0     H18050   0.164   6.792   6.396  1.0515 -1.5181  2.1376
  137MOL0     H18051   0.001   6.756   6.467  0.1397 -1.7421 -3.1274
  137MOL0     H18052   0.186   6.989   6.541  0.1259  0.9057  0.9755
  137MOL0     H18053   0.178   6.840   6.635 -2.6012  0.1374  1.7490
  137MOL0     H18054  -0.068   6.873   6.679 -1.2229  0.6962  0.9812
  137MOL0     H18055  -0.079   7.019   6.584 -1.6680  0.1499  2.1238
  137MOL0     H18056   0.062   6.993   6.847  0.3822  0.3122  0.5360
  137MOL0     H18057   0.086   7.130   6.741 -0.1390 -0.4525  0.7078
  137MOL0     H18058  -0.200   7.041   6.839  0.8019 -0.8997  1.9347
  137MOL0     H18059  -0.167   7.181   6.736  1.0080  1.4057  0.2141
  137MOL0     H18060  -0.014   7.275   6.900  0.0849  0.4718 -0.1737
  137MOL0     H18061  -0.055   7.146   7.015 -1.6992 -0.8820  0.5168
  137MOL0     H18062  -0.172   7.368   7.037 -0.0897  0.8652 -0.3449
  137MOL0     H18063  -0.246   7.344   6.878 -3.3857 -2.8754 -0.6905
  137MOL0     H18064  -0.370   7.144   6.973 -2.2946 -0.7996  2.1755
  137MOL0     H18065  -0.402   7.278   7.073 -0.7293 -1.3687 -0.9163
  137MOL0     H18066   0.061   6.694   6.226 -0.0273 -0.0167 -1.9744
  137MOL0     H18067  -0.073   6.633   6.026 -0.2234 -0.7828  1.9542
  137MOL0     H18068  -0.379   6.571   5.779 -0.0217 -0.1022  0.3492
  137MOL0     H18069  -0.515   6.470   5.604  1.3049  0.3199 -1.6668
  137MOL0     H18070   0.418   6.248   4.983  0.8252  3.9309  1.4106
  137MOL0     H18071   0.645   6.314   5.051 -0.8508  2.8101  0.4244
  137MOL0     H18072   1.003   6.351   5.126 -1.4391  2.9306  2.0637
  137MOL0     H18073   1.212   6.365   5.230 -0.3030  0.3106 -0.4558
  137MOL0     H18074   1.425   6.312   5.228  1.1873 -0.5920 -0.8191
  137MOL0     H18075   1.433   6.454   5.337 -1.1774 -0.6652  0.3974
  137MOL0     H18076   1.642   6.337   5.341 -0.4148  1.8105  0.0137
  137MOL0     H18077   1.662   6.357   5.173  0.5159  1.2228 -1.5750
  137MOL0     H18078   1.636   6.547   5.408 -0.4860 -2.5454 -0.0030
  137MOL0     H18079   1.666   6.621   5.251  3.3385  1.2987  0.5144
  137MOL0     H18080   1.848   6.439   5.413  2.3065  0.9543 -1.6998
  137MOL0     H18081   1.880   6.451   5.239 -0.7276 -0.7739 -0.4703
  137MOL0     H18082   1.966   6.824   5.474  2.2738  0.3287 -0.1078
  137MOL0     H18083   1.348   6.636   4.932  0.5212 -2.5103 -0.7643
  137MOL0     H18084   1.145   6.600   4.810  2.0391  0.7390  0.4151
  138MOL0     O18085   3.988   6.677   0.403 -0.0107 -0.1796 -0.3606
  138MOL0     C18086   4.027   6.785   0.441  0.9359 -0.1003 -0.7334
  138MOL0     O18087   3.944   6.885   0.488 -0.6353  0.6853 -0.6230
  138MOL0     C18088   3.806   6.862   0.482 -0.6672  0.8587 -0.5901
  138MOL0     C18089   3.743   6.821   0.598  0.4240  0.5686  0.0206
  138MOL0     C18090   3.605   6.802   0.606  0.4697 -0.1133  0.4084
  138MOL0     C18091   3.530   6.822   0.490  0.2410 -0.0303  0.3006
  138MOL0     O18092   3.399   6.793   0.508 -0.0029 -0.5592  0.0579
  138MOL0     C18093   3.377   6.655   0.523  0.1419  0.1190 -0.0358
  138MOL0     C18094   3.223   6.637   0.529  0.3568  0.5669  0.3089
  138MOL0     C18095   3.164   6.492   0.519  0.9081 -0.1655 -0.5719
  138MOL0     C18096   3.205   6.396   0.635 -0.4229 -0.4288  0.5382
  138MOL0     C18097   3.188   6.247   0.605  0.0595 -0.1664 -0.4432
  138MOL0     C18098   3.043   6.203   0.578  0.6977  0.9248 -0.3387
  138MOL0     C18099   3.004   6.055   0.613 -0.4404 -0.7333  0.0446
  138MOL0     C18100   2.856   6.035   0.615 -0.2647  0.3434  0.3257
  138MOL0     N18101   2.817   5.895   0.643  0.6442  0.3012  0.2786
  138MOL0     C18102   2.751   5.814   0.563  0.9698  0.1666 -0.6189
  138MOL0     C18103   2.744   5.699   0.640 -0.0161  0.0186  0.4712
  138MOL0     C18104   2.663   5.585   0.585  0.1417  0.2596  0.3387
  138MOL0     C18105   2.520   5.594   0.619  0.2167  0.2177 -0.6485
  138MOL0     C18106   2.454   5.460   0.589  0.2776 -0.5449 -0.8025
  138MOL0     C18107   2.301   5.452   0.587  0.0017  0.4223  0.0297
  138MOL0     O18108   2.251   5.448   0.724  0.7340 -0.2444  0.3451
  138MOL0     C18109   2.116   5.445   0.717  1.2712 -0.1946  0.3701
  138MOL0     C18110   2.056   5.320   0.706 -0.1024  0.2368  0.2919
  138MOL0     C18111   1.915   5.308   0.717  0.5576 -0.3676 -0.6299
  138MOL0     C18112   1.833   5.428   0.726  0.2831  0.9649  0.4115
  138MOL0     C18113   1.682   5.434   0.736 -0.2370 -0.1426  0.1765
  138MOL0     O18114   1.613   5.324   0.704 -0.3713  0.1011 -0.3264
  138MOL0     C18115   1.479   5.329   0.682  0.6219 -0.0229 -0.0490
  138MOL0     C18116   1.420   5.205   0.703 -0.9605  0.1592  0.2782
  138MOL0     C18117   1.287   5.181   0.661 -0.5400  0.0628  0.1052
  138MOL0     C18118   1.199   5.284   0.621 -0.9031  0.2136 -1.0580
  138MOL0     O18119   1.065   5.266   0.625  0.3145 -0.1616 -0.4161
  138MOL0     C18120   1.017   5.145   0.561 -0.4118 -0.2910 -0.0455
  138MOL0     C18121   0.873   5.174   0.505 -0.7180 -0.1660  0.1943
  138MOL0     C18122   0.873   5.288   0.406  1.2931 -0.0858 -0.2334
  138MOL0     C18123   0.735   5.312   0.349  0.4939  0.3064  0.4808
  138MOL0     C18124   0.713   5.432   0.251  0.1647 -0.2351 -0.7732
  138MOL0     C18125   0.591   5.394   0.168  0.1139 -0.2528  0.5792
  138MOL0     C18126   0.539   5.493   0.064  0.1768 -0.6050 -0.2491
  138MOL0     C18127   0.446   5.409  -0.038 -0.6789 -0.7657  0.0376
  138MOL0    Cl18128   0.540   5.280  -0.125  0.1606 -0.0769  0.4820
  138MOL0     C18129   1.257   5.409   0.605 -0.0727 -0.3243 -0.1745
  138MOL0     C18130   1.399   5.434   0.627 -0.2937  0.2041 -0.0813
  138MOL0     O18131   1.630   5.547   0.764  0.0744  0.3357 -0.4794
  138MOL0     C18132   1.900   5.553   0.721  0.4013 -0.2670  0.2996
  138MOL0     C18133   2.040   5.553   0.732  0.5112  0.3373 -0.0657
  138MOL0     N18134   2.817   5.701   0.752 -0.5394 -0.2590  0.5808
  138MOL0     N18135   2.870   5.823   0.749 -0.1113  0.3385 -0.5425
  138MOL0     C18136   3.593   6.853   0.367  0.1046  0.9483  0.4541
  138MOL0     C18137   3.732   6.872   0.366  0.0449  0.4303 -0.1025
  138MOL0     C18138   4.172   6.813   0.449 -0.3295  0.1122  0.2292
  138MOL0     C18139   4.272   6.714   0.453  0.3951  0.2247 -0.3543
  138MOL0     C18140   4.407   6.758   0.461 -0.1238  0.5365  0.0434
  138MOL0     C18141   4.444   6.894   0.456  0.3489 -0.8552  0.0598
  138MOL0     O18142   4.571   6.947   0.436 -0.9964 -0.6559 -0.3582
  138MOL0     C18143   4.670   6.875   0.359  0.4769 -0.1342  0.3534
  138MOL0     C18144   4.673   6.922   0.216  0.9184 -0.5334 -0.8662
  138MOL0     C18145   4.539   6.919   0.153  0.1505 -0.1200 -0.1835
  138MOL0     C18146   4.551   6.986   0.004 -0.3305 -0.5078 -0.1456
  138MOL0     C18147   4.427   6.990  -0.077 -0.2607  0.1287 -0.4555
  138MOL0     C18148   4.321   7.004  -0.133  0.8531 -0.6121  0.4196
  138MOL0     C18149   4.338   6.989   0.451 -0.3330 -0.1559 -0.8280
  138MOL0     C18150   4.206   6.945   0.460 -0.5882  0.3598  0.4618
  138MOL0     H18151   3.793   6.811   0.693 -1.4059 -1.8879  0.8276
  138MOL0     H18152   3.559   6.780   0.702  2.0580  1.0463  1.4831
  138MOL0     H18153   3.425   6.603   0.607  0.8857  0.5042 -0.2088
  138MOL0     H18154   3.409   6.603   0.432  0.9929  1.4955 -0.5501
  138MOL0     H18155   3.180   6.696   0.447 -0.1559  2.5363  1.9001
  138MOL0     H18156   3.197   6.683   0.625  0.9059 -1.8337  1.6879
  138MOL0     H18157   3.193   6.454   0.420  0.2398 -0.3649 -0.7004
  138MOL0     H18158   3.054   6.497   0.519  0.8675 -0.9396 -0.5936
  138MOL0     H18159   3.305   6.420   0.671 -1.9636  5.7948  2.0017
  138MOL0     H18160   3.139   6.426   0.718 -0.8514 -1.5947  0.6310
  138MOL0     H18161   3.226   6.204   0.699 -0.4111  3.5585  1.6633
  138MOL0     H18162   3.258   6.222   0.525  1.0852 -1.8495  0.8894
  138MOL0     H18163   3.012   6.238   0.479  1.7676  6.3385  0.8964
  138MOL0     H18164   2.984   6.257   0.653 -0.5039  0.1702 -0.7154
  138MOL0     H18165   3.045   5.995   0.531  1.9246 -1.1456  1.4414
  138MOL0     H18166   3.051   6.025   0.707 -0.6052  0.8358  0.6683
  138MOL0     H18167   2.816   6.065   0.517 -1.3005  2.5151  1.3365
  138MOL0     H18168   2.812   6.099   0.692  1.6671 -1.1711  2.8443
  138MOL0     H18169   2.696   5.840   0.473  0.6559  1.7743 -0.0010
  138MOL0     H18170   2.713   5.498   0.628 -1.5478 -0.6807  0.4864
  138MOL0     H18171   2.679   5.580   0.476 -1.6988  0.8782  0.0068
  138MOL0     H18172   2.473   5.678   0.568  0.0018  0.0864 -0.6676
  138MOL0     H18173   2.518   5.616   0.726  1.1432  1.6533 -0.8995
  138MOL0     H18174   2.489   5.436   0.488  1.0243  2.5131 -1.3720
  138MOL0     H18175   2.493   5.398   0.670  1.7926  0.7724 -0.4689
  138MOL0     H18176   2.275   5.359   0.535 -0.8448  0.3401  0.5822
  138MOL0     H18177   2.271   5.542   0.533 -1.8044 -0.3594 -0.3640
  138MOL0     H18178   2.114   5.234   0.677 -0.0031  0.2745  0.3793
  138MOL0     H18179   1.867   5.212   0.703  1.4934 -1.3464  2.2650
  138MOL0     H18180   1.479   5.124   0.744 -1.6181 -0.5881 -0.2115
  138MOL0     H18181   1.265   5.076   0.676  2.2976 -0.6829 -0.2916
  138MOL0     H18182   1.024   5.069   0.640 -0.4052 -0.2550 -0.0113
  138MOL0     H18183   1.082   5.124   0.476  0.5020 -1.5217  0.9210
  138MOL0     H18184   0.803   5.202   0.584 -2.6451 -1.8129 -0.8465
  138MOL0     H18185   0.836   5.083   0.457  0.6384 -0.0095 -1.2210
  138MOL0     H18186   0.948   5.278   0.328  1.5894  1.9013 -0.2504
  138MOL0     H18187   0.900   5.375   0.467 -2.3265  0.5266  0.7762
  138MOL0     H18188   0.703   5.221   0.298 -1.0302 -0.1077  2.0874
  138MOL0     H18189   0.664   5.325   0.431  0.4256 -0.3668  0.5288
  138MOL0     H18190   0.804   5.438   0.191  0.5342 -0.8469 -0.2851
  138MOL0     H18191   0.694   5.525   0.305  1.7905 -0.2865 -0.0576
  138MOL0     H18192   0.509   5.383   0.240 -0.5679  0.2677 -0.0911
  138MOL0     H18193   0.617   5.300   0.119  2.7791  1.4301 -1.4839
  138MOL0     H18194   0.487   5.577   0.111  1.0107 -0.1724 -0.0905
  138MOL0     H18195   0.624   5.537   0.012 -0.4417  0.8160 -0.1016
  138MOL0     H18196   0.404   5.476  -0.114  3.2265 -0.9479 -2.5464
  138MOL0     H18197   0.373   5.364   0.030  2.4255 -2.2913  2.6269
  138MOL0     H18198   1.194   5.495   0.587 -0.5271 -0.9353 -1.6200
  138MOL0     H18199   1.442   5.532   0.611  0.1198 -0.1358 -1.0939
  138MOL0     H18200   1.851   5.648   0.742  0.2962 -0.8251  2.9702
  138MOL0     H18201   2.084   5.650   0.748 -0.5663  0.4746  2.6010
  138MOL0     H18202   3.530   6.859   0.279  0.0398 -0.9737  0.3199
  138MOL0     H18203   3.779   6.894   0.271  0.5875  2.1589  0.5220
  138MOL0     H18204   4.254   6.608   0.465  0.3704  0.2024 -0.5860
  138MOL0     H18205   4.479   6.677   0.469 -0.8611 -0.1079  0.2370
  138MOL0     H18206   4.646   6.769   0.348 -1.2021  0.4325 -2.2418
  138MOL0     H18207   4.768   6.877   0.407  0.7684  0.7922 -0.2535
  138MOL0     H18208   4.707   7.026   0.211  1.9125 -0.7000  1.2797
  138MOL0     H18209   4.746   6.864   0.159 -0.6700 -1.1787 -2.3320
  138MOL0     H18210   4.467   6.973   0.214 -2.2247 -0.8480 -2.1505
  138MOL0     H18211   4.500   6.817   0.151 -2.5851  0.8553  0.0251
  138MOL0     H18212   4.582   7.091   0.016  1.9304 -1.4566  4.4204
  138MOL0     H18213   4.634   6.940  -0.050 -0.0156  2.8694 -2.8716
  138MOL0     H18214   4.217   7.005  -0.159  1.3240 -3.1170 -2.0189
  138MOL0     H18215   4.359   7.096   0.457 -0.2620 -0.0507 -2.4482
  138MOL0     H18216   4.133   7.023   0.478 -0.9264  0.3381 -0.7488
  139MOL0     O18217   6.309   9.351   8.421 -0.2764  0.0319 -0.0037
  139MOL0     C18218   6.380   9.305   8.330  0.4846  0.4327 -0.0436
  139MOL0     O18219   6.333   9.240   8.226  0.0456 -0.1568 -0.2267
  139MOL0     C18220   6.200   9.250   8.199 -0.0392  0.3699 -0.6695
  139MOL0     C18221   6.117   9.359   8.217 -0.4198 -0.1971 -0.3942
  139MOL0     C18222   5.987   9.356   8.172  0.1077 -0.1830  0.6125
  139MOL0     C18223   5.924   9.244   8.112 -0.0711 -0.4710  1.3510
  139MOL0     O18224   5.794   9.255   8.081  0.1460 -0.5188 -0.3771
  139MOL0     C18225   5.713   9.143   8.051 -0.4025  0.8619 -0.8204
  139MOL0     C18226   5.567   9.190   8.066 -0.1707  0.6104 -0.0474
  139MOL0     C18227   5.470   9.079   8.013 -0.1030 -0.5806  0.4798
  139MOL0     C18228   5.329   9.110   8.034 -0.4140  0.5232  0.3777
  139MOL0     C18229   5.245   9.019   7.952 -1.1460  0.0863  0.3097
  139MOL0     C18230   5.093   9.011   7.987  0.0728 -0.7705 -0.7253
  139MOL0     C18231   5.020   9.143   7.942  0.2249  0.7314 -0.2141
  139MOL0     C18232   4.860   9.127   7.972 -1.2526  0.6724  0.2653
  139MOL0     N18233   4.790   9.047   7.872 -1.0516 -0.1353 -0.2271
  139MOL0     C18234   4.793   9.075   7.736 -0.2297  0.0199 -0.2186
  139MOL0     C18235   4.735   8.972   7.667 -0.5258  0.1595  0.1196
  139MOL0     C18236   4.737   8.942   7.525 -0.6268  0.0920 -0.1168
  139MOL0     C18237   4.595   8.908   7.480 -0.1680  0.6984  0.7825
  139MOL0     C18238   4.585   8.802   7.371 -0.0198  0.7712 -0.0285
  139MOL0     C18239   4.463   8.821   7.284 -0.3764  0.1473 -0.3821
  139MOL0     O18240   4.346   8.793   7.364  0.2541  0.3268 -0.3086
  139MOL0     C18241   4.221   8.803   7.304 -0.3434 -0.2780 -0.3112
  139MOL0     C18242   4.191   8.830   7.171  0.2082 -0.1729  0.5622
  139MOL0     C18243   4.060   8.836   7.129 -0.2121  0.7605 -0.3850
  139MOL0     C18244   3.964   8.812   7.224  0.7809  0.1619  0.9214
  139MOL0     C18245   3.809   8.821   7.193  0.1334 -0.0172 -0.2830
  139MOL0     O18246   3.726   8.756   7.277  0.0402  0.1737  0.5670
  139MOL0     C18247   3.592   8.764   7.248 -0.1340  0.7883 -0.6501
  139MOL0     C18248   3.504   8.824   7.339 -0.1964 -0.4396  0.4199
  139MOL0     C18249   3.370   8.838   7.301 -0.1989  0.4100  0.1559
  139MOL0     C18250   3.323   8.789   7.175 -0.3318 -0.2406  0.2201
  139MOL0     O18251   3.193   8.812   7.144  0.1120 -0.2567 -0.2951
  139MOL0     C18252   3.106   8.699   7.119  0.3288 -0.0974 -0.2062
  139MOL0     C18253   2.965   8.759   7.119  0.0917  0.2214 -0.6254
  139MOL0     C18254   2.933   8.828   7.253 -0.2162 -0.1253 -1.2415
  139MOL0     C18255   2.785   8.835   7.260 -0.2646  0.6637 -0.0024
  139MOL0     C18256   2.738   8.907   7.389 -0.5644  0.0863 -0.2217
  139MOL0     C18257   2.587   8.938   7.381 -1.1153 -0.5036  0.0344
  139MOL0     C18258   2.487   8.818   7.379  0.8930  0.0565  0.1458
  139MOL0     C18259   2.345   8.845   7.438  0.0058 -0.1258 -0.7104
  139MOL0    Cl18260   2.247   8.895   7.300 -0.0887  0.2941 -0.0252
  139MOL0     C18261   3.408   8.712   7.091  0.6721  0.0600  0.4091
  139MOL0     C18262   3.547   8.705   7.136 -0.1511  0.3854  0.4695
  139MOL0     O18263   3.770   8.895   7.104 -0.3042  0.0404  0.2261
  139MOL0     C18264   3.997   8.776   7.350  0.4408 -0.6966  0.6911
  139MOL0     C18265   4.129   8.782   7.398  0.2431 -0.2868 -0.0542
  139MOL0     N18266   4.691   8.881   7.770  0.0470  0.2694 -0.0624
  139MOL0     N18267   4.724   8.925   7.889  0.4741  0.1657  0.0937
  139MOL0     C18268   6.009   9.137   8.084  0.5737  0.1431  0.6113
  139MOL0     C18269   6.142   9.138   8.136  0.6484  0.2410  0.2921
  139MOL0     C18270   6.526   9.299   8.333 -0.1827  0.9740 -0.1426
  139MOL0     C18271   6.604   9.272   8.216  0.5098 -0.1876  0.2366
  139MOL0     C18272   6.739   9.260   8.223 -0.6726  0.0449 -0.1310
  139MOL0     C18273   6.808   9.267   8.351  0.3546  0.2369  0.1308
  139MOL0     O18274   6.943   9.270   8.372  0.6144  0.5426  0.3048
  139MOL0     C18275   7.025   9.289   8.262 -0.5317 -0.2173  0.2134
  139MOL0     C18276   7.175   9.273   8.305  0.3226 -0.2593  0.2220
  139MOL0     C18277   7.203   9.360   8.426  0.9088 -0.2185 -0.2986
  139MOL0     C18278   7.343   9.386   8.461 -1.3013 -0.3200 -0.4482
  139MOL0     C18279   7.405   9.284   8.529 -0.5571  0.0720  0.3310
  139MOL0     C18280   7.467   9.191   8.587 -0.5816 -0.1119  0.4762
  139MOL0     C18281   6.735   9.305   8.466  1.0117  0.1774  0.1732
  139MOL0     C18282   6.597   9.313   8.455 -0.0492 -0.3935 -0.0648
  139MOL0     H18283   6.159   9.444   8.270 -2.4643  0.1556  0.7633
  139MOL0     H18284   5.919   9.437   8.193 -1.5730 -0.6297 -2.4554
  139MOL0     H18285   5.739   9.066   8.125 -3.7042  1.0776  0.7093
  139MOL0     H18286   5.737   9.113   7.949  0.8661 -0.7640 -0.1024
  139MOL0     H18287   5.549   9.283   8.011 -2.0829  1.0532  1.2434
  139MOL0     H18288   5.543   9.203   8.172  0.6728  2.1650 -0.0053
  139MOL0     H18289   5.495   8.979   8.049 -1.6456 -0.5328  1.8062
  139MOL0     H18290   5.499   9.080   7.908 -2.8882  2.1178 -0.4273
  139MOL0     H18291   5.309   9.094   8.140  0.1542  1.6221  0.6728
  139MOL0     H18292   5.307   9.209   7.992  0.2080 -0.8909 -3.7583
  139MOL0     H18293   5.274   8.916   7.970 -1.9676 -0.4986 -1.5265
  139MOL0     H18294   5.265   9.034   7.846 -0.0863 -3.0949 -0.0232
  139MOL0     H18295   5.062   8.990   8.090 -0.1523  0.5143 -0.5129
  139MOL0     H18296   5.058   8.923   7.932 -0.5818 -0.1302 -1.3496
  139MOL0     H18297   5.054   9.231   7.997 -0.2128  2.4041 -2.4687
  139MOL0     H18298   5.038   9.154   7.834 -0.6712 -1.2631 -0.6226
  139MOL0     H18299   4.811   9.225   7.978  2.2351  2.5233  1.4657
  139MOL0     H18300   4.859   9.082   8.071  1.1920 -1.3401 -0.4851
  139MOL0     H18301   4.853   9.151   7.688 -3.8289  1.9492 -2.0139
  139MOL0     H18302   4.797   8.855   7.498  1.2089  1.0849  0.6305
  139MOL0     H18303   4.763   9.028   7.463 -7.0810  1.1022 -2.2750
  139MOL0     H18304   4.550   9.005   7.454  0.3984 -0.1269 -4.1625
  139MOL0     H18305   4.532   8.873   7.563 -1.2918  2.3340  0.6777
  139MOL0     H18306   4.666   8.796   7.299  1.1318 -2.3610  1.3545
  139MOL0     H18307   4.588   8.701   7.412  2.3346  0.9219  0.2778
  139MOL0     H18308   4.467   8.756   7.196  0.5401 -1.4398  0.7893
  139MOL0     H18309   4.458   8.921   7.240  2.8593 -0.6015 -2.8065
  139MOL0     H18310   4.272   8.849   7.102 -1.6336  0.7136 -1.4950
  139MOL0     H18311   4.025   8.867   7.031 -0.8698  3.6280  0.6672
  139MOL0     H18312   3.545   8.884   7.420 -1.5512  2.5153 -0.9166
  139MOL0     H18313   3.289   8.881   7.358 -1.4505 -1.2693 -0.2513
  139MOL0     H18314   3.114   8.621   7.196  3.5344  0.7722  0.5239
  139MOL0     H18315   3.125   8.664   7.017 -0.0485 -1.8315  0.3025
  139MOL0     H18316   2.898   8.674   7.104  0.2690 -0.2894  1.2598
  139MOL0     H18317   2.946   8.832   7.039 -1.5370 -1.7792 -2.1874
  139MOL0     H18318   2.977   8.927   7.266 -1.3220  0.6203 -2.7930
  139MOL0     H18319   2.959   8.770   7.342 -3.8894  1.6449  1.2269
  139MOL0     H18320   2.759   8.904   7.180 -0.5832  2.0319  1.2314
  139MOL0     H18321   2.739   8.737   7.244  1.9196 -0.6698  1.2387
  139MOL0     H18322   2.798   8.998   7.393 -1.0944  0.4974 -1.1469
  139MOL0     H18323   2.756   8.843   7.476  0.9655  1.8331  0.8186
  139MOL0     H18324   2.564   8.988   7.286  0.0673 -3.7846 -2.1390
  139MOL0     H18325   2.563   9.003   7.466 -0.3068 -0.6141  0.3547
  139MOL0     H18326   2.474   8.781   7.277 -0.5426  1.5384 -0.2501
  139MOL0     H18327   2.537   8.739   7.437  2.6615  1.7253  1.0248
  139MOL0     H18328   2.345   8.920   7.518  2.0462 -0.2648 -0.5285
  139MOL0     H18329   2.294   8.755   7.474 -0.3276  0.4289  0.2283
  139MOL0     H18330   3.384   8.666   6.996 -2.3543  0.8928  0.6548
  139MOL0     H18331   3.624   8.655   7.079 -0.2669  1.6196 -0.8111
  139MOL0     H18332   3.918   8.760   7.423 -1.0766  0.0851 -0.7242
  139MOL0     H18333   4.157   8.762   7.500 -2.5310  0.5361  0.9776
  139MOL0     H18334   5.983   9.052   8.022  2.2939 -0.3847  0.5461
  139MOL0     H18335   6.205   9.050   8.127  0.3648 -0.0975  1.4452
  139MOL0     H18336   6.546   9.286   8.125  2.0412  2.1947 -0.4677
  139MOL0     H18337   6.791   9.259   8.128 -1.6703 -0.5608 -0.6823
  139MOL0     H18338   7.012   9.391   8.226  1.6789 -0.1837 -0.6697
  139MOL0     H18339   7.012   9.218   8.180 -0.8802 -0.4941  0.5085
  139MOL0     H18340   7.195   9.167   8.324 -0.2799 -0.4725 -0.2944
  139MOL0     H18341   7.234   9.310   8.221 -1.3455  0.3974 -0.7053
  139MOL0     H18342   7.154   9.335   8.521 -0.6090  1.0833 -0.6884
  139MOL0     H18343   7.155   9.457   8.406  0.7585  0.0205  1.0841
  139MOL0     H18344   7.409   9.399   8.375 -2.8781 -2.0773 -2.0056
  139MOL0     H18345   7.355   9.476   8.523 -1.4846 -1.8971  2.0364
  139MOL0     H18346   7.530   9.128   8.647 -0.9654  0.2828  1.3175
  139MOL0     H18347   6.785   9.318   8.562  1.5000  1.2023 -0.2043
  139MOL0     H18348   6.541   9.327   8.547 -1.9852 -1.2508 -1.0428
  140MOL0     O18349   2.770   0.203   8.722  0.1124 -0.4527  0.1534
  140MOL0     C18350   2.792   0.157   8.836  0.3307  0.3501  0.0920
  140MOL0     O18351   2.700   0.102   8.921  0.0343  0.0731 -0.6828
  140MOL0     C18352   2.565   0.112   8.909 -0.3632 -0.2437  0.6097
  140MOL0     C18353   2.503   0.078   8.795  0.6855 -0.3340  0.2443
  140MOL0     C18354   2.362   0.075   8.794  0.0522  0.3416  0.0749
  140MOL0     C18355   2.289   0.109   8.915 -0.2459 -0.0053 -0.2417
  140MOL0     O18356   2.157   0.095   8.924  0.7695  0.3892 -0.5241
  140MOL0     C18357   2.100  -0.004   8.832 -0.5610  0.5887 -0.3010
  140MOL0     C18358   1.962  -0.051   8.881 -0.0710  0.6143  0.1475
  140MOL0     C18359   1.858  -0.054   8.771  0.0251  0.1573  0.2156
  140MOL0     C18360   1.739  -0.142   8.812  0.2591 -0.9921  0.0919
  140MOL0     C18361   1.636  -0.149   8.692 -0.8597  0.3559 -0.0287
  140MOL0     C18362   1.516  -0.233   8.733  0.2249  0.6153 -0.0751
  140MOL0     C18363   1.398  -0.195   8.652  0.3436  0.0068 -0.1829
  140MOL0     C18364   1.273  -0.284   8.691  0.3597 -0.6569  0.0690
  140MOL0     N18365   1.144  -0.265   8.637 -0.7736 -0.3033 -0.6493
  140MOL0     C18366   1.110  -0.268   8.508  0.8212 -0.0215 -0.2435
  140MOL0     C18367   0.976  -0.235   8.496  0.0718  0.9206 -0.5908
  140MOL0     C18368   0.909  -0.227   8.366 -0.5179 -0.1751 -0.0155
  140MOL0     C18369   0.786  -0.141   8.380  1.6544 -0.7717  0.4167
  140MOL0     C18370   0.710  -0.119   8.247 -0.6975  0.9917  0.3098
  140MOL0     C18371   0.589  -0.022   8.254  0.0320  0.2733  0.3046
  140MOL0     O18372   0.511  -0.072   8.359  0.7771 -0.1511 -0.2842
  140MOL0     C18373   0.388  -0.029   8.385  0.0219  0.3308 -0.6155
  140MOL0     C18374   0.312  -0.099   8.474 -0.6741  0.4893 -0.7528
  140MOL0     C18375   0.184  -0.064   8.514 -0.1190  0.4163  0.7082
  140MOL0     C18376   0.124   0.043   8.454  0.5199  0.5361 -0.3539
  140MOL0     C18377  -0.005   0.102   8.497 -0.3414 -0.5318 -0.1937
  140MOL0     O18378  -0.077   0.161   8.400 -0.2160 -0.3244  0.3522
  140MOL0     C18379  -0.187   0.225   8.441  0.0811 -0.1990  0.9450
  140MOL0     C18380  -0.303   0.153   8.473 -1.1675 -0.3067 -0.1630
  140MOL0     C18381  -0.416   0.214   8.511  0.0134  0.0895  0.6717
  140MOL0     C18382  -0.428   0.355   8.511 -0.5065  1.2618  0.6264
  140MOL0     O18383  -0.539   0.425   8.547  0.4203 -0.3489 -0.6519
  140MOL0     C18384  -0.554   0.415   8.695  0.4303  0.3142 -0.4194
  140MOL0     C18385  -0.685   0.486   8.742 -0.1268  0.5333 -0.2484
  140MOL0     C18386  -0.679   0.639   8.738  0.0247 -0.3948  0.0152
  140MOL0     C18387  -0.815   0.710   8.758 -0.2625  0.8531  0.4166
  140MOL0     C18388  -0.840   0.731   8.909  0.1153 -0.0200  0.2430
  140MOL0     C18389  -0.979   0.790   8.920 -0.3998 -0.3102  0.2194
  140MOL0     C18390  -1.014   0.819   9.067  0.7603 -0.7904 -0.3004
  140MOL0     C18391  -1.062   0.692   9.144 -0.5689 -0.0883 -0.0884
  140MOL0    Cl18392  -1.228   0.654   9.115 -0.0903 -0.0539 -0.3549
  140MOL0     C18393  -0.316   0.430   8.473 -0.7236  0.5912 -1.0747
  140MOL0     C18394  -0.194   0.367   8.446 -0.5592  0.9420  0.4512
  140MOL0     O18395  -0.043   0.100   8.614 -0.1097  0.5010 -0.0548
  140MOL0     C18396   0.201   0.118   8.356 -0.1561  0.5810  0.9506
  140MOL0     C18397   0.329   0.074   8.314  0.5030 -0.3890 -0.1853
  140MOL0     N18398   0.933  -0.215   8.625 -0.0450  0.5466 -0.2804
  140MOL0     N18399   1.033  -0.218   8.711  0.2853 -0.3524  0.6581
  140MOL0     C18400   2.352   0.158   9.031  0.5134 -0.7200  0.3142
  140MOL0     C18401   2.497   0.154   9.029  0.4938  0.4543 -0.8111
  140MOL0     C18402   2.937   0.138   8.886 -0.2324 -0.2942  0.0410
  140MOL0     C18403   3.045   0.167   8.803 -0.1935  0.1044  0.6422
  140MOL0     C18404   3.176   0.154   8.847 -0.5913  0.5822  0.3067
  140MOL0     C18405   3.213   0.130   8.985  0.5668  0.1404 -0.8148
  140MOL0     O18406   3.341   0.120   9.036 -0.5345 -0.0106 -0.3885
  140MOL0     C18407   3.449   0.166   8.956 -0.0007  0.1204  0.6432
  140MOL0     C18408   3.475   0.311   8.969 -0.6032 -0.4532 -0.0202
  140MOL0     C18409   3.581   0.345   9.089  0.8988 -0.1499  0.1666
  140MOL0     C18410   3.514   0.309   9.228 -1.1753 -0.9768  0.1779
  140MOL0     C18411   3.624   0.335   9.318 -0.8697  0.9550  0.0825
  140MOL0     C18412   3.719   0.349   9.399  0.2942 -0.1516  0.7130
  140MOL0     C18413   3.099   0.107   9.068  0.8663  0.4787  0.1486
  140MOL0     C18414   2.967   0.100   9.017 -0.5405  0.7853  0.2109
  140MOL0     H18415   2.556   0.038   8.709  0.3589  2.1533 -1.2025
  140MOL0     H18416   2.318   0.053   8.697  2.0436  0.1220 -0.8297
  140MOL0     H18417   2.163  -0.093   8.826 -0.4282  0.6114  0.6526
  140MOL0     H18418   2.093   0.039   8.731 -0.6541  2.1208  0.3273
  140MOL0     H18419   1.932   0.020   8.958  1.5127 -0.1540  1.5429
  140MOL0     H18420   1.965  -0.146   8.935  0.4262  1.6093  1.9268
  140MOL0     H18421   1.894  -0.089   8.674  0.2108  0.0105  0.3354
  140MOL0     H18422   1.806   0.040   8.752 -1.6253 -0.3803  1.7592
  140MOL0     H18423   1.769  -0.243   8.841  0.6199 -1.0895 -0.5968
  140MOL0     H18424   1.685  -0.097   8.895  0.6225  0.5888 -0.4766
  140MOL0     H18425   1.664  -0.193   8.596 -0.4963 -0.0571  0.2645
  140MOL0     H18426   1.603  -0.046   8.677 -0.2025  0.8009  1.4079
  140MOL0     H18427   1.486  -0.214   8.837 -0.8544 -4.4209  0.8134
  140MOL0     H18428   1.546  -0.338   8.728 -0.9715  0.2783 -0.7045
  140MOL0     H18429   1.374  -0.091   8.675  2.1198 -0.3747  4.4234
  140MOL0     H18430   1.423  -0.216   8.548 -1.6073 -2.0610 -0.3156
  140MOL0     H18431   1.250  -0.281   8.798  0.8170  1.0224  0.1393
  140MOL0     H18432   1.283  -0.391   8.670 -1.2657 -0.9288  0.5419
  140MOL0     H18433   1.183  -0.291   8.431 -2.4073 -0.9944 -3.2704
  140MOL0     H18434   0.880  -0.330   8.344 -1.3997  0.5769 -2.6855
  140MOL0     H18435   0.966  -0.201   8.277  0.7104  1.0048  1.0624
  140MOL0     H18436   0.811  -0.040   8.416  1.5998 -0.0272 -1.5373
  140MOL0     H18437   0.713  -0.179   8.452 -0.0007 -0.1400 -0.8465
  140MOL0     H18438   0.783  -0.089   8.172 -0.3753 -2.2450 -0.8574
  140MOL0     H18439   0.667  -0.216   8.221 -0.1107  0.2688  1.8734
  140MOL0     H18440   0.535  -0.019   8.158  0.4379  0.1963  0.0713
  140MOL0     H18441   0.627   0.076   8.284  2.0401 -0.7363  1.2304
  140MOL0     H18442   0.347  -0.188   8.527 -1.6287  0.2773 -0.4546
  140MOL0     H18443   0.118  -0.136   8.562 -1.4718  0.6535 -0.7039
  140MOL0     H18444  -0.293   0.044   8.473 -1.1835 -0.3369  1.3557
  140MOL0     H18445  -0.502   0.157   8.545  0.7566 -0.0499  2.3811
  140MOL0     H18446  -0.465   0.454   8.744  0.7449 -1.5928  0.6138
  140MOL0     H18447  -0.556   0.307   8.707 -0.1228  0.1595 -1.6711
  140MOL0     H18448  -0.699   0.460   8.847 -0.3949 -1.0004 -0.6494
  140MOL0     H18449  -0.774   0.445   8.694 -0.5910  0.5930  0.5455
  140MOL0     H18450  -0.632   0.662   8.642 -0.0020 -0.0896  0.0718
  140MOL0     H18451  -0.605   0.663   8.815  2.6745 -2.1443 -1.8068
  140MOL0     H18452  -0.811   0.806   8.706  0.4385  0.1364 -0.8994
  140MOL0     H18453  -0.889   0.647   8.708  0.5390  0.8456 -0.8012
  140MOL0     H18454  -0.764   0.795   8.954 -2.6424  3.3781  0.5263
  140MOL0     H18455  -0.835   0.635   8.961  2.4728  1.6950  3.5444
  140MOL0     H18456  -1.059   0.730   8.876 -0.1808  1.3960 -2.8004
  140MOL0     H18457  -0.974   0.881   8.861 -1.4559 -0.2346  0.2452
  140MOL0     H18458  -0.926   0.866   9.112 -1.1878  1.6493  1.2569
  140MOL0     H18459  -1.095   0.892   9.074  1.6915  0.6868 -3.3990
  140MOL0     H18460  -1.041   0.711   9.250  0.5440 -1.4277 -0.0384
  140MOL0     H18461  -1.009   0.601   9.113  0.9589  1.0449 -0.8889
  140MOL0     H18462  -0.322   0.538   8.474  2.2535  0.9419  2.4145
  140MOL0     H18463  -0.099   0.415   8.426  0.7663 -1.6210  0.2601
  140MOL0     H18464   0.156   0.210   8.319  0.8192  0.5633 -0.3584
  140MOL0     H18465   0.376   0.140   8.242 -0.8381  2.2275  1.2141
  140MOL0     H18466   2.307   0.190   9.124  0.4751  0.2549 -0.0322
  140MOL0     H18467   2.549   0.166   9.124 -0.8492 -1.1698  0.1776
  140MOL0     H18468   3.029   0.189   8.698 -1.9856  0.3045  0.9229
  140MOL0     H18469   3.256   0.160   8.774  0.4368 -3.9292  0.7270
  140MOL0     H18470   3.443   0.131   8.852 -0.5282 -1.7266  1.2547
  140MOL0     H18471   3.538   0.109   8.987  1.9410  1.6491 -1.7300
  140MOL0     H18472   3.527   0.348   8.880  0.3070 -0.4945  0.4805
  140MOL0     H18473   3.385   0.371   8.982 -1.4069 -2.0804  2.9801
  140MOL0     H18474   3.592   0.453   9.075 -2.1044  0.3241  0.8403
  140MOL0     H18475   3.677   0.293   9.075  0.2524 -1.4581  0.4215
  140MOL0     H18476   3.429   0.376   9.247 -1.0725 -1.4026  2.3653
  140MOL0     H18477   3.490   0.202   9.227  1.1911 -1.6311  2.9108
  140MOL0     H18478   3.804   0.372   9.460  1.9913  0.9579 -1.8694
  140MOL0     H18479   3.111   0.080   9.172  0.2569  0.8284  0.3176
  140MOL0     H18480   2.888   0.071   9.086 -1.7138  0.0800 -1.3545
  141MOL0     O18481   6.265   6.543   5.922 -0.5406 -0.2636 -0.2511
  141MOL0     C18482   6.340   6.460   5.868  0.0809  1.0123 -0.0003
  141MOL0     O18483   6.310   6.330   5.837 -0.7164 -0.4509  0.2057
  141MOL0     C18484   6.202   6.275   5.891  0.7334  0.8983 -0.5784
  141MOL0     C18485   6.207   6.175   5.997  0.2528 -0.2803 -0.2397
  141MOL0     C18486   6.091   6.145   6.059  0.1009 -0.2376  0.6426
  141MOL0     C18487   5.969   6.208   6.035  0.0314 -1.2605  0.5733
  141MOL0     O18488   5.866   6.167   6.116 -0.0768  0.4152  0.4525
  141MOL0     C18489   5.736   6.232   6.096 -0.4640  0.0281  0.4934
  141MOL0     C18490   5.628   6.160   6.171  0.4798  0.4267  0.7098
  141MOL0     C18491   5.492   6.212   6.120 -0.5343 -0.3484 -0.0887
  141MOL0     C18492   5.373   6.154   6.185  0.2148  0.5191  0.0068
  141MOL0     C18493   5.241   6.203   6.126  0.0959  0.3348 -0.3057
  141MOL0     C18494   5.127   6.127   6.208  0.0069  0.1708  0.4599
  141MOL0     C18495   4.989   6.176   6.174  0.4097  0.6322  0.4705
  141MOL0     C18496   4.872   6.106   6.256 -0.1143 -0.5267  1.3772
  141MOL0     N18497   4.747   6.186   6.242  0.0871 -0.0870 -0.0645
  141MOL0     C18498   4.712   6.302   6.299  1.0862  0.4554 -0.3597
  141MOL0     C18499   4.589   6.337   6.251 -0.0810  0.4045  0.1649
  141MOL0     C18500   4.507   6.448   6.305  0.3476  0.5349  0.2240
  141MOL0     C18501   4.554   6.581   6.253 -0.3300  0.1702 -0.6269
  141MOL0     C18502   4.476   6.703   6.322  0.1693  0.8446 -0.2126
  141MOL0     C18503   4.361   6.746   6.239  0.5035 -0.0801 -0.9542
  141MOL0     O18504   4.388   6.800   6.107  0.4268  0.0419  0.1620
  141MOL0     C18505   4.311   6.744   6.004  0.5158  0.4474 -0.2696
  141MOL0     C18506   4.167   6.747   6.017  0.0017  0.0245 -0.3672
  141MOL0     C18507   4.092   6.686   5.914  0.1892 -1.0929  0.6666
  141MOL0     C18508   4.149   6.625   5.803 -0.4361  0.2642  0.0265
  141MOL0     C18509   4.075   6.533   5.708 -0.0710 -0.3188 -0.1776
  141MOL0     O18510   4.135   6.487   5.589 -0.2437 -1.3183 -0.4775
  141MOL0     C18511   4.057   6.412   5.504 -0.2660  0.3230  0.6834
  141MOL0     C18512   3.990   6.297   5.548 -0.6037 -0.2621  0.2404
  141MOL0     C18513   3.933   6.212   5.446 -0.1303  0.2184 -0.7132
  141MOL0     C18514   3.932   6.247   5.313  0.3981  0.3006  1.7129
  141MOL0     O18515   3.871   6.159   5.231  0.0507 -0.7552 -0.2968
  141MOL0     C18516   3.922   6.160   5.097 -0.8706  0.0600  0.1899
  141MOL0     C18517   3.865   6.038   5.015  0.3172 -0.5248 -0.4203
  141MOL0     C18518   3.713   6.025   5.027 -0.5053  0.4418  0.9551
  141MOL0     C18519   3.633   6.145   4.971 -0.2011  0.2238  0.1922
  141MOL0     C18520   3.477   6.115   4.964 -0.3635  0.9029 -0.0847
  141MOL0     C18521   3.446   6.024   4.853 -0.3668 -0.3657 -0.7536
  141MOL0     C18522   3.293   6.014   4.811  0.9415  0.6684  0.2585
  141MOL0     C18523   3.199   5.975   4.934 -0.4911  0.5978  0.2107
  141MOL0    Cl18524   3.126   6.122   5.003  0.1105  0.4784  0.0096
  141MOL0     C18525   3.987   6.368   5.273 -0.4096  0.9633 -0.0663
  141MOL0     C18526   4.052   6.449   5.365  0.1278 -0.2396  0.6413
  141MOL0     O18527   3.966   6.503   5.755 -0.1004  0.1968  0.8951
  141MOL0     C18528   4.288   6.639   5.783 -0.3812 -0.5435 -0.6308
  141MOL0     C18529   4.364   6.702   5.878  0.5878 -0.4132 -0.9715
  141MOL0     N18530   4.552   6.233   6.167 -0.7234 -1.0349 -0.0355
  141MOL0     N18531   4.644   6.143   6.170 -0.1450 -0.1052 -0.1965
  141MOL0     C18532   5.961   6.296   5.927 -0.4203  0.5710  0.6463
  141MOL0     C18533   6.075   6.325   5.852 -0.2273  0.4905  0.3739
  141MOL0     C18534   6.483   6.494   5.852  0.2650  0.2474  0.6238
  141MOL0     C18535   6.517   6.620   5.885 -0.7170  0.4453  0.0799
  141MOL0     C18536   6.648   6.661   5.874  0.6227 -0.0037  0.0545
  141MOL0     C18537   6.753   6.580   5.828  0.1489 -0.2778  0.0213
  141MOL0     O18538   6.887   6.631   5.826 -0.1183 -0.1525 -0.1430
  141MOL0     C18539   6.968   6.577   5.719  1.1766  0.7410 -1.0132
  141MOL0     C18540   7.090   6.512   5.784 -0.9653 -0.7754 -0.4294
  141MOL0     C18541   7.193   6.623   5.812  0.2711 -0.1094 -0.0058
  141MOL0     C18542   7.336   6.582   5.860  0.1308 -0.4775  0.1986
  141MOL0     C18543   7.328   6.520   5.993 -0.0005 -0.0114  0.6264
  141MOL0     C18544   7.325   6.474   6.103  0.1362  0.7173  0.1725
  141MOL0     C18545   6.716   6.450   5.794 -0.8145  0.2460 -0.4693
  141MOL0     C18546   6.581   6.406   5.809 -0.2501  0.7111 -0.0527
  141MOL0     H18547   6.309   6.145   6.017  1.7296  2.8256 -2.3186
  141MOL0     H18548   6.111   6.076   6.140 -0.2407 -0.7358  0.3101
  141MOL0     H18549   5.717   6.221   5.989  1.0894  2.1467 -0.0671
  141MOL0     H18550   5.741   6.340   6.112  1.9646 -0.0094  0.2724
  141MOL0     H18551   5.643   6.191   6.274  1.0502 -0.4535  0.9001
  141MOL0     H18552   5.642   6.053   6.153  0.1091  0.6052 -0.8177
  141MOL0     H18553   5.494   6.179   6.015  2.8252 -2.0984  0.3819
  141MOL0     H18554   5.481   6.318   6.143  1.1891 -0.2914  0.5884
  141MOL0     H18555   5.377   6.046   6.172 -1.3353  0.3934  0.3770
  141MOL0     H18556   5.369   6.163   6.294 -0.8967  0.5324 -0.0295
  141MOL0     H18557   5.231   6.194   6.017 -2.5304  0.9113 -0.1827
  141MOL0     H18558   5.232   6.307   6.160  1.4285  0.4653 -0.3134
  141MOL0     H18559   5.134   6.149   6.315 -0.8061 -2.8362  1.2328
  141MOL0     H18560   5.145   6.020   6.193  1.6475  0.2104  1.9510
  141MOL0     H18561   4.986   6.284   6.191 -0.3802  1.4533 -3.6706
  141MOL0     H18562   4.968   6.152   6.069 -0.7236 -1.2091  1.0741
  141MOL0     H18563   4.903   6.107   6.361  2.6160  0.4611  0.6504
  141MOL0     H18564   4.881   6.000   6.231 -0.6874 -0.3906  0.5593
  141MOL0     H18565   4.769   6.357   6.373 -1.4500  2.9212 -0.0305
  141MOL0     H18566   4.497   6.441   6.414  0.1659  0.2610  0.1908
  141MOL0     H18567   4.409   6.436   6.258  0.3993  0.4240  0.1447
  141MOL0     H18568   4.525   6.576   6.147  0.8498 -3.3347 -0.9130
  141MOL0     H18569   4.663   6.579   6.262 -0.4037 -1.1873  0.0496
  141MOL0     H18570   4.425   6.668   6.412 -0.0774  1.6133 -0.0427
  141MOL0     H18571   4.544   6.785   6.348  0.0811  0.9605 -0.3447
  141MOL0     H18572   4.325   6.828   6.303  1.8731  1.4411 -2.0376
  141MOL0     H18573   4.289   6.664   6.232  0.3268  0.0930 -1.1923
  141MOL0     H18574   4.116   6.793   6.101 -1.2923 -1.1858 -0.4587
  141MOL0     H18575   3.984   6.680   5.916  0.1006  0.1269  0.6804
  141MOL0     H18576   3.995   6.269   5.652  0.1754 -0.5155  0.1405
  141MOL0     H18577   3.893   6.123   5.493  1.9392  1.2012  3.3363
  141MOL0     H18578   4.030   6.151   5.105 -1.0321 -0.0394  5.2338
  141MOL0     H18579   3.894   6.254   5.047 -1.6706  0.5442  1.4976
  141MOL0     H18580   3.905   5.943   5.051 -1.0994 -0.8589  0.3131
  141MOL0     H18581   3.893   6.048   4.909 -3.2481 -3.4424 -1.8481
  141MOL0     H18582   3.691   6.004   5.132 -0.4230 -0.7218  0.7468
  141MOL0     H18583   3.688   5.936   4.968  3.2664  1.0266 -1.9141
  141MOL0     H18584   3.647   6.230   5.039  3.5819  0.0251 -0.1547
  141MOL0     H18585   3.655   6.188   4.873 -3.1150  0.4445 -0.4512
  141MOL0     H18586   3.432   6.213   4.947  1.2668  1.3178 -2.7033
  141MOL0     H18587   3.456   6.080   5.066  0.5799  0.6988  0.0558
  141MOL0     H18588   3.492   5.926   4.872 -0.0712 -0.3543 -1.3713
  141MOL0     H18589   3.515   6.043   4.770 -0.3347  2.1415 -0.2109
  141MOL0     H18590   3.254   6.103   4.761 -0.7222  0.0513  0.3936
  141MOL0     H18591   3.276   5.927   4.747  1.5578  0.3733  0.4864
  141MOL0     H18592   3.246   5.924   5.018 -0.2288  0.9321  0.2699
  141MOL0     H18593   3.114   5.915   4.901 -0.9012  0.9571  0.6088
  141MOL0     H18594   3.983   6.405   5.171  0.0651 -1.9102 -1.2211
  141MOL0     H18595   4.101   6.543   5.341 -1.7258  0.9671  1.3956
  141MOL0     H18596   4.336   6.594   5.697  0.4770 -0.9301  0.0306
  141MOL0     H18597   4.471   6.718   5.869  0.5620  0.0016 -0.5435
  141MOL0     H18598   5.865   6.333   5.891 -1.4371 -2.6635 -0.2698
  141MOL0     H18599   6.067   6.395   5.770  1.6041 -0.9224 -1.1098
  141MOL0     H18600   6.443   6.687   5.929  0.8762  0.0838  3.6015
  141MOL0     H18601   6.668   6.761   5.911  0.3196  0.7322 -1.6532
  141MOL0     H18602   6.986   6.660   5.651  0.0000  0.1340 -2.1237
  141MOL0     H18603   6.923   6.494   5.663  0.4440 -0.5266  1.3114
  141MOL0     H18604   7.055   6.470   5.879 -0.6038 -0.6768 -0.2530
  141MOL0     H18605   7.141   6.428   5.736  0.5615 -0.5681  0.7578
  141MOL0     H18606   7.153   6.694   5.885  2.2420  1.2597 -0.1684
  141MOL0     H18607   7.201   6.665   5.711  2.7803 -0.1901  0.0818
  141MOL0     H18608   7.383   6.507   5.796  2.7942  0.8587  0.4582
  141MOL0     H18609   7.402   6.667   5.877 -2.5621  1.9287 -0.5389
  141MOL0     H18610   7.320   6.419   6.195  0.6403 -0.2897 -0.3793
  141MOL0     H18611   6.800   6.382   5.785 -1.0327 -0.0310 -0.4180
  141MOL0     H18612   6.552   6.306   5.781  0.4643 -0.2807  2.5068
  142MOL0     O18613   7.052   4.247   7.493 -0.2497  0.1330  0.0514
  142MOL0     C18614   6.950   4.238   7.564  0.2201  0.1797  0.2857
  142MOL0     O18615   6.825   4.243   7.513 -0.2010 -0.4739 -0.0570
  142MOL0     C18616   6.790   4.213   7.388 -1.1075 -0.0884  0.3589
  142MOL0     C18617   6.861   4.120   7.309  0.1202 -0.4804 -0.3968
  142MOL0     C18618   6.824   4.095   7.175  0.4158  0.1529 -0.5916
  142MOL0     C18619   6.701   4.136   7.128  1.1579 -0.2702 -0.2754
  142MOL0     O18620   6.657   4.099   7.009  0.4601 -0.2677  0.3457
  142MOL0     C18621   6.544   4.169   6.946 -0.1684 -0.0971 -0.8366
  142MOL0     C18622   6.525   4.122   6.811 -0.3908 -0.3558 -0.2238
  142MOL0     C18623   6.375   4.166   6.773 -0.2719 -0.2452 -0.0502
  142MOL0     C18624   6.342   4.318   6.793 -0.3007 -0.4981  0.0588
  142MOL0     C18625   6.217   4.362   6.709  0.2038 -0.2835 -0.1992
  142MOL0     C18626   6.082   4.309   6.767 -0.0369 -0.4026  0.4736
  142MOL0     C18627   5.952   4.385   6.718  0.0545 -0.7276 -0.0331
  142MOL0     C18628   5.830   4.324   6.788  0.0060 -0.0629  0.0874
  142MOL0     N18629   5.722   4.424   6.783 -0.1185  0.9635  0.7180
  142MOL0     C18630   5.617   4.412   6.696 -0.0601 -0.7807  0.7449
  142MOL0     C18631   5.533   4.518   6.717  0.9518 -0.2150 -0.6066
  142MOL0     C18632   5.415   4.544   6.633  0.0482  0.2187 -0.4763
  142MOL0     C18633   5.286   4.550   6.714  0.8077 -0.1460  0.4978
  142MOL0     C18634   5.173   4.589   6.620  0.1591 -0.5612  0.7140
  142MOL0     C18635   5.048   4.630   6.692  0.8908 -0.0139 -0.9334
  142MOL0     O18636   4.963   4.515   6.723  0.2140  0.7999  0.5679
  142MOL0     C18637   4.828   4.541   6.729  0.1870  0.2505 -0.0787
  142MOL0     C18638   4.776   4.666   6.741  0.2951 -0.6389 -0.7274
  142MOL0     C18639   4.637   4.679   6.749 -0.5922 -0.9688  0.3134
  142MOL0     C18640   4.553   4.571   6.766 -0.2641  0.6467  1.2508
  142MOL0     C18641   4.406   4.589   6.779  0.1772  0.2530 -0.0015
  142MOL0     O18642   4.359   4.720   6.794  0.5240 -0.3813 -0.2638
  142MOL0     C18643   4.225   4.732   6.811  0.5358 -0.9395  0.3626
  142MOL0     C18644   4.131   4.710   6.700 -0.5524 -0.6136  0.1259
  142MOL0     C18645   3.997   4.714   6.735  0.7789 -0.1959  1.0794
  142MOL0     C18646   3.950   4.753   6.861 -1.0206 -0.3755  0.2027
  142MOL0     O18647   3.821   4.748   6.903  0.5936 -0.4344 -0.0363
  142MOL0     C18648   3.718   4.761   6.801  0.7508  0.3975  0.4591
  142MOL0     C18649   3.598   4.831   6.867 -0.1933 -0.3646  0.2674
  142MOL0     C18650   3.532   4.770   7.001  0.6354  0.4334  0.5378
  142MOL0     C18651   3.392   4.831   7.042  0.0981  0.3410 -0.8625
  142MOL0     C18652   3.314   4.731   7.128  0.0526 -0.1739 -0.2776
  142MOL0     C18653   3.172   4.772   7.166  0.2687 -0.5312 -0.1368
  142MOL0     C18654   3.083   4.650   7.189  0.4764  0.5214 -0.3074
  142MOL0     C18655   2.950   4.694   7.234 -0.6012 -0.1014 -0.5134
  142MOL0    Cl18656   2.871   4.770   7.088 -0.0775 -0.0756 -0.0844
  142MOL0     C18657   4.044   4.799   6.949  0.0307  0.5691 -0.2681
  142MOL0     C18658   4.183   4.798   6.925  0.0801  0.5441  0.2921
  142MOL0     O18659   4.335   4.491   6.783  0.5597  0.0569  0.1293
  142MOL0     C18660   4.609   4.444   6.763  0.4122 -0.2722  0.0177
  142MOL0     C18661   4.743   4.427   6.739 -0.1808 -0.1485 -0.1127
  142MOL0     N18662   5.587   4.589   6.819  0.0543 -0.0889  0.3009
  142MOL0     N18663   5.696   4.529   6.857  0.3300  0.3028  0.4303
  142MOL0     C18664   6.621   4.213   7.215 -0.6392 -1.2439 -0.2795
  142MOL0     C18665   6.674   4.256   7.338 -0.0020  0.0123  0.2566
  142MOL0     C18666   6.960   4.233   7.711  0.2683  0.9194 -0.7826
  142MOL0     C18667   7.069   4.265   7.777 -0.5436  0.5187 -0.5816
  142MOL0     C18668   7.086   4.258   7.911  0.6717  0.3272 -0.0413
  142MOL0     C18669   6.984   4.218   7.997  0.6495 -0.1534  0.7291
  142MOL0     O18670   7.000   4.226   8.136 -0.1651 -0.1583  0.0727
  142MOL0     C18671   6.895   4.178   8.227 -0.1096 -0.0207 -0.3463
  142MOL0     C18672   6.938   4.219   8.372 -0.2440 -0.6982  0.4503
  142MOL0     C18673   6.881   4.123   8.470  0.1356 -0.1741 -0.3345
  142MOL0     C18674   6.860   4.185   8.612  0.0555  0.7578 -0.4651
  142MOL0     C18675   6.984   4.208   8.680 -0.3109  0.6310 -0.5186
  142MOL0     C18676   7.095   4.234   8.729 -0.1907 -0.4616  0.1922
  142MOL0     C18677   6.864   4.185   7.927  0.7862  0.3610 -0.4111
  142MOL0     C18678   6.850   4.188   7.787 -0.3700 -0.6167 -0.5012
  142MOL0     H18679   6.954   4.084   7.354 -0.6849  0.9508  2.6581
  142MOL0     H18680   6.875   4.027   7.108 -1.0743 -1.1242 -0.5010
  142MOL0     H18681   6.554   4.277   6.961  0.0088 -0.3786  1.4254
  142MOL0     H18682   6.452   4.141   6.997 -1.3658  2.2038 -1.5953
  142MOL0     H18683   6.522   4.014   6.823  0.1316 -0.2456  1.0785
  142MOL0     H18684   6.601   4.142   6.735 -0.5042  1.1195  0.0111
  142MOL0     H18685   6.305   4.105   6.830  1.3547 -0.1875  2.1390
  142MOL0     H18686   6.365   4.138   6.668 -2.0895 -0.8291  0.2543
  142MOL0     H18687   6.328   4.339   6.899  3.3251 -1.4509  0.8497
  142MOL0     H18688   6.431   4.373   6.760  0.2454 -1.9608 -1.0178
  142MOL0     H18689   6.228   4.312   6.612  0.9602 -0.9281  0.2164
  142MOL0     H18690   6.221   4.470   6.688  1.1721 -0.7873 -3.1556
  142MOL0     H18691   6.076   4.313   6.876  2.8363  1.9658  0.6921
  142MOL0     H18692   6.072   4.201   6.750  1.1922 -0.2838 -1.3268
  142MOL0     H18693   5.958   4.489   6.753  1.8751 -0.1798 -1.8154
  142MOL0     H18694   5.947   4.383   6.609  0.6296 -2.3010 -0.0509
  142MOL0     H18695   5.849   4.313   6.895  1.2799  2.0229  0.1447
  142MOL0     H18696   5.806   4.232   6.735 -0.3940 -0.7481  1.4006
  142MOL0     H18697   5.615   4.343   6.613  1.1634 -0.1292  0.1418
  142MOL0     H18698   5.397   4.463   6.562 -1.6346 -1.6718  1.9354
  142MOL0     H18699   5.433   4.633   6.573 -0.5937  0.0534 -0.9172
  142MOL0     H18700   5.305   4.628   6.788 -0.0811  0.4004  0.1597
  142MOL0     H18701   5.274   4.456   6.768  0.1472 -0.0264  0.5638
  142MOL0     H18702   5.209   4.675   6.563  0.8590 -1.5482 -0.3741
  142MOL0     H18703   5.155   4.505   6.552 -0.2174  1.1409 -1.3942
  142MOL0     H18704   4.991   4.686   6.617 -0.6586 -0.1635  0.0910
  142MOL0     H18705   5.064   4.692   6.780 -0.2491 -0.0384 -0.6962
  142MOL0     H18706   4.837   4.756   6.732 -0.9932  0.1534 -1.9142
  142MOL0     H18707   4.584   4.774   6.750  1.4674  0.4172 -3.2279
  142MOL0     H18708   4.166   4.684   6.601  1.7205  1.0375  0.4255
  142MOL0     H18709   3.936   4.664   6.659 -0.6699  0.7925  1.5548
  142MOL0     H18710   3.690   4.663   6.763  0.9042 -0.1590  1.7300
  142MOL0     H18711   3.762   4.817   6.718 -0.2875  1.4724  0.6117
  142MOL0     H18712   3.520   4.829   6.790 -1.4727  0.8476  1.4652
  142MOL0     H18713   3.639   4.930   6.888 -0.2004 -0.3246  0.0915
  142MOL0     H18714   3.603   4.782   7.083  0.6270 -1.4899  0.8553
  142MOL0     H18715   3.530   4.662   6.990 -2.1455  0.4266  0.5818
  142MOL0     H18716   3.415   4.917   7.105 -2.0577  0.5109 -0.2599
  142MOL0     H18717   3.331   4.871   6.961  0.2156 -1.5581 -1.9690
  142MOL0     H18718   3.367   4.700   7.219  0.3606 -0.6787 -0.6211
  142MOL0     H18719   3.308   4.648   7.057 -2.1097  1.5405 -2.2797
  142MOL0     H18720   3.134   4.839   7.089  0.0525  1.6263  1.7305
  142MOL0     H18721   3.167   4.829   7.259  2.0914  1.9980 -1.4610
  142MOL0     H18722   3.072   4.603   7.091  0.5074  1.6009 -0.8435
  142MOL0     H18723   3.134   4.577   7.254 -0.6897 -0.2826 -0.2592
  142MOL0     H18724   2.961   4.768   7.314 -0.0457 -1.3136  0.5534
  142MOL0     H18725   2.890   4.610   7.271 -2.1657  2.3377  3.1542
  142MOL0     H18726   3.995   4.833   7.040 -0.4372 -1.6017  0.3493
  142MOL0     H18727   4.257   4.829   6.998  0.8262  1.9513 -1.0108
  142MOL0     H18728   4.540   4.360   6.751  1.4743 -1.1225 -0.2299
  142MOL0     H18729   4.781   4.328   6.715  3.9880  1.1022  0.5014
  142MOL0     H18730   6.518   4.241   7.192 -1.5100 -0.4589  3.8014
  142MOL0     H18731   6.612   4.324   7.396  0.5435 -1.2115  2.3945
  142MOL0     H18732   7.151   4.295   7.712  0.8989 -0.4263  0.7392
  142MOL0     H18733   7.179   4.295   7.952  0.3771  2.4390 -1.1119
  142MOL0     H18734   6.886   4.070   8.213 -4.3839  0.0925  0.1344
  142MOL0     H18735   6.794   4.215   8.206 -0.0202  0.6233  0.3115
  142MOL0     H18736   7.048   4.222   8.378 -0.3603  0.2780  3.1984
  142MOL0     H18737   6.891   4.313   8.403 -0.4068 -0.9356  0.9335
  142MOL0     H18738   6.941   4.031   8.475  2.0974  0.9705 -1.4692
  142MOL0     H18739   6.784   4.099   8.426 -0.7720 -0.5403  1.7189
  142MOL0     H18740   6.810   4.282   8.607  0.8577  1.2855  1.2524
  142MOL0     H18741   6.791   4.120   8.667 -0.7984  0.5165 -1.7798
  142MOL0     H18742   7.190   4.251   8.776 -1.6132  0.8477  2.8234
  142MOL0     H18743   6.777   4.156   7.985  0.6657 -1.6385 -1.5183
  142MOL0     H18744   6.759   4.159   7.735 -1.0785  1.0606 -0.2482
  143MOL0     O18745   2.609   5.456  10.009  0.5405 -0.3830  0.9498
  143MOL0     C18746   2.653   5.344   9.994  0.4402  0.3098 -0.3787
  143MOL0     O18747   2.584   5.236   9.934 -0.3448  0.0691 -0.0571
  143MOL0     C18748   2.447   5.261   9.924  0.0267 -0.3585 -0.6878
  143MOL0     C18749   2.399   5.294   9.796  0.0884  0.4140  0.8762
  143MOL0     C18750   2.265   5.309   9.774  0.0294 -0.4393  0.4977
  143MOL0     C18751   2.164   5.299   9.871  0.3603 -0.4547 -0.6422
  143MOL0     O18752   2.027   5.306   9.859  0.9501 -0.1365 -1.0050
  143MOL0     C18753   1.979   5.409   9.772 -0.3055  0.8175  0.5658
  143MOL0     C18754   1.823   5.406   9.776 -1.1200 -0.5500  0.2324
  143MOL0     C18755   1.764   5.500   9.683 -0.3023  0.4986  0.5350
  143MOL0     C18756   1.615   5.517   9.701  0.0515  0.9526 -0.4437
  143MOL0     C18757   1.535   5.397   9.647  0.2413 -0.4235  0.4986
  143MOL0     C18758   1.506   5.387   9.492 -0.4359  0.3276 -1.2283
  143MOL0     C18759   1.401   5.487   9.451 -0.3505  0.7240  0.0008
  143MOL0     C18760   1.257   5.453   9.484  0.0116 -0.3059  1.0332
  143MOL0     N18761   1.216   5.315   9.472  0.0066  0.3035  0.0298
  143MOL0     C18762   1.175   5.253   9.355  0.0865 -0.5610 -0.1909
  143MOL0     C18763   1.179   5.126   9.377 -0.3773  0.4998  0.2080
  143MOL0     C18764   1.163   5.027   9.266  0.5725 -0.4929  0.0587
  143MOL0     C18765   1.015   4.999   9.240 -0.4609  0.7683 -0.2540
  143MOL0     C18766   0.997   4.849   9.218  0.7011 -0.0302  0.5031
  143MOL0     C18767   0.860   4.791   9.237  0.1393  0.3907  0.3494
  143MOL0     O18768   0.758   4.844   9.150 -0.0770 -0.1105 -0.9045
  143MOL0     C18769   0.633   4.789   9.163  0.7578 -0.3272  0.3472
  143MOL0     C18770   0.589   4.711   9.270  0.2753  0.8638  0.0239
  143MOL0     C18771   0.457   4.665   9.277 -0.3132  0.1123 -0.1188
  143MOL0     C18772   0.353   4.698   9.185 -0.4749  0.3775 -0.1260
  143MOL0     C18773   0.215   4.655   9.203 -0.2719 -0.2406 -0.4392
  143MOL0     O18774   0.141   4.670   9.086 -0.3684 -0.3381 -0.3933
  143MOL0     C18775   0.010   4.634   9.093  0.0050  0.2373 -0.8496
  143MOL0     C18776  -0.087   4.718   9.152 -0.1463 -0.4720 -0.1673
  143MOL0     C18777  -0.221   4.676   9.163  0.4418 -0.0798  0.2234
  143MOL0     C18778  -0.263   4.559   9.086  0.7036 -0.9348 -0.1236
  143MOL0     O18779  -0.395   4.509   9.080 -0.2065 -0.1523 -0.3348
  143MOL0     C18780  -0.499   4.588   9.136  0.2873 -0.1658 -0.3818
  143MOL0     C18781  -0.636   4.540   9.106  0.2291  0.1624  0.4483
  143MOL0     C18782  -0.651   4.382   9.138  0.4530  0.8945 -0.1660
  143MOL0     C18783  -0.602   4.296   9.014 -0.3931  0.3376 -0.1550
  143MOL0     C18784  -0.612   4.149   9.039 -0.1037  0.9096 -0.0091
  143MOL0     C18785  -0.564   4.106   9.181  0.1418 -1.7877 -0.2440
  143MOL0     C18786  -0.555   3.951   9.194 -0.6955 -0.1036  0.3196
  143MOL0     C18787  -0.405   3.916   9.180  0.3047  0.5907  0.5974
  143MOL0    Cl18788  -0.354   3.893   9.353  0.4161 -0.4539  0.0830
  143MOL0     C18789  -0.167   4.486   9.018  0.3874 -0.6829 -0.1532
  143MOL0     C18790  -0.033   4.518   9.018  0.1393  0.1676  1.3355
  143MOL0     O18791   0.171   4.603   9.306  0.1134 -0.3974  0.3576
  143MOL0     C18792   0.399   4.775   9.076  0.0112  1.0318  0.4399
  143MOL0     C18793   0.532   4.819   9.062  0.1577  0.6344 -0.1754
  143MOL0     N18794   1.234   5.101   9.501 -0.8615  0.2413  0.1523
  143MOL0     N18795   1.244   5.219   9.559  0.3644  0.5814 -0.4244
  143MOL0     C18796   2.216   5.282  10.007  0.6509 -0.3020 -0.2041
  143MOL0     C18797   2.354   5.271  10.036 -0.2906  0.8229  0.3138
  143MOL0     C18798   2.787   5.312  10.031 -0.0356 -0.2090 -0.0184
  143MOL0     C18799   2.872   5.405  10.096  0.8729 -0.4048 -0.6676
  143MOL0     C18800   2.996   5.363  10.145 -0.4115  0.0470 -0.0836
  143MOL0     C18801   3.040   5.232  10.136 -0.5577  0.7439  0.5468
  143MOL0     O18802   3.160   5.209  10.204  0.4417 -0.0688 -0.0355
  143MOL0     C18803   3.246   5.100  10.160 -0.0959  0.1296 -0.1474
  143MOL0     C18804   3.343   5.139  10.052  0.1876  0.1492  1.0021
  143MOL0     C18805   3.467   5.227  10.085  0.4571  0.5363  1.0299
  143MOL0     C18806   3.564   5.146  10.164 -0.7803 -0.5863  0.0021
  143MOL0     C18807   3.699   5.206  10.160  0.6235 -0.1892  0.3185
  143MOL0     C18808   3.814   5.247  10.141  0.4381  0.1978 -0.2945
  143MOL0     C18809   2.960   5.135  10.063 -0.0973 -0.8237 -0.2623
  143MOL0     C18810   2.829   5.176  10.027 -0.4909 -0.1218 -0.4442
  143MOL0     H18811   2.458   5.306   9.707  0.0347  2.5071  1.0727
  143MOL0     H18812   2.229   5.307   9.671  0.2433 -1.0849  0.4360
  143MOL0     H18813   2.003   5.372   9.672  3.4924  1.1848  1.1949
  143MOL0     H18814   2.017   5.510   9.793 -3.5965  2.2414  0.4254
  143MOL0     H18815   1.798   5.453   9.872  1.4639  0.6392  0.4163
  143MOL0     H18816   1.784   5.306   9.756 -0.5338 -0.6552 -0.4306
  143MOL0     H18817   1.794   5.476   9.580  1.2075 -1.4849  1.3675
  143MOL0     H18818   1.799   5.603   9.697 -2.0030  1.3971 -1.3066
  143MOL0     H18819   1.605   5.529   9.809 -1.3859  3.0209 -0.7426
  143MOL0     H18820   1.578   5.604   9.646 -1.1148 -0.2056 -1.5895
  143MOL0     H18821   1.436   5.395   9.695  0.5269 -1.3692  1.0814
  143MOL0     H18822   1.579   5.304   9.684 -0.4892 -0.4419  1.3638
  143MOL0     H18823   1.485   5.283   9.465 -1.8697  0.5115 -0.8636
  143MOL0     H18824   1.598   5.417   9.440  0.8190  0.3586  0.8717
  143MOL0     H18825   1.421   5.579   9.507  2.1664  0.3978 -0.2113
  143MOL0     H18826   1.408   5.503   9.343  1.6114  2.6838  0.3317
  143MOL0     H18827   1.195   5.517   9.421  1.8243  0.2019 -0.3018
  143MOL0     H18828   1.247   5.484   9.589 -2.1262 -0.2255  0.8486
  143MOL0     H18829   1.153   5.303   9.262 -1.7890 -2.6459 -0.9578
  143MOL0     H18830   1.221   4.935   9.266 -1.4721 -1.9240 -2.6139
  143MOL0     H18831   1.195   5.077   9.174  2.2973 -0.0775  0.8487
  143MOL0     H18832   0.992   5.048   9.145  1.9617  0.5684 -1.0138
  143MOL0     H18833   0.940   5.038   9.310 -0.1821 -0.7702  0.9675
  143MOL0     H18834   1.026   4.830   9.114  1.9676  0.5329  0.7377
  143MOL0     H18835   1.064   4.798   9.288 -1.2577  0.3064  2.7579
  143MOL0     H18836   0.830   4.818   9.338 -1.0166  1.8591 -0.3395
  143MOL0     H18837   0.868   4.683   9.227 -0.8432  0.3258  0.1380
  143MOL0     H18838   0.654   4.691   9.355  0.6853  2.7040  0.1915
  143MOL0     H18839   0.435   4.598   9.360  0.6607 -0.6018 -0.4170
  143MOL0     H18840  -0.061   4.815   9.193  0.8415  0.6647 -3.1949
  143MOL0     H18841  -0.304   4.731   9.206  0.5316  0.0600  0.2156
  143MOL0     H18842  -0.496   4.689   9.094 -1.7821 -0.5817 -1.6653
  143MOL0     H18843  -0.478   4.593   9.243  3.5866 -0.0401 -0.9337
  143MOL0     H18844  -0.657   4.539   8.998  0.1937 -1.3927  0.4392
  143MOL0     H18845  -0.710   4.597   9.162  2.3380  1.5687  1.9631
  143MOL0     H18846  -0.756   4.360   9.155  0.1911  1.6077 -0.7999
  143MOL0     H18847  -0.597   4.363   9.231  1.0675  0.5701 -0.5768
  143MOL0     H18848  -0.672   4.310   8.932 -2.1917 -1.9548  0.8622
  143MOL0     H18849  -0.500   4.325   8.988 -0.2449  1.9736  1.9453
  143MOL0     H18850  -0.551   4.096   8.966 -1.4206 -0.2754 -0.2761
  143MOL0     H18851  -0.716   4.116   9.031  0.2998 -0.4172  0.0160
  143MOL0     H18852  -0.641   4.150   9.246 -1.0149  0.4798 -2.9006
  143MOL0     H18853  -0.468   4.152   9.207 -1.1908  0.4318  1.0827
  143MOL0     H18854  -0.592   3.912   9.289  0.8393 -1.9928  0.1851
  143MOL0     H18855  -0.619   3.903   9.119  0.1244 -3.3552  1.5372
  143MOL0     H18856  -0.355   3.990   9.116 -1.0437  0.4541 -0.6613
  143MOL0     H18857  -0.393   3.824   9.122 -0.5488 -0.0443  1.3870
  143MOL0     H18858  -0.205   4.404   8.958 -0.0105 -0.4532 -0.2160
  143MOL0     H18859   0.044   4.466   8.961  0.8311  2.0866  0.4171
  143MOL0     H18860   0.332   4.815   9.000  1.8651  1.6664 -0.9468
  143MOL0     H18861   0.570   4.882   8.982 -0.7639  1.3803 -0.0582
  143MOL0     H18862   2.148   5.282  10.091 -0.4572 -0.5345 -1.0898
  143MOL0     H18863   2.389   5.253  10.137 -1.3906  0.3040  0.6084
  143MOL0     H18864   2.844   5.509  10.110  1.7172 -0.5563  3.5136
  143MOL0     H18865   3.067   5.437  10.182 -2.6536  3.3069 -1.7397
  143MOL0     H18866   3.182   5.016  10.132  0.3168  0.2721 -1.6032
  143MOL0     H18867   3.304   5.062  10.245  0.1455 -1.1947 -0.8748
  143MOL0     H18868   3.381   5.046  10.007  3.6793  2.0146 -0.3673
  143MOL0     H18869   3.296   5.200   9.974 -0.0001 -1.4714 -0.2213
  143MOL0     H18870   3.418   5.308  10.139 -3.5961 -1.0343  0.1203
  143MOL0     H18871   3.512   5.261   9.991  0.2129 -1.4857  0.1176
  143MOL0     H18872   3.518   5.138  10.263 -1.3763  2.0873 -0.0039
  143MOL0     H18873   3.579   5.046  10.120 -2.4364 -0.4348 -0.9777
  143MOL0     H18874   3.914   5.276  10.117  0.6773 -0.8039 -0.5633
  143MOL0     H18875   2.996   5.033  10.058 -2.6242 -1.7528 -1.1635
  143MOL0     H18876   2.766   5.096   9.989 -0.4465 -0.2637 -0.2280
  144MOL0     O18877  10.724  10.184   9.073  0.1300  0.7349  0.3603
  144MOL0     C18878  10.772  10.073   9.058 -0.4778  0.6101 -1.0922
  144MOL0     O18879  10.713   9.952   9.092  0.0579 -0.4771  0.0080
  144MOL0     C18880  10.607   9.948   9.171 -0.2179 -0.2851 -0.3346
  144MOL0     C18881  10.581  10.032   9.280  0.0931  0.5119 -0.2787
  144MOL0     C18882  10.471  10.033   9.366 -0.0282 -0.7086 -1.2098
  144MOL0     C18883  10.378   9.938   9.347 -0.2069  0.2201 -0.8057
  144MOL0     O18884  10.280   9.936   9.439 -0.4085  0.1486  0.3968
  144MOL0     C18885  10.203   9.815   9.458  0.0696 -0.3929  0.0906
  144MOL0     C18886  10.130   9.844   9.582  0.8287  0.2097  0.5393
  144MOL0     C18887  10.027   9.740   9.618  0.0526  0.3511 -0.1555
  144MOL0     C18888   9.938   9.794   9.723  0.2336  0.3688 -0.5567
  144MOL0     C18889   9.824   9.701   9.760 -0.1566  0.2980  0.1415
  144MOL0     C18890   9.745   9.754   9.883  0.0143  0.2320  0.3054
  144MOL0     C18891   9.627   9.661   9.924 -0.1954  0.1429  0.1624
  144MOL0     C18892   9.685   9.547   9.997  0.0965  0.1510  0.4415
  144MOL0     N18893   9.584   9.453  10.041 -0.0823  0.0449 -0.7490
  144MOL0     C18894   9.472   9.412   9.968 -0.2608  0.0252 -0.2711
  144MOL0     C18895   9.395   9.351  10.059 -0.3260  0.3394 -0.6211
  144MOL0     C18896   9.252   9.300  10.024 -0.1772  0.9466  0.8187
  144MOL0     C18897   9.143   9.397  10.071  0.0741 -0.6140 -0.0514
  144MOL0     C18898   9.105   9.374  10.213  0.9387 -0.0943 -0.7271
  144MOL0     C18899   9.027   9.247  10.238  0.2239  0.5864  0.1159
  144MOL0     O18900   8.943   9.270  10.352 -0.2758 -0.8866 -0.5306
  144MOL0     C18901   8.814   9.212  10.355  0.1074 -0.3123  0.2777
  144MOL0     C18902   8.743   9.178  10.241  0.9840 -0.1326 -0.3935
  144MOL0     C18903   8.605   9.144  10.248 -0.2904  0.5169  0.3355
  144MOL0     C18904   8.538   9.119  10.368 -0.1461 -0.5165  0.0956
  144MOL0     C18905   8.401   9.065  10.370 -1.0122 -0.3531  0.9103
  144MOL0     O18906   8.327   9.070  10.250 -0.2231 -0.5611 -0.3307
  144MOL0     C18907   8.193   9.051  10.263 -0.6406 -0.0416  0.2748
  144MOL0     C18908   8.136   8.928  10.269  0.2106 -0.3596  0.7337
  144MOL0     C18909   7.992   8.909  10.262 -0.2656  0.9408 -0.0200
  144MOL0     C18910   7.908   9.022  10.243 -0.0971  0.4828 -0.7669
  144MOL0     O18911   7.767   8.994  10.249 -0.3285 -0.0366 -0.6180
  144MOL0     C18912   7.674   9.101  10.279 -0.1284 -0.3620  0.0569
  144MOL0     C18913   7.537   9.052  10.220  1.1341 -0.2693  0.2454
  144MOL0     C18914   7.481   8.930  10.292 -0.3725  0.7111 -0.0383
  144MOL0     C18915   7.325   8.940  10.296 -0.1168  1.0674  0.0416
  144MOL0     C18916   7.264   8.810  10.353  0.4781  1.0187  0.4764
  144MOL0     C18917   7.116   8.819  10.378  0.5131 -0.0359 -0.0905
  144MOL0     C18918   7.034   8.892  10.265 -0.5029  0.5114 -0.2742
  144MOL0     C18919   6.889   8.892  10.277  0.0837  0.1324 -0.9936
  144MOL0    Cl18920   6.835   8.960  10.433  0.6214 -0.3784  0.0389
  144MOL0     C18921   7.971   9.142  10.237  0.9126  0.0398 -0.1280
  144MOL0     C18922   8.111   9.161  10.232  0.5455  0.0012  0.3315
  144MOL0     O18923   8.359   9.041  10.481 -0.0091  0.5100  0.0537
  144MOL0     C18924   8.615   9.150  10.483 -0.1538  0.2453 -0.8576
  144MOL0     C18925   8.749   9.198  10.474 -0.2176 -0.0581  0.5641
  144MOL0     N18926   9.458   9.348  10.185  0.4521 -0.5634 -0.3834
  144MOL0     N18927   9.569   9.418  10.177  0.5261 -0.0134 -0.2339
  144MOL0     C18928  10.394   9.858   9.227  0.3536 -0.7329 -0.4492
  144MOL0     C18929  10.505   9.859   9.143 -0.3294 -0.1141  0.3211
  144MOL0     C18930  10.894  10.057   8.967 -0.1527  0.3049 -0.3619
  144MOL0     C18931  10.946   9.931   8.926  0.1426  0.2103 -0.1557
  144MOL0     C18932  11.062   9.916   8.844 -0.7740  0.1056 -0.3011
  144MOL0     C18933  11.115  10.029   8.783 -0.6464 -0.0010  0.3597
  144MOL0     O18934  11.212  10.044   8.697 -0.3611 -0.3123  0.4847
  144MOL0     C18935  11.270   9.923   8.637 -0.4729  0.4332  0.1905
  144MOL0     C18936  11.386   9.970   8.542  0.7168  0.1021 -0.1361
  144MOL0     C18937  11.499   9.870   8.514 -0.1984  0.4226 -0.5046
  144MOL0     C18938  11.609   9.878   8.622 -0.1923 -0.6851  0.4017
  144MOL0     C18939  11.726   9.808   8.565 -0.5112  0.1962 -0.6962
  144MOL0     C18940  11.824   9.743   8.544 -0.6166 -0.1759 -0.5776
  144MOL0     C18941  11.064  10.155   8.818 -0.1692  0.1484 -0.3596
  144MOL0     C18942  10.953  10.164   8.912 -0.9211 -0.3354 -0.4574
  144MOL0     H18943  10.653  10.112   9.294  2.0965 -0.8563 -1.9879
  144MOL0     H18944  10.473  10.103   9.448  2.8510 -2.2503  0.1950
  144MOL0     H18945  10.272   9.730   9.465 -0.7564 -1.1426 -0.5918
  144MOL0     H18946  10.133   9.787   9.378  2.6544 -0.0581 -2.4707
  144MOL0     H18947  10.082   9.941   9.569 -2.2041 -1.4047 -1.6031
  144MOL0     H18948  10.196   9.851   9.668  0.2823  0.5144  0.9369
  144MOL0     H18949  10.063   9.639   9.640 -2.6400 -1.2650 -2.5869
  144MOL0     H18950   9.962   9.732   9.531  0.0001  0.0053 -0.0841
  144MOL0     H18951   9.987   9.812   9.820 -0.6332 -1.3364  0.2444
  144MOL0     H18952   9.901   9.888   9.681 -1.0820  0.1615  0.0700
  144MOL0     H18953   9.877   9.605   9.767 -0.4375 -0.3586 -3.9509
  144MOL0     H18954   9.753   9.697   9.676 -1.3017  3.6267  0.8241
  144MOL0     H18955   9.696   9.848   9.856  2.0100  1.3820  0.5405
  144MOL0     H18956   9.817   9.778   9.962 -1.5519  5.0075  0.6071
  144MOL0     H18957   9.567   9.717   9.996  0.8813  0.7763  0.5956
  144MOL0     H18958   9.569   9.624   9.838  2.2339 -3.2988 -0.2205
  144MOL0     H18959   9.726   9.592  10.088 -1.7287 -2.0416  2.4537
  144MOL0     H18960   9.761   9.498   9.936  0.8493  0.8490  0.7869
  144MOL0     H18961   9.454   9.445   9.866  0.3169 -0.8729 -0.6801
  144MOL0     H18962   9.241   9.206  10.079  3.7271  1.1752  2.3012
  144MOL0     H18963   9.247   9.277   9.917  1.2771  0.3001  0.8654
  144MOL0     H18964   9.068   9.383   9.993  0.6938 -0.7186 -0.6368
  144MOL0     H18965   9.184   9.499  10.071 -1.4198  0.0178  0.5397
  144MOL0     H18966   9.196   9.372  10.274  0.4015  0.5977  0.1211
  144MOL0     H18967   9.045   9.451  10.262 -0.5636 -1.5873 -0.1126
  144MOL0     H18968   9.105   9.174  10.260 -0.1745 -0.2948 -1.3170
  144MOL0     H18969   8.983   9.209  10.146  1.2645  0.9457 -0.5503
  144MOL0     H18970   8.780   9.173  10.140  2.5602  1.3036  0.0901
  144MOL0     H18971   8.555   9.135  10.152  1.7644  1.6137 -0.9073
  144MOL0     H18972   8.198   8.839  10.263  0.6792  0.0451 -1.0818
  144MOL0     H18973   7.954   8.808  10.252  2.3115 -0.3192  1.6919
  144MOL0     H18974   7.705   9.195  10.230 -1.6073  0.6198  0.9369
  144MOL0     H18975   7.667   9.119  10.387 -0.6369  0.0970 -0.0486
  144MOL0     H18976   7.552   9.043  10.112  2.0909  1.2363  0.2283
  144MOL0     H18977   7.476   9.142  10.231  3.0731  1.2472 -0.7299
  144MOL0     H18978   7.525   8.911  10.390  1.9533 -4.0001 -1.6987
  144MOL0     H18979   7.515   8.852  10.223  1.0852 -0.7519  2.1827
  144MOL0     H18980   7.295   9.031  10.348  0.0225  1.9550 -1.3877
  144MOL0     H18981   7.282   8.952  10.196 -1.3635 -1.2947  0.2179
  144MOL0     H18982   7.318   8.775  10.442 -0.8030  0.5641  1.1009
  144MOL0     H18983   7.286   8.728  10.284  2.3056  2.4572 -0.7447
  144MOL0     H18984   7.103   8.871  10.473 -0.3551  1.7581 -1.1353
  144MOL0     H18985   7.078   8.717  10.387 -1.0734  0.3477 -1.8390
  144MOL0     H18986   7.049   8.999  10.251 -2.9437  1.1393  1.2372
  144MOL0     H18987   7.056   8.837  10.174  0.1046 -1.3174  0.9145
  144MOL0     H18988   6.856   8.789  10.285  1.1191 -0.3011 -2.0156
  144MOL0     H18989   6.830   8.936  10.196 -1.4086 -1.6693 -0.9297
  144MOL0     H18990   7.903   9.226  10.232  1.2224  0.2056 -2.6950
  144MOL0     H18991   8.130   9.265  10.210 -3.0569  1.3821  2.8190
  144MOL0     H18992   8.567   9.154  10.580  1.4589  1.7464 -0.0621
  144MOL0     H18993   8.808   9.245  10.551  4.2331 -0.5499 -2.1808
  144MOL0     H18994  10.322   9.778   9.214 -0.7873 -0.2986  2.5024
  144MOL0     H18995  10.514   9.806   9.048  2.7722 -0.0485  0.4725
  144MOL0     H18996  10.899   9.838   8.958  1.7126 -0.6687 -0.3335
  144MOL0     H18997  11.093   9.817   8.811 -2.1555 -0.4027 -0.1398
  144MOL0     H18998  11.198   9.872   8.572 -0.6966  1.1762 -0.1476
  144MOL0     H18999  11.310   9.852   8.710 -0.1914  0.6023  0.2029
  144MOL0     H19000  11.340  10.003   8.448 -0.4824 -2.3628 -0.5048
  144MOL0     H19001  11.432  10.058   8.588  2.8194 -0.9797 -0.0727
  144MOL0     H19002  11.543   9.902   8.420  0.5110 -0.6495 -0.5551
  144MOL0     H19003  11.458   9.769   8.501  0.1654 -0.1185  1.9609
  144MOL0     H19004  11.634   9.981   8.651  0.0536 -0.4098 -0.7032
  144MOL0     H19005  11.571   9.825   8.710 -0.3361  0.3455  0.9796
  144MOL0     H19006  11.908   9.678   8.554 -0.3635  0.2753  0.3580
  144MOL0     H19007  11.099  10.245   8.767  0.1487 -0.0968 -0.5802
  144MOL0     H19008  10.909  10.261   8.931 -2.5721 -1.0652 -0.4166
  145MOL0     O19009   0.442   2.643   2.279  0.3265  0.0633  0.2953
  145MOL0     C19010   0.479   2.761   2.268 -0.2808 -0.0980  0.2202
  145MOL0     O19011   0.397   2.865   2.256  0.4179  0.3743 -0.7372
  145MOL0     C19012   0.261   2.839   2.273  0.2546 -0.0175  0.4924
  145MOL0     C19013   0.215   2.807   2.402  0.2532  0.2069  0.5541
  145MOL0     C19014   0.081   2.768   2.421 -0.5884 -0.1772  0.1171
  145MOL0     C19015  -0.014   2.779   2.324 -0.6801 -0.5632 -0.0352
  145MOL0     O19016  -0.141   2.748   2.365 -0.3924  0.1677  0.3630
  145MOL0     C19017  -0.217   2.677   2.264 -0.3198  0.0596  0.2053
  145MOL0     C19018  -0.352   2.622   2.315  0.5392 -0.7131 -0.1792
  145MOL0     C19019  -0.452   2.723   2.368  0.1535 -0.2535  0.1244
  145MOL0     C19020  -0.597   2.688   2.336 -0.1771  0.2500  0.1627
  145MOL0     C19021  -0.683   2.819   2.340  0.1094 -0.1361 -0.2456
  145MOL0     C19022  -0.693   2.873   2.487 -0.2253  0.7486  0.6120
  145MOL0     C19023  -0.833   2.912   2.523 -0.1601  0.1919  0.9507
  145MOL0     C19024  -0.849   3.008   2.650 -0.8347 -0.1619  0.5507
  145MOL0     N19025  -0.986   3.039   2.672 -0.4371  0.0879  0.0706
  145MOL0     C19026  -1.079   2.944   2.705 -0.2512 -0.5818  0.1514
  145MOL0     C19027  -1.185   3.023   2.714  0.7745  0.6425 -0.6053
  145MOL0     C19028  -1.332   2.982   2.745 -0.0015 -0.1099 -0.7068
  145MOL0     C19029  -1.434   3.052   2.653 -0.1121  0.3634 -0.0101
  145MOL0     C19030  -1.582   2.993   2.655 -0.0091 -0.2519 -0.9381
  145MOL0     C19031  -1.672   3.075   2.570 -0.0068 -0.7042  0.0278
  145MOL0     O19032  -1.722   3.188   2.638 -0.0456  0.6075  0.4162
  145MOL0     C19033  -1.830   3.180   2.724  0.3262  0.2917  1.2233
  145MOL0     C19034  -1.882   3.301   2.760 -0.5093 -0.1193 -1.2466
  145MOL0     C19035  -2.011   3.312   2.818 -0.5174  0.6243 -1.0320
  145MOL0     C19036  -2.070   3.187   2.875 -0.5641  1.0194  1.3635
  145MOL0     C19037  -2.196   3.190   2.951 -0.0929  0.5886 -0.3597
  145MOL0     O19038  -2.256   3.073   2.968  0.5570 -1.0342  0.3773
  145MOL0     C19039  -2.373   3.069   3.048  0.0364  0.2594 -0.4012
  145MOL0     C19040  -2.487   3.017   2.995  0.4207 -0.4157  0.4716
  145MOL0     C19041  -2.612   3.024   3.061 -0.7621  0.0969  0.1248
  145MOL0     C19042  -2.608   3.081   3.190 -0.2192 -0.2129  0.2988
  145MOL0     O19043  -2.724   3.079   3.253  0.6732  0.3290 -0.3625
  145MOL0     C19044  -2.715   3.048   3.392 -0.2078 -0.2726 -0.6506
  145MOL0     C19045  -2.857   3.000   3.438 -0.0144 -0.1835  0.4414
  145MOL0     C19046  -2.878   2.867   3.368 -0.4353  0.4254 -0.4230
  145MOL0     C19047  -3.016   2.798   3.410 -0.1395  0.4756  0.1143
  145MOL0     C19048  -3.006   2.650   3.390  0.8966  0.0082  0.3389
  145MOL0     C19049  -3.054   2.603   3.244  0.1372 -0.3417 -0.0294
  145MOL0     C19050  -3.066   2.446   3.248  0.3063  0.5552 -0.1943
  145MOL0     C19051  -2.933   2.376   3.219 -0.6738  0.5041  0.1056
  145MOL0    Cl19052  -2.946   2.210   3.298  0.1409  0.4042 -0.2089
  145MOL0     C19053  -2.498   3.144   3.244 -0.0839  0.1286 -0.5577
  145MOL0     C19054  -2.376   3.136   3.175 -0.3428  0.3767 -1.3019
  145MOL0     O19055  -2.229   3.301   2.982 -0.3786 -0.1286 -0.3069
  145MOL0     C19056  -2.024   3.066   2.822 -0.0034 -0.6190  0.2185
  145MOL0     C19057  -1.902   3.059   2.752  0.6213 -0.9391  0.4552
  145MOL0     N19058  -1.159   3.158   2.689  0.3218 -0.0791  0.1760
  145MOL0     N19059  -1.033   3.169   2.676  0.2312  0.3201  0.9888
  145MOL0     C19060   0.031   2.816   2.191  0.3554  0.2315 -0.7876
  145MOL0     C19061   0.168   2.848   2.171  0.5978 -0.4159 -0.1024
  145MOL0     C19062   0.623   2.775   2.251  0.0182  0.4145 -0.6519
  145MOL0     C19063   0.678   2.904   2.206 -0.0904  0.6282 -0.0586
  145MOL0     C19064   0.810   2.928   2.200 -0.2104 -0.0623  0.0985
  145MOL0     C19065   0.905   2.824   2.235 -0.2335  0.6129  0.0107
  145MOL0     O19066   1.041   2.833   2.235 -0.2491  0.0246  0.1741
  145MOL0     C19067   1.093   2.967   2.219 -0.2156 -0.1013 -0.3567
  145MOL0     C19068   1.238   2.959   2.279  0.1546  0.0951 -0.3986
  145MOL0     C19069   1.319   3.084   2.250 -0.3123  0.5505  0.5060
  145MOL0     C19070   1.405   3.131   2.368 -0.3526  1.0715 -0.2085
  145MOL0     C19071   1.502   3.029   2.412 -0.0686 -0.0460  0.8758
  145MOL0     C19072   1.578   2.937   2.421  0.1401 -0.4133 -0.1913
  145MOL0     C19073   0.851   2.700   2.266 -0.1686  0.4538 -0.0582
  145MOL0     C19074   0.714   2.670   2.281 -0.2016  0.3762  0.3860
  145MOL0     H19075   0.283   2.801   2.486  1.7218 -2.7411 -0.7057
  145MOL0     H19076   0.043   2.737   2.518  2.3315 -0.1549  1.3682
  145MOL0     H19077  -0.161   2.589   2.231 -2.0329 -0.7971 -0.5648
  145MOL0     H19078  -0.235   2.732   2.171 -1.1530 -0.1071  0.2596
  145MOL0     H19079  -0.345   2.542   2.390 -0.4633  0.0286  0.7335
  145MOL0     H19080  -0.398   2.581   2.225 -1.8465  0.2014  0.5680
  145MOL0     H19081  -0.431   2.817   2.316 -2.1897  0.7396  0.8162
  145MOL0     H19082  -0.445   2.726   2.477 -1.1827 -0.8056  0.2493
  145MOL0     H19083  -0.595   2.645   2.236 -0.1536  0.0915  0.2309
  145MOL0     H19084  -0.649   2.614   2.398  1.0965  0.9329  2.1513
  145MOL0     H19085  -0.783   2.798   2.300 -0.2734  0.6932  0.2571
  145MOL0     H19086  -0.645   2.905   2.285  0.2856 -0.0116  0.0655
  145MOL0     H19087  -0.629   2.960   2.505  1.8407 -1.0406  2.5561
  145MOL0     H19088  -0.664   2.791   2.553  0.5897 -2.0834 -2.9720
  145MOL0     H19089  -0.873   2.972   2.440  0.0707  1.7902  1.9607
  145MOL0     H19090  -0.892   2.820   2.522  1.3257 -0.9653 -3.3562
  145MOL0     H19091  -0.798   3.104   2.638 -4.1405  1.7503  0.4931
  145MOL0     H19092  -0.809   2.964   2.741 -0.1919  1.8628  1.3181
  145MOL0     H19093  -1.076   2.836   2.713 -1.7979 -0.6793 -0.1234
  145MOL0     H19094  -1.347   3.019   2.847 -4.1859  0.7259 -1.4659
  145MOL0     H19095  -1.329   2.872   2.751 -0.4809 -0.0800  0.5019
  145MOL0     H19096  -1.396   3.044   2.551 -0.9261 -0.0976 -0.2890
  145MOL0     H19097  -1.437   3.160   2.672  1.6378  0.5692 -0.6815
  145MOL0     H19098  -1.570   2.888   2.626  2.5537  0.1180 -1.4674
  145MOL0     H19099  -1.630   2.985   2.753 -1.1298 -1.3914 -1.5505
  145MOL0     H19100  -1.744   3.005   2.526 -2.0346  1.4338 -0.2125
  145MOL0     H19101  -1.619   3.118   2.484 -0.6247 -0.9363 -0.4769
  145MOL0     H19102  -1.818   3.387   2.743  1.6513 -1.1661  0.9482
  145MOL0     H19103  -2.054   3.406   2.850  2.7883  2.0971 -0.5088
  145MOL0     H19104  -2.473   2.978   2.894  0.6857  1.8104 -0.4115
  145MOL0     H19105  -2.705   2.981   3.025  0.1276 -2.8870  1.0763
  145MOL0     H19106  -2.714   3.147   3.439 -1.0646  0.6190 -2.3955
  145MOL0     H19107  -2.626   2.987   3.411 -0.2455 -1.4806 -3.7266
  145MOL0     H19108  -2.925   3.076   3.399 -0.0780  0.5378  1.9017
  145MOL0     H19109  -2.873   2.993   3.546 -1.6101 -1.0143  0.1925
  145MOL0     H19110  -2.798   2.798   3.398 -0.3805  0.2387 -0.9781
  145MOL0     H19111  -2.872   2.884   3.260 -1.8911  0.0522 -0.5843
  145MOL0     H19112  -3.029   2.809   3.518  2.1689 -5.8533  1.4752
  145MOL0     H19113  -3.101   2.835   3.353  1.8023  1.2839 -2.4803
  145MOL0     H19114  -3.063   2.597   3.466 -1.0013 -0.3491 -1.2390
  145MOL0     H19115  -2.904   2.612   3.399  0.4270 -3.1789 -4.1463
  145MOL0     H19116  -2.980   2.646   3.176  1.5034  0.6774  2.0160
  145MOL0     H19117  -3.152   2.650   3.227 -0.3274 -1.7435 -1.5287
  145MOL0     H19118  -3.099   2.425   3.350  0.2793  0.4136 -0.2320
  145MOL0     H19119  -3.147   2.416   3.181 -0.5570 -0.9284  1.4299
  145MOL0     H19120  -2.857   2.426   3.279 -2.3184  0.2027  2.5973
  145MOL0     H19121  -2.896   2.382   3.117  1.5889  0.6855  0.8829
  145MOL0     H19122  -2.499   3.191   3.342 -1.7861  1.6406 -1.2154
  145MOL0     H19123  -2.284   3.178   3.215 -0.1099 -0.7956 -0.5789
  145MOL0     H19124  -2.072   2.971   2.844 -0.3443 -0.1975  1.3501
  145MOL0     H19125  -1.868   2.959   2.729 -1.4136 -2.1094  2.1871
  145MOL0     H19126  -0.029   2.841   2.104  1.0658 -0.6835 -1.5570
  145MOL0     H19127   0.206   2.881   2.075  1.9659 -0.6116  0.3437
  145MOL0     H19128   0.623   2.993   2.178 -2.6560 -0.7098  0.4076
  145MOL0     H19129   0.843   3.028   2.173 -2.5190  0.9043  0.5374
  145MOL0     H19130   1.041   3.036   2.286  0.7354 -0.8781  1.2354
  145MOL0     H19131   1.099   2.997   2.114  2.5280 -1.3470 -0.6608
  145MOL0     H19132   1.219   2.950   2.386 -1.1815 -1.2483 -0.7207
  145MOL0     H19133   1.283   2.867   2.240 -0.2067  0.0111 -0.6224
  145MOL0     H19134   1.256   3.170   2.227  1.7563  1.7530 -1.0030
  145MOL0     H19135   1.380   3.058   2.163 -0.5253  2.9988 -0.4629
  145MOL0     H19136   1.462   3.219   2.336 -0.0109  0.9854  0.1634
  145MOL0     H19137   1.344   3.152   2.456  0.4427 -0.5267  0.7646
  145MOL0     H19138   1.658   2.866   2.420  0.7082  0.2225 -0.4005
  145MOL0     H19139   0.927   2.627   2.293  0.3137 -0.2478 -2.9103
  145MOL0     H19140   0.672   2.573   2.303 -0.6438  0.5052  0.1136
  146MOL0     O19141   0.288   1.952   4.090  0.6966 -0.4060  0.5683
  146MOL0     C19142   0.316   1.892   4.196 -0.4409  0.4758  0.5364
  146MOL0     O19143   0.242   1.820   4.280 -0.5679 -0.1757 -0.5635
  146MOL0     C19144   0.111   1.793   4.258 -0.5807 -0.6825  0.1615
  146MOL0     C19145   0.071   1.667   4.308 -0.1840 -0.6114 -0.3123
  146MOL0     C19146  -0.065   1.627   4.298 -0.0637  1.1129 -0.0270
  146MOL0     C19147  -0.156   1.705   4.229 -0.4501  0.5919 -0.1789
  146MOL0     O19148  -0.278   1.639   4.224  0.3177 -0.4760  0.3394
  146MOL0     C19149  -0.385   1.712   4.153  0.4051  0.1119  0.4538
  146MOL0     C19150  -0.500   1.632   4.118  0.3497 -0.2693  0.1070
  146MOL0     C19151  -0.457   1.526   4.014  0.2268  0.2790  0.0169
  146MOL0     C19152  -0.572   1.452   3.938  0.7352 -0.0275 -0.5126
  146MOL0     C19153  -0.519   1.341   3.847  0.8042  0.1280 -0.0210
  146MOL0     C19154  -0.634   1.286   3.763 -0.3351  0.0039  0.5346
  146MOL0     C19155  -0.583   1.218   3.638  0.1492 -0.4819  0.2290
  146MOL0     C19156  -0.491   1.098   3.678  0.6051  0.1377 -0.3707
  146MOL0     N19157  -0.476   1.022   3.562 -0.3728 -1.3675  0.7230
  146MOL0     C19158  -0.356   0.966   3.519 -0.2196 -0.3620  0.2803
  146MOL0     C19159  -0.385   0.877   3.419 -0.4452 -0.3458 -0.3943
  146MOL0     C19160  -0.297   0.784   3.338 -0.4724 -0.2054 -0.1866
  146MOL0     C19161  -0.186   0.721   3.434 -0.0199 -0.0359  1.0651
  146MOL0     C19162  -0.052   0.790   3.425  0.6382 -0.0703 -0.0294
  146MOL0     C19163   0.064   0.745   3.509 -0.1306  0.0117 -0.0153
  146MOL0     O19164   0.092   0.601   3.491 -0.1690  0.2756  0.1268
  146MOL0     C19165   0.212   0.557   3.542  0.2047 -0.3294 -0.8005
  146MOL0     C19166   0.213   0.506   3.676 -0.7892 -0.0772 -0.0011
  146MOL0     C19167   0.334   0.461   3.738  1.0905  0.7923 -0.3862
  146MOL0     C19168   0.452   0.468   3.666 -0.3089 -0.3007  0.1220
  146MOL0     C19169   0.573   0.404   3.721  0.0137 -0.5245 -1.0535
  146MOL0     O19170   0.664   0.349   3.636 -0.1584 -0.4086 -0.3044
  146MOL0     C19171   0.795   0.325   3.672  0.7251 -0.5061  0.0880
  146MOL0     C19172   0.865   0.385   3.778  0.2801 -0.1803  0.3668
  146MOL0     C19173   0.989   0.337   3.820  0.0502  0.1331  0.2944
  146MOL0     C19174   1.047   0.238   3.744 -0.4832 -0.0722 -0.3483
  146MOL0     O19175   1.174   0.192   3.767 -0.3294  0.2867 -0.1472
  146MOL0     C19176   1.269   0.288   3.813  0.5543  1.1581 -0.5536
  146MOL0     C19177   1.402   0.258   3.768 -0.3085  0.3313  0.0746
  146MOL0     C19178   1.410   0.258   3.610 -0.1947  0.4430 -0.1860
  146MOL0     C19179   1.551   0.228   3.559 -0.2254  0.8739  0.3383
  146MOL0     C19180   1.571   0.260   3.404 -0.7433 -0.4213  0.8876
  146MOL0     C19181   1.704   0.319   3.359 -0.3475 -0.1427 -0.1831
  146MOL0     C19182   1.824   0.224   3.377 -0.4684  0.1600  0.0521
  146MOL0     C19183   1.956   0.283   3.335 -0.4340  0.2287 -0.3141
  146MOL0    Cl19184   2.104   0.190   3.371  0.3791 -0.3410  0.3308
  146MOL0     C19185   0.975   0.182   3.642 -0.7167  0.0230 -0.4163
  146MOL0     C19186   0.848   0.217   3.612 -0.2777  0.3875  0.3550
  146MOL0     O19187   0.580   0.395   3.846 -0.2333  0.1977  0.3257
  146MOL0     C19188   0.456   0.531   3.543 -0.4452  0.3682  0.4888
  146MOL0     C19189   0.335   0.579   3.483 -0.8756  0.0847  0.1449
  146MOL0     N19190  -0.518   0.883   3.399 -0.4011  0.2930  0.1732
  146MOL0     N19191  -0.570   0.958   3.489 -0.2074 -0.5035  0.6438
  146MOL0     C19192  -0.124   1.833   4.191  0.6304  0.2378  0.4838
  146MOL0     C19193   0.006   1.877   4.212  0.2922 -0.3195  0.6070
  146MOL0     C19194   0.463   1.891   4.229 -1.2038  0.2775 -0.5398
  146MOL0     C19195   0.562   1.962   4.160  0.6028 -0.4982  0.2564
  146MOL0     C19196   0.701   1.968   4.195  0.0636 -0.1168  0.7242
  146MOL0     C19197   0.736   1.902   4.313  0.5131  0.0347  0.0067
  146MOL0     O19198   0.860   1.906   4.369 -0.3913 -0.6639  0.1513
  146MOL0     C19199   0.965   1.983   4.306  0.1190 -0.0695 -0.2038
  146MOL0     C19200   1.067   2.023   4.413  0.3719  0.8408  0.4909
  146MOL0     C19201   1.002   2.097   4.535 -0.1052  0.2697  0.3270
  146MOL0     C19202   0.976   1.998   4.650  0.0917 -0.2216 -0.4455
  146MOL0     C19203   0.915   2.050   4.771  0.4011 -0.5530 -0.4027
  146MOL0     C19204   0.871   2.082   4.881  0.1512  0.0310 -0.1919
  146MOL0     C19205   0.647   1.828   4.389  0.2631 -0.2358 -0.1895
  146MOL0     C19206   0.520   1.814   4.337  0.6161  0.1925 -0.4510
  146MOL0     H19207   0.143   1.599   4.351  1.7035  1.4797 -0.0236
  146MOL0     H19208  -0.090   1.536   4.350  1.1145  1.8620  1.9797
  146MOL0     H19209  -0.355   1.759   4.059  0.8263  0.1551  0.6079
  146MOL0     H19210  -0.415   1.790   4.223  2.4694  0.0117  1.5186
  146MOL0     H19211  -0.567   1.704   4.071 -0.0024  0.0623  1.1023
  146MOL0     H19212  -0.556   1.584   4.199 -2.0136  0.5392 -0.9325
  146MOL0     H19213  -0.389   1.450   4.054 -0.9416 -1.0400 -0.4314
  146MOL0     H19214  -0.394   1.582   3.945  1.1306  1.8946  2.0519
  146MOL0     H19215  -0.640   1.405   4.010 -0.3162  2.3462  0.1644
  146MOL0     H19216  -0.626   1.524   3.875 -1.9525 -0.7103  0.8198
  146MOL0     H19217  -0.477   1.264   3.912  0.0771 -0.1451  0.1300
  146MOL0     H19218  -0.448   1.395   3.783  0.5927  2.4412  1.5987
  146MOL0     H19219  -0.696   1.369   3.727 -0.6176 -0.4625 -0.0865
  146MOL0     H19220  -0.687   1.223   3.835  1.8828  1.8250  4.0656
  146MOL0     H19221  -0.667   1.193   3.572  1.2797 -2.8936 -0.4420
  146MOL0     H19222  -0.529   1.300   3.590 -1.3983  1.0463  0.9718
  146MOL0     H19223  -0.544   1.046   3.759 -0.1222  0.4213 -0.6545
  146MOL0     H19224  -0.394   1.137   3.709 -0.0775  2.5879 -1.1344
  146MOL0     H19225  -0.256   0.987   3.557  0.1779 -0.3314 -0.7533
  146MOL0     H19226  -0.249   0.830   3.251 -0.0650 -0.2989 -0.0124
  146MOL0     H19227  -0.362   0.700   3.310 -1.0071 -0.0925  0.6839
  146MOL0     H19228  -0.174   0.623   3.388  3.7198  0.9105 -0.2780
  146MOL0     H19229  -0.215   0.712   3.539 -0.7818 -0.3287  0.8380
  146MOL0     H19230  -0.018   0.766   3.323  1.8123  0.5630  0.1982
  146MOL0     H19231  -0.077   0.895   3.437 -1.2455 -0.4987  0.0336
  146MOL0     H19232   0.050   0.760   3.616  1.9333 -0.7583  0.3990
  146MOL0     H19233   0.150   0.800   3.470  1.3665 -2.1541  0.0618
  146MOL0     H19234   0.122   0.496   3.734 -2.6043  2.0376 -2.2697
  146MOL0     H19235   0.334   0.416   3.836  2.0334 -0.9985 -1.1477
  146MOL0     H19236   0.821   0.458   3.846  1.1766  2.7891 -2.0009
  146MOL0     H19237   1.023   0.371   3.918 -1.6213 -0.8143  1.2573
  146MOL0     H19238   1.267   0.289   3.923 -0.7781 -1.4527 -0.4746
  146MOL0     H19239   1.234   0.387   3.784  0.6209  1.3373 -0.0414
  146MOL0     H19240   1.415   0.156   3.804 -5.3254 -1.1912 -1.4903
  146MOL0     H19241   1.478   0.325   3.808  2.8700 -1.6987 -2.1071
  146MOL0     H19242   1.370   0.349   3.565  1.2654  0.6202 -1.1908
  146MOL0     H19243   1.335   0.185   3.577  1.3176 -0.5272 -1.6057
  146MOL0     H19244   1.624   0.284   3.618  0.5864  1.4113 -1.1170
  146MOL0     H19245   1.574   0.122   3.569 -0.1984  1.0391  2.3369
  146MOL0     H19246   1.494   0.327   3.364 -0.7109  0.7380  2.6534
  146MOL0     H19247   1.562   0.171   3.342  0.8136  2.5178 -4.1214
  146MOL0     H19248   1.721   0.413   3.412  4.0527 -1.1807  0.6187
  146MOL0     H19249   1.700   0.354   3.256 -0.5326  0.3404 -0.0138
  146MOL0     H19250   1.834   0.197   3.482  0.3919  0.7975  0.1401
  146MOL0     H19251   1.809   0.131   3.321  0.3887 -0.5707  0.9899
  146MOL0     H19252   1.974   0.382   3.380 -1.8875 -0.9194  3.2153
  146MOL0     H19253   1.955   0.286   3.226 -1.5584 -0.9144 -0.3613
  146MOL0     H19254   1.023   0.109   3.577  0.8627  0.7847 -0.1624
  146MOL0     H19255   0.804   0.168   3.525  2.9222  1.5674 -2.1016
  146MOL0     H19256   0.544   0.536   3.479 -2.1930  1.1857 -1.9745
  146MOL0     H19257   0.332   0.624   3.384 -0.5083  0.2810  0.2212
  146MOL0     H19258  -0.197   1.899   4.145  0.8842 -0.2660 -0.6966
  146MOL0     H19259   0.036   1.969   4.164 -2.4343  0.7872  0.8949
  146MOL0     H19260   0.523   2.017   4.075  0.6382 -1.0195 -0.1069
  146MOL0     H19261   0.775   2.025   4.141  0.1929 -0.4321  0.5651
  146MOL0     H19262   0.930   2.074   4.257 -0.8749 -1.1032 -1.5028
  146MOL0     H19263   1.004   1.915   4.229 -3.4705 -1.7572 -0.7020
  146MOL0     H19264   1.125   1.936   4.446  1.8210  0.4896 -2.6442
  146MOL0     H19265   1.145   2.089   4.374  1.8858 -0.4215  1.2590
  146MOL0     H19266   0.904   2.139   4.511 -0.6048 -0.8644  0.3398
  146MOL0     H19267   1.063   2.178   4.576  2.0213 -1.2346  0.3310
  146MOL0     H19268   0.927   1.904   4.621 -2.6284 -0.7581  4.6972
  146MOL0     H19269   1.070   1.958   4.688 -0.8309  0.3150  2.7020
  146MOL0     H19270   0.844   2.106   4.982  0.8694 -0.1118  0.0368
  146MOL0     H19271   0.677   1.776   4.480 -1.6757 -0.0831  0.5738
  146MOL0     H19272   0.458   1.757   4.406 -0.0966  0.9969 -0.4143
  147MOL0     O19273   4.730   0.322   2.257  0.3119 -0.0138 -0.3050
  147MOL0     C19274   4.687   0.242   2.169 -0.6699  0.0543  0.5091
  147MOL0     O19275   4.614   0.277   2.054  0.1709  1.0830  0.3483
  147MOL0     C19276   4.580   0.405   2.019 -0.3698  0.1674 -0.1339
  147MOL0     C19277   4.674   0.507   2.033  0.3187 -0.6608  0.3032
  147MOL0     C19278   4.636   0.633   2.005 -0.0660  0.1842 -0.8235
  147MOL0     C19279   4.508   0.653   1.967  0.3445 -0.1773  0.7869
  147MOL0     O19280   4.487   0.785   1.934  0.0338  0.1711 -0.5837
  147MOL0     C19281   4.353   0.844   1.964 -0.1078 -0.0576 -0.4678
  147MOL0     C19282   4.353   0.993   1.932  0.2913 -0.6597  0.0471
  147MOL0     C19283   4.239   1.065   2.012  0.3356 -0.0121 -0.1889
  147MOL0     C19284   4.248   1.217   1.989  0.1709 -0.2597  0.0677
  147MOL0     C19285   4.387   1.276   2.019 -0.6098 -0.2111 -0.3812
  147MOL0     C19286   4.383   1.420   2.004  0.2220 -0.9829  0.1782
  147MOL0     C19287   4.343   1.491   2.130  0.2218  0.4177 -0.8402
  147MOL0     C19288   4.331   1.644   2.125  1.1190 -1.0302  0.5731
  147MOL0     N19289   4.190   1.686   2.113 -0.0872  0.4421  0.3434
  147MOL0     C19290   4.088   1.665   2.204  0.2886 -0.3406 -0.6456
  147MOL0     C19291   3.972   1.700   2.142 -0.3888  0.0400 -0.6486
  147MOL0     C19292   3.841   1.697   2.205  0.3834 -0.0212  0.2288
  147MOL0     C19293   3.832   1.795   2.326  0.0738 -0.5333 -0.3511
  147MOL0     C19294   3.694   1.822   2.370  0.4389 -0.4006  0.0332
  147MOL0     C19295   3.628   1.698   2.435  0.3277  0.1145  0.0724
  147MOL0     O19296   3.495   1.733   2.488 -0.3196  0.6136 -0.1089
  147MOL0     C19297   3.420   1.644   2.562  0.5381  0.2579  0.6339
  147MOL0     C19298   3.472   1.518   2.609 -0.1912 -0.3232  0.5618
  147MOL0     C19299   3.396   1.426   2.684  0.2749  0.1415 -0.4559
  147MOL0     C19300   3.266   1.465   2.723 -0.3918 -0.5336  0.0819
  147MOL0     C19301   3.194   1.377   2.815  0.5113  0.2152 -0.8618
  147MOL0     O19302   3.259   1.267   2.857  0.3462  0.2324 -0.4823
  147MOL0     C19303   3.182   1.175   2.925  1.5416 -0.5446 -0.2798
  147MOL0     C19304   3.214   1.115   3.046 -0.0153 -0.7402  0.0496
  147MOL0     C19305   3.138   1.004   3.103  0.0165  0.2508 -0.6526
  147MOL0     C19306   3.021   0.960   3.039  0.4144  0.0101  0.8133
  147MOL0     O19307   2.947   0.854   3.093  0.2881 -0.1002  0.1891
  147MOL0     C19308   2.803   0.876   3.105 -0.2039 -0.0568  0.2465
  147MOL0     C19309   2.770   0.973   3.211 -0.3089 -0.1350  0.5039
  147MOL0     C19310   2.638   0.943   3.287  0.5818  0.4805  0.8216
  147MOL0     C19311   2.521   1.002   3.213  0.4330  0.1334  0.2229
  147MOL0     C19312   2.390   0.957   3.283 -0.1872 -0.5483  0.2935
  147MOL0     C19313   2.272   0.996   3.191  0.6105 -0.0462 -0.3128
  147MOL0     C19314   2.150   0.970   3.281 -0.1353  0.6177  0.1253
  147MOL0     C19315   2.013   0.980   3.217  0.5769  0.0584  0.0967
  147MOL0    Cl19316   1.957   1.146   3.243  0.0228 -0.3950 -0.3754
  147MOL0     C19317   2.985   1.028   2.923  0.3686  1.3034 -0.1090
  147MOL0     C19318   3.058   1.135   2.870 -0.1127 -0.4871 -0.0262
  147MOL0     O19319   3.085   1.418   2.859 -0.4647 -0.3847  0.3537
  147MOL0     C19320   3.208   1.584   2.677  0.1248 -0.1155  0.9978
  147MOL0     C19321   3.289   1.675   2.602  0.4074 -0.2384  0.3090
  147MOL0     N19322   4.008   1.750   2.009  0.1340  0.6473  0.2570
  147MOL0     N19323   4.136   1.729   1.995  0.7693  0.0072  0.1431
  147MOL0     C19324   4.411   0.564   1.945 -0.1988 -0.1621 -0.0817
  147MOL0     C19325   4.449   0.437   1.968 -0.6042 -0.3413  0.6664
  147MOL0     C19326   4.703   0.086   2.194  0.1730  0.4464  0.4407
  147MOL0     C19327   4.629  -0.006   2.117  0.0756 -0.4493  0.4840
  147MOL0     C19328   4.645  -0.143   2.145  0.1180  0.1902  0.2820
  147MOL0     C19329   4.736  -0.192   2.231  0.6581  0.1408 -0.1246
  147MOL0     O19330   4.752  -0.331   2.232  0.3812 -0.1831  0.0183
  147MOL0     C19331   4.874  -0.391   2.258  0.0973  0.1282 -0.1839
  147MOL0     C19332   4.912  -0.399   2.396 -0.1300 -0.4926 -0.2262
  147MOL0     C19333   5.062  -0.365   2.412  0.2887 -0.2742  0.5036
  147MOL0     C19334   5.098  -0.324   2.561  0.1138  0.1705  0.7643
  147MOL0     C19335   5.237  -0.271   2.553 -0.9696  0.0256  0.7609
  147MOL0     C19336   5.356  -0.245   2.541 -0.4942 -0.2527  0.6025
  147MOL0     C19337   4.825  -0.105   2.293  0.5534 -0.8097 -0.0444
  147MOL0     C19338   4.801   0.038   2.284  0.8418  0.6890  0.5847
  147MOL0     H19339   4.771   0.491   2.078  2.9975  2.4421 -3.7039
  147MOL0     H19340   4.704   0.717   2.020  0.0107  0.0586 -0.4571
  147MOL0     H19341   4.330   0.830   2.070 -0.2326 -2.2827 -0.7439
  147MOL0     H19342   4.277   0.794   1.904  0.5016 -1.7918  0.1451
  147MOL0     H19343   4.343   1.011   1.824  0.2042  1.6041  0.3727
  147MOL0     H19344   4.451   1.026   1.968  1.0969 -2.4074 -0.4515
  147MOL0     H19345   4.240   1.033   2.117  1.7461 -2.7096 -0.9448
  147MOL0     H19346   4.145   1.027   1.971  0.3383 -1.0030  0.6834
  147MOL0     H19347   4.232   1.249   1.886  2.5904  1.1593  0.0753
  147MOL0     H19348   4.175   1.260   2.059 -0.6238 -0.6927 -0.4716
  147MOL0     H19349   4.461   1.235   1.949 -1.2362 -1.2852 -0.4478
  147MOL0     H19350   4.422   1.256   2.121  1.1461  2.4210 -0.3987
  147MOL0     H19351   4.317   1.449   1.921 -2.0097 -0.0873  2.1595
  147MOL0     H19352   4.488   1.447   1.988  0.3840 -1.6458  0.1154
  147MOL0     H19353   4.251   1.439   2.160 -0.3268  0.9605 -1.5366
  147MOL0     H19354   4.414   1.460   2.207 -2.0159 -0.7298  0.8797
  147MOL0     H19355   4.383   1.689   2.039  0.5937  0.8091  1.1662
  147MOL0     H19356   4.388   1.683   2.210  2.7887  0.7897 -1.2578
  147MOL0     H19357   4.105   1.627   2.304  2.1669  2.9042  0.4013
  147MOL0     H19358   3.830   1.593   2.238 -1.8851 -0.6654 -2.2369
  147MOL0     H19359   3.765   1.732   2.135 -1.9687 -1.1624  2.0219
  147MOL0     H19360   3.878   1.891   2.300  0.1935 -0.6370 -0.5283
  147MOL0     H19361   3.888   1.764   2.415  0.4221  0.2301 -0.2945
  147MOL0     H19362   3.690   1.905   2.441 -1.5062  0.8322 -1.4140
  147MOL0     H19363   3.640   1.866   2.286 -0.6131 -0.4613  0.6657
  147MOL0     H19364   3.692   1.662   2.516 -1.3452 -1.7050  0.6389
  147MOL0     H19365   3.618   1.616   2.364  0.2771 -1.3502  1.7129
  147MOL0     H19366   3.573   1.481   2.593  0.7012  2.1642  0.1266
  147MOL0     H19367   3.433   1.328   2.712 -0.9891 -0.2511 -0.0946
  147MOL0     H19368   3.294   1.168   3.097 -0.8524 -0.2617  0.9081
  147MOL0     H19369   3.165   0.956   3.197  1.2939  1.0543 -0.5969
  147MOL0     H19370   2.768   0.779   3.140  1.1209  0.6199  3.8774
  147MOL0     H19371   2.758   0.902   3.009 -2.4668 -0.2353  1.2048
  147MOL0     H19372   2.761   1.075   3.172 -2.5005 -0.3002  0.4669
  147MOL0     H19373   2.855   0.973   3.280  1.0398 -0.2615 -1.0892
  147MOL0     H19374   2.647   0.993   3.385  0.6981  1.6503  0.2344
  147MOL0     H19375   2.623   0.836   3.300 -0.9194  0.7996  2.0804
  147MOL0     H19376   2.536   1.110   3.210 -0.6743  0.3313  0.9710
  147MOL0     H19377   2.523   0.960   3.112 -0.9008 -1.4179  0.7962
  147MOL0     H19378   2.385   1.004   3.382 -0.1731 -1.3449  0.6787
  147MOL0     H19379   2.390   0.849   3.299 -0.5229 -0.5757  0.1187
  147MOL0     H19380   2.267   0.931   3.103 -1.0378 -0.8326  0.3282
  147MOL0     H19381   2.286   1.101   3.164  3.4430  0.5005  2.5790
  147MOL0     H19382   2.150   0.869   3.321  0.7936  1.0910  1.3742
  147MOL0     H19383   2.147   1.035   3.369  0.8795 -1.3373  1.6680
  147MOL0     H19384   1.941   0.927   3.280 -0.5500  0.2628 -0.9744
  147MOL0     H19385   2.002   0.940   3.116  0.3757 -2.2984  1.0023
  147MOL0     H19386   2.905   0.991   2.860  0.4260 -0.7327  0.9477
  147MOL0     H19387   3.039   1.175   2.770  0.4483 -0.3718 -0.0911
  147MOL0     H19388   3.107   1.616   2.698 -0.2289  0.6062 -1.5389
  147MOL0     H19389   3.246   1.771   2.575  0.3532 -0.3219  0.0905
  147MOL0     H19390   4.314   0.599   1.911 -0.8558  0.1936  2.0296
  147MOL0     H19391   4.386   0.349   1.954 -0.1208 -0.6662  0.5046
  147MOL0     H19392   4.558   0.025   2.041  1.8726  0.8364 -0.7666
  147MOL0     H19393   4.582  -0.202   2.080 -1.4300  3.2963 -1.2863
  147MOL0     H19394   4.950  -0.331   2.206  1.4006 -0.8920  0.4954
  147MOL0     H19395   4.871  -0.492   2.217 -0.6994  0.6626 -1.5082
  147MOL0     H19396   4.860  -0.325   2.457 -1.6170 -0.2943 -1.6857
  147MOL0     H19397   4.899  -0.495   2.446  0.4410 -0.2454  0.4113
  147MOL0     H19398   5.083  -0.280   2.347 -0.7392 -1.1173 -0.9934
  147MOL0     H19399   5.132  -0.439   2.373  1.0056  1.4176 -1.6407
  147MOL0     H19400   5.040  -0.242   2.604 -1.9350 -0.1623 -1.2309
  147MOL0     H19401   5.089  -0.416   2.619 -0.2781 -1.8175 -2.2441
  147MOL0     H19402   5.456  -0.227   2.508 -0.7676 -2.3871 -1.7015
  147MOL0     H19403   4.906  -0.138   2.357  0.2293 -1.0129  0.2704
  147MOL0     H19404   4.869   0.098   2.345  0.5246  0.6903  0.9393
  148MOL0     O19405  10.876   5.763  10.433  0.0182 -0.2337 -0.7400
  148MOL0     C19406  10.808   5.663  10.402  0.2926  0.4541  0.0570
  148MOL0     O19407  10.668   5.662  10.386  0.0365 -0.2152  0.2246
  148MOL0     C19408  10.589   5.774  10.408  0.4147  0.7733  0.1567
  148MOL0     C19409  10.627   5.913  10.415 -0.0335  0.1461  0.4236
  148MOL0     C19410  10.529   6.011  10.448 -0.8379  0.5780  0.6950
  148MOL0     C19411  10.394   5.973  10.473 -0.8200 -0.2983 -0.7985
  148MOL0     O19412  10.295   6.057  10.494  0.0738 -0.1608 -0.2813
  148MOL0     C19413  10.316   6.145  10.612 -0.1224  0.1561  0.1505
  148MOL0     C19414  10.268   6.071  10.738  0.4905  0.2505  0.7829
  148MOL0     C19415  10.242   6.172  10.845 -0.5971  0.2536  0.3840
  148MOL0     C19416  10.208   6.089  10.971  0.4961 -0.2274  0.0632
  148MOL0     C19417  10.136   6.160  11.091  0.1929  0.5186  0.0772
  148MOL0     C19418  10.213   6.286  11.129  0.3963  0.5183  0.8932
  148MOL0     C19419  10.158   6.350  11.256  0.2429  0.3267  0.0606
  148MOL0     C19420  10.003   6.378  11.258  0.4536 -0.8898  0.2141
  148MOL0     N19421   9.975   6.486  11.344  0.3335 -0.1234 -0.0978
  148MOL0     C19422   9.917   6.472  11.471 -0.0743  1.0274 -0.1896
  148MOL0     C19423   9.868   6.589  11.507  0.3046 -0.7631  0.5283
  148MOL0     C19424   9.796   6.617  11.639 -0.5448  0.3473 -0.3075
  148MOL0     C19425   9.749   6.765  11.653  0.8652 -0.7977 -0.2070
  148MOL0     C19426   9.725   6.816  11.794  0.1174 -0.0409 -0.7393
  148MOL0     C19427   9.617   6.738  11.872 -0.8242  0.4482 -0.1180
  148MOL0     O19428   9.504   6.723  11.791  0.8796 -0.4445 -0.1862
  148MOL0     C19429   9.406   6.640  11.841  0.6982 -0.0546  0.0135
  148MOL0     C19430   9.378   6.620  11.981 -0.5996  0.1715 -1.3249
  148MOL0     C19431   9.266   6.560  12.031 -0.1819 -0.6994 -0.9548
  148MOL0     C19432   9.170   6.511  11.940  0.1195 -1.1304 -0.2764
  148MOL0     C19433   9.043   6.454  11.985  0.1207 -0.6128  0.2249
  148MOL0     O19434   8.946   6.435  11.885 -0.6632 -0.3924 -0.2105
  148MOL0     C19435   8.817   6.416  11.905  0.9773  0.2638 -0.5009
  148MOL0     C19436   8.752   6.416  12.033 -0.1422  0.3781  0.8435
  148MOL0     C19437   8.620   6.364  12.038 -0.1120 -0.4008  0.7399
  148MOL0     C19438   8.562   6.318  11.920  0.5510  0.4120  0.1108
  148MOL0     O19439   8.443   6.254  11.923 -0.0910  0.0050  0.1074
  148MOL0     C19440   8.326   6.314  11.977  0.1567 -0.4210 -0.1998
  148MOL0     C19441   8.296   6.250  12.117  0.1011 -0.1113  0.1773
  148MOL0     C19442   8.239   6.109  12.095  0.6241  0.0557 -1.3251
  148MOL0     C19443   8.215   6.043  12.233 -0.1476 -0.4379 -0.8993
  148MOL0     C19444   8.162   5.912  12.227 -0.3620  0.5006 -0.4188
  148MOL0     C19445   8.125   5.849  12.364  0.3307 -0.5233 -0.0832
  148MOL0     C19446   8.010   5.933  12.432  0.2072  0.8024 -0.0825
  148MOL0     C19447   7.935   5.843  12.536 -0.2344  0.4512  0.2821
  148MOL0    Cl19448   8.057   5.768  12.642 -0.4502 -0.0003 -0.0476
  148MOL0     C19449   8.636   6.317  11.803 -0.4579  0.5971 -0.5975
  148MOL0     C19450   8.755   6.382  11.787 -0.2596 -0.5755 -0.6365
  148MOL0     O19451   9.029   6.429  12.107  0.4171  0.0328  0.9254
  148MOL0     C19452   9.199   6.526  11.800 -0.2307 -0.7870  0.6496
  148MOL0     C19453   9.314   6.599  11.755  0.0020 -0.1416 -0.0953
  148MOL0     N19454   9.892   6.680  11.399  0.2903  0.1805  0.2213
  148MOL0     N19455   9.951   6.612  11.302 -0.0171 -0.4256 -0.5915
  148MOL0     C19456  10.361   5.837  10.455  0.1088 -0.1516  0.1765
  148MOL0     C19457  10.455   5.741  10.417  0.1814 -0.8687  0.8931
  148MOL0     C19458  10.890   5.534  10.408  1.2007 -0.3812 -0.2888
  148MOL0     C19459  11.023   5.547  10.365  1.1429  0.3627  0.3168
  148MOL0     C19460  11.102   5.443  10.349  0.0349  0.1958 -0.6313
  148MOL0     C19461  11.059   5.314  10.388 -1.1572  0.3721  0.7210
  148MOL0     O19462  11.138   5.204  10.363 -0.2670 -0.2077 -0.6879
  148MOL0     C19463  11.261   5.209  10.291  0.3536 -0.0130  0.0391
  148MOL0     C19464  11.382   5.223  10.388  0.8596 -0.2530  0.3024
  148MOL0     C19465  11.509   5.197  10.315  0.4059 -0.8801  0.2667
  148MOL0     C19466  11.544   5.318  10.225  0.2046  0.5084 -0.1323
  148MOL0     C19467  11.682   5.309  10.171 -0.5474  0.3391 -0.4006
  148MOL0     C19468  11.794   5.320  10.125 -0.3954  0.1004  0.3012
  148MOL0     C19469  10.934   5.300  10.450 -0.1676  0.4727  0.0383
  148MOL0     C19470  10.848   5.409  10.457  0.3428 -0.1837 -0.5585
  148MOL0     H19471  10.729   5.945  10.396  0.2261 -0.9617 -0.1202
  148MOL0     H19472  10.562   6.114  10.451  2.9769 -0.2715 -3.0787
  148MOL0     H19473  10.279   6.247  10.598 -2.0344 -0.3140  1.3000
  148MOL0     H19474  10.421   6.160  10.636 -0.3127 -1.4733  2.3548
  148MOL0     H19475  10.342   5.998  10.771  0.6563 -0.3012 -0.7283
  148MOL0     H19476  10.183   6.007  10.713  1.0194  0.3531 -1.4160
  148MOL0     H19477  10.160   6.235  10.809  0.6914  0.9218 -1.5759
  148MOL0     H19478  10.323   6.244  10.863 -0.2692  0.1405 -0.5561
  148MOL0     H19479  10.142   6.010  10.935  0.9687  0.1369 -1.6975
  148MOL0     H19480  10.302   6.051  11.013  0.4884  1.2863  1.5798
  148MOL0     H19481  10.130   6.089  11.173 -1.7455  1.2008  0.5712
  148MOL0     H19482  10.038   6.184  11.047  0.1579 -0.9496 -0.7088
  148MOL0     H19483  10.191   6.357  11.048 -0.6688 -2.9031 -2.0372
  148MOL0     H19484  10.319   6.266  11.144 -0.1910 -3.5624  0.6872
  148MOL0     H19485  10.174   6.281  11.339  2.5791  1.5061  0.6870
  148MOL0     H19486  10.215   6.441  11.276 -0.2573  0.6862 -0.1410
  148MOL0     H19487   9.949   6.285  11.281  1.7627 -2.1725 -1.6116
  148MOL0     H19488   9.967   6.400  11.157 -0.2392 -0.1432  0.6155
  148MOL0     H19489   9.910   6.382  11.531  1.0601  1.3453  0.4531
  148MOL0     H19490   9.864   6.601  11.724  0.2428  1.6708 -0.6568
  148MOL0     H19491   9.711   6.548  11.647  0.7395 -1.4185 -1.2705
  148MOL0     H19492   9.660   6.761  11.590  1.5318 -1.8884 -1.1195
  148MOL0     H19493   9.816   6.836  11.604 -1.6427  1.2228 -0.8869
  148MOL0     H19494   9.813   6.823  11.859 -0.2825 -0.9496 -0.0732
  148MOL0     H19495   9.689   6.916  11.769 -0.9328 -0.7693 -2.2980
  148MOL0     H19496   9.598   6.797  11.962  1.6380 -1.4935  1.8282
  148MOL0     H19497   9.664   6.642  11.894  2.5587  2.1243  0.6596
  148MOL0     H19498   9.440   6.648  12.066 -0.4802 -0.3068 -1.2555
  148MOL0     H19499   9.242   6.540  12.135  1.5522  1.6008 -0.0385
  148MOL0     H19500   8.808   6.431  12.125  0.0138 -0.2414  0.8496
  148MOL0     H19501   8.569   6.359  12.134 -0.8475  1.8879  0.5279
  148MOL0     H19502   8.239   6.294  11.914 -0.2654 -0.9649  0.5418
  148MOL0     H19503   8.333   6.422  11.992 -0.9278 -0.4489  0.6428
  148MOL0     H19504   8.212   6.306  12.160 -0.2059  0.1915 -0.8006
  148MOL0     H19505   8.381   6.250  12.186  2.4932 -1.2513 -2.5588
  148MOL0     H19506   8.304   6.039  12.042 -2.6803 -4.9431  0.4629
  148MOL0     H19507   8.146   6.112  12.037 -1.2516 -1.3276  1.4109
  148MOL0     H19508   8.314   6.046  12.279  0.1736 -2.0128 -1.4271
  148MOL0     H19509   8.150   6.105  12.296 -1.0348 -0.2872 -1.9236
  148MOL0     H19510   8.238   5.849  12.181 -0.5948  0.8081 -1.2518
  148MOL0     H19511   8.076   5.909  12.159 -1.5432  1.1327  1.0054
  148MOL0     H19512   8.210   5.856  12.432 -0.9775  2.4473  1.4521
  148MOL0     H19513   8.098   5.746  12.342  1.5563 -0.9830  0.4812
  148MOL0     H19514   8.053   6.019  12.485  1.4163  2.2759 -3.1817
  148MOL0     H19515   7.946   5.972  12.352 -0.4224  2.0939  1.0023
  148MOL0     H19516   7.893   5.757  12.483  1.9426 -0.4593 -0.0804
  148MOL0     H19517   7.865   5.890  12.605 -1.3277 -3.2698  1.9327
  148MOL0     H19518   8.588   6.275  11.715  0.8192  0.3947 -1.2167
  148MOL0     H19519   8.812   6.386  11.694 -1.4626  2.7232 -1.3563
  148MOL0     H19520   9.120   6.483  11.740 -0.7588 -1.4799  1.8003
  148MOL0     H19521   9.341   6.633  11.655 -0.2268 -0.1164 -0.1487
  148MOL0     H19522  10.256   5.808  10.457 -0.0843  0.2546 -1.9510
  148MOL0     H19523  10.421   5.641  10.391 -2.0401 -0.8261  3.2010
  148MOL0     H19524  11.059   5.646  10.340  0.7025  0.4227 -0.0988
  148MOL0     H19525  11.201   5.468  10.312 -0.9284  0.4536 -3.2142
  148MOL0     H19526  11.259   5.293  10.221  1.3345 -0.5716 -0.6837
  148MOL0     H19527  11.275   5.114  10.238 -0.1871  0.5416 -1.1311
  148MOL0     H19528  11.384   5.315  10.447 -2.6220  0.1195  0.0591
  148MOL0     H19529  11.376   5.146  10.466  1.5847  0.2286  0.8435
  148MOL0     H19530  11.509   5.103  10.259 -0.5413  0.4782 -2.2012
  148MOL0     H19531  11.591   5.198  10.388 -0.7356  1.2677  1.5997
  148MOL0     H19532  11.479   5.304  10.137  3.8063 -0.0759 -2.9545
  148MOL0     H19533  11.532   5.412  10.279  1.3982 -0.4232  1.8712
  148MOL0     H19534  11.885   5.354  10.080 -1.5994  2.1601 -0.7144
  148MOL0     H19535  10.891   5.208  10.488  1.8544 -0.2748  0.6440
  148MOL0     H19536  10.754   5.400  10.510 -0.5799 -0.3512 -2.1557
  149MOL0     O19537   8.963   4.196   7.874  0.3061  0.4511  0.6807
  149MOL0     C19538   8.902   4.176   7.767 -0.0927 -0.4857 -0.0334
  149MOL0     O19539   8.778   4.115   7.756 -0.2990 -0.0777  0.1848
  149MOL0     C19540   8.721   4.049   7.865 -0.1402  0.1838  0.1674
  149MOL0     C19541   8.586   4.045   7.861  0.9753  0.3867  0.2453
  149MOL0     C19542   8.515   3.962   7.953 -0.0196  0.3691  0.0940
  149MOL0     C19543   8.580   3.888   8.055 -0.0603 -0.4658 -0.2231
  149MOL0     O19544   8.515   3.830   8.162  0.1282  0.3807 -0.9857
  149MOL0     C19545   8.391   3.769   8.135 -0.0144 -0.3684  0.4766
  149MOL0     C19546   8.329   3.730   8.265  0.0239  0.4890 -0.3375
  149MOL0     C19547   8.177   3.746   8.255  0.0406  0.4784 -0.6114
  149MOL0     C19548   8.096   3.719   8.377 -0.4996  0.4964 -0.3725
  149MOL0     C19549   7.941   3.723   8.355  0.9226  0.7195  0.4573
  149MOL0     C19550   7.873   3.756   8.491 -0.1576 -1.1595  1.1094
  149MOL0     C19551   7.888   3.645   8.594  0.8628  0.2354  0.6314
  149MOL0     C19552   7.796   3.654   8.721 -0.0293  0.3738  0.5613
  149MOL0     N19553   7.670   3.571   8.716 -0.0383  0.9294 -0.2975
  149MOL0     C19554   7.575   3.568   8.619  0.1752 -0.3782  0.0552
  149MOL0     C19555   7.473   3.497   8.680 -0.9760  0.9345  0.3572
  149MOL0     C19556   7.351   3.458   8.607  0.2817  0.9444  0.2781
  149MOL0     C19557   7.387   3.344   8.502  0.3863  1.0572 -0.0071
  149MOL0     C19558   7.437   3.215   8.573 -0.6503 -0.3473  0.4419
  149MOL0     C19559   7.336   3.140   8.651  0.6228 -0.0342  0.6473
  149MOL0     O19560   7.247   3.097   8.551  0.5413 -0.7405  0.0787
  149MOL0     C19561   7.131   3.035   8.589  0.1075 -1.2795  0.2167
  149MOL0     C19562   7.025   3.055   8.497 -0.2379  0.1612 -0.4651
  149MOL0     C19563   6.903   2.991   8.515  0.6501 -0.6723 -0.3535
  149MOL0     C19564   6.883   2.906   8.624  0.6688 -0.0324  0.2688
  149MOL0     C19565   6.751   2.832   8.642  0.1830  0.1482  0.4832
  149MOL0     O19566   6.656   2.859   8.553 -0.0594  0.8020 -0.4602
  149MOL0     C19567   6.550   2.771   8.550  0.4468  0.5859  0.0907
  149MOL0     C19568   6.432   2.783   8.628 -0.5875  0.5482 -0.5039
  149MOL0     C19569   6.321   2.702   8.618  0.7280  0.2505  0.6509
  149MOL0     C19570   6.326   2.595   8.524 -0.0673  0.8128  0.4305
  149MOL0     O19571   6.236   2.491   8.518 -0.0320  0.2459  0.0472
  149MOL0     C19572   6.141   2.490   8.633 -0.5980  0.1880  0.8390
  149MOL0     C19573   6.057   2.360   8.621 -0.3322 -0.2354  0.2388
  149MOL0     C19574   5.954   2.353   8.738  0.0927  0.0631 -1.4047
  149MOL0     C19575   5.836   2.441   8.722  0.2378 -0.0509  0.1684
  149MOL0     C19576   5.745   2.418   8.845  0.3119 -0.6611 -0.0320
  149MOL0     C19577   5.603   2.433   8.793  0.7624  0.6014 -0.5134
  149MOL0     C19578   5.498   2.400   8.898 -1.2205 -0.5352 -0.2906
  149MOL0     C19579   5.358   2.414   8.847  0.2656 -0.6917  0.5227
  149MOL0    Cl19580   5.313   2.575   8.777 -0.1274 -0.4520 -0.2277
  149MOL0     C19581   6.441   2.583   8.446 -0.9960  0.1908  1.0729
  149MOL0     C19582   6.548   2.666   8.452 -0.6594 -0.3596 -0.7263
  149MOL0     O19583   6.747   2.743   8.729  1.0691 -0.6384  0.9516
  149MOL0     C19584   6.987   2.903   8.729  0.5406  0.0064  0.3527
  149MOL0     C19585   7.112   2.976   8.709 -0.1655  0.0410  0.3651
  149MOL0     N19586   7.518   3.444   8.804  0.2108 -0.1701 -0.3306
  149MOL0     N19587   7.632   3.500   8.827 -0.2048  0.0028 -0.1575
  149MOL0     C19588   8.724   3.893   8.060  0.8907 -0.7253  1.3358
  149MOL0     C19589   8.795   3.971   7.957  0.9424  0.2316 -0.0862
  149MOL0     C19590   8.958   4.242   7.648  0.4540  0.1423  0.4812
  149MOL0     C19591   9.074   4.326   7.652  0.0106  0.0923  0.3515
  149MOL0     C19592   9.142   4.370   7.534 -0.7613  0.8688  0.2788
  149MOL0     C19593   9.094   4.338   7.404 -0.4504 -0.2853 -0.6255
  149MOL0     O19594   9.167   4.388   7.295  0.3650 -0.1745 -0.0489
  149MOL0     C19595   9.153   4.324   7.168  0.8783 -0.0985 -0.0899
  149MOL0     C19596   9.253   4.396   7.068  0.5020 -0.1170 -1.1124
  149MOL0     C19597   9.228   4.358   6.919  0.3673 -0.6209  0.1107
  149MOL0     C19598   9.346   4.402   6.830 -0.3290  0.1525 -1.4834
  149MOL0     C19599   9.467   4.323   6.852  0.5147  0.0907  0.1325
  149MOL0     C19600   9.561   4.246   6.882 -0.3767  0.3441  0.4582
  149MOL0     C19601   8.970   4.268   7.396  0.1276  1.2513 -0.1850
  149MOL0     C19602   8.904   4.224   7.517 -0.1348 -0.1903 -0.2685
  149MOL0     H19603   8.535   4.100   7.782 -0.5492 -2.5934 -0.9860
  149MOL0     H19604   8.407   3.958   7.942 -0.1889 -1.6910  1.7459
  149MOL0     H19605   8.395   3.677   8.075 -3.8650 -0.6425  0.4236
  149MOL0     H19606   8.317   3.825   8.078  2.2300  1.2089 -1.0822
  149MOL0     H19607   8.359   3.798   8.346  2.4427 -0.9112  0.0532
  149MOL0     H19608   8.348   3.626   8.294 -0.1815  0.7524  0.8089
  149MOL0     H19609   8.138   3.688   8.171  0.6047 -0.3416 -0.3204
  149MOL0     H19610   8.150   3.850   8.234 -3.8695  0.0518  1.3751
  149MOL0     H19611   8.131   3.622   8.412 -0.3131  1.7799  3.5389
  149MOL0     H19612   8.111   3.795   8.455 -3.3633 -0.2115  0.9865
  149MOL0     H19613   7.914   3.622   8.320  3.1613  0.0681  0.4381
  149MOL0     H19614   7.918   3.796   8.277  0.6677  1.0235  0.8137
  149MOL0     H19615   7.768   3.759   8.461  0.6551  0.2288 -1.9901
  149MOL0     H19616   7.900   3.856   8.525 -2.2404 -0.3790  0.6090
  149MOL0     H19617   7.882   3.549   8.544  1.3623  0.3556  0.3337
  149MOL0     H19618   7.986   3.649   8.643  0.1359 -1.1261  2.2877
  149MOL0     H19619   7.781   3.759   8.744 -0.0206  0.2350  1.2063
  149MOL0     H19620   7.854   3.620   8.807 -0.4383  2.0983  1.5692
  149MOL0     H19621   7.567   3.616   8.522  1.5181  0.8139  0.4918
  149MOL0     H19622   7.311   3.542   8.550  0.2800  0.2587 -0.7614
  149MOL0     H19623   7.274   3.427   8.678 -1.3074  0.4756 -1.5648
  149MOL0     H19624   7.468   3.379   8.437  2.4414 -1.0455  1.2520
  149MOL0     H19625   7.302   3.316   8.440  0.6449  0.1255  0.0376
  149MOL0     H19626   7.480   3.151   8.495 -0.9863  0.4224 -0.3956
  149MOL0     H19627   7.530   3.240   8.625 -0.1542  0.4926 -0.7854
  149MOL0     H19628   7.280   3.209   8.715 -0.3091  1.8837 -2.0991
  149MOL0     H19629   7.390   3.053   8.692  3.3602  1.1601 -0.1998
  149MOL0     H19630   7.046   3.112   8.407  0.9864 -0.9818 -0.9346
  149MOL0     H19631   6.825   3.000   8.440 -1.6438  3.6670  2.1116
  149MOL0     H19632   6.449   2.857   8.705  1.8183  0.5506 -0.9620
  149MOL0     H19633   6.236   2.715   8.685 -0.2886 -1.4364 -0.2556
  149MOL0     H19634   6.075   2.577   8.627 -0.1741  0.4097 -1.8399
  149MOL0     H19635   6.203   2.486   8.723  0.1347 -0.6590  0.3148
  149MOL0     H19636   6.123   2.274   8.613  0.7365  0.7070 -1.4263
  149MOL0     H19637   6.010   2.364   8.523 -0.2515 -0.5299  0.1860
  149MOL0     H19638   5.995   2.369   8.838 -0.4059 -1.7198 -0.8785
  149MOL0     H19639   5.917   2.250   8.743  2.3621 -0.8014 -1.2617
  149MOL0     H19640   5.855   2.549   8.725 -1.2114  0.2294  3.1278
  149MOL0     H19641   5.786   2.411   8.630  0.6072  1.2002 -0.4623
  149MOL0     H19642   5.757   2.499   8.918 -1.6984 -0.1689 -0.1704
  149MOL0     H19643   5.757   2.326   8.904  1.5043  1.5419  3.4745
  149MOL0     H19644   5.593   2.365   8.708  1.2566  1.1185 -0.9906
  149MOL0     H19645   5.585   2.536   8.760  2.9142  1.4135  0.6312
  149MOL0     H19646   5.508   2.301   8.944 -0.3584 -0.3893 -0.1499
  149MOL0     H19647   5.512   2.478   8.974 -0.0249 -0.3142 -0.7199
  149MOL0     H19648   5.294   2.399   8.934 -0.9959  1.8734  0.1416
  149MOL0     H19649   5.340   2.340   8.769 -0.9530 -1.1453  1.2011
  149MOL0     H19650   6.435   2.502   8.374 -0.5716  0.2203  1.0011
  149MOL0     H19651   6.622   2.649   8.373  0.4420 -0.6523  0.3407
  149MOL0     H19652   6.964   2.855   8.824  0.3344  0.9898  0.8134
  149MOL0     H19653   7.189   2.976   8.786  0.2532 -0.5151 -0.0511
  149MOL0     H19654   8.779   3.842   8.138 -0.8933 -3.8524  0.7414
  149MOL0     H19655   8.903   3.965   7.966  0.8245 -1.5907  0.4031
  149MOL0     H19656   9.122   4.350   7.747  0.5486  3.1955 -0.6069
  149MOL0     H19657   9.236   4.424   7.535 -0.2593  0.0604  2.5040
  149MOL0     H19658   9.054   4.346   7.127  1.4394  2.8668 -0.0927
  149MOL0     H19659   9.159   4.216   7.186 -3.8463 -0.5315  0.1370
  149MOL0     H19660   9.240   4.504   7.081  0.9361  0.3250 -3.6868
  149MOL0     H19661   9.353   4.365   7.101  0.3065 -1.4583 -1.7127
  149MOL0     H19662   9.142   4.413   6.879  2.0857  1.0869 -1.4221
  149MOL0     H19663   9.214   4.250   6.905 -1.9537 -0.3076 -0.4417
  149MOL0     H19664   9.316   4.401   6.725  0.7807 -1.8409 -1.8283
  149MOL0     H19665   9.373   4.505   6.857 -3.6536  0.3970  1.6756
  149MOL0     H19666   9.643   4.179   6.897 -0.9818 -0.1453  1.7763
  149MOL0     H19667   8.925   4.247   7.299  0.9795 -0.4075 -0.2570
  149MOL0     H19668   8.803   4.185   7.522 -0.6887  1.2912  0.9767
  150MOL0     O19669   0.294  10.104  10.206 -0.1056 -0.3950 -0.3094
  150MOL0     C19670   0.185  10.116  10.142 -0.6981  0.5758  0.1597
  150MOL0     O19671   0.164  10.079  10.012  0.4234 -0.7017  0.7752
  150MOL0     C19672   0.280  10.049   9.948  0.2863  0.3622  1.3169
  150MOL0     C19673   0.384  10.138   9.922 -0.5253 -0.5996 -0.2094
  150MOL0     C19674   0.488  10.116   9.832  0.2713  0.3279  0.0223
  150MOL0     C19675   0.475  10.006   9.746  0.7729  0.1968 -0.4221
  150MOL0     O19676   0.558   9.975   9.645 -0.0372 -0.0480 -0.0235
  150MOL0     C19677   0.666  10.060   9.606 -0.3412 -0.1518  0.4605
  150MOL0     C19678   0.645  10.174   9.508 -0.2725 -0.1634  0.3943
  150MOL0     C19679   0.565  10.131   9.381 -0.1580  0.6398  0.2190
  150MOL0     C19680   0.550  10.258   9.292 -0.4615 -0.1961 -0.3141
  150MOL0     C19681   0.476  10.228   9.163  0.4291  0.7581  0.2953
  150MOL0     C19682   0.404  10.350   9.109  0.0373 -0.1506 -0.3888
  150MOL0     C19683   0.331  10.320   8.979  0.0436  0.8527  0.7660
  150MOL0     C19684   0.216  10.217   8.988 -0.4054  0.0458  0.3046
  150MOL0     N19685   0.099  10.284   9.048  0.5073 -0.2391 -0.1829
  150MOL0     C19686   0.027  10.243   9.156 -0.5173  0.6677 -0.1327
  150MOL0     C19687  -0.074  10.326   9.170 -1.1071 -0.9631  0.1207
  150MOL0     C19688  -0.194  10.300   9.254  0.1133 -0.1378 -0.5056
  150MOL0     C19689  -0.269  10.439   9.292 -0.3519  0.4926  0.2461
  150MOL0     C19690  -0.398  10.413   9.372 -0.0837 -0.3811 -0.6928
  150MOL0     C19691  -0.482  10.543   9.385  0.1000  0.3000 -0.0207
  150MOL0     O19692  -0.623  10.525   9.354  0.0687 -0.2898  0.2381
  150MOL0     C19693  -0.704  10.450   9.435 -0.3952  0.2881 -0.7038
  150MOL0     C19694  -0.669  10.408   9.567 -0.6305 -0.0576  0.5346
  150MOL0     C19695  -0.762  10.351   9.643  0.1822  0.6333 -0.5308
  150MOL0     C19696  -0.891  10.318   9.606  1.0875  0.2634  0.5004
  150MOL0     C19697  -0.991  10.257   9.700 -0.1087 -0.1423 -0.8243
  150MOL0     O19698  -1.119  10.261   9.662 -0.0565  0.2827 -0.7173
  150MOL0     C19699  -1.234  10.217   9.728  0.9339  0.5229  0.7044
  150MOL0     C19700  -1.358  10.262   9.684 -0.5773  0.0738 -0.4002
  150MOL0     C19701  -1.472  10.236   9.757 -0.5001 -0.3026 -0.6023
  150MOL0     C19702  -1.473  10.149   9.865 -0.4085  0.7398  0.0214
  150MOL0     O19703  -1.585  10.114   9.932 -0.1155 -0.4258  0.6273
  150MOL0     C19704  -1.709  10.183   9.918  0.1165  0.6538  0.1208
  150MOL0     C19705  -1.815  10.098   9.987  0.2043  0.0263 -0.6058
  150MOL0     C19706  -1.824   9.946   9.939  0.9880  0.0266 -0.4102
  150MOL0     C19707  -1.916   9.861  10.026  0.4971 -0.1329 -0.2437
  150MOL0     C19708  -2.064   9.911  10.035 -0.5304 -0.4812  0.8639
  150MOL0     C19709  -2.147   9.809  10.108  0.1558  0.3936 -0.1496
  150MOL0     C19710  -2.299   9.828  10.093 -0.1468 -0.1601  0.1073
  150MOL0     C19711  -2.391   9.737  10.178 -0.1242  0.2348  0.3304
  150MOL0    Cl19712  -2.364   9.559  10.151 -0.2793 -0.1385  0.0422
  150MOL0     C19713  -1.353  10.098   9.904 -0.1143 -0.6658 -0.4302
  150MOL0     C19714  -1.236  10.142   9.843 -0.6338 -0.0621  0.2544
  150MOL0     O19715  -0.953  10.223   9.811 -0.4578  0.1270  0.8208
  150MOL0     C19716  -0.930  10.372   9.486  0.4290  0.1996  0.4815
  150MOL0     C19717  -0.837  10.440   9.406  0.4860  0.2809 -0.3693
  150MOL0     N19718  -0.063  10.427   9.074 -0.0447  0.4356 -0.5115
  150MOL0     N19719   0.036  10.390   8.994  0.5690  0.0702 -0.1888
  150MOL0     C19720   0.358   9.924   9.755 -0.6151 -0.4800 -1.0345
  150MOL0     C19721   0.263   9.943   9.858  0.0334 -0.3568 -0.0441
  150MOL0     C19722   0.067  10.171  10.213 -0.4349 -0.2995 -0.4209
  150MOL0     C19723   0.081  10.187  10.352  0.4546 -0.0743  0.1368
  150MOL0     C19724  -0.031  10.216  10.432 -0.7830 -0.6552 -0.3189
  150MOL0     C19725  -0.154  10.237  10.364 -0.2660  0.4660  0.9927
  150MOL0     O19726  -0.272  10.280  10.424 -0.2516 -0.0681  0.3382
  150MOL0     C19727  -0.265  10.317  10.567 -0.0132 -0.8695 -0.8276
  150MOL0     C19728  -0.290  10.198  10.661 -0.1131  0.0310 -0.3729
  150MOL0     C19729  -0.430  10.148  10.654  0.3003  0.2365  0.2815
  150MOL0     C19730  -0.474  10.083  10.522 -0.4691 -0.2559  0.5812
  150MOL0     C19731  -0.606  10.030  10.544  0.2368  0.0796  1.1494
  150MOL0     C19732  -0.721   9.985  10.550 -0.3163 -0.2011 -0.3515
  150MOL0     C19733  -0.166  10.236  10.222 -0.1367 -1.0168 -0.0674
  150MOL0     C19734  -0.057  10.196  10.148 -0.8667 -0.2120  0.0087
  150MOL0     H19735   0.386  10.234   9.972 -1.2441  0.4494 -2.1329
  150MOL0     H19736   0.564  10.193   9.823  0.7330  0.0223  1.1040
  150MOL0     H19737   0.731   9.986   9.557 -0.3172 -0.1172  0.4403
  150MOL0     H19738   0.723  10.094   9.693  0.6387 -0.0187 -0.2227
  150MOL0     H19739   0.741  10.208   9.468 -0.9659  1.1971 -0.1928
  150MOL0     H19740   0.596  10.261   9.553 -1.1418  0.4216 -1.6071
  150MOL0     H19741   0.467  10.096   9.414 -0.6649  2.6033  0.9729
  150MOL0     H19742   0.613  10.057   9.316 -1.9435 -0.7181  0.3630
  150MOL0     H19743   0.487  10.329   9.347 -0.3433 -0.7174  0.5178
  150MOL0     H19744   0.649  10.298   9.268 -0.2102 -2.0608 -2.7625
  150MOL0     H19745   0.404  10.150   9.190  2.4549 -1.2017  0.3663
  150MOL0     H19746   0.551  10.180   9.100 -0.4273 -1.6295  0.9719
  150MOL0     H19747   0.481  10.423   9.084  0.8656 -1.2107 -1.0383
  150MOL0     H19748   0.337  10.393   9.184  0.4437  2.5518 -1.4792
  150MOL0     H19749   0.285  10.411   8.939 -3.4508 -0.6147  1.0881
  150MOL0     H19750   0.403  10.278   8.908 -2.6348  1.0384 -2.3254
  150MOL0     H19751   0.248  10.131   9.047  1.7858  0.6840  0.1249
  150MOL0     H19752   0.192  10.194   8.884 -1.2313  1.1993  0.2108
  150MOL0     H19753   0.032  10.148   9.208 -2.4493  0.7397  0.2796
  150MOL0     H19754  -0.165  10.256   9.350 -3.9185  0.7507  1.3498
  150MOL0     H19755  -0.263  10.236   9.199  1.2348 -0.6163 -1.3794
  150MOL0     H19756  -0.293  10.480   9.194 -1.3430  1.8782  1.0236
  150MOL0     H19757  -0.206  10.506   9.351 -1.6274  1.3090  0.7343
  150MOL0     H19758  -0.466  10.340   9.327 -2.5084  0.0870  1.8949
  150MOL0     H19759  -0.367  10.372   9.469 -0.3180  0.9391 -0.0250
  150MOL0     H19760  -0.438  10.609   9.310  1.4964 -0.8691 -0.2747
  150MOL0     H19761  -0.468  10.589   9.483  2.6298  1.8711 -1.0318
  150MOL0     H19762  -0.566  10.415   9.602 -0.3310 -0.9139 -0.1476
  150MOL0     H19763  -0.731  10.325   9.744  1.6987  0.9880 -0.8906
  150MOL0     H19764  -1.362  10.314   9.589 -3.0246 -3.9524 -2.8477
  150MOL0     H19765  -1.564  10.276   9.716 -1.2248  0.6460  1.7682
  150MOL0     H19766  -1.743  10.190   9.814 -0.3137 -0.7469  0.1414
  150MOL0     H19767  -1.714  10.282   9.964  0.3547  1.0216 -0.6232
  150MOL0     H19768  -1.909  10.152   9.969 -1.0121 -2.5151 -2.6507
  150MOL0     H19769  -1.805  10.101  10.096 -1.6136  1.3067 -0.4281
  150MOL0     H19770  -1.726   9.903   9.959 -0.2516 -3.0095 -0.3888
  150MOL0     H19771  -1.844   9.934   9.832  0.7858  0.2006 -0.3934
  150MOL0     H19772  -1.902   9.758   9.991  0.9584 -0.0328 -0.3581
  150MOL0     H19773  -1.875   9.869  10.127 -3.3678  0.2891  1.4576
  150MOL0     H19774  -2.099   9.922   9.933 -2.4922  1.3826  1.6668
  150MOL0     H19775  -2.067  10.009  10.084  1.3048  0.9782 -1.7454
  150MOL0     H19776  -2.116   9.807  10.213  0.8075 -0.9841 -0.3451
  150MOL0     H19777  -2.130   9.716  10.053  4.2135  1.8167 -1.6391
  150MOL0     H19778  -2.330   9.931  10.115  0.9482  1.0740 -3.4318
  150MOL0     H19779  -2.309   9.814   9.985 -1.4475  0.2676  0.1606
  150MOL0     H19780  -2.496   9.766  10.177 -0.0248  0.7001 -1.7124
  150MOL0     H19781  -2.362   9.752  10.282  3.0100 -0.1231 -0.3946
  150MOL0     H19782  -1.346  10.055  10.003 -1.5609  0.8135  0.3526
  150MOL0     H19783  -1.148  10.102   9.891 -0.1004  0.6003 -0.1485
  150MOL0     H19784  -1.031  10.383   9.448 -0.2508 -0.1511  2.1206
  150MOL0     H19785  -0.876  10.481   9.314 -0.2993 -1.0667 -0.6498
  150MOL0     H19786   0.352   9.837   9.689  0.8714 -0.8127 -0.7706
  150MOL0     H19787   0.180   9.876   9.877 -1.5913  0.1898 -4.1529
  150MOL0     H19788   0.178  10.188  10.398  0.9456  1.3626 -0.8308
  150MOL0     H19789  -0.011  10.213  10.539 -1.3329 -1.2667 -0.2255
  150MOL0     H19790  -0.337  10.391  10.602  2.3294 -0.1204  3.0141
  150MOL0     H19791  -0.174  10.375  10.585 -1.9299  2.1870 -0.2961
  150MOL0     H19792  -0.227  10.112  10.637 -0.7941 -0.1815 -1.4795
  150MOL0     H19793  -0.263  10.228  10.762  0.2197 -0.9131 -0.1697
  150MOL0     H19794  -0.499  10.232  10.661 -0.1844 -0.0925 -0.5035
  150MOL0     H19795  -0.442  10.085  10.743  3.1813 -0.0492  0.5867
  150MOL0     H19796  -0.482  10.162  10.447  1.4690  2.4154  2.9221
  150MOL0     H19797  -0.395  10.019  10.482  0.8175  3.1249 -2.9499
  150MOL0     H19798  -0.819   9.944  10.552  1.2944 -4.6472 -0.6808
  150MOL0     H19799  -0.266  10.250  10.182 -0.0632 -0.6024 -0.1026
  150MOL0     H19800  -0.064  10.175  10.041 -0.9471  2.9551 -0.6900
  151MOL0     O19801   3.080   7.057   9.741  0.7412 -0.5612 -0.1651
  151MOL0     C19802   3.006   7.031   9.647  0.1360  0.1089 -0.7503
  151MOL0     O19803   3.036   6.942   9.551 -0.6973  0.0572 -0.0866
  151MOL0     C19804   3.158   6.885   9.558 -0.5879 -0.6036  0.1799
  151MOL0     C19805   3.280   6.957   9.559 -0.0106 -0.1615 -0.3017
  151MOL0     C19806   3.401   6.881   9.552  0.3513 -0.7270  0.6773
  151MOL0     C19807   3.401   6.746   9.564  1.3745 -0.1244  0.6820
  151MOL0     O19808   3.507   6.664   9.568 -0.2148 -0.2520 -0.1637
  151MOL0     C19809   3.643   6.716   9.538  0.1632 -0.2326  0.6006
  151MOL0     C19810   3.738   6.591   9.543 -0.1999  0.0490 -1.1348
  151MOL0     C19811   3.879   6.627   9.499  0.8412  0.3617  1.1908
  151MOL0     C19812   3.980   6.509   9.502 -0.9946 -0.2521  0.0242
  151MOL0     C19813   4.125   6.542   9.451  0.3988 -0.0235 -0.1605
  151MOL0     C19814   4.234   6.447   9.507 -0.0945 -1.3965  0.2442
  151MOL0     C19815   4.376   6.491   9.468  0.2484  0.0919  0.4727
  151MOL0     C19816   4.416   6.443   9.331 -0.0762 -0.3490  0.6229
  151MOL0     N19817   4.382   6.304   9.298 -0.7420  0.2048 -0.3207
  151MOL0     C19818   4.457   6.190   9.324 -1.3433 -0.1938  0.2324
  151MOL0     C19819   4.396   6.092   9.248 -0.2312 -0.2258  0.3530
  151MOL0     C19820   4.445   5.951   9.237  0.3566  0.2869  0.5199
  151MOL0     C19821   4.338   5.843   9.192  0.6017 -0.6991 -0.6597
  151MOL0     C19822   4.248   5.802   9.309  0.6624  0.6192  0.3701
  151MOL0     C19823   4.127   5.717   9.269  0.6538  0.7365 -0.9679
  151MOL0     O19824   4.040   5.688   9.384  0.7253  0.3772  0.9457
  151MOL0     C19825   3.911   5.651   9.368 -0.1612  0.0606 -0.1720
  151MOL0     C19826   3.870   5.553   9.270  0.2549  1.0832  1.1119
  151MOL0     C19827   3.738   5.510   9.270  0.1651 -1.2314  0.4171
  151MOL0     C19828   3.640   5.560   9.362  0.2204  0.4380  0.5101
  151MOL0     C19829   3.501   5.510   9.376 -0.5795  0.2025 -0.6994
  151MOL0     O19830   3.453   5.443   9.268 -0.8548 -0.2408 -0.1578
  151MOL0     C19831   3.320   5.409   9.259 -0.2664 -0.9505  0.9748
  151MOL0     C19832   3.296   5.283   9.206 -0.2530 -0.4755  0.7417
  151MOL0     C19833   3.159   5.246   9.192 -0.3458  0.5473  0.7452
  151MOL0     C19834   3.054   5.325   9.228 -1.2375  0.6526  0.5282
  151MOL0     O19835   2.926   5.286   9.219 -0.6183  0.4569 -0.3904
  151MOL0     C19836   2.836   5.358   9.136  0.1856  0.1113 -0.2893
  151MOL0     C19837   2.705   5.280   9.124 -0.4934  0.2381 -0.1085
  151MOL0     C19838   2.601   5.353   9.031 -0.0951  0.0687  0.7092
  151MOL0     C19839   2.474   5.275   9.027 -0.1225  0.0746  0.0943
  151MOL0     C19840   2.392   5.319   8.916 -0.4551  0.2847 -0.5757
  151MOL0     C19841   2.257   5.240   8.911 -0.1288 -0.3703  0.2444
  151MOL0     C19842   2.167   5.301   8.801  0.4867 -0.2915 -0.2740
  151MOL0     C19843   2.032   5.235   8.772 -0.5896  0.9337 -0.1941
  151MOL0    Cl19844   1.942   5.352   8.680  0.0860  0.2530 -0.0265
  151MOL0     C19845   3.081   5.453   9.279  0.0593 -0.8614  0.0548
  151MOL0     C19846   3.214   5.504   9.278  0.8867 -0.2623  0.5857
  151MOL0     O19847   3.436   5.548   9.476 -0.3155 -0.1170 -0.3598
  151MOL0     C19848   3.685   5.662   9.456 -0.5284  0.7107  0.1986
  151MOL0     C19849   3.819   5.704   9.449 -0.5735  0.3432  0.0579
  151MOL0     N19850   4.294   6.153   9.175 -0.0632  0.5807  0.1413
  151MOL0     N19851   4.284   6.271   9.212 -0.1495 -0.3039  0.2085
  151MOL0     C19852   3.283   6.678   9.579 -0.0260 -0.0613 -0.3502
  151MOL0     C19853   3.162   6.748   9.575  0.0372  0.1486  1.0040
  151MOL0     C19854   2.893   7.113   9.635 -0.0869  0.0824 -0.0739
  151MOL0     C19855   2.797   7.091   9.536 -0.1524 -0.5736  0.5133
  151MOL0     C19856   2.684   7.174   9.520  0.0294  0.2067 -0.1148
  151MOL0     C19857   2.661   7.272   9.614  0.1898 -0.1046  0.3995
  151MOL0     O19858   2.541   7.343   9.606  0.5268 -0.1644  0.7388
  151MOL0     C19859   2.497   7.394   9.480 -0.0347  0.9712 -1.0842
  151MOL0     C19860   2.372   7.320   9.428 -0.6570 -0.4915 -0.3244
  151MOL0     C19861   2.257   7.347   9.527 -0.0552  0.1264 -1.1443
  151MOL0     C19862   2.123   7.323   9.471  0.3515 -0.6083 -0.1854
  151MOL0     C19863   2.063   7.433   9.393 -0.0855 -0.1548  0.0910
  151MOL0     C19864   2.018   7.525   9.332  0.3126  0.0396 -0.0304
  151MOL0     C19865   2.753   7.294   9.718 -0.2778 -1.1463 -0.3888
  151MOL0     C19866   2.869   7.216   9.729 -0.2137 -0.0091 -0.2445
  151MOL0     H19867   3.278   7.065   9.551  1.1917  0.1008  2.0386
  151MOL0     H19868   3.497   6.926   9.530 -0.6127  0.7947 -0.6458
  151MOL0     H19869   3.677   6.793   9.607 -1.4808  2.5863 -1.5159
  151MOL0     H19870   3.639   6.751   9.435 -1.3515 -1.5351  0.1659
  151MOL0     H19871   3.693   6.506   9.491 -3.4804  0.0487  1.3686
  151MOL0     H19872   3.746   6.563   9.649  0.2008  4.6952  0.2780
  151MOL0     H19873   3.926   6.712   9.551 -1.4746  4.5277 -2.7945
  151MOL0     H19874   3.875   6.657   9.394 -0.1747  0.0046  1.1195
  151MOL0     H19875   3.985   6.473   9.605  0.0130 -0.3580 -0.0529
  151MOL0     H19876   3.941   6.425   9.443  1.3926 -1.5535  0.1542
  151MOL0     H19877   4.157   6.640   9.489  1.0412 -0.4088  0.3153
  151MOL0     H19878   4.128   6.537   9.342 -0.1187 -1.3656 -0.1257
  151MOL0     H19879   4.204   6.345   9.479 -1.9316 -0.6395 -0.6823
  151MOL0     H19880   4.223   6.451   9.615 -0.7199  1.0884  0.1316
  151MOL0     H19881   4.391   6.598   9.488 -3.0455  0.4228  1.9193
  151MOL0     H19882   4.440   6.439   9.541  1.7849 -0.1708 -1.0015
  151MOL0     H19883   4.520   6.464   9.306 -0.5141  0.1030 -0.9310
  151MOL0     H19884   4.357   6.497   9.256 -1.5556 -2.0787  0.4592
  151MOL0     H19885   4.545   6.182   9.386 -0.1175 -1.8270 -1.6088
  151MOL0     H19886   4.477   5.921   9.337  2.2640 -0.1869 -0.2069
  151MOL0     H19887   4.529   5.947   9.168 -1.2002 -1.2285 -1.3843
  151MOL0     H19888   4.383   5.753   9.148  1.6721 -1.6031  2.0917
  151MOL0     H19889   4.271   5.882   9.115 -2.3174 -1.9622  1.0868
  151MOL0     H19890   4.316   5.750   9.378  0.9856  1.8650  1.0226
  151MOL0     H19891   4.201   5.887   9.359 -1.6497 -0.3683 -0.0345
  151MOL0     H19892   4.171   5.624   9.232 -0.6843 -2.0900  3.6434
  151MOL0     H19893   4.054   5.758   9.198  0.4020 -0.0045 -1.1465
  151MOL0     H19894   3.947   5.507   9.209  0.4331  1.4652  1.0442
  151MOL0     H19895   3.706   5.438   9.195 -4.1726  0.5174  0.2710
  151MOL0     H19896   3.374   5.209   9.195  0.5293  0.2685  1.1528
  151MOL0     H19897   3.140   5.147   9.151  1.0038 -0.8872  3.3145
  151MOL0     H19898   2.884   5.363   9.038  0.8531 -0.9008 -0.0406
  151MOL0     H19899   2.822   5.460   9.171  1.8299  0.1014  0.5180
  151MOL0     H19900   2.667   5.276   9.227  2.0570  1.9976  1.0241
  151MOL0     H19901   2.725   5.178   9.090 -0.6475  0.4263 -0.7781
  151MOL0     H19902   2.645   5.369   8.932  0.7465 -0.5859  0.9615
  151MOL0     H19903   2.581   5.455   9.064 -0.8603  0.3616 -0.5806
  151MOL0     H19904   2.497   5.170   9.005  0.8181 -0.1231  1.9082
  151MOL0     H19905   2.429   5.282   9.126  0.7990  0.5370  0.4844
  151MOL0     H19906   2.449   5.315   8.823  0.5967 -0.5137  0.0864
  151MOL0     H19907   2.380   5.427   8.931  3.1145  0.7595 -0.3377
  151MOL0     H19908   2.200   5.260   9.003 -2.2106  3.3383 -1.6290
  151MOL0     H19909   2.266   5.135   8.882 -2.7419  0.6406 -5.5258
  151MOL0     H19910   2.147   5.406   8.822 -1.0476 -0.1726 -2.0317
  151MOL0     H19911   2.215   5.298   8.703 -3.5646 -1.0105 -2.4899
  151MOL0     H19912   1.977   5.212   8.864  1.7738 -1.1319  0.8395
  151MOL0     H19913   2.050   5.140   8.721  0.3524 -1.0974  3.4805
  151MOL0     H19914   2.999   5.513   9.316  1.2460 -0.0741  1.5144
  151MOL0     H19915   3.233   5.605   9.311  0.6443  0.7480 -2.1327
  151MOL0     H19916   3.626   5.705   9.537  0.9385  0.1515  1.6208
  151MOL0     H19917   3.856   5.774   9.523 -0.8578 -0.7395  1.2691
  151MOL0     H19918   3.272   6.572   9.598 -2.2296  0.3016  0.7733
  151MOL0     H19919   3.066   6.700   9.591  0.6125 -1.1581  0.7233
  151MOL0     H19920   2.804   7.013   9.461 -2.5397 -0.9427  0.5975
  151MOL0     H19921   2.616   7.165   9.436 -0.3522  0.5367  0.1568
  151MOL0     H19922   2.570   7.384   9.399  1.2736 -2.3957  0.3491
  151MOL0     H19923   2.468   7.499   9.492  1.0685  0.9665  5.7098
  151MOL0     H19924   2.353   7.371   9.333 -1.6398  0.3384  0.3037
  151MOL0     H19925   2.389   7.212   9.417 -0.4462 -0.7239  1.8294
  151MOL0     H19926   2.269   7.445   9.574 -1.4108  0.5864 -1.7119
  151MOL0     H19927   2.272   7.274   9.608 -0.1161  0.1609 -1.1016
  151MOL0     H19928   2.127   7.239   9.401  2.5400 -0.0728 -0.7667
  151MOL0     H19929   2.048   7.294   9.545  1.1225  0.9495  1.2809
  151MOL0     H19930   1.973   7.607   9.280  0.7999  0.9581  0.9534
  151MOL0     H19931   2.733   7.373   9.790  0.5549 -3.4428  2.6130
  151MOL0     H19932   2.941   7.241   9.806  1.7657  1.8412 -2.5349
  152MOL0     O19933   4.886   0.243   3.830 -0.1508  0.2405  0.1568
  152MOL0     C19934   4.961   0.208   3.742  0.4615  0.4776  0.7129
  152MOL0     O19935   4.913   0.132   3.632 -0.2385  0.2026  0.1586
  152MOL0     C19936   4.777   0.132   3.613  0.8607  0.2684  0.3631
  152MOL0     C19937   4.711   0.244   3.553 -0.1206 -0.1805  0.3407
  152MOL0     C19938   4.574   0.248   3.530  0.7232  0.8465 -0.2786
  152MOL0     C19939   4.501   0.135   3.572 -0.3409  0.3375  0.1671
  152MOL0     O19940   4.369   0.113   3.552 -0.1683 -0.2841 -0.3855
  152MOL0     C19941   4.284   0.216   3.606 -0.2485 -0.5187 -0.2910
  152MOL0     C19942   4.191   0.289   3.509 -0.1771  0.0563 -0.4148
  152MOL0     C19943   4.123   0.191   3.411  0.1013  0.8597 -0.0926
  152MOL0     C19944   4.016   0.257   3.332  0.0422  0.7729  0.0803
  152MOL0     C19945   4.051   0.350   3.212 -0.1488 -0.0788  0.0937
  152MOL0     C19946   3.938   0.438   3.157 -0.0554  0.3663 -0.3650
  152MOL0     C19947   3.973   0.554   3.059  0.1330  0.7612 -0.3298
  152MOL0     C19948   3.848   0.609   2.983  0.0970 -1.0695  0.7612
  152MOL0     N19949   3.740   0.643   3.079 -0.0669 -0.5413 -0.9873
  152MOL0     C19950   3.612   0.663   3.041  0.2580 -0.3113  0.2139
  152MOL0     C19951   3.545   0.716   3.149  0.4662  0.6874  0.5777
  152MOL0     C19952   3.403   0.734   3.143 -0.0779  0.0180  0.5135
  152MOL0     C19953   3.332   0.593   3.129  0.1061 -0.7346 -0.9277
  152MOL0     C19954   3.184   0.625   3.112  0.2905  0.3451  0.0474
  152MOL0     C19955   3.090   0.506   3.102  0.0578 -0.1312  0.7525
  152MOL0     O19956   3.135   0.441   2.978  0.1081 -0.8250 -0.1520
  152MOL0     C19957   3.085   0.319   2.944 -0.2133  0.3533 -0.3445
  152MOL0     C19958   2.988   0.248   3.014 -0.6086 -0.3442 -0.1566
  152MOL0     C19959   2.952   0.115   2.987  0.6719  0.3758  0.2571
  152MOL0     C19960   2.998   0.047   2.874  0.8547 -0.2157  0.3728
  152MOL0     C19961   2.963  -0.096   2.846  0.3249 -0.8789  0.1231
  152MOL0     O19962   2.994  -0.149   2.726 -0.3833  0.2344  0.3022
  152MOL0     C19963   2.932  -0.271   2.691  0.2004 -1.0334  0.2239
  152MOL0     C19964   2.846  -0.265   2.586 -0.7350 -0.3080 -0.3920
  152MOL0     C19965   2.774  -0.377   2.541  1.0223  0.0815  0.3942
  152MOL0     C19966   2.779  -0.493   2.621 -0.4321 -0.2530 -0.3597
  152MOL0     O19967   2.700  -0.598   2.570  0.3153  0.1267 -0.0950
  152MOL0     C19968   2.698  -0.730   2.624 -0.4731  0.8546 -0.1462
  152MOL0     C19969   2.776  -0.832   2.536 -0.3970 -0.4749  0.3377
  152MOL0     C19970   2.924  -0.863   2.578  0.1730  0.0476 -0.1402
  152MOL0     C19971   2.927  -0.960   2.703 -0.2520  0.3387  0.6673
  152MOL0     C19972   3.071  -0.978   2.751 -0.1225  0.6050 -0.4375
  152MOL0     C19973   3.076  -1.089   2.862  0.5484 -0.1114  0.5030
  152MOL0     C19974   3.213  -1.095   2.932  0.2679 -0.1054  0.1501
  152MOL0     C19975   3.210  -1.209   3.030  0.3124  0.2957 -0.5441
  152MOL0    Cl19976   3.378  -1.246   3.073  0.0683 -0.0458  0.0061
  152MOL0     C19977   2.862  -0.503   2.732 -1.1732 -0.7361  0.1498
  152MOL0     C19978   2.940  -0.386   2.762  0.5408  0.5435  0.3722
  152MOL0     O19979   2.904  -0.148   2.937  0.1612 -0.5371 -0.2003
  152MOL0     C19980   3.076   0.128   2.785 -0.2349  0.4107  0.5725
  152MOL0     C19981   3.122   0.257   2.824 -0.9350  0.4500  0.7698
  152MOL0     N19982   3.636   0.748   3.243 -0.2028  0.4416 -0.0399
  152MOL0     N19983   3.751   0.710   3.198 -0.0224 -0.6476  0.1687
  152MOL0     C19984   4.571   0.028   3.632  0.3087 -0.0505 -0.5959
  152MOL0     C19985   4.705   0.027   3.666  0.0681 -0.7386 -0.1667
  152MOL0     C19986   5.096   0.237   3.760 -0.1714 -0.1413 -0.7228
  152MOL0     C19987   5.177   0.213   3.649 -0.2427 -0.7857  0.9132
  152MOL0     C19988   5.317   0.229   3.669 -0.3960  0.2796  0.0623
  152MOL0     C19989   5.379   0.269   3.786  0.9228 -0.0452  0.3751
  152MOL0     O19990   5.515   0.289   3.796 -0.6281  1.0673 -0.1839
  152MOL0     C19991   5.598   0.227   3.693 -0.2370  0.3390 -0.6715
  152MOL0     C19992   5.749   0.250   3.724 -0.0514 -0.0291  0.3021
  152MOL0     C19993   5.782   0.383   3.797  0.0639 -0.2122  0.3505
  152MOL0     C19994   5.929   0.423   3.765 -0.4452  0.2772  0.1192
  152MOL0     C19995   6.023   0.318   3.811 -0.1123 -0.1762  0.1327
  152MOL0     C19996   6.105   0.222   3.827 -0.2187  0.5034 -0.5047
  152MOL0     C19997   5.291   0.300   3.897  0.0809 -0.4681  0.4895
  152MOL0     C19998   5.150   0.285   3.881  0.6090  0.8554  0.4113
  152MOL0     H19999   4.765   0.337   3.541  2.0399 -1.2389  1.3523
  152MOL0     H20000   4.544   0.340   3.482  1.5855  0.6042 -1.3270
  152MOL0     H20001   4.336   0.278   3.679 -0.2972  0.6714 -1.2491
  152MOL0     H20002   4.226   0.150   3.671 -1.2156 -1.0111 -1.6010
  152MOL0     H20003   4.248   0.368   3.461 -1.0902  1.0785  0.1383
  152MOL0     H20004   4.111   0.341   3.562  1.2866  0.6238  1.3448
  152MOL0     H20005   4.079   0.113   3.474  0.8781 -0.4693 -1.1504
  152MOL0     H20006   4.208   0.143   3.362  0.8530  0.1990  1.7321
  152MOL0     H20007   3.953   0.174   3.296  0.1512  0.3995  0.7226
  152MOL0     H20008   3.953   0.311   3.403 -1.9486  0.8479 -1.6283
  152MOL0     H20009   4.093   0.299   3.125 -0.2353 -1.4617  0.8335
  152MOL0     H20010   4.138   0.413   3.235  0.8390 -1.7388  1.0961
  152MOL0     H20011   3.890   0.477   3.247  1.3126  0.1752  0.4762
  152MOL0     H20012   3.867   0.370   3.109 -1.4657  2.1014 -0.8252
  152MOL0     H20013   4.017   0.636   3.117 -0.5560  1.4056 -0.6932
  152MOL0     H20014   4.051   0.537   2.986  1.9073  3.1352  0.8554
  152MOL0     H20015   3.809   0.544   2.903 -2.2193  2.8455 -1.6521
  152MOL0     H20016   3.868   0.706   2.936  0.6107 -1.4088  0.2707
  152MOL0     H20017   3.569   0.634   2.945 -0.5269  1.2820  0.0509
  152MOL0     H20018   3.377   0.784   3.049  0.6107 -1.6398 -0.6344
  152MOL0     H20019   3.364   0.791   3.227 -0.5515  0.9417 -0.3220
  152MOL0     H20020   3.332   0.534   3.221 -3.6819 -1.3254 -1.1240
  152MOL0     H20021   3.372   0.530   3.049  0.2622 -1.8217 -0.0192
  152MOL0     H20022   3.149   0.693   3.190  1.0033  1.5804 -0.6669
  152MOL0     H20023   3.178   0.665   3.010  0.4745 -1.2429 -0.6200
  152MOL0     H20024   2.989   0.534   3.070  0.8851 -0.2289 -2.2478
  152MOL0     H20025   3.085   0.441   3.189 -3.0960 -1.7214 -0.4565
  152MOL0     H20026   2.956   0.303   3.102 -0.8556  1.7989 -1.4865
  152MOL0     H20027   2.869   0.069   3.039  1.6915 -0.6698  1.0122
  152MOL0     H20028   2.851  -0.168   2.537  1.6633  0.0166  0.3489
  152MOL0     H20029   2.712  -0.378   2.452  1.7826 -1.5654 -0.1655
  152MOL0     H20030   2.594  -0.757   2.605 -0.1364 -0.6793  0.0478
  152MOL0     H20031   2.719  -0.744   2.731 -2.1583 -1.2837 -0.0206
  152MOL0     H20032   2.762  -0.798   2.433  1.4881 -0.6308 -0.0075
  152MOL0     H20033   2.730  -0.931   2.540 -1.0995 -0.1979 -0.6085
  152MOL0     H20034   2.975  -0.770   2.606 -1.1140  0.7117  0.0965
  152MOL0     H20035   2.972  -0.909   2.492  0.6886 -0.0569  0.2023
  152MOL0     H20036   2.872  -0.931   2.793 -0.7822 -0.6684  0.6773
  152MOL0     H20037   2.879  -1.052   2.670  3.2930 -1.4612 -0.0353
  152MOL0     H20038   3.099  -0.885   2.802 -3.1775  1.5281 -0.2518
  152MOL0     H20039   3.143  -1.012   2.676  0.0969 -1.7096  0.7288
  152MOL0     H20040   3.058  -1.187   2.817  1.2488 -0.7694  1.6230
  152MOL0     H20041   2.994  -1.073   2.931  0.5221  1.3387  0.1800
  152MOL0     H20042   3.297  -1.104   2.863  0.4916  0.1737  0.3842
  152MOL0     H20043   3.222  -0.997   2.979 -1.2873  0.1779 -0.0805
  152MOL0     H20044   3.157  -1.297   2.992  0.1233  0.4719 -0.6946
  152MOL0     H20045   3.147  -1.175   3.112 -0.1961 -1.6980 -0.0536
  152MOL0     H20046   2.880  -0.594   2.789  0.3137 -0.9597 -0.6225
  152MOL0     H20047   2.994  -0.388   2.856 -0.4354 -1.2173  0.9391
  152MOL0     H20048   3.113   0.098   2.687  0.1607  1.4927  0.3803
  152MOL0     H20049   3.191   0.315   2.764 -1.9105 -0.7642 -1.6746
  152MOL0     H20050   4.505  -0.053   3.661  0.8388 -1.4921 -3.1276
  152MOL0     H20051   4.748  -0.065   3.706  1.5215 -0.0062 -0.0005
  152MOL0     H20052   5.145   0.176   3.552 -1.7140 -1.8698  1.7756
  152MOL0     H20053   5.372   0.203   3.579  0.5947  1.9226  0.1619
  152MOL0     H20054   5.578   0.280   3.600 -2.7929  1.1663  0.2740
  152MOL0     H20055   5.574   0.120   3.690 -1.5273  0.4251  2.7576
  152MOL0     H20056   5.789   0.171   3.788 -0.1625  1.8972  2.9161
  152MOL0     H20057   5.807   0.243   3.632 -0.2707 -0.2525  0.1799
  152MOL0     H20058   5.771   0.364   3.904 -1.8893  1.2375  0.4558
  152MOL0     H20059   5.713   0.464   3.774 -0.5884 -0.9057 -0.1415
  152MOL0     H20060   5.947   0.443   3.659 -3.4846 -0.0625 -0.5557
  152MOL0     H20061   5.957   0.513   3.822 -3.1575  0.6715  0.9588
  152MOL0     H20062   6.168   0.137   3.839 -0.0973  0.7723  1.0085
  152MOL0     H20063   5.343   0.306   3.992  0.3573  1.4479  0.2398
  152MOL0     H20064   5.090   0.274   3.971 -0.8860 -3.0770 -0.8713
  153MOL0     O20065   0.933   7.924   9.853  0.1877  0.0613 -0.6151
  153MOL0     C20066   0.907   7.847   9.760 -0.2004 -0.2167  0.8491
  153MOL0     O20067   0.781   7.821   9.706 -0.1361  0.3501  0.2414
  153MOL0     C20068   0.664   7.858   9.759 -0.4233 -0.0437  0.1111
  153MOL0     C20069   0.631   7.808   9.882 -0.4166  0.3092 -0.9212
  153MOL0     C20070   0.505   7.851   9.933 -0.3143 -0.6975  0.1973
  153MOL0     C20071   0.415   7.938   9.865  0.0619 -0.3904  0.1883
  153MOL0     O20072   0.287   7.965   9.920 -0.2676  0.3237  0.2108
  153MOL0     C20073   0.185   8.030   9.848 -0.9528 -0.6731  0.7125
  153MOL0     C20074   0.043   7.981   9.880 -0.0794  0.6708 -0.1400
  153MOL0     C20075  -0.049   8.027   9.776  0.3120 -0.5793 -0.3194
  153MOL0     C20076  -0.189   7.983   9.832 -0.6351 -0.5307 -0.0459
  153MOL0     C20077  -0.293   8.020   9.729  0.3426  0.2516  0.1100
  153MOL0     C20078  -0.434   7.988   9.761  0.0132 -0.2431 -0.1093
  153MOL0     C20079  -0.525   8.037   9.653  0.8117 -0.2902 -0.5188
  153MOL0     C20080  -0.675   8.030   9.688 -0.8881 -0.2246  0.6527
  153MOL0     N20081  -0.762   8.071   9.574 -0.5150  0.5780 -0.2344
  153MOL0     C20082  -0.795   8.200   9.546 -0.0930  0.0660  0.4326
  153MOL0     C20083  -0.857   8.193   9.429 -0.8089 -0.0519  0.4442
  153MOL0     C20084  -0.904   8.306   9.334  0.1129  0.7364 -0.0505
  153MOL0     C20085  -1.030   8.376   9.398 -0.5709 -0.1806 -0.8588
  153MOL0     C20086  -1.159   8.303   9.351 -0.7910  0.4724 -0.3688
  153MOL0     C20087  -1.289   8.360   9.413  0.4219  0.5738  0.7855
  153MOL0     O20088  -1.405   8.331   9.322  0.0501  0.3789 -0.3881
  153MOL0     C20089  -1.517   8.412   9.347  0.3196 -0.6479  0.4786
  153MOL0     C20090  -1.571   8.420   9.476 -0.5061  0.3823  0.3787
  153MOL0     C20091  -1.676   8.505   9.501 -0.4853 -0.8313 -0.8373
  153MOL0     C20092  -1.750   8.567   9.400  0.8141  0.0298 -0.1100
  153MOL0     C20093  -1.859   8.665   9.433  0.1427  0.1223 -0.0522
  153MOL0     O20094  -1.879   8.685   9.566  0.3438  0.5231 -0.1904
  153MOL0     C20095  -2.000   8.722   9.613  0.4673 -0.5002  0.3526
  153MOL0     C20096  -2.129   8.694   9.574 -0.1167 -0.1885  1.2254
  153MOL0     C20097  -2.244   8.734   9.653 -0.2197  0.2667 -0.1343
  153MOL0     C20098  -2.217   8.793   9.783  0.9767 -0.5188  0.3588
  153MOL0     O20099  -2.315   8.803   9.875 -0.0058 -0.1332 -0.5583
  153MOL0     C20100  -2.453   8.783   9.834 -0.1558  0.5705 -0.4819
  153MOL0     C20101  -2.540   8.810   9.955  0.2289 -0.0075  0.0135
  153MOL0     C20102  -2.690   8.774   9.937 -0.0826  0.1490  0.0959
  153MOL0     C20103  -2.757   8.725  10.068 -0.4060 -0.1390 -0.0394
  153MOL0     C20104  -2.870   8.627  10.033 -0.6553 -1.0626  0.0520
  153MOL0     C20105  -2.925   8.572  10.163  0.0010 -0.1632  0.5821
  153MOL0     C20106  -3.071   8.527  10.123  0.0588 -0.0516  0.5705
  153MOL0     C20107  -3.138   8.444  10.221 -0.4731  0.3799 -0.1751
  153MOL0    Cl20108  -3.299   8.418  10.167 -0.2752  0.1619  0.5803
  153MOL0     C20109  -2.090   8.823   9.818 -0.5227 -0.9975  0.3335
  153MOL0     C20110  -1.986   8.785   9.734 -0.4323 -0.0356  0.2395
  153MOL0     O20111  -1.942   8.698   9.344  0.1001  0.0052 -0.7203
  153MOL0     C20112  -1.710   8.548   9.266 -0.3844 -0.6566 -0.3918
  153MOL0     C20113  -1.584   8.481   9.250 -0.2523  0.0949  0.8266
  153MOL0     N20114  -0.866   8.062   9.393  0.5175 -0.0911 -0.4984
  153MOL0     N20115  -0.812   7.989   9.480 -0.1769  0.3739 -0.8966
  153MOL0     C20116   0.458   7.986   9.741  0.4181  0.1397  0.9118
  153MOL0     C20117   0.581   7.948   9.687 -0.4174 -0.3890 -0.6498
  153MOL0     C20118   1.021   7.797   9.680 -0.6738  0.2524  0.1749
  153MOL0     C20119   1.159   7.834   9.710  0.7386 -0.3111 -0.8391
  153MOL0     C20120   1.266   7.763   9.657  0.1210 -0.2132 -0.4410
  153MOL0     C20121   1.245   7.652   9.567  0.1713 -0.4633 -0.2669
  153MOL0     O20122   1.346   7.583   9.505 -0.4720 -0.4727 -0.6251
  153MOL0     C20123   1.475   7.607   9.551 -0.1230 -0.5508 -0.5363
  153MOL0     C20124   1.576   7.503   9.489 -0.3027  0.0038  0.4446
  153MOL0     C20125   1.714   7.497   9.546 -0.0902  0.5499 -0.9129
  153MOL0     C20126   1.731   7.493   9.700  0.4141 -0.2232  0.8887
  153MOL0     C20127   1.870   7.464   9.740 -0.8508  0.6204 -0.0553
  153MOL0     C20128   1.987   7.458   9.771 -0.4689  1.0536  0.0888
  153MOL0     C20129   1.114   7.640   9.518  0.2356  0.2556  0.7628
  153MOL0     C20130   1.000   7.700   9.576 -0.2765  0.0175  0.2640
  153MOL0     H20131   0.706   7.752   9.936  0.5069 -0.1411 -2.5966
  153MOL0     H20132   0.464   7.822  10.029  0.2074 -0.0496  0.6172
  153MOL0     H20133   0.203   8.012   9.741  1.0824 -3.1513  1.3940
  153MOL0     H20134   0.188   8.139   9.860 -2.6397 -0.1277 -2.5060
  153MOL0     H20135   0.013   8.008   9.981  0.6037 -1.9378  0.8402
  153MOL0     H20136   0.036   7.872   9.884 -2.1995  0.7975  1.3819
  153MOL0     H20137  -0.027   7.998   9.672  1.7532  1.1197 -0.5336
  153MOL0     H20138  -0.063   8.135   9.772 -3.4547 -0.9520 -0.6983
  153MOL0     H20139  -0.191   7.874   9.844  1.1420 -0.7236 -1.1312
  153MOL0     H20140  -0.207   8.036   9.926 -0.3266  0.5407 -0.5734
  153MOL0     H20141  -0.269   7.961   9.640 -0.0915  0.1187  0.0803
  153MOL0     H20142  -0.289   8.127   9.707  0.0526  0.4486  0.9980
  153MOL0     H20143  -0.453   8.040   9.855  0.4842  0.7461 -0.5500
  153MOL0     H20144  -0.461   7.883   9.778  0.8095 -0.2710  1.0536
  153MOL0     H20145  -0.506   8.144   9.639 -3.0030  0.5073 -0.6161
  153MOL0     H20146  -0.505   7.984   9.559  1.8160 -2.0865  0.6445
  153MOL0     H20147  -0.694   8.089   9.778 -0.2046  1.0686 -0.0314
  153MOL0     H20148  -0.703   7.928   9.718 -1.4611  0.4354  2.4789
  153MOL0     H20149  -0.767   8.287   9.604 -0.2022 -0.1035  0.7464
  153MOL0     H20150  -0.934   8.278   9.232  1.5824  0.0358 -0.3146
  153MOL0     H20151  -0.817   8.372   9.323  0.6054  0.0091 -0.6331
  153MOL0     H20152  -1.034   8.477   9.356  0.2808 -0.1547 -0.8856
  153MOL0     H20153  -1.025   8.395   9.505  0.4238 -0.7003 -0.7971
  153MOL0     H20154  -1.174   8.311   9.243  0.8465 -3.5615 -1.0940
  153MOL0     H20155  -1.154   8.195   9.370 -0.4615  0.5989  0.3223
  153MOL0     H20156  -1.294   8.468   9.425  0.4126  0.5053  1.4108
  153MOL0     H20157  -1.310   8.315   9.510 -2.5936 -1.0206 -0.4685
  153MOL0     H20158  -1.518   8.363   9.552 -2.4157 -0.3936  1.1838
  153MOL0     H20159  -1.700   8.526   9.604  0.0517 -0.6731 -0.7406
  153MOL0     H20160  -2.158   8.650   9.479 -3.3178  0.2489  1.8670
  153MOL0     H20161  -2.343   8.703   9.624  0.7926 -3.2834 -0.3439
  153MOL0     H20162  -2.462   8.678   9.804  1.9313  0.3351 -0.4194
  153MOL0     H20163  -2.479   8.852   9.753  2.2984  1.1496 -0.8420
  153MOL0     H20164  -2.520   8.902  10.011 -2.2525 -1.1657  3.1173
  153MOL0     H20165  -2.504   8.734  10.025  0.6363  0.3149  0.1582
  153MOL0     H20166  -2.684   8.691   9.866  0.0150  2.3512 -2.6472
  153MOL0     H20167  -2.756   8.851   9.896 -0.7423 -0.0838  0.6908
  153MOL0     H20168  -2.683   8.679  10.134 -0.1535 -0.6263 -0.6510
  153MOL0     H20169  -2.803   8.810  10.120  0.1365  0.1471 -0.0224
  153MOL0     H20170  -2.848   8.538   9.972  0.9841 -0.3835 -0.3980
  153MOL0     H20171  -2.946   8.683   9.978 -0.7591 -0.4055  0.8432
  153MOL0     H20172  -2.929   8.646  10.244 -0.8603 -0.5632  0.9175
  153MOL0     H20173  -2.866   8.490  10.203 -0.0365  0.2862  1.5826
  153MOL0     H20174  -3.131   8.616  10.103  0.7837  0.1060 -1.1181
  153MOL0     H20175  -3.065   8.468  10.030 -0.8234 -1.1560  1.1805
  153MOL0     H20176  -3.146   8.493  10.318  1.0448  0.4982 -0.0859
  153MOL0     H20177  -3.076   8.354  10.232 -2.1398 -0.6301  1.5604
  153MOL0     H20178  -2.057   8.861   9.914  1.2086 -1.3525 -0.0803
  153MOL0     H20179  -1.889   8.789   9.781 -1.0036  0.1723  1.4234
  153MOL0     H20180  -1.772   8.596   9.190 -0.0775  1.0907  0.4051
  153MOL0     H20181  -1.550   8.475   9.147  0.9626  1.2795  1.1323
  153MOL0     H20182   0.398   8.057   9.683  1.5946  1.8815  1.7309
  153MOL0     H20183   0.615   7.991   9.594 -2.1145 -0.2087 -1.2302
  153MOL0     H20184   1.174   7.917   9.777 -0.0386 -0.4714 -0.4565
  153MOL0     H20185   1.366   7.793   9.684 -0.0375  2.0467 -2.0163
  153MOL0     H20186   1.471   7.604   9.661  0.2738 -0.0663 -0.5056
  153MOL0     H20187   1.508   7.704   9.513  1.0128 -1.4963 -2.1080
  153MOL0     H20188   1.527   7.408   9.516  1.3343 -0.5162  1.7832
  153MOL0     H20189   1.595   7.512   9.382  1.9566  0.6621  0.8685
  153MOL0     H20190   1.762   7.593   9.524  1.1064 -0.1598 -1.5233
  153MOL0     H20191   1.780   7.419   9.505  2.1358  2.7775 -1.8923
  153MOL0     H20192   1.696   7.587   9.743 -2.9768 -0.0370 -1.8296
  153MOL0     H20193   1.674   7.413   9.748  1.3149 -1.8156 -0.5561
  153MOL0     H20194   2.087   7.453   9.808 -0.6210  1.0113  0.5072
  153MOL0     H20195   1.097   7.564   9.442 -0.2227  0.4837  0.6384
  153MOL0     H20196   0.902   7.685   9.533  0.7419 -1.1427 -1.8113
  154MOL0     O20197   8.274   2.159   5.959 -0.6444  0.4793 -0.0045
  154MOL0     C20198   8.314   2.219   6.059  0.2012  0.3062  0.1224
  154MOL0     O20199   8.243   2.237   6.186  0.2343 -1.3315 -0.5056
  154MOL0     C20200   8.105   2.222   6.181 -0.1043  1.4846  0.0368
  154MOL0     C20201   8.035   2.316   6.115 -0.1258  0.5160  0.1534
  154MOL0     C20202   7.894   2.313   6.118  0.2966  0.1214 -0.5637
  154MOL0     C20203   7.822   2.216   6.203 -0.8804 -0.9432  0.7411
  154MOL0     O20204   7.683   2.216   6.200 -0.7754 -0.1262  0.4930
  154MOL0     C20205   7.616   2.120   6.279 -0.4218  0.3338 -0.2421
  154MOL0     C20206   7.471   2.164   6.270 -0.0180 -0.7073  0.1194
  154MOL0     C20207   7.386   2.071   6.345 -0.7301  0.2559  0.4035
  154MOL0     C20208   7.246   2.091   6.335 -0.5085 -0.8533 -0.5096
  154MOL0     C20209   7.177   1.995   6.442 -0.6297 -0.4707  0.4535
  154MOL0     C20210   7.027   2.015   6.427  0.2260 -0.1553 -0.5345
  154MOL0     C20211   6.954   1.938   6.544 -0.6930 -0.3389  0.0823
  154MOL0     C20212   6.802   1.931   6.524 -0.0812 -0.5035  0.4177
  154MOL0     N20213   6.733   2.047   6.585 -0.0171  0.5354 -0.3004
  154MOL0     C20214   6.693   2.160   6.520 -0.1516  0.0700 -0.2443
  154MOL0     C20215   6.632   2.239   6.618 -0.2118  0.9790 -0.8604
  154MOL0     C20216   6.583   2.370   6.588 -0.3449 -0.1832  0.7188
  154MOL0     C20217   6.453   2.407   6.649 -0.4067  0.1590  0.1076
  154MOL0     C20218   6.344   2.310   6.615 -0.2825  0.8374 -0.2652
  154MOL0     C20219   6.203   2.364   6.640  0.1677  0.6897 -0.4947
  154MOL0     O20220   6.199   2.397   6.782 -0.3332  0.0801 -0.6650
  154MOL0     C20221   6.076   2.441   6.825 -0.1829  0.6266  0.8004
  154MOL0     C20222   6.049   2.433   6.963 -0.0971  0.3887  0.9492
  154MOL0     C20223   5.930   2.462   7.018 -0.1936 -0.1064 -0.1339
  154MOL0     C20224   5.828   2.503   6.929  0.5571  0.6460 -0.1639
  154MOL0     C20225   5.694   2.552   6.978 -0.6631  0.1328 -0.1517
  154MOL0     O20226   5.666   2.548   7.114 -0.3209 -0.7454 -0.1919
  154MOL0     C20227   5.544   2.561   7.167  0.2782 -0.1880 -0.8262
  154MOL0     C20228   5.536   2.527   7.301 -0.5325  0.1272  0.0061
  154MOL0     C20229   5.414   2.524   7.375 -0.0390  1.0129 -0.3813
  154MOL0     C20230   5.299   2.561   7.300  0.7926 -0.6118  0.6244
  154MOL0     O20231   5.171   2.567   7.343 -0.2465  0.3556  0.0528
  154MOL0     C20232   5.152   2.577   7.490  0.0166  0.0559 -0.6579
  154MOL0     C20233   5.001   2.589   7.529 -0.4120  0.1154  0.2427
  154MOL0     C20234   4.972   2.654   7.664 -0.0130  0.0935 -1.1127
  154MOL0     C20235   5.003   2.807   7.683  0.3800  0.3272  0.6794
  154MOL0     C20236   4.945   2.863   7.813 -0.0709 -1.0512  0.4683
  154MOL0     C20237   4.805   2.874   7.808  0.0860 -0.2040  0.1785
  154MOL0     C20238   4.736   2.953   7.923  1.1451 -0.5375 -0.5268
  154MOL0     C20239   4.598   3.004   7.876  0.0249  0.0692 -0.8811
  154MOL0    Cl20240   4.493   2.867   7.833  0.4696 -0.0629  0.2733
  154MOL0     C20241   5.301   2.585   7.167  0.3721 -0.5913  0.0707
  154MOL0     C20242   5.424   2.593   7.103  0.1056 -0.1169  0.0904
  154MOL0     O20243   5.619   2.593   6.889  0.0804  0.3372  0.8424
  154MOL0     C20244   5.846   2.506   6.792  0.5554 -0.2709 -0.1541
  154MOL0     C20245   5.969   2.466   6.736 -0.0657 -1.1160 -0.1035
  154MOL0     N20246   6.635   2.167   6.740 -0.1791 -0.8059 -0.1753
  154MOL0     N20247   6.688   2.051   6.715 -0.0976 -0.4261  0.0009
  154MOL0     C20248   7.898   2.125   6.277 -0.5690 -0.1138 -0.4487
  154MOL0     C20249   8.036   2.132   6.265 -0.4955  0.2791  0.1045
  154MOL0     C20250   8.449   2.267   6.059  1.1212 -0.5213 -0.2907
  154MOL0     C20251   8.535   2.243   5.953  0.7645 -1.3787  0.6672
  154MOL0     C20252   8.665   2.288   5.952  0.0832 -0.4116  0.5156
  154MOL0     C20253   8.715   2.368   6.056  0.4622 -0.6505 -0.0029
  154MOL0     O20254   8.845   2.420   6.043 -0.0183  0.4263 -0.2320
  154MOL0     C20255   8.901   2.504   6.147  0.6035  0.5920 -0.2808
  154MOL0     C20256   9.045   2.537   6.140 -0.4580 -0.6831 -0.8270
  154MOL0     C20257   9.144   2.414   6.137  0.2730  0.1185 -0.3957
  154MOL0     C20258   9.281   2.463   6.080 -0.5336 -0.1845 -0.2237
  154MOL0     C20259   9.359   2.350   6.034  1.1123  0.9045 -0.3799
  154MOL0     C20260   9.424   2.246   6.022  0.2626 -0.4815 -0.4353
  154MOL0     C20261   8.626   2.408   6.157  0.1659 -0.0460  0.3168
  154MOL0     C20262   8.492   2.361   6.156 -0.5836  0.4128 -0.2175
  154MOL0     H20263   8.090   2.393   6.062 -0.0760 -0.4192 -1.1906
  154MOL0     H20264   7.832   2.383   6.063  0.8203  0.8388 -0.2609
  154MOL0     H20265   7.648   2.117   6.383 -1.9224 -0.4149  0.2211
  154MOL0     H20266   7.632   2.018   6.243  0.6093  1.4677 -3.3045
  154MOL0     H20267   7.443   2.169   6.164  1.4843  0.2427 -0.2619
  154MOL0     H20268   7.448   2.266   6.302  0.9362 -0.2030 -0.7362
  154MOL0     H20269   7.419   2.086   6.449 -2.2155  0.6868  0.8429
  154MOL0     H20270   7.412   1.969   6.316 -0.9209  0.7466 -1.5859
  154MOL0     H20271   7.221   2.196   6.355  0.2710 -0.4040 -1.7603
  154MOL0     H20272   7.209   2.065   6.236 -1.1914  2.1741 -1.1500
  154MOL0     H20273   7.208   2.034   6.539 -1.0289 -0.9499  0.7768
  154MOL0     H20274   7.190   1.887   6.433 -0.7982 -0.9980  4.6911
  154MOL0     H20275   6.990   1.986   6.328  0.0931 -1.8042 -0.0220
  154MOL0     H20276   6.991   2.119   6.426 -1.9319 -0.8512 -0.6309
  154MOL0     H20277   6.987   1.834   6.544 -0.6795 -0.3780 -2.0793
  154MOL0     H20278   6.965   1.981   6.644 -2.2724  0.0800  0.1118
  154MOL0     H20279   6.773   1.837   6.571 -0.4251 -0.3865  0.4374
  154MOL0     H20280   6.770   1.928   6.419  1.2955 -2.6712 -0.0157
  154MOL0     H20281   6.707   2.193   6.418  0.0243  3.9433  0.8363
  154MOL0     H20282   6.558   2.369   6.481 -1.5418 -1.3242  0.9818
  154MOL0     H20283   6.664   2.443   6.600  0.9343 -1.9166  3.8339
  154MOL0     H20284   6.422   2.506   6.617 -0.7317  0.7037  1.9628
  154MOL0     H20285   6.475   2.412   6.756 -3.0848  1.7073  0.6614
  154MOL0     H20286   6.355   2.272   6.513  2.3059 -0.4507  0.4076
  154MOL0     H20287   6.349   2.217   6.673 -1.3948 -0.2797 -1.8683
  154MOL0     H20288   6.122   2.292   6.621  1.0097 -0.8334  1.3555
  154MOL0     H20289   6.188   2.447   6.571 -0.3883 -1.0175 -2.5672
  154MOL0     H20290   6.125   2.400   7.033  0.5879  1.2471  0.6347
  154MOL0     H20291   5.910   2.455   7.125  2.5903 -1.4265  0.4030
  154MOL0     H20292   5.624   2.509   7.362 -1.4729 -0.4487  1.2219
  154MOL0     H20293   5.407   2.506   7.482 -1.6857  1.0166 -0.4531
  154MOL0     H20294   5.195   2.671   7.527  2.1726 -1.4298  0.8240
  154MOL0     H20295   5.190   2.495   7.551  2.2826  0.8320 -0.9173
  154MOL0     H20296   4.964   2.486   7.531  0.1801 -0.0959  0.5326
  154MOL0     H20297   4.964   2.647   7.444  3.5360  0.9131 -1.1746
  154MOL0     H20298   5.036   2.603   7.737  0.9246  1.4842 -0.9349
  154MOL0     H20299   4.868   2.632   7.690  0.3672  1.3235  1.8828
  154MOL0     H20300   5.112   2.819   7.675  0.4655 -0.5845  0.4113
  154MOL0     H20301   4.963   2.866   7.600 -0.7095  0.0937  1.0237
  154MOL0     H20302   5.001   2.953   7.839  0.2913 -0.9002 -0.7887
  154MOL0     H20303   4.976   2.805   7.901  1.7276 -1.3709 -0.3287
  154MOL0     H20304   4.760   2.774   7.812 -0.6731  0.1222 -0.0927
  154MOL0     H20305   4.771   2.910   7.711  0.7384 -2.1384 -0.8452
  154MOL0     H20306   4.724   2.901   8.018  1.3781  0.2564 -0.0471
  154MOL0     H20307   4.798   3.042   7.937  1.1257 -0.7645  1.2313
  154MOL0     H20308   4.607   3.062   7.784 -3.2471  0.1294 -1.2574
  154MOL0     H20309   4.565   3.071   7.956  2.3157  0.7568 -0.4361
  154MOL0     H20310   5.216   2.624   7.111 -0.6233 -0.9767  1.2862
  154MOL0     H20311   5.426   2.629   7.001  1.3085  1.2237  0.5558
  154MOL0     H20312   5.780   2.551   6.718  1.4790  0.4627 -0.5491
  154MOL0     H20313   5.977   2.474   6.628 -0.6592 -0.8734 -0.1296
  154MOL0     H20314   7.855   2.063   6.355 -0.7919  0.6774  0.0710
  154MOL0     H20315   8.089   2.073   6.339  0.5344  2.0571  0.8534
  154MOL0     H20316   8.501   2.190   5.865 -0.3818 -3.3473  2.1951
  154MOL0     H20317   8.734   2.262   5.873  0.6568 -0.9255  1.1673
  154MOL0     H20318   8.892   2.452   6.243  1.3018  0.5350 -0.2424
  154MOL0     H20319   8.849   2.599   6.159  1.5340  0.9939  0.7865
  154MOL0     H20320   9.068   2.589   6.047  1.9954 -0.0415  0.0445
  154MOL0     H20321   9.088   2.607   6.213  3.3187 -2.0221 -1.5437
  154MOL0     H20322   9.103   2.345   6.063 -0.2539  1.7790 -1.7150
  154MOL0     H20323   9.149   2.365   6.235 -0.7862  3.1244  1.3337
  154MOL0     H20324   9.270   2.527   5.991 -2.9460  1.2697  1.0303
  154MOL0     H20325   9.345   2.517   6.151 -1.5351  0.7947 -0.0415
  154MOL0     H20326   9.492   2.162   6.024 -1.4028 -1.8765  1.1108
  154MOL0     H20327   8.654   2.481   6.232 -0.7360  0.5134  0.1168
  154MOL0     H20328   8.424   2.394   6.234 -1.2424 -2.8824  0.7770
  155MOL0     O20329   4.146   3.103   9.694 -0.3873 -0.0986  0.0284
  155MOL0     C20330   4.193   3.212   9.668 -0.5835 -0.8439 -0.4649
  155MOL0     O20331   4.117   3.323   9.639 -0.2301  1.0075 -0.6751
  155MOL0     C20332   3.981   3.307   9.620  0.8368 -0.0244  0.1491
  155MOL0     C20333   3.890   3.221   9.684  0.3613 -0.2721 -0.7293
  155MOL0     C20334   3.752   3.215   9.662 -0.0589 -0.4909  0.1268
  155MOL0     C20335   3.689   3.288   9.564 -0.1943 -0.3087  0.4266
  155MOL0     O20336   3.549   3.301   9.547  0.1462  0.0869  0.5066
  155MOL0     C20337   3.471   3.281   9.665 -0.7399 -0.0622 -0.3440
  155MOL0     C20338   3.353   3.376   9.660  1.4192  0.6301 -0.0239
  155MOL0     C20339   3.281   3.377   9.529  0.5284  0.1987  0.4955
  155MOL0     C20340   3.163   3.485   9.527 -0.2202  0.6509  0.5471
  155MOL0     C20341   3.071   3.484   9.403 -0.4864  0.0888 -0.1389
  155MOL0     C20342   2.939   3.547   9.442  0.0744 -0.1230 -0.0971
  155MOL0     C20343   2.846   3.512   9.326  0.1906  0.2651  0.2509
  155MOL0     C20344   2.713   3.576   9.339 -0.1730 -0.0075  0.4353
  155MOL0     N20345   2.710   3.723   9.303  0.0318  0.5235  0.6521
  155MOL0     C20346   2.634   3.794   9.209  0.2035  0.2530 -0.1966
  155MOL0     C20347   2.673   3.922   9.204 -0.3136 -0.4388  0.1359
  155MOL0     C20348   2.633   4.041   9.116 -0.5515  0.7585  0.3253
  155MOL0     C20349   2.480   4.075   9.133 -0.6536  0.1687  0.4909
  155MOL0     C20350   2.397   4.008   9.024  0.0265  0.0583 -0.2747
  155MOL0     C20351   2.246   4.016   9.059 -0.2392 -0.7183 -0.0908
  155MOL0     O20352   2.173   3.944   8.962  0.0313 -0.2801  0.1242
  155MOL0     C20353   2.045   3.917   8.980 -0.3203  0.2092 -1.3004
  155MOL0     C20354   1.971   3.982   9.085 -0.3490  1.2492  0.5271
  155MOL0     C20355   1.834   3.959   9.095 -0.1014  0.3018  0.2066
  155MOL0     C20356   1.774   3.868   9.014  0.0699  0.3446  0.2160
  155MOL0     C20357   1.620   3.855   8.996 -0.7671  0.5036 -0.2603
  155MOL0     O20358   1.544   3.952   9.052  0.4465  0.0082 -0.8623
  155MOL0     C20359   1.404   3.950   9.034  0.5123 -0.5622  0.1389
  155MOL0     C20360   1.338   3.831   9.052  0.6881  0.7768 -0.4359
  155MOL0     C20361   1.205   3.824   9.033  0.1456  0.0041  0.4852
  155MOL0     C20362   1.130   3.937   8.985  0.0054 -0.0176 -0.2493
  155MOL0     O20363   0.991   3.921   8.980  0.0641  0.1920  0.0263
  155MOL0     C20364   0.919   4.037   8.933 -0.8466 -0.3161 -0.9981
  155MOL0     C20365   0.777   4.007   8.889  0.3539  0.2674  0.0108
  155MOL0     C20366   0.695   3.925   8.981  0.0046 -0.7747 -0.5053
  155MOL0     C20367   0.572   3.864   8.900 -0.3217 -0.4265  1.0266
  155MOL0     C20368   0.448   3.838   8.985  0.5872 -0.7720  1.6121
  155MOL0     C20369   0.333   3.791   8.889 -0.1780  0.2105 -0.1392
  155MOL0     C20370   0.201   3.741   8.958  0.1252  0.5864  0.3340
  155MOL0     C20371   0.113   3.860   9.004 -0.3906 -0.0511  0.1885
  155MOL0    Cl20372  -0.012   3.815   9.127 -0.5244  0.4676  0.5705
  155MOL0     C20373   1.193   4.062   8.967  0.0280  0.0151 -0.5188
  155MOL0     C20374   1.334   4.063   8.989  0.4067 -1.3865  0.0497
  155MOL0     O20375   1.577   3.767   8.918  0.2574  0.1471  0.0749
  155MOL0     C20376   1.854   3.786   8.922 -0.0598  0.1556  0.1861
  155MOL0     C20377   1.989   3.821   8.903 -0.2366  0.8938 -0.9645
  155MOL0     N20378   2.766   3.929   9.303 -0.2705 -0.2042  0.1694
  155MOL0     N20379   2.784   3.817   9.366 -0.2566  0.3363  0.4290
  155MOL0     C20380   3.780   3.378   9.495  0.3995 -0.6528  0.7671
  155MOL0     C20381   3.919   3.391   9.517  0.5286  0.4288  0.6739
  155MOL0     C20382   4.335   3.242   9.650  0.3410  0.8720  0.2086
  155MOL0     C20383   4.436   3.153   9.701 -0.3509  0.2327  0.8571
  155MOL0     C20384   4.574   3.183   9.689  0.7585  0.0001  0.1734
  155MOL0     C20385   4.607   3.295   9.605 -0.0887  0.7766  0.0416
  155MOL0     O20386   4.740   3.337   9.592  0.3878  0.1886 -0.0178
  155MOL0     C20387   4.850   3.251   9.631 -0.0517  0.4110 -0.2702
  155MOL0     C20388   4.991   3.288   9.594 -0.1621 -0.6664 -0.4425
  155MOL0     C20389   5.095   3.191   9.654  0.5992  0.1996  0.4000
  155MOL0     C20390   5.237   3.229   9.598 -0.6460 -0.3229 -1.1954
  155MOL0     C20391   5.340   3.151   9.676  0.0186 -0.3988  0.6593
  155MOL0     C20392   5.435   3.089   9.719  0.2079 -0.0509 -0.0910
  155MOL0     C20393   4.510   3.388   9.574 -0.6300 -0.2920  0.3129
  155MOL0     C20394   4.377   3.363   9.591  0.2306 -0.1456  0.3332
  155MOL0     H20395   3.917   3.154   9.765 -1.5223 -1.2683 -0.8595
  155MOL0     H20396   3.688   3.142   9.711 -1.0198 -0.6905 -1.3689
  155MOL0     H20397   3.536   3.304   9.750 -2.5068 -0.0644  1.0787
  155MOL0     H20398   3.448   3.175   9.659 -1.9890  0.2190 -0.9633
  155MOL0     H20399   3.385   3.477   9.688  0.9842  0.1268  2.4550
  155MOL0     H20400   3.285   3.347   9.740  3.1651  1.2210  1.7519
  155MOL0     H20401   3.246   3.275   9.507  2.3190 -0.4279  0.4544
  155MOL0     H20402   3.353   3.401   9.450  0.9646 -1.8569  0.2106
  155MOL0     H20403   3.099   3.470   9.614 -0.6906 -1.1078 -0.0723
  155MOL0     H20404   3.219   3.578   9.541 -1.6322  1.7111 -0.4878
  155MOL0     H20405   3.056   3.379   9.379 -2.4111  0.8303 -2.6042
  155MOL0     H20406   3.111   3.535   9.315  0.4509 -0.8348 -0.2611
  155MOL0     H20407   2.948   3.654   9.463 -2.9366  0.1543  0.1760
  155MOL0     H20408   2.902   3.498   9.532 -0.6254  1.7031  0.6650
  155MOL0     H20409   2.891   3.540   9.230  0.7469  2.0942  0.9976
  155MOL0     H20410   2.837   3.403   9.327 -1.2363  0.3360 -1.0318
  155MOL0     H20411   2.685   3.574   9.445 -3.0073 -0.0581 -0.2190
  155MOL0     H20412   2.632   3.530   9.280 -0.7174  0.8253  0.5157
  155MOL0     H20413   2.552   3.746   9.156 -2.1005  2.0594  1.5457
  155MOL0     H20414   2.646   4.012   9.012 -2.0019 -2.8254  0.9803
  155MOL0     H20415   2.683   4.132   9.150 -0.1400  0.9568 -0.7639
  155MOL0     H20416   2.454   4.181   9.126 -1.4679 -0.1527 -3.1204
  155MOL0     H20417   2.441   4.047   9.231 -0.0684 -0.0013  0.6772
  155MOL0     H20418   2.415   4.059   8.929 -0.8028 -1.0153 -1.0277
  155MOL0     H20419   2.432   3.905   9.012  2.5951  0.8381  0.0179
  155MOL0     H20420   2.220   4.122   9.058 -1.0863 -0.9175 -0.7054
  155MOL0     H20421   2.241   3.964   9.155 -0.5947 -1.0527 -0.2857
  155MOL0     H20422   2.024   4.062   9.136  3.7852 -1.8008  1.4948
  155MOL0     H20423   1.772   4.030   9.148  1.0194 -0.8518  3.3178
  155MOL0     H20424   1.400   3.746   9.079 -2.7544 -2.9274 -2.9535
  155MOL0     H20425   1.151   3.731   9.049 -1.4413  1.0902  1.8012
  155MOL0     H20426   0.977   4.069   8.846  2.9834 -1.1763  1.0343
  155MOL0     H20427   0.917   4.108   9.016  0.5126 -1.5832  0.1789
  155MOL0     H20428   0.782   3.961   8.789  2.4386  1.0856 -0.3128
  155MOL0     H20429   0.730   4.101   8.859  1.3035  0.3684 -1.2560
  155MOL0     H20430   0.662   3.981   9.069  1.6134 -0.0400 -0.3431
  155MOL0     H20431   0.745   3.833   9.013 -2.1793 -0.6104  4.1493
  155MOL0     H20432   0.544   3.926   8.815  2.3751 -2.4906 -1.5658
  155MOL0     H20433   0.605   3.763   8.872  0.3235 -0.2783  1.2305
  155MOL0     H20434   0.407   3.931   9.026 -0.6604 -1.1574  1.2892
  155MOL0     H20435   0.471   3.769   9.067  1.0459 -1.8124  0.6304
  155MOL0     H20436   0.374   3.710   8.828  1.4535 -0.4466  1.7210
  155MOL0     H20437   0.308   3.873   8.821  0.2349 -0.9747 -1.7955
  155MOL0     H20438   0.149   3.686   8.879  1.3853  0.7284 -0.6105
  155MOL0     H20439   0.221   3.674   9.042  0.3771 -0.0480 -0.2280
  155MOL0     H20440   0.053   3.909   8.927  1.8234  2.6420  0.0298
  155MOL0     H20441   0.172   3.940   9.050  2.6472 -0.3727 -2.7543
  155MOL0     H20442   1.148   4.159   8.949 -1.8076 -1.0277 -1.8006
  155MOL0     H20443   1.390   4.154   8.969 -1.7618 -0.7280 -4.3588
  155MOL0     H20444   1.807   3.713   8.857  0.6929  0.4361 -0.6962
  155MOL0     H20445   2.055   3.769   8.834  0.2334 -1.0817  0.8312
  155MOL0     H20446   3.747   3.440   9.412 -1.4317  0.2486  2.0984
  155MOL0     H20447   3.981   3.464   9.467  1.5385 -0.6909  0.2334
  155MOL0     H20448   4.404   3.062   9.751 -3.1527  0.3760 -0.4774
  155MOL0     H20449   4.644   3.113   9.734  2.5251  2.4661  1.5336
  155MOL0     H20450   4.834   3.162   9.568 -0.6249  0.4527 -0.1930
  155MOL0     H20451   4.846   3.228   9.738  1.4208 -1.9828 -0.6493
  155MOL0     H20452   4.989   3.294   9.485 -3.5923  0.9573 -0.4188
  155MOL0     H20453   5.008   3.385   9.643  2.8001 -2.1561  1.8304
  155MOL0     H20454   5.065   3.091   9.620 -1.5390  0.1047  2.2914
  155MOL0     H20455   5.083   3.195   9.763 -2.9197 -0.7547  0.1598
  155MOL0     H20456   5.251   3.218   9.490 -1.5599 -2.7743 -1.1384
  155MOL0     H20457   5.249   3.336   9.617  0.5497 -0.7572  0.8270
  155MOL0     H20458   5.511   3.024   9.758  0.1064 -0.9639 -1.3755
  155MOL0     H20459   4.530   3.485   9.531 -0.0628 -0.8427 -0.7032
  155MOL0     H20460   4.305   3.435   9.555 -1.5262 -1.6566  0.6678
  156MOL0     O20461   2.063   3.052   5.664 -0.4741 -0.2916  1.2820
  156MOL0     C20462   2.068   3.064   5.539  0.3292  0.0623 -0.3107
  156MOL0     O20463   1.967   3.032   5.453  0.6391 -0.2646  0.0330
  156MOL0     C20464   1.863   2.953   5.504  0.3008  0.3436  0.5890
  156MOL0     C20465   1.761   3.003   5.590 -0.1105  0.5409 -0.2124
  156MOL0     C20466   1.652   2.927   5.636  0.1595 -0.9550  0.3274
  156MOL0     C20467   1.643   2.792   5.600  0.4308  0.4086 -0.0836
  156MOL0     O20468   1.524   2.739   5.649 -0.3780 -0.0536 -0.8310
  156MOL0     C20469   1.496   2.606   5.602  0.6799 -0.1807 -0.1824
  156MOL0     C20470   1.365   2.560   5.676 -0.4680 -0.4963  0.0686
  156MOL0     C20471   1.236   2.627   5.626  0.2022  0.7812 -0.4946
  156MOL0     C20472   1.112   2.568   5.686 -0.6409 -0.1274 -0.1432
  156MOL0     C20473   0.975   2.605   5.614 -0.0401  0.0314 -0.1845
  156MOL0     C20474   0.864   2.514   5.669  0.2499 -0.0739 -0.0047
  156MOL0     C20475   0.720   2.550   5.617 -0.4042 -0.5463 -0.3177
  156MOL0     C20476   0.661   2.673   5.699  0.9124  0.5912  0.4553
  156MOL0     N20477   0.519   2.648   5.720  0.8453  0.5977  0.6305
  156MOL0     C20478   0.419   2.708   5.641  0.0976 -0.2348  0.7265
  156MOL0     C20479   0.310   2.679   5.719  0.3911  0.3726 -0.4309
  156MOL0     C20480   0.174   2.733   5.692  0.2057  0.3962  0.3644
  156MOL0     C20481   0.107   2.628   5.602 -0.2825 -0.0908 -0.9983
  156MOL0     C20482   0.161   2.617   5.457  0.3987  0.2335  0.1419
  156MOL0     C20483   0.047   2.560   5.370  0.3501 -0.4220  0.2878
  156MOL0     O20484  -0.071   2.632   5.338  0.2152  0.3363 -0.8716
  156MOL0     C20485  -0.193   2.614   5.398 -0.6637  0.1620 -0.0023
  156MOL0     C20486  -0.212   2.514   5.507 -0.8261 -0.5081 -1.0568
  156MOL0     C20487  -0.344   2.504   5.564  0.1075  0.1849 -0.3397
  156MOL0     C20488  -0.457   2.572   5.517  0.1519  0.2454  0.1976
  156MOL0     C20489  -0.589   2.547   5.585  0.1664 -0.4152 -0.1347
  156MOL0     O20490  -0.586   2.471   5.699  0.1479 -0.5695  0.0026
  156MOL0     C20491  -0.701   2.458   5.767  0.0495  1.0300 -0.5768
  156MOL0     C20492  -0.779   2.563   5.812 -0.5772 -1.2364 -1.2789
  156MOL0     C20493  -0.902   2.542   5.882  0.1233 -0.3655 -0.0288
  156MOL0     C20494  -0.957   2.419   5.900  0.3938 -0.0591 -0.6232
  156MOL0     O20495  -1.082   2.406   5.957  0.2900  0.2783  0.4824
  156MOL0     C20496  -1.146   2.278   5.978  0.0784 -0.0120  0.2394
  156MOL0     C20497  -1.281   2.297   6.044 -0.6563  0.5465 -0.5924
  156MOL0     C20498  -1.347   2.431   6.019 -0.3597  0.3015 -0.0686
  156MOL0     C20499  -1.468   2.460   6.113 -0.2784  0.4141  0.2093
  156MOL0     C20500  -1.412   2.510   6.252 -0.6171  0.4693  0.1188
  156MOL0     C20501  -1.504   2.461   6.361  0.2117  0.3898 -1.1954
  156MOL0     C20502  -1.461   2.520   6.493 -0.1913  0.5642 -0.3491
  156MOL0     C20503  -1.525   2.460   6.616 -0.3349  0.3947 -0.2572
  156MOL0    Cl20504  -1.440   2.522   6.753  0.0635  0.0897 -0.2765
  156MOL0     C20505  -0.880   2.306   5.855  0.7663 -0.2241 -0.4480
  156MOL0     C20506  -0.752   2.329   5.799  0.0843  0.9981  0.9841
  156MOL0     O20507  -0.688   2.598   5.532 -0.1028  0.4519 -0.4549
  156MOL0     C20508  -0.433   2.660   5.409  0.0158  0.2606 -0.1012
  156MOL0     C20509  -0.306   2.684   5.356  0.1853  0.2877  0.7558
  156MOL0     N20510   0.344   2.602   5.836  0.2878 -0.2483 -0.3494
  156MOL0     N20511   0.473   2.577   5.826  1.0208  0.2239  0.3686
  156MOL0     C20512   1.749   2.731   5.519 -0.0843  0.1889  0.3278
  156MOL0     C20513   1.850   2.818   5.467  0.0427  0.8787  0.6302
  156MOL0     C20514   2.197   3.121   5.498  0.8025 -1.4031 -0.3001
  156MOL0     C20515   2.230   3.134   5.359 -0.4313 -0.4868 -0.7187
  156MOL0     C20516   2.362   3.153   5.326 -0.8211 -0.3049  0.5640
  156MOL0     C20517   2.459   3.197   5.415  0.5404  0.6600 -0.1615
  156MOL0     O20518   2.582   3.231   5.370 -0.0598  0.0582  0.1730
  156MOL0     C20519   2.691   3.264   5.466  0.1027 -0.1298  0.1349
  156MOL0     C20520   2.823   3.282   5.383 -0.4062 -0.4659  0.3391
  156MOL0     C20521   2.879   3.150   5.341 -0.0926  0.2849 -0.9397
  156MOL0     C20522   2.948   3.152   5.202  0.5206 -0.2991 -0.0228
  156MOL0     C20523   3.022   3.033   5.158 -0.0075 -0.0785  0.5452
  156MOL0     C20524   3.070   2.925   5.135 -0.9672  0.4364 -0.0318
  156MOL0     C20525   2.415   3.212   5.546 -0.1771 -0.0755 -0.5012
  156MOL0     C20526   2.297   3.161   5.588 -0.5780 -0.3408  0.2547
  156MOL0     H20527   1.749   3.102   5.633 -3.4947  0.6547 -1.1069
  156MOL0     H20528   1.579   2.963   5.708 -2.9428 -3.3433 -1.3473
  156MOL0     H20529   1.581   2.541   5.624  1.9857  1.0060 -1.5267
  156MOL0     H20530   1.478   2.600   5.495  1.7672 -0.0082 -0.3845
  156MOL0     H20531   1.380   2.569   5.784  0.9344  2.0941 -0.2501
  156MOL0     H20532   1.351   2.454   5.656 -1.8535 -0.9802  3.1427
  156MOL0     H20533   1.238   2.629   5.517 -0.1271  1.6650 -0.4943
  156MOL0     H20534   1.235   2.734   5.649 -1.1091  0.8824 -0.9460
  156MOL0     H20535   1.128   2.461   5.702 -0.1382 -0.5422 -2.9526
  156MOL0     H20536   1.102   2.613   5.786  1.8079  2.6496 -0.9884
  156MOL0     H20537   0.972   2.592   5.506 -0.0524 -1.9582  0.0152
  156MOL0     H20538   0.943   2.709   5.630 -2.7041  0.0538 -4.1267
  156MOL0     H20539   0.859   2.509   5.778 -2.8734 -3.6752 -0.1155
  156MOL0     H20540   0.890   2.412   5.641  1.1237  0.5209 -1.5140
  156MOL0     H20541   0.723   2.552   5.508  0.2383 -1.0613 -0.3199
  156MOL0     H20542   0.659   2.462   5.636  0.1575 -0.7590  0.6134
  156MOL0     H20543   0.668   2.764   5.639  1.9669  0.5729  0.5394
  156MOL0     H20544   0.709   2.688   5.796 -0.1439  1.7810  0.8241
  156MOL0     H20545   0.425   2.780   5.559 -1.3826  0.3001  1.0480
  156MOL0     H20546   0.179   2.830   5.640  0.9620 -0.4102 -1.1137
  156MOL0     H20547   0.122   2.754   5.787 -0.7537 -0.7276  0.1073
  156MOL0     H20548  -0.001   2.646   5.599 -0.3180 -0.4143 -2.1227
  156MOL0     H20549   0.121   2.533   5.654 -0.4223  1.0347  1.1924
  156MOL0     H20550   0.198   2.714   5.423 -1.5807  1.4946  1.3830
  156MOL0     H20551   0.245   2.548   5.462  1.3392  0.7873 -4.0293
  156MOL0     H20552   0.030   2.463   5.417  0.1293  0.5562  2.3742
  156MOL0     H20553   0.100   2.533   5.278  1.2132 -0.1732  0.7023
  156MOL0     H20554  -0.128   2.449   5.530  0.7299  1.0647 -2.0870
  156MOL0     H20555  -0.361   2.416   5.626 -0.5980  0.1367 -0.5865
  156MOL0     H20556  -0.731   2.659   5.795 -2.3763 -0.4633 -2.2399
  156MOL0     H20557  -0.958   2.629   5.916 -0.9607  0.7415 -4.0724
  156MOL0     H20558  -1.091   2.219   6.052 -1.5703  0.3186  1.7999
  156MOL0     H20559  -1.158   2.231   5.880 -2.1829  0.6665  0.1381
  156MOL0     H20560  -1.261   2.294   6.152 -1.8694 -0.5366 -0.3697
  156MOL0     H20561  -1.345   2.211   6.028 -0.7577  0.2998  0.9919
  156MOL0     H20562  -1.368   2.425   5.912 -1.6922  1.0175  0.1233
  156MOL0     H20563  -1.281   2.518   6.021 -1.8020  1.4834 -1.1965
  156MOL0     H20564  -1.527   2.546   6.078  0.7623  1.9206  1.9557
  156MOL0     H20565  -1.527   2.370   6.131  2.8188 -1.6460  0.7145
  156MOL0     H20566  -1.406   2.619   6.245 -1.9051  0.4870 -1.2158
  156MOL0     H20567  -1.316   2.461   6.273 -0.8024 -1.4152 -2.8301
  156MOL0     H20568  -1.503   2.352   6.375 -1.2154  0.6742  2.2565
  156MOL0     H20569  -1.608   2.493   6.344  0.0750  1.5320  1.3001
  156MOL0     H20570  -1.356   2.494   6.509 -0.2531  0.1710 -0.5767
  156MOL0     H20571  -1.471   2.629   6.494 -3.0284  0.3854  0.3889
  156MOL0     H20572  -1.513   2.351   6.608  0.6345  0.1939  2.7073
  156MOL0     H20573  -1.632   2.484   6.618 -0.2048  1.0893 -1.1077
  156MOL0     H20574  -0.911   2.203   5.869  0.2348 -0.1504 -1.0175
  156MOL0     H20575  -0.691   2.246   5.764 -1.3754  0.6115 -0.7557
  156MOL0     H20576  -0.522   2.711   5.373 -0.7314 -0.5293  0.5681
  156MOL0     H20577  -0.292   2.752   5.273 -1.3793  1.9919  1.7968
  156MOL0     H20578   1.754   2.625   5.497 -1.0068  0.1150  0.4316
  156MOL0     H20579   1.926   2.770   5.406 -3.7053 -1.5355 -2.5622
  156MOL0     H20580   2.163   3.103   5.279 -2.0431 -1.1611  0.8200
  156MOL0     H20581   2.397   3.146   5.224 -4.3599  1.8342 -0.9899
  156MOL0     H20582   2.692   3.183   5.539 -0.3270 -0.1119  0.1655
  156MOL0     H20583   2.675   3.355   5.525  1.5602 -1.2568  2.3708
  156MOL0     H20584   2.809   3.346   5.296 -1.4365 -1.9983 -0.6760
  156MOL0     H20585   2.900   3.328   5.445 -0.2961 -1.8132  1.2598
  156MOL0     H20586   2.796   3.081   5.321 -1.0823  1.1242  0.1763
  156MOL0     H20587   2.941   3.116   5.425 -1.3332  0.4520  0.0656
  156MOL0     H20588   2.868   3.168   5.129  0.4246 -1.9742 -0.3296
  156MOL0     H20589   3.018   3.236   5.195  1.4052 -0.7383  2.3317
  156MOL0     H20590   3.104   2.824   5.138 -1.3364  0.3221  1.9377
  156MOL0     H20591   2.482   3.252   5.622 -2.2969  0.0195  1.4101
  156MOL0     H20592   2.287   3.149   5.696 -2.0608 -1.6999  0.0054
  157MOL0     O20593   7.595   4.188   1.806 -0.6334  0.3313 -0.2506
  157MOL0     C20594   7.609   4.247   1.694 -0.8046  0.1007 -0.1769
  157MOL0     O20595   7.540   4.365   1.658 -0.0833  0.0127  0.8850
  157MOL0     C20596   7.448   4.415   1.753 -0.0226  0.3716  0.2056
  157MOL0     C20597   7.309   4.414   1.727 -0.7660 -0.5395 -0.6496
  157MOL0     C20598   7.209   4.479   1.800 -0.6238  0.5537 -0.0525
  157MOL0     C20599   7.245   4.555   1.910  0.2293  0.8081 -0.3107
  157MOL0     O20600   7.144   4.605   1.984  0.6280 -0.5959 -0.4110
  157MOL0     C20601   7.164   4.628   2.132 -0.4794  0.2284  0.4082
  157MOL0     C20602   7.166   4.491   2.207  0.1740 -0.8742  0.4716
  157MOL0     C20603   7.048   4.398   2.155 -1.0299  0.2831 -0.1500
  157MOL0     C20604   6.904   4.459   2.167 -0.2426 -0.6567  0.0478
  157MOL0     C20605   6.801   4.365   2.099 -0.1932 -0.2908  0.3778
  157MOL0     C20606   6.652   4.400   2.117  0.5779  0.4195  0.0157
  157MOL0     C20607   6.576   4.340   1.998  0.7131 -0.4462  0.8179
  157MOL0     C20608   6.412   4.351   2.008 -0.8819  0.3766  0.3865
  157MOL0     N20609   6.368   4.488   1.989 -0.2725 -0.7556 -1.0031
  157MOL0     C20610   6.242   4.534   2.002 -0.1489  0.1306  1.5412
  157MOL0     C20611   6.255   4.670   1.983 -0.2843  0.3721  0.5058
  157MOL0     C20612   6.146   4.769   1.996 -0.1853 -0.0155 -0.9887
  157MOL0     C20613   6.028   4.737   1.904 -0.9199 -0.2193  0.4964
  157MOL0     C20614   5.916   4.833   1.940 -0.0150  0.7641 -0.3334
  157MOL0     C20615   5.800   4.789   1.846 -0.7036  0.3070  0.2216
  157MOL0     O20616   5.691   4.884   1.868 -0.2266 -0.0181  0.3857
  157MOL0     C20617   5.629   4.917   1.751 -0.5120 -0.1590  0.8118
  157MOL0     C20618   5.578   4.824   1.658 -0.4323  0.7951 -0.0808
  157MOL0     C20619   5.501   4.860   1.548  0.5230  0.1825  0.5336
  157MOL0     C20620   5.465   4.999   1.523 -0.2923  1.2814 -0.2803
  157MOL0     C20621   5.374   5.028   1.413 -0.2667  1.1694 -0.2318
  157MOL0     O20622   5.339   4.923   1.332  0.0972  0.0381 -0.3701
  157MOL0     C20623   5.231   4.940   1.244 -0.3401  0.3303  0.4567
  157MOL0     C20624   5.264   4.961   1.115 -0.4897  1.1913  0.0134
  157MOL0     C20625   5.175   4.985   1.011  0.6068 -0.7994 -0.0541
  157MOL0     C20626   5.037   5.000   1.049 -0.1608  0.6439 -0.0130
  157MOL0     O20627   4.950   5.002   0.945  0.5953 -0.8723 -0.1442
  157MOL0     C20628   4.847   5.097   0.958  0.5633  0.5656  0.8360
  157MOL0     C20629   4.761   5.090   0.836 -0.4128 -0.4105 -0.2878
  157MOL0     C20630   4.649   5.185   0.833  0.4009 -0.7688 -0.6216
  157MOL0     C20631   4.559   5.174   0.701 -1.1823 -1.4783  0.0094
  157MOL0     C20632   4.437   5.264   0.697  0.1977 -0.2525  0.4481
  157MOL0     C20633   4.328   5.254   0.813 -0.3707 -0.3455 -0.6301
  157MOL0     C20634   4.216   5.348   0.791  0.7841  0.0166 -0.1123
  157MOL0     C20635   4.092   5.297   0.862 -0.0848 -0.0742 -0.0313
  157MOL0    Cl20636   4.015   5.164   0.766 -0.3934  0.1162  0.0045
  157MOL0     C20637   5.005   4.996   1.185  0.3562 -0.1007  0.4387
  157MOL0     C20638   5.098   4.968   1.283  1.2011 -0.4168 -0.9034
  157MOL0     O20639   5.337   5.147   1.403  0.3491 -0.2305  0.0883
  157MOL0     C20640   5.517   5.093   1.611 -0.5585  0.2209 -0.4999
  157MOL0     C20641   5.589   5.049   1.722 -0.8648 -0.2603 -0.1745
  157MOL0     N20642   6.384   4.702   1.948  0.1485  0.6335 -0.4700
  157MOL0     N20643   6.450   4.596   1.950  0.5828  0.4564 -0.7298
  157MOL0     C20644   7.385   4.576   1.934  0.1049  0.4869 -0.0374
  157MOL0     C20645   7.481   4.500   1.859 -0.3109 -0.2303  0.7375
  157MOL0     C20646   7.717   4.198   1.610 -0.6669 -0.3227  0.5412
  157MOL0     C20647   7.731   4.239   1.477 -0.3705 -0.3094  0.8789
  157MOL0     C20648   7.841   4.196   1.394 -0.3742  0.1346  0.2790
  157MOL0     C20649   7.931   4.102   1.452  0.0208  0.3074 -0.0553
  157MOL0     O20650   8.035   4.059   1.368  0.2359 -0.1043 -0.0458
  157MOL0     C20651   8.132   3.982   1.433 -1.0149  0.0562  0.5974
  157MOL0     C20652   8.227   4.075   1.515 -0.6008 -0.8283  0.6037
  157MOL0     C20653   8.349   4.017   1.588  0.0592  0.0650  0.4713
  157MOL0     C20654   8.446   3.952   1.499 -0.5072  0.6323  0.8035
  157MOL0     C20655   8.534   4.053   1.430 -0.3800 -0.3914 -0.4009
  157MOL0     C20656   8.599   4.148   1.383  0.3871 -0.2694  0.9249
  157MOL0     C20657   7.917   4.073   1.582 -0.7737  0.6279  0.1831
  157MOL0     C20658   7.820   4.123   1.661 -0.0048  0.7541 -0.2265
  157MOL0     H20659   7.283   4.365   1.634 -0.6903  0.8776 -1.4458
  157MOL0     H20660   7.110   4.444   1.772 -0.5235  1.6191 -1.8583
  157MOL0     H20661   7.088   4.697   2.169 -3.2695 -1.6209 -1.4978
  157MOL0     H20662   7.255   4.682   2.161 -0.4828  0.9669 -0.8502
  157MOL0     H20663   7.168   4.508   2.315  2.4826  0.3236  0.3142
  157MOL0     H20664   7.261   4.439   2.189 -0.6280 -1.4118 -2.9899
  157MOL0     H20665   7.051   4.307   2.216  0.0171 -0.8856 -1.8399
  157MOL0     H20666   7.059   4.371   2.050 -0.4210  0.7525 -0.2103
  157MOL0     H20667   6.890   4.469   2.275  0.2356  1.2205 -0.0400
  157MOL0     H20668   6.904   4.554   2.113  0.0451 -1.7008 -1.9015
  157MOL0     H20669   6.824   4.262   2.127  3.1301  0.1094 -0.4363
  157MOL0     H20670   6.829   4.369   1.993  2.2673 -4.4635  0.6304
  157MOL0     H20671   6.661   4.506   2.094  2.7398  0.5639  1.2805
  157MOL0     H20672   6.617   4.379   2.218  1.3662 -1.6866 -0.0879
  157MOL0     H20673   6.611   4.396   1.911 -3.5841  3.7894  1.4108
  157MOL0     H20674   6.609   4.237   1.984  1.1033 -0.1536 -0.6069
  157MOL0     H20675   6.377   4.319   2.106  0.5224 -0.6479  0.5902
  157MOL0     H20676   6.377   4.298   1.919  0.0803  1.7475 -0.8900
  157MOL0     H20677   6.157   4.471   2.024  0.5599 -1.0305  1.0678
  157MOL0     H20678   6.190   4.866   1.973  1.8806 -0.7771 -0.4517
  157MOL0     H20679   6.120   4.778   2.102  2.0394 -0.6551 -0.3208
  157MOL0     H20680   5.994   4.633   1.909 -0.4732 -0.2983  2.2968
  157MOL0     H20681   6.052   4.746   1.797 -0.5875 -0.8904  0.5086
  157MOL0     H20682   5.892   4.819   2.046  0.8871 -0.2572 -0.2349
  157MOL0     H20683   5.943   4.938   1.924  1.1853  0.3826 -0.9532
  157MOL0     H20684   5.759   4.688   1.857 -0.2185 -0.0027 -0.7288
  157MOL0     H20685   5.848   4.785   1.748  2.2513  1.3807  1.5157
  157MOL0     H20686   5.598   4.717   1.669  1.2244  1.0185 -0.6327
  157MOL0     H20687   5.479   4.777   1.481  1.1471 -0.4503  1.1012
  157MOL0     H20688   5.370   4.951   1.091 -1.0148  1.7100 -2.9546
  157MOL0     H20689   5.211   4.994   0.909  1.1031  0.5355  0.2159
  157MOL0     H20690   4.879   5.200   0.973 -0.4030  0.7525  1.7851
  157MOL0     H20691   4.778   5.065   1.037  0.4171 -0.9958  0.1173
  157MOL0     H20692   4.721   4.989   0.823  0.5013 -0.6099 -1.8680
  157MOL0     H20693   4.828   5.106   0.751 -0.6391 -0.4663 -0.4780
  157MOL0     H20694   4.677   5.291   0.837  0.0414 -0.6016 -2.0472
  157MOL0     H20695   4.589   5.167   0.923  0.1755 -0.0944 -0.6334
  157MOL0     H20696   4.623   5.199   0.616 -0.6120  0.8238  1.0423
  157MOL0     H20697   4.529   5.069   0.691  0.5185 -2.1879  1.6170
  157MOL0     H20698   4.383   5.251   0.603 -1.9324  1.3822  1.3678
  157MOL0     H20699   4.477   5.365   0.681 -0.5311 -0.1531 -0.8934
  157MOL0     H20700   4.377   5.285   0.906 -1.2400  1.2838 -0.6901
  157MOL0     H20701   4.286   5.154   0.826 -0.8712  0.2433  3.7357
  157MOL0     H20702   4.246   5.447   0.826 -1.4268  0.2579  1.2599
  157MOL0     H20703   4.189   5.365   0.686 -0.9724  3.2904  0.7459
  157MOL0     H20704   4.023   5.382   0.864  1.5844  1.3612 -0.1005
  157MOL0     H20705   4.112   5.272   0.967  2.2191  0.4090 -0.2858
  157MOL0     H20706   4.905   5.027   1.214 -0.1240 -0.7452 -0.4809
  157MOL0     H20707   5.080   4.956   1.390  0.7736  1.4580 -0.7346
  157MOL0     H20708   5.509   5.198   1.586 -2.1086  0.3908  0.6054
  157MOL0     H20709   5.628   5.122   1.792  0.5328 -0.9332 -0.2159
  157MOL0     H20710   7.416   4.645   2.012 -2.0513 -0.4713  1.7530
  157MOL0     H20711   7.588   4.515   1.874 -0.6727  1.4753  1.9207
  157MOL0     H20712   7.661   4.310   1.434  0.8030  0.1396 -0.3771
  157MOL0     H20713   7.848   4.244   1.297 -0.2258 -0.4405  0.0011
  157MOL0     H20714   8.190   3.922   1.363  1.3114  1.6464  1.0425
  157MOL0     H20715   8.077   3.910   1.494  0.1232 -0.5730  0.9083
  157MOL0     H20716   8.274   4.148   1.449 -2.0511 -0.4535 -0.0463
  157MOL0     H20717   8.169   4.130   1.590  2.0587  2.5650  0.4047
  157MOL0     H20718   8.307   3.954   1.667 -1.5984  0.2112 -0.2520
  157MOL0     H20719   8.400   4.099   1.639 -1.1833  1.4326 -0.3914
  157MOL0     H20720   8.513   3.886   1.555 -1.4547  0.9931  2.4336
  157MOL0     H20721   8.406   3.886   1.421  2.6228  0.6270 -0.9381
  157MOL0     H20722   8.650   4.214   1.316  0.5172 -0.0246  1.2588
  157MOL0     H20723   7.977   3.999   1.635 -1.9987  0.7538  1.8199
  157MOL0     H20724   7.828   4.100   1.767 -4.1962 -2.3579 -0.2833
  158MOL0     O20725   1.440   6.057   9.707  0.7105  0.0166 -0.7018
  158MOL0     C20726   1.438   6.178   9.690  1.2894 -0.4588 -0.5477
  158MOL0     O20727   1.541   6.265   9.701 -0.4016 -0.3220 -0.0196
  158MOL0     C20728   1.660   6.205   9.733  0.6319 -0.0215 -0.0552
  158MOL0     C20729   1.673   6.146   9.855 -0.4113  0.8005 -0.6025
  158MOL0     C20730   1.797   6.110   9.903  0.6547  0.8030 -0.2578
  158MOL0     C20731   1.903   6.143   9.829  0.1690  0.5257  0.0621
  158MOL0     O20732   2.031   6.123   9.868  0.3957  0.0371 -0.3601
  158MOL0     C20733   2.074   6.050   9.985 -0.5549 -0.3314  0.7635
  158MOL0     C20734   2.222   6.057   9.983 -0.4289 -0.2008  0.3152
  158MOL0     C20735   2.279   6.204  10.012  0.8881 -0.6977  0.2488
  158MOL0     C20736   2.432   6.220  10.040  0.5034 -0.5215  0.4653
  158MOL0     C20737   2.516   6.162   9.932  0.0780  0.4429 -0.9236
  158MOL0     C20738   2.477   6.213   9.800  0.6389  0.5143 -0.1776
  158MOL0     C20739   2.474   6.375   9.786 -1.1826 -0.1190  0.4311
  158MOL0     C20740   2.459   6.419   9.639  0.4849 -0.1297 -1.5803
  158MOL0     N20741   2.328   6.379   9.587  0.0924 -0.4164 -0.1132
  158MOL0     C20742   2.304   6.282   9.494  0.0975 -0.2520  0.4450
  158MOL0     C20743   2.170   6.280   9.461  0.4359  0.1022  0.6723
  158MOL0     C20744   2.092   6.186   9.369 -0.0241 -0.8137 -0.4114
  158MOL0     C20745   1.953   6.238   9.314 -0.5183  0.6966  0.1344
  158MOL0     C20746   1.866   6.115   9.274  0.1255 -0.1519  0.7000
  158MOL0     C20747   1.756   6.158   9.177 -0.2732  0.1044 -0.8312
  158MOL0     O20748   1.660   6.235   9.247  1.5156  0.3753 -0.1570
  158MOL0     C20749   1.547   6.262   9.184 -0.2517 -0.5878  0.4505
  158MOL0     C20750   1.510   6.204   9.054 -1.1741 -0.2304 -0.2688
  158MOL0     C20751   1.383   6.216   9.002 -0.2337 -0.6465 -0.4312
  158MOL0     C20752   1.279   6.282   9.075  0.1066  0.6263  0.6292
  158MOL0     C20753   1.137   6.278   9.037 -0.0441  0.0771 -0.6501
  158MOL0     O20754   1.044   6.373   9.079  0.7193 -0.0373  0.2984
  158MOL0     C20755   0.915   6.332   9.061  0.6068  0.6610  0.0365
  158MOL0     C20756   0.831   6.315   9.178 -0.3526 -0.7656  0.6368
  158MOL0     C20757   0.700   6.269   9.164 -0.3860 -0.1922  0.0723
  158MOL0     C20758   0.636   6.252   9.044 -0.2989 -0.1678  0.9528
  158MOL0     O20759   0.515   6.188   9.048  0.1679  0.3154 -0.6744
  158MOL0     C20760   0.514   6.093   8.943  0.6048 -0.5845 -0.0941
  158MOL0     C20761   0.398   5.988   8.947  0.9121  0.3319 -0.2740
  158MOL0     C20762   0.414   5.892   9.079  0.6950 -0.2337  0.0571
  158MOL0     C20763   0.524   5.794   9.061 -0.2892  0.5783  1.1841
  158MOL0     C20764   0.526   5.671   9.158  0.2807  0.1457  0.0377
  158MOL0     C20765   0.555   5.703   9.305  0.5136  1.0479 -0.7979
  158MOL0     C20766   0.558   5.570   9.390 -0.0571  0.2766  0.3389
  158MOL0     C20767   0.572   5.598   9.545  0.0142  0.8034  0.5467
  158MOL0    Cl20768   0.717   5.674   9.608  0.5244 -0.0932  0.0306
  158MOL0     C20769   0.710   6.284   8.928  0.4571 -0.1468  0.2096
  158MOL0     C20770   0.850   6.317   8.935 -0.6115  0.7743  0.1009
  158MOL0     O20771   1.106   6.179   8.969 -0.5449  0.5763 -0.2707
  158MOL0     C20772   1.312   6.343   9.196 -0.7055 -0.7037  0.0526
  158MOL0     C20773   1.443   6.332   9.249  0.6534 -0.0442  1.1485
  158MOL0     N20774   2.116   6.381   9.535  0.5836  0.7657  0.5753
  158MOL0     N20775   2.214   6.442   9.598  0.9433 -0.6688  0.6915
  158MOL0     C20776   1.896   6.187   9.692 -0.0638  0.6387 -0.7030
  158MOL0     C20777   1.772   6.215   9.645  0.7929 -0.1672 -0.2697
  158MOL0     C20778   1.307   6.240   9.657  0.1777  0.4592 -0.0294
  158MOL0     C20779   1.291   6.373   9.659  0.1435  0.0339  0.0459
  158MOL0     C20780   1.170   6.433   9.621  0.3703  0.5303  0.9023
  158MOL0     C20781   1.062   6.352   9.578  0.7380 -0.7950 -0.0706
  158MOL0     O20782   0.939   6.405   9.538 -0.4226  0.3378 -0.0618
  158MOL0     C20783   0.926   6.555   9.528  0.7234  0.3156 -0.3061
  158MOL0     C20784   0.778   6.596   9.516  0.1830 -0.0006 -0.9304
  158MOL0     C20785   0.689   6.528   9.632 -1.2113  0.0022 -0.2081
  158MOL0     C20786   0.555   6.596   9.659 -0.5138  0.4882 -0.0112
  158MOL0     C20787   0.465   6.502   9.729  0.8317 -0.5568  1.0927
  158MOL0     C20788   0.399   6.413   9.782 -0.6744  0.0043  0.0638
  158MOL0     C20789   1.066   6.213   9.593  0.0882 -0.7957 -0.3879
  158MOL0     C20790   1.189   6.163   9.641  0.0952  0.6209  0.0978
  158MOL0     H20791   1.578   6.134   9.907 -0.8539  1.2558 -1.2872
  158MOL0     H20792   1.802   6.060   9.999 -3.2532 -0.4263 -0.5349
  158MOL0     H20793   2.042   5.945   9.987  1.1439 -0.9118 -0.4688
  158MOL0     H20794   2.027   6.094  10.073 -0.7347  0.5596  0.2315
  158MOL0     H20795   2.271   6.030   9.889 -1.4686  0.8217 -0.5585
  158MOL0     H20796   2.258   5.985  10.057  1.7298  0.8540  0.3490
  158MOL0     H20797   2.236   6.225  10.110  0.0491  0.2079 -0.2964
  158MOL0     H20798   2.230   6.274   9.943 -0.3807 -0.2654  1.5344
  158MOL0     H20799   2.447   6.327  10.059 -0.5034 -0.2369 -0.2666
  158MOL0     H20800   2.445   6.178  10.140  0.5453  1.3382  1.2847
  158MOL0     H20801   2.521   6.053   9.930  2.4674  0.5194 -1.8624
  158MOL0     H20802   2.618   6.200   9.936  0.0159  1.1137 -3.6591
  158MOL0     H20803   2.377   6.176   9.778  0.0444  2.3267 -0.7123
  158MOL0     H20804   2.544   6.175   9.722  1.0435 -3.6189  1.9320
  158MOL0     H20805   2.407   6.428   9.854 -2.7601 -0.5950 -0.6850
  158MOL0     H20806   2.577   6.397   9.815 -1.5388  0.5027  1.2537
  158MOL0     H20807   2.528   6.367   9.572  0.5312  2.0978 -3.3594
  158MOL0     H20808   2.482   6.526   9.628  0.3966  0.2182  0.9391
  158MOL0     H20809   2.381   6.218   9.450  0.5842  0.6233 -0.0050
  158MOL0     H20810   2.077   6.095   9.429  3.1977 -1.9552 -1.1462
  158MOL0     H20811   2.157   6.169   9.283  2.1150  3.5547  0.1031
  158MOL0     H20812   1.966   6.314   9.236  1.7019  0.3768  0.1038
  158MOL0     H20813   1.903   6.297   9.391  1.7180  1.1185  1.3532
  158MOL0     H20814   1.925   6.039   9.221  0.8745  2.7901 -3.1038
  158MOL0     H20815   1.822   6.065   9.361 -0.6960 -0.8958 -0.1236
  158MOL0     H20816   1.711   6.067   9.136  2.0548 -0.8674 -1.4168
  158MOL0     H20817   1.794   6.214   9.091  1.6167  0.4009  0.1450
  158MOL0     H20818   1.582   6.145   8.998 -0.0061 -1.9644  2.8502
  158MOL0     H20819   1.369   6.167   8.906  3.3239 -2.5573 -0.1378
  158MOL0     H20820   0.867   6.333   9.279 -0.9670  0.5222  0.6445
  158MOL0     H20821   0.645   6.243   9.254  1.4401  0.3452  1.4073
  158MOL0     H20822   0.607   6.035   8.945 -1.9313 -5.6277 -3.9943
  158MOL0     H20823   0.510   6.141   8.845  0.2534  0.1835  0.2869
  158MOL0     H20824   0.397   5.941   8.849 -0.6055 -1.6885  0.6290
  158MOL0     H20825   0.305   6.043   8.962 -1.0511 -2.9577  0.6931
  158MOL0     H20826   0.328   5.826   9.092  1.2166 -0.8418  0.4170
  158MOL0     H20827   0.431   5.948   9.171 -0.0184 -1.3565  0.8938
  158MOL0     H20828   0.513   5.753   8.960  0.6977 -1.8731  1.9964
  158MOL0     H20829   0.614   5.855   9.068  0.7462 -0.9849  2.3373
  158MOL0     H20830   0.599   5.600   9.119  2.2025  2.6557 -1.2385
  158MOL0     H20831   0.424   5.633   9.146  0.6932 -0.9357 -0.1173
  158MOL0     H20832   0.475   5.767   9.342 -1.8234 -2.0538 -0.0363
  158MOL0     H20833   0.654   5.750   9.313  0.3572  1.6458 -2.1175
  158MOL0     H20834   0.473   5.505   9.368  1.8849 -2.1642 -0.3031
  158MOL0     H20835   0.653   5.523   9.364  0.3395  0.3919  1.5165
  158MOL0     H20836   0.556   5.501   9.593 -0.9413  1.3192  1.2951
  158MOL0     H20837   0.484   5.650   9.584  1.2584  2.4478  1.2213
  158MOL0     H20838   0.669   6.272   8.828 -2.4798 -1.0415  1.4017
  158MOL0     H20839   0.905   6.334   8.843 -0.4397 -1.3707 -0.2598
  158MOL0     H20840   1.239   6.398   9.255  0.7756 -1.5862  2.8721
  158MOL0     H20841   1.456   6.373   9.349  0.7306 -2.7596  2.3310
  158MOL0     H20842   1.990   6.202   9.640  0.1585 -1.4928 -1.0211
  158MOL0     H20843   1.758   6.250   9.543 -0.6091 -1.3934 -0.5245
  158MOL0     H20844   1.376   6.440   9.669  0.1676 -0.0012  0.0764
  158MOL0     H20845   1.166   6.541   9.612 -1.5200  0.5376  1.4324
  158MOL0     H20846   0.988   6.594   9.446  4.2623 -0.5033  1.7563
  158MOL0     H20847   0.950   6.596   9.626 -2.9531  0.9692  0.4421
  158MOL0     H20848   0.772   6.705   9.525  4.0351  0.4912 -2.2834
  158MOL0     H20849   0.764   6.556   9.415 -0.2285  0.8162 -1.2050
  158MOL0     H20850   0.748   6.534   9.723 -2.2231  0.2512  0.4411
  158MOL0     H20851   0.670   6.424   9.604  0.3660  0.0538 -1.6601
  158MOL0     H20852   0.569   6.686   9.719 -0.9936  0.0603  0.7647
  158MOL0     H20853   0.501   6.622   9.567 -1.5769 -2.3218 -0.2816
  158MOL0     H20854   0.343   6.333   9.823 -3.5745  2.0122  0.3057
  158MOL0     H20855   0.976   6.157   9.574  0.2176  0.1120 -4.7793
  158MOL0     H20856   1.206   6.060   9.674 -2.8693  0.7433  2.4625
  159MOL0     O20857   2.235   4.382   2.427 -0.4477  0.0324  0.1018
  159MOL0     C20858   2.303   4.282   2.399  0.6175 -0.4033  0.7622
  159MOL0     O20859   2.266   4.157   2.426  0.3164 -0.1427 -0.6781
  159MOL0     C20860   2.134   4.130   2.460 -0.8967 -0.4613  0.0698
  159MOL0     C20861   2.117   4.046   2.576 -0.0346 -0.1282  1.1651
  159MOL0     C20862   1.991   4.039   2.635 -0.5077 -0.1749  0.6952
  159MOL0     C20863   1.875   4.104   2.564 -0.0344 -0.0804 -0.1644
  159MOL0     O20864   1.748   4.082   2.600  0.5152 -0.4008 -0.7956
  159MOL0     C20865   1.721   3.960   2.674  0.6128 -0.7154  0.4544
  159MOL0     C20866   1.564   3.945   2.674 -0.3701 -0.1233  0.1401
  159MOL0     C20867   1.486   4.053   2.746 -0.4807 -0.7223 -0.5943
  159MOL0     C20868   1.331   4.004   2.747 -0.4049 -0.2544 -0.1552
  159MOL0     C20869   1.242   4.088   2.844  0.2301 -0.3782  0.0219
  159MOL0     C20870   1.100   4.021   2.866  0.6012  0.9852 -0.0233
  159MOL0     C20871   0.995   4.128   2.909 -0.3562 -0.8564 -0.0537
  159MOL0     C20872   0.859   4.063   2.956 -0.6429 -1.1591 -0.1953
  159MOL0     N20873   0.786   3.988   2.864  0.1359  0.2150 -0.5818
  159MOL0     C20874   0.680   4.045   2.809 -0.0016 -0.2769 -0.4872
  159MOL0     C20875   0.623   3.943   2.740 -0.4320 -0.6293 -0.5229
  159MOL0     C20876   0.519   3.957   2.634 -0.0038 -0.2618  0.5104
  159MOL0     C20877   0.377   4.016   2.672  0.0138 -0.3348  1.0828
  159MOL0     C20878   0.295   3.909   2.750  0.2866 -0.2001  0.5682
  159MOL0     C20879   0.154   3.964   2.786 -0.5889 -0.0284  0.9937
  159MOL0     O20880   0.070   3.973   2.668 -0.8513  0.3375  0.2578
  159MOL0     C20881  -0.063   3.994   2.680 -0.0090  0.4956  0.3792
  159MOL0     C20882  -0.116   4.026   2.801  0.1086 -0.6373 -0.2621
  159MOL0     C20883  -0.252   4.061   2.821 -0.0485 -0.1524  0.2361
  159MOL0     C20884  -0.345   4.062   2.716 -0.6075 -0.0242  0.0860
  159MOL0     C20885  -0.483   4.108   2.740  0.0950 -0.3376  0.3542
  159MOL0     O20886  -0.520   4.164   2.863 -0.3315  0.9285 -0.0356
  159MOL0     C20887  -0.626   4.250   2.865  0.2514 -0.2764 -0.5853
  159MOL0     C20888  -0.654   4.299   2.986  0.6315  0.1660 -1.1789
  159MOL0     C20889  -0.757   4.396   3.008 -0.1621 -0.4360  1.2127
  159MOL0     C20890  -0.832   4.438   2.901  0.3928 -0.7787  0.3792
  159MOL0     O20891  -0.932   4.530   2.933  0.1149  0.4124 -0.1413
  159MOL0     C20892  -1.036   4.543   2.840 -0.5173  0.2330 -0.3051
  159MOL0     C20893  -1.111   4.663   2.884  0.1864  0.0615 -0.0231
  159MOL0     C20894  -1.249   4.660   2.822  0.5394  0.4344 -0.1070
  159MOL0     C20895  -1.321   4.788   2.860 -0.5401  0.3593 -0.0869
  159MOL0     C20896  -1.453   4.788   2.793 -0.4344  0.3836  0.2058
  159MOL0     C20897  -1.546   4.902   2.840 -0.4343  0.4908  0.4346
  159MOL0     C20898  -1.613   4.880   2.978 -0.6276 -1.2859 -0.1749
  159MOL0     C20899  -1.677   5.009   3.024 -0.5791  0.1155 -0.4761
  159MOL0    Cl20900  -1.820   5.043   2.926  0.2905  0.7131 -0.7963
  159MOL0     C20901  -0.803   4.396   2.773 -0.5814 -0.4597  0.6274
  159MOL0     C20902  -0.689   4.316   2.756  0.0248  0.3652  0.1060
  159MOL0     O20903  -0.561   4.084   2.649 -0.3570 -0.4627 -0.2767
  159MOL0     C20904  -0.291   4.003   2.594  0.6080  0.0062 -0.1216
  159MOL0     C20905  -0.154   3.966   2.575  0.6288 -0.0162 -0.0855
  159MOL0     N20906   0.695   3.826   2.769  0.2854  0.1881 -0.0726
  159MOL0     N20907   0.795   3.853   2.852 -0.7845  0.1836 -0.0260
  159MOL0     C20908   1.898   4.181   2.448  0.4282  0.5698 -0.5347
  159MOL0     C20909   2.024   4.188   2.395 -0.9312 -0.5488 -0.5750
  159MOL0     C20910   2.424   4.306   2.307 -0.2868  0.6253 -0.1273
  159MOL0     C20911   2.499   4.195   2.267  0.1558  0.3151  0.0196
  159MOL0     C20912   2.618   4.200   2.196  0.4678  0.4267  0.5410
  159MOL0     C20913   2.666   4.322   2.154 -0.5184 -1.4856 -0.2045
  159MOL0     O20914   2.787   4.328   2.086  0.4716 -0.0270 -0.6698
  159MOL0     C20915   2.898   4.276   2.161  0.7077  0.1416  0.4722
  159MOL0     C20916   3.017   4.355   2.102 -0.1003  1.0299  0.6175
  159MOL0     C20917   3.137   4.330   2.187  0.3231 -1.1540  0.1233
  159MOL0     C20918   3.275   4.340   2.105 -0.0341 -0.1452  0.0846
  159MOL0     C20919   3.295   4.229   2.010 -0.8813  0.8349  0.2531
  159MOL0     C20920   3.303   4.129   1.934  0.0321  0.1679 -0.3872
  159MOL0     C20921   2.593   4.437   2.187 -0.3473 -1.0954 -0.5206
  159MOL0     C20922   2.480   4.430   2.264  1.1115  0.3317 -0.2970
  159MOL0     H20923   2.197   3.998   2.631 -1.7968 -0.0263  3.9705
  159MOL0     H20924   1.987   3.976   2.723 -0.4262 -0.0348  0.7989
  159MOL0     H20925   1.762   3.962   2.776  1.1941  0.0046  0.2176
  159MOL0     H20926   1.767   3.875   2.623  1.6651 -1.3226  2.3234
  159MOL0     H20927   1.536   3.841   2.692 -2.3902 -0.3310 -3.2843
  159MOL0     H20928   1.530   3.960   2.571 -1.2778 -2.1293  0.1047
  159MOL0     H20929   1.484   4.145   2.688  0.8986 -0.8119 -0.8178
  159MOL0     H20930   1.524   4.070   2.847  1.5493  2.0208 -1.6969
  159MOL0     H20931   1.294   4.006   2.644 -1.2841 -1.7086  0.1008
  159MOL0     H20932   1.329   3.900   2.782 -0.2751  0.1252  1.0454
  159MOL0     H20933   1.224   4.187   2.802 -1.7964 -0.2146  1.1707
  159MOL0     H20934   1.292   4.105   2.941 -1.3343  0.1093  0.7707
  159MOL0     H20935   1.120   3.943   2.940  0.3727 -1.4673 -2.3715
  159MOL0     H20936   1.059   3.977   2.774 -0.6484 -2.3590  1.9407
  159MOL0     H20937   1.042   4.195   2.982  0.3485 -1.0439 -0.3269
  159MOL0     H20938   0.963   4.202   2.835  0.0108  0.2259  0.8301
  159MOL0     H20939   0.805   4.140   3.012  1.5566  0.1482  0.2645
  159MOL0     H20940   0.895   3.991   3.030  0.1185 -0.6227 -0.0292
  159MOL0     H20941   0.650   4.149   2.808  0.8044 -0.0323  0.0449
  159MOL0     H20942   0.500   3.855   2.599  1.4322  0.0908 -1.4997
  159MOL0     H20943   0.547   4.011   2.543  2.1479 -2.8591 -0.5240
  159MOL0     H20944   0.321   4.041   2.581  0.4084 -2.3177  0.2220
  159MOL0     H20945   0.394   4.107   2.730  2.5367  1.3200 -1.9134
  159MOL0     H20946   0.277   3.826   2.682  1.2010 -1.3539  1.7038
  159MOL0     H20947   0.357   3.880   2.836  0.7422 -1.0327 -0.0249
  159MOL0     H20948   0.170   4.062   2.831 -0.7750  0.5766 -0.2250
  159MOL0     H20949   0.116   3.891   2.859  1.3346 -0.5045  1.5929
  159MOL0     H20950  -0.050   4.034   2.887 -1.1075 -2.1092  0.8755
  159MOL0     H20951  -0.289   4.081   2.921  1.4931 -0.6645  0.9533
  159MOL0     H20952  -0.602   4.259   3.072 -0.1739  0.3133 -0.6170
  159MOL0     H20953  -0.777   4.437   3.106 -2.3614  1.4381  0.0853
  159MOL0     H20954  -1.107   4.460   2.848 -2.2304  1.5360 -1.2987
  159MOL0     H20955  -0.997   4.561   2.740 -1.5642  0.2379 -0.7264
  159MOL0     H20956  -1.055   4.754   2.859 -1.7413  0.8774 -1.7269
  159MOL0     H20957  -1.126   4.668   2.992  1.2254 -1.7066  0.2361
  159MOL0     H20958  -1.312   4.576   2.851  1.3138 -0.2484 -0.3499
  159MOL0     H20959  -1.235   4.669   2.714  1.8301  2.4146  0.1663
  159MOL0     H20960  -1.327   4.814   2.966  0.8773  3.2564 -0.6127
  159MOL0     H20961  -1.264   4.873   2.819  0.4138 -0.1570  0.1522
  159MOL0     H20962  -1.505   4.694   2.813  1.8602 -0.8362  0.7939
  159MOL0     H20963  -1.441   4.792   2.684 -0.4675 -1.3696  0.1176
  159MOL0     H20964  -1.621   4.915   2.761 -0.2973  1.0320  0.3851
  159MOL0     H20965  -1.493   4.998   2.843  0.7253  0.0715 -2.7884
  159MOL0     H20966  -1.692   4.805   2.981 -0.0660 -1.9637 -1.5028
  159MOL0     H20967  -1.532   4.857   3.047 -0.1139  2.5199  0.7161
  159MOL0     H20968  -1.605   5.091   3.022 -1.9264  1.3542 -0.5399
  159MOL0     H20969  -1.708   5.006   3.129  0.3895 -2.4318 -0.2062
  159MOL0     H20970  -0.839   4.441   2.682  1.2057 -1.4276 -0.6126
  159MOL0     H20971  -0.644   4.291   2.660  1.6075 -0.1625  0.9577
  159MOL0     H20972  -0.352   3.999   2.504 -1.7853 -1.8171  1.4235
  159MOL0     H20973  -0.109   3.929   2.483 -0.1438  0.4550 -0.6578
  159MOL0     H20974   1.811   4.226   2.401 -1.4618 -0.4935  1.7441
  159MOL0     H20975   2.041   4.257   2.312 -2.0527 -0.6831 -0.9349
  159MOL0     H20976   2.480   4.091   2.293  2.4661 -0.7077 -1.9024
  159MOL0     H20977   2.668   4.105   2.183 -0.0431  0.2877 -0.5009
  159MOL0     H20978   2.912   4.168   2.148  0.3000  0.0564  0.7527
  159MOL0     H20979   2.893   4.295   2.269 -2.5843 -3.1205  1.0876
  159MOL0     H20980   3.034   4.316   2.002 -0.4933  1.8270  0.2347
  159MOL0     H20981   3.001   4.460   2.077  0.3324  1.2242  1.1354
  159MOL0     H20982   3.141   4.235   2.239  3.0037 -0.4783  1.2930
  159MOL0     H20983   3.147   4.409   2.262 -1.3242  0.1956 -0.9825
  159MOL0     H20984   3.288   4.429   2.042  1.9701 -2.1039 -2.4811
  159MOL0     H20985   3.352   4.327   2.182 -0.8083 -4.0160  0.4056
  159MOL0     H20986   3.323   4.034   1.888 -0.4581  0.3221 -0.9230
  159MOL0     H20987   2.636   4.530   2.152 -0.9954 -1.6260 -2.8839
  159MOL0     H20988   2.438   4.524   2.298 -2.0666 -0.7905 -0.7412
  160MOL0     O20989   7.055   2.287   2.887 -0.4615  0.2328  0.1132
  160MOL0     C20990   7.119   2.244   2.981 -0.1167  0.2077  1.0984
  160MOL0     O20991   7.076   2.256   3.108 -0.2534 -0.1639 -0.1956
  160MOL0     C20992   6.942   2.250   3.125  0.0596  0.2689  0.0640
  160MOL0     C20993   6.840   2.214   3.035 -0.1529 -1.3075 -0.5233
  160MOL0     C20994   6.710   2.243   3.064  0.1719  0.6014 -0.1005
  160MOL0     C20995   6.672   2.309   3.181 -0.9774 -0.6350 -0.8406
  160MOL0     O20996   6.541   2.329   3.206 -0.6125  1.0961 -1.2276
  160MOL0     C20997   6.495   2.410   3.311  0.8088  0.3413  0.8437
  160MOL0     C20998   6.342   2.411   3.305 -0.2361 -0.4608 -0.6409
  160MOL0     C20999   6.284   2.518   3.397 -0.8502  0.2066  0.0688
  160MOL0     C21000   6.134   2.513   3.392  0.5986  0.3039 -0.0805
  160MOL0     C21001   6.070   2.633   3.448 -0.0426 -1.0939 -0.7664
  160MOL0     C21002   5.910   2.639   3.449 -0.2774  0.5524 -0.1699
  160MOL0     C21003   5.867   2.770   3.506  0.2554  0.2009 -0.6990
  160MOL0     C21004   5.726   2.777   3.543  0.1680  0.0645 -0.2440
  160MOL0     N21005   5.702   2.708   3.669  0.3098 -0.3255 -0.5996
  160MOL0     C21006   5.675   2.775   3.790 -0.5364  0.2934 -0.3210
  160MOL0     C21007   5.635   2.681   3.880  0.7339 -0.6334  0.8033
  160MOL0     C21008   5.589   2.690   4.020 -0.0203 -0.2500  0.5255
  160MOL0     C21009   5.450   2.753   4.033 -0.7518 -0.1556 -0.9943
  160MOL0     C21010   5.342   2.672   3.961  0.2239 -0.0224 -0.1622
  160MOL0     C21011   5.210   2.747   3.957  0.7529 -0.1088  0.5230
  160MOL0     O21012   5.130   2.757   4.082  0.0451  0.0458  0.1193
  160MOL0     C21013   5.014   2.827   4.097  0.9771  0.2045  0.7386
  160MOL0     C21014   4.936   2.878   3.990 -0.2996  0.8513  0.5261
  160MOL0     C21015   4.821   2.950   4.011 -0.7283 -1.4456  0.3326
  160MOL0     C21016   4.783   2.983   4.144 -0.2738  0.2117  0.2252
  160MOL0     C21017   4.652   3.052   4.158 -0.1334 -0.0716 -1.2132
  160MOL0     O21018   4.625   3.091   4.292  0.2428 -0.8120  0.2011
  160MOL0     C21019   4.507   3.161   4.314 -0.4077  0.2306 -0.2575
  160MOL0     C21020   4.519   3.282   4.385  0.7661  0.4893 -0.0132
  160MOL0     C21021   4.404   3.361   4.407  0.3544  0.5599  0.1140
  160MOL0     C21022   4.278   3.330   4.356  0.4828  0.1830 -0.5592
  160MOL0     O21023   4.170   3.418   4.354 -0.2548  0.2881 -0.2218
  160MOL0     C21024   4.168   3.517   4.467 -0.0399  0.4517  0.3195
  160MOL0     C21025   4.035   3.575   4.487  1.0247 -0.4699 -0.0296
  160MOL0     C21026   3.984   3.650   4.366 -0.0848  0.9476 -0.2493
  160MOL0     C21027   3.847   3.724   4.387  0.4185 -0.7810  0.0443
  160MOL0     C21028   3.798   3.806   4.265 -0.1940 -0.6196 -0.0443
  160MOL0     C21029   3.797   3.717   4.136  0.1073  1.1940  0.1907
  160MOL0     C21030   3.685   3.755   4.032 -0.3976  0.0299 -0.6254
  160MOL0     C21031   3.549   3.730   4.081  0.3763 -0.1281  0.4041
  160MOL0    Cl21032   3.523   3.557   4.134 -0.2377 -0.1866 -0.0191
  160MOL0     C21033   4.275   3.214   4.275 -0.2049 -0.5943  0.9569
  160MOL0     C21034   4.381   3.124   4.262 -0.5518 -0.4647  0.4078
  160MOL0     O21035   4.581   3.081   4.062 -0.3676  0.2863  0.1527
  160MOL0     C21036   4.872   2.950   4.249  0.7147  0.5927 -0.5652
  160MOL0     C21037   4.984   2.865   4.225 -0.2394 -0.9715 -0.9759
  160MOL0     N21038   5.647   2.557   3.817 -0.2535 -0.5487  0.0406
  160MOL0     N21039   5.678   2.572   3.693  0.2407  0.2171  0.2369
  160MOL0     C21040   6.773   2.336   3.272 -0.9855 -0.7711 -0.2943
  160MOL0     C21041   6.908   2.313   3.245 -0.3033  0.5590 -0.0538
  160MOL0     C21042   7.253   2.199   2.956 -0.0388 -0.5076 -0.3600
  160MOL0     C21043   7.324   2.141   3.068  0.5594 -0.3531 -0.3278
  160MOL0     C21044   7.455   2.091   3.053  0.0432  0.2641  0.4285
  160MOL0     C21045   7.511   2.098   2.922  0.1134  0.7906  0.3835
  160MOL0     O21046   7.637   2.046   2.916  0.2617  0.0873 -0.1146
  160MOL0     C21047   7.691   2.000   2.797 -0.3429 -0.1111  0.0522
  160MOL0     C21048   7.819   1.917   2.825  1.2022 -0.1688 -0.4357
  160MOL0     C21049   7.814   1.847   2.968  0.0985 -0.7626 -0.3078
  160MOL0     C21050   7.931   1.754   2.992  0.0142  0.2522  0.3190
  160MOL0     C21051   8.056   1.834   3.021 -0.2314  0.2129  0.4630
  160MOL0     C21052   8.155   1.902   3.040  0.2630 -0.1195 -0.6916
  160MOL0     C21053   7.441   2.145   2.815 -1.4070 -1.0869 -0.4592
  160MOL0     C21054   7.317   2.198   2.829 -0.3152 -0.0225 -0.4938
  160MOL0     H21055   6.869   2.166   2.943  2.8471 -0.1308 -0.3062
  160MOL0     H21056   6.629   2.212   2.999  1.0659 -2.6460  0.1026
  160MOL0     H21057   6.536   2.511   3.300 -0.6022  0.9716  1.2415
  160MOL0     H21058   6.525   2.374   3.409 -1.1455 -1.8140  0.7288
  160MOL0     H21059   6.300   2.314   3.333  1.4403 -1.2150 -0.5693
  160MOL0     H21060   6.309   2.430   3.202 -2.6210  1.3831  0.3754
  160MOL0     H21061   6.329   2.614   3.369 -1.3542  0.7274  0.9961
  160MOL0     H21062   6.312   2.499   3.501 -1.5512  1.0162  0.4126
  160MOL0     H21063   6.090   2.514   3.292 -0.0447 -1.8979  0.1223
  160MOL0     H21064   6.101   2.428   3.453  0.8627  1.3545  1.5589
  160MOL0     H21065   6.113   2.719   3.397  1.9999 -0.5925  1.6002
  160MOL0     H21066   6.100   2.630   3.553 -3.1440 -1.5249  0.2006
  160MOL0     H21067   5.874   2.552   3.504  1.8581 -0.2616  0.0306
  160MOL0     H21068   5.882   2.640   3.343  0.2536  2.4884 -0.3230
  160MOL0     H21069   5.923   2.793   3.597  1.2265 -2.0294 -0.6834
  160MOL0     H21070   5.898   2.848   3.436 -0.8999  1.4183  0.0988
  160MOL0     H21071   5.668   2.729   3.464 -0.5800  0.5554  0.0049
  160MOL0     H21072   5.690   2.878   3.566  0.0227  0.1328 -0.7620
  160MOL0     H21073   5.692   2.879   3.816  0.0091 -0.1676  1.3147
  160MOL0     H21074   5.659   2.757   4.071 -0.7658  1.4005 -0.5115
  160MOL0     H21075   5.598   2.591   4.065  1.0255 -1.1827 -1.5846
  160MOL0     H21076   5.443   2.852   3.989  0.4646  0.3991  0.0085
  160MOL0     H21077   5.431   2.775   4.139 -1.0130 -1.4475 -0.7522
  160MOL0     H21078   5.377   2.672   3.857  4.2835  1.7163  0.9820
  160MOL0     H21079   5.337   2.574   4.008  1.7504  0.3836  0.9279
  160MOL0     H21080   5.142   2.706   3.881 -0.6369 -0.6540  1.9958
  160MOL0     H21081   5.240   2.847   3.925 -3.1122  1.0487  0.0740
  160MOL0     H21082   4.961   2.857   3.886 -2.0472 -0.7636  0.3694
  160MOL0     H21083   4.756   2.988   3.932  0.1572 -0.3589  0.1072
  160MOL0     H21084   4.613   3.306   4.433  0.6536  0.2467  0.3313
  160MOL0     H21085   4.414   3.448   4.470 -0.0386 -0.5892  1.8323
  160MOL0     H21086   4.239   3.597   4.443  1.9500 -1.1126  0.6872
  160MOL0     H21087   4.205   3.475   4.561  0.5619  3.4241  1.5293
  160MOL0     H21088   4.041   3.633   4.579 -0.0051 -2.1614  1.1836
  160MOL0     H21089   3.956   3.501   4.506 -0.1406  0.7395 -0.0212
  160MOL0     H21090   3.979   3.573   4.288  1.7670  0.6781 -0.1237
  160MOL0     H21091   4.053   3.731   4.341 -1.0210  0.3574 -6.6109
  160MOL0     H21092   3.771   3.646   4.399  1.1459 -1.2871  1.6238
  160MOL0     H21093   3.836   3.791   4.472 -1.6720 -1.5068  0.3909
  160MOL0     H21094   3.861   3.895   4.255 -0.3127 -0.6337 -1.0754
  160MOL0     H21095   3.699   3.846   4.289 -0.1198  0.9577 -2.0928
  160MOL0     H21096   3.788   3.611   4.162 -1.8720  0.8364 -1.5952
  160MOL0     H21097   3.885   3.718   4.071 -0.7698 -0.2752 -1.0941
  160MOL0     H21098   3.696   3.856   3.992  0.4243 -0.4657 -1.6906
  160MOL0     H21099   3.701   3.686   3.949 -2.4269 -1.3038  0.0210
  160MOL0     H21100   3.473   3.754   4.005 -0.3667  0.9222  1.4429
  160MOL0     H21101   3.508   3.794   4.160 -5.1659 -2.1062 -0.4123
  160MOL0     H21102   4.181   3.188   4.226  0.4394 -0.5441 -0.3432
  160MOL0     H21103   4.374   3.043   4.190  1.5061  0.3530 -0.7958
  160MOL0     H21104   4.855   2.978   4.352 -1.7144  1.4337 -1.1401
  160MOL0     H21105   5.049   2.828   4.304  0.2735 -0.4582 -1.1522
  160MOL0     H21106   6.734   2.376   3.365  0.4394 -0.1065  0.0511
  160MOL0     H21107   6.984   2.351   3.313 -2.5210 -0.6474  3.3813
  160MOL0     H21108   7.276   2.134   3.165 -0.6029  1.3647 -0.7403
  160MOL0     H21109   7.503   2.037   3.134 -0.7976  0.3144  0.9758
  160MOL0     H21110   7.709   2.086   2.732 -2.0109  1.0321  1.0382
  160MOL0     H21111   7.615   1.934   2.755 -1.9686  0.7710  1.4960
  160MOL0     H21112   7.824   1.831   2.758  0.3008 -1.1991  0.7492
  160MOL0     H21113   7.912   1.974   2.819  0.0080  1.9307 -0.0491
  160MOL0     H21114   7.726   1.782   2.972 -1.0297  0.7491  3.0178
  160MOL0     H21115   7.810   1.917   3.052  4.0633  0.1775 -0.6811
  160MOL0     H21116   7.912   1.696   3.083  0.6799 -1.7892 -0.7766
  160MOL0     H21117   7.955   1.687   2.909  0.4827 -1.8179  2.0173
  160MOL0     H21118   8.241   1.961   3.061  2.0634 -2.5249 -0.9456
  160MOL0     H21119   7.472   2.143   2.711 -0.3403 -0.8933 -0.1542
  160MOL0     H21120   7.263   2.225   2.739 -1.2718 -0.7067 -0.1436
  161MOL0     O21121   4.888   3.268   9.021  0.7594 -0.0664 -0.8557
  161MOL0     C21122   4.880   3.395   9.005 -0.4857  0.3338 -0.4690
  161MOL0     O21123   4.767   3.467   9.015  0.2115 -0.3459 -0.5497
  161MOL0     C21124   4.668   3.397   9.079  0.3628  0.1252 -0.3176
  161MOL0     C21125   4.554   3.379   8.991 -0.3011 -0.6566 -0.5144
  161MOL0     C21126   4.434   3.334   9.045  0.6850 -0.1993  0.1979
  161MOL0     C21127   4.439   3.277   9.177  0.8581 -0.2164 -0.1191
  161MOL0     O21128   4.324   3.217   9.229 -1.2335  0.5112 -0.7376
  161MOL0     C21129   4.322   3.077   9.234  0.2148  0.7083  0.2586
  161MOL0     C21130   4.232   3.017   9.347 -0.9500 -0.5095 -0.4440
  161MOL0     C21131   4.088   3.051   9.332 -0.5424  0.2157  0.7289
  161MOL0     C21132   4.004   2.943   9.394  0.2896  1.0804 -0.1218
  161MOL0     C21133   3.853   2.978   9.375  0.7730 -0.3036  0.0212
  161MOL0     C21134   3.766   2.863   9.420 -1.0302  0.2973  0.1037
  161MOL0     C21135   3.623   2.908   9.431 -0.1719  0.2018 -0.3742
  161MOL0     C21136   3.537   2.789   9.473  0.2074  0.5279  0.6469
  161MOL0     N21137   3.396   2.826   9.491 -0.2777 -0.5725  0.1737
  161MOL0     C21138   3.332   2.856   9.613  0.5823 -0.3450  0.5518
  161MOL0     C21139   3.225   2.920   9.572  0.3239  0.0447 -1.0815
  161MOL0     C21140   3.134   3.005   9.667  0.4255  0.1476 -0.1058
  161MOL0     C21141   2.983   2.963   9.666 -0.4356 -0.5527  0.2522
  161MOL0     C21142   2.911   3.050   9.570  0.1590  0.7502 -0.8143
  161MOL0     C21143   2.761   3.020   9.560  0.2427 -0.4622 -0.4772
  161MOL0     O21144   2.715   3.015   9.696  0.4858  0.2471  0.3483
  161MOL0     C21145   2.583   2.991   9.714  0.1446 -0.6102  0.0208
  161MOL0     C21146   2.487   2.971   9.613  0.1079  0.6506 -1.1837
  161MOL0     C21147   2.357   2.955   9.655  0.7680  0.0896  0.0047
  161MOL0     C21148   2.313   2.959   9.795  0.2579  0.2156  0.2007
  161MOL0     C21149   2.176   2.942   9.841  0.1826 -0.3421  0.4130
  161MOL0     O21150   2.096   2.882   9.743  0.3868  0.0487 -0.1834
  161MOL0     C21151   1.954   2.877   9.752  0.3019 -0.3515  0.1563
  161MOL0     C21152   1.871   2.900   9.862  0.2493 -0.3022  0.4740
  161MOL0     C21153   1.734   2.867   9.858  0.7606 -0.4087 -0.4015
  161MOL0     C21154   1.687   2.789   9.748 -0.6414 -0.7207 -1.3977
  161MOL0     O21155   1.559   2.760   9.751 -0.3306 -0.6765  0.8213
  161MOL0     C21156   1.495   2.672   9.663  0.5941  0.4584 -0.3512
  161MOL0     C21157   1.357   2.642   9.724  0.0522  0.4878 -0.2964
  161MOL0     C21158   1.260   2.748   9.699  0.2835 -0.5771 -0.4268
  161MOL0     C21159   1.134   2.722   9.771  0.8162 -0.4722 -0.4100
  161MOL0     C21160   1.031   2.830   9.732  0.2023 -0.8638  0.3041
  161MOL0     C21161   0.893   2.807   9.796 -0.4540  0.2089 -0.1098
  161MOL0     C21162   0.881   2.831   9.949  0.0361  0.4538 -0.0154
  161MOL0     C21163   0.750   2.789  10.015  0.5486  1.1445  0.0825
  161MOL0    Cl21164   0.614   2.849   9.920  0.5363 -0.4828 -0.0548
  161MOL0     C21165   1.764   2.773   9.636  0.0192  0.2734  0.9734
  161MOL0     C21166   1.895   2.817   9.647  0.3183 -0.1593 -0.2145
  161MOL0     O21167   2.142   2.988   9.950  0.1532 -0.0345  0.1322
  161MOL0     C21168   2.408   2.975   9.890 -0.9216 -0.4253 -0.5757
  161MOL0     C21169   2.545   2.989   9.847 -0.1399 -0.2036  0.1544
  161MOL0     N21170   3.217   2.920   9.435 -0.5790 -0.6995 -0.8158
  161MOL0     N21171   3.318   2.862   9.388 -0.4764 -0.1125  0.4933
  161MOL0     C21172   4.549   3.287   9.258 -0.5088 -0.6771 -0.0021
  161MOL0     C21173   4.663   3.348   9.206 -0.6097 -0.8521 -0.3362
  161MOL0     C21174   5.002   3.464   8.965  0.9277 -0.0612 -0.1474
  161MOL0     C21175   5.022   3.600   9.000 -0.0800  0.6251  0.1185
  161MOL0     C21176   5.151   3.660   8.993  0.3427  0.4150  0.0945
  161MOL0     C21177   5.259   3.593   8.946  0.2910 -0.1948 -0.3729
  161MOL0     O21178   5.378   3.665   8.935  0.3897  0.2795  0.0905
  161MOL0     C21179   5.473   3.617   8.842  0.4561  0.0165  0.3484
  161MOL0     C21180   5.618   3.629   8.905  0.4222 -0.2591  0.9262
  161MOL0     C21181   5.722   3.548   8.829 -0.2632  0.6743 -0.1818
  161MOL0     C21182   5.761   3.612   8.693  0.3634  0.2328  0.0443
  161MOL0     C21183   5.848   3.524   8.621  0.4810  0.4709 -0.0575
  161MOL0     C21184   5.902   3.438   8.556  0.3609  0.0837  0.4218
  161MOL0     C21185   5.237   3.461   8.905  0.1275 -0.9589 -0.4415
  161MOL0     C21186   5.115   3.402   8.915  0.5802  0.7760 -0.0967
  161MOL0     H21187   4.569   3.417   8.891  1.4091  0.7260  0.2296
  161MOL0     H21188   4.347   3.321   8.981  1.1652  3.4315 -1.3975
  161MOL0     H21189   4.427   3.052   9.254  0.2680  1.2110  0.6472
  161MOL0     H21190   4.297   3.029   9.139 -3.6395 -0.5725  1.7434
  161MOL0     H21191   4.260   3.058   9.445 -1.2994 -1.5467  0.1083
  161MOL0     H21192   4.251   2.909   9.349 -1.9141 -0.7170  2.0634
  161MOL0     H21193   4.073   3.064   9.224  1.3305  4.1522  0.7561
  161MOL0     H21194   4.059   3.148   9.374 -0.0285 -0.3355  2.4415
  161MOL0     H21195   4.038   2.848   9.352  1.5205  1.6922 -0.5723
  161MOL0     H21196   4.017   2.933   9.502 -1.6400 -0.6689  0.0256
  161MOL0     H21197   3.845   3.005   9.269  1.6486 -0.4827 -0.0937
  161MOL0     H21198   3.829   3.070   9.429 -1.8277 -0.1519 -1.2134
  161MOL0     H21199   3.797   2.827   9.519  0.3474  0.2999 -0.3044
  161MOL0     H21200   3.775   2.782   9.347  1.3539  1.3387 -0.8612
  161MOL0     H21201   3.617   2.991   9.502 -1.7280  0.8836 -1.2384
  161MOL0     H21202   3.592   2.945   9.333 -0.9912 -0.7944 -0.5047
  161MOL0     H21203   3.569   2.758   9.573 -0.2468  1.7095  1.1814
  161MOL0     H21204   3.543   2.711   9.397 -1.0200 -0.5940  1.6597
  161MOL0     H21205   3.366   2.853   9.717  5.0802  3.7314 -0.4235
  161MOL0     H21206   3.155   3.109   9.638 -2.8035  1.0645  0.4540
  161MOL0     H21207   3.176   2.989   9.767  1.1733 -1.1028 -0.5980
  161MOL0     H21208   2.941   2.976   9.766 -0.1760 -0.5360  0.3623
  161MOL0     H21209   2.983   2.857   9.637 -1.3150  0.1879 -2.9113
  161MOL0     H21210   2.928   3.156   9.594  3.4748  0.0330  0.6697
  161MOL0     H21211   2.952   3.023   9.472 -2.6980 -0.5512 -1.7381
  161MOL0     H21212   2.742   2.920   9.519  0.9272  0.5349 -3.4405
  161MOL0     H21213   2.708   3.101   9.511  1.2894  2.6731  3.1092
  161MOL0     H21214   2.508   2.985   9.507 -0.7964 -0.0257 -1.4572
  161MOL0     H21215   2.283   2.949   9.577  1.6413  2.5805 -1.1349
  161MOL0     H21216   1.907   2.960   9.945  3.1580 -0.0436 -0.8596
  161MOL0     H21217   1.654   2.897   9.926 -0.6258  0.1280 -2.1835
  161MOL0     H21218   1.558   2.584   9.675  1.8563  1.3858 -0.0537
  161MOL0     H21219   1.481   2.710   9.561 -0.4425  2.5996  0.5335
  161MOL0     H21220   1.373   2.612   9.828  0.0600  1.3024 -0.0566
  161MOL0     H21221   1.320   2.553   9.672  2.4802 -1.2084  0.6922
  161MOL0     H21222   1.254   2.749   9.590  0.7065  1.9754 -0.4735
  161MOL0     H21223   1.292   2.849   9.724 -2.2328  0.5204 -1.3014
  161MOL0     H21224   1.092   2.623   9.755 -0.1687  0.2621 -2.9321
  161MOL0     H21225   1.147   2.731   9.879 -0.6846  0.0945 -0.2523
  161MOL0     H21226   1.017   2.823   9.623  0.2495 -0.1275  0.2428
  161MOL0     H21227   1.069   2.931   9.753 -1.7598 -0.0762  0.2513
  161MOL0     H21228   0.853   2.707   9.776  1.1335 -0.7235  1.0776
  161MOL0     H21229   0.823   2.879   9.752 -2.0127 -0.9979  0.2831
  161MOL0     H21230   0.964   2.783  10.001  0.9724 -1.4431 -2.9992
  161MOL0     H21231   0.892   2.939   9.957 -0.1354  0.5547 -0.9474
  161MOL0     H21232   0.736   2.822  10.119 -0.7209  0.0666  0.2902
  161MOL0     H21233   0.738   2.680  10.010 -0.3004  1.2157  0.3265
  161MOL0     H21234   1.719   2.728   9.548  1.7140 -2.7289  1.5003
  161MOL0     H21235   1.964   2.797   9.565 -0.7197 -2.4266 -0.6298
  161MOL0     H21236   2.389   2.972   9.997 -0.6562 -0.2983 -0.5234
  161MOL0     H21237   2.623   3.002   9.920  1.0924 -2.0116 -0.7700
  161MOL0     H21238   4.542   3.248   9.359  0.9108 -1.2656 -0.1032
  161MOL0     H21239   4.758   3.348   9.259 -1.0781 -0.8434  0.5318
  161MOL0     H21240   4.930   3.651   9.027 -0.9019  0.6047 -2.4269
  161MOL0     H21241   5.174   3.764   9.010 -1.4674  1.1653 -1.5831
  161MOL0     H21242   5.465   3.683   8.755  0.5617 -0.3600  0.0470
  161MOL0     H21243   5.463   3.516   8.802 -1.9483  0.8246 -1.2698
  161MOL0     H21244   5.653   3.732   8.920 -2.1020  0.8420 -0.1422
  161MOL0     H21245   5.617   3.593   9.008 -1.4691 -0.5929  0.8132
  161MOL0     H21246   5.683   3.449   8.805 -1.2213  0.9307  0.2962
  161MOL0     H21247   5.816   3.543   8.886  1.2199 -1.2785 -2.5819
  161MOL0     H21248   5.674   3.635   8.631  0.4609 -0.8509 -0.5217
  161MOL0     H21249   5.802   3.710   8.717  2.2424 -0.8141  1.3551
  161MOL0     H21250   5.944   3.357   8.499  1.7993 -0.7308  2.5043
  161MOL0     H21251   5.323   3.406   8.869  3.5325  1.6895  2.8079
  161MOL0     H21252   5.112   3.297   8.887 -0.3909  0.3182  1.6101
  162MOL0     O21253   6.439   6.691   7.618  0.6951 -0.1320  0.2231
  162MOL0     C21254   6.421   6.797   7.554  1.0285 -0.1515 -0.2033
  162MOL0     O21255   6.528   6.873   7.504  0.6542  0.0474 -0.1224
  162MOL0     C21256   6.658   6.816   7.489 -0.0248 -0.6498  0.2073
  162MOL0     C21257   6.700   6.682   7.473  0.0923  0.8402 -0.2483
  162MOL0     C21258   6.841   6.649   7.476 -0.2284  0.4908  0.5477
  162MOL0     C21259   6.935   6.753   7.492  0.7897 -0.2050 -0.2712
  162MOL0     O21260   7.065   6.722   7.515 -0.0906  1.0813 -0.2011
  162MOL0     C21261   7.092   6.604   7.592  0.1318  0.3887 -0.2312
  162MOL0     C21262   7.235   6.610   7.633 -0.0083 -0.1290  0.2499
  162MOL0     C21263   7.329   6.611   7.513 -0.2812 -0.3387 -1.2698
  162MOL0     C21264   7.469   6.586   7.559  0.1640  0.0849 -0.1309
  162MOL0     C21265   7.572   6.646   7.458 -0.5245 -0.2481  0.8108
  162MOL0     C21266   7.575   6.595   7.316  0.0259 -0.7082  0.6647
  162MOL0     C21267   7.615   6.448   7.312  0.1056 -0.4268 -0.0257
  162MOL0     C21268   7.635   6.413   7.160 -0.6037  0.7624  0.0430
  162MOL0     N21269   7.690   6.279   7.139  0.2160  0.0909 -0.9426
  162MOL0     C21270   7.614   6.168   7.104 -0.2743 -0.6607 -0.4860
  162MOL0     C21271   7.702   6.072   7.079 -0.9059  0.1893 -0.6673
  162MOL0     C21272   7.677   5.935   7.040  0.3438  0.1973 -0.4280
  162MOL0     C21273   7.694   5.836   7.159  0.5695 -0.0634  0.1984
  162MOL0     C21274   7.567   5.828   7.249  0.0316  0.1123 -0.0513
  162MOL0     C21275   7.541   5.684   7.292 -0.2778 -0.3408 -0.1300
  162MOL0     O21276   7.445   5.688   7.403 -0.5113 -0.2371  0.6977
  162MOL0     C21277   7.307   5.705   7.384 -0.5977  0.8616 -0.6359
  162MOL0     C21278   7.238   5.742   7.495  0.7315 -0.4249  0.5369
  162MOL0     C21279   7.101   5.763   7.491  1.3107 -0.0910 -0.7235
  162MOL0     C21280   7.022   5.741   7.376  0.2716  0.7144 -0.0591
  162MOL0     C21281   6.876   5.747   7.378 -0.6461 -0.6706 -0.6076
  162MOL0     O21282   6.809   5.764   7.507  0.8157 -0.0330  0.3121
  162MOL0     C21283   6.666   5.756   7.496 -0.0833  0.9042 -0.4026
  162MOL0     C21284   6.597   5.681   7.591 -0.0708 -0.9210 -0.0905
  162MOL0     C21285   6.453   5.672   7.587 -0.7061  0.6157  0.1417
  162MOL0     C21286   6.380   5.739   7.488 -0.3451 -0.5627  0.4610
  162MOL0     O21287   6.245   5.741   7.504  0.0027  0.5008  0.0559
  162MOL0     C21288   6.152   5.800   7.415 -0.5890  0.5947 -0.2148
  162MOL0     C21289   6.111   5.924   7.483  0.2914  0.3698  0.6360
  162MOL0     C21290   5.973   5.961   7.431  0.2734 -0.5946  0.4406
  162MOL0     C21291   5.916   6.096   7.500 -0.7409  0.2498  0.7009
  162MOL0     C21292   5.769   6.127   7.473  1.1927  0.1213  0.4086
  162MOL0     C21293   5.679   6.027   7.549 -0.3656 -0.0076 -0.8568
  162MOL0     C21294   5.534   6.066   7.549  0.1155 -0.2772 -0.0518
  162MOL0     C21295   5.463   5.977   7.642  0.5778  0.2044  0.0665
  162MOL0    Cl21296   5.292   6.022   7.669 -0.2235 -0.2376  0.0995
  162MOL0     C21297   6.449   5.827   7.402 -0.1173 -0.2175  0.4506
  162MOL0     C21298   6.590   5.839   7.410 -0.2919 -0.3545  1.0025
  162MOL0     O21299   6.819   5.720   7.278 -0.2891  0.1720  0.0588
  162MOL0     C21300   7.089   5.704   7.260 -0.0490  0.0611  0.2810
  162MOL0     C21301   7.229   5.690   7.266 -0.3709 -0.6040  0.1719
  162MOL0     N21302   7.829   6.127   7.089 -0.2963  0.2291 -0.1169
  162MOL0     N21303   7.825   6.248   7.122 -0.7098 -0.1027 -0.7465
  162MOL0     C21304   6.893   6.889   7.499 -0.1118 -0.3231  0.0410
  162MOL0     C21305   6.757   6.919   7.491  1.0131  0.5431 -0.7289
  162MOL0     C21306   6.283   6.867   7.553 -0.5256 -0.7594  0.9892
  162MOL0     C21307   6.280   6.998   7.493  0.4248 -0.2773 -0.0857
  162MOL0     C21308   6.150   7.048   7.468 -0.6632 -0.1216  0.8223
  162MOL0     C21309   6.030   6.994   7.519  0.2012  0.4602  0.7603
  162MOL0     O21310   5.910   7.057   7.491  0.1550 -0.7944  0.4683
  162MOL0     C21311   5.822   6.964   7.420 -0.0642 -0.4889 -0.2316
  162MOL0     C21312   5.703   7.042   7.358 -0.1446  0.1132  0.0814
  162MOL0     C21313   5.616   7.110   7.465 -0.2023 -0.0264  0.4195
  162MOL0     C21314   5.503   7.192   7.406  0.2636  0.5696 -0.7998
  162MOL0     C21315   5.419   7.081   7.348  1.4156  0.0383 -0.6534
  162MOL0     C21316   5.353   6.982   7.327 -0.4885 -0.0442  0.6901
  162MOL0     C21317   6.043   6.880   7.602  0.1192 -0.5176  0.3997
  162MOL0     C21318   6.168   6.811   7.614 -0.1077 -0.3728 -0.4257
  162MOL0     H21319   6.627   6.603   7.468 -0.2982  1.2059 -0.4245
  162MOL0     H21320   6.861   6.543   7.472  0.7747  0.6632 -3.3483
  162MOL0     H21321   7.084   6.511   7.535  0.8195 -0.9244  1.6770
  162MOL0     H21322   7.025   6.588   7.678 -0.5457  0.1643 -0.7919
  162MOL0     H21323   7.253   6.516   7.686 -0.4675  0.2912  1.1668
  162MOL0     H21324   7.252   6.693   7.703 -0.5732 -2.1173  2.9017
  162MOL0     H21325   7.325   6.711   7.470  0.4872 -0.1910 -1.0174
  162MOL0     H21326   7.311   6.537   7.434  1.9356 -4.4182  1.6483
  162MOL0     H21327   7.488   6.645   7.648  0.2564 -1.1623  0.7069
  162MOL0     H21328   7.485   6.479   7.579  1.6891  0.3838  0.3855
  162MOL0     H21329   7.665   6.617   7.509 -0.8109  0.6704  1.8881
  162MOL0     H21330   7.567   6.755   7.455 -0.2144 -0.0874 -5.4944
  162MOL0     H21331   7.656   6.640   7.258  0.3845 -0.5643  1.2745
  162MOL0     H21332   7.481   6.609   7.261  0.6341  0.2428 -0.1577
  162MOL0     H21333   7.707   6.431   7.368 -0.3043  1.4475  1.3212
  162MOL0     H21334   7.535   6.393   7.363 -3.2216  3.3083 -0.7066
  162MOL0     H21335   7.697   6.493   7.119  0.1873  0.0782 -0.1299
  162MOL0     H21336   7.536   6.418   7.114 -1.1644 -2.8470  0.5663
  162MOL0     H21337   7.506   6.160   7.106 -0.5368  2.1947  0.2828
  162MOL0     H21338   7.749   5.909   6.962 -0.3044  0.6843 -1.2120
  162MOL0     H21339   7.579   5.927   6.991 -0.8454  1.1050  1.6776
  162MOL0     H21340   7.785   5.865   7.212 -1.2344  1.4173  2.7752
  162MOL0     H21341   7.708   5.739   7.111  0.9861  1.1599 -2.3164
  162MOL0     H21342   7.579   5.891   7.338  1.1880 -0.6241  0.3380
  162MOL0     H21343   7.482   5.878   7.201 -0.9156  0.5535  1.9626
  162MOL0     H21344   7.636   5.653   7.337  0.2582  1.9789  0.4937
  162MOL0     H21345   7.515   5.614   7.213  2.3668  0.0624 -1.4918
  162MOL0     H21346   7.287   5.772   7.587  1.2723  4.3036 -1.0284
  162MOL0     H21347   7.049   5.809   7.574 -1.3925 -0.5941 -2.0493
  162MOL0     H21348   6.658   5.622   7.659  1.6150  2.6924  1.8038
  162MOL0     H21349   6.399   5.604   7.652  1.6237  0.3921  1.9674
  162MOL0     H21350   6.069   5.731   7.395  0.7259 -0.8455 -0.9394
  162MOL0     H21351   6.202   5.816   7.319  0.2119 -3.0972 -0.5915
  162MOL0     H21352   6.191   5.996   7.465  0.6700 -0.8270 -3.4400
  162MOL0     H21353   6.096   5.900   7.589  0.5392 -1.5665  0.2700
  162MOL0     H21354   5.909   5.872   7.437  1.0950 -1.6028 -3.2334
  162MOL0     H21355   5.986   5.978   7.324  1.0918  3.0582  0.9729
  162MOL0     H21356   5.920   6.100   7.609  0.5895  1.2112  0.6385
  162MOL0     H21357   5.975   6.186   7.479  0.1508 -0.2750  0.9045
  162MOL0     H21358   5.749   6.137   7.366 -0.4885  0.1004  0.7064
  162MOL0     H21359   5.762   6.229   7.510  1.5466  1.0994 -2.0328
  162MOL0     H21360   5.713   6.046   7.651 -1.8988 -0.6739 -0.2005
  162MOL0     H21361   5.688   5.920   7.527 -3.6162 -0.5725  0.1016
  162MOL0     H21362   5.522   6.168   7.587  0.7550 -0.0729 -0.3905
  162MOL0     H21363   5.492   6.058   7.449 -1.7350 -1.4566  0.7693
  162MOL0     H21364   5.526   5.970   7.731  0.7510 -1.7882 -0.1749
  162MOL0     H21365   5.452   5.876   7.602 -1.3560  0.0332  0.9257
  162MOL0     H21366   6.398   5.892   7.332  1.2571 -0.2281 -0.6126
  162MOL0     H21367   6.649   5.898   7.341  0.5201  0.5399  2.4165
  162MOL0     H21368   7.037   5.694   7.165 -0.2323  0.1257  0.3729
  162MOL0     H21369   7.275   5.668   7.170 -1.6371 -1.8412 -0.1804
  162MOL0     H21370   6.966   6.962   7.532 -2.2248  2.1637 -0.4844
  162MOL0     H21371   6.720   7.016   7.520 -0.7483  0.5602 -2.7650
  162MOL0     H21372   6.367   7.044   7.448  0.0922  0.7720  0.3247
  162MOL0     H21373   6.156   7.130   7.397 -0.0393 -1.9051 -1.3013
  162MOL0     H21374   5.788   6.897   7.499 -0.5577  1.2068  1.0393
  162MOL0     H21375   5.864   6.906   7.337 -3.7216 -3.4049 -0.3246
  162MOL0     H21376   5.740   7.124   7.295  1.6982  0.5472  1.6325
  162MOL0     H21377   5.649   6.968   7.298 -1.1875  0.2864  0.7829
  162MOL0     H21378   5.681   7.176   7.522  2.1216 -0.1181 -1.9175
  162MOL0     H21379   5.584   7.037   7.539 -2.0626  0.5924  0.2791
  162MOL0     H21380   5.449   7.248   7.483  0.4672 -1.8186  1.2235
  162MOL0     H21381   5.531   7.259   7.324 -1.3092  1.9585 -0.2705
  162MOL0     H21382   5.275   6.912   7.306 -1.2609  1.8413 -3.7731
  162MOL0     H21383   5.955   6.837   7.648 -0.9661 -2.4305 -3.1066
  162MOL0     H21384   6.190   6.723   7.673  2.4431  1.6216  1.9034
  163MOL0     O21385   9.459   9.523   9.603 -0.3234  0.3187 -0.5141
  163MOL0     C21386   9.451   9.601   9.504  0.7195  0.8760 -0.4971
  163MOL0     O21387   9.341   9.682   9.472  0.4103  0.2132 -1.0075
  163MOL0     C21388   9.219   9.669   9.544  0.1803 -0.5996  0.1170
  163MOL0     C21389   9.209   9.665   9.686  0.1276 -0.9353  0.3794
  163MOL0     C21390   9.080   9.667   9.746 -0.1417 -0.1558 -0.5042
  163MOL0     C21391   8.965   9.687   9.671 -0.5430 -0.6514  0.2056
  163MOL0     O21392   8.846   9.694   9.737 -0.6641  0.3112  0.5550
  163MOL0     C21393   8.729   9.702   9.665 -0.5900  0.2716 -0.3973
  163MOL0     C21394   8.629   9.663   9.770  1.5494 -0.2762 -0.3696
  163MOL0     C21395   8.590   9.783   9.860 -0.0247 -0.2267 -0.2590
  163MOL0     C21396   8.500   9.734   9.978  0.1297  0.5937  0.8444
  163MOL0     C21397   8.440   9.848  10.058  1.0530 -0.1366  0.1499
  163MOL0     C21398   8.347   9.789  10.156 -0.1139 -0.6113 -0.1265
  163MOL0     C21399   8.317   9.899  10.249  0.3891 -0.6023 -0.2731
  163MOL0     C21400   8.219  10.002  10.177 -0.0752  0.2801 -0.1539
  163MOL0     N21401   8.089   9.937  10.153 -0.1739 -0.4958 -0.1177
  163MOL0     C21402   8.000   9.906  10.252  0.3758 -0.1495  0.6090
  163MOL0     C21403   7.885   9.865  10.181 -0.1583 -0.0668  0.5087
  163MOL0     C21404   7.747   9.855  10.247 -0.4000  0.6507 -0.4888
  163MOL0     C21405   7.712   9.994  10.303  0.2803 -0.3056 -0.1233
  163MOL0     C21406   7.593   9.990  10.393  0.0089  0.5737  0.5179
  163MOL0     C21407   7.461   9.936  10.338  0.7010  0.4606 -0.0309
  163MOL0     O21408   7.388  10.009  10.243 -0.0421 -0.1241 -0.1088
  163MOL0     C21409   7.254   9.995  10.248 -0.4357  0.3780 -0.5001
  163MOL0     C21410   7.173  10.092  10.316 -0.2073  0.0946  0.4151
  163MOL0     C21411   7.038  10.071  10.317  0.1750 -0.3275  1.0819
  163MOL0     C21412   6.973   9.966  10.245 -0.3001 -0.9307 -0.6055
  163MOL0     C21413   6.831   9.933  10.248  0.3760  0.4014 -0.9579
  163MOL0     O21414   6.769   9.856  10.145  0.0572 -0.2752 -0.0765
  163MOL0     C21415   6.632   9.861  10.144  0.1991  0.4338 -0.1803
  163MOL0     C21416   6.570   9.980  10.129  0.1813 -0.6108 -0.1625
  163MOL0     C21417   6.431   9.997  10.142 -0.0446  0.1963 -0.3359
  163MOL0     C21418   6.351   9.882  10.157 -0.2967  0.0784  1.1294
  163MOL0     O21419   6.210   9.887  10.135 -0.4503 -0.1282 -0.2512
  163MOL0     C21420   6.168   9.946  10.017 -0.1927  0.2097 -0.1812
  163MOL0     C21421   6.008   9.925  10.022 -0.6103 -0.0310 -0.3732
  163MOL0     C21422   5.943   9.991   9.909 -0.1919 -0.8042  0.2801
  163MOL0     C21423   5.791   9.985   9.914  0.4961 -0.1829  0.2722
  163MOL0     C21424   5.727  10.046   9.785 -1.3975 -0.0659 -0.4559
  163MOL0     C21425   5.574  10.045   9.782  0.6884 -0.1968 -0.7224
  163MOL0     C21426   5.514  10.118   9.663  0.3196  0.1090 -0.9061
  163MOL0     C21427   5.366  10.123   9.664 -0.1053 -0.9601 -0.6170
  163MOL0    Cl21428   5.298   9.966   9.685  0.5406  0.5167  0.3199
  163MOL0     C21429   6.415   9.756  10.169 -0.1470 -0.4942  0.2998
  163MOL0     C21430   6.556   9.748  10.167  0.4201  0.1796  0.2796
  163MOL0     O21431   6.771   9.975  10.351 -0.3882  0.5532 -0.2850
  163MOL0     C21432   7.049   9.881  10.169 -0.6225  0.5918  0.4156
  163MOL0     C21433   7.190   9.889  10.180  0.4885  0.2756 -0.1178
  163MOL0     N21434   7.912   9.857  10.045  0.2976 -0.2912 -0.8199
  163MOL0     N21435   8.035   9.901  10.032 -0.3235  0.7942  0.1279
  163MOL0     C21436   8.979   9.704   9.530  0.5242  0.5796 -0.1321
  163MOL0     C21437   9.104   9.685   9.475  0.1068 -0.4332 -0.1407
  163MOL0     C21438   9.573   9.614   9.410  0.4245  1.3182 -0.0909
  163MOL0     C21439   9.569   9.693   9.298 -0.1583 -0.2509  0.6446
  163MOL0     C21440   9.688   9.726   9.238 -0.1077 -0.2543  0.5941
  163MOL0     C21441   9.812   9.666   9.272  0.2097 -0.7755  0.1457
  163MOL0     O21442   9.923   9.701   9.211 -0.1330  0.5032 -0.6997
  163MOL0     C21443   9.912   9.748   9.077  0.2677 -0.1543  0.0492
  163MOL0     C21444  10.052   9.744   9.010 -0.4029  0.1173  0.2926
  163MOL0     C21445  10.044   9.775   8.858  0.3515  0.7828  0.7588
  163MOL0     C21446  10.178   9.799   8.800  0.2915  0.4730  0.1135
  163MOL0     C21447  10.241   9.669   8.751  0.0852 -0.2913 -0.6569
  163MOL0     C21448  10.307   9.574   8.713 -1.0247 -0.2919 -0.4662
  163MOL0     C21449   9.816   9.573   9.380  0.3145  0.0641 -0.5932
  163MOL0     C21450   9.692   9.546   9.446 -0.1666  0.2247 -0.5906
  163MOL0     H21451   9.301   9.659   9.742 -0.2522  2.1785  1.4972
  163MOL0     H21452   9.074   9.656   9.854  1.7641  0.9665 -0.2469
  163MOL0     H21453   8.732   9.629   9.584  2.6122 -1.8144  1.3551
  163MOL0     H21454   8.706   9.803   9.628 -0.4007  1.9353  3.4320
  163MOL0     H21455   8.679   9.592   9.837  0.9683  1.9887  2.7204
  163MOL0     H21456   8.535   9.629   9.724  1.4244 -1.2337  0.5657
  163MOL0     H21457   8.536   9.856   9.799  0.8655  2.6821  2.1841
  163MOL0     H21458   8.683   9.830   9.894  1.6594 -1.3970 -2.9543
  163MOL0     H21459   8.414   9.679   9.938  0.8558  0.7128 -0.9321
  163MOL0     H21460   8.557   9.661  10.037 -0.4274 -1.5626 -1.1170
  163MOL0     H21461   8.388   9.914   9.988  0.0884  2.3805  3.0126
  163MOL0     H21462   8.515   9.909  10.110  0.2436 -0.7921  2.2151
  163MOL0     H21463   8.397   9.702  10.202 -1.9094 -1.0173  1.1586
  163MOL0     H21464   8.260   9.739  10.114 -0.3726  0.1193 -0.4724
  163MOL0     H21465   8.260   9.861  10.334 -0.0861  2.1610  0.7385
  163MOL0     H21466   8.397   9.962  10.288  0.5057 -0.5298 -0.6234
  163MOL0     H21467   8.264  10.044  10.087  0.1709 -0.9580 -0.6267
  163MOL0     H21468   8.207  10.085  10.248 -0.7019  1.6482 -1.8011
  163MOL0     H21469   8.005   9.933  10.357 -1.0596 -1.2528  0.9931
  163MOL0     H21470   7.755   9.779  10.325  0.1427 -1.1756 -2.2288
  163MOL0     H21471   7.679   9.814  10.172  0.3550 -0.0353 -0.8167
  163MOL0     H21472   7.697  10.064  10.220  3.1239 -1.1976 -1.5014
  163MOL0     H21473   7.803  10.028  10.354 -0.0276 -0.5129  0.5843
  163MOL0     H21474   7.619   9.924  10.477  2.1653 -1.1947 -1.3770
  163MOL0     H21475   7.576  10.095  10.420  1.1826  0.9216 -0.0392
  163MOL0     H21476   7.405   9.925  10.431 -1.2402  0.5909 -1.1204
  163MOL0     H21477   7.486   9.838  10.295  0.6353  0.6816 -0.5872
  163MOL0     H21478   7.227  10.172  10.365 -0.6734  0.5624  0.1724
  163MOL0     H21479   6.982  10.145  10.374 -0.6008  2.0723 -2.4646
  163MOL0     H21480   6.627  10.071  10.114 -1.1141  0.8072  2.6964
  163MOL0     H21481   6.395  10.099  10.135  1.1808  0.6573 -0.2272
  163MOL0     H21482   6.211   9.897   9.929 -0.2786 -1.1023  0.4932
  163MOL0     H21483   6.195  10.051  10.003 -0.1595 -0.0705 -2.6350
  163MOL0     H21484   5.966   9.961  10.116 -0.0198  2.1385 -0.9005
  163MOL0     H21485   5.987   9.818  10.009  2.1365 -0.3381 -3.8755
  163MOL0     H21486   5.978   9.950   9.814  1.6524 -0.2475  0.6682
  163MOL0     H21487   5.968  10.097   9.911 -0.9785 -0.5493 -1.9032
  163MOL0     H21488   5.761   9.881   9.929  0.8564 -0.6663 -1.9689
  163MOL0     H21489   5.748  10.043   9.996  0.4336  2.3174 -1.4068
  163MOL0     H21490   5.771   9.992   9.701 -2.9633 -1.2856 -0.5310
  163MOL0     H21491   5.767  10.148   9.791  0.5222 -0.8269  0.9834
  163MOL0     H21492   5.537  10.087   9.876  0.1152 -0.2302 -0.9336
  163MOL0     H21493   5.533   9.943   9.780  1.1744 -0.5324  2.0528
  163MOL0     H21494   5.565  10.215   9.663 -0.4146  0.5989  2.0511
  163MOL0     H21495   5.544  10.058   9.576 -3.3111 -1.0217 -1.5239
  163MOL0     H21496   5.339  10.157   9.564  1.9016 -2.4648 -1.7239
  163MOL0     H21497   5.323  10.194   9.736 -2.7906  0.1004 -3.0491
  163MOL0     H21498   6.367   9.659  10.174 -0.5174 -0.3409 -0.2401
  163MOL0     H21499   6.607   9.653  10.176 -1.5036 -0.8482  0.9608
  163MOL0     H21500   7.002   9.791  10.131 -0.4113 -0.6640  2.8816
  163MOL0     H21501   7.254   9.810  10.141  1.9705  1.6992 -0.6774
  163MOL0     H21502   8.888   9.712   9.472 -0.7661 -1.3075  1.5123
  163MOL0     H21503   9.116   9.674   9.367  2.0393  0.3641 -0.0308
  163MOL0     H21504   9.476   9.735   9.264 -0.8855 -1.6994  0.7504
  163MOL0     H21505   9.679   9.801   9.160 -2.5957 -2.5682 -1.5098
  163MOL0     H21506   9.872   9.849   9.078 -1.4352 -0.7935  1.1111
  163MOL0     H21507   9.839   9.683   9.027  0.8696 -0.8070  0.0036
  163MOL0     H21508  10.116   9.819   9.057  2.1730 -2.9184  1.9646
  163MOL0     H21509  10.103   9.648   9.021  3.0481  1.9145  1.2737
  163MOL0     H21510   9.975   9.860   8.845  1.6789  2.0370  1.6265
  163MOL0     H21511   9.997   9.690   8.808  1.7280 -0.5922  1.7072
  163MOL0     H21512  10.181   9.862   8.711  1.2032  1.0368  0.5333
  163MOL0     H21513  10.239   9.847   8.878 -0.6276  3.0722 -0.6744
  163MOL0     H21514  10.366   9.496   8.669 -1.0371 -0.0801 -0.8692
  163MOL0     H21515   9.904   9.519   9.415 -1.3986 -2.7578 -0.4008
  163MOL0     H21516   9.686   9.476   9.528  1.0029  2.1617  1.2860
  164MOL0     O21517   5.359   7.074  10.881  0.3397 -1.2130  0.2972
  164MOL0     C21518   5.455   7.140  10.921 -0.1422 -0.8715  0.0165
  164MOL0     O21519   5.463   7.275  10.901  0.5730  0.1708  0.2551
  164MOL0     C21520   5.350   7.344  10.862 -0.4011  0.3585  0.5876
  164MOL0     C21521   5.281   7.310  10.747 -0.1368  0.0152  1.3560
  164MOL0     C21522   5.170   7.385  10.704  0.0341  0.4853  0.1137
  164MOL0     C21523   5.137   7.505  10.769 -0.3639  0.0075 -0.3282
  164MOL0     O21524   5.035   7.586  10.726 -0.3767 -0.1209 -1.3535
  164MOL0     C21525   4.914   7.514  10.755  0.4042  0.3663  0.1681
  164MOL0     C21526   4.804   7.605  10.709  0.7901  0.1434 -0.1704
  164MOL0     C21527   4.665   7.540  10.743  0.0426 -0.3099  0.5787
  164MOL0     C21528   4.564   7.651  10.700 -1.0006  0.4819  0.5537
  164MOL0     C21529   4.416   7.598  10.713 -0.5918  0.8597  0.0190
  164MOL0     C21530   4.306   7.681  10.657  0.6766 -0.3733 -0.4582
  164MOL0     C21531   4.163   7.641  10.693  0.3449  0.0763 -0.6501
  164MOL0     C21532   4.114   7.698  10.828 -0.2178  0.4642  0.2587
  164MOL0     N21533   4.112   7.845  10.834  0.1462  0.4444 -0.3733
  164MOL0     C21534   4.219   7.916  10.871  0.1522 -0.1240  0.6963
  164MOL0     C21535   4.173   8.044  10.906  0.3707 -0.3030  0.0229
  164MOL0     C21536   4.255   8.155  10.971 -0.1858 -0.1399  0.0430
  164MOL0     C21537   4.234   8.155  11.125 -0.1611  0.8834 -0.2632
  164MOL0     C21538   4.324   8.239  11.204 -0.2208  0.4548 -0.5150
  164MOL0     C21539   4.471   8.180  11.212 -0.4719  0.1970 -0.6525
  164MOL0     O21540   4.562   8.288  11.236 -0.0277 -0.2837 -0.3693
  164MOL0     C21541   4.696   8.264  11.256  0.2197  0.3986 -1.1061
  164MOL0     C21542   4.748   8.134  11.267 -0.4310 -0.3921 -0.1328
  164MOL0     C21543   4.884   8.118  11.302 -0.5015  0.3588 -0.3005
  164MOL0     C21544   4.968   8.230  11.330  0.0345  0.7087 -0.6028
  164MOL0     C21545   5.107   8.210  11.369  0.3051  0.2502  0.2632
  164MOL0     O21546   5.155   8.303  11.449 -0.5885 -0.3072 -0.3246
  164MOL0     C21547   5.287   8.295  11.483  0.1658 -0.8738 -0.0787
  164MOL0     C21548   5.376   8.185  11.489 -0.7108 -0.6157 -0.2292
  164MOL0     C21549   5.502   8.216  11.530 -0.0766  0.0334 -0.4763
  164MOL0     C21550   5.551   8.338  11.579 -0.0048  1.1463  0.2358
  164MOL0     O21551   5.677   8.353  11.624  1.0570 -0.4747 -0.4752
  164MOL0     C21552   5.695   8.282  11.747 -0.5084  0.0465 -0.2685
  164MOL0     C21553   5.795   8.358  11.834 -0.0610 -0.3004 -0.5583
  164MOL0     C21554   5.934   8.370  11.763 -0.2186  0.3708  0.1933
  164MOL0     C21555   6.045   8.413  11.858  0.4655 -1.2406  0.8612
  164MOL0     C21556   6.190   8.396  11.811  0.3441  0.2897  0.3545
  164MOL0     C21557   6.294   8.439  11.918  0.1359 -0.3990  0.0399
  164MOL0     C21558   6.434   8.453  11.859 -1.0339  0.3113  0.0946
  164MOL0     C21559   6.543   8.458  11.972  0.1029  0.5721  0.2167
  164MOL0    Cl21560   6.550   8.290  12.041 -0.5350 -0.0917 -0.3476
  164MOL0     C21561   5.464   8.447  11.570 -0.3580 -1.0258  0.7081
  164MOL0     C21562   5.335   8.429  11.517 -0.0263  0.4496 -0.0398
  164MOL0     O21563   5.165   8.127  11.308  0.0104  0.6124 -0.2662
  164MOL0     C21564   4.910   8.354  11.318  0.4456  0.1748  0.3755
  164MOL0     C21565   4.777   8.372  11.277 -0.0753 -0.4046 -0.3171
  164MOL0     N21566   4.035   8.043  10.872  0.5538  0.5733  0.5334
  164MOL0     N21567   4.007   7.924  10.834  0.8017  0.3753  0.0767
  164MOL0     C21568   5.206   7.542  10.887 -0.6140 -0.0285  0.3086
  164MOL0     C21569   5.311   7.460  10.932  0.3233  0.7208  0.3598
  164MOL0     C21570   5.563   7.062  10.990 -0.0363  0.0599  0.1160
  164MOL0     C21571   5.665   7.136  11.064 -0.3253  0.2009 -0.1389
  164MOL0     C21572   5.761   7.065  11.130 -0.2736  0.7775  0.0020
  164MOL0     C21573   5.774   6.927  11.117 -0.1956  0.1006 -0.0363
  164MOL0     O21574   5.881   6.869  11.182  0.0039  0.0714  0.2595
  164MOL0     C21575   5.954   6.773  11.111 -0.4681  0.0187 -0.2728
  164MOL0     C21576   6.077   6.722  11.194 -0.2983 -0.0422 -0.0447
  164MOL0     C21577   6.180   6.829  11.233 -0.8203  1.1772  0.3667
  164MOL0     C21578   6.148   6.903  11.370  0.0727 -0.1665  0.0507
  164MOL0     C21579   6.236   7.025  11.396  0.2523 -0.5514  0.6185
  164MOL0     C21580   6.301   7.126  11.385  0.6963 -0.4801  0.6996
  164MOL0     C21581   5.691   6.862  11.022  0.3058 -0.0590 -0.5797
  164MOL0     C21582   5.586   6.927  10.960 -1.0797  0.7170  0.1533
  164MOL0     H21583   5.312   7.224  10.689 -4.8181  0.4053 -2.3403
  164MOL0     H21584   5.118   7.362  10.612  3.8206 -0.3012 -2.0363
  164MOL0     H21585   4.901   7.485  10.860 -1.4966  0.0908 -0.1101
  164MOL0     H21586   4.906   7.419  10.701  0.3066  0.8688 -0.7297
  164MOL0     H21587   4.824   7.614  10.602 -0.1549 -0.2069 -0.3922
  164MOL0     H21588   4.816   7.700  10.762  2.0272 -0.1231  0.0415
  164MOL0     H21589   4.654   7.531  10.851  1.3733 -1.0392  0.6634
  164MOL0     H21590   4.660   7.443  10.692  1.2822 -1.2550  2.1858
  164MOL0     H21591   4.578   7.744  10.756  2.3508 -0.0015  0.7526
  164MOL0     H21592   4.574   7.670  10.593 -0.6110  0.0066  0.5040
  164MOL0     H21593   4.396   7.580  10.819  1.4190  2.0300  0.6558
  164MOL0     H21594   4.405   7.495  10.676  0.8038  1.1827 -1.4057
  164MOL0     H21595   4.318   7.683  10.549 -0.4049  0.0489 -0.5802
  164MOL0     H21596   4.324   7.783  10.694 -2.1851  0.5767 -1.4313
  164MOL0     H21597   4.090   7.664  10.615 -1.9432 -2.4411  0.5436
  164MOL0     H21598   4.162   7.531  10.691 -0.5283  0.0874 -2.0422
  164MOL0     H21599   4.186   7.666  10.904 -0.3853  1.5740  0.9035
  164MOL0     H21600   4.014   7.659  10.850  0.0890 -0.4007  0.1444
  164MOL0     H21601   4.321   7.880  10.880 -0.4923 -2.0952  0.4073
  164MOL0     H21602   4.226   8.250  10.926 -0.8965  0.8239  2.3848
  164MOL0     H21603   4.359   8.130  10.952 -0.6630 -1.4922 -0.9421
  164MOL0     H21604   4.235   8.055  11.170 -2.5851  0.9123 -0.0406
  164MOL0     H21605   4.131   8.187  11.143 -0.5272 -0.5796  0.3642
  164MOL0     H21606   4.331   8.333  11.149  0.6504  1.8961  1.8794
  164MOL0     H21607   4.291   8.259  11.306 -0.8840  0.0077 -0.6340
  164MOL0     H21608   4.492   8.153  11.108 -1.5058  1.1881 -1.1447
  164MOL0     H21609   4.475   8.096  11.281 -0.8233 -0.5639 -1.5406
  164MOL0     H21610   4.698   8.040  11.244  0.4495 -1.3397  1.6180
  164MOL0     H21611   4.932   8.021  11.304  0.9283  1.0120 -1.2025
  164MOL0     H21612   5.351   8.081  11.475  2.2857 -1.4556  0.0315
  164MOL0     H21613   5.572   8.133  11.537  1.6712  0.9186 -4.4691
  164MOL0     H21614   5.730   8.179  11.731  0.1509 -0.0755  1.7485
  164MOL0     H21615   5.602   8.274  11.804 -1.2955  0.2933 -1.4800
  164MOL0     H21616   5.819   8.301  11.924 -0.0595 -0.3867 -0.6135
  164MOL0     H21617   5.770   8.461  11.860 -0.3483 -0.8211  1.3671
  164MOL0     H21618   5.923   8.446  11.685 -0.9498  0.5553  0.4734
  164MOL0     H21619   5.964   8.276  11.716  2.1257  0.7312  0.8055
  164MOL0     H21620   6.030   8.519  11.882 -2.2753 -0.9340 -1.6117
  164MOL0     H21621   6.046   8.358  11.953  2.5774 -0.8208  1.1464
  164MOL0     H21622   6.204   8.459  11.723  2.1398 -0.2961  0.1798
  164MOL0     H21623   6.191   8.288  11.792  0.0752  0.2833  0.3677
  164MOL0     H21624   6.282   8.373  12.005  0.7448 -0.3263  0.1797
  164MOL0     H21625   6.265   8.543  11.937  1.1961  0.0509 -0.7197
  164MOL0     H21626   6.441   8.360  11.801 -1.1419  0.0715  0.4669
  164MOL0     H21627   6.458   8.539  11.795  1.5832  1.1272  2.0032
  164MOL0     H21628   6.527   8.539  12.043  1.8016  0.5387  0.6855
  164MOL0     H21629   6.629   8.483  11.908 -0.7984 -3.2813 -2.9199
  164MOL0     H21630   5.500   8.543  11.604  1.2953  0.4584 -4.3559
  164MOL0     H21631   5.276   8.519  11.525  2.0091  1.9716 -1.1905
  164MOL0     H21632   4.968   8.444  11.335 -0.8167  1.6221 -2.2724
  164MOL0     H21633   4.749   8.477  11.275  1.5991  0.2006  2.2030
  164MOL0     H21634   5.178   7.636  10.934 -1.1999  0.6533 -1.3146
  164MOL0     H21635   5.372   7.493  11.016  0.3627 -1.7416  1.3870
  164MOL0     H21636   5.674   7.244  11.065  0.7658  0.1460 -1.5126
  164MOL0     H21637   5.834   7.118  11.190  0.3479 -0.8595  0.7426
  164MOL0     H21638   5.985   6.813  11.014  0.0302  0.5765  0.1097
  164MOL0     H21639   5.897   6.680  11.095  1.6127 -1.1374 -1.4655
  164MOL0     H21640   6.033   6.679  11.284  1.1922 -1.2627  0.1449
  164MOL0     H21641   6.129   6.650  11.129  0.7637  1.0801 -0.4845
  164MOL0     H21642   6.187   6.898  11.149 -3.7219  0.5353 -0.5445
  164MOL0     H21643   6.274   6.776  11.244 -1.8179 -1.0465 -1.1474
  164MOL0     H21644   6.044   6.937  11.367  0.5649  1.3597 -0.7763
  164MOL0     H21645   6.142   6.832  11.453 -0.3407  0.1367  0.2833
  164MOL0     H21646   6.361   7.215  11.379 -0.9310  0.6648  0.8600
  164MOL0     H21647   5.698   6.754  11.012 -1.2419 -0.4198  1.6887
  164MOL0     H21648   5.526   6.875  10.886 -1.8183  2.5903 -0.6464
  165MOL0     O21649  10.767   8.278   7.660 -0.0750 -1.0653 -1.0532
  165MOL0     C21650  10.810   8.251   7.772 -0.4435  0.0968  0.1842
  165MOL0     O21651  10.750   8.254   7.888  0.4374 -0.7025 -0.1471
  165MOL0     C21652  10.615   8.275   7.907  0.3396 -0.6538  0.6023
  165MOL0     C21653  10.536   8.345   7.815  0.9576  0.6481  0.6187
  165MOL0     C21654  10.403   8.370   7.834 -0.2070  0.0701  1.0242
  165MOL0     C21655  10.334   8.324   7.940  0.0557  0.8346 -0.4797
  165MOL0     O21656  10.204   8.361   7.971  0.4873 -0.3322 -0.2134
  165MOL0     C21657  10.125   8.282   8.059 -0.1097  0.4000 -0.5215
  165MOL0     C21658   9.974   8.323   8.051  0.6163 -0.7277  0.0755
  165MOL0     C21659   9.941   8.455   8.130 -0.1023  0.0051  0.2750
  165MOL0     C21660   9.979   8.454   8.280 -0.1717 -0.3596 -0.0961
  165MOL0     C21661  10.021   8.594   8.329 -0.1992 -0.6187  0.6190
  165MOL0     C21662   9.927   8.714   8.296  0.0250  0.3639  0.1422
  165MOL0     C21663   9.806   8.716   8.388  1.2531  0.9892 -0.3080
  165MOL0     C21664   9.728   8.840   8.380 -0.5960  0.3230 -0.5958
  165MOL0     N21665   9.607   8.838   8.463 -0.6126 -0.8263 -0.2142
  165MOL0     C21666   9.499   8.763   8.432 -0.0829 -0.3342 -0.1647
  165MOL0     C21667   9.422   8.797   8.538  1.1049  0.4066  0.2881
  165MOL0     C21668   9.288   8.724   8.556  0.0065 -0.4863  0.4256
  165MOL0     C21669   9.315   8.578   8.620  0.5935 -0.2258 -0.3957
  165MOL0     C21670   9.331   8.589   8.772  0.3106  0.2707 -0.4346
  165MOL0     C21671   9.388   8.462   8.844  0.9716  0.1689  0.1261
  165MOL0     O21672   9.286   8.362   8.842 -0.1976 -0.6558 -0.6783
  165MOL0     C21673   9.180   8.381   8.931 -0.0424  0.0269 -0.2443
  165MOL0     C21674   9.172   8.488   9.025  0.9043  0.6635 -0.7180
  165MOL0     C21675   9.057   8.505   9.101  0.6169  0.2384  0.5967
  165MOL0     C21676   8.953   8.416   9.084 -0.1536 -0.3330 -0.1713
  165MOL0     C21677   8.825   8.436   9.162 -0.3530 -0.7974  0.2947
  165MOL0     O21678   8.714   8.377   9.110  0.0291 -0.0062 -0.3573
  165MOL0     C21679   8.596   8.416   9.167 -0.0638 -0.2608  0.1421
  165MOL0     C21680   8.513   8.321   9.233  0.2685  0.2048  0.4014
  165MOL0     C21681   8.388   8.363   9.286 -0.5614 -1.0377  0.0419
  165MOL0     C21682   8.353   8.498   9.283  0.2896  0.4616  0.0359
  165MOL0     O21683   8.230   8.556   9.325 -0.4677  1.2514 -0.6456
  165MOL0     C21684   8.137   8.474   9.391 -0.9028  0.4031  0.2498
  165MOL0     C21685   8.009   8.556   9.419 -0.9567 -0.2649  0.1224
  165MOL0     C21686   7.899   8.467   9.475 -0.2491 -0.3979  0.0630
  165MOL0     C21687   7.939   8.388   9.600 -0.3055  0.0918  0.0633
  165MOL0     C21688   7.819   8.373   9.695 -0.6827  0.5042  0.5494
  165MOL0     C21689   7.718   8.272   9.650  0.3103  0.3200  0.3332
  165MOL0     C21690   7.598   8.266   9.746  0.0865 -0.4636 -0.3227
  165MOL0     C21691   7.461   8.285   9.664  0.7616  1.0739  0.0427
  165MOL0    Cl21692   7.330   8.317   9.774 -0.0503  0.0937  0.6235
  165MOL0     C21693   8.436   8.592   9.225  0.3901  0.6670  0.0531
  165MOL0     C21694   8.551   8.548   9.157  0.0482  0.0469 -0.9915
  165MOL0     O21695   8.835   8.511   9.266  0.5626 -0.1407  0.2539
  165MOL0     C21696   8.968   8.306   8.999  0.6232 -0.0185 -0.7383
  165MOL0     C21697   9.080   8.294   8.925  0.0067  0.7560 -0.2375
  165MOL0     N21698   9.471   8.895   8.617 -0.0414  0.2498 -0.5574
  165MOL0     N21699   9.584   8.914   8.568 -0.7726  1.1022 -0.1666
  165MOL0     C21700  10.413   8.249   8.038  0.2858 -0.3173  0.0639
  165MOL0     C21701  10.554   8.231   8.024  0.3428  0.4234  0.3584
  165MOL0     C21702  10.948   8.199   7.769  0.0233  0.8660  0.5443
  165MOL0     C21703  11.037   8.216   7.664  0.4941  0.4364 -0.1396
  165MOL0     C21704  11.164   8.171   7.671 -1.1999  0.4125 -1.2292
  165MOL0     C21705  11.214   8.103   7.781 -0.5719  0.3683  0.0018
  165MOL0     O21706  11.345   8.063   7.779 -0.5719  0.1839 -0.1803
  165MOL0     C21707  11.401   8.075   7.906 -0.1722  0.3238 -1.2979
  165MOL0     C21708  11.524   8.156   7.896 -0.0012 -0.5475  0.5568
  165MOL0     C21709  11.647   8.078   7.850  1.2298  0.4715 -0.2114
  165MOL0     C21710  11.775   8.166   7.854 -0.7208 -0.0208 -0.0906
  165MOL0     C21711  11.889   8.105   7.778  0.6098  0.3543  0.4457
  165MOL0     C21712  11.977   8.056   7.716  0.4384 -0.9272  0.2773
  165MOL0     C21713  11.122   8.075   7.880 -0.5582  0.2841 -0.3660
  165MOL0     C21714  10.999   8.131   7.879 -0.0139 -0.9180 -0.1809
  165MOL0     H21715  10.587   8.401   7.737  4.2860 -0.9755  1.4724
  165MOL0     H21716  10.350   8.434   7.763 -1.0194 -2.6149 -0.9669
  165MOL0     H21717  10.170   8.310   8.155  3.0966  1.5600 -2.1948
  165MOL0     H21718  10.133   8.175   8.040  1.5917  0.2368  0.8965
  165MOL0     H21719   9.912   8.238   8.083 -0.2833 -1.1487 -2.5173
  165MOL0     H21720   9.944   8.336   7.946 -0.2599  0.1561  0.4248
  165MOL0     H21721   9.833   8.464   8.116 -0.5630 -5.4137 -2.6189
  165MOL0     H21722   9.995   8.531   8.073 -1.1627  1.7585  1.5463
  165MOL0     H21723   9.893   8.420   8.338 -0.2791 -0.0346 -0.0631
  165MOL0     H21724  10.057   8.380   8.303  1.2060  1.1304  0.2397
  165MOL0     H21725  10.119   8.619   8.287 -0.8588  1.4145  0.1458
  165MOL0     H21726  10.038   8.588   8.437  1.0907 -0.2999  0.4544
  165MOL0     H21727   9.888   8.705   8.195 -3.2333  2.8360  1.0020
  165MOL0     H21728   9.981   8.809   8.309  2.0209 -0.8361  0.9935
  165MOL0     H21729   9.743   8.633   8.355  2.4011  0.6885 -1.8692
  165MOL0     H21730   9.831   8.701   8.494 -2.4715 -2.2739  0.3358
  165MOL0     H21731   9.693   8.836   8.277  0.5870 -2.8141 -0.9665
  165MOL0     H21732   9.793   8.927   8.398 -0.3088 -0.0490  0.2075
  165MOL0     H21733   9.486   8.698   8.346  1.0317  0.8186 -1.2635
  165MOL0     H21734   9.247   8.709   8.456 -1.5132 -0.4690  1.0259
  165MOL0     H21735   9.227   8.795   8.614  0.9553  0.8601 -0.1620
  165MOL0     H21736   9.412   8.544   8.582  1.4194  0.1535  1.2792
  165MOL0     H21737   9.241   8.503   8.592 -1.0735 -0.3645  3.6964
  165MOL0     H21738   9.400   8.669   8.801 -1.3632  1.8125 -0.5324
  165MOL0     H21739   9.231   8.611   8.809 -0.2150 -1.3113 -0.8191
  165MOL0     H21740   9.420   8.489   8.945  0.2552  2.8835 -0.2883
  165MOL0     H21741   9.468   8.421   8.781 -0.4676 -2.4179 -0.1507
  165MOL0     H21742   9.249   8.565   9.026  1.4675  0.1083  0.0568
  165MOL0     H21743   9.057   8.581   9.178  1.6117 -0.3218  1.1717
  165MOL0     H21744   8.544   8.218   9.220  1.3071  0.8685 -3.5839
  165MOL0     H21745   8.328   8.294   9.345  1.1303 -2.7732 -0.1773
  165MOL0     H21746   8.182   8.449   9.488  1.1569 -0.3380 -0.8429
  165MOL0     H21747   8.114   8.383   9.334 -1.4938  1.0447 -0.5540
  165MOL0     H21748   7.975   8.618   9.335  0.5713  1.2409  0.5662
  165MOL0     H21749   8.044   8.630   9.492 -0.2166  0.9053 -1.3558
  165MOL0     H21750   7.846   8.408   9.399 -0.0063 -1.2378  0.5353
  165MOL0     H21751   7.831   8.547   9.504 -1.6446 -0.4876 -2.6535
  165MOL0     H21752   7.977   8.288   9.577  0.9400  0.2596  1.2648
  165MOL0     H21753   8.018   8.447   9.649 -0.9084  1.3490 -0.4326
  165MOL0     H21754   7.773   8.472   9.701  0.7682  1.1999  0.7906
  165MOL0     H21755   7.853   8.342   9.794 -1.0906 -1.3458  0.1437
  165MOL0     H21756   7.763   8.173   9.638 -0.5192 -0.3511  2.2711
  165MOL0     H21757   7.668   8.306   9.560 -1.3148  1.7455  1.7010
  165MOL0     H21758   7.606   8.180   9.813  3.3271  0.4370  0.6321
  165MOL0     H21759   7.601   8.352   9.813  0.3613 -0.8546  0.1770
  165MOL0     H21760   7.445   8.195   9.604 -0.9040  1.4839 -0.1602
  165MOL0     H21761   7.459   8.369   9.594  0.6638  2.4812  1.6505
  165MOL0     H21762   8.403   8.695   9.217 -1.6329 -0.0723 -1.9246
  165MOL0     H21763   8.610   8.617   9.099 -0.2511  1.8772  0.7621
  165MOL0     H21764   8.885   8.238   8.986  1.4032 -0.8176 -1.6679
  165MOL0     H21765   9.087   8.220   8.846 -0.7323  2.4070 -1.9564
  165MOL0     H21766  10.366   8.212   8.129  0.5741 -1.6931 -0.3335
  165MOL0     H21767  10.608   8.183   8.104 -1.5799 -0.4090  1.2248
  165MOL0     H21768  11.001   8.254   7.569 -2.1198  0.6504  0.8591
  165MOL0     H21769  11.228   8.182   7.584  0.9209  0.4653  0.2832
  165MOL0     H21770  11.429   7.980   7.953  2.9596  1.2310 -1.0964
  165MOL0     H21771  11.339   8.128   7.979 -1.0485 -0.5213 -1.3978
  165MOL0     H21772  11.510   8.238   7.823  1.8623  0.1359  0.9047
  165MOL0     H21773  11.555   8.198   7.992  1.3262 -1.8861  0.7350
  165MOL0     H21774  11.629   8.041   7.748  0.7620 -2.4615  0.8451
  165MOL0     H21775  11.650   7.988   7.912  2.1918  1.0331  0.5756
  165MOL0     H21776  11.761   8.271   7.825  1.1101  1.0552  2.5115
  165MOL0     H21777  11.818   8.171   7.954  0.6201  3.3089 -0.6977
  165MOL0     H21778  12.064   8.014   7.670 -1.6678 -2.4191 -2.7264
  165MOL0     H21779  11.156   8.003   7.954  1.2351 -2.3253 -3.4698
  165MOL0     H21780  10.932   8.101   7.959 -3.0137 -0.5230 -2.4031
  166MOL0     O21781   3.815   7.906   3.832 -0.5110  0.6719  0.4567
  166MOL0     C21782   3.844   7.790   3.794 -0.2656  0.2372 -0.0030
  166MOL0     O21783   3.771   7.703   3.705  0.0779 -0.1158  0.2235
  166MOL0     C21784   3.653   7.758   3.651  0.1284  0.3469  0.0854
  166MOL0     C21785   3.545   7.674   3.628  0.0719 -0.1108  1.2014
  166MOL0     C21786   3.415   7.718   3.593 -0.1640  0.0642  0.4375
  166MOL0     C21787   3.394   7.851   3.584  0.0078  0.1590  0.9449
  166MOL0     O21788   3.267   7.898   3.571  0.1337 -0.3029  0.0398
  166MOL0     C21789   3.222   7.965   3.451 -0.2519  0.7037  2.0411
  166MOL0     C21790   3.070   7.961   3.454 -0.0477  0.0430 -0.9731
  166MOL0     C21791   3.010   7.821   3.474  0.7205 -0.7016 -0.0687
  166MOL0     C21792   2.861   7.828   3.462 -0.5950 -0.3585  0.3915
  166MOL0     C21793   2.799   7.699   3.494 -1.4165 -0.0147 -0.4127
  166MOL0     C21794   2.651   7.700   3.486 -0.1885 -0.3867  0.0749
  166MOL0     C21795   2.579   7.593   3.564 -0.1191 -0.4234  0.2911
  166MOL0     C21796   2.606   7.449   3.513 -0.2595 -0.1626 -0.6463
  166MOL0     N21797   2.624   7.439   3.372 -0.4720  0.2624 -0.3805
  166MOL0     C21798   2.524   7.418   3.284 -0.5462 -0.0975  0.2072
  166MOL0     C21799   2.590   7.377   3.169  0.8477  0.5353 -0.4898
  166MOL0     C21800   2.508   7.337   3.051 -0.2124  0.1310 -0.3312
  166MOL0     C21801   2.487   7.188   3.037  0.2650 -0.2767 -0.4036
  166MOL0     C21802   2.403   7.162   2.912 -0.1764  0.1728  0.1267
  166MOL0     C21803   2.358   7.015   2.911 -0.3631 -0.3184  0.1042
  166MOL0     O21804   2.302   6.973   2.787  0.3069 -0.1116  0.4516
  166MOL0     C21805   2.170   6.972   2.752 -0.1644  0.1224 -0.1765
  166MOL0     C21806   2.136   6.897   2.640  0.0378 -0.3921  0.2122
  166MOL0     C21807   2.004   6.876   2.602 -0.4967 -0.4125  0.3228
  166MOL0     C21808   1.902   6.941   2.680  0.8201  0.0307  0.1308
  166MOL0     C21809   1.756   6.924   2.651 -0.6061 -0.1291  0.5958
  166MOL0     O21810   1.667   6.959   2.741 -0.8120 -0.2299 -0.7567
  166MOL0     C21811   1.534   6.924   2.724 -0.7407 -0.1314 -0.7598
  166MOL0     C21812   1.472   6.889   2.843  0.1359 -0.3666  0.1453
  166MOL0     C21813   1.333   6.856   2.831  0.1984 -0.7802 -0.0056
  166MOL0     C21814   1.258   6.875   2.715  0.1328  0.9149  0.0044
  166MOL0     O21815   1.124   6.852   2.735  0.5035 -0.0249  0.5945
  166MOL0     C21816   1.030   6.881   2.626 -0.0712  0.4686 -0.1654
  166MOL0     C21817   0.885   6.866   2.669  0.2450  0.5124  0.2738
  166MOL0     C21818   0.795   6.885   2.550  0.0841  0.2357 -0.7689
  166MOL0     C21819   0.649   6.875   2.599 -0.8930 -0.7737 -0.8794
  166MOL0     C21820   0.562   6.854   2.474 -0.0746  0.2328 -0.3073
  166MOL0     C21821   0.436   6.777   2.497  0.5952 -0.4394 -1.0716
  166MOL0     C21822   0.328   6.866   2.558 -0.2786 -0.5020 -0.4275
  166MOL0     C21823   0.262   6.946   2.444 -0.0114 -0.6153  0.0982
  166MOL0    Cl21824   0.109   7.003   2.515 -0.4718  0.3374  0.0092
  166MOL0     C21825   1.324   6.914   2.604 -0.2176 -0.6294  0.1836
  166MOL0     C21826   1.464   6.936   2.599  0.3792  0.2020 -0.3974
  166MOL0     O21827   1.735   6.885   2.535 -0.7435 -0.2449  0.5487
  166MOL0     C21828   1.936   7.014   2.798  0.0262  0.4513  0.4980
  166MOL0     C21829   2.068   7.028   2.829  0.2673 -0.3575 -0.0183
  166MOL0     N21830   2.727   7.381   3.195  0.5154 -0.3255 -0.6499
  166MOL0     N21831   2.745   7.409   3.317  0.1745  0.1705 -0.1415
  166MOL0     C21832   3.507   7.941   3.588 -0.3684 -0.0928  0.2397
  166MOL0     C21833   3.635   7.894   3.618 -0.5471  0.8118 -0.2119
  166MOL0     C21834   3.973   7.734   3.852 -0.1345  0.4559  0.0429
  166MOL0     C21835   4.067   7.809   3.927 -0.2376 -0.0750  1.2750
  166MOL0     C21836   4.182   7.746   3.980  1.0365 -0.4822  0.0648
  166MOL0     C21837   4.195   7.611   3.976 -0.8129  0.4627 -0.2408
  166MOL0     O21838   4.299   7.535   4.023  0.0925  0.1831  0.0384
  166MOL0     C21839   4.407   7.597   4.101  0.0918  0.2509 -0.3344
  166MOL0     C21840   4.500   7.660   3.995  0.8847 -0.4799  0.4723
  166MOL0     C21841   4.633   7.695   4.063  0.5062 -0.0414  0.2844
  166MOL0     C21842   4.766   7.636   3.998  0.6221 -1.0328  0.2366
  166MOL0     C21843   4.887   7.679   4.062 -0.7924  0.6336 -0.1968
  166MOL0     C21844   4.992   7.698   4.121  0.9587 -0.2999 -0.1263
  166MOL0     C21845   4.105   7.540   3.900  0.1886  0.3383  0.1970
  166MOL0     C21846   4.003   7.599   3.836 -0.2091 -0.6823  0.6762
  166MOL0     H21847   3.577   7.570   3.631  0.3276 -0.0311  1.2856
  166MOL0     H21848   3.348   7.633   3.588 -1.5662  1.1976 -0.7312
  166MOL0     H21849   3.257   7.915   3.360  0.3684  2.9698  0.9743
  166MOL0     H21850   3.250   8.069   3.433  1.8256 -0.2771 -1.1662
  166MOL0     H21851   3.028   7.993   3.358 -0.4667 -0.6180 -1.0230
  166MOL0     H21852   3.035   8.030   3.530 -0.0670  1.4713 -2.2232
  166MOL0     H21853   3.037   7.781   3.573  0.6915  0.9166  0.6286
  166MOL0     H21854   3.038   7.752   3.394 -1.6508  0.0835 -1.6818
  166MOL0     H21855   2.820   7.910   3.521 -0.4070 -0.4305  0.6229
  166MOL0     H21856   2.832   7.846   3.358 -2.3547 -2.5480  0.4157
  166MOL0     H21857   2.823   7.681   3.599 -0.0933  0.6534 -0.5740
  166MOL0     H21858   2.848   7.625   3.430 -0.5012  0.6870 -0.5606
  166MOL0     H21859   2.624   7.704   3.380  1.1388  1.6878 -0.2424
  166MOL0     H21860   2.613   7.798   3.518  4.0506  1.7688 -0.6475
  166MOL0     H21861   2.600   7.621   3.667  3.3641  0.0289 -0.4052
  166MOL0     H21862   2.473   7.610   3.542  0.3965 -0.5078 -2.7974
  166MOL0     H21863   2.521   7.386   3.539  0.5575 -1.1417 -0.3071
  166MOL0     H21864   2.690   7.410   3.571 -0.5780  2.2001  1.5613
  166MOL0     H21865   2.418   7.416   3.310 -0.5002  4.2306  1.6448
  166MOL0     H21866   2.543   7.386   2.960 -1.9712  0.8847 -0.6355
  166MOL0     H21867   2.402   7.364   3.059 -0.9402 -2.0626 -1.6159
  166MOL0     H21868   2.437   7.154   3.128 -4.3355  1.9367 -1.7363
  166MOL0     H21869   2.583   7.141   3.017 -0.0859 -0.5805 -1.5019
  166MOL0     H21870   2.314   7.225   2.902 -0.1066 -0.0148 -2.0418
  166MOL0     H21871   2.456   7.182   2.819 -0.2196  4.0599  0.7792
  166MOL0     H21872   2.287   7.001   2.993 -0.9918  0.9725 -0.1939
  166MOL0     H21873   2.443   6.951   2.936  0.0821 -0.2885 -1.2489
  166MOL0     H21874   2.216   6.851   2.583  0.5798  1.5177 -0.6361
  166MOL0     H21875   1.975   6.816   2.517 -1.0008 -1.7504  1.4158
  166MOL0     H21876   1.516   6.889   2.942 -0.0514  0.4127  0.2290
  166MOL0     H21877   1.293   6.829   2.928  1.0026 -1.7207  0.0782
  166MOL0     H21878   1.052   6.811   2.544  0.1982 -2.3804  2.1738
  166MOL0     H21879   1.046   6.985   2.595  0.2667  0.2030 -0.9128
  166MOL0     H21880   0.872   6.945   2.744 -1.4026  0.1543  0.4015
  166MOL0     H21881   0.865   6.771   2.719 -0.2872  0.2249 -0.4728
  166MOL0     H21882   0.829   6.820   2.469  1.4747  2.0475 -1.7148
  166MOL0     H21883   0.806   6.984   2.505 -0.8740 -0.3059 -2.2566
  166MOL0     H21884   0.625   6.797   2.673 -1.9667  0.6110  0.2859
  166MOL0     H21885   0.609   6.965   2.645 -2.9251 -1.4726 -1.1876
  166MOL0     H21886   0.624   6.796   2.405  1.2953  1.0058  0.2552
  166MOL0     H21887   0.543   6.951   2.427  1.4894  1.8562  2.1805
  166MOL0     H21888   0.454   6.697   2.570 -4.9268 -0.9517  0.1810
  166MOL0     H21889   0.398   6.726   2.408  0.2271 -0.6540 -0.7931
  166MOL0     H21890   0.246   6.818   2.612 -0.3775  0.1598  0.0264
  166MOL0     H21891   0.383   6.936   2.622 -1.4304  1.4069 -1.4455
  166MOL0     H21892   0.238   6.884   2.357  0.4263  0.7971 -1.0700
  166MOL0     H21893   0.325   7.027   2.405 -0.2801 -0.3990  0.1071
  166MOL0     H21894   1.274   6.939   2.511 -0.3677 -2.2621 -0.1894
  166MOL0     H21895   1.512   6.972   2.509  0.8266  2.4439  0.6523
  166MOL0     H21896   1.862   7.064   2.860  1.1781  0.8413  1.6145
  166MOL0     H21897   2.086   7.093   2.914 -1.0213  1.6137 -1.1625
  166MOL0     H21898   3.482   8.045   3.572 -0.6847 -0.3363 -0.9464
  166MOL0     H21899   3.716   7.964   3.635  1.8688 -1.9161  0.4829
  166MOL0     H21900   4.056   7.917   3.933 -1.2708  0.2522 -3.1662
  166MOL0     H21901   4.250   7.811   4.036 -0.1539 -0.0276  1.0189
  166MOL0     H21902   4.456   7.525   4.166 -2.1257 -1.9040 -0.9247
  166MOL0     H21903   4.364   7.671   4.170  0.8353 -2.6851  3.6358
  166MOL0     H21904   4.514   7.593   3.910 -2.3723  2.0119 -2.3011
  166MOL0     H21905   4.463   7.758   3.964  1.4863 -0.0547  1.0670
  166MOL0     H21906   4.636   7.663   4.168  1.8837 -1.8302 -0.2504
  166MOL0     H21907   4.627   7.804   4.073 -0.5586 -0.0822  0.1554
  166MOL0     H21908   4.757   7.527   3.996 -1.3260 -0.9218 -2.2935
  166MOL0     H21909   4.770   7.666   3.893 -1.6374 -1.1254  0.0620
  166MOL0     H21910   5.075   7.733   4.179  1.8938 -1.0771 -0.9495
  166MOL0     H21911   4.126   7.435   3.882  0.8728  0.1366  1.9301
  166MOL0     H21912   3.940   7.529   3.781 -0.5997  1.8315 -2.3045
  167MOL0     O21913   6.280   1.705   9.339 -0.7231 -0.0568  0.5266
  167MOL0     C21914   6.291   1.711   9.214 -0.8251 -0.5369  0.5785
  167MOL0     O21915   6.186   1.713   9.126 -0.2996 -1.2621 -0.1543
  167MOL0     C21916   6.055   1.705   9.168 -0.1980 -0.2104 -0.2435
  167MOL0     C21917   6.010   1.609   9.258  0.9995  0.3248  0.2783
  167MOL0     C21918   5.881   1.616   9.302 -0.7849 -0.1026 -0.0096
  167MOL0     C21919   5.778   1.694   9.258  0.0046 -0.1838 -0.4886
  167MOL0     O21920   5.644   1.681   9.285 -0.2614  0.3923 -0.3311
  167MOL0     C21921   5.590   1.572   9.209 -0.1513 -0.0313  0.3998
  167MOL0     C21922   5.439   1.564   9.246 -0.1845 -0.1841 -0.6145
  167MOL0     C21923   5.368   1.635   9.139  0.4719  0.0722 -0.5611
  167MOL0     C21924   5.216   1.653   9.186 -0.1105 -0.5091 -0.9817
  167MOL0     C21925   5.126   1.703   9.073 -0.2426  1.1529  0.7087
  167MOL0     C21926   5.093   1.593   8.963 -0.6447 -0.2464 -0.3286
  167MOL0     C21927   4.974   1.634   8.874 -0.1863  0.1380  0.8406
  167MOL0     C21928   4.833   1.615   8.933  0.0928 -0.4733 -0.3788
  167MOL0     N21929   4.782   1.482   8.909 -0.5283  0.1983 -0.2074
  167MOL0     C21930   4.779   1.422   8.788 -0.0048  0.4132 -0.0593
  167MOL0     C21931   4.694   1.321   8.805 -0.6302  0.1320 -0.2185
  167MOL0     C21932   4.662   1.218   8.702 -0.5351  0.6822  0.4250
  167MOL0     C21933   4.784   1.127   8.668 -0.2076 -0.5778  0.7354
  167MOL0     C21934   4.870   1.075   8.785  0.0336  0.2403  0.4909
  167MOL0     C21935   5.002   1.006   8.735 -0.1741  0.2560  0.8739
  167MOL0     O21936   5.091   0.958   8.838  0.1249 -0.4289 -0.0154
  167MOL0     C21937   5.228   0.939   8.818  0.4944  0.0576  0.8076
  167MOL0     C21938   5.298   0.955   8.695 -0.2541 -0.0111 -0.5839
  167MOL0     C21939   5.435   0.944   8.692  0.6354 -0.0961 -0.1531
  167MOL0     C21940   5.510   0.905   8.806 -0.2119  0.1549 -0.7229
  167MOL0     C21941   5.657   0.896   8.807 -0.4426  0.0308  0.5701
  167MOL0     O21942   5.716   0.909   8.929  0.0774  0.7619 -0.2231
  167MOL0     C21943   5.851   0.899   8.961 -0.0622 -0.7574  0.0890
  167MOL0     C21944   5.887   0.899   9.093 -0.2385  0.4726  0.4810
  167MOL0     C21945   6.019   0.900   9.134  0.4406  0.3650  0.3700
  167MOL0     C21946   6.121   0.904   9.040  0.1652  0.2478 -0.1550
  167MOL0     O21947   6.244   0.893   9.094 -0.0407 -0.4140 -0.5520
  167MOL0     C21948   6.367   0.924   9.029  0.4165 -0.4670  0.3420
  167MOL0     C21949   6.484   0.936   9.120  0.2389  0.2339  0.9364
  167MOL0     C21950   6.494   0.804   9.196  0.1665  0.7091 -0.3835
  167MOL0     C21951   6.639   0.789   9.255 -0.0916 -0.2174  0.0062
  167MOL0     C21952   6.654   0.676   9.353 -0.3763 -0.1780  0.6721
  167MOL0     C21953   6.797   0.675   9.404  0.2130  0.1789 -0.0657
  167MOL0     C21954   6.821   0.566   9.500 -0.7053  0.2167 -0.0442
  167MOL0     C21955   6.974   0.557   9.527 -0.3558  1.0827  0.1864
  167MOL0    Cl21956   7.017   0.708   9.612  0.0182  0.1342 -0.1366
  167MOL0     C21957   6.086   0.896   8.903  0.4428  1.3566  1.2181
  167MOL0     C21958   5.950   0.896   8.864  0.3684  0.4531  0.5321
  167MOL0     O21959   5.710   0.905   8.696 -0.2723  0.2918  1.1230
  167MOL0     C21960   5.437   0.892   8.927 -0.7260 -0.0797  0.1819
  167MOL0     C21961   5.300   0.915   8.934 -0.5426 -0.3144 -1.1641
  167MOL0     N21962   4.647   1.325   8.939 -0.3509  0.3858 -0.2035
  167MOL0     N21963   4.710   1.418   9.002  0.0821  0.1703 -0.2484
  167MOL0     C21964   5.813   1.765   9.146 -0.9885 -0.6136  0.6327
  167MOL0     C21965   5.953   1.781   9.099  0.6088  0.3226 -0.1573
  167MOL0     C21966   6.430   1.713   9.168 -0.5418  0.0823 -0.5588
  167MOL0     C21967   6.525   1.652   9.248  0.8364  0.8267  0.7452
  167MOL0     C21968   6.653   1.643   9.202 -0.5788  0.2093 -0.1719
  167MOL0     C21969   6.697   1.679   9.075 -0.6777 -0.9467  0.5338
  167MOL0     O21970   6.824   1.664   9.020  0.2618 -0.2833  0.0526
  167MOL0     C21971   6.920   1.604   9.102  0.2457 -0.3610 -1.2091
  167MOL0     C21972   7.039   1.566   9.005 -0.4858  0.4166 -0.4859
  167MOL0     C21973   7.172   1.527   9.087 -0.0855  0.2815  0.5569
  167MOL0     C21974   7.297   1.509   8.990  0.3832 -1.0313 -0.2596
  167MOL0     C21975   7.276   1.399   8.898  0.0762  0.2373  0.4065
  167MOL0     C21976   7.257   1.304   8.824  0.2780 -1.7363  0.4181
  167MOL0     C21977   6.595   1.726   8.992  0.0760  0.2787  0.2660
  167MOL0     C21978   6.465   1.758   9.036  0.0542  1.0392 -0.0260
  167MOL0     H21979   6.075   1.539   9.310  0.5318 -0.5835 -0.3291
  167MOL0     H21980   5.867   1.540   9.377 -0.2732 -2.1495 -1.8861
  167MOL0     H21981   5.635   1.480   9.249  1.4956  0.2900 -0.6558
  167MOL0     H21982   5.605   1.574   9.101  1.2927  1.2736  0.6088
  167MOL0     H21983   5.426   1.615   9.342  0.2546 -1.6756  0.2694
  167MOL0     H21984   5.401   1.461   9.251 -3.7714  0.9394 -1.7233
  167MOL0     H21985   5.380   1.582   9.044 -0.1178 -1.2953  0.0978
  167MOL0     H21986   5.424   1.728   9.130  1.3368 -0.4924 -1.2133
  167MOL0     H21987   5.169   1.555   9.199 -2.6369  0.1426 -3.8576
  167MOL0     H21988   5.216   1.719   9.274 -2.5452 -0.7366 -0.7272
  167MOL0     H21989   5.174   1.787   9.022  0.6321 -0.7080 -1.7268
  167MOL0     H21990   5.030   1.736   9.116 -0.8672  0.1755  0.0994
  167MOL0     H21991   5.073   1.494   9.005 -0.2331  0.3414  1.3154
  167MOL0     H21992   5.184   1.598   8.901  0.2221  2.4495  0.9791
  167MOL0     H21993   4.993   1.739   8.850  1.4500  0.0252  1.5494
  167MOL0     H21994   4.982   1.583   8.778  2.8754  2.3638 -0.2304
  167MOL0     H21995   4.763   1.688   8.892 -0.2622 -0.1477  0.7698
  167MOL0     H21996   4.835   1.641   9.039  2.8116  0.5574 -0.5906
  167MOL0     H21997   4.828   1.449   8.695  0.4886 -0.0360  0.0644
  167MOL0     H21998   4.614   1.266   8.616 -0.2444  0.8846  0.3736
  167MOL0     H21999   4.585   1.157   8.749  0.2542 -0.6064  0.1053
  167MOL0     H22000   4.841   1.185   8.595 -1.3572 -0.6171 -0.2357
  167MOL0     H22001   4.744   1.041   8.613  1.6727 -0.9329 -0.1590
  167MOL0     H22002   4.901   1.164   8.839  0.2203  0.3067  0.2751
  167MOL0     H22003   4.812   1.003   8.845  0.8324  0.2652  1.3074
  167MOL0     H22004   5.047   1.077   8.666 -0.8001  2.9001  2.9998
  167MOL0     H22005   4.974   0.915   8.682  2.3212 -0.8201  1.2346
  167MOL0     H22006   5.241   0.994   8.611  0.2917  1.9143 -0.1035
  167MOL0     H22007   5.484   0.959   8.596  0.2546 -2.2873 -0.7358
  167MOL0     H22008   5.803   0.876   9.158 -0.6779 -1.2552 -0.6171
  167MOL0     H22009   6.042   0.881   9.238 -1.0569 -1.9259  0.3495
  167MOL0     H22010   6.345   1.017   8.977 -1.8197 -0.9661  0.2606
  167MOL0     H22011   6.375   0.840   8.959  1.0155 -1.2278  1.2908
  167MOL0     H22012   6.464   1.011   9.198 -1.7519  0.0796  0.6391
  167MOL0     H22013   6.579   0.951   9.069  2.4962 -1.3944  4.3006
  167MOL0     H22014   6.477   0.721   9.127 -0.0826 -1.2702  1.9338
  167MOL0     H22015   6.410   0.802   9.267 -1.0133  1.4825 -1.7070
  167MOL0     H22016   6.712   0.784   9.174  2.5316  3.5820  1.8084
  167MOL0     H22017   6.660   0.883   9.308  1.3906 -0.2449 -0.4926
  167MOL0     H22018   6.618   0.580   9.316  1.8213 -0.5860 -0.5827
  167MOL0     H22019   6.601   0.701   9.446  0.4976  0.5027  1.0012
  167MOL0     H22020   6.821   0.770   9.452 -0.2376  0.8498 -1.1212
  167MOL0     H22021   6.867   0.675   9.320 -0.6524  0.0135 -0.8130
  167MOL0     H22022   6.772   0.590   9.595 -0.2035  1.8287 -0.1645
  167MOL0     H22023   6.790   0.467   9.466 -2.5116  0.6148  0.3587
  167MOL0     H22024   7.016   0.549   9.427 -1.9775  2.4491 -0.6522
  167MOL0     H22025   6.996   0.467   9.586  1.7483  1.1136 -0.4781
  167MOL0     H22026   6.159   0.878   8.825  0.2143 -0.9855  1.4506
  167MOL0     H22027   5.932   0.895   8.757  0.2357  1.6973  0.5330
  167MOL0     H22028   5.486   0.866   9.020  0.5814 -0.3694 -0.5571
  167MOL0     H22029   5.248   0.918   9.028  0.4893 -0.7470 -0.5605
  167MOL0     H22030   5.744   1.835   9.099  0.9774  0.1652 -1.2397
  167MOL0     H22031   5.966   1.846   9.013 -0.4424 -1.3964 -1.6705
  167MOL0     H22032   6.505   1.600   9.341  1.2148 -1.1745 -0.2118
  167MOL0     H22033   6.715   1.589   9.273 -1.2460  1.0693  1.1081
  167MOL0     H22034   6.885   1.519   9.162  1.7033 -0.9999 -1.2195
  167MOL0     H22035   6.950   1.679   9.176 -2.0232 -1.2684  0.7795
  167MOL0     H22036   7.017   1.473   8.952  1.5183 -1.9412  2.4867
  167MOL0     H22037   7.052   1.641   8.926  3.8294 -1.0259 -1.3806
  167MOL0     H22038   7.151   1.433   9.139  3.5790 -0.3781  1.0508
  167MOL0     H22039   7.189   1.602   9.164 -0.2485 -1.7029  2.6201
  167MOL0     H22040   7.311   1.602   8.934 -2.2534  0.8192  1.9027
  167MOL0     H22041   7.385   1.478   9.047  0.5786  2.3186  1.4711
  167MOL0     H22042   7.231   1.233   8.748  2.4685 -1.4700 -0.6883
  167MOL0     H22043   6.617   1.733   8.886  1.0703 -1.2348  0.3422
  167MOL0     H22044   6.394   1.790   8.961  0.9030  0.3624 -1.1597
  168MOL0     O22045   1.072   0.802   0.545 -0.1850  0.0075 -0.2563
  168MOL0     C22046   1.040   0.779   0.431  0.9491 -0.1623 -0.4162
  168MOL0     O22047   1.121   0.732   0.328  0.3033 -0.1632  0.7869
  168MOL0     C22048   1.253   0.706   0.346 -0.9454 -0.5183  0.6232
  168MOL0     C22049   1.297   0.634   0.456 -0.9515 -1.5735  0.0727
  168MOL0     C22050   1.435   0.611   0.475 -0.1297  0.2646 -0.5869
  168MOL0     C22051   1.525   0.666   0.381  0.0206 -0.0689  0.0817
  168MOL0     O22052   1.655   0.634   0.390 -0.9393 -0.0002  0.2025
  168MOL0     C22053   1.750   0.636   0.280 -0.6498 -0.2813 -0.0006
  168MOL0     C22054   1.874   0.550   0.330  0.3748 -0.0137 -0.5073
  168MOL0     C22055   1.981   0.536   0.225 -0.2167  0.3191 -0.1552
  168MOL0     C22056   2.036   0.673   0.182  0.3938 -0.0444 -1.0246
  168MOL0     C22057   2.121   0.663   0.061  0.1995  0.2800  0.0580
  168MOL0     C22058   2.251   0.582   0.076 -0.6456  0.5909  0.8028
  168MOL0     C22059   2.361   0.607  -0.034 -0.5324  0.1730  0.0666
  168MOL0     C22060   2.492   0.527  -0.004 -0.2887 -0.2774 -0.2358
  168MOL0     N22061   2.472   0.384  -0.015  0.2124 -0.2232 -0.1148
  168MOL0     C22062   2.438   0.323  -0.132  0.0022 -0.1913  0.5400
  168MOL0     C22063   2.430   0.194  -0.093  1.0468 -0.1561  0.1877
  168MOL0     C22064   2.389   0.089  -0.195  0.1242  0.2479  0.2090
  168MOL0     C22065   2.241   0.040  -0.168 -0.3719 -0.4154 -0.1242
  168MOL0     C22066   2.175  -0.026  -0.293 -0.4413 -0.1246 -0.2351
  168MOL0     C22067   2.027  -0.038  -0.258 -0.2448  0.0315 -0.0862
  168MOL0     O22068   1.959  -0.101  -0.369 -0.6191 -0.2879 -0.7478
  168MOL0     C22069   1.825  -0.087  -0.389  0.0473  0.3373 -1.1999
  168MOL0     C22070   1.744  -0.027  -0.297 -0.4404  0.1539 -0.5925
  168MOL0     C22071   1.607  -0.032  -0.308  1.4273  0.0764 -0.3329
  168MOL0     C22072   1.541  -0.102  -0.410 -0.1334 -0.3186  0.0363
  168MOL0     C22073   1.391  -0.091  -0.423  0.1954  0.0903 -0.0378
  168MOL0     O22074   1.327  -0.036  -0.314 -0.4854 -0.6521  0.2897
  168MOL0     C22075   1.192  -0.006  -0.306 -0.3787  0.4988 -0.6085
  168MOL0     C22076   1.090  -0.037  -0.405  0.3587 -0.4534 -0.7939
  168MOL0     C22077   0.954  -0.012  -0.383 -0.4458 -0.2420  0.2582
  168MOL0     C22078   0.922   0.053  -0.265  0.6198  0.3193 -0.3575
  168MOL0     O22079   0.789   0.087  -0.250  0.4874 -0.8665 -0.5211
  168MOL0     C22080   0.739   0.047  -0.121  0.1571  0.5483  0.3746
  168MOL0     C22081   0.587   0.056  -0.108 -0.2935  0.0638 -0.2924
  168MOL0     C22082   0.518  -0.049  -0.186 -0.1020  0.4384  0.0850
  168MOL0     C22083   0.544  -0.199  -0.147 -0.2876 -0.1208  0.1749
  168MOL0     C22084   0.433  -0.292  -0.200 -0.2984  0.1644  0.0064
  168MOL0     C22085   0.302  -0.288  -0.125 -0.6485  0.0119  0.2095
  168MOL0     C22086   0.183  -0.331  -0.203 -0.0408 -0.2310  1.0693
  168MOL0     C22087   0.050  -0.287  -0.146 -0.5933 -0.1862  0.5640
  168MOL0    Cl22088  -0.084  -0.372  -0.221  0.2840 -0.2312  0.4035
  168MOL0     C22089   1.022   0.090  -0.170  0.1100  0.5688  0.1637
  168MOL0     C22090   1.154   0.058  -0.189  0.2701  0.4436 -1.0183
  168MOL0     O22091   1.337  -0.126  -0.528  0.1783  0.2486  0.9159
  168MOL0     C22092   1.622  -0.164  -0.507  0.0918 -0.2354 -0.2782
  168MOL0     C22093   1.764  -0.155  -0.492 -0.4392 -0.0886  1.2492
  168MOL0     N22094   2.463   0.175   0.034 -0.1189  0.4743  0.4196
  168MOL0     N22095   2.501   0.286   0.079 -0.7378  0.5465  0.0473
  168MOL0     C22096   1.479   0.728   0.264  0.3258 -0.0173 -0.0072
  168MOL0     C22097   1.344   0.752   0.245  0.6723  1.0515 -0.5665
  168MOL0     C22098   0.896   0.809   0.393  0.1751 -0.6295  0.2042
  168MOL0     C22099   0.870   0.876   0.275  0.4247  0.0256  1.1921
  168MOL0     C22100   0.741   0.928   0.255  0.1914 -0.5804 -0.7215
  168MOL0     C22101   0.634   0.895   0.341  0.3768  0.1880  0.5162
  168MOL0     O22102   0.515   0.943   0.289 -0.3835 -0.4149  0.4114
  168MOL0     C22103   0.400   0.926   0.361  0.4939  0.1217 -0.6342
  168MOL0     C22104   0.284   0.989   0.287 -0.7284 -0.3185 -0.2189
  168MOL0     C22105   0.155   1.005   0.366  0.0101  0.2260 -0.0687
  168MOL0     C22106   0.051   1.085   0.289  0.0837  0.4077 -0.8218
  168MOL0     C22107  -0.084   1.096   0.343  0.4189  1.0121  0.3129
  168MOL0     C22108  -0.184   1.099   0.408  0.0416 -0.0422 -0.1014
  168MOL0     C22109   0.660   0.825   0.460 -0.0827  0.4818  0.6027
  168MOL0     C22110   0.792   0.782   0.484  0.3948 -1.0606 -0.3137
  168MOL0     H22111   1.235   0.594   0.536 -0.2625  1.3980  2.3026
  168MOL0     H22112   1.467   0.549   0.557 -0.5492 -2.1930 -2.1766
  168MOL0     H22113   1.778   0.741   0.264 -4.0676  0.6112 -0.9087
  168MOL0     H22114   1.708   0.599   0.186 -1.9667 -1.5167  1.0307
  168MOL0     H22115   1.839   0.450   0.354  1.1709 -0.4802 -1.2164
  168MOL0     H22116   1.908   0.597   0.423 -1.8695 -2.6081  1.7998
  168MOL0     H22117   1.943   0.492   0.132 -0.5169  0.9459 -0.3400
  168MOL0     H22118   2.065   0.473   0.253 -1.8806 -1.0788  2.0287
  168MOL0     H22119   1.950   0.736   0.157  0.5163  0.6260  0.2115
  168MOL0     H22120   2.095   0.711   0.266 -1.8234  0.3055  0.4583
  168MOL0     H22121   2.149   0.767   0.046 -4.1200  1.6630  0.2388
  168MOL0     H22122   2.057   0.619  -0.016  0.1042 -0.1406  0.3683
  168MOL0     H22123   2.219   0.478   0.078 -0.2807  0.4700  2.5994
  168MOL0     H22124   2.295   0.593   0.176  1.4984  0.3253 -0.0549
  168MOL0     H22125   2.328   0.594  -0.138  0.9450  0.1580 -0.4194
  168MOL0     H22126   2.383   0.713  -0.023 -0.1578  0.8036 -4.7965
  168MOL0     H22127   2.526   0.554   0.097 -0.1475  1.9727 -0.8427
  168MOL0     H22128   2.575   0.548  -0.071  1.7146 -2.0586  1.5189
  168MOL0     H22129   2.427   0.358  -0.234 -0.4121 -0.8815  0.3425
  168MOL0     H22130   2.461   0.006  -0.195 -2.1817 -1.9097 -1.8858
  168MOL0     H22131   2.408   0.141  -0.290  0.7938 -0.1728  0.1021
  168MOL0     H22132   2.182   0.130  -0.148  0.8132 -0.2061  2.8256
  168MOL0     H22133   2.232  -0.022  -0.079 -1.3776 -1.5318 -0.9684
  168MOL0     H22134   2.185   0.040  -0.380 -0.5993  1.7974  1.1278
  168MOL0     H22135   2.221  -0.120  -0.326 -1.6558 -0.4519 -1.0412
  168MOL0     H22136   1.995   0.064  -0.238  0.7605  0.3040  0.1955
  168MOL0     H22137   2.022  -0.090  -0.162  1.6669 -1.7656 -0.8644
  168MOL0     H22138   1.788   0.035  -0.219 -0.7109 -1.0674  0.5718
  168MOL0     H22139   1.552   0.022  -0.232  2.0827 -0.6946  0.7281
  168MOL0     H22140   1.117  -0.082  -0.500  1.9339  0.9589 -1.0597
  168MOL0     H22141   0.881  -0.026  -0.463 -1.0353  3.2283  0.0264
  168MOL0     H22142   0.791   0.110  -0.048  1.1434 -2.2880  2.2824
  168MOL0     H22143   0.768  -0.052  -0.085  0.8979  0.0207 -1.5167
  168MOL0     H22144   0.548   0.150  -0.149 -2.2095 -0.3738  0.4362
  168MOL0     H22145   0.561   0.047  -0.002  0.0501 -1.6580 -0.3275
  168MOL0     H22146   0.538  -0.052  -0.293 -2.2966 -2.4132 -0.3445
  168MOL0     H22147   0.413  -0.026  -0.168 -0.7126 -0.7569 -1.6995
  168MOL0     H22148   0.641  -0.223  -0.191 -0.5706  0.8386 -1.0241
  168MOL0     H22149   0.543  -0.200  -0.038  2.3300  1.7797  0.2979
  168MOL0     H22150   0.472  -0.395  -0.200  0.9014  0.5949  1.2961
  168MOL0     H22151   0.415  -0.260  -0.303  1.2178 -0.2077 -0.3972
  168MOL0     H22152   0.280  -0.188  -0.087 -1.1804 -0.0932  0.1937
  168MOL0     H22153   0.310  -0.357  -0.040 -2.2740  2.5529  2.5827
  168MOL0     H22154   0.197  -0.292  -0.304 -0.9500 -2.1821  0.1376
  168MOL0     H22155   0.186  -0.439  -0.224 -0.1728  0.0607 -0.5672
  168MOL0     H22156   0.044  -0.180  -0.167  0.0412 -0.1975  0.3262
  168MOL0     H22157   0.048  -0.296  -0.037 -1.4897  0.6800  0.6394
  168MOL0     H22158   0.983   0.142  -0.084 -1.0084  1.0800 -0.6315
  168MOL0     H22159   1.223   0.083  -0.108 -0.9031 -2.8258  1.1673
  168MOL0     H22160   1.584  -0.217  -0.594  2.4361  0.2385 -1.6912
  168MOL0     H22161   1.819  -0.201  -0.574 -4.2761 -2.2678 -0.3406
  168MOL0     H22162   1.537   0.772   0.183 -2.0281  4.3786  0.3684
  168MOL0     H22163   1.307   0.801   0.155 -2.4886 -1.4147 -0.8215
  168MOL0     H22164   0.950   0.898   0.206  0.7366 -0.5751  1.3495
  168MOL0     H22165   0.714   0.978   0.163 -0.0792  0.4483 -0.1048
  168MOL0     H22166   0.406   0.965   0.463 -0.3118  1.4167 -1.0568
  168MOL0     H22167   0.378   0.820   0.373  0.5965  0.3262  1.8373
  168MOL0     H22168   0.319   1.091   0.267 -1.6274  0.2129  0.8428
  168MOL0     H22169   0.262   0.934   0.195 -1.3152  0.4628 -0.5623
  168MOL0     H22170   0.172   1.057   0.460  1.3194  2.0039 -1.2275
  168MOL0     H22171   0.121   0.902   0.382 -0.8320 -0.0284 -3.0053
  168MOL0     H22172   0.093   1.183   0.265  0.2021  0.1954 -1.5075
  168MOL0     H22173   0.025   1.038   0.194  0.5143 -0.0916 -0.6927
  168MOL0     H22174  -0.273   1.106   0.467 -0.3282 -1.1452 -0.4854
  168MOL0     H22175   0.580   0.806   0.530  2.1170 -2.7410  2.4684
  168MOL0     H22176   0.801   0.735   0.581 -2.1285  1.7514  1.4858
  169MOL0     O22177   4.669   6.333  10.446 -0.8101  0.0114 -0.4553
  169MOL0     C22178   4.652   6.448  10.478  0.2015 -1.1192  0.0579
  169MOL0     O22179   4.553   6.535  10.438 -0.6534  0.2728  0.4442
  169MOL0     C22180   4.468   6.514  10.335  0.5592 -0.3963 -0.1380
  169MOL0     C22181   4.331   6.552  10.351  0.8945  0.4324 -0.3756
  169MOL0     C22182   4.243   6.555  10.241  0.0146 -0.1299 -0.1350
  169MOL0     C22183   4.284   6.524  10.118 -0.5023  0.6304  0.6264
  169MOL0     O22184   4.199   6.533  10.008 -0.4339 -0.0139 -0.8549
  169MOL0     C22185   4.150   6.664   9.971  0.6266  0.7365  0.1620
  169MOL0     C22186   4.045   6.651   9.864  0.1466  0.3730 -0.4270
  169MOL0     C22187   3.909   6.612   9.920 -0.7742 -0.5023  0.2739
  169MOL0     C22188   3.837   6.737   9.989  0.2072  0.2489 -1.2674
  169MOL0     C22189   3.683   6.725  10.036  0.2548  0.1687 -0.3644
  169MOL0     C22190   3.589   6.712   9.919  0.1082 -0.5142  0.2452
  169MOL0     C22191   3.439   6.711   9.975  0.7695 -0.4022  0.9900
  169MOL0     C22192   3.382   6.844  10.008 -0.8180  0.7485  0.3377
  169MOL0     N22193   3.248   6.824  10.055 -0.1314  0.4099 -0.4311
  169MOL0     C22194   3.136   6.846   9.979  0.8849 -0.2776 -0.6539
  169MOL0     C22195   3.037   6.831  10.067 -0.3459  0.3369 -0.4878
  169MOL0     C22196   2.894   6.862  10.026 -0.0980  0.1852 -0.0180
  169MOL0     C22197   2.812   6.732   9.985 -0.1997 -0.1722  0.2958
  169MOL0     C22198   2.742   6.648  10.099  0.4462  0.2723  0.2685
  169MOL0     C22199   2.826   6.564  10.193 -0.3872 -0.4132  0.1534
  169MOL0     O22200   2.880   6.447  10.121  0.3776 -0.4827  0.1116
  169MOL0     C22201   2.982   6.380  10.183  1.1484 -0.0737  0.2994
  169MOL0     C22202   3.050   6.278  10.107  0.6854 -0.3696  0.0311
  169MOL0     C22203   3.143   6.201  10.161 -0.4540  0.4033  0.0657
  169MOL0     C22204   3.197   6.239  10.293  0.7057  0.3100 -0.3834
  169MOL0     C22205   3.301   6.159  10.357 -0.3550  0.9200  0.4166
  169MOL0     O22206   3.341   6.184  10.483 -0.0397 -0.2532  0.1283
  169MOL0     C22207   3.434   6.115  10.546 -0.5061  0.3560  0.6082
  169MOL0     C22208   3.411   6.079  10.687  0.2225  0.1666  0.4990
  169MOL0     C22209   3.516   6.019  10.756  0.3565  0.3433 -0.2740
  169MOL0     C22210   3.633   5.993  10.699  0.3189  0.7544 -0.0822
  169MOL0     O22211   3.737   5.927  10.763  0.2033 -0.3098 -0.3259
  169MOL0     C22212   3.726   5.788  10.789 -0.8250 -0.2289 -0.1243
  169MOL0     C22213   3.864   5.724  10.772 -0.3335 -0.2266  0.0685
  169MOL0     C22214   3.972   5.772  10.868 -0.3804 -0.4708 -0.6721
  169MOL0     C22215   4.106   5.701  10.851 -0.4253 -1.0051 -0.1860
  169MOL0     C22216   4.187   5.722  10.980  0.4687 -0.4470 -0.0675
  169MOL0     C22217   4.278   5.601  10.991 -1.0778 -0.5692 -0.7268
  169MOL0     C22218   4.381   5.616  11.100  0.3436 -0.1734 -0.5727
  169MOL0     C22219   4.489   5.523  11.094 -0.0874  0.0563  0.9842
  169MOL0    Cl22220   4.443   5.350  11.139  0.4134 -0.0068  0.3685
  169MOL0     C22221   3.657   6.033  10.569 -0.0304 -0.7333 -0.1587
  169MOL0     C22222   3.560   6.085  10.492  0.3655 -0.0600 -0.2606
  169MOL0     O22223   3.348   6.073  10.273  0.2186  0.3041  0.3190
  169MOL0     C22224   3.134   6.322  10.375  0.6721 -0.6032  0.4182
  169MOL0     C22225   3.027   6.405  10.317  0.6333  0.5589  0.2893
  169MOL0     N22226   3.087   6.792  10.190  0.0489  0.1370 -0.4540
  169MOL0     N22227   3.215   6.797  10.183  1.0133  0.5059 -0.1728
  169MOL0     C22228   4.417   6.480  10.093  0.3316 -0.8501  0.1343
  169MOL0     C22229   4.504   6.477  10.201  0.1239 -0.0074  0.2552
  169MOL0     C22230   4.757   6.505  10.577  0.0302  0.4555 -0.6227
  169MOL0     C22231   4.782   6.650  10.584 -0.5520  1.4400  0.1538
  169MOL0     C22232   4.882   6.702  10.660  1.0890 -0.1098  0.1019
  169MOL0     C22233   4.959   6.619  10.738  0.1463 -0.8450  0.1669
  169MOL0     O22234   5.065   6.659  10.804 -0.5083  0.2354 -0.4674
  169MOL0     C22235   5.145   6.765  10.749 -0.1955 -0.2991  0.5808
  169MOL0     C22236   5.276   6.712  10.698 -1.0903 -0.2783  0.4117
  169MOL0     C22237   5.360   6.634  10.801  0.1724  0.5907  0.6400
  169MOL0     C22238   5.502   6.609  10.752 -0.7491 -0.0167  0.0733
  169MOL0     C22239   5.584   6.551  10.862 -0.8163  0.3688  0.1680
  169MOL0     C22240   5.668   6.516  10.936 -0.0447  0.6022  0.0776
  169MOL0     C22241   4.943   6.480  10.736  0.9125 -0.5146 -0.0965
  169MOL0     C22242   4.840   6.422  10.652  0.3396 -0.0494  0.7232
  169MOL0     H22243   4.298   6.583  10.450  0.3279 -0.9288 -0.1145
  169MOL0     H22244   4.138   6.583  10.252 -0.6642 -0.8259 -3.5947
  169MOL0     H22245   4.237   6.715   9.930 -0.3853  2.3082 -0.1275
  169MOL0     H22246   4.118   6.713  10.064  2.7686 -0.6800  1.7563
  169MOL0     H22247   4.078   6.565   9.806  2.8838  1.4407 -0.5840
  169MOL0     H22248   4.038   6.733   9.792  1.4691  0.6708 -0.2380
  169MOL0     H22249   3.912   6.524   9.985 -0.0006 -2.4080 -2.1857
  169MOL0     H22250   3.837   6.581   9.843  0.8158 -0.8739 -1.1334
  169MOL0     H22251   3.879   6.759  10.088  1.4303  0.0862 -1.7348
  169MOL0     H22252   3.853   6.825   9.925  0.7343  0.1158 -1.3213
  169MOL0     H22253   3.661   6.809  10.102  0.4838 -0.8449  1.0578
  169MOL0     H22254   3.665   6.642  10.104  0.6400  1.4526  1.3720
  169MOL0     H22255   3.612   6.616   9.871 -0.8922 -0.8143  0.3290
  169MOL0     H22256   3.599   6.791   9.845  1.7310 -2.4919 -1.8030
  169MOL0     H22257   3.378   6.680   9.889  1.2429  0.0776  0.4760
  169MOL0     H22258   3.424   6.634  10.051  0.4467  0.0424  1.3794
  169MOL0     H22259   3.384   6.920   9.929  0.9376  0.4474  0.0484
  169MOL0     H22260   3.441   6.877  10.094  1.1228  4.1601 -2.0366
  169MOL0     H22261   3.126   6.874   9.875 -1.2900  1.3280 -0.0764
  169MOL0     H22262   2.905   6.935   9.944  3.0794 -2.9078 -2.7012
  169MOL0     H22263   2.846   6.920  10.105  1.1416 -0.0189  0.9017
  169MOL0     H22264   2.886   6.672   9.931  2.1622  3.7340 -1.2378
  169MOL0     H22265   2.742   6.764   9.908 -0.7608 -0.7133  0.5722
  169MOL0     H22266   2.699   6.723  10.165  0.3899 -0.7013  1.3559
  169MOL0     H22267   2.663   6.581  10.063 -0.4583  1.4210  0.0518
  169MOL0     H22268   2.774   6.537  10.285  0.4149 -0.9041  0.4791
  169MOL0     H22269   2.912   6.623  10.228 -0.7347  0.6056 -0.6575
  169MOL0     H22270   3.018   6.256  10.006 -0.8861 -4.9324  1.2656
  169MOL0     H22271   3.189   6.124  10.100 -1.8290 -0.9626  0.6833
  169MOL0     H22272   3.317   6.112  10.730  0.6365  0.3596  1.2657
  169MOL0     H22273   3.488   5.987  10.856 -0.7910 -2.3201 -1.3674
  169MOL0     H22274   3.655   5.735  10.726  0.2816 -1.4322 -0.4054
  169MOL0     H22275   3.685   5.770  10.889  0.3832 -1.4075  0.1865
  169MOL0     H22276   3.901   5.743  10.671  1.5061 -0.1862  0.7125
  169MOL0     H22277   3.856   5.615  10.776 -0.7315 -0.2930 -1.7137
  169MOL0     H22278   3.938   5.750  10.970 -0.1026 -3.1779 -1.0811
  169MOL0     H22279   3.977   5.881  10.870  0.1013 -0.4875  1.4062
  169MOL0     H22280   4.095   5.593  10.837 -1.0137 -0.9340 -0.3093
  169MOL0     H22281   4.161   5.748  10.769 -1.1766  0.6282  0.1947
  169MOL0     H22282   4.123   5.714  11.069  0.4576  2.9806  0.3793
  169MOL0     H22283   4.238   5.818  10.971 -1.0377  0.3503 -0.6190
  169MOL0     H22284   4.338   5.591  10.900  2.4932 -0.5326  1.4332
  169MOL0     H22285   4.221   5.509  11.003 -1.3901 -0.0203  3.1085
  169MOL0     H22286   4.415   5.720  11.101 -1.7136  0.7140 -4.6047
  169MOL0     H22287   4.329   5.595  11.194  1.1500 -2.4019 -0.5740
  169MOL0     H22288   4.564   5.559  11.165 -0.1419  0.5592  0.7938
  169MOL0     H22289   4.528   5.523  10.992 -2.5679  0.7769 -0.0431
  169MOL0     H22290   3.758   6.016  10.533  0.4185  0.8479  0.2756
  169MOL0     H22291   3.582   6.126  10.394  0.4504  0.9551  0.1729
  169MOL0     H22292   3.166   6.354  10.473 -0.0453 -2.0682  1.1566
  169MOL0     H22293   2.970   6.471  10.382  1.1764 -0.4143  1.8244
  169MOL0     H22294   4.442   6.454   9.991  2.5647  1.9851 -0.1560
  169MOL0     H22295   4.605   6.448  10.173 -0.5219 -0.1812 -2.1084
  169MOL0     H22296   4.718   6.723  10.536 -1.4744  1.4221  1.3101
  169MOL0     H22297   4.898   6.809  10.655  0.3131 -0.0302 -1.2361
  169MOL0     H22298   5.150   6.831  10.836 -0.8910  0.8367 -0.2124
  169MOL0     H22299   5.102   6.824  10.668  3.6250  2.5064  0.3331
  169MOL0     H22300   5.266   6.642  10.615  1.8856 -1.2556  0.7408
  169MOL0     H22301   5.332   6.799  10.663  0.9960 -0.8701  2.0301
  169MOL0     H22302   5.333   6.529  10.814  1.1913  0.3931  1.2156
  169MOL0     H22303   5.356   6.686  10.897 -1.4513  0.0086  0.9261
  169MOL0     H22304   5.505   6.540  10.668 -1.8662  0.9294 -0.7795
  169MOL0     H22305   5.549   6.705  10.733 -0.1009 -0.3057  0.2109
  169MOL0     H22306   5.762   6.503  10.985  1.1870  0.0858 -2.2783
  169MOL0     H22307   5.005   6.416  10.798 -0.7318 -1.0859  1.0354
  169MOL0     H22308   4.822   6.316  10.639 -2.8343  0.6330 -1.5594
  170MOL0     O22309   1.894   0.346   6.905  0.3872  0.7566  0.2364
  170MOL0     C22310   1.955   0.239   6.908 -0.6723 -0.3749  0.0361
  170MOL0     O22311   1.922   0.120   6.854 -0.3760  0.0408  0.1054
  170MOL0     C22312   1.802   0.095   6.805 -0.8325  0.7536  1.2507
  170MOL0     C22313   1.765  -0.042   6.806 -0.8143  0.0399  0.0625
  170MOL0     C22314   1.647  -0.078   6.752  0.6926  0.3434  0.4105
  170MOL0     C22315   1.548   0.016   6.708 -0.2464  0.3308 -0.9783
  170MOL0     O22316   1.429  -0.016   6.660  0.1873  0.3512  0.2860
  170MOL0     C22317   1.407  -0.150   6.614 -0.4700  0.4167 -0.1637
  170MOL0     C22318   1.263  -0.171   6.573 -0.1227 -0.9300  0.0800
  170MOL0     C22319   1.231  -0.308   6.511  0.3118 -0.2343 -0.1944
  170MOL0     C22320   1.078  -0.323   6.512 -0.0109 -0.4588 -0.5172
  170MOL0     C22321   1.011  -0.303   6.376 -0.1658  0.0234  0.2963
  170MOL0     C22322   1.020  -0.161   6.321  0.0117  0.5737 -0.1388
  170MOL0     C22323   0.973  -0.135   6.173  0.9884 -0.6888  0.6784
  170MOL0     C22324   0.946   0.012   6.143 -1.1159 -0.0886 -0.2545
  170MOL0     N22325   1.069   0.093   6.185  0.1819  0.6857  0.7801
  170MOL0     C22326   1.088   0.162   6.301 -0.6245  0.6644 -0.1803
  170MOL0     C22327   1.220   0.200   6.298  0.1438 -0.2408  0.4219
  170MOL0     C22328   1.295   0.266   6.416  0.2207 -0.8926 -0.1147
  170MOL0     C22329   1.330   0.413   6.392  0.4698  0.5484  0.2085
  170MOL0     C22330   1.443   0.425   6.282  0.4424  0.4033  0.5790
  170MOL0     C22331   1.577   0.378   6.329 -0.2038 -1.2725  0.4467
  170MOL0     O22332   1.620   0.451   6.443 -0.0258  0.6055 -0.1646
  170MOL0     C22333   1.748   0.434   6.485 -0.6654 -0.5969  0.7512
  170MOL0     C22334   1.796   0.535   6.571  0.5045  0.8214  0.2000
  170MOL0     C22335   1.932   0.538   6.607 -0.3326 -0.5698  0.6571
  170MOL0     C22336   2.024   0.434   6.577  0.9085 -1.1051  0.3976
  170MOL0     C22337   2.160   0.448   6.611  0.0005  0.0994 -0.6331
  170MOL0     O22338   2.202   0.569   6.656  0.0478  0.1122  0.2935
  170MOL0     C22339   2.331   0.595   6.687 -0.3838 -0.1656  0.2095
  170MOL0     C22340   2.416   0.497   6.763 -0.1440  0.2908  0.4734
  170MOL0     C22341   2.544   0.524   6.800 -0.5209 -0.4040  0.2720
  170MOL0     C22342   2.600   0.653   6.765  0.0980  0.3657  0.1265
  170MOL0     O22343   2.728   0.661   6.797  0.1589  0.3157  0.2342
  170MOL0     C22344   2.764   0.765   6.885  0.4504 -0.0226 -0.2462
  170MOL0     C22345   2.913   0.750   6.913 -0.6030 -0.2716  0.1423
  170MOL0     C22346   2.954   0.833   7.027 -0.6040  0.0991  0.1148
  170MOL0     C22347   3.097   0.809   7.067  0.0175  0.4175 -1.6111
  170MOL0     C22348   3.146   0.880   7.194 -0.0975 -0.2125  0.3360
  170MOL0     C22349   3.296   0.861   7.189  0.3505  0.7350  0.8356
  170MOL0     C22350   3.357   0.941   7.302 -0.1995  0.3635  0.3061
  170MOL0     C22351   3.510   0.920   7.325 -0.0474 -0.2657 -0.2117
  170MOL0    Cl22352   3.533   0.752   7.387 -0.0601 -0.3207  0.3560
  170MOL0     C22353   2.525   0.746   6.688 -0.3139 -0.1282 -0.1446
  170MOL0     C22354   2.391   0.718   6.654  0.4465 -0.9065  0.2438
  170MOL0     O22355   2.228   0.347   6.602  0.0293  0.2637  0.6003
  170MOL0     C22356   1.975   0.337   6.490 -0.7450  0.3026 -0.2086
  170MOL0     C22357   1.838   0.338   6.439 -0.2933 -1.1488  0.4216
  170MOL0     N22358   1.272   0.161   6.178 -0.1864  0.0011 -0.3040
  170MOL0     N22359   1.182   0.087   6.115  0.4298 -0.7822  0.5497
  170MOL0     C22360   1.589   0.144   6.701 -0.5493 -0.2827 -0.1448
  170MOL0     C22361   1.717   0.191   6.743  0.5802  1.0238 -0.9188
  170MOL0     C22362   2.097   0.244   6.971 -0.0672  0.0004 -0.0375
  170MOL0     C22363   2.190   0.145   6.959 -0.2428 -0.3635  0.2842
  170MOL0     C22364   2.313   0.153   7.014  0.3423 -0.1315 -0.1232
  170MOL0     C22365   2.349   0.266   7.082  1.2305 -0.1417  0.4244
  170MOL0     O22366   2.478   0.262   7.124  0.3304 -0.2957  1.0105
  170MOL0     C22367   2.530   0.351   7.220  0.6146 -0.6626  0.5178
  170MOL0     C22368   2.674   0.317   7.236 -0.2312  0.0293  0.0640
  170MOL0     C22369   2.695   0.202   7.334 -0.1177 -0.0031  0.1324
  170MOL0     C22370   2.838   0.144   7.320 -0.3030 -1.1807  0.2116
  170MOL0     C22371   2.944   0.247   7.342  0.5169  0.5359 -0.1035
  170MOL0     C22372   3.033   0.324   7.352  0.0737  0.4571 -0.0351
  170MOL0     C22373   2.263   0.374   7.096 -0.3832 -0.0648  0.5444
  170MOL0     C22374   2.137   0.360   7.048  0.0368  0.2950  0.1538
  170MOL0     H22375   1.834  -0.117   6.843  0.7146  2.5565  2.6773
  170MOL0     H22376   1.605  -0.178   6.756 -2.2746  1.4272 -0.6724
  170MOL0     H22377   1.418  -0.226   6.693 -0.7482 -0.4421 -0.9298
  170MOL0     H22378   1.468  -0.191   6.533  0.6219  1.2902  0.1976
  170MOL0     H22379   1.235  -0.096   6.499 -0.1841 -0.0322  1.0019
  170MOL0     H22380   1.204  -0.163   6.665 -0.5043  0.8644 -0.2949
  170MOL0     H22381   1.266  -0.396   6.566  0.4950  1.4012  2.4985
  170MOL0     H22382   1.268  -0.304   6.408 -1.4062 -2.0127 -0.9391
  170MOL0     H22383   1.048  -0.425   6.540 -0.6891 -0.2896 -0.6246
  170MOL0     H22384   1.041  -0.246   6.580  2.6723  1.6656 -1.2970
  170MOL0     H22385   0.906  -0.332   6.390  0.1848 -1.6923 -0.3750
  170MOL0     H22386   1.050  -0.374   6.302  2.9617  0.1740  1.6694
  170MOL0     H22387   1.127  -0.141   6.326  0.1827 -0.1529 -0.6152
  170MOL0     H22388   0.962  -0.094   6.385 -0.6132  0.2875 -0.3869
  170MOL0     H22389   1.048  -0.178   6.106 -1.5794 -1.4119 -1.9168
  170MOL0     H22390   0.875  -0.179   6.153 -0.0457  1.3487  1.0388
  170MOL0     H22391   0.856   0.044   6.195 -0.9541  1.2029 -0.7359
  170MOL0     H22392   0.928   0.035   6.037 -0.8757 -0.2901 -0.3412
  170MOL0     H22393   1.013   0.182   6.377 -0.7545  1.3344 -0.4755
  170MOL0     H22394   1.385   0.212   6.449  0.7763 -1.3937 -2.3081
  170MOL0     H22395   1.239   0.263   6.511  1.4272  0.5405  0.6906
  170MOL0     H22396   1.358   0.459   6.487  1.2484  2.0175 -0.6939
  170MOL0     H22397   1.242   0.462   6.350  0.9313 -0.4948 -2.1522
  170MOL0     H22398   1.410   0.376   6.190  0.7558  1.7134 -0.2560
  170MOL0     H22399   1.451   0.530   6.252  1.8694  0.1415 -0.0257
  170MOL0     H22400   1.653   0.392   6.251 -0.3161  2.0776  0.7895
  170MOL0     H22401   1.565   0.275   6.361  1.5458 -1.9259 -0.8639
  170MOL0     H22402   1.729   0.613   6.604  0.1249  1.0982 -1.2015
  170MOL0     H22403   1.981   0.619   6.660 -1.7322  1.6197 -1.2023
  170MOL0     H22404   2.376   0.398   6.786  1.2703 -0.5663 -0.6072
  170MOL0     H22405   2.593   0.457   6.870  0.3004  2.8618  3.0483
  170MOL0     H22406   2.710   0.750   6.979  1.6899  1.7483  0.8145
  170MOL0     H22407   2.739   0.860   6.837  2.1463 -0.1503 -1.4668
  170MOL0     H22408   2.969   0.792   6.830  0.3397  0.1199  0.9482
  170MOL0     H22409   2.937   0.647   6.941  1.9298  0.1287 -0.2691
  170MOL0     H22410   2.892   0.788   7.105 -0.0434 -0.2907  0.3445
  170MOL0     H22411   2.936   0.940   7.015  1.6053  0.6201  0.9611
  170MOL0     H22412   3.111   0.702   7.084 -2.6913  0.1583 -0.4435
  170MOL0     H22413   3.164   0.841   6.986  2.2071  1.2822  0.4038
  170MOL0     H22414   3.099   0.840   7.284 -0.0473  0.4236  0.6456
  170MOL0     H22415   3.113   0.982   7.175 -1.6361 -1.2088 -3.3000
  170MOL0     H22416   3.346   0.882   7.094 -0.4466 -1.2989 -0.0923
  170MOL0     H22417   3.316   0.754   7.204  0.1226  0.1032 -2.6374
  170MOL0     H22418   3.344   1.048   7.281  3.5462  0.8017 -0.4454
  170MOL0     H22419   3.298   0.916   7.390  0.0771 -0.4486  0.2655
  170MOL0     H22420   3.548   0.992   7.398 -2.9088 -1.2885  2.5503
  170MOL0     H22421   3.565   0.929   7.231  2.1511 -3.5150  0.6035
  170MOL0     H22422   2.581   0.830   6.648 -1.3980  0.0297 -1.4225
  170MOL0     H22423   2.319   0.785   6.608  0.9594  1.3589  2.5071
  170MOL0     H22424   2.028   0.247   6.461  0.9849  1.1207  0.3355
  170MOL0     H22425   1.799   0.273   6.361  1.2737  0.5117 -1.8787
  170MOL0     H22426   1.529   0.223   6.657  2.3470  3.1344  1.5362
  170MOL0     H22427   1.740   0.296   6.733  0.6437  1.9443  5.2151
  170MOL0     H22428   2.168   0.053   6.905 -0.2221 -0.3817  0.3072
  170MOL0     H22429   2.383   0.070   7.017  0.0952 -0.3363  2.5567
  170MOL0     H22430   2.481   0.341   7.317  0.4154 -1.7012  0.3219
  170MOL0     H22431   2.529   0.458   7.196 -0.6045  0.1925  3.8546
  170MOL0     H22432   2.711   0.304   7.134 -2.9836  1.6582 -1.2415
  170MOL0     H22433   2.733   0.394   7.285  0.1019 -1.0294  1.4037
  170MOL0     H22434   2.626   0.120   7.311  0.4207 -0.2648 -0.6036
  170MOL0     H22435   2.692   0.246   7.434  2.4482  0.2764  0.1617
  170MOL0     H22436   2.857   0.061   7.388  0.1122 -1.4269 -0.1930
  170MOL0     H22437   2.843   0.112   7.215  2.0839 -1.0648  0.2370
  170MOL0     H22438   3.119   0.388   7.349  0.5613 -0.1756  0.0433
  170MOL0     H22439   2.285   0.461   7.158  0.4640 -2.0667  3.2458
  170MOL0     H22440   2.059   0.433   7.067 -2.8799 -1.6937 -2.8964
  171MOL0     O22441   7.939   4.439   6.009  0.6170  0.3018 -0.4097
  171MOL0     C22442   7.890   4.543   5.967  0.0126 -0.4950 -0.1971
  171MOL0     O22443   7.749   4.576   5.952  0.5961  0.4924  0.2319
  171MOL0     C22444   7.660   4.470   5.953 -0.5868 -0.5809 -0.1733
  171MOL0     C22445   7.561   4.461   6.049  1.1752 -0.4154  0.0611
  171MOL0     C22446   7.471   4.349   6.046  0.1029  0.2767  0.8914
  171MOL0     C22447   7.496   4.241   5.957 -0.2888  0.7743  0.1467
  171MOL0     O22448   7.437   4.119   5.974  0.1097  0.3419 -0.0903
  171MOL0     C22449   7.339   4.077   5.876 -0.0650  0.0718 -0.4006
  171MOL0     C22450   7.194   4.129   5.900  0.1399  0.2895  0.2837
  171MOL0     C22451   7.095   4.048   5.814 -0.3323 -0.6343 -0.5088
  171MOL0     C22452   6.960   4.101   5.855  0.0637 -0.9473 -0.0612
  171MOL0     C22453   6.838   4.053   5.784  0.4167 -0.0113  0.1189
  171MOL0     C22454   6.714   4.127   5.829  0.1070  0.4843 -0.3974
  171MOL0     C22455   6.596   4.080   5.748  0.1548  0.4588  1.2783
  171MOL0     C22456   6.471   4.168   5.755  0.7902 -0.0390 -0.4660
  171MOL0     N22457   6.393   4.135   5.870 -0.0918  0.5338  0.6111
  171MOL0     C22458   6.375   4.211   5.978  0.6166  0.0978 -0.0796
  171MOL0     C22459   6.283   4.144   6.051  0.0727  0.2373 -0.2772
  171MOL0     C22460   6.231   4.171   6.186 -0.3123  0.7391 -0.4514
  171MOL0     C22461   6.109   4.266   6.191  0.1759  0.3471 -0.0700
  171MOL0     C22462   6.120   4.411   6.146  0.3389  0.2362 -0.4904
  171MOL0     C22463   6.210   4.502   6.234 -0.6893 -0.4022  0.6797
  171MOL0     O22464   6.352   4.469   6.224  0.5341 -0.1563  0.6376
  171MOL0     C22465   6.446   4.540   6.288  0.7808 -0.9240  0.7505
  171MOL0     C22466   6.429   4.593   6.418 -0.9164 -0.7598 -0.8767
  171MOL0     C22467   6.536   4.657   6.476  0.4243 -0.3521 -0.2663
  171MOL0     C22468   6.651   4.680   6.407 -0.2398  0.1161 -0.4206
  171MOL0     C22469   6.766   4.752   6.468 -1.0459 -0.4284 -0.6028
  171MOL0     O22470   6.892   4.742   6.407 -0.1454 -0.3266 -0.2868
  171MOL0     C22471   6.989   4.827   6.425  0.4500 -0.9240  0.0969
  171MOL0     C22472   6.981   4.961   6.473  0.0754  0.1458  0.3307
  171MOL0     C22473   7.084   5.054   6.476  0.4610  1.2706 -0.3650
  171MOL0     C22474   7.211   5.009   6.456 -0.6045  0.2336  0.1414
  171MOL0     O22475   7.324   5.087   6.472 -0.3613  0.4226  0.2858
  171MOL0     C22476   7.315   5.204   6.556 -0.3956  0.1623  0.2469
  171MOL0     C22477   7.455   5.274   6.570 -0.0153 -0.0525  0.9942
  171MOL0     C22478   7.558   5.177   6.629 -0.6338  0.4599 -1.0024
  171MOL0     C22479   7.697   5.247   6.666 -0.1535 -0.0411 -0.4730
  171MOL0     C22480   7.806   5.151   6.729  0.9004  0.4362 -0.1362
  171MOL0     C22481   7.949   5.189   6.702  0.6432 -0.8498  0.9846
  171MOL0     C22482   8.046   5.091   6.778  0.0672  0.3745  0.6373
  171MOL0     C22483   8.188   5.114   6.733 -0.6886 -0.6531  0.0992
  171MOL0    Cl22484   8.297   5.042   6.853 -0.4271 -0.4212 -0.0540
  171MOL0     C22485   7.226   4.869   6.419  0.0393 -0.5039  0.4919
  171MOL0     C22486   7.115   4.785   6.401  0.1196  1.2024  0.1131
  171MOL0     O22487   6.738   4.828   6.564  0.2210  1.0806  0.1138
  171MOL0     C22488   6.670   4.628   6.274 -0.2590 -0.4586 -0.5574
  171MOL0     C22489   6.565   4.558   6.220  0.2820  0.7731 -0.4109
  171MOL0     N22490   6.231   4.034   5.975 -0.3145  0.0498 -0.2943
  171MOL0     N22491   6.304   4.031   5.869  0.0827 -0.7314 -0.2847
  171MOL0     C22492   7.600   4.259   5.864  0.8208  1.0019 -0.7787
  171MOL0     C22493   7.674   4.373   5.862 -0.1131  0.0283 -0.4832
  171MOL0     C22494   7.989   4.648   5.914  0.1215  0.3435 -0.2997
  171MOL0     C22495   7.964   4.786   5.927 -0.3595 -0.0802  0.1704
  171MOL0     C22496   8.053   4.879   5.878 -0.5124  1.1241 -0.1486
  171MOL0     C22497   8.178   4.830   5.816  0.2259 -0.2907  0.3295
  171MOL0     O22498   8.256   4.923   5.750 -0.1305 -0.2528 -0.2663
  171MOL0     C22499   8.368   4.872   5.672  0.5637  0.0382 -0.6939
  171MOL0     C22500   8.452   4.987   5.613  0.5200 -0.4125  0.1091
  171MOL0     C22501   8.512   5.070   5.722 -0.2201  0.1314 -0.3243
  171MOL0     C22502   8.636   5.151   5.676 -0.4818  0.4816  0.3391
  171MOL0     C22503   8.665   5.286   5.742 -0.0949  1.1281 -1.3822
  171MOL0     C22504   8.683   5.386   5.801  0.4078 -0.7432 -0.3865
  171MOL0     C22505   8.204   4.688   5.810 -0.2792  0.1582 -0.9921
  171MOL0     C22506   8.112   4.601   5.857 -0.4123  0.1876 -0.3683
  171MOL0     H22507   7.555   4.539   6.123  3.4287 -1.0873  1.0569
  171MOL0     H22508   7.398   4.341   6.126  1.0976 -0.4691  1.7468
  171MOL0     H22509   7.334   3.969   5.893 -2.2296  0.1780 -0.0838
  171MOL0     H22510   7.373   4.114   5.779  0.6988  1.6503  0.4318
  171MOL0     H22511   7.185   4.237   5.883 -1.2096  0.0050 -1.0706
  171MOL0     H22512   7.178   4.107   6.006  1.1889 -1.8540  0.0369
  171MOL0     H22513   7.099   3.941   5.836 -2.4926 -0.6013  0.3083
  171MOL0     H22514   7.108   4.068   5.707  1.6694  2.7995  0.2386
  171MOL0     H22515   6.954   4.086   5.964  0.8045  0.8739  0.2590
  171MOL0     H22516   6.952   4.209   5.842 -1.6319 -0.5428  3.0986
  171MOL0     H22517   6.824   3.947   5.807  0.7256  0.4673  2.7964
  171MOL0     H22518   6.857   4.065   5.677 -0.6210 -0.8628 -0.1791
  171MOL0     H22519   6.725   4.235   5.823 -1.0473  0.5919 -0.8175
  171MOL0     H22520   6.687   4.097   5.931 -1.6783  1.4853 -0.5301
  171MOL0     H22521   6.606   4.095   5.640 -2.1463 -2.5653  0.5127
  171MOL0     H22522   6.569   3.976   5.765  2.5318 -0.3295  0.4829
  171MOL0     H22523   6.405   4.150   5.669  0.9195  0.2438 -0.6248
  171MOL0     H22524   6.506   4.271   5.759  2.4199 -0.5809 -0.1075
  171MOL0     H22525   6.421   4.301   6.017  1.9130 -0.6578  0.2001
  171MOL0     H22526   6.313   4.215   6.244  0.1786  1.4086 -1.6180
  171MOL0     H22527   6.209   4.068   6.218  3.1479  0.0063 -0.0043
  171MOL0     H22528   6.093   4.266   6.299  1.8878  1.8202  0.2269
  171MOL0     H22529   6.024   4.217   6.143  0.2898 -0.6253  0.6871
  171MOL0     H22530   6.153   4.410   6.042  2.1736  1.6679  0.0201
  171MOL0     H22531   6.022   4.457   6.159 -0.2428 -1.0060 -0.2370
  171MOL0     H22532   6.172   4.479   6.334 -0.2017 -1.6552  0.5907
  171MOL0     H22533   6.196   4.607   6.206 -1.6575 -0.6471  0.1989
  171MOL0     H22534   6.337   4.567   6.468 -0.7942 -3.1071 -1.7286
  171MOL0     H22535   6.522   4.692   6.577 -0.5733 -3.2834  0.7117
  171MOL0     H22536   6.889   5.007   6.508  0.1062  0.9243 -0.5849
  171MOL0     H22537   7.057   5.151   6.517  2.1295  1.3758  0.6171
  171MOL0     H22538   7.276   5.170   6.652 -0.4868  0.7650  0.4245
  171MOL0     H22539   7.247   5.277   6.513 -0.4889  0.2544  0.5509
  171MOL0     H22540   7.437   5.354   6.643  3.0500  2.1442 -0.4399
  171MOL0     H22541   7.484   5.319   6.475 -3.5399  0.0743 -0.1704
  171MOL0     H22542   7.577   5.094   6.560  0.8863 -0.9473  0.9861
  171MOL0     H22543   7.516   5.136   6.722 -0.8140  0.7548 -0.9521
  171MOL0     H22544   7.745   5.288   6.577  1.2180 -2.0214 -0.7257
  171MOL0     H22545   7.689   5.328   6.739  0.3495 -1.4939  1.2691
  171MOL0     H22546   7.796   5.051   6.687  2.1353  0.3534 -0.2857
  171MOL0     H22547   7.791   5.137   6.836  1.9205 -3.1762 -0.3169
  171MOL0     H22548   7.966   5.292   6.736 -0.5457 -0.2490 -0.1629
  171MOL0     H22549   7.964   5.207   6.595  1.2781  0.0270  1.2098
  171MOL0     H22550   8.038   5.115   6.884  1.5693 -1.4922  1.2206
  171MOL0     H22551   8.005   4.990   6.771 -1.8598  1.1777 -0.6718
  171MOL0     H22552   8.216   5.219   6.728 -1.0085 -0.4304  2.1274
  171MOL0     H22553   8.205   5.062   6.638  0.9315  0.4984 -0.2758
  171MOL0     H22554   7.326   4.833   6.400 -0.4622 -0.2733 -3.4889
  171MOL0     H22555   7.139   4.683   6.372 -0.6614  1.2938 -0.8912
  171MOL0     H22556   6.757   4.639   6.210  0.6338 -1.0254  0.5232
  171MOL0     H22557   6.572   4.509   6.123 -0.9940  0.1050 -0.1944
  171MOL0     H22558   7.613   4.173   5.799  2.1296  0.5276  0.0613
  171MOL0     H22559   7.760   4.372   5.797  0.2505  1.4460 -0.0558
  171MOL0     H22560   7.873   4.825   5.972  0.2691  0.0275  1.3914
  171MOL0     H22561   8.035   4.986   5.874  3.8660  2.0293 -2.5973
  171MOL0     H22562   8.335   4.808   5.590  3.2558  1.3351 -2.9786
  171MOL0     H22563   8.436   4.821   5.741  0.3280  0.8981  0.2008
  171MOL0     H22564   8.534   4.943   5.556  1.2994 -3.7123  3.3624
  171MOL0     H22565   8.389   5.046   5.546  1.3539 -0.4838 -0.7550
  171MOL0     H22566   8.542   5.001   5.801 -1.0486 -1.6336 -1.5004
  171MOL0     H22567   8.438   5.143   5.756 -1.3964  0.0294 -2.5225
  171MOL0     H22568   8.729   5.094   5.676  0.9669  2.7313  0.0383
  171MOL0     H22569   8.619   5.187   5.574 -0.4583 -0.5817 -0.0502
  171MOL0     H22570   8.710   5.478   5.849 -1.9550 -2.2009  4.3970
  171MOL0     H22571   8.291   4.643   5.763 -1.1557 -1.5820 -1.0281
  171MOL0     H22572   8.130   4.495   5.849  1.1623  0.5100 -1.8605
  172MOL0     O22573   3.659   2.135   3.160 -0.0229 -0.2135 -0.4210
  172MOL0     C22574   3.772   2.173   3.114  0.2961  0.4313  0.8611
  172MOL0     O22575   3.800   2.301   3.072  0.3917  0.3477 -0.2499
  172MOL0     C22576   3.694   2.388   3.070 -0.6779 -0.0388 -0.1808
  172MOL0     C22577   3.634   2.415   2.948  0.2085  0.5059 -0.0848
  172MOL0     C22578   3.543   2.520   2.954 -0.3973 -0.7913 -1.0514
  172MOL0     C22579   3.495   2.590   3.068  0.0290  0.5410  0.3970
  172MOL0     O22580   3.405   2.692   3.060  0.1422 -0.3202  0.5760
  172MOL0     C22581   3.290   2.648   3.140  0.8244  0.4207  0.5390
  172MOL0     C22582   3.172   2.746   3.127 -0.9599 -0.0412 -0.6219
  172MOL0     C22583   3.058   2.727   3.217 -0.0723  0.4523 -0.0041
  172MOL0     C22584   3.000   2.587   3.230  0.1588 -0.1968 -0.6182
  172MOL0     C22585   2.875   2.598   3.325 -0.6549  0.1957  1.1972
  172MOL0     C22586   2.786   2.467   3.315 -0.1640 -0.5280  0.7658
  172MOL0     C22587   2.659   2.484   3.397 -0.6986 -0.6548 -0.5243
  172MOL0     C22588   2.549   2.555   3.325 -0.3821 -0.2149  1.2059
  172MOL0     N22589   2.418   2.545   3.401  0.7380 -0.0333 -0.1279
  172MOL0     C22590   2.366   2.644   3.483  0.3063  0.4270  0.5130
  172MOL0     C22591   2.251   2.591   3.537 -0.7214 -0.1210  0.1214
  172MOL0     C22592   2.163   2.660   3.638 -0.3739  0.4043 -0.4144
  172MOL0     C22593   2.016   2.617   3.623  0.5712 -0.6821 -0.7714
  172MOL0     C22594   1.932   2.688   3.728  0.0210  0.7139  0.0555
  172MOL0     C22595   1.791   2.633   3.727 -0.0248  0.4050 -0.4749
  172MOL0     O22596   1.716   2.666   3.847  0.3216 -0.0733 -0.3162
  172MOL0     C22597   1.626   2.575   3.881  0.0196  0.2755 -0.7515
  172MOL0     C22598   1.517   2.545   3.798  0.6820  1.3366 -0.4386
  172MOL0     C22599   1.407   2.477   3.842  0.4736  0.0689  0.0353
  172MOL0     C22600   1.387   2.430   3.971 -1.2203  0.1570  0.6366
  172MOL0     C22601   1.265   2.359   4.015  1.1634  0.3903 -0.5876
  172MOL0     O22602   1.156   2.362   3.935 -0.5939 -0.6399  0.1418
  172MOL0     C22603   1.024   2.340   3.982 -0.0948  0.0293 -0.0688
  172MOL0     C22604   0.936   2.241   3.928 -0.6174  0.1047 -0.4719
  172MOL0     C22605   0.814   2.226   3.981  0.7982  0.5196 -0.2330
  172MOL0     C22606   0.757   2.301   4.085  0.2695 -1.6908 -0.1067
  172MOL0     O22607   0.630   2.282   4.119  0.0756 -0.0784 -0.0239
  172MOL0     C22608   0.575   2.360   4.227 -0.1346 -1.0224 -0.5503
  172MOL0     C22609   0.435   2.303   4.271  0.4563  0.3446 -0.1259
  172MOL0     C22610   0.329   2.341   4.176 -0.1380  0.3393 -0.0420
  172MOL0     C22611   0.186   2.341   4.243 -1.4401 -0.1677  0.0485
  172MOL0     C22612   0.090   2.397   4.140  0.2864  0.7465 -0.8465
  172MOL0     C22613  -0.051   2.336   4.153  0.3616  0.2505 -0.3656
  172MOL0     C22614  -0.143   2.386   4.270 -0.1908  0.2353  0.8466
  172MOL0     C22615  -0.211   2.258   4.326 -0.1100  0.7854 -0.3928
  172MOL0    Cl22616  -0.347   2.210   4.210  0.0503 -0.1231  0.2187
  172MOL0     C22617   0.838   2.407   4.135  0.7909  0.2687  0.6475
  172MOL0     C22618   0.972   2.421   4.087  0.4937  0.0623 -0.2656
  172MOL0     O22619   1.263   2.302   4.125 -0.4387  0.4164 -0.0812
  172MOL0     C22620   1.496   2.463   4.061 -0.1265 -0.1853  0.3236
  172MOL0     C22621   1.613   2.530   4.011  0.0905  0.3472  0.4484
  172MOL0     N22622   2.240   2.468   3.480 -0.3885  0.2443 -0.5103
  172MOL0     N22623   2.325   2.445   3.393 -0.1591 -0.2627  0.4658
  172MOL0     C22624   3.548   2.547   3.191  0.2739  0.5078 -0.0447
  172MOL0     C22625   3.647   2.444   3.189  0.8542  0.2548 -0.7663
  172MOL0     C22626   3.872   2.071   3.097 -0.1893  0.6395  0.3655
  172MOL0     C22627   4.004   2.103   3.075  0.7500  0.1524  0.1856
  172MOL0     C22628   4.098   2.004   3.077  0.1354  1.2369  1.0166
  172MOL0     C22629   4.070   1.861   3.086 -0.3263 -0.1341  0.2479
  172MOL0     O22630   4.151   1.758   3.079 -1.0997  0.8478  0.5747
  172MOL0     C22631   4.291   1.796   3.086  0.9598  0.4758  0.2556
  172MOL0     C22632   4.382   1.672   3.078  0.6613 -0.6182 -0.5728
  172MOL0     C22633   4.364   1.618   2.932  0.4172 -0.3211 -0.1776
  172MOL0     C22634   4.477   1.526   2.890 -1.4709  0.0591  0.4471
  172MOL0     C22635   4.579   1.607   2.833 -0.7360 -0.0919  0.0362
  172MOL0     C22636   4.666   1.686   2.791  0.3873  0.4374  0.1497
  172MOL0     C22637   3.935   1.835   3.086 -0.7115  0.4354  0.2617
  172MOL0     C22638   3.834   1.929   3.097 -0.4808 -0.6755  0.0210
  172MOL0     H22639   3.646   2.372   2.849  0.1709  1.1120 -0.3568
  172MOL0     H22640   3.497   2.553   2.861  0.8233  1.9231 -0.7906
  172MOL0     H22641   3.310   2.634   3.247 -0.1950  0.7633  0.7848
  172MOL0     H22642   3.252   2.551   3.107  0.0004  0.6161  0.8879
  172MOL0     H22643   3.149   2.738   3.020  0.0152 -1.3860 -0.7457
  172MOL0     H22644   3.206   2.849   3.136  1.9223 -0.6663 -2.8520
  172MOL0     H22645   2.983   2.797   3.180  0.1528 -0.4099 -2.1994
  172MOL0     H22646   3.088   2.751   3.320  1.4869  1.7647 -0.7348
  172MOL0     H22647   2.966   2.544   3.135 -1.5332 -2.4216  0.8840
  172MOL0     H22648   3.075   2.523   3.278  2.0757  0.1994 -2.9263
  172MOL0     H22649   2.818   2.687   3.298 -1.7935 -0.8244  0.0981
  172MOL0     H22650   2.907   2.625   3.426 -0.0670 -0.2962  1.1540
  172MOL0     H22651   2.847   2.389   3.361  1.0414  0.6069  1.1644
  172MOL0     H22652   2.761   2.431   3.215  2.2240 -0.0613 -0.0701
  172MOL0     H22653   2.613   2.386   3.414  0.1921 -1.1725 -1.0054
  172MOL0     H22654   2.678   2.535   3.492  0.5330  0.8778 -1.5445
  172MOL0     H22655   2.552   2.518   3.222 -0.2396  2.2166  0.2818
  172MOL0     H22656   2.576   2.661   3.319 -1.4603  0.1700  2.6648
  172MOL0     H22657   2.424   2.729   3.516  2.9074 -1.5908  1.4530
  172MOL0     H22658   2.164   2.770   3.634 -0.5370  0.5302  1.9593
  172MOL0     H22659   2.203   2.629   3.735 -0.4220 -0.9274 -0.8085
  172MOL0     H22660   2.019   2.512   3.655 -0.6698 -0.3748  0.4073
  172MOL0     H22661   1.970   2.645   3.527  0.6854  1.0349 -0.3458
  172MOL0     H22662   1.980   2.675   3.826 -1.0722  1.0035  0.6547
  172MOL0     H22663   1.934   2.793   3.700 -2.1341  0.3753 -1.6351
  172MOL0     H22664   1.800   2.524   3.727 -0.0122  0.4035  0.0947
  172MOL0     H22665   1.741   2.657   3.633  1.6850  2.6604 -0.8932
  172MOL0     H22666   1.509   2.582   3.696 -0.8795 -1.6479 -1.5316
  172MOL0     H22667   1.333   2.447   3.768  0.7051 -0.5866  0.0648
  172MOL0     H22668   0.963   2.172   3.849 -1.8245 -1.6289  0.5600
  172MOL0     H22669   0.751   2.146   3.944  1.2237  0.5261 -0.9822
  172MOL0     H22670   0.571   2.467   4.202  4.9923 -1.0479 -2.6968
  172MOL0     H22671   0.640   2.353   4.315 -0.7738  0.4217  0.0876
  172MOL0     H22672   0.417   2.350   4.369 -1.9594 -0.7633  0.0402
  172MOL0     H22673   0.453   2.196   4.281  0.7135  0.3135 -0.8725
  172MOL0     H22674   0.329   2.264   4.097  1.1502 -2.5530  2.5431
  172MOL0     H22675   0.354   2.437   4.131 -2.5724  0.8826 -0.3558
  172MOL0     H22676   0.165   2.240   4.276  1.4958 -1.4304 -1.5575
  172MOL0     H22677   0.187   2.417   4.322 -1.4847  1.9160 -1.8376
  172MOL0     H22678   0.133   2.364   4.044  1.5801 -2.9278  0.7827
  172MOL0     H22679   0.093   2.506   4.138 -1.0487  0.7902 -2.0595
  172MOL0     H22680  -0.040   2.227   4.159 -1.2499  0.0055 -1.0563
  172MOL0     H22681  -0.100   2.337   4.055  0.6356 -0.2061 -0.5135
  172MOL0     H22682  -0.090   2.441   4.348 -0.7251  3.5240 -0.9226
  172MOL0     H22683  -0.214   2.461   4.233  1.2121  3.2114  3.6327
  172MOL0     H22684  -0.256   2.273   4.425  2.4440  0.2660  0.9567
  172MOL0     H22685  -0.146   2.172   4.344  0.1880  1.2652  0.9422
  172MOL0     H22686   0.816   2.476   4.216  0.3665  0.8397  0.0583
  172MOL0     H22687   1.043   2.485   4.138  1.3578 -2.4362  1.8632
  172MOL0     H22688   1.479   2.439   4.166 -2.1460  2.1635  0.6237
  172MOL0     H22689   1.693   2.557   4.080  1.1182  1.1250 -1.0067
  172MOL0     H22690   3.509   2.582   3.286 -2.7161 -1.4384 -0.4021
  172MOL0     H22691   3.693   2.407   3.280 -2.0900  1.7898  1.5176
  172MOL0     H22692   4.036   2.206   3.066  2.9862 -0.4044  1.0900
  172MOL0     H22693   4.198   2.043   3.065  1.1906 -0.8090  2.6653
  172MOL0     H22694   4.311   1.859   3.173 -5.5506  1.6626  1.4500
  172MOL0     H22695   4.307   1.863   3.000  0.7774 -0.6472 -0.6730
  172MOL0     H22696   4.485   1.695   3.105 -0.3517  0.1883  3.0877
  172MOL0     H22697   4.343   1.605   3.155  2.6086  0.6920  1.6533
  172MOL0     H22698   4.366   1.712   2.876  0.4463  0.2057  0.6956
  172MOL0     H22699   4.267   1.568   2.922  0.5410 -0.1780 -3.1038
  172MOL0     H22700   4.517   1.472   2.976 -2.5445  0.6462  1.3445
  172MOL0     H22701   4.441   1.456   2.814 -1.1779 -0.1187  0.4708
  172MOL0     H22702   4.732   1.761   2.754  2.3103 -2.1815 -2.1369
  172MOL0     H22703   3.908   1.730   3.096  0.1322  0.1277 -0.5999
  172MOL0     H22704   3.730   1.908   3.116 -1.0895 -0.0318 -2.2520
  173MOL0     O22705   3.470   2.381   1.048 -0.2428  0.5980  0.0170
  173MOL0     C22706   3.481   2.430   0.938 -0.0873  0.1292  0.3712
  173MOL0     O22707   3.377   2.489   0.868  0.2507 -0.1224  0.6926
  173MOL0     C22708   3.243   2.496   0.905  0.4747 -0.4183 -0.3136
  173MOL0     C22709   3.172   2.437   1.012  0.2950 -0.0111  0.0064
  173MOL0     C22710   3.036   2.482   1.035 -1.0761 -0.3266 -0.1574
  173MOL0     C22711   2.971   2.566   0.951  0.2103 -0.4471  0.2855
  173MOL0     O22712   2.838   2.606   0.979  0.5607  0.2188 -0.1920
  173MOL0     C22713   2.774   2.703   0.894  0.5077 -0.4328 -0.1552
  173MOL0     C22714   2.642   2.742   0.959  0.8064  0.7383 -0.5562
  173MOL0     C22715   2.530   2.634   0.946 -0.4888  0.5382  0.1488
  173MOL0     C22716   2.406   2.695   1.005  0.0497  0.1846 -0.8055
  173MOL0     C22717   2.304   2.586   1.032  0.2279  0.1344 -0.3348
  173MOL0     C22718   2.169   2.647   1.075 -0.3271  0.1642 -0.0007
  173MOL0     C22719   2.099   2.743   0.980 -0.1474 -1.0323  0.0414
  173MOL0     C22720   1.988   2.805   1.055  0.0300 -0.5174 -0.0935
  173MOL0     N22721   1.871   2.848   0.965  0.8014 -0.7775 -0.3363
  173MOL0     C22722   1.759   2.919   1.012 -0.8427  0.0748 -0.5422
  173MOL0     C22723   1.673   2.932   0.907 -0.7537 -0.0882 -0.2705
  173MOL0     C22724   1.542   3.005   0.901  0.6121 -0.2397 -0.0895
  173MOL0     C22725   1.435   2.912   0.835 -0.3986  0.2668 -0.3299
  173MOL0     C22726   1.299   2.990   0.818  0.3452  0.2227  0.6903
  173MOL0     C22727   1.199   2.970   0.935 -0.4089  0.3587 -0.2754
  173MOL0     O22728   1.109   3.078   0.943  0.5571  0.1619  0.0928
  173MOL0     C22729   0.972   3.063   0.935 -0.2149  0.6402 -0.0939
  173MOL0     C22730   0.890   3.169   0.974  0.3156 -0.3843  0.7128
  173MOL0     C22731   0.753   3.160   0.975 -0.6298  0.7141 -0.0942
  173MOL0     C22732   0.690   3.050   0.931 -0.1307 -0.5168 -0.1019
  173MOL0     C22733   0.545   3.050   0.916 -0.8063  0.6657  0.6510
  173MOL0     O22734   0.478   3.161   0.951  0.8995  0.3017  0.4476
  173MOL0     C22735   0.346   3.154   0.978 -0.8682  0.7527 -0.5047
  173MOL0     C22736   0.274   3.045   1.029 -0.4292  0.7624  0.1391
  173MOL0     C22737   0.147   3.066   1.076 -0.2166 -0.7295  1.0522
  173MOL0     C22738   0.074   3.184   1.061  0.8909 -0.0015 -0.1191
  173MOL0     O22739  -0.058   3.191   1.099 -0.2219  0.3135  0.3023
  173MOL0     C22740  -0.144   3.311   1.102  0.0137 -0.2055 -0.0203
  173MOL0     C22741  -0.291   3.280   1.142  0.4343  0.8885  0.4986
  173MOL0     C22742  -0.317   3.231   1.289 -0.2510  0.2962  0.0050
  173MOL0     C22743  -0.329   3.352   1.382  0.6302  0.4551 -0.9862
  173MOL0     C22744  -0.320   3.306   1.532  0.4295 -0.2637  0.1626
  173MOL0     C22745  -0.452   3.236   1.581 -0.3841  0.7448 -0.4928
  173MOL0     C22746  -0.460   3.199   1.732 -0.8692  0.5004  0.4856
  173MOL0     C22747  -0.600   3.181   1.780  0.1204 -0.8387  0.3519
  173MOL0    Cl22748  -0.683   3.046   1.713  0.0928  0.8269  0.6270
  173MOL0     C22749   0.148   3.286   1.006  0.0998  0.1202 -0.8405
  173MOL0     C22750   0.283   3.277   0.973  0.0161 -0.0237  0.2854
  173MOL0     O22751   0.504   2.945   0.870 -0.6808  0.0645  0.2139
  173MOL0     C22752   0.776   2.951   0.864  0.4714 -0.9216  0.0822
  173MOL0     C22753   0.910   2.961   0.868  0.1458 -0.2486 -0.3013
  173MOL0     N22754   1.733   2.875   0.792 -0.6342  0.3397 -0.1135
  173MOL0     N22755   1.853   2.833   0.832 -0.9231 -0.7382 -0.2208
  173MOL0     C22756   3.040   2.611   0.838  0.1694 -0.0017 -0.3898
  173MOL0     C22757   3.168   2.573   0.814  0.1073 -0.6560 -0.5996
  173MOL0     C22758   3.612   2.450   0.892  0.4162 -0.0606 -0.3981
  173MOL0     C22759   3.630   2.541   0.785 -0.6900  0.4204  0.0847
  173MOL0     C22760   3.757   2.577   0.752  0.4550  0.5794  0.3601
  173MOL0     C22761   3.872   2.526   0.817 -0.0119  0.4453  0.3700
  173MOL0     O22762   3.993   2.587   0.790 -0.1487 -0.0966 -0.4557
  173MOL0     C22763   4.099   2.556   0.877 -0.5595  0.3789 -0.6266
  173MOL0     C22764   4.226   2.628   0.828 -0.3934 -0.2306  0.2900
  173MOL0     C22765   4.336   2.633   0.941 -0.0750 -1.1512 -0.1536
  173MOL0     C22766   4.441   2.739   0.907 -0.3140 -0.4072  0.5014
  173MOL0     C22767   4.559   2.740   0.995 -0.3666  0.3820  0.3101
  173MOL0     C22768   4.640   2.716   1.083 -0.2759  0.3704  0.4577
  173MOL0     C22769   3.850   2.435   0.920  0.2908 -0.1411  0.1740
  173MOL0     C22770   3.727   2.403   0.962 -0.0069 -0.0507  0.4342
  173MOL0     H22771   3.227   2.380   1.086 -2.1331  2.2056  3.8147
  173MOL0     H22772   2.989   2.452   1.128 -0.3043 -0.8024  0.0921
  173MOL0     H22773   2.769   2.678   0.788  1.0278  0.0319 -0.2942
  173MOL0     H22774   2.847   2.785   0.887  0.6493 -0.6427 -1.4064
  173MOL0     H22775   2.620   2.834   0.905  1.6955  0.3541 -1.6189
  173MOL0     H22776   2.664   2.761   1.064 -0.8896 -2.9533  0.6502
  173MOL0     H22777   2.561   2.546   1.004  2.3978  0.6982 -0.9945
  173MOL0     H22778   2.524   2.595   0.844  2.0279  0.4961 -0.0391
  173MOL0     H22779   2.438   2.739   1.100  3.2734  0.8579 -2.0943
  173MOL0     H22780   2.368   2.768   0.934  2.1810 -1.0721 -3.4260
  173MOL0     H22781   2.339   2.516   1.109  2.2130 -1.5150 -2.5719
  173MOL0     H22782   2.296   2.535   0.936  1.2667 -0.4487 -0.1176
  173MOL0     H22783   2.200   2.707   1.162 -0.6211 -0.9548  0.9098
  173MOL0     H22784   2.095   2.572   1.104  2.3741 -1.9121  2.1726
  173MOL0     H22785   2.157   2.819   0.926  3.0164 -3.5583 -0.3886
  173MOL0     H22786   2.057   2.682   0.899 -1.0219 -1.7579  1.0183
  173MOL0     H22787   2.030   2.891   1.108  3.2651 -0.2092 -2.8894
  173MOL0     H22788   1.961   2.728   1.128  3.9444 -1.8070  0.2003
  173MOL0     H22789   1.753   2.953   1.115 -1.0385  1.4818 -0.9983
  173MOL0     H22790   1.544   3.103   0.851 -2.8201 -0.0539 -0.0903
  173MOL0     H22791   1.507   3.037   0.999  0.0596 -1.4310  0.1199
  173MOL0     H22792   1.428   2.817   0.890 -1.2913 -0.1365 -1.1229
  173MOL0     H22793   1.464   2.887   0.733  0.1021 -1.4481  0.2006
  173MOL0     H22794   1.322   3.097   0.811  2.8159 -0.2698  0.2075
  173MOL0     H22795   1.257   2.957   0.723 -0.9055 -0.7620  1.5571
  173MOL0     H22796   1.241   2.972   1.036 -1.7099 -1.8543  0.3740
  173MOL0     H22797   1.156   2.871   0.917  2.0184 -0.5663 -1.4237
  173MOL0     H22798   0.931   3.263   1.009  0.6570 -0.3278  0.1679
  173MOL0     H22799   0.693   3.243   1.010 -1.7001 -0.3527  0.6823
  173MOL0     H22800   0.328   2.953   1.050 -2.2606 -1.0516 -2.5367
  173MOL0     H22801   0.103   2.982   1.127  2.5236 -2.0061  1.4857
  173MOL0     H22802  -0.147   3.361   1.005 -0.3443 -1.1220 -0.4951
  173MOL0     H22803  -0.102   3.387   1.168  0.7835 -2.4337  2.2327
  173MOL0     H22804  -0.325   3.195   1.082 -0.7609 -0.2018  2.6083
  173MOL0     H22805  -0.355   3.368   1.125 -0.2211  0.1250 -1.2099
  173MOL0     H22806  -0.239   3.165   1.327  2.3010  2.2897 -1.4826
  173MOL0     H22807  -0.414   3.181   1.298 -0.9135  1.6399  0.6507
  173MOL0     H22808  -0.244   3.417   1.358 -1.5438  3.9770  0.1408
  173MOL0     H22809  -0.420   3.410   1.371 -0.1728 -0.1795  1.5607
  173MOL0     H22810  -0.308   3.391   1.599 -1.9219  0.4468 -0.2344
  173MOL0     H22811  -0.226   3.250   1.539  1.0659  0.6076 -1.0066
  173MOL0     H22812  -0.469   3.143   1.526 -2.2234  0.7478  0.0078
  173MOL0     H22813  -0.537   3.304   1.564 -1.6226 -0.1116  1.8062
  173MOL0     H22814  -0.393   3.116   1.754 -1.2583  0.0263 -0.0924
  173MOL0     H22815  -0.426   3.285   1.790  3.9481  1.1920 -2.7866
  173MOL0     H22816  -0.658   3.272   1.762 -0.1534 -0.8879  0.9387
  173MOL0     H22817  -0.596   3.171   1.889 -2.2595  1.6076  0.8083
  173MOL0     H22818   0.092   3.377   0.986 -0.5813  0.4696  2.1500
  173MOL0     H22819   0.330   3.372   0.947  0.1037 -0.6563 -2.1707
  173MOL0     H22820   0.739   2.878   0.793 -0.7229  2.3007 -2.8925
  173MOL0     H22821   0.972   2.883   0.825  0.1306 -1.4000  1.6601
  173MOL0     H22822   2.983   2.678   0.774  0.7917  0.2306 -0.7114
  173MOL0     H22823   3.223   2.605   0.726 -0.7052 -0.5919 -1.0935
  173MOL0     H22824   3.543   2.590   0.741 -3.0062 -2.9372  0.5479
  173MOL0     H22825   3.752   2.640   0.664 -2.4017 -2.3850 -1.8457
  173MOL0     H22826   4.107   2.447   0.871 -4.0990 -0.3630  3.3667
  173MOL0     H22827   4.065   2.595   0.973  1.7485  0.7797  0.0840
  173MOL0     H22828   4.257   2.584   0.732 -0.5151 -0.0816  0.1814
  173MOL0     H22829   4.197   2.730   0.802  2.5484 -0.3121 -4.6044
  173MOL0     H22830   4.388   2.538   0.961 -1.3194 -1.8607 -0.1995
  173MOL0     H22831   4.286   2.651   1.036  0.8051 -2.0641  0.5186
  173MOL0     H22832   4.471   2.727   0.803 -3.4788 -1.5367 -0.4216
  173MOL0     H22833   4.398   2.840   0.901  0.5857 -0.1081 -1.6931
  173MOL0     H22834   4.714   2.690   1.156 -0.5893  0.7513  0.9197
  173MOL0     H22835   3.934   2.388   0.971  0.4743 -0.6199 -0.5560
  173MOL0     H22836   3.721   2.348   1.055  1.3472 -1.4979 -0.2873
  174MOL0     O22837   6.689   2.811   5.711 -0.8416 -0.4305 -0.4572
  174MOL0     C22838   6.684   2.690   5.705 -0.6549  0.6598 -0.1246
  174MOL0     O22839   6.574   2.614   5.722 -0.2160  0.3325 -0.5942
  174MOL0     C22840   6.456   2.672   5.758 -0.0519 -0.6343 -1.2174
  174MOL0     C22841   6.388   2.631   5.874  0.8355  0.2228  0.0218
  174MOL0     C22842   6.258   2.672   5.907  0.8707 -0.1077  0.2406
  174MOL0     C22843   6.187   2.753   5.814  0.1343 -0.5077 -0.6050
  174MOL0     O22844   6.054   2.793   5.834  0.0543 -0.8009 -0.0358
  174MOL0     C22845   5.961   2.717   5.925 -0.2095  0.4142  0.1963
  174MOL0     C22846   5.848   2.814   5.958 -0.2014  0.3134  0.6575
  174MOL0     C22847   5.738   2.823   5.842  0.3059 -0.5111  0.2675
  174MOL0     C22848   5.637   2.936   5.878 -0.2265 -0.1114 -0.1737
  174MOL0     C22849   5.506   2.915   5.801  0.1332 -0.4406 -1.0076
  174MOL0     C22850   5.388   3.012   5.841 -0.2511 -0.0879 -0.5170
  174MOL0     C22851   5.391   3.129   5.750 -0.2181  0.5011 -0.1525
  174MOL0     C22852   5.265   3.205   5.737 -0.3939  0.3730 -0.8489
  174MOL0     N22853   5.146   3.118   5.706 -0.5057  0.3234  0.0383
  174MOL0     C22854   5.135   3.030   5.593 -0.1723 -0.8152  0.1552
  174MOL0     C22855   5.020   2.958   5.621  0.5298 -0.0845  0.7414
  174MOL0     C22856   4.972   2.844   5.533  0.2569  0.4227  0.3250
  174MOL0     C22857   4.819   2.812   5.519  0.2999 -0.5512  0.8024
  174MOL0     C22858   4.742   2.931   5.463  0.8360 -0.0882  1.0863
  174MOL0     C22859   4.594   2.912   5.463 -0.6179 -0.1366 -0.2321
  174MOL0     O22860   4.555   2.777   5.419 -0.2112 -0.0958 -0.0238
  174MOL0     C22861   4.428   2.771   5.361 -0.3243  0.6135  0.0035
  174MOL0     C22862   4.410   2.668   5.271 -0.3017  0.8622 -0.3361
  174MOL0     C22863   4.295   2.645   5.200  0.2262 -0.2227  0.9984
  174MOL0     C22864   4.185   2.735   5.218 -1.3475  0.0461 -0.1410
  174MOL0     C22865   4.058   2.707   5.142 -0.5868  0.0867 -0.1999
  174MOL0     O22866   3.948   2.792   5.177 -0.3804 -0.0783  0.1199
  174MOL0     C22867   3.825   2.797   5.116  0.0048 -0.2657  0.3086
  174MOL0     C22868   3.777   2.692   5.038 -0.1808 -0.3328  0.4151
  174MOL0     C22869   3.652   2.702   4.984  1.7163 -1.0645 -0.6301
  174MOL0     C22870   3.573   2.823   4.995 -0.5125  0.1624 -0.5426
  174MOL0     O22871   3.461   2.825   4.912  0.1169 -0.1863  0.1122
  174MOL0     C22872   3.413   2.955   4.875  0.4522  0.4393 -0.7095
  174MOL0     C22873   3.307   2.937   4.761  0.2253  1.0140 -0.1610
  174MOL0     C22874   3.374   2.949   4.621  0.6758 -0.3268  0.4059
  174MOL0     C22875   3.432   3.089   4.584 -0.7124 -0.0518  0.4211
  174MOL0     C22876   3.465   3.094   4.432 -1.2854  0.6026  0.0774
  174MOL0     C22877   3.518   3.229   4.392 -0.1724 -0.0471  0.4062
  174MOL0     C22878   3.672   3.238   4.412 -0.3995 -0.2284 -0.5811
  174MOL0     C22879   3.729   3.333   4.320  0.1312  0.6227  0.3174
  174MOL0    Cl22880   3.733   3.269   4.158 -0.0325 -0.2587  0.4716
  174MOL0     C22881   3.621   2.930   5.071 -0.6229  0.7350 -0.6143
  174MOL0     C22882   3.748   2.910   5.128 -0.0337  0.2295  0.2266
  174MOL0     O22883   4.057   2.626   5.046  0.0884  0.4964 -0.1646
  174MOL0     C22884   4.203   2.839   5.305  0.3506  0.9507 -0.0760
  174MOL0     C22885   4.324   2.858   5.384  1.0621  0.3055 -0.5715
  174MOL0     N22886   4.969   2.996   5.747  0.5969  0.0722  0.1011
  174MOL0     N22887   5.042   3.089   5.790 -0.7485 -0.3534  0.3970
  174MOL0     C22888   6.260   2.801   5.705  0.1545 -0.2338  0.2626
  174MOL0     C22889   6.395   2.775   5.685  0.0250  0.4509  0.3770
  174MOL0     C22890   6.806   2.616   5.667  0.2065 -0.0882  0.4716
  174MOL0     C22891   6.791   2.477   5.630 -0.1944 -0.1698  0.1842
  174MOL0     C22892   6.900   2.407   5.572  0.4375 -0.1290 -0.0898
  174MOL0     C22893   7.019   2.473   5.553  0.1667  0.9794  0.3504
  174MOL0     O22894   7.127   2.406   5.499 -0.3185 -0.3578  0.3107
  174MOL0     C22895   7.233   2.489   5.444 -0.8549  0.1673 -0.1348
  174MOL0     C22896   7.348   2.390   5.393  1.0063  0.0389 -0.2009
  174MOL0     C22897   7.476   2.457   5.336 -1.0582  0.2467 -0.0984
  174MOL0     C22898   7.563   2.514   5.450 -0.1096 -0.1720  0.3551
  174MOL0     C22899   7.686   2.572   5.387  0.4963 -0.2265  0.6608
  174MOL0     C22900   7.770   2.649   5.349  0.6875 -1.0359 -1.3856
  174MOL0     C22901   7.037   2.605   5.595  0.3114  0.1076  0.9118
  174MOL0     C22902   6.927   2.682   5.644  0.5556  0.3577  1.7047
  174MOL0     H22903   6.428   2.560   5.946  1.5388  2.5469  2.0606
  174MOL0     H22904   6.213   2.651   6.004 -3.0717  2.0972 -0.8974
  174MOL0     H22905   6.007   2.680   6.017 -0.0503 -1.4518 -0.5792
  174MOL0     H22906   5.914   2.630   5.878  1.0715 -0.1951 -0.0022
  174MOL0     H22907   5.880   2.917   5.973 -2.4675  1.3730 -1.0588
  174MOL0     H22908   5.804   2.777   6.051  0.2346  2.5151  1.8078
  174MOL0     H22909   5.697   2.723   5.825  0.5752 -0.8898  1.7253
  174MOL0     H22910   5.789   2.843   5.748 -0.6004 -6.2625 -1.8564
  174MOL0     H22911   5.614   2.930   5.985  0.1234 -2.5710 -0.1784
  174MOL0     H22912   5.680   3.036   5.866 -1.3419  0.2915 -1.0103
  174MOL0     H22913   5.476   2.812   5.824 -0.0220 -0.4798 -1.3802
  174MOL0     H22914   5.518   2.918   5.692 -0.0227 -0.5183 -1.0272
  174MOL0     H22915   5.403   3.042   5.945 -0.1974 -0.7011 -0.3451
  174MOL0     H22916   5.291   2.962   5.839  0.3774 -1.3858  0.1526
  174MOL0     H22917   5.459   3.200   5.797 -0.4440 -0.3581  1.5484
  174MOL0     H22918   5.434   3.102   5.653 -2.1618 -1.1761 -0.6288
  174MOL0     H22919   5.276   3.276   5.654  0.9511 -1.4099 -2.2888
  174MOL0     H22920   5.250   3.254   5.834 -0.2823 -1.9692  0.4179
  174MOL0     H22921   5.199   3.032   5.506 -0.2040 -1.7088  0.0944
  174MOL0     H22922   5.032   2.761   5.570  0.9339 -0.2786 -2.1846
  174MOL0     H22923   5.002   2.851   5.429  0.0843 -1.1317  0.1455
  174MOL0     H22924   4.777   2.776   5.614 -0.5740 -0.0154  0.6264
  174MOL0     H22925   4.831   2.732   5.446 -4.5881 -0.5102 -0.3678
  174MOL0     H22926   4.779   3.024   5.508 -0.3488  1.9199 -1.7934
  174MOL0     H22927   4.774   2.949   5.360  1.2118 -2.0037  0.8191
  174MOL0     H22928   4.551   2.982   5.391 -0.6314 -1.3953 -1.5082
  174MOL0     H22929   4.556   2.925   5.565  0.6857  1.4563  0.0797
  174MOL0     H22930   4.484   2.591   5.253  0.1999  1.3511 -0.4029
  174MOL0     H22931   4.285   2.556   5.139  1.7770 -0.7766  1.5043
  174MOL0     H22932   3.835   2.602   5.023  0.6812  0.4383 -1.0678
  174MOL0     H22933   3.595   2.634   4.923 -2.4851  1.6879 -0.1783
  174MOL0     H22934   3.491   3.026   4.846 -0.3220  1.6638  0.1681
  174MOL0     H22935   3.350   2.986   4.959  1.6892 -1.3953  1.0006
  174MOL0     H22936   3.221   3.005   4.763 -1.8804 -1.4958  2.1109
  174MOL0     H22937   3.266   2.836   4.766 -0.6289  1.4076  3.2772
  174MOL0     H22938   3.306   2.915   4.542 -0.2204 -2.5739  2.0256
  174MOL0     H22939   3.457   2.878   4.608  0.6121 -0.0919 -1.6296
  174MOL0     H22940   3.356   3.166   4.602  0.2598  0.6338  1.8213
  174MOL0     H22941   3.522   3.110   4.643 -0.3657  0.3415 -0.2310
  174MOL0     H22942   3.372   3.067   4.381 -1.4964  0.4390  0.5423
  174MOL0     H22943   3.536   3.016   4.404 -2.7600 -0.4022 -1.0104
  174MOL0     H22944   3.476   3.315   4.445  0.3041  1.7180 -1.8943
  174MOL0     H22945   3.495   3.238   4.285  1.1146 -0.5686  0.0663
  174MOL0     H22946   3.692   3.260   4.517 -1.6269 -2.6089  0.2436
  174MOL0     H22947   3.722   3.143   4.390  0.4571  0.5675 -2.2496
  174MOL0     H22948   3.827   3.343   4.368  0.9537  1.9219 -1.5247
  174MOL0     H22949   3.680   3.430   4.328 -0.2295  0.5655 -1.0945
  174MOL0     H22950   3.576   3.025   5.096 -0.6617  0.3684  0.7732
  174MOL0     H22951   3.781   2.985   5.199 -0.9331 -1.1047  2.1588
  174MOL0     H22952   4.111   2.896   5.315 -1.2843 -0.8774 -3.1928
  174MOL0     H22953   4.332   2.933   5.462 -0.3244  1.3403 -1.3774
  174MOL0     H22954   6.216   2.857   5.623  2.7130 -1.4821 -2.1377
  174MOL0     H22955   6.459   2.808   5.604  0.6868  1.5694  1.3229
  174MOL0     H22956   6.696   2.428   5.651 -1.1964  1.0826 -1.1829
  174MOL0     H22957   6.896   2.298   5.568  0.8098 -0.3690  2.9769
  174MOL0     H22958   7.288   2.556   5.512  0.5745  0.5417 -1.6009
  174MOL0     H22959   7.196   2.544   5.358  0.9213  1.4396 -0.1370
  174MOL0     H22960   7.369   2.314   5.469 -4.9785 -0.7170  1.2485
  174MOL0     H22961   7.292   2.333   5.318 -0.2067  1.9648 -0.8376
  174MOL0     H22962   7.455   2.541   5.269 -0.0766 -0.0533 -0.8163
  174MOL0     H22963   7.541   2.387   5.283 -2.7442  0.0269 -1.9726
  174MOL0     H22964   7.515   2.599   5.498 -1.1468 -0.8826  0.6087
  174MOL0     H22965   7.604   2.449   5.528  1.8788  0.2962 -0.2249
  174MOL0     H22966   7.840   2.728   5.329  2.3424 -0.4396  4.7193
  174MOL0     H22967   7.122   2.672   5.592 -0.2652  0.9709  2.5109
  174MOL0     H22968   6.933   2.788   5.666 -2.2621  0.6437  1.5664
  175MOL0     O22969   3.171   2.422   7.716  0.0555 -0.1703  0.0053
  175MOL0     C22970   3.253   2.339   7.758  1.0431 -0.4140  0.3243
  175MOL0     O22971   3.224   2.226   7.833 -1.2139 -0.4371  0.1057
  175MOL0     C22972   3.095   2.192   7.860  0.1586 -0.1071 -1.0589
  175MOL0     C22973   3.010   2.286   7.919  0.2950  0.0845 -0.0532
  175MOL0     C22974   2.878   2.260   7.942 -0.0216 -0.1201  0.6835
  175MOL0     C22975   2.834   2.127   7.936  0.3669 -0.1945 -0.4737
  175MOL0     O22976   2.701   2.100   7.965 -0.5713 -0.8612 -0.3031
  175MOL0     C22977   2.669   2.134   8.097  0.9370  0.7402 -0.4087
  175MOL0     C22978   2.527   2.070   8.120  0.2427 -0.1890  0.1069
  175MOL0     C22979   2.416   2.140   8.041 -0.5335  0.4825 -0.2975
  175MOL0     C22980   2.294   2.044   8.041  0.1708 -1.1423  0.2774
  175MOL0     C22981   2.171   2.100   7.968 -0.4313 -0.1590 -0.8157
  175MOL0     C22982   2.189   2.123   7.812  0.6406  0.0666  0.4135
  175MOL0     C22983   2.058   2.153   7.736  0.0560 -0.1167 -0.0750
  175MOL0     C22984   2.086   2.139   7.590 -0.3298 -0.7677  0.0155
  175MOL0     N22985   1.970   2.168   7.507  0.0792 -0.2091  0.1793
  175MOL0     C22986   1.864   2.083   7.487  0.2680 -0.6863  1.1140
  175MOL0     C22987   1.794   2.148   7.388 -0.5130 -0.3562 -1.0889
  175MOL0     C22988   1.665   2.109   7.328  0.4899 -0.2251 -0.0200
  175MOL0     C22989   1.536   2.190   7.369 -0.5696  0.4705 -0.1299
  175MOL0     C22990   1.532   2.215   7.517 -0.2814 -0.6140 -0.4268
  175MOL0     C22991   1.452   2.338   7.562 -0.1513 -0.4423 -0.7168
  175MOL0     O22992   1.320   2.329   7.512  0.6561 -0.1845  0.2217
  175MOL0     C22993   1.209   2.378   7.576 -0.3995 -0.3053 -0.1966
  175MOL0     C22994   1.196   2.414   7.709 -0.2979  0.3971 -0.5943
  175MOL0     C22995   1.073   2.439   7.776 -0.0195 -1.0304  0.4753
  175MOL0     C22996   0.957   2.441   7.695 -0.1181  0.6619  0.2700
  175MOL0     C22997   0.831   2.505   7.753 -0.0510  0.3785  0.0275
  175MOL0     O22998   0.849   2.577   7.868  0.2255 -0.0247 -0.5380
  175MOL0     C22999   0.740   2.601   7.954  0.6036  1.2468  0.1485
  175MOL0     C23000   0.616   2.528   7.946  0.2072  0.1804  0.7082
  175MOL0     C23001   0.506   2.556   8.029  0.2076 -0.3829  0.4155
  175MOL0     C23002   0.529   2.653   8.129  0.8926 -0.2078 -0.2107
  175MOL0     O23003   0.426   2.696   8.206 -0.3876 -0.2259  0.1838
  175MOL0     C23004   0.291   2.636   8.209 -0.2174 -0.4897  0.2363
  175MOL0     C23005   0.188   2.717   8.282  0.4207 -0.5895  0.4579
  175MOL0     C23006   0.048   2.649   8.263  0.2265  0.0961 -0.0081
  175MOL0     C23007  -0.043   2.708   8.377  0.0041 -0.7669  0.3272
  175MOL0     C23008  -0.182   2.649   8.376  0.7761  0.4048 -0.2766
  175MOL0     C23009  -0.275   2.675   8.500 -0.6013  0.4719  0.1420
  175MOL0     C23010  -0.414   2.623   8.487  0.8065 -0.6144  0.2455
  175MOL0     C23011  -0.517   2.685   8.582  0.5917  0.2159  0.6396
  175MOL0    Cl23012  -0.659   2.564   8.571  0.0526 -0.4023  0.1689
  175MOL0     C23013   0.645   2.726   8.141  0.1959  0.5851  0.0953
  175MOL0     C23014   0.748   2.700   8.054  0.6400 -0.3104 -0.6598
  175MOL0     O23015   0.728   2.500   7.681 -0.0484  0.0513  0.3924
  175MOL0     C23016   0.963   2.399   7.561  0.0584 -0.0766  0.5911
  175MOL0     C23017   1.091   2.361   7.500  0.4003  0.2610 -1.3644
  175MOL0     N23018   1.843   2.274   7.365 -0.1055 -0.0310 -0.9369
  175MOL0     N23019   1.952   2.282   7.436 -0.3295  0.4556  0.3444
  175MOL0     C23020   2.916   2.029   7.889 -0.2821  0.2972  0.4026
  175MOL0     C23021   3.048   2.059   7.856  0.7313 -0.5006  0.4832
  175MOL0     C23022   3.392   2.368   7.721 -0.6147  0.0865 -0.6975
  175MOL0     C23023   3.438   2.471   7.631  0.5316  0.2617 -0.5198
  175MOL0     C23024   3.571   2.501   7.612 -0.8704  0.3815 -0.8364
  175MOL0     C23025   3.670   2.426   7.683  0.3794 -0.2313  0.0346
  175MOL0     O23026   3.805   2.460   7.685  0.5118  0.0527 -0.3038
  175MOL0     C23027   3.853   2.597   7.696 -0.0421  0.0588  0.1315
  175MOL0     C23028   3.985   2.616   7.768 -0.2793  0.1551  0.1871
  175MOL0     C23029   4.103   2.572   7.692  0.0647  0.0026  0.9743
  175MOL0     C23030   4.228   2.567   7.773 -0.3198  0.0131  0.2627
  175MOL0     C23031   4.334   2.507   7.684 -0.2012  0.0235  0.0422
  175MOL0     C23032   4.417   2.437   7.633 -0.0331  0.3628  0.3243
  175MOL0     C23033   3.623   2.314   7.763  0.7329 -0.0988  0.6995
  175MOL0     C23034   3.489   2.290   7.781  0.5180  0.6908 -0.0657
  175MOL0     H23035   3.042   2.389   7.935 -1.0125  0.1722  2.3596
  175MOL0     H23036   2.804   2.331   7.979 -1.8614 -1.0825 -0.9264
  175MOL0     H23037   2.663   2.241   8.121  2.9074  0.7192  0.3028
  175MOL0     H23038   2.732   2.088   8.173 -0.3924 -0.2105  0.1560
  175MOL0     H23039   2.504   2.073   8.227 -0.0823  1.1963  0.0263
  175MOL0     H23040   2.536   1.963   8.098  0.6104 -0.5268  1.7496
  175MOL0     H23041   2.439   2.152   7.935  1.6269  0.8749  0.1678
  175MOL0     H23042   2.377   2.231   8.088 -3.1077 -0.5084 -0.3073
  175MOL0     H23043   2.326   1.952   7.992 -0.2199 -0.5143 -1.2014
  175MOL0     H23044   2.258   2.020   8.142  1.9737  0.3732  1.3646
  175MOL0     H23045   2.134   2.190   8.018  1.0185  0.6202 -1.0913
  175MOL0     H23046   2.091   2.027   7.982 -1.6805  1.5814  1.8611
  175MOL0     H23047   2.236   2.034   7.769 -0.4629 -0.2002 -0.2723
  175MOL0     H23048   2.264   2.202   7.801 -0.1308  0.7637  0.0493
  175MOL0     H23049   1.987   2.073   7.757  0.3756 -0.3266  0.2156
  175MOL0     H23050   2.019   2.254   7.749  1.3919  0.5720 -1.0790
  175MOL0     H23051   2.112   2.034   7.573  2.5671 -0.3438  1.1455
  175MOL0     H23052   2.164   2.211   7.563  0.2230 -0.6027  1.9393
  175MOL0     H23053   1.843   1.986   7.532 -0.6897 -1.4284 -0.8021
  175MOL0     H23054   1.648   2.006   7.360  0.0760 -0.0295  0.4192
  175MOL0     H23055   1.675   2.112   7.220  0.6601 -1.6561 -0.0579
  175MOL0     H23056   1.448   2.129   7.345  0.4692 -0.6240 -1.2847
  175MOL0     H23057   1.516   2.286   7.321  1.2012  1.3884  0.8673
  175MOL0     H23058   1.504   2.127   7.576 -1.6360 -0.2780 -0.5315
  175MOL0     H23059   1.632   2.244   7.549 -0.6765 -0.4904  0.7392
  175MOL0     H23060   1.504   2.430   7.533 -0.1508  0.5837  2.1793
  175MOL0     H23061   1.461   2.329   7.671  1.5937  2.1018 -0.5528
  175MOL0     H23062   1.289   2.410   7.766 -0.8880  2.9921  0.7279
  175MOL0     H23063   1.079   2.485   7.873 -0.1578  2.1357 -0.9046
  175MOL0     H23064   0.601   2.446   7.876  3.3912 -0.1745  0.2636
  175MOL0     H23065   0.414   2.506   8.001 -1.9449  4.2966 -2.0934
  175MOL0     H23066   0.298   2.537   8.256 -0.6316  0.0741  1.5495
  175MOL0     H23067   0.269   2.621   8.103  2.4776 -0.6615 -0.3750
  175MOL0     H23068   0.191   2.820   8.246  0.4721 -1.2625 -1.5614
  175MOL0     H23069   0.212   2.714   8.389  0.5692 -2.1681  0.4046
  175MOL0     H23070   0.064   2.546   8.295 -0.6787  0.0016  0.1732
  175MOL0     H23071   0.004   2.671   8.165 -1.2170  0.2093  0.6436
  175MOL0     H23072   0.011   2.677   8.467  2.9846  0.7067 -0.8307
  175MOL0     H23073  -0.048   2.817   8.375  1.2671 -0.6739  1.1363
  175MOL0     H23074  -0.188   2.544   8.344 -4.7692  0.5032 -0.5907
  175MOL0     H23075  -0.236   2.699   8.295  2.4759 -0.7044 -2.1842
  175MOL0     H23076  -0.276   2.780   8.530 -1.5697  0.8499 -1.1385
  175MOL0     H23077  -0.228   2.623   8.583  2.1404  1.5594 -0.6362
  175MOL0     H23078  -0.456   2.654   8.391 -2.6738  0.8277  2.0488
  175MOL0     H23079  -0.419   2.514   8.492 -0.0531 -0.7983 -2.8479
  175MOL0     H23080  -0.548   2.789   8.565 -1.5525 -0.7761 -2.1300
  175MOL0     H23081  -0.481   2.677   8.686  0.7122 -0.4761  0.5498
  175MOL0     H23082   0.656   2.804   8.216  0.0290  1.7460 -1.0444
  175MOL0     H23083   0.830   2.770   8.063 -0.7022  1.2574 -0.1209
  175MOL0     H23084   0.874   2.394   7.499 -0.1167 -1.5510  0.9353
  175MOL0     H23085   1.101   2.316   7.402 -1.1394 -4.6491  0.4114
  175MOL0     H23086   2.876   1.930   7.872 -0.0432  0.3035 -0.2264
  175MOL0     H23087   3.114   1.977   7.828  2.1854  0.9323 -0.4774
  175MOL0     H23088   3.368   2.524   7.566  1.1497  0.7176 -0.8193
  175MOL0     H23089   3.609   2.577   7.545  0.6542 -0.5157 -1.0283
  175MOL0     H23090   3.785   2.666   7.746  0.0419 -1.2086  2.1054
  175MOL0     H23091   3.876   2.625   7.593  3.9953 -1.6345  0.3698
  175MOL0     H23092   4.006   2.723   7.775 -1.6453  0.4341  0.3765
  175MOL0     H23093   3.984   2.572   7.868  0.8351 -0.7602 -0.1814
  175MOL0     H23094   4.115   2.640   7.607 -0.2145 -1.7620 -0.5551
  175MOL0     H23095   4.075   2.473   7.654  0.4699 -0.4781  1.9017
  175MOL0     H23096   4.254   2.669   7.803 -0.2762  0.5152 -1.3865
  175MOL0     H23097   4.220   2.500   7.860 -1.7361  2.1781  1.9129
  175MOL0     H23098   4.483   2.373   7.578 -1.5887  0.5033 -1.8461
  175MOL0     H23099   3.699   2.247   7.802  0.3453 -0.9984 -0.0472
  175MOL0     H23100   3.467   2.203   7.842  0.8104  1.0381  0.5472
  176MOL0     O23101   8.103   3.614   3.268 -0.0844  0.0840  0.3396
  176MOL0     C23102   8.058   3.675   3.172  0.6112 -0.1174  0.5129
  176MOL0     O23103   7.924   3.725   3.169 -0.1816 -0.2622 -0.9402
  176MOL0     C23104   7.848   3.681   3.272 -0.1727  0.7281 -0.6371
  176MOL0     C23105   7.850   3.727   3.400 -0.8885 -0.0062 -0.1941
  176MOL0     C23106   7.756   3.689   3.494 -0.4750  0.0322  0.4665
  176MOL0     C23107   7.653   3.599   3.460 -0.0767  0.1752  0.3564
  176MOL0     O23108   7.557   3.561   3.551  0.0251 -0.2610  0.7632
  176MOL0     C23109   7.529   3.663   3.653 -0.3961 -0.1843 -1.3061
  176MOL0     C23110   7.431   3.602   3.756 -0.6496  0.6547  0.2745
  176MOL0     C23111   7.379   3.715   3.842 -0.0285 -0.4449 -0.3183
  176MOL0     C23112   7.304   3.652   3.954  0.2664 -0.5654  0.4330
  176MOL0     C23113   7.260   3.758   4.051 -0.0825  0.2462 -0.8219
  176MOL0     C23114   7.166   3.700   4.164 -0.1662  0.2179  0.2014
  176MOL0     C23115   7.143   3.789   4.295 -0.3465  0.0717 -0.1550
  176MOL0     C23116   7.148   3.942   4.270 -0.1261 -0.2381 -0.1358
  176MOL0     N23117   7.023   3.986   4.217 -0.4344  0.2458  0.6377
  176MOL0     C23118   6.997   4.123   4.186 -0.6792  0.7694 -0.3036
  176MOL0     C23119   6.875   4.126   4.139  0.2360 -1.1432 -0.0423
  176MOL0     C23120   6.794   4.248   4.086  0.9644 -0.9170 -0.1867
  176MOL0     C23121   6.757   4.348   4.206  0.6706 -0.2114  0.5541
  176MOL0     C23122   6.641   4.433   4.154 -0.3424  0.1107 -0.8084
  176MOL0     C23123   6.614   4.532   4.272  0.6417  0.2050 -0.6533
  176MOL0     O23124   6.517   4.631   4.237 -0.2056  0.0106  0.1041
  176MOL0     C23125   6.412   4.657   4.319  0.1759 -0.5061  0.9551
  176MOL0     C23126   6.356   4.791   4.313 -0.6669 -0.3120  0.2930
  176MOL0     C23127   6.246   4.831   4.391  0.4034  0.8838  0.3885
  176MOL0     C23128   6.181   4.737   4.481 -0.5133  0.1508 -0.4878
  176MOL0     C23129   6.056   4.773   4.550 -0.2384  0.3223 -0.2470
  176MOL0     O23130   5.970   4.861   4.498 -0.0989 -0.3559  0.1245
  176MOL0     C23131   5.859   4.899   4.564 -0.3107  0.1364  0.4548
  176MOL0     C23132   5.743   4.819   4.589 -0.4108  0.0288  0.3501
  176MOL0     C23133   5.623   4.883   4.638  0.5333  0.5948 -0.2796
  176MOL0     C23134   5.618   5.022   4.659 -0.4160  0.4527  0.2305
  176MOL0     O23135   5.496   5.072   4.693 -0.3864 -0.3133 -0.1184
  176MOL0     C23136   5.487   5.211   4.704 -0.2406  0.0469  1.1234
  176MOL0     C23137   5.346   5.273   4.726 -0.1856 -0.4863 -0.1255
  176MOL0     C23138   5.277   5.283   4.592  1.0551  0.0149 -0.0635
  176MOL0     C23139   5.125   5.300   4.620  0.1431 -0.4803 -0.3150
  176MOL0     C23140   5.033   5.285   4.494  0.2356  0.0056 -0.7208
  176MOL0     C23141   5.041   5.394   4.389 -0.3657  0.3256  0.4024
  176MOL0     C23142   4.956   5.365   4.262 -0.4370  0.0316  0.3307
  176MOL0     C23143   4.817   5.298   4.290  0.1554 -0.7282  0.2068
  176MOL0    Cl23144   4.728   5.420   4.376  0.1106 -0.0264 -0.2486
  176MOL0     C23145   5.738   5.099   4.639 -0.1441 -0.0709 -0.4653
  176MOL0     C23146   5.861   5.039   4.598 -0.3622 -0.1378  0.1290
  176MOL0     O23147   6.036   4.709   4.654  0.5669 -0.0419 -0.4124
  176MOL0     C23148   6.234   4.608   4.477 -0.7525 -0.3700 -0.6216
  176MOL0     C23149   6.349   4.570   4.408  0.2197 -0.5671  0.6888
  176MOL0     N23150   6.821   3.999   4.141  0.0197  0.6221  0.0611
  176MOL0     N23151   6.911   3.912   4.191  0.1022 -0.6467 -0.1919
  176MOL0     C23152   7.645   3.562   3.328  0.3913  0.5532  0.2125
  176MOL0     C23153   7.747   3.591   3.238  0.8513 -1.1217  0.0927
  176MOL0     C23154   8.136   3.687   3.044 -0.3498 -0.0908 -0.8380
  176MOL0     C23155   8.244   3.601   3.014  0.9843  1.0807  0.6243
  176MOL0     C23156   8.321   3.629   2.898  0.3883  0.0447 -0.1939
  176MOL0     C23157   8.291   3.736   2.810  0.3165  0.5688 -0.4979
  176MOL0     O23158   8.365   3.773   2.706 -0.0592  0.4845 -0.2195
  176MOL0     C23159   8.469   3.687   2.670 -0.3099  0.6035  0.9362
  176MOL0     C23160   8.557   3.748   2.557  0.0162  0.1876 -0.7706
  176MOL0     C23161   8.678   3.656   2.534 -0.7629 -0.3410 -0.2841
  176MOL0     C23162   8.751   3.696   2.399  0.1150  0.1734 -0.0901
  176MOL0     C23163   8.796   3.835   2.407  0.1135  0.3265 -0.5808
  176MOL0     C23164   8.823   3.948   2.427  0.7491  0.2509 -0.0152
  176MOL0     C23165   8.176   3.808   2.831  0.7715 -0.5964  0.0455
  176MOL0     C23166   8.101   3.785   2.948  0.3255  0.5166 -1.0971
  176MOL0     H23167   7.931   3.794   3.429 -1.9850  2.1753 -1.9438
  176MOL0     H23168   7.770   3.732   3.593  2.4504 -0.9155  0.5675
  176MOL0     H23169   7.484   3.749   3.603 -0.3394  0.3912 -0.3984
  176MOL0     H23170   7.614   3.694   3.716 -1.1669 -1.6246  0.5478
  176MOL0     H23171   7.488   3.539   3.825 -1.6742  1.3739  1.8328
  176MOL0     H23172   7.346   3.556   3.705 -1.2437  2.2572 -0.2637
  176MOL0     H23173   7.308   3.766   3.776 -0.6182 -0.8824 -0.0311
  176MOL0     H23174   7.457   3.781   3.882 -1.5340  0.5893  0.9760
  176MOL0     H23175   7.216   3.599   3.916 -0.8275  1.1410  0.4877
  176MOL0     H23176   7.366   3.581   4.010 -0.7897 -1.9026 -0.0313
  176MOL0     H23177   7.202   3.828   3.989 -1.5271 -0.2265 -0.0463
  176MOL0     H23178   7.349   3.803   4.096 -0.8504 -0.3824  1.4624
  176MOL0     H23179   7.205   3.602   4.195  2.0032  0.6374 -1.0097
  176MOL0     H23180   7.066   3.690   4.119 -0.2272 -0.9367  0.5452
  176MOL0     H23181   7.048   3.760   4.341 -0.4387  0.1705 -0.2814
  176MOL0     H23182   7.223   3.764   4.366 -0.7361 -0.4732  0.0978
  176MOL0     H23183   7.231   3.963   4.202  1.8049 -2.9398  1.2014
  176MOL0     H23184   7.152   4.002   4.362  0.3742 -1.9094  0.9621
  176MOL0     H23185   7.066   4.205   4.204  1.8770 -0.8362 -2.0323
  176MOL0     H23186   6.712   4.209   4.025  1.4011 -0.7330 -0.8933
  176MOL0     H23187   6.854   4.304   4.014 -3.2643  2.2216 -1.7383
  176MOL0     H23188   6.838   4.415   4.232  0.5693 -0.2208  0.9042
  176MOL0     H23189   6.732   4.291   4.297 -5.3028 -0.6485 -0.9490
  176MOL0     H23190   6.677   4.487   4.066  0.0178 -0.3330 -0.9359
  176MOL0     H23191   6.553   4.372   4.132  0.6228 -1.3128 -0.8475
  176MOL0     H23192   6.709   4.577   4.302  0.7457 -0.5462  0.1944
  176MOL0     H23193   6.580   4.479   4.361  0.0734 -0.2887 -1.1584
  176MOL0     H23194   6.396   4.868   4.247 -2.5099  1.1366  0.7826
  176MOL0     H23195   6.197   4.925   4.367 -1.3982 -0.1958 -0.4478
  176MOL0     H23196   5.749   4.711   4.580 -1.3654  0.0226 -0.3146
  176MOL0     H23197   5.535   4.824   4.659  1.5443 -0.1689  2.0731
  176MOL0     H23198   5.519   5.252   4.607  0.5191  0.2717  1.4615
  176MOL0     H23199   5.541   5.258   4.787  0.5681 -0.4330  0.8829
  176MOL0     H23200   5.369   5.372   4.766  2.0095 -0.3848 -1.4683
  176MOL0     H23201   5.298   5.213   4.804 -0.6655 -0.4227 -0.3667
  176MOL0     H23202   5.281   5.199   4.523 -4.9291  0.1827 -1.1439
  176MOL0     H23203   5.320   5.369   4.539 -2.3151  1.6533 -0.4521
  176MOL0     H23204   5.107   5.219   4.692  4.1313 -0.2449  1.2159
  176MOL0     H23205   5.109   5.392   4.676 -0.9777  1.3277 -3.3972
  176MOL0     H23206   4.930   5.285   4.532  1.1798 -1.9872  2.2730
  176MOL0     H23207   5.045   5.187   4.448  2.9991  0.4207 -1.0374
  176MOL0     H23208   5.147   5.404   4.362  0.0100 -3.4905 -0.2039
  176MOL0     H23209   5.006   5.478   4.448 -1.2597  0.4927 -0.3407
  176MOL0     H23210   4.936   5.446   4.192 -0.5400 -2.1462 -2.3114
  176MOL0     H23211   5.005   5.292   4.197 -2.1139 -2.2846  1.5070
  176MOL0     H23212   4.824   5.210   4.354  0.2410 -0.1485  1.0071
  176MOL0     H23213   4.766   5.275   4.196  0.4887  0.9781 -0.4354
  176MOL0     H23214   5.744   5.207   4.645  5.3272  0.0170 -1.8370
  176MOL0     H23215   5.936   5.113   4.572 -0.4057  0.1093  0.6928
  176MOL0     H23216   6.193   4.539   4.551  0.2051 -0.2783  0.0147
  176MOL0     H23217   6.378   4.466   4.420 -0.4719 -0.6800  1.5029
  176MOL0     H23218   7.560   3.500   3.301  0.1606  0.1270  1.8352
  176MOL0     H23219   7.748   3.541   3.141  0.3474  0.4933 -0.7761
  176MOL0     H23220   8.266   3.515   3.077 -1.1006 -1.6071 -2.0388
  176MOL0     H23221   8.403   3.560   2.882  1.1044  0.8486 -0.0283
  176MOL0     H23222   8.430   3.591   2.636 -1.6688  1.9047 -1.4841
  176MOL0     H23223   8.541   3.672   2.750  4.0158  1.9791 -2.2851
  176MOL0     H23224   8.507   3.751   2.459  0.9049 -1.7740 -1.3318
  176MOL0     H23225   8.595   3.845   2.588  2.4486 -1.7054  2.9040
  176MOL0     H23226   8.627   3.561   2.515 -3.1997  0.7708  0.3008
  176MOL0     H23227   8.755   3.662   2.613 -2.9124  0.7915  1.8571
  176MOL0     H23228   8.837   3.633   2.375  0.1118 -0.1216  0.6386
  176MOL0     H23229   8.681   3.685   2.316  1.1696  0.4843 -1.0303
  176MOL0     H23230   8.853   4.050   2.439  0.4634  0.5854 -1.8479
  176MOL0     H23231   8.137   3.866   2.747  2.9901  0.2418 -0.4732
  176MOL0     H23232   8.009   3.841   2.960 -1.4037 -1.6157 -3.2841
  177MOL0     O23233   6.499   5.794  11.187 -0.3241 -0.0290  0.0131
  177MOL0     C23234   6.575   5.711  11.137 -1.0778  0.5585 -0.3384
  177MOL0     O23235   6.537   5.584  11.100  0.4584  0.5975 -0.3684
  177MOL0     C23236   6.410   5.539  11.132 -0.0868 -0.0559  0.0273
  177MOL0     C23237   6.299   5.572  11.056 -0.6545 -0.2797  0.1992
  177MOL0     C23238   6.169   5.530  11.086 -0.4727  0.3938  0.1720
  177MOL0     C23239   6.151   5.444  11.186 -0.8619 -0.3529  0.7358
  177MOL0     O23240   6.036   5.369  11.215 -0.6348 -0.1224 -0.4619
  177MOL0     C23241   5.920   5.384  11.140 -0.4800  0.0032  0.5344
  177MOL0     C23242   5.862   5.244  11.132 -0.8728 -0.8531 -0.2759
  177MOL0     C23243   5.717   5.234  11.082 -0.3564  0.2607 -0.1075
  177MOL0     C23244   5.659   5.092  11.092 -0.0993 -0.8389 -0.2480
  177MOL0     C23245   5.526   5.078  11.040  0.4510  0.3567  0.5406
  177MOL0     C23246   5.483   4.929  11.048 -0.1239  0.0586  0.6149
  177MOL0     C23247   5.350   4.901  10.969 -0.3083 -0.9847 -0.0518
  177MOL0     C23248   5.238   5.010  10.978  0.6367 -0.3478 -0.0857
  177MOL0     N23249   5.120   4.975  10.901 -0.1392  0.1721 -0.0306
  177MOL0     C23250   5.079   5.038  10.783  0.7284 -0.1944  0.0864
  177MOL0     C23251   4.974   4.968  10.737  0.9759 -0.3505  1.5258
  177MOL0     C23252   4.896   5.001  10.614 -0.3707 -0.3874  0.9266
  177MOL0     C23253   4.760   4.930  10.615  0.5450 -0.2709 -0.3298
  177MOL0     C23254   4.683   4.947  10.478  0.6292 -0.1744 -0.1717
  177MOL0     C23255   4.546   5.018  10.489  0.0253  0.2891 -0.4142
  177MOL0     O23256   4.479   5.009  10.359  0.0300 -0.6229 -0.0760
  177MOL0     C23257   4.347   5.010  10.374  0.4277  0.3178  0.4001
  177MOL0     C23258   4.269   5.118  10.417 -0.3702 -0.5086  0.0978
  177MOL0     C23259   4.126   5.105  10.416 -0.0829 -0.4444 -0.1844
  177MOL0     C23260   4.060   4.988  10.375 -0.4185  0.1133 -0.5190
  177MOL0     C23261   3.914   4.964  10.377 -0.4723 -0.7136  0.6766
  177MOL0     O23262   3.869   4.835  10.346 -0.1339 -0.2013 -0.2993
  177MOL0     C23263   3.740   4.828  10.339  0.5939  0.3927  0.9477
  177MOL0     C23264   3.681   4.802  10.213 -0.3784  0.8237 -0.0140
  177MOL0     C23265   3.541   4.784  10.195 -0.3019 -0.4768 -0.7925
  177MOL0     C23266   3.455   4.799  10.301 -0.2671 -0.2984  0.6124
  177MOL0     O23267   3.316   4.802  10.269 -0.2195  0.0188  0.2286
  177MOL0     C23268   3.219   4.787  10.372 -0.2960 -0.2764 -0.6408
  177MOL0     C23269   3.088   4.776  10.304  0.8282 -1.0179 -0.2019
  177MOL0     C23270   2.986   4.872  10.355 -0.0511  0.0598 -0.5949
  177MOL0     C23271   2.849   4.840  10.290 -0.4600 -0.3926 -0.6268
  177MOL0     C23272   2.742   4.904  10.371 -0.5617 -0.0982  0.1827
  177MOL0     C23273   2.604   4.869  10.314  0.1511 -0.3716  0.5986
  177MOL0     C23274   2.556   4.947  10.187  0.2050 -0.0703 -0.2007
  177MOL0     C23275   2.428   4.889  10.117 -0.2809  0.5801  0.6000
  177MOL0    Cl23276   2.299   4.908  10.240  0.2124  0.0950  0.7549
  177MOL0     C23277   3.507   4.830  10.427 -0.4891  0.6925  0.2263
  177MOL0     C23278   3.649   4.835  10.451 -0.3064  0.7448 -0.4197
  177MOL0     O23279   3.847   5.053  10.431 -0.2878 -0.4118 -0.3120
  177MOL0     C23280   4.142   4.881  10.332  0.6844 -0.0801 -0.7879
  177MOL0     C23281   4.277   4.895  10.328 -0.1889  0.1847 -0.5696
  177MOL0     N23282   4.950   4.869  10.831  0.1913 -0.0030 -0.0421
  177MOL0     N23283   5.036   4.863  10.914 -0.8908  0.3351  0.1373
  177MOL0     C23284   6.266   5.405  11.258  1.0222  0.1321  0.1607
  177MOL0     C23285   6.397   5.454  11.235  0.3935 -0.5140  0.6217
  177MOL0     C23286   6.720   5.743  11.114 -0.1027 -0.0354  0.7570
  177MOL0     C23287   6.782   5.872  11.132  0.5418  0.9941 -0.4363
  177MOL0     C23288   6.914   5.890  11.115  0.0702 -0.9310 -0.9346
  177MOL0     C23289   6.991   5.791  11.066  0.0128  0.4816 -0.0330
  177MOL0     O23290   7.127   5.798  11.035 -0.3353 -0.1111  0.7328
  177MOL0     C23291   7.184   5.931  11.047 -0.0082  0.1701 -0.0646
  177MOL0     C23292   7.317   5.922  10.966  0.5589 -0.1700  0.1378
  177MOL0     C23293   7.425   6.019  11.025  0.6039 -0.2714  0.5045
  177MOL0     C23294   7.572   5.991  10.994 -0.3555  0.9183  0.4265
  177MOL0     C23295   7.607   5.863  11.053 -0.5036  0.3585  0.4022
  177MOL0     C23296   7.646   5.752  11.091  0.1342 -0.2524  0.1770
  177MOL0     C23297   6.935   5.667  11.032 -0.0385  0.4937 -0.3138
  177MOL0     C23298   6.798   5.640  11.047 -0.0873  0.0678  0.0099
  177MOL0     H23299   6.320   5.639  10.973 -3.2300 -0.7701 -0.9765
  177MOL0     H23300   6.089   5.578  11.032 -0.1593  0.5617 -0.1510
  177MOL0     H23301   5.945   5.415  11.038 -0.8435  2.0705  1.0387
  177MOL0     H23302   5.845   5.449  11.186 -1.3834 -1.3297  1.0151
  177MOL0     H23303   5.865   5.214  11.237  2.6296 -0.8244 -0.2293
  177MOL0     H23304   5.932   5.187  11.071 -0.4677 -0.7674  0.1023
  177MOL0     H23305   5.714   5.257  10.975 -1.8686  0.2132 -0.0960
  177MOL0     H23306   5.649   5.297  11.140  0.5883  0.3507  0.9336
  177MOL0     H23307   5.726   5.024  11.038 -0.5578 -1.2465 -0.3092
  177MOL0     H23308   5.659   5.055  11.195 -0.3911 -0.7828 -0.2278
  177MOL0     H23309   5.514   5.115  10.938 -2.1219 -1.6652 -0.0085
  177MOL0     H23310   5.458   5.127  11.111 -2.6659  0.8331 -2.4932
  177MOL0     H23311   5.463   4.910  11.154  2.4961 -1.3619  0.9472
  177MOL0     H23312   5.559   4.862  11.006 -1.0327  0.7735 -2.4500
  177MOL0     H23313   5.381   4.913  10.864 -0.0378  0.3187  0.1592
  177MOL0     H23314   5.315   4.800  10.993  0.8002 -0.6132  3.6223
  177MOL0     H23315   5.267   5.109  10.941 -0.9117 -0.3158 -1.3045
  177MOL0     H23316   5.207   5.012  11.083 -0.5639 -1.4121 -0.4069
  177MOL0     H23317   5.127   5.119  10.730 -0.2194  0.7086  0.5785
  177MOL0     H23318   4.949   4.978  10.520 -0.8971  1.4235  0.1479
  177MOL0     H23319   4.874   5.108  10.615  0.8180 -0.0917 -0.4840
  177MOL0     H23320   4.702   4.966  10.701  0.7611 -2.8442  1.0101
  177MOL0     H23321   4.772   4.822  10.624  0.2917 -0.1918  1.1538
  177MOL0     H23322   4.739   4.998  10.400 -1.6559  0.5636 -1.3912
  177MOL0     H23323   4.666   4.849  10.431 -1.0992  0.6481 -1.3411
  177MOL0     H23324   4.556   5.121  10.524  1.4063 -0.7090  2.4140
  177MOL0     H23325   4.490   4.962  10.565  0.4259  1.8929  1.1137
  177MOL0     H23326   4.316   5.214  10.439  2.4323 -1.8846  0.5532
  177MOL0     H23327   4.068   5.189  10.451  0.2293 -1.1175  2.1463
  177MOL0     H23328   3.744   4.808  10.125  0.6811  3.0719  0.8169
  177MOL0     H23329   3.499   4.772  10.095  1.1081 -0.0543 -1.4644
  177MOL0     H23330   3.221   4.875  10.438  1.7206 -0.5090 -0.3113
  177MOL0     H23331   3.245   4.699  10.431 -2.5049 -0.5955 -0.0795
  177MOL0     H23332   3.036   4.680  10.314  1.6871 -1.8727 -3.0828
  177MOL0     H23333   3.090   4.802  10.198  0.4706  4.1029  0.8071
  177MOL0     H23334   3.014   4.977  10.339 -0.8572  0.4798  0.5623
  177MOL0     H23335   2.977   4.867  10.464  2.1106  1.8348 -0.2653
  177MOL0     H23336   2.846   4.873  10.186  2.5151 -0.0137 -0.6926
  177MOL0     H23337   2.831   4.733  10.285 -0.1270 -0.4243 -1.3872
  177MOL0     H23338   2.759   5.012  10.373  0.6522 -0.2644 -0.4443
  177MOL0     H23339   2.743   4.879  10.477 -1.0564 -0.0926  0.1888
  177MOL0     H23340   2.531   4.888  10.393  0.3091  1.3694  0.3686
  177MOL0     H23341   2.603   4.763  10.286 -0.7207 -0.4535  0.9075
  177MOL0     H23342   2.546   5.051  10.219  0.8812 -0.3659  1.0494
  177MOL0     H23343   2.639   4.948  10.115 -2.4896  0.5469 -3.5744
  177MOL0     H23344   2.451   4.785  10.092 -0.4623  1.2899 -3.0953
  177MOL0     H23345   2.404   4.939  10.022  1.1757  1.4979  0.6808
  177MOL0     H23346   3.432   4.854  10.502 -1.9385 -1.4216 -0.4350
  177MOL0     H23347   3.681   4.872  10.548  2.4309 -1.0564 -0.5448
  177MOL0     H23348   4.103   4.784  10.301  1.9951 -0.8753 -0.0520
  177MOL0     H23349   4.325   4.810  10.281  0.8458  0.5396 -0.1863
  177MOL0     H23350   6.247   5.327  11.331 -0.8310 -3.0270 -3.3399
  177MOL0     H23351   6.479   5.419  11.297  1.1480  0.7644  0.3624
  177MOL0     H23352   6.715   5.950  11.166 -1.4097 -0.1711 -1.4301
  177MOL0     H23353   6.958   5.980  11.157 -1.0431  0.7319 -3.1295
  177MOL0     H23354   7.212   5.950  11.151 -2.1979  0.4192  0.5293
  177MOL0     H23355   7.129   6.012  10.997  0.7253  0.2601 -0.7324
  177MOL0     H23356   7.349   5.818  10.976  1.2163  0.1106  1.1547
  177MOL0     H23357   7.300   5.934  10.859  1.3350 -0.1600  0.0154
  177MOL0     H23358   7.407   6.003  11.132 -0.2711 -4.7938 -0.1041
  177MOL0     H23359   7.398   6.118  10.989  0.5932 -1.0568 -1.7819
  177MOL0     H23360   7.598   5.987  10.888 -0.8053  0.3534  0.3302
  177MOL0     H23361   7.633   6.070  11.038 -1.5226  2.5301 -0.7359
  177MOL0     H23362   7.688   5.666  11.139 -0.7217  0.0883  1.5819
  177MOL0     H23363   6.995   5.593  10.981 -1.0926 -1.6481  1.4092
  177MOL0     H23364   6.749   5.550  11.010 -3.2376  1.4151  0.5483
  178MOL0     O23365   9.441   4.899   8.871  0.2040 -0.5902  0.1339
  178MOL0     C23366   9.414   4.780   8.862 -0.5729 -0.4097 -0.5304
  178MOL0     O23367   9.286   4.732   8.868  1.2658  0.6199  0.4187
  178MOL0     C23368   9.186   4.824   8.871  0.4857 -0.2771  0.4414
  178MOL0     C23369   9.118   4.861   8.756 -0.1137 -0.1009 -0.0877
  178MOL0     C23370   9.004   4.937   8.763 -0.6218  0.4400 -0.4522
  178MOL0     C23371   8.956   4.986   8.879  0.2751  0.4171 -0.7517
  178MOL0     O23372   8.854   5.074   8.893  0.0096  0.7804  0.0188
  178MOL0     C23373   8.742   5.018   8.960 -0.0671  0.7837  0.2439
  178MOL0     C23374   8.619   5.062   8.891  0.6025  0.2436  0.1031
  178MOL0     C23375   8.594   4.988   8.752 -0.2820  0.1380  0.1935
  178MOL0     C23376   8.500   5.066   8.668 -0.7403  0.2766 -0.1310
  178MOL0     C23377   8.490   4.995   8.536  0.1522 -0.1763  0.2889
  178MOL0     C23378   8.408   4.863   8.530  1.6220  0.2660  1.0406
  178MOL0     C23379   8.405   4.815   8.383  0.8317  0.4123 -0.2524
  178MOL0     C23380   8.282   4.721   8.375  0.7676  0.3848 -0.0921
  178MOL0     N23381   8.303   4.612   8.473  0.4566 -1.0848 -0.0944
  178MOL0     C23382   8.228   4.597   8.592 -0.3245 -0.1403  0.6509
  178MOL0     C23383   8.265   4.478   8.644 -0.5836 -0.4654 -0.0268
  178MOL0     C23384   8.204   4.402   8.752  0.6621  0.2908  0.3432
  178MOL0     C23385   8.280   4.371   8.885 -0.8449 -0.6814  0.1792
  178MOL0     C23386   8.195   4.293   8.985 -0.1527  0.6763 -0.5171
  178MOL0     C23387   8.258   4.292   9.123  0.2021  0.9340 -0.5695
  178MOL0     O23388   8.163   4.279   9.226  0.4351 -0.5307 -0.3392
  178MOL0     C23389   8.192   4.322   9.355  0.5634  0.3015 -0.1593
  178MOL0     C23390   8.305   4.377   9.403  0.3820 -0.7402 -0.0813
  178MOL0     C23391   8.316   4.420   9.541  0.1164 -0.4491  0.7745
  178MOL0     C23392   8.203   4.418   9.621  1.1325 -0.6148 -0.5769
  178MOL0     C23393   8.201   4.459   9.763 -0.4197 -0.1525  0.1186
  178MOL0     O23394   8.097   4.416   9.841  0.5349 -0.2455 -0.5405
  178MOL0     C23395   8.081   4.482   9.958  0.2834  0.1440  0.2998
  178MOL0     C23396   8.169   4.469  10.062 -0.2817  0.7847 -0.0393
  178MOL0     C23397   8.155   4.534  10.185  1.1365 -1.1617  0.9432
  178MOL0     C23398   8.041   4.612  10.206  0.0206 -0.3233 -0.1430
  178MOL0     O23399   8.020   4.662  10.332 -0.2340 -0.0822 -0.0299
  178MOL0     C23400   7.894   4.730  10.367  0.5728 -0.1603  0.1988
  178MOL0     C23401   7.773   4.633  10.385 -1.3679 -0.2424 -0.0378
  178MOL0     C23402   7.682   4.699  10.477 -0.2512 -0.3653  0.0653
  178MOL0     C23403   7.556   4.621  10.488  0.3115 -0.0251 -0.1007
  178MOL0     C23404   7.488   4.659  10.623  0.4206 -0.3546  0.6680
  178MOL0     C23405   7.350   4.607  10.639 -0.4798  0.0609 -0.2996
  178MOL0     C23406   7.305   4.601  10.787 -0.5267  0.1765  0.7926
  178MOL0     C23407   7.152   4.608  10.809  0.1760  0.6235 -0.6602
  178MOL0    Cl23408   7.071   4.473  10.749  0.5456  0.2271 -0.3353
  178MOL0     C23409   7.956   4.639  10.098  0.7778 -0.1920  0.4574
  178MOL0     C23410   7.976   4.574   9.976  0.3882  0.0717 -0.0641
  178MOL0     O23411   8.306   4.503   9.805 -0.5778 -0.3678  0.0281
  178MOL0     C23412   8.089   4.369   9.564 -0.0775 -0.1659 -0.2856
  178MOL0     C23413   8.079   4.314   9.437  0.3753 -0.0631 -0.0402
  178MOL0     N23414   8.368   4.433   8.552 -0.4979 -0.4682  0.0748
  178MOL0     N23415   8.385   4.510   8.458  0.2116  0.1491 -0.1790
  178MOL0     C23416   9.018   4.951   8.999 -0.9139  0.2533  0.0329
  178MOL0     C23417   9.142   4.878   8.994  0.6280  0.3878 -0.6134
  178MOL0     C23418   9.524   4.676   8.861 -0.5025  0.1570  0.4202
  178MOL0     C23419   9.503   4.543   8.896  0.5395 -0.1411  0.4213
  178MOL0     C23420   9.606   4.453   8.900 -0.5988  0.5109 -0.4050
  178MOL0     C23421   9.740   4.491   8.891 -0.1436  0.2309 -0.4018
  178MOL0     O23422   9.840   4.397   8.912 -0.7587  0.2271  0.6388
  178MOL0     C23423   9.981   4.451   8.911 -0.0096 -0.0405  0.0246
  178MOL0     C23424  10.090   4.351   8.942  0.0115 -0.3585 -0.4208
  178MOL0     C23425  10.075   4.213   8.873 -0.1019 -0.0827 -0.1712
  178MOL0     C23426  10.180   4.116   8.946  0.4494 -0.6167  0.4137
  178MOL0     C23427  10.160   3.980   8.904  0.8444  0.3053 -0.3731
  178MOL0     C23428  10.135   3.860   8.874 -0.9789 -0.6671 -0.4600
  178MOL0     C23429   9.757   4.630   8.863 -0.5724  0.6513 -0.4369
  178MOL0     C23430   9.651   4.720   8.846 -0.3089  0.0011  0.4866
  178MOL0     H23431   9.143   4.817   8.660  0.0016  0.8913 -0.5178
  178MOL0     H23432   8.950   4.956   8.671  0.1657 -0.5616 -1.1440
  178MOL0     H23433   8.730   5.046   9.065 -1.3113  0.5866  0.1701
  178MOL0     H23434   8.729   4.909   8.959 -2.5790  1.0374  0.0554
  178MOL0     H23435   8.619   5.171   8.881 -2.3692  0.3143 -0.1076
  178MOL0     H23436   8.531   5.046   8.954  0.6726  0.4644  0.2608
  178MOL0     H23437   8.543   4.896   8.785  0.8394 -0.7072 -0.3455
  178MOL0     H23438   8.683   4.945   8.705 -0.8069  0.7861 -1.4522
  178MOL0     H23439   8.403   5.073   8.718  0.3419  0.0273  2.1019
  178MOL0     H23440   8.521   5.172   8.650 -2.3667  0.2447 -2.8129
  178MOL0     H23441   8.592   4.973   8.502 -1.0603 -0.8773 -3.3454
  178MOL0     H23442   8.448   5.065   8.464  1.4949 -0.1110 -0.4697
  178MOL0     H23443   8.305   4.871   8.567  1.5236  0.3237  0.7584
  178MOL0     H23444   8.448   4.788   8.598  1.2373  0.7835  1.8494
  178MOL0     H23445   8.373   4.893   8.312 -2.9949  1.2137  2.0623
  178MOL0     H23446   8.495   4.765   8.347 -0.9723 -2.6644 -0.7800
  178MOL0     H23447   8.277   4.679   8.275  0.4455 -2.5427  1.0544
  178MOL0     H23448   8.195   4.785   8.397 -0.5360 -0.9548 -1.1404
  178MOL0     H23449   8.159   4.673   8.627  0.7422  2.0591 -1.6724
  178MOL0     H23450   8.183   4.304   8.708  1.3788  0.6077 -0.7371
  178MOL0     H23451   8.105   4.447   8.767  1.0110  1.9791 -1.9117
  178MOL0     H23452   8.313   4.463   8.933 -0.2260 -1.3392  1.0363
  178MOL0     H23453   8.365   4.319   8.840  0.4311  0.6452  0.9867
  178MOL0     H23454   8.102   4.350   8.980 -1.6605 -1.6228 -0.3547
  178MOL0     H23455   8.188   4.188   8.953  0.8091  0.9024 -1.5517
  178MOL0     H23456   8.316   4.384   9.133  2.0484 -0.3571  1.9057
  178MOL0     H23457   8.325   4.208   9.144 -2.9605 -1.3797  1.0860
  178MOL0     H23458   8.390   4.373   9.337  0.2508 -2.5829 -0.1911
  178MOL0     H23459   8.406   4.460   9.587 -2.2714  2.2248  3.5924
  178MOL0     H23460   8.249   4.397  10.049 -0.6873  0.3177  0.0349
  178MOL0     H23461   8.218   4.527  10.272  1.2237  0.2857  1.0229
  178MOL0     H23462   7.863   4.806  10.295 -0.0013 -1.4273 -0.9253
  178MOL0     H23463   7.917   4.771  10.466 -1.3426 -0.1595  0.6904
  178MOL0     H23464   7.791   4.532  10.423 -1.3787  0.0445  0.7461
  178MOL0     H23465   7.725   4.612  10.289 -1.8222  0.0008  0.1354
  178MOL0     H23466   7.659   4.798  10.436  1.4653  0.5444  1.1289
  178MOL0     H23467   7.730   4.700  10.575 -0.8643  0.1462  0.3675
  178MOL0     H23468   7.484   4.623  10.406  0.3311 -0.0932 -0.1196
  178MOL0     H23469   7.578   4.514  10.485 -0.2166 -0.1204 -1.4095
  178MOL0     H23470   7.489   4.766  10.642  1.5011 -0.6217  2.3479
  178MOL0     H23471   7.550   4.619  10.705  0.3297 -1.5032  0.2025
  178MOL0     H23472   7.349   4.503  10.603 -0.1073 -0.1222  0.2119
  178MOL0     H23473   7.289   4.676  10.580  0.8063  1.9127  0.4608
  178MOL0     H23474   7.349   4.516  10.840 -2.3270 -1.8406 -0.7166
  178MOL0     H23475   7.351   4.687  10.835  1.0549  0.6465 -1.4024
  178MOL0     H23476   7.123   4.702  10.761  2.5275  2.1889  0.7507
  178MOL0     H23477   7.132   4.613  10.917 -1.5452 -2.0242 -0.7692
  178MOL0     H23478   7.872   4.708  10.095 -0.7037 -1.8674  1.4913
  178MOL0     H23479   7.908   4.597   9.895 -0.9611  0.8232  1.2415
  178MOL0     H23480   7.994   4.362   9.616  0.2563 -0.9128  0.2283
  178MOL0     H23481   7.984   4.281   9.396  0.1173  0.6063  0.0030
  178MOL0     H23482   8.965   4.976   9.091 -5.2584 -2.6045 -1.3915
  178MOL0     H23483   9.186   4.853   9.090  1.5995 -1.9202 -1.6150
  178MOL0     H23484   9.401   4.508   8.909  0.3629  0.1256 -0.2006
  178MOL0     H23485   9.584   4.352   8.934  0.4407  0.3397 -0.2112
  178MOL0     H23486   9.994   4.527   8.988 -3.9828  0.0379  0.8293
  178MOL0     H23487   9.994   4.493   8.811 -1.4142  0.1069 -0.1231
  178MOL0     H23488  10.188   4.387   8.910  0.0829 -0.6344 -0.5138
  178MOL0     H23489  10.103   4.352   9.050  2.7475  3.1171 -0.6126
  178MOL0     H23490  10.092   4.227   8.766 -0.3185  0.2707 -0.1592
  178MOL0     H23491   9.979   4.168   8.899  0.1741  0.3969  1.8597
  178MOL0     H23492  10.284   4.148   8.934  0.3731  0.0110  1.3293
  178MOL0     H23493  10.163   4.121   9.054 -1.4486  1.0541  0.1076
  178MOL0     H23494  10.094   3.764   8.849 -1.1092 -0.9127  0.6374
  178MOL0     H23495   9.855   4.675   8.857 -0.0882 -0.1752  0.7650
  178MOL0     H23496   9.677   4.824   8.828  1.4915 -0.1884  1.7207
  179MOL0     O23497   6.276   7.738   2.757  0.7088  0.0051 -0.7337
  179MOL0     C23498   6.271   7.634   2.700 -0.2574 -0.7833  0.3085
  179MOL0     O23499   6.154   7.585   2.635  0.1944  0.8216  0.2505
  179MOL0     C23500   6.036   7.649   2.614 -0.0885 -0.8637 -0.5786
  179MOL0     C23501   5.954   7.596   2.519 -0.5502 -1.0248 -0.4534
  179MOL0     C23502   5.836   7.663   2.474  0.4951 -0.0499  0.5968
  179MOL0     C23503   5.795   7.777   2.542  0.8781 -0.0164  0.1239
  179MOL0     O23504   5.684   7.858   2.503  0.5200 -0.0712 -0.3972
  179MOL0     C23505   5.630   7.834   2.376  0.3463  0.1478 -0.5719
  179MOL0     C23506   5.546   7.958   2.342 -0.0433 -1.3501  0.1854
  179MOL0     C23507   5.493   7.948   2.196  0.2701 -0.0709 -0.0855
  179MOL0     C23508   5.413   8.069   2.166  0.0323 -0.0445 -1.0964
  179MOL0     C23509   5.347   8.068   2.021 -0.1208  0.2409  0.3337
  179MOL0     C23510   5.272   7.938   1.990 -0.3667 -0.0999 -0.6072
  179MOL0     C23511   5.167   7.958   1.885  0.5242  0.8862  0.5777
  179MOL0     C23512   5.223   7.975   1.740 -0.3481 -0.0193  0.0222
  179MOL0     N23513   5.108   7.992   1.656 -0.4218 -0.5387  0.2888
  179MOL0     C23514   5.064   8.107   1.594  0.0106 -0.0038  0.3418
  179MOL0     C23515   4.959   8.079   1.520  0.2520  1.1920  0.6675
  179MOL0     C23516   4.879   8.154   1.426 -0.1582 -0.4057 -0.4412
  179MOL0     C23517   4.874   8.087   1.297  0.6906 -1.0528  0.0277
  179MOL0     C23518   4.795   8.159   1.196  0.7392 -0.0220 -0.1685
  179MOL0     C23519   4.844   8.121   1.050 -0.0054 -0.5934  0.6938
  179MOL0     O23520   4.766   8.192   0.954 -0.2402 -0.0547 -0.0406
  179MOL0     C23521   4.641   8.145   0.938 -0.1597 -0.0860 -0.0483
  179MOL0     C23522   4.522   8.207   0.981 -1.6594  0.2658  0.5466
  179MOL0     C23523   4.396   8.153   0.946 -0.4687 -0.5029  0.2161
  179MOL0     C23524   4.391   8.040   0.861  0.4425 -0.0398  0.2422
  179MOL0     C23525   4.266   7.990   0.802  0.3180 -0.2403  0.0867
  179MOL0     O23526   4.158   8.070   0.817  0.1987 -0.7045  0.3043
  179MOL0     C23527   4.042   8.042   0.749  0.0635  0.2648  0.2614
  179MOL0     C23528   3.980   7.920   0.756 -0.4074 -0.1528 -0.5449
  179MOL0     C23529   3.858   7.908   0.678 -0.0355  0.2858  0.6428
  179MOL0     C23530   3.801   8.016   0.611 -1.2158 -0.0788 -1.1998
  179MOL0     O23531   3.681   8.016   0.544  0.1489 -0.3366 -0.1871
  179MOL0     C23532   3.575   7.928   0.595 -0.1534  0.2791  0.1807
  179MOL0     C23533   3.446   7.955   0.525 -0.6455  0.5616 -0.1773
  179MOL0     C23534   3.336   7.861   0.577 -0.7207  0.6078 -0.3312
  179MOL0     C23535   3.200   7.880   0.511  0.2418 -0.0616 -0.0696
  179MOL0     C23536   3.083   7.792   0.543 -0.2277 -0.3052 -0.2024
  179MOL0     C23537   3.101   7.656   0.479  0.0285 -0.8834 -1.3187
  179MOL0     C23538   2.991   7.556   0.517 -0.0772  0.0753  1.1168
  179MOL0     C23539   2.854   7.599   0.479 -0.7474  0.4712  0.0494
  179MOL0    Cl23540   2.749   7.459   0.503 -0.0333  0.6948 -0.4425
  179MOL0     C23541   3.870   8.137   0.616  0.0263  0.3757  0.2513
  179MOL0     C23542   3.987   8.153   0.684  0.2093  0.4124  0.1045
  179MOL0     O23543   4.269   7.884   0.733  0.0024  0.0972 -0.5424
  179MOL0     C23544   4.511   7.972   0.824  0.2438  0.2546 -0.7238
  179MOL0     C23545   4.629   8.033   0.859  0.1560 -0.0734  0.5614
  179MOL0     N23546   4.924   7.946   1.560 -0.3720 -0.2886 -0.1881
  179MOL0     N23547   5.008   7.899   1.642  0.4047  0.3520 -0.8036
  179MOL0     C23548   5.873   7.829   2.649 -0.0780  0.8012 -0.4754
  179MOL0     C23549   5.993   7.767   2.679 -0.0979  0.1792 -0.4862
  179MOL0     C23550   6.407   7.565   2.670  0.3676  0.4205  0.0744
  179MOL0     C23551   6.525   7.623   2.692  0.0407 -0.5445  0.8718
  179MOL0     C23552   6.647   7.549   2.684  0.1680 -0.5381  0.0635
  179MOL0     C23553   6.655   7.420   2.636  0.2736  0.5742  0.6469
  179MOL0     O23554   6.768   7.336   2.610 -0.7082 -0.2131 -0.1764
  179MOL0     C23555   6.903   7.385   2.613 -0.3586 -0.3350  0.4332
  179MOL0     C23556   6.982   7.304   2.717  0.6609 -0.1453  0.1374
  179MOL0     C23557   7.134   7.308   2.716 -0.1021 -0.1535 -0.4332
  179MOL0     C23558   7.193   7.198   2.804  0.0245  0.3696 -0.3962
  179MOL0     C23559   7.335   7.203   2.772 -0.2201  0.2395  0.0258
  179MOL0     C23560   7.457   7.201   2.764 -0.0216  0.2708  0.7663
  179MOL0     C23561   6.535   7.361   2.601 -0.0678  0.6351  0.1953
  179MOL0     C23562   6.408   7.429   2.617  0.2673 -0.8699 -0.1386
  179MOL0     H23563   5.983   7.500   2.478  0.4996 -0.4369 -1.1288
  179MOL0     H23564   5.783   7.615   2.392  1.2740  0.8109 -0.4330
  179MOL0     H23565   5.559   7.752   2.390 -0.0456  0.1211 -2.4128
  179MOL0     H23566   5.699   7.803   2.298  0.3165  3.8088 -2.2558
  179MOL0     H23567   5.594   8.053   2.365 -1.5563 -0.9274  1.8465
  179MOL0     H23568   5.463   7.955   2.413  0.2347 -1.3536  0.5131
  179MOL0     H23569   5.433   7.857   2.195  0.5235 -0.2407 -1.3044
  179MOL0     H23570   5.567   7.940   2.116 -2.2336 -3.2052 -2.3682
  179MOL0     H23571   5.326   8.060   2.232  0.8635 -1.5350 -0.1510
  179MOL0     H23572   5.470   8.159   2.188 -0.4000  0.3912 -1.7391
  179MOL0     H23573   5.419   8.071   1.938 -0.9075 -2.0957 -0.5200
  179MOL0     H23574   5.275   8.150   2.020  0.6515  1.0205 -2.7840
  179MOL0     H23575   5.226   7.911   2.085 -0.9895 -0.5474 -1.0301
  179MOL0     H23576   5.345   7.860   1.966  0.6441  0.4074  0.6629
  179MOL0     H23577   5.107   7.866   1.887  0.9464  0.5241 -1.4905
  179MOL0     H23578   5.095   8.037   1.910  0.8091  0.9434  1.2468
  179MOL0     H23579   5.268   7.882   1.705 -0.8514 -0.0106 -0.6668
  179MOL0     H23580   5.297   8.055   1.734 -1.2869  0.7565 -2.4908
  179MOL0     H23581   5.106   8.207   1.604  0.3773  0.1660 -2.2072
  179MOL0     H23582   4.921   8.254   1.408 -2.1522  0.5677 -0.0031
  179MOL0     H23583   4.775   8.151   1.460 -0.9468 -2.3478 -2.7465
  179MOL0     H23584   4.858   7.980   1.308  1.5778 -1.1428  0.5411
  179MOL0     H23585   4.978   8.095   1.265  1.2362  3.5368  2.1243
  179MOL0     H23586   4.691   8.130   1.217  0.9004  0.1246  0.8795
  179MOL0     H23587   4.793   8.267   1.215 -4.4936 -0.0967  1.4745
  179MOL0     H23588   4.828   8.015   1.029 -2.9543  0.4810 -3.7388
  179MOL0     H23589   4.951   8.138   1.035 -0.0588 -1.1722 -0.3608
  179MOL0     H23590   4.534   8.302   1.033 -0.8761  1.5864 -1.8933
  179MOL0     H23591   4.298   8.196   0.965 -1.5980 -1.1535 -3.4120
  179MOL0     H23592   4.035   7.842   0.809 -1.1292 -1.1883 -1.2714
  179MOL0     H23593   3.810   7.811   0.676 -0.2828  0.3947  1.1049
  179MOL0     H23594   3.562   7.944   0.703 -0.1099  3.2780 -0.1853
  179MOL0     H23595   3.603   7.826   0.566  0.7562  0.7201 -0.5386
  179MOL0     H23596   3.452   7.933   0.418  1.0108 -0.6950  0.1318
  179MOL0     H23597   3.421   8.061   0.538 -0.2005  0.3556  3.2363
  179MOL0     H23598   3.329   7.871   0.686  2.2154 -2.0650  0.2257
  179MOL0     H23599   3.364   7.756   0.566 -1.8155  0.4141 -1.4937
  179MOL0     H23600   3.174   7.984   0.530  1.9932  0.3279  0.3629
  179MOL0     H23601   3.222   7.873   0.404 -0.6768  1.9595 -0.4247
  179MOL0     H23602   2.984   7.833   0.522  0.4371  2.1231  1.0223
  179MOL0     H23603   3.080   7.782   0.652  2.6069  1.8084  0.1785
  179MOL0     H23604   3.190   7.611   0.523 -1.2024 -3.4358 -1.2161
  179MOL0     H23605   3.109   7.666   0.370 -0.9787 -1.4775 -1.4698
  179MOL0     H23606   3.020   7.475   0.449 -0.8403  2.2740 -2.0760
  179MOL0     H23607   3.003   7.524   0.621 -0.5283 -1.8446  0.6287
  179MOL0     H23608   2.853   7.616   0.371 -0.3744  1.5729  0.2067
  179MOL0     H23609   2.825   7.685   0.539 -1.3944  2.3117 -2.7229
  179MOL0     H23610   3.837   8.225   0.562  3.3038  0.7264 -1.4229
  179MOL0     H23611   4.038   8.249   0.690  0.8329  0.0237  1.3667
  179MOL0     H23612   4.523   7.890   0.754  0.9620 -0.0987 -0.1922
  179MOL0     H23613   4.711   7.969   0.828 -1.1795  0.0623 -3.9868
  179MOL0     H23614   5.867   7.930   2.687 -0.5137  0.2386  1.0374
  179MOL0     H23615   6.050   7.798   2.766  0.1231 -3.0217  0.6537
  179MOL0     H23616   6.535   7.726   2.726  0.0917 -0.7157  1.3800
  179MOL0     H23617   6.739   7.602   2.709  1.5672 -1.2410 -3.0735
  179MOL0     H23618   6.899   7.492   2.638  0.9126  0.7046 -3.1359
  179MOL0     H23619   6.950   7.381   2.514 -0.7954 -1.3109  0.2593
  179MOL0     H23620   6.943   7.318   2.818  1.5648  4.4174  0.0653
  179MOL0     H23621   6.960   7.202   2.683  0.6808 -0.3029  0.5871
  179MOL0     H23622   7.176   7.406   2.742 -1.0647 -0.0369  0.8225
  179MOL0     H23623   7.169   7.294   2.614 -0.2796  2.4652 -0.9147
  179MOL0     H23624   7.171   7.224   2.908  3.2767  0.1619  0.4262
  179MOL0     H23625   7.139   7.103   2.793 -0.7782  0.5726  1.4519
  179MOL0     H23626   7.564   7.205   2.756  0.0005 -0.7204  0.4438
  179MOL0     H23627   6.542   7.269   2.544  2.3089  1.3735 -0.8210
  179MOL0     H23628   6.317   7.381   2.583 -0.2266  1.6681 -2.8016
  180MOL0     O23629   2.940   0.106   3.592  0.5269  0.3533 -0.2162
  180MOL0     C23630   2.979   0.156   3.697 -0.7070  0.2367  0.0862
  180MOL0     O23631   2.908   0.207   3.794  0.4465 -0.3727  0.5756
  180MOL0     C23632   2.765   0.212   3.807 -0.6134 -0.5293  0.0806
  180MOL0     C23633   2.704   0.313   3.887 -0.0680  0.4033  0.0314
  180MOL0     C23634   2.563   0.313   3.903 -0.6836 -0.3009 -0.6547
  180MOL0     C23635   2.484   0.218   3.844 -1.8081 -0.5253  0.2631
  180MOL0     O23636   2.352   0.238   3.873  0.5559 -0.8334  0.1253
  180MOL0     C23637   2.248   0.180   3.799  0.3890  0.0688  0.8152
  180MOL0     C23638   2.167   0.286   3.717  0.6107 -0.2105  0.0202
  180MOL0     C23639   2.128   0.414   3.799  0.9226 -0.4414 -0.1132
  180MOL0     C23640   2.021   0.380   3.910 -0.6132 -0.2298  0.3993
  180MOL0     C23641   1.984   0.515   3.985  0.2798 -1.9245 -0.5308
  180MOL0     C23642   1.900   0.624   3.908  0.3289  0.2414  0.1546
  180MOL0     C23643   1.762   0.577   3.873  0.2420  0.0642 -0.4223
  180MOL0     C23644   1.670   0.696   3.840 -0.0684  0.2834  0.5836
  180MOL0     N23645   1.544   0.639   3.794  0.6511  0.3440  0.2560
  180MOL0     C23646   1.495   0.646   3.664 -0.2205 -0.1265 -0.1723
  180MOL0     C23647   1.363   0.623   3.682  0.0188  0.9988 -0.0455
  180MOL0     C23648   1.263   0.602   3.567 -0.3265  0.4611 -0.4773
  180MOL0     C23649   1.157   0.710   3.554 -1.1064 -0.2004  0.5141
  180MOL0     C23650   1.046   0.664   3.460 -0.2731 -0.5252 -0.3710
  180MOL0     C23651   1.081   0.668   3.312 -0.7934  0.7199 -0.2808
  180MOL0     O23652   1.161   0.562   3.266 -0.8737  1.0857  0.8472
  180MOL0     C23653   1.094   0.449   3.236  0.3656  0.1402  0.3232
  180MOL0     C23654   1.137   0.336   3.304 -0.7757 -0.3155  0.8623
  180MOL0     C23655   1.074   0.211   3.276  0.6558  0.4472 -0.5634
  180MOL0     C23656   0.971   0.200   3.178 -0.2240 -0.1816  0.7639
  180MOL0     C23657   0.901   0.075   3.158 -0.2552  0.2597 -0.5392
  180MOL0     O23658   0.941  -0.027   3.244 -0.2289 -0.0379  0.2784
  180MOL0     C23659   0.882  -0.147   3.220 -0.1533  0.4562 -0.3078
  180MOL0     C23660   0.824  -0.211   3.324  0.2770  0.1351  0.6009
  180MOL0     C23661   0.763  -0.336   3.308  0.4330 -0.0264  0.0841
  180MOL0     C23662   0.789  -0.417   3.188  0.6196 -0.2986 -0.4176
  180MOL0     O23663   0.748  -0.541   3.178 -0.6708 -0.1270 -0.1947
  180MOL0     C23664   0.775  -0.644   3.279 -0.3343  0.4780  0.1783
  180MOL0     C23665   0.716  -0.778   3.230 -0.4931 -0.0567 -0.4368
  180MOL0     C23666   0.765  -0.896   3.313 -0.7320 -0.1875 -0.9718
  180MOL0     C23667   0.706  -1.029   3.272 -0.6574  0.3646 -0.6686
  180MOL0     C23668   0.729  -1.076   3.125 -0.2922  0.4608 -0.3905
  180MOL0     C23669   0.871  -1.058   3.068 -0.3540 -0.2794 -0.3671
  180MOL0     C23670   0.888  -1.120   2.925  0.2150 -0.5867 -0.4569
  180MOL0     C23671   1.003  -1.059   2.850 -0.1744 -0.2332  0.3773
  180MOL0    Cl23672   1.000  -1.143   2.691  0.2765 -0.2865 -0.4068
  180MOL0     C23673   0.861  -0.355   3.085 -0.1737  0.1272 -0.8029
  180MOL0     C23674   0.898  -0.223   3.095 -0.8619 -0.1567  0.5925
  180MOL0     O23675   0.810   0.071   3.077  0.3563 -0.2728  0.1959
  180MOL0     C23676   0.934   0.317   3.110 -0.4299  0.0795 -0.1629
  180MOL0     C23677   0.990   0.443   3.144 -0.5695  0.0422  0.0320
  180MOL0     N23678   1.334   0.608   3.810  0.4551 -0.2768 -0.4252
  180MOL0     N23679   1.441   0.608   3.880  0.0850 -0.5707  0.3909
  180MOL0     C23680   2.537   0.118   3.757  0.0125  0.2164 -0.2721
  180MOL0     C23681   2.680   0.109   3.750 -0.2327 -0.5386 -0.7998
  180MOL0     C23682   3.121   0.180   3.705  0.6650  0.1052 -0.6678
  180MOL0     C23683   3.209   0.176   3.599 -0.0002 -0.1235 -0.2833
  180MOL0     C23684   3.346   0.207   3.615  0.5225 -0.7449 -0.2870
  180MOL0     C23685   3.388   0.248   3.739 -0.5416 -0.2178 -0.3155
  180MOL0     O23686   3.523   0.293   3.745 -0.0770 -0.1509  0.1617
  180MOL0     C23687   3.580   0.340   3.867  0.1888 -1.0100  0.2801
  180MOL0     C23688   3.731   0.368   3.856  0.4009 -0.0971  0.4905
  180MOL0     C23689   3.801   0.236   3.860 -1.4558  0.5754  0.5776
  180MOL0     C23690   3.939   0.228   3.796 -0.6894 -0.5863  0.1098
  180MOL0     C23691   3.996   0.098   3.807 -0.5710 -0.1740  0.0314
  180MOL0     C23692   4.041  -0.014   3.828 -1.0533 -0.6987 -0.2369
  180MOL0     C23693   3.300   0.256   3.852  0.0013  0.4469 -0.5261
  180MOL0     C23694   3.171   0.221   3.834 -0.4173  0.0190  0.4388
  180MOL0     H23695   2.767   0.390   3.932 -0.8244  0.7253  0.5506
  180MOL0     H23696   2.515   0.377   3.976 -1.2994 -1.6269  0.1394
  180MOL0     H23697   2.176   0.131   3.866 -0.6070  0.9516  0.4194
  180MOL0     H23698   2.275   0.095   3.736  0.1095 -0.3353  1.2297
  180MOL0     H23699   2.070   0.247   3.684  1.5417 -1.1827 -1.6675
  180MOL0     H23700   2.218   0.319   3.626 -2.2189  0.4644 -1.4521
  180MOL0     H23701   2.065   0.470   3.729  0.9273  1.4923  1.3774
  180MOL0     H23702   2.217   0.466   3.834  1.1544 -0.6056 -0.4448
  180MOL0     H23703   1.933   0.334   3.865  0.4794 -2.0595  0.0583
  180MOL0     H23704   2.061   0.308   3.982  0.6352 -0.9277 -0.9400
  180MOL0     H23705   2.080   0.556   4.017  0.9440 -2.3379 -1.9112
  180MOL0     H23706   1.927   0.478   4.071  2.5544 -0.1506  1.8903
  180MOL0     H23707   1.958   0.657   3.822  0.7794 -0.6067  0.1217
  180MOL0     H23708   1.888   0.709   3.977  1.2221 -0.1204  0.7727
  180MOL0     H23709   1.761   0.505   3.792  4.2127 -1.9427  1.0377
  180MOL0     H23710   1.715   0.535   3.963 -0.3136  3.4378  1.0379
  180MOL0     H23711   1.707   0.764   3.763  0.9181 -0.5935  0.2666
  180MOL0     H23712   1.653   0.751   3.933  0.5718  0.6245  0.4986
  180MOL0     H23713   1.550   0.671   3.573 -0.1031  0.0739 -0.0459
  180MOL0     H23714   1.223   0.500   3.579 -0.6505 -0.0884 -4.6997
  180MOL0     H23715   1.330   0.583   3.482  1.4181 -3.1424  1.4383
  180MOL0     H23716   1.206   0.802   3.521  0.4045 -0.9135  0.7244
  180MOL0     H23717   1.123   0.727   3.657  0.8125 -0.5980  1.2396
  180MOL0     H23718   1.020   0.563   3.493  0.9214 -0.4743  0.7778
  180MOL0     H23719   0.953   0.720   3.474 -0.2496 -0.9911  1.9964
  180MOL0     H23720   1.141   0.759   3.296  0.3819  0.0288  0.0893
  180MOL0     H23721   0.986   0.680   3.259 -1.2660 -0.0141  0.3881
  180MOL0     H23722   1.223   0.345   3.369 -0.1459  0.7113 -0.0904
  180MOL0     H23723   1.111   0.124   3.329  4.9903  1.3975 -1.6195
  180MOL0     H23724   0.804  -0.155   3.415 -2.5173 -0.1548  0.2380
  180MOL0     H23725   0.719  -0.379   3.397  0.4552 -0.9139 -0.3187
  180MOL0     H23726   0.728  -0.634   3.378  0.9074 -2.4965  1.1870
  180MOL0     H23727   0.882  -0.666   3.290 -0.2015 -0.2348 -2.1466
  180MOL0     H23728   0.740  -0.790   3.124  2.8993  1.3718  0.0532
  180MOL0     H23729   0.607  -0.783   3.240 -0.6877 -0.1038 -2.1941
  180MOL0     H23730   0.763  -0.896   3.423  2.1803 -1.9874 -0.8251
  180MOL0     H23731   0.872  -0.888   3.293 -0.9102 -0.5449 -2.1656
  180MOL0     H23732   0.751  -1.114   3.323 -1.3561  1.0649  1.2040
  180MOL0     H23733   0.601  -1.036   3.300 -0.3289 -1.0274  0.3242
  180MOL0     H23734   0.663  -1.022   3.058  1.4649  4.2512  0.6630
  180MOL0     H23735   0.703  -1.182   3.112  1.8164 -0.4283  1.8422
  180MOL0     H23736   0.939  -1.106   3.138 -0.6311  0.8846  0.7297
  180MOL0     H23737   0.892  -0.951   3.064  1.7773 -0.6730 -1.4637
  180MOL0     H23738   0.898  -1.229   2.930 -1.0593 -0.8164 -2.0601
  180MOL0     H23739   0.803  -1.100   2.860 -1.0892 -2.1572  0.6756
  180MOL0     H23740   1.093  -1.087   2.906 -0.9672 -0.0740  1.7849
  180MOL0     H23741   0.983  -0.952   2.856 -0.6755 -0.3024  0.0187
  180MOL0     H23742   0.873  -0.418   2.997 -0.4459  0.3760 -1.0226
  180MOL0     H23743   0.954  -0.186   3.010  0.5594  1.2665  2.0823
  180MOL0     H23744   0.876   0.313   3.018  2.0670 -0.1651 -1.8366
  180MOL0     H23745   0.963   0.532   3.088 -0.4607  0.6452  0.9169
  180MOL0     H23746   2.473   0.046   3.707  0.4775  0.9483 -1.9668
  180MOL0     H23747   2.716   0.033   3.682  0.8583 -1.1825  0.4479
  180MOL0     H23748   3.177   0.150   3.499 -1.2144  2.2061 -0.5696
  180MOL0     H23749   3.418   0.203   3.533  0.3277  0.4853 -0.5427
  180MOL0     H23750   3.552   0.285   3.958 -0.8477 -0.3918  0.3462
  180MOL0     H23751   3.530   0.436   3.885  1.2643 -0.6155  1.2868
  180MOL0     H23752   3.755   0.427   3.767 -1.9834  1.5645  0.8635
  180MOL0     H23753   3.761   0.432   3.940  0.4520 -2.7549  2.6317
  180MOL0     H23754   3.738   0.166   3.805 -0.2366  0.7983 -1.1806
  180MOL0     H23755   3.817   0.201   3.962  0.4347 -1.2180 -0.2664
  180MOL0     H23756   3.941   0.252   3.689 -5.2488 -1.8621 -0.4722
  180MOL0     H23757   4.000   0.298   3.854 -0.0600 -0.8969 -0.1662
  180MOL0     H23758   4.088  -0.106   3.856 -1.6319 -0.5314  1.4323
  180MOL0     H23759   3.342   0.280   3.949  1.5957 -0.3354 -0.9835
  180MOL0     H23760   3.113   0.233   3.925  1.8102 -2.9724  2.4760
  181MOL0     O23761   9.418  10.640   0.256  0.0342  0.5958 -0.3618
  181MOL0     C23762   9.443  10.515   0.259 -0.3024 -0.4355 -0.2506
  181MOL0     O23763   9.361  10.419   0.217 -0.8890  0.1288  0.6504
  181MOL0     C23764   9.225  10.432   0.198  0.3008 -0.0100 -0.1372
  181MOL0     C23765   9.146  10.512   0.275  0.3817  0.2514  0.4119
  181MOL0     C23766   9.007  10.503   0.258 -0.0691 -0.7327 -0.4219
  181MOL0     C23767   8.949  10.424   0.166  0.9403  0.5819  0.0159
  181MOL0     O23768   8.813  10.416   0.173 -0.4481  0.0949 -0.6947
  181MOL0     C23769   8.749  10.434   0.047 -0.9582  0.6049  0.5579
  181MOL0     C23770   8.596  10.447   0.083 -0.8535 -0.2646 -0.6036
  181MOL0     C23771   8.508  10.430  -0.042 -0.2563  0.6417  0.9297
  181MOL0     C23772   8.357  10.430   0.002 -0.6265 -0.9923  0.8868
  181MOL0     C23773   8.269  10.428  -0.126 -0.1232 -0.2458 -0.3902
  181MOL0     C23774   8.123  10.397  -0.089 -0.2920 -0.3781 -0.5868
  181MOL0     C23775   8.034  10.399  -0.215 -0.7121  0.1744  0.3397
  181MOL0     C23776   8.047  10.522  -0.307  0.4038  0.5663 -0.0644
  181MOL0     N23777   7.946  10.525  -0.412 -0.9998  0.1994 -0.4981
  181MOL0     C23778   7.929  10.431  -0.514  0.0498 -0.2960 -0.1492
  181MOL0     C23779   7.838  10.492  -0.604  0.0155 -0.2443 -0.0667
  181MOL0     C23780   7.797  10.437  -0.739 -0.4969  0.2749 -0.4587
  181MOL0     C23781   7.648  10.415  -0.756 -0.4346  0.7639 -0.1571
  181MOL0     C23782   7.594  10.536  -0.818  0.1727 -0.2543  0.3004
  181MOL0     C23783   7.438  10.514  -0.834 -0.2745  0.2340 -0.4201
  181MOL0     O23784   7.379  10.497  -0.701  0.1936 -0.3303  0.0094
  181MOL0     C23785   7.248  10.470  -0.703 -0.3023 -0.2199  0.2268
  181MOL0     C23786   7.204  10.413  -0.582  0.3923  0.3560  0.0732
  181MOL0     C23787   7.073  10.379  -0.558 -0.5087 -0.6437 -0.5330
  181MOL0     C23788   6.981  10.399  -0.661  0.2187  0.4937 -0.1877
  181MOL0     C23789   6.841  10.364  -0.636  0.1463 -0.7146  0.4534
  181MOL0     O23790   6.751  10.408  -0.725 -0.3236 -0.5911  0.0245
  181MOL0     C23791   6.616  10.377  -0.714  0.4992  0.2947  0.7062
  181MOL0     C23792   6.524  10.478  -0.707 -0.2111 -1.1709 -0.2960
  181MOL0     C23793   6.388  10.450  -0.708  0.3814  0.5869 -0.3259
  181MOL0     C23794   6.337  10.327  -0.730  0.1074  0.7651 -0.1155
  181MOL0     O23795   6.199  10.311  -0.745 -0.2620  0.1445  0.3077
  181MOL0     C23796   6.144  10.182  -0.731 -1.0726  1.0382  0.0479
  181MOL0     C23797   5.988  10.185  -0.739 -0.1371  0.2843 -0.3286
  181MOL0     C23798   5.930  10.238  -0.868  0.1936  0.0962  0.4506
  181MOL0     C23799   5.784  10.266  -0.843  0.0996  0.4536 -1.1524
  181MOL0     C23800   5.717  10.297  -0.977  0.0554 -0.7739  0.2429
  181MOL0     C23801   5.564  10.315  -0.966 -0.7053 -0.0945 -0.9275
  181MOL0     C23802   5.514  10.376  -1.100  0.7139 -0.1440 -0.7519
  181MOL0     C23803   5.365  10.438  -1.092 -0.8503 -0.5563 -0.2038
  181MOL0    Cl23804   5.338  10.573  -0.966  0.1368 -0.0409  0.0698
  181MOL0     C23805   6.424  10.219  -0.743 -0.3580  0.1988  0.1948
  181MOL0     C23806   6.566  10.243  -0.724  0.2511 -0.4345  0.4606
  181MOL0     O23807   6.809  10.314  -0.528 -0.3880 -0.5239 -0.9434
  181MOL0     C23808   7.022  10.425  -0.790 -0.4975  0.1367  0.5839
  181MOL0     C23809   7.156  10.469  -0.808 -0.1436  0.0347  0.0772
  181MOL0     N23810   7.813  10.623  -0.564 -0.4186 -0.2129  0.5374
  181MOL0     N23811   7.879  10.634  -0.447  0.1026 -0.1392  0.7595
  181MOL0     C23812   9.028  10.366   0.072 -0.6515 -0.1434 -0.6180
  181MOL0     C23813   9.165  10.361   0.090  0.4475  0.3743 -0.1760
  181MOL0     C23814   9.585  10.488   0.287 -0.3784  0.0937 -0.3294
  181MOL0     C23815   9.630  10.356   0.279  0.4188  0.3034  0.1261
  181MOL0     C23816   9.757  10.324   0.328  0.1634 -0.7000  0.4124
  181MOL0     C23817   9.842  10.422   0.379 -0.3254 -0.5598 -0.0016
  181MOL0     O23818   9.971  10.379   0.412  0.1338  0.9600  0.6361
  181MOL0     C23819  10.076  10.472   0.432 -0.5102  0.3184 -0.7418
  181MOL0     C23820  10.124  10.540   0.307  0.4098 -0.0266  0.3991
  181MOL0     C23821  10.188  10.445   0.212 -0.9684  0.3944  0.0498
  181MOL0     C23822  10.214  10.521   0.083 -0.5913  0.0418 -0.1605
  181MOL0     C23823  10.100  10.502  -0.014  0.3509 -0.4211  0.5817
  181MOL0     C23824  10.005  10.493  -0.092 -0.7302 -1.1294  0.5093
  181MOL0     C23825   9.800  10.558   0.377 -0.8837  0.3177 -0.0704
  181MOL0     C23826   9.669  10.589   0.336  0.5249 -0.1549 -0.3693
  181MOL0     H23827   9.180  10.556   0.369 -0.7478 -0.3686  1.1359
  181MOL0     H23828   8.944  10.548   0.333 -0.3795 -0.9454 -0.5540
  181MOL0     H23829   8.764  10.355  -0.028 -0.4045  1.1341  0.0998
  181MOL0     H23830   8.782  10.529   0.004  0.0584  0.2147  0.4692
  181MOL0     H23831   8.578  10.541   0.136  0.0076 -1.1149  1.2539
  181MOL0     H23832   8.575  10.370   0.158 -1.1898  0.0327 -0.3866
  181MOL0     H23833   8.533  10.334  -0.089 -1.2007 -0.1513  1.9911
  181MOL0     H23834   8.521  10.514  -0.111 -1.3519 -0.0902 -0.2242
  181MOL0     H23835   8.328  10.346   0.067 -1.5624 -1.5586 -0.2344
  181MOL0     H23836   8.333  10.521   0.057 -0.8589  0.3168 -1.2993
  181MOL0     H23837   8.304  10.352  -0.196 -0.9167 -1.5318  0.5628
  181MOL0     H23838   8.267  10.528  -0.171 -2.0883 -0.8771 -1.8481
  181MOL0     H23839   8.079  10.468  -0.018 -1.3343 -0.4292 -1.1633
  181MOL0     H23840   8.114  10.298  -0.045 -1.9087  0.3754  0.9462
  181MOL0     H23841   8.074  10.321  -0.280  0.3799 -0.1878  1.4173
  181MOL0     H23842   7.931  10.378  -0.185 -0.5342 -0.3620  0.5780
  181MOL0     H23843   8.147  10.519  -0.353  0.2765  0.4262 -0.3386
  181MOL0     H23844   8.052  10.615  -0.250  1.8926 -0.1472  1.0286
  181MOL0     H23845   7.982  10.339  -0.532 -0.1959 -0.1155 -1.9925
  181MOL0     H23846   7.839  10.337  -0.754 -1.2162 -0.0307 -0.4657
  181MOL0     H23847   7.833  10.499  -0.821 -0.2999  0.1599 -0.4583
  181MOL0     H23848   7.603  10.386  -0.661  1.7607 -1.1456  0.3807
  181MOL0     H23849   7.630  10.330  -0.822  1.0000  0.0627  0.3282
  181MOL0     H23850   7.611  10.628  -0.760 -0.8243  0.4440 -0.4879
  181MOL0     H23851   7.643  10.558  -0.914  0.2169  2.2315  0.8084
  181MOL0     H23852   7.427  10.426  -0.899  1.9811  1.1316 -2.1710
  181MOL0     H23853   7.387  10.605  -0.868  0.5066  1.4746  1.5920
  181MOL0     H23854   7.278  10.392  -0.505  0.1180  0.3654  0.3413
  181MOL0     H23855   7.048  10.345  -0.458 -1.6161 -0.2590 -0.6692
  181MOL0     H23856   6.558  10.580  -0.722 -2.1182 -0.6910 -1.7918
  181MOL0     H23857   6.318  10.533  -0.714  2.8456  2.9379  1.3179
  181MOL0     H23858   6.165  10.142  -0.632  2.5476 -1.5260 -1.5233
  181MOL0     H23859   6.188  10.112  -0.803 -0.3021 -0.1047  1.5709
  181MOL0     H23860   5.950  10.248  -0.658  0.6955  0.6686 -0.2353
  181MOL0     H23861   5.949  10.084  -0.723  0.5881 -0.4472 -2.7648
  181MOL0     H23862   5.946  10.164  -0.947 -1.2708 -0.8594  1.0112
  181MOL0     H23863   5.975  10.335  -0.890  0.9621 -0.2262  0.5409
  181MOL0     H23864   5.736  10.175  -0.805  1.5882  0.3507  0.6091
  181MOL0     H23865   5.769  10.347  -0.772 -0.5599 -0.5057 -0.1751
  181MOL0     H23866   5.737  10.211  -1.041  1.1725 -0.9828  0.8446
  181MOL0     H23867   5.753  10.396  -1.008 -1.0835 -0.3890  0.1002
  181MOL0     H23868   5.541  10.391  -0.891 -0.4286  0.1623 -1.1022
  181MOL0     H23869   5.505  10.225  -0.948  1.9552 -1.6130  0.9238
  181MOL0     H23870   5.581  10.453  -1.139 -1.5587  0.8769 -2.8905
  181MOL0     H23871   5.511  10.295  -1.173 -0.5249  0.3168 -1.2500
  181MOL0     H23872   5.305  10.349  -1.071  0.2394 -0.7429  2.4516
  181MOL0     H23873   5.341  10.487  -1.187 -1.5785  1.3231  0.8920
  181MOL0     H23874   6.380  10.122  -0.762 -4.6666  1.7036  1.2984
  181MOL0     H23875   6.639  10.164  -0.736  0.8676  0.0258  1.1500
  181MOL0     H23876   6.949  10.426  -0.871  0.4555 -3.0405 -0.4604
  181MOL0     H23877   7.188  10.487  -0.910  2.5890  0.4540  0.9387
  181MOL0     H23878   8.979  10.300   0.002 -0.3783 -0.4583 -0.5170
  181MOL0     H23879   9.239  10.293   0.050 -0.5297  0.1193 -1.6011
  181MOL0     H23880   9.564  10.278   0.243 -0.0960 -0.2625  2.2147
  181MOL0     H23881   9.787  10.219   0.330 -1.0060 -1.1267 -1.6397
  181MOL0     H23882  10.163  10.421   0.472 -1.5467  0.3290  1.7330
  181MOL0     H23883  10.041  10.543   0.508 -1.7406  0.3988 -1.3489
  181MOL0     H23884  10.039  10.587   0.256 -1.0819 -1.7089  1.2170
  181MOL0     H23885  10.197  10.618   0.331  1.7718 -1.1055 -0.1204
  181MOL0     H23886  10.135  10.350   0.198  0.1831 -0.2899  0.1905
  181MOL0     H23887  10.281  10.430   0.268 -0.3237  3.3336 -0.0752
  181MOL0     H23888  10.214  10.628   0.106 -2.3250 -0.2506  1.4468
  181MOL0     H23889  10.303  10.483   0.031  0.3533  0.5218  1.0510
  181MOL0     H23890   9.930  10.476  -0.166 -0.4871 -0.5954  0.1359
  181MOL0     H23891   9.857  10.645   0.410 -1.5494  0.6617  0.1864
  181MOL0     H23892   9.638  10.692   0.348 -3.1364 -1.1156 -0.5776
  182MOL0     O23893   9.247   9.335   6.595 -0.6350  0.0332 -0.6997
  182MOL0     C23894   9.294   9.431   6.650  0.6413 -0.2620 -0.3524
  182MOL0     O23895   9.242   9.480   6.759  0.8386  0.3979 -0.4222
  182MOL0     C23896   9.162   9.411   6.855 -0.2419  0.3792  0.1683
  182MOL0     C23897   9.141   9.274   6.863  0.4173 -0.4699  0.6084
  182MOL0     C23898   9.053   9.217   6.943 -0.2921  0.6034  0.1303
  182MOL0     C23899   8.975   9.294   7.037 -0.1289  1.0600 -0.4253
  182MOL0     O23900   8.893   9.217   7.117  0.7041 -0.0857 -0.3506
  182MOL0     C23901   8.791   9.280   7.199 -0.1610 -0.0450 -0.2122
  182MOL0     C23902   8.713   9.165   7.275 -0.1825 -0.3760  0.3391
  182MOL0     C23903   8.596   9.214   7.357 -0.2028 -0.6543 -0.3413
  182MOL0     C23904   8.510   9.093   7.413  0.1526 -0.4002 -0.2315
  182MOL0     C23905   8.571   9.036   7.544  0.2255  0.3809  0.0616
  182MOL0     C23906   8.491   8.917   7.594 -0.3022 -0.4892 -0.1901
  182MOL0     C23907   8.370   8.960   7.688  0.6278 -0.1529 -0.6907
  182MOL0     C23908   8.272   8.839   7.717  1.0946  0.5791 -0.1283
  182MOL0     N23909   8.138   8.869   7.778 -0.4118  0.7631  0.8820
  182MOL0     C23910   8.080   8.797   7.877 -0.0277  0.4296  0.2568
  182MOL0     C23911   7.946   8.817   7.874 -0.1118  0.3023 -0.3970
  182MOL0     C23912   7.848   8.778   7.984  0.0594 -0.9367 -0.3461
  182MOL0     C23913   7.728   8.722   7.924  0.1421  0.1252  0.5402
  182MOL0     C23914   7.636   8.655   8.033  0.0265 -0.9553 -0.0566
  182MOL0     C23915   7.517   8.575   7.983  0.5165 -0.1195  0.0718
  182MOL0     O23916   7.431   8.655   7.897 -0.3170 -0.3714 -0.3205
  182MOL0     C23917   7.297   8.645   7.868  0.8328 -0.0560 -0.4269
  182MOL0     C23918   7.240   8.719   7.765  0.1197 -0.2392 -0.1586
  182MOL0     C23919   7.107   8.708   7.731  0.1391 -0.3606  0.1140
  182MOL0     C23920   7.022   8.627   7.809 -0.7766  0.0619 -0.5441
  182MOL0     C23921   6.879   8.615   7.781 -0.0351 -1.3224  0.6108
  182MOL0     O23922   6.831   8.655   7.656 -1.0299 -0.4090 -0.5826
  182MOL0     C23923   6.698   8.630   7.638  0.3727 -0.2290 -0.6432
  182MOL0     C23924   6.667   8.509   7.578  0.2953 -0.0341 -0.5474
  182MOL0     C23925   6.538   8.478   7.550  0.2069 -0.7486  0.0168
  182MOL0     C23926   6.436   8.569   7.583 -0.0809 -0.7283 -0.4615
  182MOL0     O23927   6.308   8.550   7.536  0.5274  0.4704  1.1478
  182MOL0     C23928   6.282   8.427   7.458  0.3958 -0.3983 -0.7702
  182MOL0     C23929   6.132   8.405   7.440  0.0950 -0.4068  0.0062
  182MOL0     C23930   6.089   8.511   7.345  0.2884 -0.5221  0.1013
  182MOL0     C23931   5.941   8.494   7.313  0.3774  0.3731 -0.6077
  182MOL0     C23932   5.886   8.617   7.236  0.8649 -0.2319  0.5121
  182MOL0     C23933   5.749   8.584   7.169 -0.0245  0.5439  0.6486
  182MOL0     C23934   5.691   8.718   7.119  0.0054  0.1492 -0.1348
  182MOL0     C23935   5.568   8.701   7.036 -0.1588  0.2667 -0.0398
  182MOL0    Cl23936   5.419   8.696   7.141 -0.2191 -0.1800 -0.3857
  182MOL0     C23937   6.469   8.694   7.644  0.1597  0.0381  0.0223
  182MOL0     C23938   6.602   8.723   7.669 -0.7998  0.3357 -0.4790
  182MOL0     O23939   6.811   8.584   7.875  0.2135  0.3196 -0.0492
  182MOL0     C23940   7.076   8.550   7.917  0.3742  0.4089 -0.7561
  182MOL0     C23941   7.210   8.562   7.944 -0.2434 -0.8748  0.8081
  182MOL0     N23942   7.926   8.895   7.765  0.4388  0.1319  0.4417
  182MOL0     N23943   8.037   8.923   7.705 -0.0835  1.0931 -0.3091
  182MOL0     C23944   8.986   9.435   7.027 -0.3851  0.8049 -0.1104
  182MOL0     C23945   9.090   9.492   6.942  0.3394  0.2396 -0.1151
  182MOL0     C23946   9.423   9.485   6.607 -0.5031 -0.9359 -0.2779
  182MOL0     C23947   9.484   9.445   6.493  0.5933 -0.3663 -0.2114
  182MOL0     C23948   9.607   9.496   6.454 -0.1540 -0.0879  0.7274
  182MOL0     C23949   9.675   9.607   6.516 -0.3140 -0.1893  0.7450
  182MOL0     O23950   9.804   9.657   6.499  0.1611  0.1410  0.1517
  182MOL0     C23951   9.808   9.776   6.420  0.9864  0.2252  0.8999
  182MOL0     C23952   9.951   9.802   6.376 -0.4729 -0.4066  0.2173
  182MOL0     C23953  10.001   9.682   6.291  0.0205 -0.7870 -0.3059
  182MOL0     C23954  10.142   9.716   6.222  0.0508  0.7499 -0.3496
  182MOL0     C23955  10.247   9.719   6.320  0.4824 -0.1522  0.3316
  182MOL0     C23956  10.344   9.721   6.397  0.2765  0.1893  0.5879
  182MOL0     C23957   9.608   9.652   6.631  0.1558 -0.1357 -0.3133
  182MOL0     C23958   9.489   9.592   6.674  0.0757  0.4134  0.6912
  182MOL0     H23959   9.187   9.204   6.794  0.2977  0.1010 -0.0598
  182MOL0     H23960   9.038   9.110   6.949  0.8870  0.1686 -2.9889
  182MOL0     H23961   8.718   9.330   7.134 -1.5925 -0.7836  0.7835
  182MOL0     H23962   8.830   9.344   7.278  2.8983 -2.4668  0.4297
  182MOL0     H23963   8.786   9.119   7.342  1.0959 -0.9972 -1.3908
  182MOL0     H23964   8.676   9.090   7.203 -2.2014  1.8668 -1.1102
  182MOL0     H23965   8.542   9.282   7.290 -0.8585  0.0107  0.8413
  182MOL0     H23966   8.622   9.271   7.446 -0.2447 -0.5103 -0.4206
  182MOL0     H23967   8.407   9.117   7.438  0.0777 -0.5012 -0.4407
  182MOL0     H23968   8.493   9.015   7.339 -1.9189 -0.4841  0.2795
  182MOL0     H23969   8.564   9.112   7.622  0.5148  0.7444 -0.2621
  182MOL0     H23970   8.673   9.004   7.517  0.0787  0.3898 -0.5123
  182MOL0     H23971   8.571   8.864   7.647  3.0167  1.0422 -3.1824
  182MOL0     H23972   8.451   8.861   7.509 -2.0835 -0.0171  0.2980
  182MOL0     H23973   8.411   8.999   7.782  1.1434 -0.0929 -0.9377
  182MOL0     H23974   8.310   9.031   7.632  1.9524 -0.1590 -2.1936
  182MOL0     H23975   8.330   8.753   7.753  2.0972 -0.1601 -3.2067
  182MOL0     H23976   8.249   8.799   7.618 -0.7185 -1.5175  1.0544
  182MOL0     H23977   8.142   8.749   7.952  1.5050 -0.1241 -1.3006
  182MOL0     H23978   7.821   8.864   8.046 -2.4018 -1.7196 -0.2128
  182MOL0     H23979   7.885   8.705   8.057 -0.9839 -0.4975  0.6474
  182MOL0     H23980   7.754   8.647   7.848 -0.6884 -0.5308  0.8753
  182MOL0     H23981   7.680   8.809   7.878 -0.6871  0.2718  1.6346
  182MOL0     H23982   7.697   8.600   8.104  0.9072 -0.8119 -0.6801
  182MOL0     H23983   7.580   8.736   8.081 -1.1717 -1.1973 -0.9888
  182MOL0     H23984   7.465   8.533   8.069 -0.2607 -1.9212 -1.2099
  182MOL0     H23985   7.542   8.487   7.922  1.0405  0.3514 -0.4096
  182MOL0     H23986   7.308   8.783   7.711 -0.7271  0.1159 -0.8443
  182MOL0     H23987   7.052   8.759   7.652  0.2131 -2.2075 -1.1950
  182MOL0     H23988   6.745   8.435   7.564 -1.3753 -1.5359 -2.3759
  182MOL0     H23989   6.513   8.380   7.511  1.8785 -1.3814  0.4507
  182MOL0     H23990   6.309   8.340   7.519  1.3718  0.8144  0.6003
  182MOL0     H23991   6.338   8.422   7.364 -0.3129 -0.5609 -1.1871
  182MOL0     H23992   6.085   8.415   7.538 -1.7266 -1.6034 -0.6886
  182MOL0     H23993   6.118   8.301   7.408  2.8820 -0.1229 -2.5463
  182MOL0     H23994   6.146   8.517   7.251 -0.6569  1.6547 -0.3975
  182MOL0     H23995   6.101   8.606   7.398 -1.8216  0.6443 -1.3180
  182MOL0     H23996   5.919   8.407   7.250 -1.3509  0.2408  0.1052
  182MOL0     H23997   5.887   8.482   7.407  2.1820  2.9933  0.8858
  182MOL0     H23998   5.947   8.644   7.149 -1.1655 -0.4911 -1.0505
  182MOL0     H23999   5.883   8.701   7.305 -1.0318 -1.3133  1.8173
  182MOL0     H24000   5.683   8.541   7.245  1.5510  1.2768  2.5321
  182MOL0     H24001   5.769   8.511   7.090 -2.3976  1.1703 -0.6173
  182MOL0     H24002   5.656   8.772   7.207 -1.6084 -0.6864 -0.2269
  182MOL0     H24003   5.758   8.778   7.057 -2.5277  0.5746 -2.6987
  182MOL0     H24004   5.578   8.621   6.961 -0.8743  1.2957 -1.2721
  182MOL0     H24005   5.539   8.786   6.974  1.4976  0.5194 -0.5007
  182MOL0     H24006   6.393   8.769   7.662  0.0276 -0.4919  1.8251
  182MOL0     H24007   6.639   8.816   7.713 -0.5554 -0.4652  1.0439
  182MOL0     H24008   7.015   8.495   7.988 -0.3939 -0.2030 -1.8640
  182MOL0     H24009   7.254   8.511   8.029  2.3928 -2.9929 -1.5936
  182MOL0     H24010   8.921   9.484   7.099  2.2783 -1.6511  4.4392
  182MOL0     H24011   9.109   9.599   6.941 -1.1290  0.5446  0.7115
  182MOL0     H24012   9.437   9.373   6.427  1.3674 -1.5682  0.5095
  182MOL0     H24013   9.650   9.449   6.366  1.4911 -0.6125  1.7627
  182MOL0     H24014   9.765   9.856   6.482  0.7036 -0.3157  1.4141
  182MOL0     H24015   9.748   9.769   6.329  1.9807 -0.7660  0.3115
  182MOL0     H24016   9.959   9.896   6.320  0.9266 -0.8249 -0.3318
  182MOL0     H24017  10.019   9.808   6.462  1.7970 -0.1896 -1.5036
  182MOL0     H24018   9.931   9.649   6.213 -1.3917  1.0766  0.1123
  182MOL0     H24019  10.009   9.595   6.357 -1.7663 -1.2748 -0.6788
  182MOL0     H24020  10.185   9.637   6.159  4.5197  2.5921 -0.0001
  182MOL0     H24021  10.131   9.814   6.174  0.1805  0.9841  0.1022
  182MOL0     H24022  10.416   9.738   6.474 -1.8719  0.1895  2.6902
  182MOL0     H24023   9.633   9.740   6.688  0.5266 -0.5288  0.1404
  182MOL0     H24024   9.450   9.636   6.765 -0.6539  1.7188 -0.2064
  183MOL0     O24025   2.448   6.465   4.521 -0.1499 -0.3063 -0.7845
  183MOL0     C24026   2.533   6.398   4.464  0.2268  0.0137  0.2151
  183MOL0     O24027   2.517   6.269   4.423 -0.5767 -0.4098 -0.4346
  183MOL0     C24028   2.395   6.200   4.429 -0.0689 -0.5455  0.0980
  183MOL0     C24029   2.391   6.075   4.485  0.2981 -0.8973  0.3980
  183MOL0     C24030   2.282   5.996   4.477  0.5941 -0.4616 -0.2233
  183MOL0     C24031   2.165   6.051   4.429 -0.6783  0.4632  1.3371
  183MOL0     O24032   2.058   5.959   4.420 -0.7321 -0.0337 -0.3328
  183MOL0     C24033   2.065   5.882   4.299  0.6670  0.7124 -0.5982
  183MOL0     C24034   1.970   5.758   4.302  0.0532 -0.0707 -0.2881
  183MOL0     C24035   1.824   5.805   4.319 -0.9719  0.2565 -0.1890
  183MOL0     C24036   1.717   5.700   4.307  0.4635  0.0185 -0.7462
  183MOL0     C24037   1.576   5.758   4.327  0.5369  0.3858 -0.2612
  183MOL0     C24038   1.473   5.649   4.364 -0.2744 -0.2165  0.3007
  183MOL0     C24039   1.447   5.560   4.242  0.2913  1.0967  0.4795
  183MOL0     C24040   1.347   5.452   4.278 -0.1646  0.3076  0.0980
  183MOL0     N24041   1.323   5.365   4.157  0.3191  0.5445 -0.5476
  183MOL0     C24042   1.422   5.285   4.101 -0.1853  0.3255 -0.0568
  183MOL0     C24043   1.384   5.256   3.976 -0.5469  0.4154 -0.2896
  183MOL0     C24044   1.463   5.173   3.865  0.4611  0.1212 -0.4173
  183MOL0     C24045   1.613   5.205   3.857  0.1523 -0.2042  0.1423
  183MOL0     C24046   1.683   5.110   3.764 -0.6932  0.4397  0.3862
  183MOL0     C24047   1.822   5.143   3.734 -0.2069 -0.8311  0.0902
  183MOL0     O24048   1.886   5.146   3.862  0.0032  0.1155 -0.0580
  183MOL0     C24049   2.015   5.206   3.873  0.2968  0.0461  0.7942
  183MOL0     C24050   2.061   5.215   4.000  0.3939  0.5085 -0.6315
  183MOL0     C24051   2.196   5.239   4.026 -0.2836 -0.5626  0.2136
  183MOL0     C24052   2.269   5.294   3.925  0.0973  0.4071 -0.1885
  183MOL0     C24053   2.410   5.345   3.942 -0.0499  0.4971 -0.1666
  183MOL0     O24054   2.472   5.304   4.053 -0.1090 -0.1026  0.2327
  183MOL0     C24055   2.608   5.337   4.076  1.0576 -0.4204 -0.0267
  183MOL0     C24056   2.685   5.229   4.126 -0.1480  1.1316 -0.1726
  183MOL0     C24057   2.816   5.250   4.166  0.6186 -0.7716  0.5961
  183MOL0     C24058   2.884   5.365   4.145 -0.7025 -0.2487  0.6282
  183MOL0     O24059   3.013   5.390   4.186 -0.5988  1.2458  0.6329
  183MOL0     C24060   3.086   5.279   4.233  0.2446  0.8848 -0.3859
  183MOL0     C24061   3.240   5.320   4.234  0.2614  0.5421 -0.0606
  183MOL0     C24062   3.275   5.421   4.347  0.8042  0.1139  0.6244
  183MOL0     C24063   3.408   5.494   4.330 -0.7094 -0.3229  0.0022
  183MOL0     C24064   3.437   5.590   4.442  0.3155 -0.4505 -0.6084
  183MOL0     C24065   3.557   5.689   4.408 -0.4143  0.5464  0.1193
  183MOL0     C24066   3.698   5.619   4.420 -0.5767  0.4384 -0.0173
  183MOL0     C24067   3.809   5.688   4.341  0.0129 -0.2876  0.3943
  183MOL0    Cl24068   3.811   5.856   4.371 -0.3024  0.2022  0.0859
  183MOL0     C24069   2.817   5.469   4.084 -0.1470  0.0784  0.1755
  183MOL0     C24070   2.686   5.452   4.044  0.3599 -0.6429  0.4886
  183MOL0     O24071   2.460   5.403   3.846  0.5282 -0.3105 -0.0529
  183MOL0     C24072   2.210   5.300   3.793  0.5341  0.2955 -0.0218
  183MOL0     C24073   2.084   5.251   3.769 -0.1688 -0.4116  0.3309
  183MOL0     N24074   1.258   5.316   3.964 -0.1534  0.1030  0.4366
  183MOL0     N24075   1.223   5.382   4.065 -0.3519  0.2422 -0.0588
  183MOL0     C24076   2.163   6.180   4.373  0.1185  0.1096  0.6113
  183MOL0     C24077   2.282   6.254   4.367 -0.0363 -0.9339 -0.0762
  183MOL0     C24078   2.670   6.453   4.458  0.2200  0.7873 -0.6210
  183MOL0     C24079   2.701   6.569   4.530 -0.4698  0.7717 -0.4138
  183MOL0     C24080   2.832   6.616   4.536  1.4204  0.5152 -0.0212
  183MOL0     C24081   2.924   6.561   4.452 -0.9368 -0.3233 -0.2919
  183MOL0     O24082   3.047   6.611   4.424  0.5063 -0.3543  0.4825
  183MOL0     C24083   3.099   6.709   4.515 -0.4029 -0.0973 -0.9809
  183MOL0     C24084   3.216   6.777   4.460  0.4619  0.2387  0.2192
  183MOL0     C24085   3.270   6.895   4.549  0.5872 -0.4536  0.2255
  183MOL0     C24086   3.403   6.951   4.508 -0.7415 -0.5595 -0.4227
  183MOL0     C24087   3.499   6.861   4.564  0.1793  0.0913  0.4172
  183MOL0     C24088   3.592   6.804   4.620 -0.1087  1.0587  0.0198
  183MOL0     C24089   2.890   6.458   4.378  0.0909 -0.3999  0.5891
  183MOL0     C24090   2.776   6.386   4.389 -0.3102  0.0628  0.4379
  183MOL0     H24091   2.478   6.047   4.544  0.0404  0.3188  1.3803
  183MOL0     H24092   2.292   5.901   4.529  2.9436  0.3275  0.8988
  183MOL0     H24093   2.169   5.850   4.288  0.5380 -0.0412  0.2815
  183MOL0     H24094   2.031   5.940   4.212 -0.1509 -1.4447 -1.7985
  183MOL0     H24095   2.000   5.699   4.389  0.7495  0.7184  0.0250
  183MOL0     H24096   1.978   5.696   4.213 -3.4439 -2.0768  0.6150
  183MOL0     H24097   1.796   5.881   4.245 -2.4961 -0.1923 -0.1245
  183MOL0     H24098   1.812   5.848   4.419  0.3439 -1.6813  0.8540
  183MOL0     H24099   1.736   5.649   4.212 -1.9405 -0.5331 -1.0129
  183MOL0     H24100   1.734   5.623   4.383 -1.0350  0.9345  0.5846
  183MOL0     H24101   1.537   5.803   4.235  0.8463  1.5640  0.1735
  183MOL0     H24102   1.572   5.839   4.400 -0.3336  1.4598 -1.4624
  183MOL0     H24103   1.382   5.679   4.418 -0.5585 -2.2073  1.0254
  183MOL0     H24104   1.518   5.582   4.438  1.1849 -0.9121 -1.1542
  183MOL0     H24105   1.405   5.621   4.161  1.2437 -0.0639 -0.9325
  183MOL0     H24106   1.538   5.513   4.206  0.4501  1.0838  0.8942
  183MOL0     H24107   1.252   5.495   4.310  0.8683  0.1578  3.9272
  183MOL0     H24108   1.389   5.390   4.358  0.5845  0.3552 -0.2515
  183MOL0     H24109   1.516   5.269   4.154  0.2391  0.9268 -0.6172
  183MOL0     H24110   1.408   5.187   3.772 -0.2588 -2.9514 -0.5482
  183MOL0     H24111   1.454   5.066   3.886  0.1257  0.2682  0.2445
  183MOL0     H24112   1.656   5.211   3.957 -0.1355  2.7153  0.2030
  183MOL0     H24113   1.628   5.311   3.831 -2.5378  0.1719 -0.1805
  183MOL0     H24114   1.680   5.015   3.818  1.9086 -0.2021 -0.4406
  183MOL0     H24115   1.631   5.102   3.668 -0.7618  0.6912  0.4020
  183MOL0     H24116   1.828   5.244   3.692 -1.4686 -1.2570 -1.1679
  183MOL0     H24117   1.868   5.078   3.659  1.2252 -1.0981  1.1510
  183MOL0     H24118   1.997   5.185   4.082  1.5027 -3.7775 -1.1108
  183MOL0     H24119   2.240   5.238   4.125  0.3813  2.3718  0.0177
  183MOL0     H24120   2.645   5.139   4.171  1.5875  0.4585  0.0987
  183MOL0     H24121   2.856   5.165   4.221 -2.4558 -0.9628  2.7619
  183MOL0     H24122   3.074   5.195   4.163 -3.7517  0.8686  0.1272
  183MOL0     H24123   3.051   5.250   4.332 -0.2522  0.2436 -0.7337
  183MOL0     H24124   3.268   5.354   4.134 -2.2917  0.8599 -0.7288
  183MOL0     H24125   3.296   5.228   4.253  0.4016  0.2549 -1.6846
  183MOL0     H24126   3.263   5.367   4.442 -2.3304  0.2498  0.4119
  183MOL0     H24127   3.202   5.502   4.340  1.8285  1.0364  0.5593
  183MOL0     H24128   3.487   5.421   4.306 -1.3348 -1.0514  0.1264
  183MOL0     H24129   3.393   5.549   4.236  1.1456  0.4656  0.1090
  183MOL0     H24130   3.468   5.540   4.534  1.3522  0.4348 -0.4632
  183MOL0     H24131   3.347   5.650   4.456  0.6566 -0.2655  0.9144
  183MOL0     H24132   3.552   5.767   4.485  2.1411  0.5929  0.3332
  183MOL0     H24133   3.539   5.724   4.306  0.7675 -0.3298 -0.4212
  183MOL0     H24134   3.716   5.626   4.527  0.8073  1.6878 -0.2855
  183MOL0     H24135   3.691   5.514   4.393 -1.9866 -0.0512  2.0576
  183MOL0     H24136   3.793   5.671   4.234 -3.0974  0.0617  0.6940
  183MOL0     H24137   3.905   5.643   4.367  0.3029 -0.0338 -0.2042
  183MOL0     H24138   2.874   5.560   4.067  2.2182 -1.1347  1.0996
  183MOL0     H24139   2.640   5.534   3.991  3.0858  1.2616  0.8648
  183MOL0     H24140   2.258   5.332   3.701 -4.2101 -2.6307 -4.0272
  183MOL0     H24141   2.048   5.255   3.667  2.1381  1.5574 -0.4876
  183MOL0     H24142   2.066   6.210   4.336  0.4331 -0.7295 -1.0007
  183MOL0     H24143   2.288   6.351   4.318  0.3256  0.9567  3.4399
  183MOL0     H24144   2.625   6.611   4.594  0.8645 -0.7881  2.3835
  183MOL0     H24145   2.842   6.703   4.600  0.3755  0.5072  0.1613
  183MOL0     H24146   3.121   6.662   4.611  0.2960  0.8541 -0.6586
  183MOL0     H24147   3.025   6.787   4.538  0.0467  0.2968 -0.8609
  183MOL0     H24148   3.292   6.704   4.431  1.8140  1.7318 -0.1404
  183MOL0     H24149   3.175   6.818   4.367  1.5729 -0.6037 -0.6610
  183MOL0     H24150   3.269   6.870   4.656  0.1879  0.7251  0.5140
  183MOL0     H24151   3.196   6.974   4.538 -2.2310 -2.9246  0.2114
  183MOL0     H24152   3.399   6.958   4.399 -2.1406  2.7212 -0.2994
  183MOL0     H24153   3.425   7.046   4.557 -2.0546 -0.5654  0.2203
  183MOL0     H24154   3.673   6.755   4.671 -3.0938 -1.1846  3.0285
  183MOL0     H24155   2.967   6.424   4.310  1.2153 -0.5309  1.8800
  183MOL0     H24156   2.775   6.288   4.342 -2.6453  0.1896  0.0858
  184MOL0     O24157   6.054  10.268   0.638  0.7167  0.6785 -0.5215
  184MOL0     C24158   6.013  10.342   0.546 -0.1494  0.4403 -0.1147
  184MOL0     O24159   6.084  10.450   0.493  0.4702  0.1380 -0.0021
  184MOL0     C24160   6.212  10.486   0.522 -0.1998 -0.5822 -0.7071
  184MOL0     C24161   6.301  10.443   0.624  0.4755  0.7140  0.9188
  184MOL0     C24162   6.424  10.512   0.633 -0.5806 -0.2554 -0.0817
  184MOL0     C24163   6.466  10.600   0.533 -0.5510 -1.0759 -0.0375
  184MOL0     O24164   6.579  10.677   0.529 -0.0395  0.6902  0.1907
  184MOL0     C24165   6.657  10.679   0.653  0.8374  0.3451  0.1922
  184MOL0     C24166   6.778  10.765   0.636 -0.1231 -0.4046  0.2188
  184MOL0     C24167   6.880  10.719   0.530  0.2862  0.4820  0.2587
  184MOL0     C24168   7.010  10.801   0.516 -0.0902 -0.5024  0.2090
  184MOL0     C24169   7.104  10.732   0.419  0.5345 -0.2593 -0.7595
  184MOL0     C24170   7.231  10.810   0.384 -0.1585 -0.1687  0.7251
  184MOL0     C24171   7.331  10.725   0.309 -0.2521  0.1938 -0.4855
  184MOL0     C24172   7.463  10.799   0.288 -0.7322  0.1878 -0.1379
  184MOL0     N24173   7.574  10.722   0.209  1.3945 -0.5712  0.5882
  184MOL0     C24174   7.557  10.644   0.095  0.1939  0.1361 -0.3465
  184MOL0     C24175   7.681  10.610   0.063 -0.0699 -0.3635  0.8833
  184MOL0     C24176   7.722  10.517  -0.062 -0.4546 -0.3357 -0.6878
  184MOL0     C24177   7.603  10.494  -0.159 -0.4436 -0.3035 -0.4160
  184MOL0     C24178   7.570  10.620  -0.241  0.1036 -0.2880 -0.1905
  184MOL0     C24179   7.421  10.623  -0.283  0.4595  0.7359  0.1772
  184MOL0     O24180   7.340  10.634  -0.164  0.0909  0.6951 -0.1482
  184MOL0     C24181   7.202  10.611  -0.174 -0.1625  0.0980  1.2568
  184MOL0     C24182   7.134  10.607  -0.302  0.0714 -0.6215 -0.0081
  184MOL0     C24183   6.989  10.602  -0.293  0.2650 -0.0758 -0.6805
  184MOL0     C24184   6.920  10.585  -0.170 -0.7758  1.7881  0.7781
  184MOL0     C24185   6.771  10.586  -0.160 -0.1771  0.3182  0.2633
  184MOL0     O24186   6.713  10.599  -0.040  0.3040 -0.6229 -0.0838
  184MOL0     C24187   6.571  10.602  -0.031  0.1872  0.1539  0.7975
  184MOL0     C24188   6.500  10.726  -0.031  1.5404  0.1241  0.7181
  184MOL0     C24189   6.364  10.728  -0.017  0.3006 -0.0417  0.1362
  184MOL0     C24190   6.287  10.608  -0.012  0.1303  0.8494 -0.2668
  184MOL0     O24191   6.152  10.600  -0.012  0.1897 -0.5496 -0.5072
  184MOL0     C24192   6.085  10.708   0.056 -0.3113  0.4595 -0.0443
  184MOL0     C24193   5.942  10.708   0.033 -0.0652  0.1631  0.3515
  184MOL0     C24194   5.896  10.716  -0.113 -0.5256 -0.2612  0.5885
  184MOL0     C24195   5.744  10.742  -0.105  0.3983 -0.3432 -0.4333
  184MOL0     C24196   5.687  10.787  -0.239  1.0880  0.0751 -0.2751
  184MOL0     C24197   5.537  10.797  -0.249  0.8717 -0.1354 -0.6436
  184MOL0     C24198   5.464  10.665  -0.209 -1.5772 -0.0355 -0.2113
  184MOL0     C24199   5.336  10.644  -0.273  0.1711 -1.5619  0.3711
  184MOL0    Cl24200   5.350  10.584  -0.447  0.0591  0.0506 -0.0054
  184MOL0     C24201   6.360  10.491  -0.024  0.9895 -0.1822  0.3546
  184MOL0     C24202   6.502  10.484  -0.027 -0.1382 -0.2810  0.0231
  184MOL0     O24203   6.704  10.579  -0.271 -0.7260 -0.1772 -0.0936
  184MOL0     C24204   6.993  10.573  -0.056  0.2511  0.3008 -0.1289
  184MOL0     C24205   7.126  10.599  -0.060 -0.9462  0.0394  0.1793
  184MOL0     N24206   7.764  10.661   0.151 -0.6249 -0.1624 -0.6293
  184MOL0     N24207   7.706  10.741   0.232  0.0675 -0.4911 -0.5953
  184MOL0     C24208   6.383  10.631   0.425  0.6183  0.0840  0.1609
  184MOL0     C24209   6.260  10.573   0.422  0.0556  0.4505 -0.5296
  184MOL0     C24210   5.870  10.346   0.512 -0.5378 -0.0076  0.0734
  184MOL0     C24211   5.816  10.470   0.472 -0.1668  1.2770  0.4742
  184MOL0     C24212   5.676  10.481   0.449  0.1787  0.2609 -0.2312
  184MOL0     C24213   5.595  10.371   0.444 -0.4297 -0.5906  0.5057
  184MOL0     O24214   5.463  10.386   0.421 -0.3273 -0.5486 -0.1059
  184MOL0     C24215   5.384  10.268   0.434  0.3695 -0.0754 -0.2867
  184MOL0     C24216   5.245  10.299   0.381 -0.3340  0.2866  0.9291
  184MOL0     C24217   5.174  10.169   0.352 -0.3531 -0.5581  0.1951
  184MOL0     C24218   5.022  10.183   0.344  0.4448 -0.2538  0.0678
  184MOL0     C24219   4.969  10.265   0.229 -1.0061  0.5501  0.1443
  184MOL0     C24220   4.937  10.335   0.134  0.4963  0.4748  0.0244
  184MOL0     C24221   5.654  10.243   0.477  0.3505 -0.6515  0.5426
  184MOL0     C24222   5.787  10.234   0.515 -0.0971  1.1258  0.2572
  184MOL0     H24223   6.269  10.371   0.699  1.1164 -1.5793 -0.8942
  184MOL0     H24224   6.490  10.485   0.715  1.1193  2.3707 -0.4701
  184MOL0     H24225   6.689  10.582   0.692  1.9892  1.1037  1.1995
  184MOL0     H24226   6.585  10.737   0.711 -1.6029  2.0406 -4.0969
  184MOL0     H24227   6.825  10.780   0.733  2.4441 -1.5695 -0.7669
  184MOL0     H24228   6.748  10.866   0.607  2.8180  0.3413 -0.5507
  184MOL0     H24229   6.826  10.720   0.435 -0.3666  1.1159  0.6209
  184MOL0     H24230   6.911  10.619   0.560  2.0328  0.9239  0.0093
  184MOL0     H24231   6.980  10.900   0.482  0.1391 -0.0306  1.3498
  184MOL0     H24232   7.072  10.806   0.606  1.1163 -1.0765 -0.5551
  184MOL0     H24233   7.055  10.718   0.322  0.7609 -0.8138 -0.7989
  184MOL0     H24234   7.128  10.636   0.465 -0.5298  0.3411  1.1664
  184MOL0     H24235   7.284  10.849   0.471  0.5715  0.7938 -0.1320
  184MOL0     H24236   7.206  10.893   0.317  0.0143 -1.2581 -0.7450
  184MOL0     H24237   7.369  10.641   0.369  0.4315  1.7917  1.4219
  184MOL0     H24238   7.279  10.688   0.220  0.3434 -1.1380 -0.3023
  184MOL0     H24239   7.506  10.839   0.381  1.5950  0.5974 -1.3114
  184MOL0     H24240   7.441  10.890   0.231  2.0274  0.9730 -0.1048
  184MOL0     H24241   7.463  10.601   0.062 -0.1653 -1.7661  2.7110
  184MOL0     H24242   7.760  10.422  -0.024  1.8542  2.2805  4.5462
  184MOL0     H24243   7.794  10.578  -0.119  2.0547  1.5536  3.9258
  184MOL0     H24244   7.509  10.463  -0.111 -0.8583 -0.2226 -1.1575
  184MOL0     H24245   7.636  10.419  -0.231  0.0568 -1.2087  0.7289
  184MOL0     H24246   7.599  10.709  -0.185 -0.5633 -1.1133  1.5341
  184MOL0     H24247   7.628  10.612  -0.334 -2.2092  0.7353 -1.8217
  184MOL0     H24248   7.403  10.526  -0.331  1.1219  0.4739  0.4443
  184MOL0     H24249   7.411  10.704  -0.355  0.2227  0.4264 -0.1427
  184MOL0     H24250   7.184  10.628  -0.396 -1.2922 -0.0292 -0.6453
  184MOL0     H24251   6.937  10.610  -0.388 -0.5191  3.4494 -0.0899
  184MOL0     H24252   6.565  10.812  -0.040  1.7036 -0.0411  0.2754
  184MOL0     H24253   6.318  10.825  -0.004 -0.9329 -0.7538  1.2389
  184MOL0     H24254   6.124  10.805   0.023  1.1556  0.4133  1.3782
  184MOL0     H24255   6.123  10.707   0.159  2.2485 -1.9341 -0.9062
  184MOL0     H24256   5.900  10.792   0.090 -2.1701 -0.7245  0.2055
  184MOL0     H24257   5.906  10.611   0.067  1.4004 -1.4188 -2.2889
  184MOL0     H24258   5.913  10.619  -0.161  0.1593  0.3098 -0.3488
  184MOL0     H24259   5.950  10.798  -0.162 -0.3818 -0.6750  0.0421
  184MOL0     H24260   5.691  10.653  -0.069  0.1194 -1.2237 -2.8477
  184MOL0     H24261   5.730  10.817  -0.027 -0.7239 -1.4056  0.4336
  184MOL0     H24262   5.724  10.707  -0.304 -0.8050 -0.4862 -0.7132
  184MOL0     H24263   5.739  10.881  -0.260 -0.1403  0.5387 -1.3715
  184MOL0     H24264   5.509  10.818  -0.353 -1.6498  1.9953  0.3259
  184MOL0     H24265   5.505  10.877  -0.182  1.8712  0.2801 -0.6413
  184MOL0     H24266   5.529  10.578  -0.227 -0.4703  0.5451  0.8474
  184MOL0     H24267   5.445  10.671  -0.101  1.6560 -1.2779  0.5558
  184MOL0     H24268   5.285  10.740  -0.259  1.2760 -0.9098  0.0662
  184MOL0     H24269   5.272  10.573  -0.219 -2.7518  0.9768  0.5409
  184MOL0     H24270   6.303  10.399  -0.013  2.0534 -1.1992 -2.0167
  184MOL0     H24271   6.573  10.402  -0.035  1.2556  0.9891 -0.8798
  184MOL0     H24272   6.943  10.569   0.040 -0.5059 -0.3977 -0.5357
  184MOL0     H24273   7.179  10.592   0.034  1.6325 -0.7778 -1.2231
  184MOL0     H24274   6.419  10.698   0.348  2.1344 -0.1774  0.6194
  184MOL0     H24275   6.192  10.589   0.339  0.0831 -0.6067 -0.7693
  184MOL0     H24276   5.877  10.560   0.468 -1.3355  2.1300  1.3294
  184MOL0     H24277   5.630  10.578   0.429 -1.1251  0.5933  3.4417
  184MOL0     H24278   5.370  10.226   0.535 -0.9002 -0.1953 -0.5002
  184MOL0     H24279   5.426  10.190   0.370  0.6568  1.0739 -1.5247
  184MOL0     H24280   5.195  10.358   0.458 -1.5116  1.2340 -0.4869
  184MOL0     H24281   5.250  10.356   0.287  1.1938 -2.2827 -0.6727
  184MOL0     H24282   5.189  10.095   0.432 -2.6911 -1.9530 -0.5395
  184MOL0     H24283   5.216  10.113   0.268 -0.5555 -1.3350  0.5973
  184MOL0     H24284   4.989  10.084   0.311  2.1662 -0.3963 -1.3317
  184MOL0     H24285   4.982  10.213   0.441  2.0869 -0.1424  0.7465
  184MOL0     H24286   4.912  10.375   0.038 -0.8788  0.5198  0.3675
  184MOL0     H24287   5.609  10.145   0.464  1.2865 -1.2743  1.7971
  184MOL0     H24288   5.827  10.140   0.551 -2.6419 -0.1123  0.1003
  185MOL0     O24289   9.180   1.995  10.188 -0.4490  0.5807 -0.3741
  185MOL0     C24290   9.128   1.883  10.174 -0.2985 -0.1004 -0.1180
  185MOL0     O24291   9.196   1.764  10.155 -0.2373 -0.2639  0.0332
  185MOL0     C24292   9.327   1.772  10.120 -0.1890 -0.8454  0.4787
  185MOL0     C24293   9.432   1.727  10.207  0.5697 -0.4255  0.8026
  185MOL0     C24294   9.570   1.729  10.166 -0.9077  0.3498 -0.2885
  185MOL0     C24295   9.609   1.780  10.043 -0.3779  0.2258 -0.8188
  185MOL0     O24296   9.734   1.775   9.988 -0.8146  0.5044  0.2686
  185MOL0     C24297   9.839   1.706  10.063  0.0286 -0.4359  0.0584
  185MOL0     C24298   9.976   1.756  10.008 -0.0219  0.2093 -0.5515
  185MOL0     C24299   9.988   1.724   9.853  0.0361  0.0870  0.5842
  185MOL0     C24300  10.127   1.759   9.814  0.0920 -0.1070 -0.2511
  185MOL0     C24301  10.164   1.748   9.664  0.2773 -0.8225  0.0608
  185MOL0     C24302  10.069   1.819   9.561 -0.4331  0.0974  0.6156
  185MOL0     C24303  10.121   1.806   9.417 -0.3653  0.1719 -0.0320
  185MOL0     C24304  10.049   1.887   9.310  0.7271  0.4377  0.6038
  185MOL0     N24305   9.931   1.809   9.251 -0.2681 -0.2896  0.0039
  185MOL0     C24306   9.798   1.834   9.281 -0.7751  0.1903  1.3159
  185MOL0     C24307   9.729   1.762   9.186 -0.0182 -0.5098 -0.1793
  185MOL0     C24308   9.579   1.739   9.182  0.1505  0.3236  0.7811
  185MOL0     C24309   9.551   1.586   9.210 -0.3075 -0.1949 -0.5338
  185MOL0     C24310   9.402   1.573   9.176  0.2078 -0.4032 -0.1732
  185MOL0     C24311   9.333   1.454   9.249 -0.6184  0.1962  0.2694
  185MOL0     O24312   9.202   1.421   9.195  0.7685  0.2838  0.0405
  185MOL0     C24313   9.103   1.355   9.260 -0.6821 -0.2775 -0.5028
  185MOL0     C24314   8.973   1.341   9.203 -0.5129  0.2275 -0.4666
  185MOL0     C24315   8.871   1.277   9.277  0.7574 -0.3266 -0.7346
  185MOL0     C24316   8.881   1.239   9.409  0.1464  0.0732  0.2464
  185MOL0     C24317   8.762   1.185   9.476  0.0174 -0.4764 -0.1992
  185MOL0     O24318   8.648   1.194   9.411  0.0182 -0.5643 -0.3006
  185MOL0     C24319   8.525   1.169   9.475  0.5724 -0.2588  0.3661
  185MOL0     C24320   8.428   1.129   9.382 -0.5115 -0.1745  0.0013
  185MOL0     C24321   8.298   1.107   9.410 -0.3618  0.2848 -0.5202
  185MOL0     C24322   8.252   1.132   9.538 -0.4191 -0.3526  0.1447
  185MOL0     O24323   8.122   1.098   9.576  0.3011  0.0024  0.1505
  185MOL0     C24324   8.054   1.166   9.680 -0.2731  0.7139  0.0259
  185MOL0     C24325   7.914   1.107   9.689  0.0661 -0.9921  0.2591
  185MOL0     C24326   7.901   0.956   9.731  0.0997  0.0996 -0.0004
  185MOL0     C24327   7.935   0.859   9.617  0.2741 -0.6195 -0.3414
  185MOL0     C24328   7.919   0.713   9.648 -0.6096  0.7740 -0.2671
  185MOL0     C24329   7.925   0.607   9.530 -0.7118  0.0796 -0.3250
  185MOL0     C24330   7.892   0.466   9.563 -0.2630 -0.1754 -0.0628
  185MOL0     C24331   7.743   0.450   9.626  0.1670 -0.6576 -0.0893
  185MOL0    Cl24332   7.704   0.274   9.640  0.2893  0.1611  0.0454
  185MOL0     C24333   8.348   1.175   9.637  0.4755 -0.8669 -0.7072
  185MOL0     C24334   8.485   1.181   9.608  1.2387 -0.3749 -0.0285
  185MOL0     O24335   8.781   1.133   9.589  0.4722  0.4829  0.2407
  185MOL0     C24336   9.010   1.260   9.463  0.1687  0.7726 -0.2279
  185MOL0     C24337   9.122   1.309   9.390 -0.0260 -0.7722  0.6480
  185MOL0     N24338   9.824   1.709   9.100  0.2705  0.6371 -0.8012
  185MOL0     N24339   9.946   1.733   9.140 -0.0648 -0.3614  0.3348
  185MOL0     C24340   9.506   1.819   9.961 -0.1301 -0.3088 -0.1472
  185MOL0     C24341   9.366   1.814   9.994  0.5152  0.2324 -0.1853
  185MOL0     C24342   8.972   1.872  10.183  0.2222 -0.1923  0.0304
  185MOL0     C24343   8.898   1.988  10.203 -0.2245 -0.1384 -0.2336
  185MOL0     C24344   8.757   1.992  10.209  0.5766  1.1025  1.0341
  185MOL0     C24345   8.692   1.867  10.186  0.3715  0.7346  1.1203
  185MOL0     O24346   8.553   1.856  10.191 -0.0683  0.7420 -0.2489
  185MOL0     C24347   8.492   1.777  10.094 -0.5793  0.0091  0.0791
  185MOL0     C24348   8.346   1.805  10.079 -0.3127 -0.0489  0.3522
  185MOL0     C24349   8.259   1.719  10.175  0.6068 -0.9125 -0.1992
  185MOL0     C24350   8.109   1.754  10.151 -0.0584 -0.5745 -0.8386
  185MOL0     C24351   8.028   1.763  10.274  0.0342  1.0868  0.4952
  185MOL0     C24352   7.965   1.780  10.377  0.0904 -0.2302 -0.7374
  185MOL0     C24353   8.769   1.751  10.152 -0.4700 -0.1729 -0.4986
  185MOL0     C24354   8.904   1.752  10.153 -0.5117  0.2200  1.2056
  185MOL0     H24355   9.408   1.701  10.309  0.8518 -0.3008  0.9022
  185MOL0     H24356   9.643   1.705  10.242  0.0263  2.9745 -0.2535
  185MOL0     H24357   9.843   1.597  10.058 -0.0876 -0.4252 -0.2904
  185MOL0     H24358   9.844   1.743  10.166 -0.1870  0.3861 -0.2233
  185MOL0     H24359  10.053   1.708  10.069 -1.3164  0.6770  1.5368
  185MOL0     H24360   9.981   1.864  10.022 -2.3392  0.3668 -0.6900
  185MOL0     H24361   9.916   1.776   9.790 -0.8752 -0.8138  0.8620
  185MOL0     H24362   9.989   1.615   9.837  0.7417 -0.1083  1.8001
  185MOL0     H24363  10.152   1.864   9.836 -1.4550  0.5473 -1.4495
  185MOL0     H24364  10.194   1.696   9.873  1.3784  2.0776  0.7618
  185MOL0     H24365  10.164   1.645   9.627  1.1265 -1.1229  0.8616
  185MOL0     H24366  10.265   1.786   9.650  0.7187 -2.3993 -1.3947
  185MOL0     H24367  10.067   1.927   9.581  1.7814  1.0742 -3.3265
  185MOL0     H24368   9.967   1.780   9.564 -1.6195  2.9235  0.9335
  185MOL0     H24369  10.223   1.844   9.417 -0.0723 -0.4512  1.9803
  185MOL0     H24370  10.107   1.701   9.390 -0.6994  0.1009  0.3926
  185MOL0     H24371  10.116   1.899   9.225  0.3056  1.2458  0.3742
  185MOL0     H24372  10.009   1.981   9.349  4.1639  2.1734  0.3301
  185MOL0     H24373   9.765   1.883   9.372  0.2955 -1.6517  2.7569
  185MOL0     H24374   9.544   1.776   9.085 -3.8571 -1.4510  1.3118
  185MOL0     H24375   9.520   1.792   9.258 -1.4709 -1.6350  0.9837
  185MOL0     H24376   9.557   1.568   9.318 -1.0197 -0.5476 -0.5480
  185MOL0     H24377   9.614   1.509   9.166 -1.1945 -1.9615  1.1251
  185MOL0     H24378   9.353   1.667   9.201 -0.7338 -0.8025 -0.4734
  185MOL0     H24379   9.388   1.554   9.069 -1.0398  0.9123 -0.2740
  185MOL0     H24380   9.330   1.488   9.353  2.3498  3.9366 -0.6270
  185MOL0     H24381   9.402   1.369   9.246  2.9014  2.8434 -0.9262
  185MOL0     H24382   8.958   1.383   9.104 -0.5316  0.6752 -0.2777
  185MOL0     H24383   8.772   1.279   9.233 -0.7153 -1.8626  2.2363
  185MOL0     H24384   8.456   1.099   9.282 -3.3671  0.5776 -1.1312
  185MOL0     H24385   8.248   1.059   9.327  0.5832  1.7786 -2.0121
  185MOL0     H24386   8.046   1.269   9.645 -0.3752  0.4754 -0.6930
  185MOL0     H24387   8.099   1.157   9.778 -1.8681  0.7657  0.8005
  185MOL0     H24388   7.859   1.113   9.594 -0.1726 -0.2423  0.4470
  185MOL0     H24389   7.865   1.171   9.763  0.6006  0.0163 -0.2402
  185MOL0     H24390   7.801   0.938   9.771 -0.5687  0.9716 -1.2240
  185MOL0     H24391   7.978   0.953   9.808 -0.6772  2.0170  0.9043
  185MOL0     H24392   7.875   0.887   9.530  0.8381 -1.8215 -1.1398
  185MOL0     H24393   8.038   0.875   9.584 -0.0167 -1.8408 -1.9706
  185MOL0     H24394   7.833   0.703   9.714 -0.3189  3.4077  0.6493
  185MOL0     H24395   8.007   0.696   9.711  0.8548 -0.2065 -2.4320
  185MOL0     H24396   8.031   0.599   9.506 -0.9548 -0.0218 -1.3972
  185MOL0     H24397   7.861   0.641   9.449 -0.3015  1.9841  0.0870
  185MOL0     H24398   7.913   0.401   9.477 -0.7745 -0.0842 -0.2584
  185MOL0     H24399   7.959   0.426   9.640 -1.0225  0.2695  0.8490
  185MOL0     H24400   7.666   0.498   9.565 -0.3751  0.0735  1.1143
  185MOL0     H24401   7.738   0.502   9.722 -4.9853 -1.7095  0.5056
  185MOL0     H24402   8.326   1.200   9.741  1.7541  1.8685 -0.9998
  185MOL0     H24403   8.560   1.200   9.685  0.1160  0.1698  0.9724
  185MOL0     H24404   9.024   1.233   9.567 -0.5423 -0.2088 -0.3688
  185MOL0     H24405   9.213   1.318   9.448 -0.6058 -1.7018  1.7775
  185MOL0     H24406   9.531   1.848   9.860  0.6202 -1.5794 -0.3372
  185MOL0     H24407   9.292   1.849   9.924  0.7794  3.3038  0.9214
  185MOL0     H24408   8.954   2.079  10.222  1.4432 -1.0631 -0.5958
  185MOL0     H24409   8.698   2.080  10.229  0.6726  1.1078  1.2995
  185MOL0     H24410   8.518   1.672  10.110  0.0239  0.2475  0.7348
  185MOL0     H24411   8.540   1.806  10.001 -1.5779  4.4181  0.7356
  185MOL0     H24412   8.308   1.906  10.096 -3.2610 -0.8680 -0.8024
  185MOL0     H24413   8.319   1.771   9.979  1.5582  0.8017 -0.4984
  185MOL0     H24414   8.278   1.727  10.282 -1.6523  0.0033  0.1768
  185MOL0     H24415   8.272   1.612  10.156 -0.0653 -0.9775 -0.3266
  185MOL0     H24416   8.101   1.854  10.107 -0.4141 -0.3647 -0.3108
  185MOL0     H24417   8.063   1.685  10.080 -1.3494 -0.6912  0.0710
  185MOL0     H24418   7.914   1.797  10.470 -2.4428  1.1514 -2.2539
  185MOL0     H24419   8.717   1.656  10.139 -1.3211  0.5943 -3.3586
  185MOL0     H24420   8.962   1.664  10.125 -0.9547  0.4599 -0.5561
  186MOL0     O24421   6.312   3.508   0.180 -0.1408 -0.5272 -0.0111
  186MOL0     C24422   6.259   3.486   0.287  0.2379  0.4444  0.4719
  186MOL0     O24423   6.165   3.390   0.316  0.0547 -0.2461  0.5321
  186MOL0     C24424   6.114   3.292   0.228 -0.3802 -0.6418  0.0627
  186MOL0     C24425   5.976   3.258   0.246  0.3081 -0.6173  0.2867
  186MOL0     C24426   5.920   3.153   0.163  0.3726  0.2183  0.4791
  186MOL0     C24427   5.993   3.076   0.074 -0.7645 -0.3871 -0.7492
  186MOL0     O24428   5.963   2.969  -0.007 -0.1796 -0.1110  0.3112
  186MOL0     C24429   5.837   2.905   0.007  0.2837  0.8513  0.0153
  186MOL0     C24430   5.844   2.762  -0.037  0.0587 -0.3500  0.1382
  186MOL0     C24431   5.707   2.686  -0.017  0.1764 -0.0047 -0.7214
  186MOL0     C24432   5.727   2.540  -0.052 -0.1181  0.8096  0.0279
  186MOL0     C24433   5.612   2.442  -0.020 -0.0896 -0.6570  0.0880
  186MOL0     C24434   5.491   2.469  -0.108  0.3693 -0.1672 -0.2886
  186MOL0     C24435   5.369   2.362  -0.086 -0.5305 -0.7008  0.3002
  186MOL0     C24436   5.257   2.391  -0.183 -0.0949 -0.3919 -0.7256
  186MOL0     N24437   5.137   2.330  -0.129  0.2999  0.4351 -0.1528
  186MOL0     C24438   5.120   2.189  -0.129 -0.8270  0.4930  0.8867
  186MOL0     C24439   5.003   2.166  -0.067  0.8155  0.1083 -0.2340
  186MOL0     C24440   4.933   2.041  -0.022  0.0646  0.8553 -0.0265
  186MOL0     C24441   5.005   1.924  -0.071 -0.0339 -0.7596  0.0452
  186MOL0     C24442   4.913   1.799  -0.069  0.7196 -0.0078  0.3112
  186MOL0     C24443   4.985   1.690  -0.147 -0.1089  0.8716 -0.2564
  186MOL0     O24444   4.921   1.558  -0.148  0.6220 -0.5505  0.3506
  186MOL0     C24445   4.801   1.539  -0.218  0.6946 -0.4513  0.5769
  186MOL0     C24446   4.754   1.639  -0.305 -0.5938  0.7830 -0.0683
  186MOL0     C24447   4.636   1.613  -0.376  0.0275 -0.4648  0.6468
  186MOL0     C24448   4.569   1.488  -0.366 -0.2849  0.3719  0.1160
  186MOL0     C24449   4.449   1.453  -0.442  0.0424 -0.3432  1.0213
  186MOL0     O24450   4.425   1.321  -0.461 -0.0599  0.3331 -0.0622
  186MOL0     C24451   4.324   1.272  -0.543  0.7455 -0.1070  0.1755
  186MOL0     C24452   4.313   1.297  -0.674  0.6296 -0.6497  0.8749
  186MOL0     C24453   4.211   1.240  -0.758  0.2319 -0.8453 -0.2810
  186MOL0     C24454   4.132   1.145  -0.699 -0.3372  0.5348 -0.6701
  186MOL0     O24455   4.052   1.064  -0.772  0.4380  0.3263  0.0442
  186MOL0     C24456   3.930   1.119  -0.815  0.8395  0.1385 -0.2065
  186MOL0     C24457   3.816   1.010  -0.827 -0.1533  0.2575  0.3825
  186MOL0     C24458   3.783   0.944  -0.690 -0.2440 -0.4449 -0.2814
  186MOL0     C24459   3.670   0.833  -0.702 -0.2747 -0.4928  0.0944
  186MOL0     C24460   3.542   0.896  -0.760 -0.5109  0.9839 -0.1899
  186MOL0     C24461   3.436   0.777  -0.752  0.3038 -0.7350 -0.7353
  186MOL0     C24462   3.300   0.827  -0.792  0.6658  0.5450 -0.1851
  186MOL0     C24463   3.206   0.703  -0.807 -0.5676 -0.0077  0.0465
  186MOL0    Cl24464   3.240   0.602  -0.954 -0.3828  0.0715  0.0848
  186MOL0     C24465   4.139   1.119  -0.563  0.0194  1.0287  0.3454
  186MOL0     C24466   4.234   1.181  -0.488 -0.0984 -0.3667 -0.6037
  186MOL0     O24467   4.403   1.544  -0.512 -0.3548  0.5547 -0.4755
  186MOL0     C24468   4.618   1.393  -0.277  1.2140  0.4875 -0.4311
  186MOL0     C24469   4.733   1.421  -0.203  0.2876 -0.0579 -0.1233
  186MOL0     N24470   4.944   2.292  -0.059  0.0337  0.2473 -0.1095
  186MOL0     N24471   5.022   2.387  -0.086 -0.3373 -0.2919 -0.3658
  186MOL0     C24472   6.130   3.113   0.055  0.9000 -0.5585  0.1421
  186MOL0     C24473   6.194   3.219   0.130  0.6418  0.5769  0.7929
  186MOL0     C24474   6.299   3.560   0.409  0.4571  0.8248 -1.3404
  186MOL0     C24475   6.262   3.517   0.537  0.7995 -0.4948  0.5817
  186MOL0     C24476   6.290   3.594   0.654  0.5774 -0.3953  0.2703
  186MOL0     C24477   6.346   3.721   0.642 -0.8750  0.3873  0.1662
  186MOL0     O24478   6.369   3.782   0.764 -0.0375 -0.0680 -0.4378
  186MOL0     C24479   6.438   3.914   0.781  0.4869  1.0334  0.5370
  186MOL0     C24480   6.483   3.932   0.928  0.0276  0.6280  0.0199
  186MOL0     C24481   6.599   4.026   0.952 -0.0355  0.1007  0.1649
  186MOL0     C24482   6.632   4.030   1.097  0.2248 -0.2102  0.3205
  186MOL0     C24483   6.735   4.129   1.135  0.6753 -0.4712  0.4659
  186MOL0     C24484   6.822   4.201   1.169  0.2515 -0.0208 -0.4582
  186MOL0     C24485   6.373   3.771   0.513  0.3102 -0.5982 -0.2203
  186MOL0     C24486   6.352   3.688   0.403  0.6813 -0.5288 -0.4942
  186MOL0     H24487   5.916   3.312   0.319 -0.8355 -2.4005  0.7288
  186MOL0     H24488   5.816   3.126   0.177 -0.2045  0.8493 -2.0990
  186MOL0     H24489   5.763   2.960  -0.052  1.6786  2.4501 -0.3187
  186MOL0     H24490   5.813   2.904   0.113  2.6970  0.2242  0.6169
  186MOL0     H24491   5.911   2.705   0.028  0.9706 -2.9882 -2.7911
  186MOL0     H24492   5.868   2.752  -0.144  0.4153 -2.4767  0.3640
  186MOL0     H24493   5.630   2.725  -0.085 -1.2148  0.2582  0.9421
  186MOL0     H24494   5.654   2.695   0.078 -1.7088  0.1338 -1.7340
  186MOL0     H24495   5.741   2.536  -0.161 -1.5520  4.5466 -0.4170
  186MOL0     H24496   5.815   2.519   0.008 -0.0259  3.1956  0.8301
  186MOL0     H24497   5.588   2.449   0.087  0.8894  2.3396  0.1962
  186MOL0     H24498   5.652   2.342  -0.041 -0.1738 -0.1150 -3.0797
  186MOL0     H24499   5.516   2.475  -0.214  1.5221 -1.4514 -0.1176
  186MOL0     H24500   5.450   2.568  -0.087 -1.4433 -1.1395  1.0254
  186MOL0     H24501   5.390   2.255  -0.096  0.0288 -0.4647 -1.2361
  186MOL0     H24502   5.329   2.378   0.015  0.5618 -0.4993  0.7154
  186MOL0     H24503   5.281   2.355  -0.284 -0.3179  1.3478 -1.4395
  186MOL0     H24504   5.239   2.499  -0.189  0.1842 -0.2994  0.1003
  186MOL0     H24505   5.192   2.119  -0.171 -0.2080  1.1010  0.9113
  186MOL0     H24506   4.832   2.045  -0.063  0.5523 -0.0214 -1.3881
  186MOL0     H24507   4.905   2.040   0.084 -2.8139 -3.6736 -0.5513
  186MOL0     H24508   5.098   1.909  -0.015  0.4665  1.2375 -0.1539
  186MOL0     H24509   5.027   1.946  -0.176  0.4059  1.4437  0.5470
  186MOL0     H24510   4.890   1.762   0.031 -0.4956  0.2612  0.1420
  186MOL0     H24511   4.821   1.826  -0.120  1.4264  0.9302 -0.4926
  186MOL0     H24512   5.085   1.661  -0.114  0.6292 -0.1307 -3.0599
  186MOL0     H24513   4.999   1.737  -0.245  0.7662  0.7897 -0.1739
  186MOL0     H24514   4.809   1.731  -0.321 -1.1135  1.3222  1.1552
  186MOL0     H24515   4.587   1.694  -0.430  0.7563  0.5947  1.5357
  186MOL0     H24516   4.387   1.370  -0.707  0.6789 -0.3251  1.6961
  186MOL0     H24517   4.190   1.253  -0.864  1.8431 -0.2378 -0.5657
  186MOL0     H24518   3.939   1.154  -0.918 -5.2088 -0.7765 -1.4193
  186MOL0     H24519   3.897   1.200  -0.749  3.9250  1.6737 -0.4065
  186MOL0     H24520   3.851   0.925  -0.886  0.5849 -0.9522  2.4842
  186MOL0     H24521   3.726   1.043  -0.880  1.3584 -1.4266 -3.6675
  186MOL0     H24522   3.754   1.016  -0.613  1.0822  0.6707 -0.7787
  186MOL0     H24523   3.874   0.890  -0.661 -0.3781 -0.2169  0.5969
  186MOL0     H24524   3.696   0.751  -0.770 -0.1440  0.1166 -0.6099
  186MOL0     H24525   3.663   0.782  -0.605  0.5324 -0.6722  0.0606
  186MOL0     H24526   3.558   0.926  -0.865  0.6108 -0.3302 -0.4148
  186MOL0     H24527   3.513   0.979  -0.695  0.9875 -0.7856  2.9745
  186MOL0     H24528   3.432   0.756  -0.645  1.1150  1.9141 -0.1265
  186MOL0     H24529   3.457   0.686  -0.810 -0.1101  0.7879 -3.4446
  186MOL0     H24530   3.268   0.886  -0.705  1.5079  0.6039  0.0945
  186MOL0     H24531   3.304   0.894  -0.878 -1.2716  0.8625 -0.0668
  186MOL0     H24532   3.100   0.730  -0.812 -0.4055  0.9502  1.2902
  186MOL0     H24533   3.227   0.628  -0.730  2.1460 -3.4278 -3.6351
  186MOL0     H24534   4.071   1.056  -0.507  1.2166 -0.2365  0.4411
  186MOL0     H24535   4.259   1.167  -0.384 -0.0471 -0.8113 -0.6759
  186MOL0     H24536   4.561   1.304  -0.251  0.7427  1.4354  2.0253
  186MOL0     H24537   4.774   1.352  -0.130 -0.5075 -0.2160  0.1864
  186MOL0     H24538   6.185   3.051  -0.015 -1.6199 -1.6357 -1.0361
  186MOL0     H24539   6.300   3.244   0.123  0.5574  0.5092 -1.4553
  186MOL0     H24540   6.207   3.425   0.552 -2.0640  0.3389 -3.2242
  186MOL0     H24541   6.257   3.568   0.754  1.6246 -1.8980  0.2664
  186MOL0     H24542   6.374   3.994   0.742 -1.4526  0.1312  1.7059
  186MOL0     H24543   6.530   3.913   0.722  0.8446  3.3568  0.9417
  186MOL0     H24544   6.401   3.961   0.994 -0.1813 -2.2346  1.1785
  186MOL0     H24545   6.502   3.835   0.975 -1.3895  0.4338  0.2448
  186MOL0     H24546   6.561   4.125   0.924 -1.0903  0.6192  3.0784
  186MOL0     H24547   6.673   3.992   0.879 -1.5475  1.4355 -2.1222
  186MOL0     H24548   6.541   4.061   1.149 -0.2539  0.4092 -0.8354
  186MOL0     H24549   6.670   3.929   1.116  0.6338 -0.7670 -2.9223
  186MOL0     H24550   6.904   4.253   1.214 -1.8867  3.4029 -0.1769
  186MOL0     H24551   6.407   3.873   0.494  0.0574 -0.2870  0.9262
  186MOL0     H24552   6.376   3.732   0.307  0.4515  0.6471 -0.0291
  187MOL0     O24553   7.139   5.044   8.835 -0.3118 -0.2454 -0.1980
  187MOL0     C24554   7.060   5.122   8.786  0.5034  0.0086  1.1187
  187MOL0     O24555   7.091   5.206   8.686  0.4679 -0.1898 -0.4467
  187MOL0     C24556   7.207   5.194   8.618  0.4925 -0.7072  0.3797
  187MOL0     C24557   7.201   5.185   8.474 -1.1989  0.0377  0.1717
  187MOL0     C24558   7.319   5.151   8.399 -0.6086 -0.5367  0.4199
  187MOL0     C24559   7.446   5.170   8.456 -0.5551 -0.1541 -0.9505
  187MOL0     O24560   7.572   5.145   8.400 -0.1933  0.3327  0.1680
  187MOL0     C24561   7.602   4.998   8.420  0.2983 -0.4214  0.0293
  187MOL0     C24562   7.748   4.967   8.371 -0.2212 -0.0605 -0.1910
  187MOL0     C24563   7.803   4.837   8.424 -0.1634  0.7350  0.4756
  187MOL0     C24564   7.752   4.713   8.348  0.1088 -1.4979  0.2316
  187MOL0     C24565   7.830   4.580   8.376 -0.5305 -0.1372 -0.0260
  187MOL0     C24566   7.823   4.528   8.523 -0.2371  0.4450 -0.7594
  187MOL0     C24567   7.695   4.448   8.555 -0.8275 -0.1659 -0.2103
  187MOL0     C24568   7.700   4.427   8.706  0.4644  0.4998 -0.5802
  187MOL0     N24569   7.615   4.315   8.747 -0.8975 -0.4467  0.4768
  187MOL0     C24570   7.628   4.182   8.728 -0.0297  0.5560 -0.2092
  187MOL0     C24571   7.516   4.124   8.788 -0.5614  0.0954  0.3798
  187MOL0     C24572   7.487   3.974   8.788 -0.8951  0.6224  0.1490
  187MOL0     C24573   7.342   3.939   8.803 -0.2729  0.0516  0.2668
  187MOL0     C24574   7.316   3.789   8.796 -0.0297  0.1633 -0.1381
  187MOL0     C24575   7.169   3.753   8.844 -0.1674 -0.8681  0.5914
  187MOL0     O24576   7.078   3.795   8.737 -0.2463  0.2764  0.0755
  187MOL0     C24577   6.948   3.758   8.765 -0.5427 -0.2029 -0.1493
  187MOL0     C24578   6.885   3.838   8.858 -0.4190 -0.2252  0.4494
  187MOL0     C24579   6.756   3.814   8.889  0.1048  0.0512 -0.0627
  187MOL0     C24580   6.677   3.715   8.837 -0.2339  0.3614 -0.3989
  187MOL0     C24581   6.535   3.699   8.867 -0.2604  1.1326 -1.1842
  187MOL0     O24582   6.486   3.817   8.903  0.2958  0.9055 -0.6186
  187MOL0     C24583   6.363   3.822   8.958  0.8235  0.1582  1.2493
  187MOL0     C24584   6.253   3.801   8.871 -0.0862  0.1647 -0.5776
  187MOL0     C24585   6.122   3.830   8.922 -0.2633  1.1607  0.0414
  187MOL0     C24586   6.104   3.866   9.050 -0.1567 -0.2884 -0.3988
  187MOL0     O24587   5.980   3.854   9.095  0.9672  0.5779  0.2966
  187MOL0     C24588   5.958   3.830   9.243 -0.4233 -0.1593  0.6703
  187MOL0     C24589   5.816   3.810   9.274  0.3862 -0.1039  0.2225
  187MOL0     C24590   5.725   3.930   9.224  0.6792 -0.3960  0.9762
  187MOL0     C24591   5.587   3.903   9.264  0.0152 -0.2411 -1.0177
  187MOL0     C24592   5.488   3.997   9.203 -0.0740  0.5569 -0.2824
  187MOL0     C24593   5.346   3.979   9.271 -1.0293 -0.3931  0.0646
  187MOL0     C24594   5.240   4.066   9.205  0.1506 -0.7356 -0.1657
  187MOL0     C24595   5.104   4.019   9.260 -0.1704  0.3260  0.6504
  187MOL0    Cl24596   5.058   4.110   9.407 -0.2609  0.0517 -0.5427
  187MOL0     C24597   6.214   3.895   9.133 -0.0095 -0.6024 -0.5269
  187MOL0     C24598   6.341   3.872   9.089  0.1006  0.3967 -0.1476
  187MOL0     O24599   6.482   3.589   8.869 -0.4803 -0.2267  0.0985
  187MOL0     C24600   6.741   3.628   8.751 -0.3251  0.3761 -0.5684
  187MOL0     C24601   6.874   3.651   8.715  0.2091  0.2817 -0.4266
  187MOL0     N24602   7.435   4.228   8.842 -0.5070 -0.2685 -0.7029
  187MOL0     N24603   7.499   4.337   8.814  0.6271 -0.1250 -0.2312
  187MOL0     C24604   7.454   5.195   8.598  0.2175 -0.3171  0.2133
  187MOL0     C24605   7.333   5.201   8.674 -1.0514  0.5618  0.1464
  187MOL0     C24606   6.918   5.116   8.832 -0.2081 -0.7656  0.9320
  187MOL0     C24607   6.874   5.030   8.936  0.4025  0.6167 -0.4887
  187MOL0     C24608   6.744   5.044   8.978 -0.1822  0.7522 -0.2442
  187MOL0     C24609   6.657   5.138   8.926  0.6283 -1.3970 -0.3533
  187MOL0     O24610   6.530   5.149   8.982 -0.7699  0.1021 -0.0986
  187MOL0     C24611   6.481   5.056   9.068  0.3451 -0.3551  0.6893
  187MOL0     C24612   6.336   5.076   9.088  0.6709  0.7829 -0.7970
  187MOL0     C24613   6.264   4.956   9.141  1.0276  0.0226 -0.8211
  187MOL0     C24614   6.112   4.987   9.170  0.7086  0.3451 -1.2415
  187MOL0     C24615   6.049   4.856   9.200 -0.4842 -1.5289  0.5484
  187MOL0     C24616   5.994   4.752   9.219  0.1768 -0.6790  0.4396
  187MOL0     C24617   6.707   5.233   8.837 -0.1332 -0.6128 -0.3186
  187MOL0     C24618   6.832   5.213   8.780  0.0409 -0.2200  0.3153
  187MOL0     H24619   7.109   5.185   8.416 -1.3138 -0.7692  0.3474
  187MOL0     H24620   7.318   5.128   8.292 -1.9626 -0.3505  0.3764
  187MOL0     H24621   7.527   4.952   8.354 -1.4171  1.8225  0.2494
  187MOL0     H24622   7.590   4.960   8.521  0.4030 -2.8446 -0.8202
  187MOL0     H24623   7.813   5.051   8.397  0.6659 -0.3845 -1.2867
  187MOL0     H24624   7.747   4.974   8.262  0.3211  1.5247 -0.1160
  187MOL0     H24625   7.787   4.828   8.532 -0.0645  0.4630  0.4664
  187MOL0     H24626   7.912   4.842   8.414 -0.1457 -1.0261 -0.4499
  187MOL0     H24627   7.646   4.692   8.361 -0.3597  0.9268  0.7992
  187MOL0     H24628   7.762   4.732   8.240 -1.6221 -1.6181  0.0240
  187MOL0     H24629   7.934   4.592   8.342 -0.3779 -0.4785  0.3108
  187MOL0     H24630   7.801   4.494   8.316 -0.8513  1.4265 -2.2398
  187MOL0     H24631   7.843   4.616   8.585  2.4034  1.0025 -2.2628
  187MOL0     H24632   7.904   4.458   8.543 -1.4981 -0.2583  2.3574
  187MOL0     H24633   7.609   4.513   8.533 -0.2647  0.5184 -0.4310
  187MOL0     H24634   7.690   4.356   8.497 -1.6427 -0.5905  0.5112
  187MOL0     H24635   7.653   4.512   8.755  0.1768  0.4395 -0.7492
  187MOL0     H24636   7.804   4.411   8.737 -0.3166 -0.7691  1.6069
  187MOL0     H24637   7.705   4.132   8.670 -0.5076  3.3574 -3.5927
  187MOL0     H24638   7.535   3.935   8.879 -0.7595 -0.4159 -0.3497
  187MOL0     H24639   7.530   3.921   8.702  0.8659 -1.5205  2.2025
  187MOL0     H24640   7.286   3.986   8.722  1.7227 -1.7757 -2.3350
  187MOL0     H24641   7.292   3.971   8.895 -1.9450 -0.7577 -0.3033
  187MOL0     H24642   7.334   3.758   8.693 -0.1891  2.3193 -0.8763
  187MOL0     H24643   7.373   3.726   8.864  2.3396  3.1381  0.8724
  187MOL0     H24644   7.146   3.791   8.944  1.5302 -2.3711  1.6202
  187MOL0     H24645   7.152   3.645   8.850 -1.1439 -0.7081  0.8515
  187MOL0     H24646   6.952   3.909   8.907  0.5021 -2.1132  2.0631
  187MOL0     H24647   6.721   3.890   8.959 -0.6289 -2.8497  3.0066
  187MOL0     H24648   6.264   3.752   8.775  1.0927 -0.1826 -0.2850
  187MOL0     H24649   6.031   3.804   8.869 -0.1607  0.2264  0.2983
  187MOL0     H24650   5.998   3.913   9.303  2.2142  0.5436 -1.8465
  187MOL0     H24651   6.008   3.738   9.274  2.5502  0.6608 -1.2823
  187MOL0     H24652   5.803   3.809   9.383  0.1835  0.5562  0.2111
  187MOL0     H24653   5.773   3.721   9.228 -5.8591  2.6040 -0.1653
  187MOL0     H24654   5.731   3.921   9.115  0.2267  2.7717  0.6089
  187MOL0     H24655   5.763   4.023   9.266 -1.2958 -0.0642  2.1604
  187MOL0     H24656   5.564   3.799   9.241  3.1348 -2.3431  3.7452
  187MOL0     H24657   5.585   3.909   9.373  0.2090  1.0559 -1.0585
  187MOL0     H24658   5.472   3.967   9.099  1.3278 -1.2637 -0.0374
  187MOL0     H24659   5.528   4.099   9.198  0.8339  0.1744 -1.4075
  187MOL0     H24660   5.359   4.010   9.375  1.7561 -2.4543  0.4573
  187MOL0     H24661   5.329   3.871   9.276  0.3059 -0.6703 -0.7430
  187MOL0     H24662   5.242   4.168   9.245  0.5235 -0.8358  0.0747
  187MOL0     H24663   5.251   4.047   9.098  1.3463  0.1057 -0.2088
  187MOL0     H24664   5.107   3.915   9.293  2.5953 -0.0485 -0.4599
  187MOL0     H24665   5.035   4.049   9.181  2.3798  3.5165 -0.6300
  187MOL0     H24666   6.195   3.933   9.232  0.4123 -0.1030 -0.6358
  187MOL0     H24667   6.426   3.915   9.141 -0.2823  0.1074  0.7385
  187MOL0     H24668   6.682   3.550   8.705 -0.9148  1.5206 -1.8129
  187MOL0     H24669   6.928   3.595   8.640  1.3459 -2.1435  2.0452
  187MOL0     H24670   7.554   5.194   8.640  0.1528 -0.5535  0.3663
  187MOL0     H24671   7.331   5.205   8.783 -0.5211 -0.3251  0.2026
  187MOL0     H24672   6.944   4.961   8.981  2.2079  0.7567 -2.8637
  187MOL0     H24673   6.715   4.973   9.054 -1.2950  0.3067 -1.0577
  187MOL0     H24674   6.547   5.067   9.155  3.6839  0.5309 -1.7322
  187MOL0     H24675   6.502   4.957   9.026  0.6683  0.0191 -0.0485
  187MOL0     H24676   6.322   5.159   9.158 -0.0791  0.7262 -0.8638
  187MOL0     H24677   6.270   5.112   9.009 -0.9108  1.6267  0.8277
  187MOL0     H24678   6.309   4.931   9.237 -1.0518 -1.6412 -0.2098
  187MOL0     H24679   6.272   4.877   9.065  0.7447  0.3111 -1.1534
  187MOL0     H24680   6.111   5.050   9.259  1.5198  1.3022 -1.8955
  187MOL0     H24681   6.057   5.048   9.098 -1.9238  2.7200  2.4805
  187MOL0     H24682   5.946   4.658   9.233  0.9377 -1.0339  0.7153
  187MOL0     H24683   6.661   5.327   8.807 -0.3939 -1.0509 -1.3445
  187MOL0     H24684   6.883   5.288   8.720  1.1130 -2.0978 -1.2485
  188MOL0     O24685   2.233   4.834   3.678 -0.0287 -0.0022 -0.1191
  188MOL0     C24686   2.255   4.919   3.595 -0.1866 -0.3860 -0.6767
  188MOL0     O24687   2.171   4.970   3.494 -0.5533 -0.3090  0.0352
  188MOL0     C24688   2.043   4.929   3.469  0.0462  0.2890 -0.1062
  188MOL0     C24689   1.965   4.843   3.556  0.1511 -0.5404  0.1506
  188MOL0     C24690   1.829   4.813   3.532  0.6213  0.4355  0.0651
  188MOL0     C24691   1.777   4.860   3.414  0.7077  0.1875 -0.1774
  188MOL0     O24692   1.645   4.851   3.382  0.4058  0.6534  0.4751
  188MOL0     C24693   1.556   4.827   3.491  0.2691 -1.0077 -0.3456
  188MOL0     C24694   1.418   4.870   3.457 -0.9599  0.4078 -0.3553
  188MOL0     C24695   1.332   4.879   3.586 -0.3646  0.5766  0.0511
  188MOL0     C24696   1.186   4.901   3.522 -1.0495 -0.1544 -0.1702
  188MOL0     C24697   1.082   4.905   3.634  0.3606  0.4977  0.3721
  188MOL0     C24698   0.946   4.903   3.571 -0.5845 -0.1450 -1.0208
  188MOL0     C24699   0.832   4.894   3.667  0.1426  0.0022 -0.4674
  188MOL0     C24700   0.704   4.893   3.592 -0.0387  0.5911 -0.2826
  188MOL0     N24701   0.583   4.864   3.666  0.6669  0.6322 -1.1303
  188MOL0     C24702   0.467   4.802   3.629  0.6934  0.4673  0.6145
  188MOL0     C24703   0.391   4.772   3.739 -0.2973 -0.4454  0.1473
  188MOL0     C24704   0.259   4.707   3.759 -0.7014  0.4965 -0.9692
  188MOL0     C24705   0.259   4.555   3.730  0.8536  0.0716 -0.9661
  188MOL0     C24706   0.318   4.472   3.844 -0.2714 -0.1535  0.4630
  188MOL0     C24707   0.475   4.476   3.862  0.0272  0.1163  0.9794
  188MOL0     O24708   0.542   4.432   3.741  0.0380  0.1215  0.3805
  188MOL0     C24709   0.673   4.474   3.728 -0.2297 -0.2348 -0.2504
  188MOL0     C24710   0.719   4.470   3.598  0.0722 -0.1075 -0.4662
  188MOL0     C24711   0.849   4.492   3.571  0.0225 -0.2081 -0.2114
  188MOL0     C24712   0.948   4.516   3.671  0.0247  0.0610 -0.3848
  188MOL0     C24713   1.091   4.533   3.640 -0.0568 -0.2110  0.8973
  188MOL0     O24714   1.128   4.508   3.512 -0.5624  0.0463  0.9315
  188MOL0     C24715   1.252   4.514   3.462  0.8424 -0.0150  0.9396
  188MOL0     C24716   1.369   4.464   3.520  0.3928  0.6917  0.2613
  188MOL0     C24717   1.487   4.450   3.443 -0.5182 -0.2187  1.2283
  188MOL0     C24718   1.492   4.508   3.321 -0.4796 -0.5772  0.2157
  188MOL0     O24719   1.610   4.501   3.241  0.6843  0.8924 -0.4418
  188MOL0     C24720   1.736   4.500   3.309  0.7181  0.2992  0.3855
  188MOL0     C24721   1.848   4.507   3.206  0.8395  0.0320 -0.0756
  188MOL0     C24722   1.982   4.524   3.272 -0.1471 -0.3093  0.1592
  188MOL0     C24723   2.079   4.534   3.153  0.7669  0.5194  0.6338
  188MOL0     C24724   2.222   4.527   3.203 -1.1168  0.1758  0.0248
  188MOL0     C24725   2.309   4.502   3.082  1.4354  0.3598 -0.0918
  188MOL0     C24726   2.467   4.528   3.098  0.9254 -0.4978  0.8555
  188MOL0     C24727   2.528   4.528   2.957 -0.1069  1.0817  0.2930
  188MOL0    Cl24728   2.441   4.410   2.846 -0.3330  0.4256  0.0315
  188MOL0     C24729   1.385   4.577   3.271 -0.5857 -0.1612  0.0494
  188MOL0     C24730   1.261   4.566   3.334  0.0781  0.7818  0.0399
  188MOL0     O24731   1.164   4.570   3.728 -0.0895  0.8985 -0.6923
  188MOL0     C24732   0.900   4.548   3.797  0.8623  0.0175  0.2287
  188MOL0     C24733   0.765   4.521   3.825  0.3504  0.3279 -0.9485
  188MOL0     N24734   0.463   4.826   3.844 -0.8539  0.6521 -0.0314
  188MOL0     N24735   0.576   4.872   3.806  0.1676  0.2580 -0.5134
  188MOL0     C24736   1.856   4.942   3.329  0.5969  0.5392  0.5406
  188MOL0     C24737   1.987   4.972   3.352 -1.3392  0.4606 -0.3795
  188MOL0     C24738   2.391   4.992   3.602  0.1603 -0.1839  0.8892
  188MOL0     C24739   2.457   5.016   3.480 -0.4710 -0.1208 -0.3953
  188MOL0     C24740   2.576   5.093   3.481  0.2877  0.1475  0.4010
  188MOL0     C24741   2.629   5.146   3.604  0.5198  0.5566 -0.2067
  188MOL0     O24742   2.748   5.213   3.606  0.1962  0.2463  0.1164
  188MOL0     C24743   2.783   5.279   3.722  0.5465 -0.4481 -0.6559
  188MOL0     C24744   2.902   5.367   3.698 -0.3061 -0.4402  0.4170
  188MOL0     C24745   3.026   5.287   3.684 -0.3641  0.3436  0.1027
  188MOL0     C24746   3.151   5.363   3.717 -0.1039 -0.0668 -0.6606
  188MOL0     C24747   3.272   5.276   3.699 -0.2924 -0.0999  0.3515
  188MOL0     C24748   3.364   5.196   3.695 -1.0256 -1.4744 -0.4335
  188MOL0     C24749   2.552   5.129   3.720 -0.9674 -0.2354 -0.1851
  188MOL0     C24750   2.438   5.050   3.723  0.3475  1.2549  0.4672
  188MOL0     H24751   1.999   4.801   3.650  2.9533 -0.9168 -0.9422
  188MOL0     H24752   1.772   4.763   3.610  1.8465 -0.1090  0.6300
  188MOL0     H24753   1.589   4.880   3.581  2.5947  0.8588 -2.1438
  188MOL0     H24754   1.552   4.722   3.521 -0.6707 -0.5635  1.1536
  188MOL0     H24755   1.387   4.796   3.383 -0.7974  0.9193 -0.9421
  188MOL0     H24756   1.425   4.968   3.408 -1.5598  1.3747  1.4051
  188MOL0     H24757   1.355   4.964   3.650 -0.5687  0.2462  0.5622
  188MOL0     H24758   1.332   4.783   3.638  1.2645  1.0018  0.8969
  188MOL0     H24759   1.180   4.993   3.464 -0.8593 -1.4283 -2.3195
  188MOL0     H24760   1.171   4.815   3.456 -0.0766 -0.0896 -0.4857
  188MOL0     H24761   1.084   4.987   3.706 -1.4567  0.5387  0.4282
  188MOL0     H24762   1.092   4.814   3.694  0.1702 -2.2787 -3.4036
  188MOL0     H24763   0.940   4.814   3.508  0.8364 -0.5665 -0.5848
  188MOL0     H24764   0.943   4.992   3.508  0.1242  0.3563 -0.3625
  188MOL0     H24765   0.841   4.799   3.720 -1.2362  0.3044  0.3530
  188MOL0     H24766   0.820   4.975   3.739  0.4281  0.0767 -0.5018
  188MOL0     H24767   0.710   4.809   3.522 -0.3150  0.2276  0.1257
  188MOL0     H24768   0.692   4.981   3.528  1.6307  2.0923  1.3425
  188MOL0     H24769   0.449   4.755   3.533 -1.5113  0.7594  0.8336
  188MOL0     H24770   0.178   4.747   3.697 -0.2832  2.3266 -0.4002
  188MOL0     H24771   0.225   4.721   3.862 -0.9142  2.9086 -1.3008
  188MOL0     H24772   0.317   4.532   3.640 -0.5082 -0.3085 -1.7700
  188MOL0     H24773   0.155   4.526   3.712  0.7162  0.8970 -1.5419
  188MOL0     H24774   0.278   4.497   3.943  1.2997  0.6709  0.9200
  188MOL0     H24775   0.293   4.368   3.821  2.8330 -0.4122 -2.6236
  188MOL0     H24776   0.488   4.414   3.952 -0.4067  3.7960  3.7945
  188MOL0     H24777   0.503   4.576   3.895 -0.0446  0.2072  0.7656
  188MOL0     H24778   0.639   4.437   3.533 -1.6566  0.9049  1.0443
  188MOL0     H24779   0.899   4.484   3.475  2.3541 -0.6482  0.9615
  188MOL0     H24780   1.373   4.415   3.616  2.3084 -1.5866 -0.8734
  188MOL0     H24781   1.571   4.399   3.489  0.5679  0.2643 -0.1706
  188MOL0     H24782   1.747   4.409   3.369 -0.3684  0.2457  0.5248
  188MOL0     H24783   1.747   4.580   3.382 -1.1642  0.6150  0.3516
  188MOL0     H24784   1.837   4.599   3.148  2.1616 -1.3679 -2.7387
  188MOL0     H24785   1.838   4.418   3.142 -0.7672 -0.3553  0.6663
  188MOL0     H24786   2.007   4.450   3.349 -0.0576 -0.8722 -0.4032
  188MOL0     H24787   1.974   4.615   3.331 -5.7869  2.4602 -3.8825
  188MOL0     H24788   2.069   4.458   3.076 -0.1575  0.7038  0.5541
  188MOL0     H24789   2.076   4.636   3.113 -0.6955  0.9801  1.8052
  188MOL0     H24790   2.231   4.437   3.265  1.1647 -0.0539 -0.5369
  188MOL0     H24791   2.251   4.618   3.256  1.6096  0.5930 -1.9206
  188MOL0     H24792   2.283   4.576   3.006  0.9922  0.3835  0.0810
  188MOL0     H24793   2.288   4.403   3.041 -0.1334  1.1720 -1.3580
  188MOL0     H24794   2.475   4.626   3.146 -1.6135 -0.8818  2.2474
  188MOL0     H24795   2.509   4.459   3.172 -1.1026  0.4664  3.0420
  188MOL0     H24796   2.634   4.501   2.965 -0.2041  0.0593 -1.4624
  188MOL0     H24797   2.521   4.623   2.903  1.8361 -0.6179 -3.2979
  188MOL0     H24798   1.378   4.627   3.175  0.4021 -1.4023 -0.7125
  188MOL0     H24799   1.173   4.607   3.284  0.9616  2.2922 -0.3348
  188MOL0     H24800   0.965   4.589   3.873  2.1117 -2.5118  0.6345
  188MOL0     H24801   0.727   4.530   3.926 -1.9737 -0.7852 -1.6517
  188MOL0     H24802   1.805   4.994   3.248 -0.0160 -0.9574 -0.0712
  188MOL0     H24803   2.043   5.031   3.280 -2.3514  1.7198 -0.1662
  188MOL0     H24804   2.415   4.987   3.384  0.1061  1.4879 -1.1706
  188MOL0     H24805   2.619   5.094   3.382  2.6756  1.9241  1.3451
  188MOL0     H24806   2.799   5.210   3.805  0.4354 -1.5614 -1.5386
  188MOL0     H24807   2.706   5.351   3.753  0.4131 -0.6235 -0.5773
  188MOL0     H24808   2.891   5.429   3.608  1.5999 -0.0451  0.4079
  188MOL0     H24809   2.911   5.426   3.789 -1.3039 -1.5382  1.2435
  188MOL0     H24810   3.022   5.250   3.581  0.3216  2.2655 -0.6635
  188MOL0     H24811   3.016   5.202   3.752 -0.7375 -0.0603 -0.4439
  188MOL0     H24812   3.164   5.448   3.650 -0.9611  1.7109  1.3131
  188MOL0     H24813   3.154   5.399   3.820  0.0927 -1.3052 -0.2047
  188MOL0     H24814   3.453   5.137   3.693 -1.8292 -2.8582  1.9273
  188MOL0     H24815   2.585   5.173   3.813  0.2829 -0.0408 -0.6910
  188MOL0     H24816   2.386   5.041   3.818 -0.7491 -3.9466 -0.3338
  189MOL0     O24817   7.437  10.054   6.325 -0.1534 -0.0521 -0.1127
  189MOL0     C24818   7.463  10.080   6.444  0.2646  0.2904 -0.3786
  189MOL0     O24819   7.377  10.061   6.548 -0.3379 -0.3438 -0.3293
  189MOL0     C24820   7.250  10.017   6.521  0.5837  0.3412 -0.1470
  189MOL0     C24821   7.211   9.891   6.559 -0.1894 -0.5402 -0.2023
  189MOL0     C24822   7.081   9.843   6.534  0.0578  0.2539  0.1888
  189MOL0     C24823   6.986   9.919   6.465  0.4889  0.2526 -0.2237
  189MOL0     O24824   6.864   9.864   6.432 -0.0310 -0.0029  0.2785
  189MOL0     C24825   6.755   9.946   6.391 -0.3998 -0.4604 -0.0298
  189MOL0     C24826   6.619   9.874   6.415 -0.0229 -0.5738  0.1860
  189MOL0     C24827   6.507   9.971   6.398  0.3807  0.1681  0.2468
  189MOL0     C24828   6.381   9.888   6.426 -0.3679  0.4558  0.1290
  189MOL0     C24829   6.257   9.947   6.358 -0.4581  0.3442 -0.2219
  189MOL0     C24830   6.152   9.837   6.360 -0.6427 -0.6312  0.4560
  189MOL0     C24831   6.083   9.796   6.495  0.2992 -0.4783 -0.0289
  189MOL0     C24832   5.984   9.688   6.472 -0.2272 -0.8943 -0.4424
  189MOL0     N24833   5.883   9.719   6.369  0.4249  0.0356  0.3260
  189MOL0     C24834   5.795   9.828   6.363  0.7136  0.4268  0.5440
  189MOL0     C24835   5.715   9.808   6.260  0.1138  0.8492 -0.6459
  189MOL0     C24836   5.592   9.885   6.225 -0.1387 -0.1064 -0.7392
  189MOL0     C24837   5.462   9.821   6.292 -0.1711 -0.6141 -0.0639
  189MOL0     C24838   5.344   9.872   6.206 -0.5076  0.2862  0.4738
  189MOL0     C24839   5.205   9.828   6.231 -0.4374 -0.0667 -0.4094
  189MOL0     O24840   5.135   9.907   6.132 -0.1845 -0.8013 -0.6703
  189MOL0     C24841   5.002   9.894   6.130  0.1933  0.6727 -0.9945
  189MOL0     C24842   4.925   9.790   6.192  0.0217  0.3779  0.4163
  189MOL0     C24843   4.782   9.781   6.168 -0.0156  0.3933  0.5556
  189MOL0     C24844   4.718   9.881   6.097 -0.9756  0.3403 -0.1413
  189MOL0     C24845   4.569   9.887   6.081 -1.1502  1.1820  0.2957
  189MOL0     O24846   4.499   9.792   6.132 -0.5573 -0.1654  0.0329
  189MOL0     C24847   4.366   9.796   6.151  0.6155 -0.6422  0.1258
  189MOL0     C24848   4.261   9.806   6.049  0.4161  0.4346 -0.9945
  189MOL0     C24849   4.121   9.795   6.086 -0.0868 -0.1719 -0.3648
  189MOL0     C24850   4.084   9.771   6.216 -0.2698 -1.0315  0.4110
  189MOL0     O24851   3.950   9.761   6.260  0.2004 -0.7357 -0.0597
  189MOL0     C24852   3.852   9.727   6.162 -0.4702  0.2602 -0.1971
  189MOL0     C24853   3.724   9.698   6.229 -0.0936  0.1233  0.0825
  189MOL0     C24854   3.629   9.635   6.125 -0.5236  0.3676  0.3604
  189MOL0     C24855   3.494   9.586   6.173  0.0095 -0.6134 -1.2411
  189MOL0     C24856   3.391   9.695   6.212  0.1515  0.9453 -0.1691
  189MOL0     C24857   3.251   9.633   6.253 -0.1985 -0.9567  0.6531
  189MOL0     C24858   3.160   9.749   6.299  0.0567 -0.2273  0.3824
  189MOL0     C24859   3.023   9.707   6.342  0.3245 -0.6296 -0.3186
  189MOL0    Cl24860   2.921   9.664   6.195 -0.2370 -0.2254 -0.0917
  189MOL0     C24861   4.191   9.760   6.311  0.7723  0.1897 -0.3912
  189MOL0     C24862   4.328   9.773   6.280  0.3489 -0.3448 -0.3856
  189MOL0     O24863   4.519   9.971   6.008 -0.7114 -0.0117  0.5819
  189MOL0     C24864   4.797   9.977   6.041 -0.4658 -1.0704  0.5433
  189MOL0     C24865   4.932   9.988   6.068 -0.3194  0.2851  0.2615
  189MOL0     N24866   5.758   9.692   6.203 -0.2018 -0.4194 -0.0796
  189MOL0     N24867   5.861   9.639   6.261  0.3848 -0.1513 -0.2435
  189MOL0     C24868   7.035  10.049   6.421  0.1669 -0.3059 -0.3729
  189MOL0     C24869   7.158  10.102   6.452  0.6924 -0.8837  0.3106
  189MOL0     C24870   7.595  10.124   6.478 -0.4977 -0.1039 -0.7163
  189MOL0     C24871   7.638  10.129   6.613 -1.0081 -0.5383 -0.4615
  189MOL0     C24872   7.768  10.179   6.644 -0.8847  0.5876  0.4670
  189MOL0     C24873   7.859  10.217   6.546  0.1566  0.2133 -0.2807
  189MOL0     O24874   7.985  10.247   6.593  0.1559 -0.5145 -0.2720
  189MOL0     C24875   8.078  10.273   6.486 -0.2204 -0.8887 -0.3224
  189MOL0     C24876   8.221  10.248   6.548  0.7102  0.9318  0.3841
  189MOL0     C24877   8.260  10.356   6.651  0.6301 -0.3985  0.2688
  189MOL0     C24878   8.416  10.351   6.673  0.6165 -0.3448 -0.2898
  189MOL0     C24879   8.473  10.399   6.548 -0.2939  0.2299 -0.0589
  189MOL0     C24880   8.508  10.433   6.434  0.0407 -0.3403 -1.2061
  189MOL0     C24881   7.810  10.215   6.415 -0.4097 -0.0098 -0.4138
  189MOL0     C24882   7.684  10.168   6.386 -0.4998  0.3864 -0.4570
  189MOL0     H24883   7.287   9.829   6.606 -0.3805 -0.3223  0.4000
  189MOL0     H24884   7.052   9.745   6.569 -1.0495  0.0341 -1.2636
  189MOL0     H24885   6.763   9.972   6.286  4.0917  0.4648  0.3636
  189MOL0     H24886   6.761  10.033   6.457 -0.7378  0.2083 -0.8784
  189MOL0     H24887   6.618   9.833   6.516 -0.1183  0.0484  0.4373
  189MOL0     H24888   6.615   9.789   6.346  1.1756  0.6695 -1.5114
  189MOL0     H24889   6.507  10.014   6.298  0.4232 -1.9330 -0.6955
  189MOL0     H24890   6.516  10.064   6.456 -1.8043  0.2098  0.6082
  189MOL0     H24891   6.396   9.783   6.397 -2.6405 -0.8182  3.0729
  189MOL0     H24892   6.362   9.884   6.533  1.8625  0.1970  0.5700
  189MOL0     H24893   6.281   9.985   6.259 -1.1701  1.1483 -0.0993
  189MOL0     H24894   6.226  10.033   6.418  1.5883 -0.0455  1.5611
  189MOL0     H24895   6.193   9.759   6.295  1.6103  2.3542 -2.0564
  189MOL0     H24896   6.066   9.886   6.313 -0.2934  0.6417  1.0791
  189MOL0     H24897   6.143   9.755   6.578  1.0116 -1.0000 -0.7875
  189MOL0     H24898   6.031   9.883   6.535 -0.5071 -2.0816  2.7436
  189MOL0     H24899   5.920   9.669   6.558  1.5653  0.8678  1.3693
  189MOL0     H24900   6.036   9.592   6.458 -0.3317 -0.8226 -1.4036
  189MOL0     H24901   5.775   9.918   6.421  0.0410  2.1955 -2.2005
  189MOL0     H24902   5.590   9.881   6.116  1.1314 -0.5211 -0.7525
  189MOL0     H24903   5.619   9.990   6.240  0.1975  0.1234 -2.7514
  189MOL0     H24904   5.452   9.847   6.397  2.3089 -0.2798  0.1522
  189MOL0     H24905   5.480   9.714   6.288  4.8933 -0.0853  1.8165
  189MOL0     H24906   5.344   9.981   6.220  1.1876  0.2963  0.5803
  189MOL0     H24907   5.371   9.849   6.103  1.5965  1.5647  0.6886
  189MOL0     H24908   5.181   9.838   6.338  2.1732 -2.5731  0.5494
  189MOL0     H24909   5.203   9.720   6.213  3.0802 -0.0285 -1.7395
  189MOL0     H24910   4.985   9.716   6.244  1.0795 -1.0670 -2.6077
  189MOL0     H24911   4.724   9.698   6.207 -2.1664  0.6678 -1.7919
  189MOL0     H24912   4.301   9.811   5.948 -0.3849  0.3070 -1.3232
  189MOL0     H24913   4.046   9.820   6.010 -0.0202  2.2249  0.2682
  189MOL0     H24914   3.895   9.647   6.101 -1.3755 -1.8650  1.8124
  189MOL0     H24915   3.840   9.815   6.099  1.9352 -0.2261 -1.4413
  189MOL0     H24916   3.688   9.785   6.284 -1.3148 -1.2201  1.5230
  189MOL0     H24917   3.732   9.619   6.305 -1.6436  1.2382  1.4792
  189MOL0     H24918   3.679   9.546   6.087 -0.4999  0.1446  0.9051
  189MOL0     H24919   3.623   9.706   6.042 -2.2865  1.1520  1.1081
  189MOL0     H24920   3.445   9.524   6.097 -3.0513 -2.1658  1.7548
  189MOL0     H24921   3.507   9.515   6.256 -2.6646  0.3273  0.0769
  189MOL0     H24922   3.380   9.772   6.135  1.0889  0.1721 -1.1121
  189MOL0     H24923   3.430   9.743   6.302  0.3649  1.3743 -0.4879
  189MOL0     H24924   3.256   9.561   6.335 -2.2824  0.0910  1.7879
  189MOL0     H24925   3.202   9.594   6.163  0.1247  1.2316 -0.5565
  189MOL0     H24926   3.207   9.794   6.387  0.9538  0.6566 -0.5297
  189MOL0     H24927   3.140   9.825   6.224  0.2631 -2.3019 -1.9077
  189MOL0     H24928   2.973   9.785   6.399 -2.1469 -2.4736  0.2462
  189MOL0     H24929   3.023   9.623   6.412 -2.8560  0.9359  1.8326
  189MOL0     H24930   4.166   9.759   6.417  0.8939  1.4655 -0.3313
  189MOL0     H24931   4.402   9.761   6.358  1.0766 -2.1769 -1.3062
  189MOL0     H24932   4.744  10.062   5.999  3.3500  0.5956 -1.3799
  189MOL0     H24933   4.988  10.072   6.030  0.2236 -0.1123  0.1623
  189MOL0     H24934   6.967  10.122   6.379  0.2014 -0.4216 -0.6276
  189MOL0     H24935   7.199  10.202   6.443 -1.6901  0.2898  1.5436
  189MOL0     H24936   7.571  10.098   6.693 -1.0623 -0.3758 -0.4432
  189MOL0     H24937   7.807  10.169   6.745 -1.1996 -3.4773  0.3738
  189MOL0     H24938   8.073  10.378   6.455 -1.1940 -0.0501  2.4051
  189MOL0     H24939   8.062  10.202   6.404  0.2522  0.7747 -1.9489
  189MOL0     H24940   8.209  10.152   6.599  0.5169  0.1207 -1.1445
  189MOL0     H24941   8.293  10.238   6.467 -1.5016 -1.9601 -1.4339
  189MOL0     H24942   8.221  10.330   6.749  0.4517 -2.2437 -0.2392
  189MOL0     H24943   8.221  10.452   6.619  0.2079  0.9163  4.2257
  189MOL0     H24944   8.441  10.418   6.756 -4.9520  0.9846  0.7487
  189MOL0     H24945   8.443  10.246   6.691 -0.1585 -0.8899 -2.0754
  189MOL0     H24946   8.539  10.468   6.337 -1.3560  1.5554 -1.0259
  189MOL0     H24947   7.864  10.234   6.323 -0.9427  0.9142 -0.5492
  189MOL0     H24948   7.660  10.163   6.280 -1.0823 -0.5372 -0.2842
  190MOL0     O24949   3.440   8.453   6.738 -0.3703 -0.4375 -0.3235
  190MOL0     C24950   3.508   8.410   6.832  0.7541  0.4005  0.0583
  190MOL0     O24951   3.459   8.356   6.946 -0.4195 -0.1495 -0.4471
  190MOL0     C24952   3.326   8.334   6.955 -0.1292 -0.6503  1.0000
  190MOL0     C24953   3.235   8.311   6.849 -0.6397 -0.9012  0.0436
  190MOL0     C24954   3.101   8.307   6.865  1.1813  0.3922  0.1149
  190MOL0     C24955   3.050   8.308   6.998  0.8290 -0.4111  0.3949
  190MOL0     O24956   2.914   8.285   7.036 -0.2419  0.2673 -0.3127
  190MOL0     C24957   2.818   8.286   6.927  0.1961  0.2971 -0.1155
  190MOL0     C24958   2.686   8.280   7.003 -0.0436  0.6266 -0.1705
  190MOL0     C24959   2.564   8.273   6.913  0.4608  1.0081  0.0881
  190MOL0     C24960   2.439   8.233   6.999 -0.7742  0.7663 -0.1397
  190MOL0     C24961   2.307   8.263   6.925  0.6766  0.1304  0.7130
  190MOL0     C24962   2.277   8.171   6.805  0.3550 -0.4702  0.0496
  190MOL0     C24963   2.147   8.204   6.743  0.9963  0.2919  0.0206
  190MOL0     C24964   2.098   8.075   6.666 -0.3448 -0.7715 -1.0016
  190MOL0     N24965   2.182   8.060   6.543 -0.1212 -0.6813 -0.0519
  190MOL0     C24966   2.258   7.947   6.509 -0.1894 -0.3758 -0.1930
  190MOL0     C24967   2.337   7.990   6.413  0.0850  0.1046 -0.3644
  190MOL0     C24968   2.450   7.906   6.340  0.3369 -0.2707  0.0163
  190MOL0     C24969   2.590   7.944   6.390  0.7668 -0.0657 -0.8637
  190MOL0     C24970   2.606   7.926   6.543  0.3834 -0.0888 -0.0200
  190MOL0     C24971   2.741   7.969   6.585  0.2168  0.4885  0.8502
  190MOL0     O24972   2.763   7.952   6.728 -0.5116  0.0489 -0.0007
  190MOL0     C24973   2.892   7.954   6.771 -0.2976  0.2267 -0.3001
  190MOL0     C24974   3.004   7.975   6.692 -0.3343  0.9376 -0.4790
  190MOL0     C24975   3.135   7.981   6.740  0.8156  0.0377  0.1059
  190MOL0     C24976   3.160   7.960   6.879 -0.4238  0.4290  0.0216
  190MOL0     C24977   3.303   7.954   6.929  0.2440  0.4669  0.0458
  190MOL0     O24978   3.401   7.980   6.834  0.5501  0.2944  0.1931
  190MOL0     C24979   3.537   7.981   6.858 -0.4807  0.5726 -0.8687
  190MOL0     C24980   3.617   7.911   6.759 -0.5164  0.5984 -1.0071
  190MOL0     C24981   3.756   7.912   6.774 -1.2146  0.1291 -0.4553
  190MOL0     C24982   3.815   7.979   6.872 -0.0483 -0.2673 -0.3817
  190MOL0     O24983   3.952   7.974   6.883 -0.2368 -0.1349  0.5161
  190MOL0     C24984   4.023   8.068   6.968 -0.3331 -1.3032  0.0187
  190MOL0     C24985   4.168   8.019   6.980  0.1939 -0.4087 -0.2324
  190MOL0     C24986   4.260   8.058   6.864  0.6165  0.2333  0.0571
  190MOL0     C24987   4.405   8.021   6.919  0.3808 -0.7304 -0.0492
  190MOL0     C24988   4.510   8.027   6.814 -0.0417 -0.1578  0.0059
  190MOL0     C24989   4.516   8.159   6.729  0.5212  0.1785  0.8363
  190MOL0     C24990   4.594   8.261   6.811 -0.3928  0.6537 -0.2893
  190MOL0     C24991   4.744   8.266   6.782  0.0451  0.2463  0.8917
  190MOL0    Cl24992   4.843   8.186   6.899  0.4255 -0.8055 -0.1147
  190MOL0     C24993   3.735   8.046   6.968  0.0226 -0.5275 -0.4502
  190MOL0     C24994   3.599   8.050   6.959 -0.0521 -0.2443 -0.2279
  190MOL0     O24995   3.317   7.933   7.047  0.1213  0.3944 -0.2888
  190MOL0     C24996   3.051   7.929   6.961  0.1427  0.0414  0.9187
  190MOL0     C24997   2.922   7.931   6.906  0.2560 -0.1804 -0.7413
  190MOL0     N24998   2.312   8.124   6.384 -0.2881  0.2005 -0.0118
  190MOL0     N24999   2.214   8.164   6.456 -0.2874  0.0727  0.0331
  190MOL0     C25000   3.136   8.330   7.105  0.4224 -0.2446  0.0647
  190MOL0     C25001   3.264   8.355   7.085  1.0088 -0.9461  0.4773
  190MOL0     C25002   3.654   8.420   6.824 -0.1557  0.3689  0.5457
  190MOL0     C25003   3.719   8.423   6.703 -0.5925  0.2761  0.8826
  190MOL0     C25004   3.855   8.414   6.693 -0.2419 -0.0783 -0.2201
  190MOL0     C25005   3.929   8.415   6.811 -0.6899  0.3146 -0.4901
  190MOL0     O25006   4.074   8.434   6.817  0.4351 -0.1806 -0.0245
  190MOL0     C25007   4.146   8.450   6.688  1.1845 -0.3896 -1.0299
  190MOL0     C25008   4.293   8.465   6.740  0.4355  0.0138  0.3744
  190MOL0     C25009   4.318   8.610   6.792 -0.0454 -0.2836  0.1269
  190MOL0     C25010   4.459   8.650   6.841 -0.0536 -0.4698 -0.7877
  190MOL0     C25011   4.462   8.785   6.898 -0.9413  0.1418 -0.2474
  190MOL0     C25012   4.486   8.890   6.946  0.5054 -0.6815 -0.2866
  190MOL0     C25013   3.869   8.404   6.935  0.3916  0.0276  0.7066
  190MOL0     C25014   3.732   8.403   6.944 -0.6890  0.3249 -0.6643
  190MOL0     H25015   3.272   8.300   6.748  2.2774  1.1842  0.7483
  190MOL0     H25016   3.043   8.281   6.777 -0.4702  2.3265  0.5545
  190MOL0     H25017   2.838   8.202   6.860  0.6348 -0.4097  0.8888
  190MOL0     H25018   2.819   8.379   6.868 -0.0284 -1.4794 -3.1297
  190MOL0     H25019   2.674   8.367   7.068 -1.7448 -2.1391  3.6352
  190MOL0     H25020   2.687   8.186   7.058  1.0215  0.5388 -0.3215
  190MOL0     H25021   2.579   8.199   6.835 -0.4633  0.9840 -0.0795
  190MOL0     H25022   2.563   8.370   6.861  2.8187  1.9655  1.6364
  190MOL0     H25023   2.454   8.133   7.041  0.3999  1.4877  1.3011
  190MOL0     H25024   2.435   8.301   7.085  2.6361 -0.8030  1.4473
  190MOL0     H25025   2.300   8.365   6.885  0.1857  0.2474  1.0756
  190MOL0     H25026   2.221   8.250   6.992 -0.3514 -0.3856 -0.6478
  190MOL0     H25027   2.283   8.064   6.826  0.0079 -0.3780  0.6377
  190MOL0     H25028   2.355   8.186   6.730 -1.2695  0.8123 -1.4775
  190MOL0     H25029   2.063   8.226   6.810  0.9557 -2.5148  1.0069
  190MOL0     H25030   2.154   8.292   6.678  1.8357  0.3196  0.1483
  190MOL0     H25031   1.993   8.100   6.647  0.0059  0.8581 -0.9242
  190MOL0     H25032   2.101   7.990   6.735 -0.0899  0.2431  0.2714
  190MOL0     H25033   2.260   7.850   6.557  2.9671 -0.3873 -0.1711
  190MOL0     H25034   2.439   7.932   6.235 -0.9053 -1.9571 -0.2992
  190MOL0     H25035   2.436   7.798   6.346  2.2411 -0.5684 -0.2907
  190MOL0     H25036   2.619   8.044   6.356  3.9569  0.8220  3.5894
  190MOL0     H25037   2.661   7.868   6.358  0.6258 -0.5174 -0.1183
  190MOL0     H25038   2.532   7.983   6.600  0.4115 -1.0724  1.0424
  190MOL0     H25039   2.579   7.822   6.559 -0.8292 -0.3097 -2.8791
  190MOL0     H25040   2.756   8.073   6.553  0.5387  0.3817  0.6451
  190MOL0     H25041   2.814   7.919   6.521 -0.9998  0.6264 -0.7013
  190MOL0     H25042   2.988   7.992   6.586  1.1912  0.5853 -0.7928
  190MOL0     H25043   3.212   7.989   6.664  0.3557 -2.4143 -0.7117
  190MOL0     H25044   3.572   7.852   6.679 -0.6187 -0.0271 -0.4953
  190MOL0     H25045   3.813   7.847   6.708 -0.4433  0.4708 -0.1459
  190MOL0     H25046   3.969   8.067   7.063 -1.0968 -1.2602 -0.4087
  190MOL0     H25047   4.027   8.163   6.913  0.1992 -0.5540  1.2955
  190MOL0     H25048   4.171   7.910   6.991 -1.4276 -0.2636  3.3656
  190MOL0     H25049   4.206   8.058   7.075  0.2358 -0.5558 -0.1877
  190MOL0     H25050   4.249   8.164   6.837  1.0297  0.3072  0.1751
  190MOL0     H25051   4.239   8.004   6.770  1.1409  1.3184 -0.7056
  190MOL0     H25052   4.427   8.094   6.997 -1.3982  1.8065 -1.7608
  190MOL0     H25053   4.395   7.917   6.953 -1.6218 -1.0641 -1.4820
  190MOL0     H25054   4.490   7.940   6.751 -1.9877 -0.0437  0.4211
  190MOL0     H25055   4.613   8.004   6.846  0.1998 -1.9189 -1.8504
  190MOL0     H25056   4.417   8.201   6.706  0.8242 -0.1758 -1.2724
  190MOL0     H25057   4.551   8.119   6.633 -1.3194  0.5846 -0.0556
  190MOL0     H25058   4.560   8.361   6.785 -0.8684  1.1294  1.9841
  190MOL0     H25059   4.577   8.250   6.919  3.1997 -0.5918  0.3100
  190MOL0     H25060   4.760   8.374   6.782  1.0909  0.1535 -1.5120
  190MOL0     H25061   4.756   8.228   6.681 -2.0786 -0.1466  0.7244
  190MOL0     H25062   3.779   8.096   7.053  0.0569  0.7919 -1.2163
  190MOL0     H25063   3.545   8.106   7.034  0.5766  0.0520  0.0130
  190MOL0     H25064   3.082   7.915   7.064  0.5536 -1.6223  0.6009
  190MOL0     H25065   2.836   7.898   6.962  0.4906  0.4423  0.0078
  190MOL0     H25066   3.100   8.326   7.208 -0.5022  3.1794 -0.0145
  190MOL0     H25067   3.324   8.373   7.173  3.4392 -1.1521 -1.0551
  190MOL0     H25068   3.654   8.412   6.617 -0.8727 -1.6614  1.3086
  190MOL0     H25069   3.908   8.419   6.598  0.3595 -0.0019  0.1108
  190MOL0     H25070   4.124   8.548   6.645  0.6961 -0.0649 -0.0488
  190MOL0     H25071   4.132   8.379   6.606 -3.9892  0.1529 -0.9277
  190MOL0     H25072   4.329   8.390   6.811  0.1559 -0.1158  0.3806
  190MOL0     H25073   4.355   8.449   6.652 -1.0436 -2.0402 -0.3784
  190MOL0     H25074   4.257   8.621   6.882 -1.1976  0.5941 -0.7318
  190MOL0     H25075   4.276   8.686   6.725  0.3582  0.3229  0.5475
  190MOL0     H25076   4.489   8.574   6.913 -2.1629 -0.8033 -0.1797
  190MOL0     H25077   4.525   8.648   6.754 -0.7807  0.5072 -1.3866
  190MOL0     H25078   4.500   8.982   6.998 -4.6337 -0.8856  2.0952
  190MOL0     H25079   3.938   8.385   7.017  3.0439  3.5566 -0.4559
  190MOL0     H25080   3.692   8.400   7.045  0.4517  0.0453 -0.1981
  191MOL0     O25081   9.650   0.060   0.558  0.1214 -0.0755  0.3190
  191MOL0     C25082   9.754   0.084   0.489  1.4932 -0.1330 -0.4944
  191MOL0     O25083   9.769   0.042   0.363  0.2356  0.6563  0.5037
  191MOL0     C25084   9.660   0.003   0.296 -0.0198  0.1423 -0.0355
  191MOL0     C25085   9.636  -0.129   0.278  0.1318  0.5631 -1.6970
  191MOL0     C25086   9.515  -0.171   0.215  0.2240 -0.9896 -1.3384
  191MOL0     C25087   9.426  -0.073   0.178 -0.2360  0.1058  0.1558
  191MOL0     O25088   9.301  -0.093   0.120 -0.2077 -0.6199 -0.0128
  191MOL0     C25089   9.234  -0.203   0.159  0.0196  0.1643  0.5639
  191MOL0     C25090   9.082  -0.186   0.127 -0.2969 -0.2080 -0.2201
  191MOL0     C25091   9.063  -0.240  -0.018 -0.0797  0.2307  0.5038
  191MOL0     C25092   8.911  -0.219  -0.052 -0.0498  0.3737 -0.6885
  191MOL0     C25093   8.830  -0.345  -0.008  0.6650 -1.1530  0.0528
  191MOL0     C25094   8.691  -0.356  -0.086  0.4222 -1.0769  0.4397
  191MOL0     C25095   8.589  -0.245  -0.045  0.1437 -0.0601 -0.0118
  191MOL0     C25096   8.476  -0.288   0.049  0.3214 -0.2209 -0.4333
  191MOL0     N25097   8.533  -0.321   0.183  0.8574  0.4371  0.0192
  191MOL0     C25098   8.592  -0.229   0.262 -0.7551 -0.3035 -1.2216
  191MOL0     C25099   8.608  -0.299   0.376 -0.4325  0.0672  0.2436
  191MOL0     C25100   8.686  -0.236   0.494  0.8154  0.0660 -0.2515
  191MOL0     C25101   8.834  -0.222   0.456  0.9343  0.8948 -0.4396
  191MOL0     C25102   8.922  -0.333   0.535 -0.5254 -0.4587 -0.4239
  191MOL0     C25103   9.068  -0.300   0.524 -0.5977 -0.1253  0.4725
  191MOL0     O25104   9.145  -0.411   0.577  0.1357 -0.5185  0.0783
  191MOL0     C25105   9.278  -0.389   0.590  0.0693  0.0706 -0.0177
  191MOL0     C25106   9.345  -0.495   0.650 -0.0181 -0.2085 -0.6106
  191MOL0     C25107   9.482  -0.494   0.665 -0.1185 -0.1025  0.0465
  191MOL0     C25108   9.562  -0.380   0.625  0.6407 -0.1424  0.2910
  191MOL0     C25109   9.709  -0.391   0.640  0.1952 -0.2430  0.4133
  191MOL0     O25110   9.787  -0.316   0.550 -0.0709 -0.2628 -0.3797
  191MOL0     C25111   9.926  -0.317   0.545 -0.5174 -0.7136  0.3135
  191MOL0     C25112   9.984  -0.241   0.445 -0.3008  0.7230 -0.4310
  191MOL0     C25113  10.121  -0.238   0.424  0.6194 -0.1816  0.2183
  191MOL0     C25114  10.210  -0.316   0.497 -0.2744  0.7561  0.4036
  191MOL0     O25115  10.340  -0.343   0.457  0.3998  0.3490  0.3415
  191MOL0     C25116  10.411  -0.241   0.382 -0.1548  0.5745  0.1804
  191MOL0     C25117  10.407  -0.268   0.234 -0.2933  0.3195 -0.5972
  191MOL0     C25118  10.471  -0.399   0.182 -1.0187 -0.0060  0.2260
  191MOL0     C25119  10.620  -0.406   0.211  1.3224 -0.7048 -0.4610
  191MOL0     C25120  10.700  -0.531   0.175  0.4228  0.3492  0.0603
  191MOL0     C25121  10.739  -0.512   0.031  0.1486  0.1142 -0.5744
  191MOL0     C25122  10.776  -0.646  -0.026  0.1010  0.0022  0.0498
  191MOL0     C25123  10.789  -0.626  -0.171 -0.8458  0.5295 -0.4168
  191MOL0    Cl25124  10.837  -0.791  -0.228  0.6948 -0.2170  0.0082
  191MOL0     C25125  10.156  -0.401   0.595 -0.6636 -1.0235  0.2613
  191MOL0     C25126  10.018  -0.393   0.629  0.2984 -0.1807 -0.0463
  191MOL0     O25127   9.754  -0.456   0.731  0.4286  0.1997 -0.2393
  191MOL0     C25128   9.490  -0.271   0.569 -1.0271 -0.6901 -0.5455
  191MOL0     C25129   9.351  -0.273   0.567  0.9540  0.1641  0.7378
  191MOL0     N25130   8.561  -0.427   0.356 -0.8834 -0.4746  0.2414
  191MOL0     N25131   8.517  -0.446   0.236 -0.3742 -0.3526  0.1896
  191MOL0     C25132   9.466   0.055   0.182 -0.2364 -0.3425 -0.0111
  191MOL0     C25133   9.574   0.098   0.253 -0.7811  0.6443 -0.2389
  191MOL0     C25134   9.851   0.173   0.540 -0.3361 -0.8299  0.8277
  191MOL0     C25135   9.959   0.223   0.461 -0.1523 -0.4106  0.0546
  191MOL0     C25136  10.058   0.297   0.532  0.4220  0.0544  0.4033
  191MOL0     C25137  10.048   0.332   0.666 -0.1623 -0.3292  0.2168
  191MOL0     O25138  10.143   0.421   0.716  0.4553 -0.4614  1.1201
  191MOL0     C25139  10.120   0.483   0.844  0.1034 -0.1899 -0.0255
  191MOL0     C25140  10.221   0.597   0.849 -0.4078 -0.0840  0.0348
  191MOL0     C25141  10.363   0.546   0.794  0.0489  0.0209  0.3413
  191MOL0     C25142  10.461   0.648   0.835 -0.3164 -0.2737  0.4093
  191MOL0     C25143  10.595   0.608   0.785 -0.1842 -0.2751 -0.4510
  191MOL0     C25144  10.714   0.589   0.764  0.0198 -0.5182  0.3239
  191MOL0     C25145   9.927   0.298   0.731 -0.2207  0.9060 -0.1093
  191MOL0     C25146   9.836   0.217   0.671  0.2633 -0.8002 -0.2189
  191MOL0     H25147   9.712  -0.200   0.311  0.9635  1.7993 -0.8383
  191MOL0     H25148   9.499  -0.278   0.213 -2.3356 -0.7661  0.7196
  191MOL0     H25149   9.235  -0.208   0.268 -1.6673  0.5073  0.6219
  191MOL0     H25150   9.270  -0.296   0.113  0.2525  0.0864  0.9018
  191MOL0     H25151   9.055  -0.080   0.137 -1.5642 -0.4442 -0.9779
  191MOL0     H25152   9.021  -0.241   0.199 -1.1361 -2.4723 -2.4874
  191MOL0     H25153   9.100  -0.343  -0.023  0.2934  0.3767  0.2115
  191MOL0     H25154   9.129  -0.189  -0.089  1.5538  0.1585  1.9105
  191MOL0     H25155   8.872  -0.124  -0.014 -1.5440 -0.2939 -0.4779
  191MOL0     H25156   8.909  -0.220  -0.161 -1.0541  0.2688 -0.6770
  191MOL0     H25157   8.819  -0.344   0.101  1.5580 -1.2479  0.1507
  191MOL0     H25158   8.881  -0.438  -0.035 -3.2007 -3.1305 -1.1550
  191MOL0     H25159   8.658  -0.456  -0.056  1.5297 -1.3322  0.8433
  191MOL0     H25160   8.709  -0.365  -0.193 -2.1114  0.6238 -0.2030
  191MOL0     H25161   8.636  -0.151  -0.014 -0.7162  0.2976  0.2509
  191MOL0     H25162   8.542  -0.211  -0.138 -0.8834  1.0450  0.8708
  191MOL0     H25163   8.429  -0.381   0.018 -0.3865  0.8170 -2.6911
  191MOL0     H25164   8.396  -0.213   0.045  2.2625  1.9482 -3.2869
  191MOL0     H25165   8.622  -0.127   0.240  1.3801 -0.2329  1.4007
  191MOL0     H25166   8.672  -0.303   0.579 -0.3213  0.0585 -0.4343
  191MOL0     H25167   8.645  -0.140   0.526 -0.7141 -1.2243  1.8325
  191MOL0     H25168   8.865  -0.124   0.492 -1.7807  0.8418  2.4250
  191MOL0     H25169   8.855  -0.232   0.349 -0.0737 -0.6736 -0.5181
  191MOL0     H25170   8.898  -0.328   0.642 -0.1587  0.3874 -0.3735
  191MOL0     H25171   8.897  -0.432   0.495 -1.7578 -0.2200 -0.2656
  191MOL0     H25172   9.079  -0.208   0.582 -2.9951  0.3712  0.2241
  191MOL0     H25173   9.099  -0.275   0.422 -1.8883 -2.5741 -0.6138
  191MOL0     H25174   9.285  -0.580   0.682  1.3649 -1.1062 -0.2733
  191MOL0     H25175   9.533  -0.585   0.694 -0.0595  0.3910  1.5391
  191MOL0     H25176   9.918  -0.175   0.390 -4.1919  0.6956  3.6425
  191MOL0     H25177  10.152  -0.174   0.342  0.8601  2.2444  2.0775
  191MOL0     H25178  10.514  -0.247   0.418 -0.1791  2.4370  0.6181
  191MOL0     H25179  10.384  -0.137   0.402  2.1209  1.3018 -0.2711
  191MOL0     H25180  10.451  -0.180   0.185  0.4918  1.1498  1.5059
  191MOL0     H25181  10.302  -0.261   0.202  0.0418  4.1139 -1.3970
  191MOL0     H25182  10.450  -0.410   0.075  1.0096 -2.5806 -0.0078
  191MOL0     H25183  10.411  -0.484   0.218  0.0215 -1.1571 -0.6876
  191MOL0     H25184  10.666  -0.319   0.163  1.2191 -0.1088  0.4937
  191MOL0     H25185  10.625  -0.393   0.319 -1.0682  0.2088 -0.3952
  191MOL0     H25186  10.650  -0.627   0.190  0.8306 -0.1040 -1.3446
  191MOL0     H25187  10.797  -0.527   0.226  0.5159 -1.9527  0.1893
  191MOL0     H25188  10.825  -0.445   0.040 -1.1218  1.7471 -0.3294
  191MOL0     H25189  10.659  -0.467  -0.028  1.4774  4.1496  0.3982
  191MOL0     H25190  10.868  -0.687   0.017  0.3801 -0.0520 -0.5800
  191MOL0     H25191  10.689  -0.710  -0.011 -0.8590  1.7293  2.2284
  191MOL0     H25192  10.880  -0.568  -0.188  0.4640 -0.9840  1.0883
  191MOL0     H25193  10.697  -0.582  -0.211  0.8771  3.0528 -1.8574
  191MOL0     H25194  10.219  -0.459   0.662  0.1976 -1.5572 -0.9832
  191MOL0     H25195   9.982  -0.443   0.718  0.0909  1.6561  0.9316
  191MOL0     H25196   9.543  -0.179   0.549 -1.5310  0.5745  3.0635
  191MOL0     H25197   9.298  -0.194   0.516  3.9369  2.7202  1.2709
  191MOL0     H25198   9.412   0.138   0.136  2.5528  2.0631  0.7320
  191MOL0     H25199   9.566   0.202   0.282 -4.9147 -0.1989  2.5512
  191MOL0     H25200   9.965   0.205   0.354 -3.4123 -3.6633  0.2118
  191MOL0     H25201  10.132   0.340   0.465  0.0969 -1.2991 -0.8599
  191MOL0     H25202  10.133   0.415   0.928 -0.6543  1.3164  1.3723
  191MOL0     H25203  10.016   0.517   0.846 -0.6146 -1.9360 -2.6920
  191MOL0     H25204  10.181   0.675   0.784  0.5488 -0.4167 -0.9873
  191MOL0     H25205  10.229   0.638   0.950 -0.7827 -0.9091  0.4092
  191MOL0     H25206  10.369   0.543   0.685  2.2128 -2.6413  0.4378
  191MOL0     H25207  10.388   0.448   0.834 -0.5809  0.1380  1.0538
  191MOL0     H25208  10.426   0.745   0.799 -1.5016 -2.0126 -3.8833
  191MOL0     H25209  10.471   0.648   0.944  0.0525 -0.8476  0.3823
  191MOL0     H25210  10.819   0.572   0.751 -0.0652 -0.9700  0.2432
  191MOL0     H25211   9.907   0.320   0.836 -1.3616 -3.8634  0.9136
  191MOL0     H25212   9.750   0.184   0.727 -1.1226  1.2792 -0.9856
  192MOL0     O25213  10.292   2.718   2.877 -0.4807  0.0362 -0.2995
  192MOL0     C25214  10.315   2.627   2.801 -0.8045 -0.1112 -0.2730
  192MOL0     O25215  10.218   2.551   2.740  0.0738  0.3928 -0.1407
  192MOL0     C25216  10.089   2.554   2.773 -0.1096  0.8836  0.3565
  192MOL0     C25217  10.008   2.484   2.673  0.5429  0.0142  0.3907
  192MOL0     C25218   9.874   2.482   2.699 -0.6057  0.3640 -0.1713
  192MOL0     C25219   9.815   2.539   2.814  0.1209 -0.2900 -0.6024
  192MOL0     O25220   9.677   2.541   2.832  0.4523  1.1170  0.6018
  192MOL0     C25221   9.607   2.416   2.816 -0.2175  0.3933 -0.8738
  192MOL0     C25222   9.485   2.384   2.901 -0.4869 -0.8490 -0.6329
  192MOL0     C25223   9.386   2.499   2.893 -0.7489 -1.2123 -0.0006
  192MOL0     C25224   9.240   2.463   2.954  0.3374 -0.3647 -0.6207
  192MOL0     C25225   9.160   2.584   2.976  0.5157 -0.6005  0.2015
  192MOL0     C25226   9.035   2.561   3.055  0.4063  0.3910  0.4505
  192MOL0     C25227   8.986   2.695   3.106  0.1940 -0.8981  0.0718
  192MOL0     C25228   8.844   2.692   3.169 -0.1645  0.0178 -0.2562
  192MOL0     N25229   8.747   2.629   3.074  0.4466 -0.3731 -0.0616
  192MOL0     C25230   8.712   2.681   2.948  0.3276 -0.1673 -0.4697
  192MOL0     C25231   8.588   2.623   2.923 -0.4215 -0.2157  1.1109
  192MOL0     C25232   8.509   2.630   2.788 -0.2453  0.5679 -0.2179
  192MOL0     C25233   8.378   2.714   2.794  0.1060  0.4630  0.5191
  192MOL0     C25234   8.279   2.669   2.900 -0.2549 -0.1564  1.2726
  192MOL0     C25235   8.146   2.748   2.880  0.1913  0.4560 -0.7580
  192MOL0     O25236   8.089   2.714   2.756  0.0129 -0.0676  0.6908
  192MOL0     C25237   7.962   2.769   2.730 -0.5125  0.6863  0.4153
  192MOL0     C25238   7.906   2.763   2.601  0.8215 -0.0813  0.8068
  192MOL0     C25239   7.771   2.807   2.578  0.0802 -0.3376 -0.2817
  192MOL0     C25240   7.699   2.868   2.684 -0.5652 -0.0216 -0.1181
  192MOL0     C25241   7.554   2.918   2.673  0.8321 -0.3148 -0.0556
  192MOL0     O25242   7.501   2.975   2.787  0.2252  0.0527  0.0744
  192MOL0     C25243   7.370   3.021   2.787 -0.3001  0.4072  0.1823
  192MOL0     C25244   7.253   2.951   2.729 -0.8246  0.3382 -0.6926
  192MOL0     C25245   7.126   2.996   2.738  0.0141 -0.3446  0.8648
  192MOL0     C25246   7.102   3.117   2.812 -0.1115 -0.3037  1.4151
  192MOL0     O25247   6.979   3.178   2.824  0.1333  0.1166  0.1324
  192MOL0     C25248   6.863   3.104   2.794  0.0430  0.6599 -0.1952
  192MOL0     C25249   6.812   3.103   2.650 -0.1834  0.2685 -0.3134
  192MOL0     C25250   6.661   3.069   2.642 -0.4065 -1.2842 -0.9030
  192MOL0     C25251   6.565   3.172   2.699 -0.0782  0.3909 -0.6835
  192MOL0     C25252   6.416   3.142   2.690 -0.6159 -0.0234  0.1925
  192MOL0     C25253   6.351   3.152   2.553 -0.7980  0.2599 -0.0258
  192MOL0     C25254   6.398   3.268   2.463 -0.1081 -0.7702  0.1180
  192MOL0     C25255   6.284   3.305   2.366 -0.6690 -0.4007  0.4984
  192MOL0    Cl25256   6.247   3.160   2.270  0.7830 -0.2558 -0.2581
  192MOL0     C25257   7.212   3.172   2.875  0.9692 -0.0740 -0.0617
  192MOL0     C25258   7.343   3.125   2.873 -0.3127 -0.5502  0.5296
  192MOL0     O25259   7.493   2.878   2.572 -0.0617 -0.1442 -0.7053
  192MOL0     C25260   7.761   2.887   2.808  0.7011  0.3807 -0.4376
  192MOL0     C25261   7.885   2.834   2.833  0.8780  0.2500  0.9973
  192MOL0     N25262   8.556   2.540   3.020 -0.2011 -0.3745 -0.9873
  192MOL0     N25263   8.650   2.544   3.115  0.0290  0.0606 -0.1501
  192MOL0     C25264   9.894   2.604   2.906 -0.2369  0.3382  0.5375
  192MOL0     C25265  10.030   2.612   2.887 -0.1810  0.2498 -0.5069
  192MOL0     C25266  10.459   2.604   2.766 -0.1418 -0.4007  0.2782
  192MOL0     C25267  10.565   2.691   2.800 -0.0257  0.3987 -0.6059
  192MOL0     C25268  10.699   2.658   2.782  0.0857  0.0157 -0.0157
  192MOL0     C25269  10.729   2.547   2.708  0.0039 -0.2438 -0.9459
  192MOL0     O25270  10.857   2.502   2.678  0.0710 -0.5951  0.0634
  192MOL0     C25271  10.974   2.590   2.697  0.3803  0.9210 -0.2615
  192MOL0     C25272  11.102   2.508   2.693  0.7932 -0.3041  0.5996
  192MOL0     C25273  11.126   2.422   2.569 -0.3502  0.8139  0.1022
  192MOL0     C25274  11.259   2.342   2.577 -0.6378 -0.9131 -0.2406
  192MOL0     C25275  11.373   2.425   2.561 -0.7640 -0.9489  0.0964
  192MOL0     C25276  11.468   2.500   2.561  0.4185  0.3522  0.2285
  192MOL0     C25277  10.629   2.456   2.685 -0.4716  0.2765  1.4435
  192MOL0     C25278  10.495   2.486   2.703  0.4013  0.3450  0.4855
  192MOL0     H25279  10.054   2.439   2.586 -0.2345 -0.3134  0.1358
  192MOL0     H25280   9.800   2.436   2.635 -0.7140  0.9896 -0.5025
  192MOL0     H25281   9.677   2.333   2.830 -0.1728 -0.0016 -3.1079
  192MOL0     H25282   9.574   2.395   2.714 -1.7288 -0.3532 -0.2655
  192MOL0     H25283   9.506   2.377   3.008 -1.3917  0.0478 -0.3835
  192MOL0     H25284   9.438   2.294   2.860  1.9141 -1.2127 -2.8448
  192MOL0     H25285   9.375   2.540   2.792 -1.7705  1.2301  1.0046
  192MOL0     H25286   9.426   2.582   2.952 -5.6958  2.2354 -0.8205
  192MOL0     H25287   9.187   2.385   2.898 -1.5508  1.7525 -1.9915
  192MOL0     H25288   9.258   2.429   3.056  4.6953  1.6990 -0.4587
  192MOL0     H25289   9.130   2.637   2.885 -0.0674  0.2168  0.8552
  192MOL0     H25290   9.220   2.660   3.028  1.1558 -1.5412  0.8641
  192MOL0     H25291   9.060   2.512   3.149  3.5988  0.5401 -0.2008
  192MOL0     H25292   8.972   2.503   2.986  2.3233  1.6819 -2.5952
  192MOL0     H25293   9.052   2.734   3.185  2.3554 -0.0655 -2.0445
  192MOL0     H25294   8.988   2.759   3.018 -1.9922 -0.6628  0.1280
  192MOL0     H25295   8.817   2.796   3.189 -1.8147 -0.2940 -0.6906
  192MOL0     H25296   8.849   2.639   3.264  1.8545  0.6001  0.0118
  192MOL0     H25297   8.778   2.739   2.884  0.5270  1.9726  1.5486
  192MOL0     H25298   8.484   2.525   2.768 -1.6495  0.3698  2.1990
  192MOL0     H25299   8.576   2.660   2.707  1.5339 -1.8830  0.2331
  192MOL0     H25300   8.329   2.711   2.696  0.8302 -0.0269  0.1625
  192MOL0     H25301   8.405   2.820   2.802  3.8084 -0.1453 -1.6268
  192MOL0     H25302   8.267   2.561   2.889 -0.2161  0.0091 -0.5496
  192MOL0     H25303   8.323   2.698   2.996  1.9232 -1.4078  0.7227
  192MOL0     H25304   8.158   2.857   2.880  0.0653  0.5781  2.9727
  192MOL0     H25305   8.087   2.724   2.969  2.2553 -0.8882  0.3109
  192MOL0     H25306   7.960   2.712   2.522 -1.0072 -0.1387 -0.4697
  192MOL0     H25307   7.731   2.781   2.480 -0.0939  1.8937 -0.8514
  192MOL0     H25308   7.280   2.859   2.677  1.3695 -1.5728  3.3322
  192MOL0     H25309   7.044   2.939   2.696  0.2811 -1.0217  1.2319
  192MOL0     H25310   6.787   3.156   2.854 -0.7481 -1.6299  0.9302
  192MOL0     H25311   6.860   3.002   2.834 -2.2796  0.1144 -1.5145
  192MOL0     H25312   6.872   3.040   2.584 -0.2593 -2.9571  2.3842
  192MOL0     H25313   6.819   3.208   2.623 -3.5396  0.3407 -1.3712
  192MOL0     H25314   6.647   2.970   2.688  3.9486 -1.1434  1.1900
  192MOL0     H25315   6.644   3.065   2.534  0.4485  3.6402 -1.4429
  192MOL0     H25316   6.588   3.176   2.806  0.5120 -0.8240 -0.7480
  192MOL0     H25317   6.596   3.267   2.654  1.6845 -0.2124 -0.8072
  192MOL0     H25318   6.370   3.227   2.742  1.5426  0.8290  0.8316
  192MOL0     H25319   6.384   3.051   2.742  1.8238  1.1326  4.1709
  192MOL0     H25320   6.242   3.150   2.565 -1.3440 -1.4396 -3.7359
  192MOL0     H25321   6.373   3.054   2.509 -0.8457  0.4645 -0.5159
  192MOL0     H25322   6.435   3.355   2.518 -3.4052  1.3444 -0.7251
  192MOL0     H25323   6.486   3.233   2.408 -0.7206 -3.7186  0.8408
  192MOL0     H25324   6.314   3.388   2.300 -3.4940  0.6160  0.3814
  192MOL0     H25325   6.201   3.346   2.424  1.2065  0.5004  2.7121
  192MOL0     H25326   7.200   3.264   2.932  2.3644  0.1553 -0.0869
  192MOL0     H25327   7.428   3.175   2.919 -0.4762  0.7125 -0.5035
  192MOL0     H25328   7.711   2.922   2.898  0.7645 -1.4209  0.3278
  192MOL0     H25329   7.911   2.841   2.938  0.4775  1.3725  1.0308
  192MOL0     H25330   9.841   2.655   2.986 -2.3314 -0.6747 -0.1121
  192MOL0     H25331  10.093   2.671   2.953 -1.9095  1.9809 -0.2981
  192MOL0     H25332  10.538   2.780   2.855  1.1368  0.3039  0.1694
  192MOL0     H25333  10.782   2.724   2.803 -0.1180 -0.0670  1.1317
  192MOL0     H25334  10.978   2.636   2.797 -1.4216 -0.6154  0.5839
  192MOL0     H25335  10.978   2.656   2.611  0.5991  0.8416 -0.3121
  192MOL0     H25336  11.185   2.578   2.706  2.4824 -1.7429 -1.7603
  192MOL0     H25337  11.122   2.449   2.783  1.4980  1.2211  1.4831
  192MOL0     H25338  11.131   2.474   2.473 -1.5154 -1.8633 -1.5525
  192MOL0     H25339  11.038   2.357   2.563 -0.2312  0.4704  1.7220
  192MOL0     H25340  11.254   2.295   2.676  1.0526  2.5114  1.6644
  192MOL0     H25341  11.269   2.261   2.504  2.7415  1.3580 -2.5661
  192MOL0     H25342  11.542   2.575   2.577  0.9402 -0.4258  1.6821
  192MOL0     H25343  10.657   2.364   2.635 -1.2563  1.6369 -1.7534
  192MOL0     H25344  10.412   2.423   2.675  0.5405  0.6897 -0.7542
  193MOL0     O25345   5.328   3.716   9.524 -0.0894  0.7252  0.0274
  193MOL0     C25346   5.286   3.636   9.446 -0.0024  0.2899  0.3635
  193MOL0     O25347   5.150   3.616   9.421 -0.0755  0.3502  0.1060
  193MOL0     C25348   5.041   3.682   9.476 -0.4053 -0.2454  0.1110
  193MOL0     C25349   5.046   3.796   9.553 -0.5023  0.3847 -0.0638
  193MOL0     C25350   4.926   3.854   9.599 -0.1882 -0.2082 -0.1610
  193MOL0     C25351   4.799   3.800   9.560  0.0930 -0.6199 -0.4279
  193MOL0     O25352   4.693   3.871   9.614  0.6658  0.5439 -0.0024
  193MOL0     C25353   4.562   3.832   9.562  0.4658  0.9719  0.5435
  193MOL0     C25354   4.450   3.906   9.632 -0.6109 -0.4591 -0.5887
  193MOL0     C25355   4.314   3.849   9.607  0.3137  0.0598  0.3775
  193MOL0     C25356   4.262   3.889   9.467 -1.1928  0.0602  0.3326
  193MOL0     C25357   4.116   3.848   9.432  0.2836  0.2931 -0.2216
  193MOL0     C25358   4.082   3.878   9.287  0.0988 -0.3673 -0.4281
  193MOL0     C25359   3.935   3.855   9.257 -0.0879 -0.0762 -0.3662
  193MOL0     C25360   3.857   3.976   9.310 -0.8150 -0.7023 -0.6244
  193MOL0     N25361   3.715   3.951   9.290  1.0151 -0.2811 -0.9086
  193MOL0     C25362   3.655   3.837   9.239 -0.3677  0.2726 -0.2454
  193MOL0     C25363   3.525   3.872   9.218 -0.4909  0.1417  0.9708
  193MOL0     C25364   3.431   3.781   9.151 -0.6127 -0.0368 -0.0270
  193MOL0     C25365   3.345   3.718   9.265 -0.1449  0.0266 -0.4315
  193MOL0     C25366   3.249   3.813   9.345 -0.5999  0.4761 -0.0009
  193MOL0     C25367   3.161   3.899   9.255  0.5860  0.7528 -0.7393
  193MOL0     O25368   3.082   3.801   9.179 -0.4050 -0.4376 -0.4000
  193MOL0     C25369   3.008   3.831   9.067 -0.4623  0.0782 -0.5060
  193MOL0     C25370   2.983   3.966   9.028  0.9335 -0.3850 -0.3883
  193MOL0     C25371   2.908   3.987   8.907 -0.3192  0.4446 -0.1632
  193MOL0     C25372   2.851   3.871   8.838 -0.3721 -0.1247 -0.8484
  193MOL0     C25373   2.760   3.891   8.720 -0.5299  0.3814 -0.2594
  193MOL0     O25374   2.742   4.018   8.677 -0.2789 -0.1195 -0.2513
  193MOL0     C25375   2.645   4.035   8.587  0.2321 -0.4607 -0.1060
  193MOL0     C25376   2.512   4.059   8.625 -0.0636 -0.8297 -0.2742
  193MOL0     C25377   2.417   4.070   8.528  0.2918 -0.3570  0.2125
  193MOL0     C25378   2.449   4.063   8.390 -0.4960  0.7893  0.0328
  193MOL0     O25379   2.348   4.092   8.302  0.3512 -0.6861  0.0032
  193MOL0     C25380   2.379   4.096   8.164  0.1247  0.1340 -0.2766
  193MOL0     C25381   2.425   4.240   8.144 -0.9908  0.5747  0.5702
  193MOL0     C25382   2.466   4.283   8.004 -0.2687 -0.3338  0.1134
  193MOL0     C25383   2.348   4.265   7.902 -0.0302  0.4116 -0.0596
  193MOL0     C25384   2.374   4.358   7.789  0.3363  0.0566  0.5866
  193MOL0     C25385   2.264   4.356   7.689  0.7552  0.8165  0.3913
  193MOL0     C25386   2.305   4.420   7.555  0.4169 -0.3852  0.1338
  193MOL0     C25387   2.190   4.413   7.456  0.2884 -0.4310 -0.6581
  193MOL0    Cl25388   2.054   4.515   7.498  0.1766 -0.1010  0.3014
  193MOL0     C25389   2.582   4.027   8.353 -0.0393  0.6796 -0.1712
  193MOL0     C25390   2.677   4.023   8.453  0.2999  0.7199  0.3982
  193MOL0     O25391   2.700   3.789   8.672 -0.2718 -0.0619 -0.3606
  193MOL0     C25392   2.881   3.743   8.883  1.0984 -0.9314 -0.3576
  193MOL0     C25393   2.956   3.718   8.998 -0.4196 -0.3612  0.7121
  193MOL0     N25394   3.505   4.003   9.248  0.3289  0.2295  0.0685
  193MOL0     N25395   3.621   4.049   9.290 -0.2082 -0.0548  0.6896
  193MOL0     C25396   4.795   3.678   9.492 -0.1432 -0.7467 -0.2511
  193MOL0     C25397   4.922   3.617   9.457  0.8646 -0.3701 -0.1750
  193MOL0     C25398   5.372   3.550   9.362 -0.0278 -0.1987 -0.3854
  193MOL0     C25399   5.314   3.463   9.267 -0.1992 -0.0287 -0.5829
  193MOL0     C25400   5.396   3.385   9.181 -0.7985  0.3159  0.3046
  193MOL0     C25401   5.536   3.391   9.177 -0.4000  0.7106 -0.2542
  193MOL0     O25402   5.607   3.324   9.082 -0.4832  0.2198  0.3346
  193MOL0     C25403   5.722   3.260   9.130  0.6817 -0.1909  0.0346
  193MOL0     C25404   5.746   3.142   9.049 -0.5560  0.2224  0.5069
  193MOL0     C25405   5.731   3.155   8.896  0.0617 -0.4866 -1.0639
  193MOL0     C25406   5.780   3.032   8.824  0.5789 -0.4162 -0.0038
  193MOL0     C25407   5.690   2.920   8.838  0.1147 -0.0143 -0.1332
  193MOL0     C25408   5.610   2.828   8.861 -0.2762  0.1142  0.0171
  193MOL0     C25409   5.595   3.483   9.271  0.4007  0.0892  1.1038
  193MOL0     C25410   5.513   3.561   9.357 -0.5820 -0.8557 -0.1761
  193MOL0     H25411   5.139   3.848   9.572 -0.2007  1.1997 -3.2530
  193MOL0     H25412   4.926   3.940   9.664  0.7173  0.0414 -0.4671
  193MOL0     H25413   4.541   3.725   9.573 -1.3980  1.0536 -1.5395
  193MOL0     H25414   4.572   3.859   9.457  4.2343  0.7332  0.7069
  193MOL0     H25415   4.448   4.011   9.599  1.1839 -0.1923  0.0361
  193MOL0     H25416   4.483   3.898   9.736  1.4031  1.6486 -0.9750
  193MOL0     H25417   4.244   3.901   9.674 -0.4335  3.7897 -2.8830
  193MOL0     H25418   4.305   3.740   9.607  2.3632 -0.1721 -1.4027
  193MOL0     H25419   4.281   3.995   9.446 -1.1893 -0.2928 -1.5662
  193MOL0     H25420   4.329   3.838   9.398  0.5209  2.6327 -0.0326
  193MOL0     H25421   4.049   3.899   9.502  0.6199 -0.9260  1.0328
  193MOL0     H25422   4.106   3.741   9.451  0.2161  0.5760  1.4946
  193MOL0     H25423   4.148   3.832   9.213  0.4000  0.1094 -0.4577
  193MOL0     H25424   4.087   3.987   9.281  2.5630 -0.4166 -0.2680
  193MOL0     H25425   3.918   3.842   9.150  1.8291  0.1420 -0.7453
  193MOL0     H25426   3.896   3.761   9.298 -4.0388  0.9985 -1.2439
  193MOL0     H25427   3.889   4.064   9.254 -0.1507 -0.5308 -0.0005
  193MOL0     H25428   3.864   4.014   9.413 -1.8325  1.9181 -1.4297
  193MOL0     H25429   3.696   3.738   9.223  1.5652  0.8968  0.5271
  193MOL0     H25430   3.482   3.700   9.099 -1.4561 -1.4487  1.2444
  193MOL0     H25431   3.372   3.839   9.080 -0.4979 -1.1726 -1.0832
  193MOL0     H25432   3.407   3.677   9.346  2.6212  1.7049 -1.5196
  193MOL0     H25433   3.286   3.639   9.218  2.8489  0.4809 -5.7583
  193MOL0     H25434   3.188   3.761   9.420  1.0109  1.4540  2.0984
  193MOL0     H25435   3.316   3.876   9.404  0.7465 -0.7418 -0.1845
  193MOL0     H25436   3.227   3.956   9.189  1.5512 -0.1275 -0.5621
  193MOL0     H25437   3.106   3.966   9.321  0.7097  0.4401 -0.3177
  193MOL0     H25438   3.021   4.050   9.085  0.1365 -0.1784 -0.1494
  193MOL0     H25439   2.891   4.089   8.873 -1.0299  0.2104 -0.5232
  193MOL0     H25440   2.497   4.063   8.732 -0.4571 -4.5138 -0.0563
  193MOL0     H25441   2.315   4.076   8.564  1.4170 -1.5016  4.1143
  193MOL0     H25442   2.282   4.073   8.120 -2.0645  2.7989  2.6630
  193MOL0     H25443   2.455   4.022   8.138  2.5139  0.9702  3.5465
  193MOL0     H25444   2.521   4.253   8.195 -0.5178  0.8937 -0.3816
  193MOL0     H25445   2.347   4.310   8.174 -0.2145  1.5068  0.4520
  193MOL0     H25446   2.554   4.221   7.983 -0.3871 -0.9712  1.4218
  193MOL0     H25447   2.500   4.386   8.013 -1.4665  0.0173  0.7276
  193MOL0     H25448   2.347   4.159   7.875 -1.0375  0.3832  0.0749
  193MOL0     H25449   2.248   4.279   7.944 -0.1668  0.0923 -0.2761
  193MOL0     H25450   2.471   4.340   7.742  1.4359  2.0146  1.9558
  193MOL0     H25451   2.381   4.464   7.817  2.6555  0.1402 -0.0756
  193MOL0     H25452   2.172   4.401   7.727  0.0931  0.5858 -0.8805
  193MOL0     H25453   2.245   4.251   7.670 -2.0685  0.9281  2.0496
  193MOL0     H25454   2.330   4.526   7.565 -0.3236 -0.2302  0.3800
  193MOL0     H25455   2.394   4.369   7.518  0.7527  0.9746 -1.0258
  193MOL0     H25456   2.152   4.311   7.443 -0.9362 -0.4591  2.3171
  193MOL0     H25457   2.225   4.451   7.360  1.0488 -0.7027 -0.4932
  193MOL0     H25458   2.630   4.005   8.258 -0.0712 -2.3847  0.4302
  193MOL0     H25459   2.780   4.021   8.420  0.6176 -1.1141  1.3676
  193MOL0     H25460   2.842   3.661   8.825 -3.1026 -0.5771  1.6109
  193MOL0     H25461   2.993   3.620   9.027 -1.4792 -0.4384  1.8895
  193MOL0     H25462   4.702   3.627   9.466 -0.4200 -0.7353  0.6890
  193MOL0     H25463   4.931   3.522   9.405  2.6579  0.2286 -1.0173
  193MOL0     H25464   5.208   3.454   9.247 -0.6106 -1.4185  1.7370
  193MOL0     H25465   5.348   3.310   9.119  0.8366 -0.8945  0.4214
  193MOL0     H25466   5.717   3.238   9.238 -1.6791  0.0112  0.0047
  193MOL0     H25467   5.804   3.333   9.130 -1.1279  2.1164  2.9924
  193MOL0     H25468   5.850   3.108   9.056 -0.3626 -0.0544 -2.3279
  193MOL0     H25469   5.687   3.056   9.081 -0.1492 -2.0074 -3.8962
  193MOL0     H25470   5.787   3.242   8.863 -1.2985  0.1332 -1.8328
  193MOL0     H25471   5.627   3.174   8.866 -0.2090  0.6200  0.4840
  193MOL0     H25472   5.798   3.057   8.718  0.4943 -0.2733  0.0152
  193MOL0     H25473   5.879   3.005   8.863 -0.9689 -1.3175  3.6504
  193MOL0     H25474   5.552   2.749   8.905  1.3225 -1.6175 -0.8189
  193MOL0     H25475   5.702   3.499   9.274  0.9311 -2.2466 -1.1789
  193MOL0     H25476   5.547   3.632   9.432 -1.7651 -0.1197 -0.3020
  194MOL0     O25477   8.307   7.688   1.978  0.1935 -0.0359 -0.1822
  194MOL0     C25478   8.366   7.789   1.986 -0.3455 -0.3001 -0.4718
  194MOL0     O25479   8.316   7.909   2.031  0.9223 -0.0288 -0.0437
  194MOL0     C25480   8.174   7.919   2.032 -0.6116 -0.6197 -0.5176
  194MOL0     C25481   8.122   8.005   2.135  0.0297 -0.2020  0.9393
  194MOL0     C25482   7.984   8.014   2.146 -0.0675 -0.0642  0.8375
  194MOL0     C25483   7.895   7.954   2.055  0.1031  0.2729  0.2138
  194MOL0     O25484   7.762   7.980   2.077 -0.0875 -0.2043  0.8517
  194MOL0     C25485   7.659   7.902   2.009  1.3995  0.8175  0.8199
  194MOL0     C25486   7.520   7.968   2.025  0.1137  0.6771 -0.7030
  194MOL0     C25487   7.402   7.911   1.937  0.2234 -0.8569  0.2000
  194MOL0     C25488   7.269   7.996   1.939 -0.8507 -0.1403  0.2203
  194MOL0     C25489   7.219   8.015   2.076  0.3577 -0.8604 -0.1844
  194MOL0     C25490   7.124   8.140   2.078 -0.7578  0.7952 -0.3498
  194MOL0     C25491   7.049   8.154   2.208 -0.1670 -0.0600  0.5682
  194MOL0     C25492   6.977   8.288   2.215 -0.9911 -0.1046  0.9501
  194MOL0     N25493   6.890   8.292   2.331 -0.5098  0.5913  0.3027
  194MOL0     C25494   6.863   8.402   2.403  0.1208  0.4533 -0.3552
  194MOL0     C25495   6.758   8.368   2.485  0.1558  0.5433  0.4806
  194MOL0     C25496   6.694   8.452   2.588 -0.5600 -0.3279  0.2127
  194MOL0     C25497   6.568   8.503   2.526 -0.3478  0.3560  0.1523
  194MOL0     C25498   6.583   8.619   2.422 -0.1779  0.4328  0.3249
  194MOL0     C25499   6.455   8.650   2.343  0.1776 -0.5322 -0.0035
  194MOL0     O25500   6.357   8.714   2.426 -0.5607  0.2182 -0.1971
  194MOL0     C25501   6.246   8.761   2.369  0.0423 -0.5479  0.6932
  194MOL0     C25502   6.206   8.726   2.231 -0.0969  0.8963 -0.8997
  194MOL0     C25503   6.086   8.766   2.184 -0.4971  0.6626  1.1341
  194MOL0     C25504   6.004   8.852   2.260  0.1347 -0.4463  0.8964
  194MOL0     C25505   5.887   8.915   2.201  0.1297  0.0518  0.6661
  194MOL0     O25506   5.814   9.016   2.273  0.2867  0.5925  0.5501
  194MOL0     C25507   5.726   9.082   2.188 -1.4956 -0.6083 -0.3908
  194MOL0     C25508   5.613   9.029   2.131 -0.3171  0.3411 -1.0423
  194MOL0     C25509   5.537   9.100   2.043  0.1397 -0.4589  0.5444
  194MOL0     C25510   5.558   9.240   2.020  0.3991 -0.1953 -0.0752
  194MOL0     O25511   5.482   9.327   1.941  0.2322  0.3397 -0.0448
  194MOL0     C25512   5.374   9.276   1.865 -0.6420  0.2194  0.9815
  194MOL0     C25513   5.251   9.319   1.931 -0.6815 -0.4636  0.0246
  194MOL0     C25514   5.129   9.285   1.844  0.2278 -0.2861 -0.2968
  194MOL0     C25515   5.005   9.280   1.931 -0.4722  0.2131  0.1185
  194MOL0     C25516   4.885   9.231   1.858  1.0910  0.0338 -0.4010
  194MOL0     C25517   4.862   9.311   1.726  0.1999 -0.0004  0.2970
  194MOL0     C25518   4.711   9.305   1.693  0.1122  0.0094  0.2662
  194MOL0     C25519   4.656   9.413   1.598  0.0454 -0.0889 -0.1065
  194MOL0    Cl25520   4.489   9.389   1.571 -0.2036  0.2274 -0.3242
  194MOL0     C25521   5.660   9.300   2.099  0.3142 -1.0402  0.0322
  194MOL0     C25522   5.748   9.221   2.172 -0.2210  0.0422 -0.3716
  194MOL0     O25523   5.858   8.881   2.090  0.4176 -0.3115 -0.2780
  194MOL0     C25524   6.047   8.895   2.382  0.3110  0.8105 -0.1436
  194MOL0     C25525   6.159   8.844   2.441  0.5385 -0.0938  0.8127
  194MOL0     N25526   6.715   8.239   2.452 -0.1518 -0.2773 -1.3361
  194MOL0     N25527   6.800   8.197   2.373 -0.1692  0.1266  0.0082
  194MOL0     C25528   7.951   7.886   1.946  0.3409  0.4055  0.0207
  194MOL0     C25529   8.087   7.873   1.933 -0.3219 -0.0782  0.1664
  194MOL0     C25530   8.514   7.791   1.971  0.1265  0.0070 -0.0147
  194MOL0     C25531   8.576   7.714   1.871 -0.4670 -0.6980  0.7080
  194MOL0     C25532   8.711   7.734   1.845  1.2078  0.3045 -0.2741
  194MOL0     C25533   8.784   7.823   1.929 -0.0433 -0.3523  0.4358
  194MOL0     O25534   8.918   7.820   1.915  0.1571 -0.2180 -0.0942
  194MOL0     C25535   8.997   7.936   1.899  1.1179  0.6274  0.5347
  194MOL0     C25536   9.143   7.918   1.850  0.9573 -0.6122 -0.0064
  194MOL0     C25537   9.160   7.826   1.733 -0.1265  0.3600  0.6170
  194MOL0     C25538   9.071   7.866   1.617 -0.6947 -0.1311 -0.3599
  194MOL0     C25539   9.124   7.812   1.493  0.9001 -0.3926  0.3035
  194MOL0     C25540   9.165   7.753   1.390  0.5343 -0.5030 -0.2992
  194MOL0     C25541   8.727   7.881   2.036  0.5327 -0.1743  0.6006
  194MOL0     C25542   8.588   7.879   2.052 -1.0062 -0.2866  0.4559
  194MOL0     H25543   8.189   8.053   2.205 -0.5574  2.8148 -0.4019
  194MOL0     H25544   7.940   8.066   2.230 -1.1452 -1.7318  1.3584
  194MOL0     H25545   7.661   7.800   2.046 -0.2970  0.3370 -0.2844
  194MOL0     H25546   7.680   7.909   1.902 -0.5032  1.4660  0.4546
  194MOL0     H25547   7.537   8.073   2.003  0.3807  0.6652 -0.5574
  194MOL0     H25548   7.494   7.947   2.129  3.7929  0.8784  0.4064
  194MOL0     H25549   7.386   7.808   1.971  3.2525 -0.8449  1.9789
  194MOL0     H25550   7.429   7.916   1.831 -4.2937 -0.4200 -1.1485
  194MOL0     H25551   7.287   8.097   1.902 -1.5665  0.4379  1.3883
  194MOL0     H25552   7.193   7.946   1.879  0.6606 -1.6190 -0.5695
  194MOL0     H25553   7.300   8.032   2.148  0.0591  0.2920 -0.1088
  194MOL0     H25554   7.177   7.925   2.123  1.3765 -0.4476  1.6171
  194MOL0     H25555   7.049   8.118   2.002 -1.6676  2.4291  0.0366
  194MOL0     H25556   7.176   8.227   2.036 -2.1970  1.4954 -0.7185
  194MOL0     H25557   6.984   8.067   2.221  0.0764 -0.2549  0.4860
  194MOL0     H25558   7.124   8.144   2.287  3.7059  2.2645 -2.4523
  194MOL0     H25559   6.912   8.305   2.129 -1.7336 -1.8263  1.1323
  194MOL0     H25560   7.056   8.364   2.220  0.2011 -1.1781 -0.5393
  194MOL0     H25561   6.921   8.493   2.409 -0.2309  0.5738  1.7584
  194MOL0     H25562   6.758   8.532   2.625 -0.4785 -1.9155  3.9329
  194MOL0     H25563   6.675   8.383   2.671 -0.9741  0.2900  0.6525
  194MOL0     H25564   6.496   8.540   2.599  1.6712  0.1014  2.3870
  194MOL0     H25565   6.516   8.426   2.468 -0.6005 -0.1687  1.0581
  194MOL0     H25566   6.615   8.712   2.471  1.8607  1.2362 -2.2944
  194MOL0     H25567   6.647   8.589   2.339  0.1100  1.9770 -0.0481
  194MOL0     H25568   6.418   8.562   2.288  0.7540 -1.8281  1.5995
  194MOL0     H25569   6.494   8.715   2.265  2.5985 -1.1641  0.6138
  194MOL0     H25570   6.263   8.672   2.156 -0.3269  0.8353 -1.0307
  194MOL0     H25571   6.054   8.720   2.091  0.1585  0.0925  1.1860
  194MOL0     H25572   5.591   8.927   2.160 -0.5917  0.6743 -0.0338
  194MOL0     H25573   5.457   9.044   1.995 -0.6982  0.0706  1.2999
  194MOL0     H25574   5.362   9.167   1.854 -2.8540  0.6534 -2.5607
  194MOL0     H25575   5.382   9.312   1.762 -0.5065  0.7889  1.1893
  194MOL0     H25576   5.248   9.425   1.958 -2.0687 -0.2195 -1.0052
  194MOL0     H25577   5.246   9.256   2.020 -2.3042  0.1746  0.4263
  194MOL0     H25578   5.138   9.193   1.786  0.0292 -1.9166  2.1189
  194MOL0     H25579   5.122   9.370   1.775 -0.5623 -0.2452 -0.1775
  194MOL0     H25580   5.026   9.204   2.006  1.1727  0.3216 -0.1970
  194MOL0     H25581   4.986   9.376   1.980  2.1617  2.0258 -2.0904
  194MOL0     H25582   4.797   9.249   1.921  2.0433  2.6649  0.3105
  194MOL0     H25583   4.893   9.123   1.844 -0.7156 -0.2573  0.4590
  194MOL0     H25584   4.927   9.270   1.649 -2.0997 -2.1696 -0.6049
  194MOL0     H25585   4.888   9.417   1.735 -0.8337  0.5926 -2.6780
  194MOL0     H25586   4.692   9.211   1.641 -0.5268  0.2981 -0.0323
  194MOL0     H25587   4.655   9.319   1.786 -1.4707 -0.4864 -0.5856
  194MOL0     H25588   4.707   9.404   1.502 -1.0142 -1.1843 -0.5869
  194MOL0     H25589   4.683   9.514   1.629  4.9770 -0.4314 -2.3552
  194MOL0     H25590   5.667   9.408   2.105 -2.1218 -0.7334 -1.4291
  194MOL0     H25591   5.834   9.269   2.217 -0.5828 -0.8095  1.3090
  194MOL0     H25592   5.985   8.966   2.435  1.7107  2.8277 -1.1065
  194MOL0     H25593   6.180   8.873   2.543 -2.1107 -0.1464  1.4496
  194MOL0     H25594   7.899   7.834   1.867  1.5345 -2.9019  1.2489
  194MOL0     H25595   8.126   7.834   1.839 -1.1132  1.0754 -0.6806
  194MOL0     H25596   8.515   7.649   1.809 -1.3511 -0.3591  1.1948
  194MOL0     H25597   8.757   7.672   1.768  2.0690  3.1602 -2.2485
  194MOL0     H25598   9.003   7.982   1.998  1.9973  2.7743 -0.4528
  194MOL0     H25599   8.944   8.002   1.829  0.6434 -0.0480  0.2549
  194MOL0     H25600   9.185   8.012   1.815 -0.0947 -0.1875 -0.1612
  194MOL0     H25601   9.189   7.865   1.935 -2.4856 -2.5496  0.8545
  194MOL0     H25602   9.149   7.723   1.768  3.4110 -1.0940 -2.0185
  194MOL0     H25603   9.264   7.828   1.699 -0.6118 -2.8019 -1.5544
  194MOL0     H25604   8.968   7.830   1.628 -0.2331 -0.7442  3.8498
  194MOL0     H25605   9.067   7.975   1.604 -0.0007 -0.3329 -2.7552
  194MOL0     H25606   9.208   7.712   1.300  2.0347 -1.6560  0.8887
  194MOL0     H25607   8.791   7.936   2.104  1.9594 -2.5997  1.3643
  194MOL0     H25608   8.554   7.947   2.129  1.1369  0.3367  0.9198
  195MOL0     O25609   9.354   7.569   9.709  0.7121 -0.0448  0.2544
  195MOL0     C25610   9.352   7.457   9.660 -0.7310 -0.1564 -0.4197
  195MOL0     O25611   9.239   7.380   9.636  0.2791 -0.2449  0.2008
  195MOL0     C25612   9.104   7.409   9.678 -0.1984 -0.3322  0.3265
  195MOL0     C25613   9.013   7.301   9.677 -0.4420 -0.1111  0.7337
  195MOL0     C25614   8.889   7.297   9.736 -0.4569  0.6538 -0.7909
  195MOL0     C25615   8.844   7.416   9.797  0.4489 -0.3485  0.3126
  195MOL0     O25616   8.712   7.448   9.843  0.3066  1.1326 -0.1437
  195MOL0     C25617   8.654   7.335   9.910  0.0841 -0.7632 -0.4184
  195MOL0     C25618   8.525   7.387   9.974  0.2404  0.3805 -0.1273
  195MOL0     C25619   8.445   7.271  10.038  0.1929  0.3617 -0.4604
  195MOL0     C25620   8.333   7.332  10.130 -0.3615  0.4290  0.6944
  195MOL0     C25621   8.254   7.216  10.190  0.2623 -0.3552 -0.7647
  195MOL0     C25622   8.150   7.260  10.294 -0.2640 -0.2835  1.1850
  195MOL0     C25623   8.051   7.156  10.320  0.0480 -0.2919  0.4395
  195MOL0     C25624   7.970   7.190  10.447  1.2658 -0.1929 -0.4821
  195MOL0     N25625   7.848   7.098  10.461 -0.5436  0.1356 -0.0108
  195MOL0     C25626   7.841   6.975  10.419  1.3272  0.6549  0.8061
  195MOL0     C25627   7.755   6.902  10.494 -0.3840 -0.6031  0.6532
  195MOL0     C25628   7.716   6.750  10.480 -0.4813 -0.2814  0.2860
  195MOL0     C25629   7.581   6.724  10.409 -0.0741  0.0669 -0.0021
  195MOL0     C25630   7.468   6.763  10.500 -0.2592  0.6006  0.4064
  195MOL0     C25631   7.332   6.707  10.451 -0.7372  0.0259  1.1979
  195MOL0     O25632   7.248   6.729  10.555  0.8359  0.2109 -0.8983
  195MOL0     C25633   7.113   6.702  10.532 -0.3574  0.7263 -0.4652
  195MOL0     C25634   7.032   6.663  10.635 -0.2791  0.1152 -0.1907
  195MOL0     C25635   6.896   6.653  10.627  0.3824 -0.1103  0.2896
  195MOL0     C25636   6.836   6.687  10.503 -0.4973 -0.0795  0.1729
  195MOL0     C25637   6.691   6.688  10.482  0.1116  0.4356  0.0156
  195MOL0     O25638   6.636   6.702  10.356  0.1988 -0.2730  0.1420
  195MOL0     C25639   6.498   6.716  10.362  0.6639 -0.6180  0.3533
  195MOL0     C25640   6.452   6.842  10.383 -0.2671  0.1166  0.0611
  195MOL0     C25641   6.317   6.867  10.413  0.3241 -0.4860  0.0156
  195MOL0     C25642   6.223   6.759  10.406  0.6855 -0.6468  0.1863
  195MOL0     O25643   6.081   6.775  10.412 -0.3651  0.5620  0.2277
  195MOL0     C25644   6.037   6.870  10.506  0.4004  0.1425 -0.4590
  195MOL0     C25645   5.910   6.805  10.566  0.3180 -0.0331 -0.8215
  195MOL0     C25646   5.842   6.882  10.687  0.0964 -0.3372  0.3941
  195MOL0     C25647   5.762   7.007  10.646 -0.0972 -0.5178  0.7491
  195MOL0     C25648   5.640   6.972  10.560  0.2706  0.4906  0.1953
  195MOL0     C25649   5.566   7.101  10.512  0.3241 -0.0153  0.1531
  195MOL0     C25650   5.436   7.077  10.442  0.5138  0.4564 -0.8782
  195MOL0     C25651   5.375   7.201  10.378 -0.7730  0.0883 -0.4131
  195MOL0    Cl25652   5.197   7.175  10.332 -0.5771  0.3483  0.3088
  195MOL0     C25653   6.273   6.634  10.379  0.2777  0.0577 -0.2371
  195MOL0     C25654   6.407   6.610  10.358 -0.6929  0.7242 -0.0836
  195MOL0     O25655   6.625   6.660  10.585  0.0311 -0.4819  0.1210
  195MOL0     C25656   6.920   6.730  10.399  0.1214 -0.6825  0.7633
  195MOL0     C25657   7.051   6.744  10.417  0.1253  0.4161  1.1462
  195MOL0     N25658   7.704   6.994  10.585 -0.6468  0.2225 -0.0756
  195MOL0     N25659   7.761   7.115  10.563 -0.0713  0.5382  0.0018
  195MOL0     C25660   8.928   7.531   9.792  0.0181  0.1762 -0.0041
  195MOL0     C25661   9.054   7.525   9.739 -0.6388  0.3460 -0.7407
  195MOL0     C25662   9.483   7.402   9.627  0.6049  0.3214  0.0702
  195MOL0     C25663   9.598   7.476   9.647 -0.3589  0.3366  0.4688
  195MOL0     C25664   9.721   7.422   9.598 -0.4817  0.8901  1.1578
  195MOL0     C25665   9.725   7.287   9.540 -0.0943 -0.0964  0.4204
  195MOL0     O25666   9.833   7.229   9.486 -0.3987  0.1373 -0.6335
  195MOL0     C25667   9.959   7.302   9.469 -0.4299  0.2385  0.1151
  195MOL0     C25668  10.088   7.213   9.440  0.1474  0.1308  0.4770
  195MOL0     C25669  10.121   7.151   9.574  0.2126  0.0047 -0.0516
  195MOL0     C25670  10.242   7.063   9.574 -0.4687 -0.3853 -0.2616
  195MOL0     C25671  10.363   7.152   9.608  0.8595 -0.1801 -0.3148
  195MOL0     C25672  10.468   7.206   9.621  0.5118 -0.2533  0.0176
  195MOL0     C25673   9.610   7.219   9.534  0.3659  0.6197 -0.5406
  195MOL0     C25674   9.487   7.272   9.574 -0.3859 -0.0958 -0.0592
  195MOL0     H25675   9.044   7.203   9.642 -2.8359 -1.0693  1.0958
  195MOL0     H25676   8.835   7.203   9.728  3.2975 -1.6230 -1.7857
  195MOL0     H25677   8.716   7.296   9.992 -1.6206 -0.2908  1.1781
  195MOL0     H25678   8.634   7.247   9.848  2.1107 -2.5013  1.2396
  195MOL0     H25679   8.452   7.447   9.918 -1.4310  1.4779  2.9568
  195MOL0     H25680   8.552   7.457  10.053 -2.4795 -0.9185  2.1566
  195MOL0     H25681   8.512   7.217  10.106 -3.0798  0.0944  2.8563
  195MOL0     H25682   8.398   7.199   9.971 -0.6581  0.9476 -0.5061
  195MOL0     H25683   8.378   7.399  10.204  1.1822  1.6113 -1.2193
  195MOL0     H25684   8.262   7.387  10.068 -1.5474 -3.3715 -1.6338
  195MOL0     H25685   8.330   7.149  10.230  0.9350  1.8710  2.0241
  195MOL0     H25686   8.203   7.163  10.109 -0.2181  1.4026 -1.6767
  195MOL0     H25687   8.082   7.338  10.260 -0.8281 -0.7513  1.2271
  195MOL0     H25688   8.207   7.287  10.383 -0.4966  1.2408  0.8969
  195MOL0     H25689   7.981   7.133  10.239  1.8120 -0.6110 -1.0605
  195MOL0     H25690   8.104   7.064  10.344  1.5490  0.8641  1.7765
  195MOL0     H25691   7.929   7.291  10.446  0.4100 -0.5059  0.8419
  195MOL0     H25692   8.031   7.187  10.538  3.4466 -0.2503 -1.8539
  195MOL0     H25693   7.900   6.932  10.339  2.7045  2.4473  0.7950
  195MOL0     H25694   7.716   6.702  10.578 -0.5705 -3.5477 -1.1639
  195MOL0     H25695   7.798   6.719  10.414 -0.3932  2.1622 -0.8653
  195MOL0     H25696   7.576   6.620  10.375 -1.9689  0.8885 -2.6095
  195MOL0     H25697   7.575   6.772  10.310  1.6155 -2.0259 -1.2099
  195MOL0     H25698   7.492   6.716  10.596 -0.0152  0.5065  0.3012
  195MOL0     H25699   7.463   6.871  10.518  1.0117  0.6974  0.2424
  195MOL0     H25700   7.341   6.601  10.427  0.2081  0.2666  0.4218
  195MOL0     H25701   7.292   6.760  10.365 -1.7029  1.5018  2.5053
  195MOL0     H25702   7.075   6.633  10.730 -4.2951 -3.1618  0.9035
  195MOL0     H25703   6.837   6.628  10.714  2.0941 -1.2958  1.1779
  195MOL0     H25704   6.507   6.936  10.387 -1.1958  0.6740  0.2377
  195MOL0     H25705   6.293   6.971  10.432  0.9344 -0.3677  0.1681
  195MOL0     H25706   6.005   6.967  10.466 -0.8284  0.3604  0.9805
  195MOL0     H25707   6.118   6.875  10.580 -0.1835 -2.2472  0.4126
  195MOL0     H25708   5.939   6.707  10.604  1.5423 -0.1585 -1.9984
  195MOL0     H25709   5.830   6.775  10.498 -2.5432 -0.1204  2.3320
  195MOL0     H25710   5.917   6.902  10.764  1.0444 -2.8582  0.2112
  195MOL0     H25711   5.763   6.821  10.731 -1.7319  0.1838 -1.9520
  195MOL0     H25712   5.737   7.071  10.731  0.8759  2.8947 -1.3501
  195MOL0     H25713   5.823   7.072  10.583 -0.7993 -0.8885 -0.3520
  195MOL0     H25714   5.582   6.910  10.628  2.6920 -1.0400  0.9864
  195MOL0     H25715   5.660   6.908  10.473 -0.1271 -0.9574  1.1330
  195MOL0     H25716   5.631   7.160  10.446 -0.7060 -1.6607 -2.4329
  195MOL0     H25717   5.544   7.159  10.602  1.7168  0.9294 -0.0670
  195MOL0     H25718   5.457   7.011  10.358 -1.6076  0.2440 -1.2917
  195MOL0     H25719   5.371   7.027  10.514  0.0816  3.6861  1.1856
  195MOL0     H25720   5.433   7.230  10.289  0.6639 -1.4964 -0.0480
  195MOL0     H25721   5.367   7.285  10.447  1.1440  0.2839 -0.3935
  195MOL0     H25722   6.210   6.550  10.352 -1.8004  2.0700 -2.0903
  195MOL0     H25723   6.436   6.511  10.327 -0.4630 -0.2920  2.9937
  195MOL0     H25724   6.874   6.764  10.306  1.8702  1.2841  0.5567
  195MOL0     H25725   7.101   6.763  10.322  0.2529 -1.1749  0.8654
  195MOL0     H25726   8.885   7.629   9.813 -0.5372  0.5696 -2.5915
  195MOL0     H25727   9.109   7.617   9.726 -2.5138  1.2118 -3.4866
  195MOL0     H25728   9.588   7.574   9.691 -2.7396  0.3695 -0.0293
  195MOL0     H25729   9.814   7.477   9.589  1.3345 -2.2274 -2.6571
  195MOL0     H25730   9.980   7.363   9.557 -0.8079 -1.7456  1.6551
  195MOL0     H25731   9.935   7.365   9.382 -2.8566 -0.4876  0.1900
  195MOL0     H25732  10.071   7.135   9.366 -1.5099 -0.8056  1.7785
  195MOL0     H25733  10.170   7.270   9.394 -1.4500  0.7466 -1.7845
  195MOL0     H25734  10.031   7.090   9.589 -1.5537  2.1351 -1.2748
  195MOL0     H25735  10.125   7.232   9.648 -0.8515  0.4588 -0.4594
  195MOL0     H25736  10.242   6.981   9.645  0.3919 -0.8371 -0.7604
  195MOL0     H25737  10.252   7.023   9.473 -0.8360  2.0181 -1.3289
  195MOL0     H25738  10.557   7.266   9.618 -0.9410  2.0140 -0.8942
  195MOL0     H25739   9.607   7.118   9.495 -2.2506  0.0174  0.9665
  195MOL0     H25740   9.399   7.212   9.553 -0.5278  0.2315 -0.3954
  196MOL0     O25741   5.083  10.494   7.228  0.1418  0.3548  0.2977
  196MOL0     C25742   5.116  10.614   7.252  0.2355  0.8361 -0.0260
  196MOL0     O25743   5.028  10.723   7.263  0.6816  0.5997 -0.3970
  196MOL0     C25744   4.896  10.714   7.250  0.0321 -0.4355  0.7008
  196MOL0     C25745   4.828  10.801   7.333 -0.4199 -0.3258  0.1077
  196MOL0     C25746   4.683  10.790   7.334 -0.9331 -0.4943  0.1089
  196MOL0     C25747   4.611  10.693   7.260 -0.0435 -0.0012  0.4195
  196MOL0     O25748   4.476  10.678   7.260  0.1765 -0.2690  0.2709
  196MOL0     C25749   4.387  10.771   7.330 -0.5848  0.9369 -0.2804
  196MOL0     C25750   4.238  10.753   7.308 -0.1243 -0.2345 -0.0758
  196MOL0     C25751   4.181  10.803   7.174  0.7043  0.3402 -0.6436
  196MOL0     C25752   4.033  10.807   7.178 -0.5122  0.3971  0.2979
  196MOL0     C25753   3.968  10.886   7.061  0.6584  0.2080  0.3907
  196MOL0     C25754   3.810  10.869   7.077  0.1141 -0.1111 -0.2943
  196MOL0     C25755   3.767  10.950   6.956 -0.3655  0.4134  0.1247
  196MOL0     C25756   3.628  10.995   6.968  0.2920 -0.5939 -0.1946
  196MOL0     N25757   3.596  11.108   6.879  0.0609 -0.1133 -0.1741
  196MOL0     C25758   3.573  11.096   6.742 -0.0504  0.9220 -0.2889
  196MOL0     C25759   3.507  11.213   6.711  0.5241  0.6395 -0.4712
  196MOL0     C25760   3.463  11.247   6.576  0.5915  0.2043  0.5254
  196MOL0     C25761   3.349  11.154   6.520 -0.8846 -0.3897  0.6210
  196MOL0     C25762   3.299  11.200   6.375  0.9114 -0.6638 -0.3061
  196MOL0     C25763   3.210  11.088   6.325  0.1455 -0.3883  0.8345
  196MOL0     O25764   3.091  11.093   6.404 -0.0291 -0.1528  0.2283
  196MOL0     C25765   2.977  11.020   6.368 -0.0199 -0.6706 -0.0366
  196MOL0     C25766   2.862  11.087   6.399  0.0799 -0.7703  0.2085
  196MOL0     C25767   2.740  11.041   6.342  0.6997 -0.1358  0.2605
  196MOL0     C25768   2.738  10.924   6.267 -0.6519  0.2910 -0.1291
  196MOL0     C25769   2.615  10.874   6.207  0.1835  0.5234  0.5616
  196MOL0     O25770   2.503  10.948   6.215 -0.2367 -0.4048  0.4075
  196MOL0     C25771   2.388  10.917   6.152  0.0330 -0.2970  0.4781
  196MOL0     C25772   2.375  10.893   6.013  1.0325 -0.3440  0.2592
  196MOL0     C25773   2.241  10.863   5.956 -0.3466 -0.2204 -0.3411
  196MOL0     C25774   2.135  10.855   6.045  0.4634  0.4799 -0.4128
  196MOL0     O25775   2.024  10.811   5.983  0.1807 -1.0986  0.4148
  196MOL0     C25776   1.894  10.834   6.045  0.0022 -0.2284  0.7070
  196MOL0     C25777   1.791  10.855   5.940  0.0077  0.3577 -0.2852
  196MOL0     C25778   1.663  10.898   5.997 -0.1089 -0.2938  0.6506
  196MOL0     C25779   1.571  10.957   5.896 -0.5159 -0.9083  0.1250
  196MOL0     C25780   1.430  10.976   5.939 -0.1855  0.2009 -0.2353
  196MOL0     C25781   1.343  11.013   5.812 -0.1568  1.0097 -0.7127
  196MOL0     C25782   1.225  11.095   5.856 -0.0551  0.8240 -0.4822
  196MOL0     C25783   1.098  11.091   5.764 -0.8766 -0.0931 -0.4721
  196MOL0    Cl25784   1.048  10.919   5.733 -0.3773 -0.5316 -0.1071
  196MOL0     C25785   2.144  10.874   6.181  0.5429 -0.0166 -0.0847
  196MOL0     C25786   2.272  10.906   6.234 -0.0108 -0.4970 -0.2747
  196MOL0     O25787   2.634  10.775   6.135  0.0294 -0.1330  0.6937
  196MOL0     C25788   2.864  10.867   6.230  0.5990 -0.1534  0.0578
  196MOL0     C25789   2.977  10.912   6.287 -0.5193 -0.0090 -0.6113
  196MOL0     N25790   3.502  11.293   6.832 -0.1719 -0.0347  0.4466
  196MOL0     N25791   3.547  11.225   6.929  0.6282 -0.5040 -0.2156
  196MOL0     C25792   4.686  10.614   7.167  0.7429  0.8667 -0.9569
  196MOL0     C25793   4.822  10.628   7.163  0.2533  0.5086 -0.5178
  196MOL0     C25794   5.262  10.653   7.243 -1.0645  0.2654 -1.1825
  196MOL0     C25795   5.364  10.556   7.208 -0.0065  0.4099 -0.3330
  196MOL0     C25796   5.501  10.597   7.192  0.0545 -0.0248  0.0549
  196MOL0     C25797   5.545  10.735   7.204  0.1667  0.5364  0.3521
  196MOL0     O25798   5.681  10.745   7.190 -0.1834 -0.4129  0.0957
  196MOL0     C25799   5.731  10.875   7.218  0.0518  0.2256  0.6302
  196MOL0     C25800   5.885  10.869   7.200 -0.1516  0.3131 -0.0170
  196MOL0     C25801   5.953  10.817   7.331  0.6874  0.0811 -0.4317
  196MOL0     C25802   6.096  10.799   7.308 -0.8321 -0.1586 -0.0699
  196MOL0     C25803   6.169  10.767   7.428  0.4833 -0.5198  0.4074
  196MOL0     C25804   6.236  10.750   7.529  0.1892 -0.1463 -0.4965
  196MOL0     C25805   5.440  10.830   7.235 -0.7557  1.2580 -0.6585
  196MOL0     C25806   5.304  10.785   7.255  0.0098  0.1456 -0.1190
  196MOL0     H25807   4.874  10.880   7.390 -1.3430  0.8056 -0.6714
  196MOL0     H25808   4.616  10.858   7.385 -0.9220 -0.5597  0.2116
  196MOL0     H25809   4.399  10.874   7.294 -4.1795  1.3457 -0.6306
  196MOL0     H25810   4.404  10.765   7.438  0.3414  0.0605 -0.4535
  196MOL0     H25811   4.183  10.808   7.384 -0.1132  4.3508 -3.0164
  196MOL0     H25812   4.210  10.647   7.310 -0.0449 -0.4271 -3.3276
  196MOL0     H25813   4.212  10.745   7.086  1.8707  0.3144 -0.2367
  196MOL0     H25814   4.212  10.908   7.170 -2.0114  1.2915  0.7845
  196MOL0     H25815   4.007  10.702   7.161 -1.9868  0.5777  1.2865
  196MOL0     H25816   3.985  10.840   7.271 -1.3998  1.2428 -0.4296
  196MOL0     H25817   4.010  10.863   6.962  0.0080  1.9222 -0.3105
  196MOL0     H25818   3.990  10.991   7.081 -0.8167  0.0738  3.1936
  196MOL0     H25819   3.773  10.912   7.170 -0.1341 -1.0897  0.0789
  196MOL0     H25820   3.773  10.766   7.075 -0.6457  0.1446  0.1712
  196MOL0     H25821   3.823  11.044   6.945  1.3129 -0.5281  0.2240
  196MOL0     H25822   3.780  10.889   6.866 -0.3249 -0.0213  0.4224
  196MOL0     H25823   3.613  11.039   7.067  1.8238  0.9203 -0.5693
  196MOL0     H25824   3.566  10.907   6.952  0.7957 -0.9858 -0.0011
  196MOL0     H25825   3.599  11.013   6.677  0.8810  1.4311 -0.5895
  196MOL0     H25826   3.545  11.243   6.504 -1.2010  2.0886 -1.7685
  196MOL0     H25827   3.426  11.350   6.575  1.1833  0.4164 -0.0518
  196MOL0     H25828   3.262  11.165   6.586 -1.4183 -2.4883  0.3343
  196MOL0     H25829   3.394  11.055   6.505 -1.6599 -0.6189 -0.3049
  196MOL0     H25830   3.250  11.297   6.373 -3.8500 -2.7308  1.4925
  196MOL0     H25831   3.389  11.214   6.314  1.6260 -1.0815  0.6180
  196MOL0     H25832   3.260  10.991   6.338  2.0504  0.3336 -0.5704
  196MOL0     H25833   3.193  11.111   6.220 -2.5147  0.5350  1.4014
  196MOL0     H25834   2.869  11.177   6.458  1.7131  0.4311 -1.7207
  196MOL0     H25835   2.647  11.095   6.363 -0.1964 -1.6963  0.4331
  196MOL0     H25836   2.456  10.914   5.944  0.3440 -0.9976 -0.7827
  196MOL0     H25837   2.221  10.850   5.851 -1.1227  0.0353 -0.2343
  196MOL0     H25838   1.906  10.918   6.114  1.8548 -0.4630  0.7165
  196MOL0     H25839   1.872  10.744   6.104  1.4431  0.8266  3.0034
  196MOL0     H25840   1.777  10.763   5.883 -2.1871 -1.4933  2.8880
  196MOL0     H25841   1.816  10.939   5.875 -1.4188 -0.8148 -2.4621
  196MOL0     H25842   1.679  10.968   6.081 -1.1504  2.2840 -1.1622
  196MOL0     H25843   1.624  10.807   6.042 -1.7143 -1.3728 -2.6564
  196MOL0     H25844   1.616  11.049   5.857 -0.0394 -1.0633  0.3040
  196MOL0     H25845   1.580  10.890   5.810  1.8587 -1.5669  0.8069
  196MOL0     H25846   1.413  11.052   6.016 -2.3471  1.0696 -1.4698
  196MOL0     H25847   1.388  10.887   5.988 -1.0980  1.3712  1.2317
  196MOL0     H25848   1.311  10.915   5.773 -1.5581  0.5575  1.4118
  196MOL0     H25849   1.409  11.062   5.740  1.8409  0.2103  0.4759
  196MOL0     H25850   1.189  11.064   5.954 -0.2544  1.4875 -0.3408
  196MOL0     H25851   1.261  11.198   5.866 -0.4218  0.7755  1.8736
  196MOL0     H25852   1.107  11.151   5.673 -2.5904 -1.5918 -1.7068
  196MOL0     H25853   1.015  11.141   5.815 -1.4652 -0.7123 -0.7923
  196MOL0     H25854   2.062  10.863   6.250  0.1133  0.6298 -0.4833
  196MOL0     H25855   2.284  10.908   6.342 -0.8256 -1.9321 -0.1382
  196MOL0     H25856   2.876  10.784   6.161 -2.6332 -0.5135 -0.2068
  196MOL0     H25857   3.072  10.864   6.264 -0.9822 -0.4427 -1.6829
  196MOL0     H25858   4.625  10.537   7.119  0.3096 -0.7433  1.9212
  196MOL0     H25859   4.881  10.569   7.093  1.1579 -0.1594  0.7616
  196MOL0     H25860   5.336  10.451   7.198  0.8735  0.2989 -2.2348
  196MOL0     H25861   5.572  10.516   7.176  0.3131  0.4880 -1.5131
  196MOL0     H25862   5.704  10.916   7.315  2.6401 -2.1737  2.5325
  196MOL0     H25863   5.693  10.943   7.141  2.0202 -0.0015 -0.6168
  196MOL0     H25864   5.924  10.801   7.124 -1.0503 -1.2924  0.9004
  196MOL0     H25865   5.923  10.964   7.161  1.0821 -0.8407 -1.7975
  196MOL0     H25866   5.907  10.724   7.365 -1.9721  0.5789 -2.2821
  196MOL0     H25867   5.948  10.888   7.414  3.4440 -1.6540  1.3622
  196MOL0     H25868   6.112  10.720   7.234 -2.2718  0.3289 -0.9405
  196MOL0     H25869   6.141  10.889   7.266 -0.7968  0.9405  2.1485
  196MOL0     H25870   6.276  10.728   7.626  0.3240  1.1630 -0.2393
  196MOL0     H25871   5.466  10.936   7.233 -0.9804  1.3027 -1.5548
  196MOL0     H25872   5.227  10.857   7.283  0.0000 -0.3822  1.2792
  197MOL0     O25873   6.319  10.750   5.384  0.5257  0.3942  0.2021
  197MOL0     C25874   6.370  10.750   5.271 -0.4701  0.1974  0.3901
  197MOL0     O25875   6.312  10.710   5.156 -0.4501 -0.2606 -0.2945
  197MOL0     C25876   6.177  10.698   5.128 -0.2010 -0.2012 -0.0898
  197MOL0     C25877   6.143  10.678   4.991  0.7799 -0.7185 -0.2849
  197MOL0     C25878   6.009  10.671   4.948  0.0415  0.5384 -0.1747
  197MOL0     C25879   5.902  10.672   5.032  0.0034  0.3969  0.4550
  197MOL0     O25880   5.781  10.641   4.974 -0.5467 -0.0140 -0.9207
  197MOL0     C25881   5.664  10.660   5.058  0.3061  0.4920  1.1084
  197MOL0     C25882   5.532  10.645   4.971  0.5442 -0.2632 -0.4369
  197MOL0     C25883   5.404  10.653   5.058 -0.3436 -0.8099 -1.3160
  197MOL0     C25884   5.278  10.658   4.971  0.3664  0.6271 -0.4272
  197MOL0     C25885   5.163  10.701   5.056 -0.4133  0.3367  0.0590
  197MOL0     C25886   5.038  10.734   4.964  0.4449 -0.5040  0.2051
  197MOL0     C25887   4.919  10.781   5.046  0.8691 -0.4712  1.1694
  197MOL0     C25888   4.819  10.851   4.940 -0.3175  0.9068  0.1887
  197MOL0     N25889   4.695  10.896   5.000 -0.0022 -0.2721  0.1530
  197MOL0     C25890   4.615  10.817   5.086 -0.4658 -0.2978 -0.2774
  197MOL0     C25891   4.520  10.911   5.130  0.4185  0.8176 -0.2769
  197MOL0     C25892   4.418  10.868   5.238  0.9145  0.2396  0.5575
  197MOL0     C25893   4.274  10.852   5.185 -0.0441 -0.1713  1.2010
  197MOL0     C25894   4.257  10.723   5.095 -0.4861 -0.1362  1.0771
  197MOL0     C25895   4.104  10.704   5.087 -0.2833 -0.6115  0.4298
  197MOL0     O25896   4.077  10.584   5.003 -0.1625 -0.4694 -0.1041
  197MOL0     C25897   3.953  10.534   4.999  0.9740 -0.5568 -0.3396
  197MOL0     C25898   3.921  10.433   4.904  0.3662  0.3135 -0.6072
  197MOL0     C25899   3.791  10.389   4.888 -0.0867  0.4883 -0.1699
  197MOL0     C25900   3.683  10.439   4.953  0.2250 -0.1835 -0.0216
  197MOL0     C25901   3.546  10.394   4.915  0.1860 -1.2955 -0.7319
  197MOL0     O25902   3.444  10.442   4.995 -0.2423  0.3020 -0.1377
  197MOL0     C25903   3.315  10.404   4.969 -0.3428  0.2669  0.1075
  197MOL0     C25904   3.254  10.310   5.051 -0.1380  0.4851  0.2264
  197MOL0     C25905   3.125  10.264   5.023 -0.2216 -0.0933  0.3847
  197MOL0     C25906   3.048  10.331   4.927 -0.0594 -0.3064  0.6189
  197MOL0     O25907   2.918  10.300   4.894 -0.2884  1.1745  0.2288
  197MOL0     C25908   2.832  10.411   4.929  0.0856 -0.3995  0.3747
  197MOL0     C25909   2.695  10.401   4.857 -0.2279  0.4444  0.4938
  197MOL0     C25910   2.613  10.287   4.917  0.5161 -0.4278  0.8105
  197MOL0     C25911   2.464  10.298   4.888 -0.1297 -0.9177 -0.7674
  197MOL0     C25912   2.387  10.167   4.918 -0.9838 -0.0718  0.2864
  197MOL0     C25913   2.243  10.205   4.891  0.1830 -0.2274  0.4301
  197MOL0     C25914   2.161  10.073   4.919  0.0385 -0.6536  0.2558
  197MOL0     C25915   2.117   9.989   4.798 -0.0940  0.2095  0.0361
  197MOL0    Cl25916   1.991   9.879   4.854  0.1439 -0.2339  0.2714
  197MOL0     C25917   3.112  10.428   4.847 -0.2952 -0.3462  0.1955
  197MOL0     C25918   3.246  10.466   4.876  1.0023 -0.2404 -0.3350
  197MOL0     O25919   3.532  10.330   4.817  0.1924  0.0505  0.3882
  197MOL0     C25920   3.713  10.534   5.050 -0.0114  0.0918  0.0034
  197MOL0     C25921   3.848  10.577   5.081  0.8669  0.2136  1.0010
  197MOL0     N25922   4.551  11.034   5.077 -0.3674  0.3547  0.8156
  197MOL0     N25923   4.652  11.023   5.005 -1.0311 -0.0966  0.3563
  197MOL0     C25924   5.930  10.688   5.167 -0.2604  0.3512 -0.5769
  197MOL0     C25925   6.062  10.707   5.212 -0.8613 -0.3285  0.3490
  197MOL0     C25926   6.519  10.769   5.264  0.5438 -0.4027  0.3952
  197MOL0     C25927   6.592  10.831   5.369  0.4838  0.8753 -0.6726
  197MOL0     C25928   6.730  10.850   5.365 -0.0408 -0.4291 -0.2682
  197MOL0     C25929   6.796  10.812   5.247 -0.3155 -0.4919  0.3299
  197MOL0     O25930   6.924  10.853   5.220  0.6242  0.1236 -0.5032
  197MOL0     C25931   6.975  10.972   5.282 -0.0811 -0.7253 -0.2721
  197MOL0     C25932   7.101  11.027   5.202 -0.4412 -0.2803  0.1608
  197MOL0     C25933   7.234  10.951   5.234  0.3777 -0.1848  0.5639
  197MOL0     C25934   7.355  10.988   5.154 -0.2979  0.4995 -0.4177
  197MOL0     C25935   7.464  10.932   5.234  0.0293  0.0101  0.8120
  197MOL0     C25936   7.555  10.890   5.303 -0.3703  0.1920  0.5077
  197MOL0     C25937   6.729  10.751   5.145  0.0982 -0.1581 -0.3272
  197MOL0     C25938   6.595  10.734   5.149  0.1445 -0.3107 -1.0345
  197MOL0     H25939   6.219  10.658   4.916 -0.9699 -2.1604 -1.7632
  197MOL0     H25940   5.995  10.672   4.841 -0.5500  3.5525 -0.1518
  197MOL0     H25941   5.668  10.758   5.108  0.7043  0.7824  0.5203
  197MOL0     H25942   5.661  10.578   5.130 -2.3418 -4.8417 -4.1878
  197MOL0     H25943   5.537  10.548   4.922 -2.4899 -1.0401  0.6052
  197MOL0     H25944   5.535  10.727   4.898 -1.6399  1.2702  1.0719
  197MOL0     H25945   5.412  10.731   5.133  1.5906 -1.5350 -0.7027
  197MOL0     H25946   5.397  10.569   5.129 -5.0466  2.7297  3.1205
  197MOL0     H25947   5.289  10.741   4.900  2.7927  2.6214  2.0632
  197MOL0     H25948   5.265  10.557   4.933  0.3466 -0.1902  1.6142
  197MOL0     H25949   5.184  10.790   5.116 -0.9699  1.2957 -1.1349
  197MOL0     H25950   5.140  10.624   5.131  1.7018 -1.3034 -0.8605
  197MOL0     H25951   5.009  10.645   4.908  0.6527 -0.3302 -0.1814
  197MOL0     H25952   5.069  10.820   4.904  0.7685  0.6205  1.9167
  197MOL0     H25953   4.863  10.707   5.104  0.4359  0.8318  2.4396
  197MOL0     H25954   4.955  10.862   5.110  1.2413  0.4560 -0.1667
  197MOL0     H25955   4.796  10.777   4.863 -1.8685 -1.7541  3.0110
  197MOL0     H25956   4.868  10.938   4.894  2.2189  0.6690  2.1875
  197MOL0     H25957   4.636  10.713   5.110 -1.4590 -0.9402 -2.0519
  197MOL0     H25958   4.426  10.953   5.307  2.0093  0.6763 -0.0880
  197MOL0     H25959   4.440  10.770   5.283  3.1632 -0.2102 -1.2956
  197MOL0     H25960   4.241  10.936   5.124  1.9560 -0.8928 -1.0173
  197MOL0     H25961   4.210  10.853   5.274  1.5018 -1.0333  2.3820
  197MOL0     H25962   4.289  10.751   4.994 -1.1861  0.8218  1.1075
  197MOL0     H25963   4.300  10.628   5.127 -0.7639 -0.6585 -0.0807
  197MOL0     H25964   4.059  10.791   5.039 -1.5985 -1.7191 -0.4498
  197MOL0     H25965   4.063  10.687   5.187  1.8927 -1.2588  1.2835
  197MOL0     H25966   4.009  10.401   4.850  0.9558  1.5409 -0.4182
  197MOL0     H25967   3.769  10.314   4.812  1.2564 -0.3251  0.2134
  197MOL0     H25968   3.305  10.262   5.134  1.4863 -3.0394 -2.5380
  197MOL0     H25969   3.071  10.192   5.084 -1.3062 -0.7659 -1.2902
  197MOL0     H25970   2.878  10.503   4.890 -0.1443 -1.5144 -2.8465
  197MOL0     H25971   2.819  10.415   5.038 -0.2910  0.1211  0.3149
  197MOL0     H25972   2.726  10.378   4.755 -0.3762  0.0718  0.5297
  197MOL0     H25973   2.635  10.493   4.861  1.6057  1.7948 -0.8756
  197MOL0     H25974   2.622  10.281   5.026  1.5281 -3.1627  0.6495
  197MOL0     H25975   2.655  10.192   4.882  2.6720  0.3413  1.1886
  197MOL0     H25976   2.425  10.374   4.955  2.3830 -0.8844  0.7429
  197MOL0     H25977   2.455  10.326   4.782  1.9151 -1.3812 -1.0961
  197MOL0     H25978   2.395  10.137   5.023  1.3055  0.0379  0.1966
  197MOL0     H25979   2.422  10.086   4.854 -1.7760 -0.2606  0.0934
  197MOL0     H25980   2.223  10.238   4.788 -0.1064 -1.0878  0.1963
  197MOL0     H25981   2.214  10.289   4.955 -0.1024 -1.2849  1.7151
  197MOL0     H25982   2.208  10.006   4.991 -0.9577 -0.0222  1.5318
  197MOL0     H25983   2.079  10.121   4.974  1.0324  1.5520 -0.0819
  197MOL0     H25984   2.204   9.935   4.759  2.0562  1.8344  2.2503
  197MOL0     H25985   2.084  10.054   4.717  1.3516 -1.1701 -1.7807
  197MOL0     H25986   3.058  10.482   4.769 -0.9782  1.0996  1.6027
  197MOL0     H25987   3.287  10.551   4.824  2.9050  1.2508  3.2179
  197MOL0     H25988   3.641  10.593   5.105  0.1663 -1.2059  1.6994
  197MOL0     H25989   3.865  10.650   5.160  0.9620 -0.9646  2.1046
  197MOL0     H25990   5.852  10.710   5.239  0.3003  1.3038 -0.2559
  197MOL0     H25991   6.076  10.709   5.320 -2.0824 -0.8283  0.5323
  197MOL0     H25992   6.549  10.870   5.461  2.8795 -1.1347  1.4461
  197MOL0     H25993   6.787  10.890   5.449  3.2293 -1.2269 -1.9514
  197MOL0     H25994   7.006  10.958   5.386 -0.6589  0.3207  0.0467
  197MOL0     H25995   6.896  11.047   5.278 -0.3908 -1.0011  0.4803
  197MOL0     H25996   7.089  11.025   5.093  1.9977  3.5088 -0.3879
  197MOL0     H25997   7.113  11.132   5.229  2.8897 -0.7106  0.7760
  197MOL0     H25998   7.207  10.851   5.200  1.2849 -1.1084  2.4087
  197MOL0     H25999   7.250  10.963   5.342 -4.3887 -0.2556  1.4991
  197MOL0     H26000   7.357  10.944   5.054  3.1813  1.0355 -0.7052
  197MOL0     H26001   7.357  11.096   5.165 -2.7240  0.3349  6.2753
  197MOL0     H26002   7.627  10.840   5.364  1.5333 -0.1088 -1.8482
  197MOL0     H26003   6.795  10.721   5.064  0.5542 -1.4451  0.4839
  197MOL0     H26004   6.544  10.675   5.074 -1.1846  1.9037 -1.9718
  198MOL0     O26005   1.610   4.890  10.741 -0.1980 -0.9145 -0.5177
  198MOL0     C26006   1.571   4.773  10.721 -0.4296  0.7934 -0.5356
  198MOL0     O26007   1.658   4.672  10.686  0.6750 -0.4623  0.4876
  198MOL0     C26008   1.786   4.704  10.716  0.0362  0.4765 -0.1555
  198MOL0     C26009   1.851   4.610  10.799 -0.2757 -0.8147 -0.1690
  198MOL0     C26010   1.988   4.616  10.819  0.3773  0.7577  0.2134
  198MOL0     C26011   2.063   4.724  10.775  0.3284 -0.2520  0.3734
  198MOL0     O26012   2.191   4.749  10.815  0.3790 -0.4214 -0.0084
  198MOL0     C26013   2.260   4.658  10.900 -0.6852 -1.2907 -0.2840
  198MOL0     C26014   2.404   4.707  10.910 -0.1808 -0.2806 -0.3909
  198MOL0     C26015   2.494   4.590  10.967 -0.3214 -0.3366 -0.6058
  198MOL0     C26016   2.634   4.630  11.006  0.0484  0.2772  0.4602
  198MOL0     C26017   2.725   4.506  11.040 -0.9103 -0.4480 -0.4661
  198MOL0     C26018   2.855   4.531  11.114  0.0350 -0.8876  0.0523
  198MOL0     C26019   2.933   4.628  11.034  0.1818  0.2457 -0.0503
  198MOL0     C26020   3.079   4.628  11.076  0.1851  0.3569 -0.2974
  198MOL0     N26021   3.152   4.707  10.978 -0.1203  0.0838 -0.4827
  198MOL0     C26022   3.127   4.842  10.946 -0.3409  0.0511  0.9762
  198MOL0     C26023   3.205   4.859  10.837 -0.2903 -0.5051  0.9964
  198MOL0     C26024   3.221   4.994  10.761  0.1270  0.2928  0.1134
  198MOL0     C26025   3.095   5.044  10.695 -0.1395 -0.2917 -0.4611
  198MOL0     C26026   3.136   5.170  10.602 -0.2272  0.2017 -0.4039
  198MOL0     C26027   3.009   5.214  10.533  0.2877  0.1914 -0.1366
  198MOL0     O26028   2.919   5.285  10.618  0.5833 -0.3562 -0.3246
  198MOL0     C26029   2.811   5.347  10.558 -0.1278  0.3518 -0.3389
  198MOL0     C26030   2.755   5.303  10.438 -0.1515 -0.1625  0.1320
  198MOL0     C26031   2.648   5.368  10.380 -0.1518 -0.2709 -0.0550
  198MOL0     C26032   2.590   5.480  10.447 -0.2956 -0.2323 -0.1575
  198MOL0     C26033   2.469   5.548  10.399  0.2783  1.0425  0.5977
  198MOL0     O26034   2.432   5.504  10.273 -0.5412 -0.0059 -0.5590
  198MOL0     C26035   2.306   5.540  10.221  0.3823 -0.0860  0.3854
  198MOL0     C26036   2.182   5.497  10.268 -0.0926  0.0022 -0.7534
  198MOL0     C26037   2.069   5.548  10.211  0.1705  0.5337  0.5570
  198MOL0     C26038   2.068   5.633  10.105 -0.0992 -0.5728 -0.6650
  198MOL0     O26039   1.963   5.686  10.047  0.6532 -0.8362 -0.1219
  198MOL0     C26040   1.824   5.665  10.090  0.0748 -0.1248  0.1818
  198MOL0     C26041   1.734   5.741   9.987 -0.6273 -0.1970  0.3019
  198MOL0     C26042   1.584   5.731  10.018  0.0849  0.6611 -0.5442
  198MOL0     C26043   1.493   5.793   9.919  0.5387 -0.0669 -1.0928
  198MOL0     C26044   1.345   5.750   9.950 -0.2776  0.4121 -0.4946
  198MOL0     C26045   1.247   5.806   9.844 -0.1703  0.1797 -0.9330
  198MOL0     C26046   1.110   5.750   9.870  0.0787  0.2179 -0.4393
  198MOL0     C26047   1.026   5.777   9.746  0.0290 -0.1786  0.2105
  198MOL0    Cl26048   1.073   5.666   9.614  0.2818 -0.1671 -0.1050
  198MOL0     C26049   2.194   5.655  10.039 -1.0434 -0.1018  0.1160
  198MOL0     C26050   2.312   5.606  10.099 -1.2909  0.0526 -0.2878
  198MOL0     O26051   2.393   5.604  10.482  0.0220 -0.0636 -0.0147
  198MOL0     C26052   2.644   5.525  10.566 -0.1223 -0.1705  0.0164
  198MOL0     C26053   2.752   5.457  10.624 -0.4565 -0.2267 -0.0181
  198MOL0     N26054   3.284   4.753  10.813 -0.1036  0.1958 -0.0013
  198MOL0     N26055   3.247   4.662  10.899  0.1647 -0.0266 -0.4398
  198MOL0     C26056   1.998   4.819  10.701  0.3527 -0.2210  0.4101
  198MOL0     C26057   1.866   4.807  10.669  0.0776  1.1566  0.0321
  198MOL0     C26058   1.430   4.740  10.739  0.4465 -0.9897  0.0594
  198MOL0     C26059   1.345   4.839  10.785 -0.0922  0.5549 -1.3057
  198MOL0     C26060   1.207   4.816  10.786  0.3988 -0.6426 -0.4991
  198MOL0     C26061   1.149   4.695  10.757 -0.4253 -0.0467  0.5182
  198MOL0     O26062   1.016   4.660  10.760  0.3541 -0.2851 -0.5819
  198MOL0     C26063   0.916   4.747  10.814 -0.3454 -0.4786  0.7719
  198MOL0     C26064   0.857   4.851  10.715 -1.0534  0.0648  0.3946
  198MOL0     C26065   0.737   4.792  10.645 -0.6078  0.0647  0.1826
  198MOL0     C26066   0.675   4.892  10.553  0.5857 -0.1402 -1.1765
  198MOL0     C26067   0.551   4.840  10.496  0.7732  0.3516  0.3536
  198MOL0     C26068   0.445   4.805  10.443 -0.3319  0.4269 -0.7692
  198MOL0     C26069   1.238   4.591  10.724  0.0705 -0.1764 -0.1014
  198MOL0     C26070   1.373   4.622  10.699 -0.4768  0.6982  0.0450
  198MOL0     H26071   1.798   4.525  10.842  1.8887 -3.3574 -2.2042
  198MOL0     H26072   2.032   4.528  10.864 -1.0991 -0.7811 -1.2287
  198MOL0     H26073   2.258   4.556  10.859 -0.9077 -1.8199  0.9742
  198MOL0     H26074   2.218   4.663  11.001 -3.1337  0.8429 -1.2968
  198MOL0     H26075   2.412   4.799  10.970 -1.5932 -1.1068  1.1684
  198MOL0     H26076   2.442   4.731  10.811  0.7494 -1.6459 -0.3931
  198MOL0     H26077   2.502   4.505  10.898  0.3714 -1.2773  0.5973
  198MOL0     H26078   2.460   4.557  11.066  1.7495 -2.4653 -0.4997
  198MOL0     H26079   2.677   4.688  10.924 -0.2026  0.1144  0.2109
  198MOL0     H26080   2.621   4.690  11.097 -0.8758  0.9082 -0.0702
  198MOL0     H26081   2.746   4.454  10.946 -2.9119 -1.2674 -0.5066
  198MOL0     H26082   2.664   4.433  11.093 -1.5281 -0.9217 -1.7848
  198MOL0     H26083   2.913   4.440  11.135  3.2704  1.3394  1.5974
  198MOL0     H26084   2.833   4.580  11.209 -4.0161 -2.5033  0.1286
  198MOL0     H26085   2.944   4.595  10.930 -0.2361  1.2602 -0.4364
  198MOL0     H26086   2.896   4.732  11.034  1.7994  0.8609 -0.9808
  198MOL0     H26087   3.125   4.529  11.075  2.1054  0.9539  4.2832
  198MOL0     H26088   3.090   4.666  11.178  1.9861  0.6160 -0.5491
  198MOL0     H26089   3.056   4.919  10.973 -0.0107  1.3653 -1.5958
  198MOL0     H26090   3.289   4.973  10.677  0.3145  1.3069  0.0000
  198MOL0     H26091   3.269   5.071  10.821 -0.4362  3.7781 -3.4658
  198MOL0     H26092   3.012   5.071  10.762 -0.3750 -1.6570 -0.1686
  198MOL0     H26093   3.050   4.967  10.632  0.2678  2.0437 -3.8531
  198MOL0     H26094   3.188   5.250  10.654 -0.2034  0.3595 -0.6683
  198MOL0     H26095   3.212   5.142  10.528  2.1740  2.5360  1.0190
  198MOL0     H26096   2.940   5.136  10.499 -2.4526  2.0352  0.8622
  198MOL0     H26097   3.039   5.275  10.447 -0.5564  0.6797 -0.0885
  198MOL0     H26098   2.792   5.229  10.367 -0.2621 -0.7936  0.7160
  198MOL0     H26099   2.592   5.333  10.294 -1.3327  0.7715  0.2647
  198MOL0     H26100   2.179   5.452  10.366 -0.5642  1.5362 -0.0365
  198MOL0     H26101   1.968   5.522  10.243 -0.2361  1.4136  0.0250
  198MOL0     H26102   1.797   5.709  10.187 -0.8353 -2.7361  1.1947
  198MOL0     H26103   1.800   5.559  10.087  0.4126 -0.2407  1.2618
  198MOL0     H26104   1.748   5.713   9.882 -2.8718  2.4413 -0.8099
  198MOL0     H26105   1.754   5.848   9.994 -0.4433 -0.1241 -1.1126
  198MOL0     H26106   1.573   5.779  10.116 -1.7922 -0.9706  0.1083
  198MOL0     H26107   1.564   5.623  10.024  0.8534  0.5787  1.4736
  198MOL0     H26108   1.507   5.901   9.934 -2.4126 -0.0657  3.6793
  198MOL0     H26109   1.523   5.766   9.817  1.0629 -1.3450 -0.6179
  198MOL0     H26110   1.319   5.798  10.045 -2.5877  0.4192 -1.0636
  198MOL0     H26111   1.338   5.642   9.961  2.6970  0.3582  2.0273
  198MOL0     H26112   1.279   5.776   9.744 -2.5258 -0.1140 -1.6535
  198MOL0     H26113   1.255   5.915   9.848 -0.7181  0.4926 -4.5562
  198MOL0     H26114   1.118   5.647   9.907 -1.0098 -0.0468 -0.9182
  198MOL0     H26115   1.062   5.795   9.957  2.0095 -0.0605  0.8504
  198MOL0     H26116   1.030   5.881   9.713  1.7698  0.1023  1.1708
  198MOL0     H26117   0.920   5.770   9.775 -0.0248  1.9180  0.6727
  198MOL0     H26118   2.187   5.709   9.945 -0.3812  0.8580  0.6106
  198MOL0     H26119   2.408   5.615  10.049 -2.3223  1.0201 -2.1952
  198MOL0     H26120   2.600   5.615  10.608  0.6254  0.6480 -0.8960
  198MOL0     H26121   2.812   5.498  10.705 -0.1754 -1.3005  0.3446
  198MOL0     H26122   2.055   4.909  10.684 -0.4178  0.7060  2.3908
  198MOL0     H26123   1.827   4.885  10.605 -0.5788 -1.1561 -2.5609
  198MOL0     H26124   1.383   4.935  10.818  3.4215 -0.6405 -1.4731
  198MOL0     H26125   1.139   4.897  10.809 -0.0813 -1.3183  0.5284
  198MOL0     H26126   0.951   4.808  10.898 -1.7059  2.2173 -0.4971
  198MOL0     H26127   0.841   4.681  10.859  0.1484 -0.5527  1.5017
  198MOL0     H26128   0.825   4.942  10.765 -2.6673 -0.4647  0.3881
  198MOL0     H26129   0.938   4.877  10.647 -2.9885  1.8568 -1.3629
  198MOL0     H26130   0.664   4.761  10.720 -1.7111  2.0828  0.0182
  198MOL0     H26131   0.778   4.709  10.587  0.8335 -0.9121  2.4451
  198MOL0     H26132   0.653   4.990  10.597 -1.2752 -0.8591 -0.3892
  198MOL0     H26133   0.742   4.928  10.474  0.9078  2.3854  0.1466
  198MOL0     H26134   0.355   4.780  10.391 -1.8937  0.3983  1.7804
  198MOL0     H26135   1.197   4.495  10.694  0.7069 -0.3599 -0.3861
  198MOL0     H26136   1.434   4.542  10.659  0.6243  0.4768  2.0598
  199MOL0     O26137   9.753   9.730   0.564  0.0695 -0.6551 -0.1888
  199MOL0     C26138   9.749   9.826   0.487  0.5554  0.0444 -0.1589
  199MOL0     O26139   9.637   9.862   0.408 -0.1424  0.8120  0.5509
  199MOL0     C26140   9.518   9.801   0.440 -0.2557 -0.1164  0.6935
  199MOL0     C26141   9.427   9.853   0.526  0.3861  0.9636 -0.3273
  199MOL0     C26142   9.311   9.769   0.547 -0.5410 -0.9677  0.1440
  199MOL0     C26143   9.293   9.648   0.475  0.4474 -0.5403  0.5199
  199MOL0     O26144   9.180   9.567   0.493 -0.1294  0.6106  0.1733
  199MOL0     C26145   9.055   9.620   0.549 -0.2487 -0.3568 -0.0845
  199MOL0     C26146   8.939   9.516   0.538  0.1220 -0.3862  0.2125
  199MOL0     C26147   8.821   9.531   0.622  0.4251 -0.8043 -0.1418
  199MOL0     C26148   8.740   9.404   0.616 -0.0872  0.4777  0.4697
  199MOL0     C26149   8.611   9.401   0.699 -0.3208 -0.1791 -0.2472
  199MOL0     C26150   8.497   9.476   0.652  0.5252 -1.3962  0.2454
  199MOL0     C26151   8.388   9.471   0.762 -0.6863 -1.4000  0.3264
  199MOL0     C26152   8.371   9.593   0.853  0.6003 -0.0638 -0.3658
  199MOL0     N26153   8.488   9.605   0.941  0.2150  0.3500 -0.5800
  199MOL0     C26154   8.506   9.523   1.055  0.3259  0.0816  0.3102
  199MOL0     C26155   8.624   9.568   1.103 -0.0580  0.4309 -0.1654
  199MOL0     C26156   8.706   9.479   1.197  0.0994 -0.0627 -0.6178
  199MOL0     C26157   8.857   9.519   1.189 -0.3747  0.8679  0.6153
  199MOL0     C26158   8.941   9.487   1.315 -0.1155  0.1198  0.4961
  199MOL0     C26159   9.090   9.499   1.284  0.2109  0.2795  0.3566
  199MOL0     O26160   9.130   9.377   1.226  0.7541  0.4235 -0.0842
  199MOL0     C26161   9.257   9.360   1.191 -0.1786 -0.4888 -0.1883
  199MOL0     C26162   9.294   9.224   1.194 -0.3657 -0.1758  0.2252
  199MOL0     C26163   9.435   9.197   1.183  0.4039  0.6844 -0.0979
  199MOL0     C26164   9.528   9.304   1.164 -1.1241  0.2269 -0.2161
  199MOL0     C26165   9.676   9.279   1.167  0.4538 -0.8309  0.3437
  199MOL0     O26166   9.750   9.394   1.184 -0.3621  0.2190  0.1407
  199MOL0     C26167   9.886   9.387   1.217  0.3129 -0.1632 -0.4837
  199MOL0     C26168   9.942   9.469   1.318  0.5012 -0.2414  0.7016
  199MOL0     C26169  10.083   9.475   1.340 -0.0837  0.0850 -0.6821
  199MOL0     C26170  10.166   9.396   1.261 -0.0956  0.9134 -0.4329
  199MOL0     O26171  10.299   9.394   1.293 -0.1010 -0.9468  0.7508
  199MOL0     C26172  10.389   9.350   1.193  0.9086  0.3921  0.4789
  199MOL0     C26173  10.509   9.298   1.254  0.1191  0.1633 -1.1592
  199MOL0     C26174  10.570   9.395   1.362  0.1310  0.4968  0.3472
  199MOL0     C26175  10.673   9.320   1.447 -0.3176 -0.0924  0.1580
  199MOL0     C26176  10.827   9.350   1.405 -0.1449  0.5554  0.1298
  199MOL0     C26177  10.927   9.259   1.473  0.2825 -0.1141  0.3133
  199MOL0     C26178  11.077   9.279   1.435 -0.2851  0.0002 -0.2261
  199MOL0     C26179  11.175   9.183   1.509 -0.1393  0.3579 -0.7818
  199MOL0    Cl26180  11.155   9.012   1.482  0.4632 -0.1351 -0.1544
  199MOL0     C26181  10.110   9.317   1.159 -0.2237  0.0103  0.1584
  199MOL0     C26182   9.972   9.311   1.141 -0.5626  0.5212 -0.0676
  199MOL0     O26183   9.721   9.162   1.168  0.0513  0.1374 -1.0418
  199MOL0     C26184   9.479   9.436   1.159 -1.3149  0.6425  0.3261
  199MOL0     C26185   9.352   9.462   1.185  0.2290  0.2830 -0.9097
  199MOL0     N26186   8.662   9.684   1.029  0.0162 -0.4322  0.4136
  199MOL0     N26187   8.584   9.697   0.930 -0.3631 -0.1538 -0.6038
  199MOL0     C26188   9.382   9.605   0.382 -0.0160 -0.2336 -0.6697
  199MOL0     C26189   9.493   9.684   0.363  0.6700  0.0317  0.2493
  199MOL0     C26190   9.877   9.895   0.468 -1.0112 -0.1039  0.5607
  199MOL0     C26191   9.987   9.872   0.561  0.3678  0.0994 -0.6220
  199MOL0     C26192  10.101   9.938   0.547  0.3942 -0.3509 -1.7432
  199MOL0     C26193  10.127  10.027   0.438 -0.9842  0.2119  0.3263
  199MOL0     O26194  10.244  10.107   0.447 -0.5325  0.4935  0.3415
  199MOL0     C26195  10.332  10.109   0.333  0.6164  0.1425 -0.1587
  199MOL0     C26196  10.406   9.971   0.322  0.1926 -0.0018 -0.0205
  199MOL0     C26197  10.524   9.957   0.423  0.4553 -0.3078  1.2481
  199MOL0     C26198  10.469   9.926   0.557 -0.4694  0.4121  0.0593
  199MOL0     C26199  10.581   9.909   0.651  0.1134 -0.5028  0.1822
  199MOL0     C26200  10.674   9.921   0.722  0.0712  0.2944 -0.4146
  199MOL0     C26201  10.031  10.041   0.341  0.2170  0.2729 -0.5202
  199MOL0     C26202   9.909   9.969   0.355 -0.2061 -0.3886  0.8808
  199MOL0     H26203   9.452   9.946   0.577  2.1964  0.0276  0.5936
  199MOL0     H26204   9.226   9.794   0.610 -0.7240  2.3083 -1.1723
  199MOL0     H26205   9.023   9.719   0.514 -0.1080  0.6730  2.5205
  199MOL0     H26206   9.069   9.629   0.657 -0.4907 -2.7248  0.2076
  199MOL0     H26207   8.985   9.426   0.580 -0.0182 -0.6212 -0.1302
  199MOL0     H26208   8.915   9.508   0.431 -0.1692  1.5378  0.0973
  199MOL0     H26209   8.749   9.611   0.605  0.0288 -1.3362 -1.0151
  199MOL0     H26210   8.856   9.557   0.722 -3.5022  2.3621  0.7003
  199MOL0     H26211   8.704   9.375   0.517 -0.8504 -0.0612  0.8897
  199MOL0     H26212   8.813   9.337   0.661 -1.5906 -0.8374  1.0586
  199MOL0     H26213   8.638   9.437   0.799  0.5834  0.0606 -0.5587
  199MOL0     H26214   8.583   9.296   0.706  1.8825 -0.7526  1.1268
  199MOL0     H26215   8.446   9.432   0.566 -1.6139  1.8419 -0.2965
  199MOL0     H26216   8.530   9.580   0.641 -2.8632 -0.1031  1.0781
  199MOL0     H26217   8.297   9.442   0.709 -0.6101 -0.5127 -0.3109
  199MOL0     H26218   8.409   9.389   0.832  4.0543 -0.4501  0.3624
  199MOL0     H26219   8.279   9.569   0.906  0.9633  2.7870  1.7748
  199MOL0     H26220   8.345   9.684   0.798 -1.5120 -1.8505 -2.5522
  199MOL0     H26221   8.456   9.435   1.094  0.1562  0.5451  1.1755
  199MOL0     H26222   8.693   9.372   1.175  1.9007 -0.9461  2.0352
  199MOL0     H26223   8.678   9.482   1.303  1.3595 -0.4892 -0.2596
  199MOL0     H26224   8.866   9.628   1.176  0.1749  0.6135 -1.4750
  199MOL0     H26225   8.899   9.479   1.096 -2.7039  1.5941 -0.8193
  199MOL0     H26226   8.914   9.556   1.396  2.6229  0.9780  0.8001
  199MOL0     H26227   8.916   9.390   1.359  2.4057 -0.6214  0.4461
  199MOL0     H26228   9.151   9.524   1.372 -3.1352 -2.6670  3.8420
  199MOL0     H26229   9.104   9.577   1.208 -0.8116  1.8027  1.6553
  199MOL0     H26230   9.219   9.147   1.200 -1.5118  1.0180  3.0630
  199MOL0     H26231   9.472   9.098   1.209  0.9096  0.4961 -1.4532
  199MOL0     H26232   9.866   9.535   1.358  0.2739  0.0648 -0.2119
  199MOL0     H26233  10.122   9.537   1.421  0.7389 -0.0830 -0.9391
  199MOL0     H26234  10.408   9.428   1.119 -0.2086  1.2182  1.0385
  199MOL0     H26235  10.365   9.259   1.137  1.0502  0.2444  0.6599
  199MOL0     H26236  10.585   9.275   1.179  0.3959 -1.4734 -0.4232
  199MOL0     H26237  10.485   9.202   1.301  2.4978 -0.3601 -0.9133
  199MOL0     H26238  10.502   9.423   1.442 -0.6047  0.8191 -0.3790
  199MOL0     H26239  10.614   9.485   1.317 -0.3391  0.9983  0.8870
  199MOL0     H26240  10.662   9.331   1.555 -2.7247 -1.2524  0.0978
  199MOL0     H26241  10.658   9.214   1.421  1.3382 -0.2155 -0.4176
  199MOL0     H26242  10.851   9.455   1.425 -1.7531  1.1015 -0.6862
  199MOL0     H26243  10.833   9.329   1.298 -0.9394 -0.5874  0.2878
  199MOL0     H26244  10.904   9.155   1.452  0.1074 -0.1478  0.6714
  199MOL0     H26245  10.923   9.281   1.580  2.0886  3.1326 -0.1353
  199MOL0     H26246  11.087   9.259   1.328  1.6716 -0.7871  0.0653
  199MOL0     H26247  11.096   9.386   1.448 -0.8417  0.1011 -0.2009
  199MOL0     H26248  11.184   9.197   1.617 -2.3330 -1.8940 -0.1980
  199MOL0     H26249  11.277   9.206   1.476  0.6211 -0.3838  0.9333
  199MOL0     H26250  10.156   9.248   1.088  1.6794  0.5469  0.8104
  199MOL0     H26251   9.919   9.258   1.062  0.4688 -0.4841 -0.0984
  199MOL0     H26252   9.554   9.511   1.138  2.8984 -3.5955 -1.5708
  199MOL0     H26253   9.328   9.568   1.186  0.9536  0.4708  1.4230
  199MOL0     H26254   9.372   9.511   0.328 -0.9567 -1.3033  1.2272
  199MOL0     H26255   9.568   9.665   0.286  0.8427  2.6042 -0.2966
  199MOL0     H26256   9.976   9.797   0.638 -0.2865 -0.4373 -1.2119
  199MOL0     H26257  10.172   9.942   0.628 -0.2260 -1.3706 -1.1312
  199MOL0     H26258  10.413  10.182   0.329  0.6071  0.1081 -1.2435
  199MOL0     H26259  10.275  10.136   0.244 -3.5272  0.8536  2.3845
  199MOL0     H26260  10.336   9.887   0.327  0.5050 -0.2926 -0.5668
  199MOL0     H26261  10.455   9.969   0.225 -0.1122 -0.8881 -0.1586
  199MOL0     H26262  10.584  10.049   0.423  1.9431 -1.0179 -3.7290
  199MOL0     H26263  10.580   9.873   0.382 -0.1224 -0.7159  1.2815
  199MOL0     H26264  10.408  10.004   0.603 -0.6182  1.0942 -1.2332
  199MOL0     H26265  10.398   9.844   0.557 -0.1712  0.1489 -0.5700
  199MOL0     H26266  10.751   9.939   0.794  0.8410 -2.0609 -0.5445
  199MOL0     H26267  10.045  10.121   0.268 -1.1083  2.2597  1.3039
  199MOL0     H26268   9.829   9.988   0.284  0.6188 -0.5503 -0.1215
  200MOL0     O26269   4.022   7.233   4.267  0.2658  0.4602  0.1518
  200MOL0     C26270   4.071   7.343   4.279 -0.1316  0.3150  0.1543
  200MOL0     O26271   4.009   7.462   4.254  0.0045  0.6387 -0.2062
  200MOL0     C26272   3.877   7.487   4.254  1.2672  0.2579  0.5211
  200MOL0     C26273   3.769   7.400   4.277  0.1084 -0.1161 -0.0413
  200MOL0     C26274   3.633   7.451   4.255 -0.1945  0.9336 -0.1826
  200MOL0     C26275   3.613   7.579   4.203  0.4725  0.1739  0.9122
  200MOL0     O26276   3.492   7.639   4.189  0.6442 -0.2510 -0.0213
  200MOL0     C26277   3.383   7.598   4.272  0.0347 -0.0792 -0.0446
  200MOL0     C26278   3.281   7.704   4.310 -0.1580  0.2598  0.2833
  200MOL0     C26279   3.183   7.635   4.408 -0.1887 -0.6014  0.7937
  200MOL0     C26280   3.073   7.743   4.437 -0.0352 -1.0939  0.1298
  200MOL0     C26281   2.975   7.708   4.549 -0.7170  0.4085  0.5264
  200MOL0     C26282   2.894   7.585   4.519  0.5716 -0.2826  0.1753
  200MOL0     C26283   2.831   7.536   4.645  0.0234 -0.6444 -0.5042
  200MOL0     C26284   2.738   7.410   4.616  0.1006  0.0030 -0.2633
  200MOL0     N26285   2.671   7.364   4.738  0.4957  0.6443  0.3782
  200MOL0     C26286   2.696   7.240   4.795 -0.6039  0.3443  0.9167
  200MOL0     C26287   2.613   7.245   4.905  0.1221 -0.2239 -0.0192
  200MOL0     C26288   2.583   7.141   5.009  0.0223 -0.0437 -0.1821
  200MOL0     C26289   2.445   7.085   4.987 -0.4564 -0.6829 -0.4574
  200MOL0     C26290   2.414   6.975   5.090 -0.0250  0.2576  0.0221
  200MOL0     C26291   2.284   6.910   5.063 -0.5809  0.5484 -0.1327
  200MOL0     O26292   2.179   7.003   5.051  0.5883 -0.3124 -0.0724
  200MOL0     C26293   2.054   6.966   5.014  0.2136  0.2715 -0.1328
  200MOL0     C26294   2.023   6.839   4.958 -0.1504 -0.4509 -0.1649
  200MOL0     C26295   1.894   6.815   4.923 -1.1646  0.6572  0.2007
  200MOL0     C26296   1.791   6.914   4.937 -0.6611  0.4708 -0.6292
  200MOL0     C26297   1.648   6.879   4.913  0.7455  0.7622  0.5609
  200MOL0     O26298   1.550   6.973   4.905  0.3973  0.1906 -0.6891
  200MOL0     C26299   1.427   6.941   4.842 -0.2165  0.3387 -0.6026
  200MOL0     C26300   1.306   6.992   4.905  0.3066  0.4993  0.3806
  200MOL0     C26301   1.180   6.959   4.848  0.5604  0.1090  0.5229
  200MOL0     C26302   1.178   6.892   4.725 -0.7236  0.1425  0.5991
  200MOL0     O26303   1.065   6.860   4.655  0.3398 -0.8469  0.0075
  200MOL0     C26304   0.939   6.907   4.706  0.9520 -0.3770 -0.0996
  200MOL0     C26305   0.823   6.899   4.609 -0.6987 -0.3278  0.3638
  200MOL0     C26306   0.810   6.773   4.529  0.1117 -0.2401 -0.3264
  200MOL0     C26307   0.695   6.753   4.434  0.1022  0.5219 -0.7423
  200MOL0     C26308   0.552   6.751   4.500 -0.7558  0.0963  0.4890
  200MOL0     C26309   0.452   6.734   4.391  0.7029 -0.0337  0.2080
  200MOL0     C26310   0.308   6.743   4.440  0.6249  0.2043 -0.0203
  200MOL0     C26311   0.204   6.696   4.343 -0.8057 -0.0543 -0.9735
  200MOL0    Cl26312   0.038   6.724   4.408 -0.2440  0.0910 -0.4480
  200MOL0     C26313   1.298   6.860   4.659 -1.2064 -0.2904  0.6747
  200MOL0     C26314   1.417   6.883   4.716  0.3979  0.3610  0.1716
  200MOL0     O26315   1.623   6.758   4.899  0.7381 -0.9008  0.4829
  200MOL0     C26316   1.822   7.044   4.978  0.4398 -0.3051 -0.6148
  200MOL0     C26317   1.957   7.065   5.015  0.3455  0.2206  0.6122
  200MOL0     N26318   2.542   7.367   4.910 -0.9634  0.2579 -0.0083
  200MOL0     N26319   2.577   7.430   4.803 -0.4008  0.0750 -0.1585
  200MOL0     C26320   3.723   7.656   4.168 -0.3304  0.1349 -0.2154
  200MOL0     C26321   3.849   7.612   4.198 -0.0820 -0.0654 -0.6887
  200MOL0     C26322   4.206   7.358   4.324 -0.8950 -0.3789 -0.1007
  200MOL0     C26323   4.253   7.486   4.374 -0.5233  0.2564 -0.6857
  200MOL0     C26324   4.381   7.502   4.426 -0.5917 -0.2157 -1.2584
  200MOL0     C26325   4.458   7.394   4.438 -0.2378 -0.1058  0.4273
  200MOL0     O26326   4.590   7.413   4.496  0.4182  0.2088  0.5543
  200MOL0     C26327   4.697   7.343   4.430 -0.0643 -0.3417 -0.0792
  200MOL0     C26328   4.802   7.327   4.542  0.1775  0.2693 -1.1815
  200MOL0     C26329   4.858   7.459   4.602  0.0515 -0.4852  0.1048
  200MOL0     C26330   4.913   7.553   4.494 -0.0205  0.1053 -0.9622
  200MOL0     C26331   5.039   7.509   4.430  0.1281  0.4094 -0.0478
  200MOL0     C26332   5.118   7.454   4.362  0.3596  0.4051  0.3748
  200MOL0     C26333   4.414   7.259   4.405  0.1646  0.0456 -0.2944
  200MOL0     C26334   4.289   7.244   4.352  0.4110 -0.7055 -0.1374
  200MOL0     H26335   3.797   7.302   4.316  1.1123  0.3255  0.3914
  200MOL0     H26336   3.557   7.378   4.276  1.3598 -0.7383 -0.1489
  200MOL0     H26337   3.415   7.546   4.362  1.5801  0.3526 -0.3136
  200MOL0     H26338   3.328   7.526   4.209 -0.7938 -1.0503  1.7078
  200MOL0     H26339   3.234   7.749   4.221  1.4216 -1.0071 -1.2454
  200MOL0     H26340   3.329   7.791   4.357  2.4870 -0.9176 -0.0893
  200MOL0     H26341   3.234   7.610   4.502  0.1700 -2.0224  0.2461
  200MOL0     H26342   3.136   7.548   4.362 -1.6781 -0.9872  2.8803
  200MOL0     H26343   3.134   7.830   4.462  0.4453 -1.5304  0.5273
  200MOL0     H26344   3.014   7.761   4.347  0.3362 -0.0464  0.0837
  200MOL0     H26345   2.910   7.795   4.560 -0.7170  0.7378 -1.6740
  200MOL0     H26346   3.037   7.687   4.637 -0.3720 -0.2235  0.1391
  200MOL0     H26347   2.951   7.501   4.479 -0.6647 -0.6296 -0.9403
  200MOL0     H26348   2.828   7.615   4.437  2.0384  0.0399 -0.9295
  200MOL0     H26349   2.907   7.517   4.721 -0.5210 -0.3304  0.1301
  200MOL0     H26350   2.762   7.611   4.685 -2.2673 -2.6188 -0.4416
  200MOL0     H26351   2.798   7.334   4.566  0.9101  1.3219 -1.3851
  200MOL0     H26352   2.664   7.435   4.539  0.6099  0.2001 -0.6995
  200MOL0     H26353   2.768   7.163   4.768 -2.9403 -1.7724  0.3558
  200MOL0     H26354   2.598   7.179   5.111 -1.1028  1.0216 -0.3881
  200MOL0     H26355   2.653   7.059   4.993  1.7878  0.7785  2.5503
  200MOL0     H26356   2.447   7.049   4.883  3.5673 -3.6849  0.4132
  200MOL0     H26357   2.376   7.170   4.991 -0.4705 -0.6909 -0.5117
  200MOL0     H26358   2.489   6.895   5.081 -0.3260  0.1336 -2.0244
  200MOL0     H26359   2.414   7.022   5.188 -2.5394  2.7224 -1.0294
  200MOL0     H26360   2.262   6.829   5.134  0.3352 -0.5285 -1.0340
  200MOL0     H26361   2.297   6.856   4.969 -1.1161 -3.0301  1.6664
  200MOL0     H26362   2.107   6.776   4.932 -0.0527  0.2748 -1.6711
  200MOL0     H26363   1.871   6.714   4.893 -0.6746  0.6549 -0.1719
  200MOL0     H26364   1.319   7.046   4.999  3.9354  0.7353 -0.1244
  200MOL0     H26365   1.090   6.978   4.906  1.5656 -1.2053  2.6476
  200MOL0     H26366   0.943   7.013   4.731 -1.3101 -0.2342 -0.1296
  200MOL0     H26367   0.917   6.853   4.799  1.3431  0.5778  0.5592
  200MOL0     H26368   0.837   6.988   4.548 -1.1156  0.5583  1.5227
  200MOL0     H26369   0.727   6.917   4.658 -1.1007  3.3291 -1.4426
  200MOL0     H26370   0.821   6.687   4.596 -0.1156 -2.2680 -2.7061
  200MOL0     H26371   0.902   6.775   4.470  0.9372  0.9863  0.9420
  200MOL0     H26372   0.709   6.836   4.365 -2.0994 -0.2062 -2.1939
  200MOL0     H26373   0.720   6.658   4.385 -1.6421 -0.5467  0.3231
  200MOL0     H26374   0.524   6.846   4.547 -0.5475  1.0976 -1.3441
  200MOL0     H26375   0.550   6.672   4.577  2.6299 -3.4998 -2.6508
  200MOL0     H26376   0.472   6.636   4.349 -1.0127 -1.0536  1.6173
  200MOL0     H26377   0.475   6.813   4.319  2.8012  0.0267  0.8937
  200MOL0     H26378   0.289   6.683   4.529  5.0962 -0.8610  0.4264
  200MOL0     H26379   0.284   6.850   4.450  0.0718  0.0446  0.4475
  200MOL0     H26380   0.230   6.592   4.321  1.8592  0.7554 -2.0115
  200MOL0     H26381   0.218   6.762   4.257 -1.3898 -0.7688 -1.6319
  200MOL0     H26382   1.308   6.812   4.562  1.9410 -1.5074  1.4731
  200MOL0     H26383   1.510   6.842   4.678  0.6939 -0.4849  1.7228
  200MOL0     H26384   1.749   7.124   4.987  1.5326  0.5611  1.3712
  200MOL0     H26385   1.987   7.161   5.055  1.0340 -0.6714  2.3229
  200MOL0     H26386   3.715   7.755   4.125  1.2242  1.7137  2.8080
  200MOL0     H26387   3.937   7.674   4.183  2.4260 -2.5522  2.4035
  200MOL0     H26388   4.188   7.572   4.365  0.5864  1.2541  0.4091
  200MOL0     H26389   4.415   7.599   4.460 -0.7091 -0.2394 -1.0752
  200MOL0     H26390   4.744   7.401   4.350  1.2928  0.1110  0.9962
  200MOL0     H26391   4.671   7.252   4.375  0.8782  0.1002 -1.3051
  200MOL0     H26392   4.757   7.283   4.632 -3.3536  2.0122 -1.9265
  200MOL0     H26393   4.878   7.265   4.494 -0.2463  0.9121 -2.7474
  200MOL0     H26394   4.927   7.442   4.685 -0.5535  3.6158  1.6898
  200MOL0     H26395   4.776   7.511   4.651 -1.0945 -1.3200 -0.8557
  200MOL0     H26396   4.831   7.568   4.424 -0.5551  0.1060 -0.3498
  200MOL0     H26397   4.935   7.649   4.542  3.0490 -0.7486 -0.3963
  200MOL0     H26398   5.192   7.398   4.307 -0.7443 -1.0567  0.3151
  200MOL0     H26399   4.478   7.173   4.418  1.2691  1.0944  1.6440
  200MOL0     H26400   4.241   7.150   4.329  0.9704 -0.9256 -0.4226
  201MOL0     O26401  10.427   6.604   3.441  0.1268 -0.5171 -0.0025
  201MOL0     C26402  10.437   6.657   3.328 -0.3760 -0.3904 -0.7259
  201MOL0     O26403  10.343   6.716   3.252 -0.2597  1.0585  0.7291
  201MOL0     C26404  10.213   6.749   3.294  0.0717  0.5787  0.0911
  201MOL0     C26405  10.127   6.773   3.184  0.7777 -0.0768 -0.2011
  201MOL0     C26406   9.991   6.821   3.209 -0.7611  0.6045  0.1493
  201MOL0     C26407   9.940   6.823   3.343  0.2442  1.1127  0.2464
  201MOL0     O26408   9.806   6.855   3.347  0.4792  0.3080 -0.4908
  201MOL0     C26409   9.738   6.847   3.477  0.3480  0.6470  0.4330
  201MOL0     C26410   9.609   6.922   3.454  1.2232 -0.1113 -0.1608
  201MOL0     C26411   9.500   6.894   3.560 -0.2855  0.3242 -0.0953
  201MOL0     C26412   9.532   6.924   3.708 -0.3246  0.0444  0.3473
  201MOL0     C26413   9.423   6.877   3.802 -0.1523 -0.4398  0.1848
  201MOL0     C26414   9.313   6.993   3.797 -0.9415 -0.4521  0.1094
  201MOL0     C26415   9.237   7.018   3.924 -0.3646 -0.7038  0.2688
  201MOL0     C26416   9.120   7.115   3.900  1.1214 -0.9039  0.0293
  201MOL0     N26417   9.160   7.253   3.912  0.2596 -0.9146  0.0536
  201MOL0     C26418   9.161   7.321   4.030  0.0443 -0.6602  0.0694
  201MOL0     C26419   9.128   7.452   3.997  0.4167  0.6611  0.0815
  201MOL0     C26420   9.078   7.557   4.092 -0.2328 -1.1159  0.2550
  201MOL0     C26421   8.932   7.541   4.144 -0.4869 -0.4049 -0.1439
  201MOL0     C26422   8.828   7.630   4.086 -0.2823 -0.2447 -0.6362
  201MOL0     C26423   8.813   7.619   3.936  0.3187  0.7099 -0.0875
  201MOL0     O26424   8.742   7.724   3.874  0.6055 -0.5333 -0.2213
  201MOL0     C26425   8.601   7.731   3.878 -0.1120  0.3064 -0.3684
  201MOL0     C26426   8.520   7.640   3.943 -0.0114 -0.1907 -0.3417
  201MOL0     C26427   8.373   7.647   3.924  0.0396  0.1164 -0.1105
  201MOL0     C26428   8.312   7.756   3.861  0.7501 -1.4029 -0.2974
  201MOL0     C26429   8.168   7.752   3.848 -0.3620 -0.5318 -0.4737
  201MOL0     O26430   8.107   7.873   3.813  0.4912  0.6415  0.3292
  201MOL0     C26431   7.968   7.872   3.787 -0.6190  0.0984 -0.2338
  201MOL0     C26432   7.905   7.764   3.719  0.1420  0.2732 -0.2616
  201MOL0     C26433   7.767   7.777   3.695  0.2688  0.0793 -0.1489
  201MOL0     C26434   7.698   7.898   3.739 -0.2210 -0.8068 -0.2096
  201MOL0     O26435   7.563   7.931   3.709 -0.5743 -0.0830  0.3830
  201MOL0     C26436   7.479   7.819   3.672  0.2303 -0.2005 -0.6796
  201MOL0     C26437   7.342   7.870   3.658  0.3649  0.2553  0.5336
  201MOL0     C26438   7.280   7.912   3.796  0.2557  0.3018  0.1539
  201MOL0     C26439   7.122   7.916   3.785  0.9814 -1.3313 -0.2489
  201MOL0     C26440   7.057   8.009   3.894 -0.2072  0.1994  0.3828
  201MOL0     C26441   7.041   7.949   4.035  0.2625  0.0694 -0.4406
  201MOL0     C26442   6.952   8.043   4.117 -0.5150  0.3185  0.2568
  201MOL0     C26443   6.926   7.991   4.259  0.2690  0.0068 -0.9054
  201MOL0    Cl26444   6.889   7.828   4.276 -0.3137 -0.1627 -0.0555
  201MOL0     C26445   7.766   8.010   3.788  0.4383  0.5023  1.1955
  201MOL0     C26446   7.902   7.994   3.815 -0.0584  0.9031 -0.0649
  201MOL0     O26447   8.112   7.647   3.878  0.1283  0.2753  0.2605
  201MOL0     C26448   8.396   7.859   3.804 -0.2563 -0.4603 -0.5768
  201MOL0     C26449   8.537   7.836   3.817 -0.4631 -0.6656  0.5435
  201MOL0     N26450   9.140   7.470   3.863  0.3533  1.0717  0.2067
  201MOL0     N26451   9.155   7.353   3.810  0.1441 -0.0367  0.6737
  201MOL0     C26452  10.025   6.803   3.451 -0.4410 -0.3026  0.5889
  201MOL0     C26453  10.164   6.771   3.424  0.5527 -0.2751  1.2721
  201MOL0     C26454  10.575   6.672   3.270  0.4836  0.3672  1.0978
  201MOL0     C26455  10.592   6.759   3.154 -0.7052 -0.0938 -0.2056
  201MOL0     C26456  10.722   6.787   3.115 -0.0713  0.5639  0.2086
  201MOL0     C26457  10.833   6.721   3.175  0.0697 -0.6042  0.7171
  201MOL0     O26458  10.960   6.749   3.131 -0.0560 -0.3149  0.2845
  201MOL0     C26459  10.974   6.831   3.014 -0.2238  0.0876 -0.5724
  201MOL0     C26460  11.115   6.860   2.994 -0.1965 -0.2248  0.2347
  201MOL0     C26461  11.149   6.895   2.848 -0.0832  0.3109  0.2333
  201MOL0     C26462  11.139   6.783   2.748 -0.7911  0.0852  0.6934
  201MOL0     C26463  11.232   6.685   2.789  0.1737  0.1663  0.8329
  201MOL0     C26464  11.327   6.616   2.820  0.5715 -0.1776 -0.1126
  201MOL0     C26465  10.817   6.635   3.283 -0.1831  0.1561 -1.6354
  201MOL0     C26466  10.686   6.604   3.327 -0.3029  0.3451 -0.4128
  201MOL0     H26467  10.170   6.751   3.086  0.3710 -2.7171  0.1425
  201MOL0     H26468   9.921   6.831   3.126  1.8670  1.2850 -2.1223
  201MOL0     H26469   9.792   6.893   3.560  2.2655  4.3087 -2.5173
  201MOL0     H26470   9.716   6.740   3.487 -0.7992  0.4397 -3.0206
  201MOL0     H26471   9.565   6.905   3.355  0.1517  1.0977  0.0851
  201MOL0     H26472   9.636   7.027   3.460 -1.0772  0.4969  0.9906
  201MOL0     H26473   9.469   6.791   3.540  2.8797 -0.9311  0.7081
  201MOL0     H26474   9.417   6.957   3.528 -1.8683 -0.9683  1.2998
  201MOL0     H26475   9.621   6.872   3.743 -1.4356 -0.8258  2.0301
  201MOL0     H26476   9.560   7.029   3.716  2.0605 -0.3025 -2.0847
  201MOL0     H26477   9.474   6.884   3.898 -1.0063  2.0489  0.5282
  201MOL0     H26478   9.378   6.779   3.782  0.0294 -0.5243  0.1918
  201MOL0     H26479   9.249   6.956   3.716  0.8054 -0.4125 -1.3602
  201MOL0     H26480   9.359   7.084   3.758  0.4038 -1.9023 -1.9341
  201MOL0     H26481   9.199   6.923   3.961 -1.1271 -0.2960  0.5569
  201MOL0     H26482   9.305   7.062   3.997  1.0962  0.1984 -1.5439
  201MOL0     H26483   9.039   7.109   3.973  1.1511  1.7757  0.3795
  201MOL0     H26484   9.085   7.099   3.798  1.7600 -0.2753 -0.3034
  201MOL0     H26485   9.156   7.287   4.132  1.9290 -0.7141  0.1872
  201MOL0     H26486   9.091   7.656   4.047 -0.3409  0.5037  3.4748
  201MOL0     H26487   9.148   7.570   4.175 -0.5557  1.3770  0.2149
  201MOL0     H26488   8.929   7.559   4.252 -2.5306  1.3418 -0.4310
  201MOL0     H26489   8.900   7.438   4.129  4.7236 -2.2512 -0.4255
  201MOL0     H26490   8.735   7.604   4.136  0.4056 -0.1760  0.7227
  201MOL0     H26491   8.846   7.736   4.107  0.8976 -0.9799  2.5791
  201MOL0     H26492   8.775   7.520   3.907 -0.5292  1.1544 -0.5186
  201MOL0     H26493   8.914   7.612   3.896  0.0971  1.1416 -0.7382
  201MOL0     H26494   8.561   7.555   3.997 -1.7986 -0.9316 -0.0757
  201MOL0     H26495   8.311   7.567   3.963  0.0214 -0.2081 -0.7815
  201MOL0     H26496   7.953   7.672   3.689  1.2741  0.2026  1.5451
  201MOL0     H26497   7.720   7.704   3.630  0.1447 -0.2886  0.3503
  201MOL0     H26498   7.489   7.754   3.759  1.8841  0.2121 -0.5279
  201MOL0     H26499   7.514   7.779   3.576  1.2265  2.3861 -1.4896
  201MOL0     H26500   7.276   7.790   3.621  0.1046 -2.7015  6.1843
  201MOL0     H26501   7.336   7.957   3.593 -1.7947 -0.9879 -1.0687
  201MOL0     H26502   7.309   8.015   3.822 -1.1974  0.8036 -0.1067
  201MOL0     H26503   7.316   7.845   3.874  2.4902  1.0853 -0.1356
  201MOL0     H26504   7.093   7.951   3.686  3.0667  0.1312 -0.4177
  201MOL0     H26505   7.077   7.817   3.789 -3.4204  0.4322 -0.9069
  201MOL0     H26506   6.957   8.038   3.859  0.1550 -0.1204 -0.9867
  201MOL0     H26507   7.105   8.106   3.913 -1.2022  0.4838  1.5561
  201MOL0     H26508   7.141   7.939   4.077 -0.2999  1.9695  1.5491
  201MOL0     H26509   7.010   7.844   4.023  1.8794 -0.3684 -1.0209
  201MOL0     H26510   7.000   8.142   4.117 -1.4560  0.8686 -2.5447
  201MOL0     H26511   6.862   8.062   4.058  0.3724  1.5205 -0.7573
  201MOL0     H26512   6.850   8.056   4.302 -0.7871 -1.9364  0.2773
  201MOL0     H26513   7.017   8.010   4.317 -0.4247 -1.2436  0.6599
  201MOL0     H26514   7.723   8.106   3.814 -0.0743  1.2557 -1.9634
  201MOL0     H26515   7.966   8.075   3.848  0.9107  0.8716 -1.7582
  201MOL0     H26516   8.356   7.945   3.751  0.2945 -0.1978 -0.5678
  201MOL0     H26517   8.600   7.907   3.765 -0.0083 -0.8956  0.7775
  201MOL0     H26518   9.984   6.801   3.551 -0.5900 -1.8028  0.5246
  201MOL0     H26519  10.233   6.752   3.506  2.5415  3.4952  0.7361
  201MOL0     H26520  10.510   6.798   3.094  0.5088  2.5379 -0.2539
  201MOL0     H26521  10.731   6.863   3.038  2.4921 -0.8207 -0.9906
  201MOL0     H26522  10.918   6.924   3.026  1.3497  0.9089  0.8963
  201MOL0     H26523  10.934   6.771   2.932  1.7235 -1.0227 -0.7880
  201MOL0     H26524  11.136   6.942   3.063 -0.7655  2.1703 -2.2267
  201MOL0     H26525  11.172   6.770   3.020 -1.5262 -0.7934  1.2525
  201MOL0     H26526  11.255   6.922   2.861 -0.4491  0.9591  2.2744
  201MOL0     H26527  11.085   6.978   2.817 -0.0501  0.1484 -0.2733
  201MOL0     H26528  11.041   6.735   2.737 -1.2822  1.1842  0.1575
  201MOL0     H26529  11.163   6.821   2.649 -4.2557  0.1840 -0.2531
  201MOL0     H26530  11.402   6.548   2.855  0.4572  0.0955  0.6778
  201MOL0     H26531  10.901   6.576   3.319  0.2996  1.8772  0.2768
  201MOL0     H26532  10.668   6.536   3.410  0.6988  0.9714  0.3456
  202MOL0     O26533   9.609   9.927   4.233 -0.2495 -0.7003  0.3673
  202MOL0     C26534   9.650   9.847   4.314 -1.0179  0.7740  0.1100
  202MOL0     O26535   9.571   9.768   4.392 -0.3848 -0.9000 -0.1491
  202MOL0     C26536   9.440   9.763   4.362  0.2809 -0.8267 -0.1831
  202MOL0     C26537   9.391   9.672   4.274  0.1452  0.3610  0.4601
  202MOL0     C26538   9.252   9.674   4.242 -0.6489  0.1551 -0.0799
  202MOL0     C26539   9.167   9.763   4.300  0.5863  0.3166 -0.6076
  202MOL0     O26540   9.030   9.777   4.272  0.7066  0.1297 -0.3829
  202MOL0     C26541   8.953   9.667   4.332 -0.3970  0.7251  0.8676
  202MOL0     C26542   8.824   9.728   4.385 -0.0251 -0.4360  0.1970
  202MOL0     C26543   8.840   9.816   4.513  0.9323  0.5329  0.2960
  202MOL0     C26544   8.695   9.835   4.561 -0.6198 -0.4206 -0.4077
  202MOL0     C26545   8.690   9.950   4.656 -0.5843  0.4135 -0.6260
  202MOL0     C26546   8.549   9.973   4.716 -0.3410 -0.1741  0.3267
  202MOL0     C26547   8.462   9.851   4.756 -0.9883  0.4376 -0.2064
  202MOL0     C26548   8.526   9.757   4.865  0.3011 -0.2300 -0.2659
  202MOL0     N26549   8.446   9.630   4.876 -0.1891 -0.5134 -0.2136
  202MOL0     C26550   8.316   9.610   4.922  0.0662  0.1908 -0.8331
  202MOL0     C26551   8.282   9.489   4.875  0.7306 -0.0676  0.8079
  202MOL0     C26552   8.150   9.422   4.896  0.4181 -0.2195 -0.2213
  202MOL0     C26553   8.029   9.492   4.825 -1.3169  0.4768  0.4032
  202MOL0     C26554   7.891   9.434   4.861  0.2375  0.2065 -0.2037
  202MOL0     C26555   7.821   9.368   4.740 -0.0013  0.3059  0.9274
  202MOL0     O26556   7.695   9.440   4.730 -0.2022  0.1268  0.0580
  202MOL0     C26557   7.585   9.390   4.657  1.0222 -1.1386 -0.7934
  202MOL0     C26558   7.587   9.265   4.589  0.1341 -0.0143 -0.2375
  202MOL0     C26559   7.470   9.203   4.536 -0.5376  0.0858 -0.4530
  202MOL0     C26560   7.352   9.258   4.558  0.7502  0.4697 -0.4387
  202MOL0     C26561   7.224   9.195   4.504  0.2831 -0.0707  0.1032
  202MOL0     O26562   7.118   9.264   4.513 -0.0298  0.6641  0.3672
  202MOL0     C26563   7.002   9.210   4.461  0.2554 -0.1271 -0.4270
  202MOL0     C26564   6.933   9.108   4.528  0.0532 -0.4837 -1.2192
  202MOL0     C26565   6.816   9.059   4.473 -0.2513 -0.5627 -0.4877
  202MOL0     C26566   6.761   9.109   4.354  0.4854 -0.2309  0.0139
  202MOL0     O26567   6.639   9.048   4.308 -0.5587 -0.2983 -0.2587
  202MOL0     C26568   6.569   9.127   4.211 -0.2564  0.1633 -0.4996
  202MOL0     C26569   6.434   9.053   4.188 -0.0237 -0.2135  0.3145
  202MOL0     C26570   6.348   9.057   4.312 -0.2548 -0.0052 -0.1724
  202MOL0     C26571   6.210   9.004   4.291  1.0928 -0.0897  0.4363
  202MOL0     C26572   6.119   9.095   4.202 -0.7484 -0.4483  0.4021
  202MOL0     C26573   5.975   9.040   4.189 -0.7815 -0.0788  0.5764
  202MOL0     C26574   5.961   8.936   4.071 -1.6876  0.3980  0.0530
  202MOL0     C26575   5.841   8.853   4.091  0.5530  0.3340 -0.5544
  202MOL0    Cl26576   5.702   8.975   4.087 -0.5590  0.3099  0.6100
  202MOL0     C26577   6.824   9.222   4.286 -0.6877 -0.2416 -0.4817
  202MOL0     C26578   6.946   9.269   4.344 -0.5704 -1.0404 -0.6808
  202MOL0     O26579   7.241   9.084   4.459  0.7551 -0.3230  0.4965
  202MOL0     C26580   7.343   9.385   4.625 -0.4307  1.0945 -0.1195
  202MOL0     C26581   7.459   9.447   4.680 -0.1289 -0.9862  0.0517
  202MOL0     N26582   8.392   9.432   4.812 -0.6774 -0.2253 -0.1607
  202MOL0     N26583   8.496   9.512   4.822  1.0211  0.8080  0.0917
  202MOL0     C26584   9.214   9.844   4.398  0.3685 -0.1124 -0.5874
  202MOL0     C26585   9.351   9.843   4.432  0.1346 -1.2697  0.5019
  202MOL0     C26586   9.802   9.822   4.319  0.2910 -0.2273 -0.0646
  202MOL0     C26587   9.854   9.700   4.357  0.0257  0.2166  0.2790
  202MOL0     C26588   9.995   9.689   4.379  0.2558 -0.1242 -0.4977
  202MOL0     C26589  10.077   9.800   4.352 -0.2076 -0.1074 -0.2370
  202MOL0     O26590  10.219   9.803   4.372  0.9585  0.5928 -0.2705
  202MOL0     C26591  10.290   9.680   4.357  0.3538 -0.3155  0.2014
  202MOL0     C26592  10.288   9.614   4.215 -0.2748  0.7896  0.1862
  202MOL0     C26593  10.331   9.721   4.109 -0.0426  0.1375 -0.8312
  202MOL0     C26594  10.461   9.805   4.125 -0.8011 -0.6737  0.5657
  202MOL0     C26595  10.587   9.725   4.106  0.4710 -0.9487  0.3683
  202MOL0     C26596  10.681   9.661   4.077  0.1118 -0.8642 -0.5451
  202MOL0     C26597  10.027   9.919   4.312  0.4280 -0.3755 -0.2931
  202MOL0     C26598   9.889   9.932   4.294  0.5718 -0.2138  0.0110
  202MOL0     H26599   9.458   9.594   4.241  2.5178  1.3736  2.5848
  202MOL0     H26600   9.216   9.610   4.162 -0.2053  0.7509 -0.7736
  202MOL0     H26601   9.004   9.606   4.407  0.6768  2.8993  1.9918
  202MOL0     H26602   8.925   9.603   4.248 -1.3024  0.1324  1.6021
  202MOL0     H26603   8.760   9.641   4.405  1.5304 -1.5427  0.5469
  202MOL0     H26604   8.779   9.778   4.298 -0.6619 -0.9030  0.2494
  202MOL0     H26605   8.889   9.911   4.492  1.7370  0.0200 -0.2082
  202MOL0     H26606   8.894   9.764   4.593  1.6249 -0.4394 -0.7704
  202MOL0     H26607   8.632   9.854   4.473 -0.9659 -0.1162 -0.1018
  202MOL0     H26608   8.655   9.743   4.604 -1.7996  0.9391  1.5413
  202MOL0     H26609   8.726  10.038   4.602 -1.3867  0.7674 -0.5956
  202MOL0     H26610   8.763   9.927   4.735 -2.6737  0.9136  1.5705
  202MOL0     H26611   8.494  10.033   4.644 -0.8465  0.9759  1.6109
  202MOL0     H26612   8.559  10.029   4.810 -1.3688  1.4899 -0.5257
  202MOL0     H26613   8.362   9.886   4.783 -1.7624 -0.3274 -1.9368
  202MOL0     H26614   8.434   9.789   4.670 -2.0165 -0.7397  0.9268
  202MOL0     H26615   8.516   9.801   4.965 -1.4633  0.5108 -0.7123
  202MOL0     H26616   8.629   9.733   4.837  0.2360  0.2748 -0.9756
  202MOL0     H26617   8.247   9.674   4.976  1.3386 -0.5492  1.8662
  202MOL0     H26618   8.125   9.411   5.002 -1.7293 -0.8619 -0.7499
  202MOL0     H26619   8.156   9.325   4.846 -2.5017  0.1461 -1.4738
  202MOL0     H26620   8.049   9.482   4.718  0.3872  1.3389  0.5986
  202MOL0     H26621   8.033   9.599   4.848 -0.7547  1.3371 -3.1561
  202MOL0     H26622   7.901   9.363   4.942 -0.2583  0.1752 -0.1639
  202MOL0     H26623   7.832   9.517   4.900  2.8957  3.6728 -2.8297
  202MOL0     H26624   7.804   9.262   4.763  1.2885 -0.2380 -0.4728
  202MOL0     H26625   7.886   9.367   4.652 -0.2175 -2.4908  0.6915
  202MOL0     H26626   7.688   9.230   4.574  0.3684  0.9650 -1.0848
  202MOL0     H26627   7.480   9.108   4.484  0.3852 -0.2680  0.3420
  202MOL0     H26628   6.980   9.066   4.615 -1.4779 -1.6484 -0.9094
  202MOL0     H26629   6.769   8.977   4.525  0.2660 -0.5029  0.0845
  202MOL0     H26630   6.624   9.132   4.117  1.0462  0.7531  0.2674
  202MOL0     H26631   6.534   9.224   4.248 -1.6191 -0.5995  0.3172
  202MOL0     H26632   6.450   8.948   4.160 -1.8402 -0.5335  0.3387
  202MOL0     H26633   6.373   9.105   4.114 -1.2452  1.2631  2.2505
  202MOL0     H26634   6.345   9.158   4.354  1.3320  0.4288 -1.0177
  202MOL0     H26635   6.399   8.989   4.380  0.7319 -0.1300 -1.0015
  202MOL0     H26636   6.204   8.903   4.248 -2.5355 -0.7764  2.2013
  202MOL0     H26637   6.172   8.988   4.392  2.0761 -1.5919  0.5915
  202MOL0     H26638   6.165   9.123   4.106 -0.1876  0.4381  0.9176
  202MOL0     H26639   6.107   9.186   4.262 -0.7493  0.6746 -1.2306
  202MOL0     H26640   5.921   9.123   4.142 -0.5842 -1.5187 -2.3899
  202MOL0     H26641   5.931   9.012   4.286 -0.1065  1.1235  1.2577
  202MOL0     H26642   5.955   8.982   3.972  2.8972 -1.5696 -1.4206
  202MOL0     H26643   6.055   8.880   4.063 -2.7213 -1.1317 -2.9605
  202MOL0     H26644   5.857   8.793   4.181  2.1875  0.8749 -0.4603
  202MOL0     H26645   5.823   8.782   4.010  0.9120 -0.7651  0.2982
  202MOL0     H26646   6.773   9.274   4.206 -1.3949 -1.3272 -0.7634
  202MOL0     H26647   6.996   9.353   4.296 -0.1037 -0.1029  1.3227
  202MOL0     H26648   7.243   9.419   4.648 -0.0196  4.2305 -2.3671
  202MOL0     H26649   7.441   9.543   4.729 -2.0407 -0.5608 -1.3485
  202MOL0     H26650   9.151   9.915   4.451  0.0174 -0.5286 -0.4371
  202MOL0     H26651   9.396   9.905   4.509 -0.5223 -1.8900  1.4123
  202MOL0     H26652   9.799   9.607   4.359  0.8342 -0.2579  0.9705
  202MOL0     H26653  10.036   9.590   4.399  0.1589  0.0532  0.6841
  202MOL0     H26654  10.264   9.620   4.446  0.8936  1.1696  1.4044
  202MOL0     H26655  10.392   9.710   4.381 -0.8110  2.3472  2.4191
  202MOL0     H26656  10.370   9.542   4.226  1.0011  2.4618  2.8737
  202MOL0     H26657  10.195   9.565   4.187  0.7558  0.4353 -2.9679
  202MOL0     H26658  10.252   9.797   4.103 -1.6991 -1.2364  1.6778
  202MOL0     H26659  10.333   9.674   4.010  0.2356 -0.5648 -0.4974
  202MOL0     H26660  10.475   9.877   4.044 -0.8182 -2.0053 -0.6729
  202MOL0     H26661  10.465   9.846   4.226  1.1274  0.3982  0.1029
  202MOL0     H26662  10.766   9.602   4.051  0.2770 -0.7402 -0.2880
  202MOL0     H26663  10.094  10.000   4.287  0.1662 -0.2209 -0.4952
  202MOL0     H26664   9.841  10.018   4.249  0.5078  0.2289  0.9053
  203MOL0     O26665   8.564  10.062   5.608 -0.7246  0.0615 -0.0321
  203MOL0     C26666   8.629   9.960   5.576  0.4733 -0.3186 -0.6214
  203MOL0     O26667   8.578   9.837   5.572  0.4336  0.3718  1.0164
  203MOL0     C26668   8.452   9.801   5.602  0.3015 -0.3578  0.2914
  203MOL0     C26669   8.430   9.669   5.572  0.4835 -0.0330  0.1415
  203MOL0     C26670   8.308   9.606   5.602 -0.1680 -0.0451  0.0540
  203MOL0     C26671   8.213   9.665   5.671 -0.1081  0.4698 -1.3815
  203MOL0     O26672   8.093   9.607   5.691  0.0547  0.5098 -0.2077
  203MOL0     C26673   8.018   9.655   5.799 -0.3549  0.0275 -0.3148
  203MOL0     C26674   7.912   9.560   5.842 -0.3723 -0.6776 -0.9392
  203MOL0     C26675   7.806   9.536   5.735 -1.4851  0.0161 -0.4582
  203MOL0     C26676   7.691   9.446   5.789 -0.4197  0.0496  0.3133
  203MOL0     C26677   7.607   9.390   5.673 -0.3764 -0.5163 -0.3482
  203MOL0     C26678   7.497   9.305   5.718 -0.1439  0.3054 -0.1304
  203MOL0     C26679   7.433   9.251   5.586 -0.2753  0.6692  0.0635
  203MOL0     C26680   7.335   9.131   5.614  0.6893  0.5791 -0.4307
  203MOL0     N26681   7.251   9.089   5.502 -0.2066  0.3551  0.2666
  203MOL0     C26682   7.126   9.145   5.469 -0.4628 -0.8982 -0.0917
  203MOL0     C26683   7.080   9.063   5.376  0.1459 -0.2638  0.3572
  203MOL0     C26684   6.944   9.083   5.307 -0.3124 -0.4609 -0.7378
  203MOL0     C26685   6.855   8.959   5.312 -0.3100 -0.1415  0.5534
  203MOL0     C26686   6.709   8.996   5.283  0.3642 -0.0867  0.4728
  203MOL0     C26687   6.596   8.889   5.295  0.5462  0.5341 -0.3568
  203MOL0     O26688   6.470   8.940   5.249  0.8951  0.3458  0.6909
  203MOL0     C26689   6.363   8.849   5.247 -0.3415 -0.0547  0.7151
  203MOL0     C26690   6.362   8.721   5.305 -0.5868  0.5262  0.7562
  203MOL0     C26691   6.261   8.635   5.296 -0.4974  0.7661 -0.3329
  203MOL0     C26692   6.140   8.681   5.242 -0.0146  0.1239 -0.9826
  203MOL0     C26693   6.026   8.592   5.231  0.1864  0.5554  0.0129
  203MOL0     O26694   6.052   8.461   5.262 -0.4313 -0.6200  0.2090
  203MOL0     C26695   5.973   8.355   5.246  0.4137  0.2880 -0.7484
  203MOL0     C26696   5.832   8.353   5.238  0.4454 -0.3533  0.1737
  203MOL0     C26697   5.755   8.240   5.224 -0.2143 -0.6444  0.4752
  203MOL0     C26698   5.819   8.121   5.212  0.8655  0.0313 -0.3951
  203MOL0     O26699   5.747   7.997   5.199  0.0245  0.1738  0.5040
  203MOL0     C26700   5.816   7.874   5.211 -1.0553 -0.5856 -0.0378
  203MOL0     C26701   5.722   7.753   5.192 -0.1050 -0.4553 -0.6955
  203MOL0     C26702   5.653   7.748   5.048 -0.4070  0.1935 -1.0537
  203MOL0     C26703   5.565   7.622   5.047 -0.1709  0.4332 -0.3293
  203MOL0     C26704   5.431   7.651   4.979  0.6564 -0.0159  0.5947
  203MOL0     C26705   5.341   7.523   4.990 -0.3448 -0.3262  0.1878
  203MOL0     C26706   5.196   7.558   4.945  0.3377 -0.9660 -0.2635
  203MOL0     C26707   5.099   7.461   4.994  0.4978  1.1028  0.7857
  203MOL0    Cl26708   4.936   7.535   4.982  0.4618 -0.2957 -0.0517
  203MOL0     C26709   5.955   8.119   5.241 -0.2139  0.3629  0.3798
  203MOL0     C26710   6.040   8.230   5.243 -0.5644  0.0020  0.2878
  203MOL0     O26711   5.920   8.635   5.190  0.1435  0.3991 -0.2709
  203MOL0     C26712   6.131   8.811   5.197  0.0759  0.6665  0.1589
  203MOL0     C26713   6.242   8.899   5.201 -0.4071 -0.1383 -0.1765
  203MOL0     N26714   7.174   8.972   5.341 -0.0800 -0.4226  0.1011
  203MOL0     N26715   7.277   8.982   5.422 -0.4483 -0.6079 -0.4672
  203MOL0     C26716   8.237   9.802   5.706  0.0566 -0.4646  0.6010
  203MOL0     C26717   8.355   9.871   5.678  0.9511  0.2755 -0.4353
  203MOL0     C26718   8.769   9.982   5.534  0.5266  0.6121  0.4893
  203MOL0     C26719   8.824   9.882   5.455 -0.3895  0.7261  0.5722
  203MOL0     C26720   8.955   9.896   5.404 -0.5458 -0.7438  0.1225
  203MOL0     C26721   9.028  10.018   5.434  0.0980 -0.2470  0.2363
  203MOL0     O26722   9.156  10.043   5.384 -0.1307  0.2672  0.6194
  203MOL0     C26723   9.240   9.945   5.337  0.4465  0.0766 -0.1958
  203MOL0     C26724   9.381  10.001   5.307  0.0530  0.3310  0.5080
  203MOL0     C26725   9.457   9.901   5.217  0.9091  0.7156  0.2625
  203MOL0     C26726   9.589   9.973   5.189 -0.4967 -0.9374  0.7466
  203MOL0     C26727   9.673   9.908   5.092  0.0573  0.0499  0.6099
  203MOL0     C26728   9.747   9.860   5.010 -0.7897  0.3177  0.1880
  203MOL0     C26729   8.964  10.112   5.505 -0.2693 -0.8220  0.3541
  203MOL0     C26730   8.840  10.097   5.564 -0.0782 -0.9790 -0.3840
  203MOL0     H26731   8.512   9.618   5.522  0.0524  0.5136 -1.1657
  203MOL0     H26732   8.288   9.502   5.576 -2.1520 -0.5045  2.9125
  203MOL0     H26733   7.981   9.757   5.785  0.0663  0.1046 -0.8947
  203MOL0     H26734   8.087   9.672   5.882 -0.4216  0.6075 -0.3715
  203MOL0     H26735   7.855   9.607   5.922  0.7490  0.2954 -0.6760
  203MOL0     H26736   7.953   9.463   5.872 -1.0908 -0.8687 -0.5572
  203MOL0     H26737   7.861   9.496   5.649 -0.8714  0.7080 -0.4003
  203MOL0     H26738   7.757   9.631   5.713  1.6874  1.4503 -2.0823
  203MOL0     H26739   7.720   9.358   5.847 -0.0121  0.2078  0.3569
  203MOL0     H26740   7.630   9.515   5.848  0.8230  0.0838  1.6168
  203MOL0     H26741   7.670   9.329   5.607  0.2495 -0.7467  0.4606
  203MOL0     H26742   7.566   9.472   5.613 -1.7224  0.7021  2.0827
  203MOL0     H26743   7.427   9.375   5.764  2.0639  1.0371  2.3055
  203MOL0     H26744   7.535   9.226   5.784 -1.1500  0.4245  0.6282
  203MOL0     H26745   7.381   9.336   5.541  1.3136  1.6681  0.0261
  203MOL0     H26746   7.504   9.217   5.510 -1.6249 -0.0410 -0.9346
  203MOL0     H26747   7.264   9.160   5.692  1.8675  0.7219  0.6300
  203MOL0     H26748   7.393   9.051   5.661 -1.0926 -0.5038  0.0169
  203MOL0     H26749   7.086   9.239   5.504  2.6676  0.6064 -0.2363
  203MOL0     H26750   6.945   9.132   5.210 -2.1160  3.7184  1.1139
  203MOL0     H26751   6.890   9.158   5.366  1.8603  0.3875  0.2737
  203MOL0     H26752   6.862   8.915   5.412  0.4830 -0.7211  0.2574
  203MOL0     H26753   6.901   8.887   5.244 -0.6615 -2.6474  2.8074
  203MOL0     H26754   6.682   9.076   5.352  0.6437  3.5694 -3.2397
  203MOL0     H26755   6.709   9.040   5.183 -1.0580 -0.7936  0.1251
  203MOL0     H26756   6.592   8.881   5.404 -2.1412  1.0764 -0.3627
  203MOL0     H26757   6.639   8.795   5.257  2.5619  1.3233 -0.1843
  203MOL0     H26758   6.450   8.687   5.358 -0.0946 -0.8690 -0.8639
  203MOL0     H26759   6.272   8.536   5.339  0.9914  1.3174  0.6518
  203MOL0     H26760   5.783   8.450   5.238  3.7641  1.5037 -0.4061
  203MOL0     H26761   5.647   8.247   5.219 -0.3610 -2.8085 -2.8043
  203MOL0     H26762   5.859   7.872   5.311 -2.3016 -0.6222  0.5167
  203MOL0     H26763   5.900   7.869   5.140  0.5054  2.7117  1.3910
  203MOL0     H26764   5.651   7.768   5.274  2.9000  1.4499  1.7945
  203MOL0     H26765   5.772   7.657   5.213 -1.0082 -0.6088  0.9009
  203MOL0     H26766   5.731   7.751   4.971 -1.2949  0.3655 -1.9639
  203MOL0     H26767   5.601   7.843   5.035 -1.7565 -0.2674  0.6805
  203MOL0     H26768   5.613   7.552   4.978  2.8024  1.3055  0.7109
  203MOL0     H26769   5.545   7.583   5.147 -0.0315  1.0783 -0.0462
  203MOL0     H26770   5.439   7.703   4.883 -0.2497 -1.8202 -0.4926
  203MOL0     H26771   5.381   7.715   5.052  0.1249 -0.4376  0.6009
  203MOL0     H26772   5.343   7.509   5.098  0.9376  1.5429  0.4484
  203MOL0     H26773   5.379   7.433   4.940  1.3484  0.4649  0.0118
  203MOL0     H26774   5.164   7.655   4.982 -2.6117 -0.9882 -2.3603
  203MOL0     H26775   5.189   7.567   4.836 -0.1953 -0.1288 -0.1722
  203MOL0     H26776   5.118   7.442   5.100 -0.4149  1.7438  1.0835
  203MOL0     H26777   5.119   7.374   4.932  2.0938  1.3054  0.9722
  203MOL0     H26778   6.014   8.030   5.256  1.7326  0.7407 -3.7347
  203MOL0     H26779   6.147   8.231   5.255 -0.6050 -0.4661  0.7234
  203MOL0     H26780   6.032   8.853   5.181  2.0814  5.5122 -1.4447
  203MOL0     H26781   6.233   8.998   5.156 -3.7322 -0.0258  0.5109
  203MOL0     H26782   8.170   9.862   5.766  0.0095  1.3481 -1.1654
  203MOL0     H26783   8.363   9.975   5.705  0.7617  0.6834 -1.8661
  203MOL0     H26784   8.765   9.797   5.423  0.3004  1.4937 -3.3125
  203MOL0     H26785   8.992   9.824   5.331  2.0335 -0.9732  1.5271
  203MOL0     H26786   9.185   9.918   5.246 -1.2010  1.3100  0.3780
  203MOL0     H26787   9.246   9.867   5.413  1.3327 -1.3789 -1.6905
  203MOL0     H26788   9.367  10.097   5.257 -2.2414 -0.3806 -0.3526
  203MOL0     H26789   9.438  10.011   5.400  2.0082 -1.4242 -0.4279
  203MOL0     H26790   9.399   9.886   5.125  3.0528  1.1273 -1.2326
  203MOL0     H26791   9.475   9.802   5.260 -1.0445  1.8256  4.0726
  203MOL0     H26792   9.566  10.073   5.152 -1.2267 -1.6273 -0.7187
  203MOL0     H26793   9.650   9.975   5.281  0.6742  0.4953 -0.0121
  203MOL0     H26794   9.795   9.804   4.932 -1.6141  1.7968 -1.4506
  203MOL0     H26795   9.010  10.208   5.524 -0.7159 -0.4316 -0.4880
  203MOL0     H26796   8.795  10.167   5.633 -1.2530 -2.5572  0.5251
  204MOL0     O26797   3.358   2.396   3.411 -0.7107 -0.6778  0.7693
  204MOL0     C26798   3.396   2.282   3.413  0.0911  0.2220  0.1013
  204MOL0     O26799   3.350   2.186   3.331  0.0410  0.9847 -0.8829
  204MOL0     C26800   3.249   2.218   3.249 -0.3956 -0.2372 -0.1619
  204MOL0     C26801   3.280   2.258   3.117 -0.0776 -0.7712  0.0389
  204MOL0     C26802   3.188   2.282   3.022  0.7289 -0.0502  0.4561
  204MOL0     C26803   3.051   2.284   3.054  0.7448  0.0780 -0.4418
  204MOL0     O26804   2.948   2.305   2.959  0.6297 -0.2089 -0.1520
  204MOL0     C26805   2.943   2.203   2.861  0.2454  0.1638 -0.4140
  204MOL0     C26806   2.827   2.230   2.769  0.0401  0.2636  0.5115
  204MOL0     C26807   2.690   2.231   2.844 -0.1647 -0.6953 -0.5278
  204MOL0     C26808   2.571   2.269   2.759  0.1948 -0.2987  1.0181
  204MOL0     C26809   2.453   2.343   2.820  0.9334  0.2962 -0.2702
  204MOL0     C26810   2.371   2.253   2.920 -0.1169  0.3488  0.0452
  204MOL0     C26811   2.232   2.306   2.967  0.3417 -0.1110 -0.2295
  204MOL0     C26812   2.147   2.360   2.853  0.3241  0.2181 -0.1581
  204MOL0     N26813   2.008   2.371   2.890 -0.0501  0.1413 -0.0980
  204MOL0     C26814   1.922   2.478   2.894 -0.6390  0.4083  0.4261
  204MOL0     C26815   1.803   2.431   2.929  0.3448 -1.1318 -1.0327
  204MOL0     C26816   1.677   2.522   2.926 -0.2760 -0.5729  0.4215
  204MOL0     C26817   1.546   2.445   2.931 -0.5781 -1.0508 -0.2850
  204MOL0     C26818   1.417   2.527   2.900 -0.2371 -0.3945 -1.2420
  204MOL0     C26819   1.305   2.423   2.914 -0.1051  0.3657 -1.5485
  204MOL0     O26820   1.184   2.499   2.902 -0.3920 -0.3363 -0.2916
  204MOL0     C26821   1.071   2.415   2.927 -0.0706  0.2700  0.3598
  204MOL0     C26822   1.068   2.272   2.936  0.7170 -0.5292  0.0533
  204MOL0     C26823   0.945   2.211   2.967 -0.4009  0.3983  0.0123
  204MOL0     C26824   0.830   2.283   2.983 -0.0299 -0.2095 -0.9207
  204MOL0     C26825   0.699   2.218   3.021 -0.1190  0.7182  0.8319
  204MOL0     O26826   0.592   2.297   3.030  0.1916  0.0366  0.1893
  204MOL0     C26827   0.477   2.250   3.092 -0.1988  0.0513 -0.9772
  204MOL0     C26828   0.440   2.287   3.224  0.1133  0.3739 -0.1126
  204MOL0     C26829   0.315   2.244   3.278  0.0637  0.8091 -0.4503
  204MOL0     C26830   0.227   2.167   3.203 -1.3189  0.8241 -0.0170
  204MOL0     O26831   0.120   2.112   3.264  0.3580  0.1626 -0.4850
  204MOL0     C26832   0.035   2.215   3.334 -0.4364  0.3369 -0.0232
  204MOL0     C26833  -0.072   2.146   3.414  0.6412 -0.2665 -1.0944
  204MOL0     C26834  -0.188   2.108   3.321 -0.7712  0.1004  0.5109
  204MOL0     C26835  -0.299   2.032   3.384  0.4127  0.7829  1.2946
  204MOL0     C26836  -0.422   2.020   3.291 -1.0390 -0.4392  0.2966
  204MOL0     C26837  -0.513   1.913   3.341  0.1453  0.6172 -0.6647
  204MOL0     C26838  -0.587   1.933   3.480 -0.3721 -0.3024  0.5861
  204MOL0     C26839  -0.507   1.880   3.596  0.9492  0.0153 -0.3171
  204MOL0    Cl26840  -0.514   1.705   3.602 -0.1128 -0.2191  0.1236
  204MOL0     C26841   0.268   2.123   3.075 -0.9915  0.3548  0.4184
  204MOL0     C26842   0.390   2.174   3.015 -0.8111 -0.4860  0.1188
  204MOL0     O26843   0.707   2.099   3.048  0.3387 -0.0671  0.4597
  204MOL0     C26844   0.837   2.423   2.980  1.1303  0.1480  0.2595
  204MOL0     C26845   0.956   2.487   2.959 -0.6509  0.0340  0.2880
  204MOL0     N26846   1.809   2.299   2.944 -0.3652 -0.3866  0.1415
  204MOL0     N26847   1.929   2.265   2.925 -0.2057 -0.2083 -0.0038
  204MOL0     C26848   3.014   2.250   3.185  0.5893 -1.1962 -0.0808
  204MOL0     C26849   3.114   2.221   3.280  0.8093  0.5623 -0.4166
  204MOL0     C26850   3.500   2.251   3.517 -0.3291  0.1008  0.1791
  204MOL0     C26851   3.547   2.347   3.609  0.7587  0.2173  0.0411
  204MOL0     C26852   3.645   2.320   3.699 -0.7221 -0.1278  1.3227
  204MOL0     C26853   3.705   2.190   3.704 -1.0550 -0.0668 -0.1441
  204MOL0     O26854   3.798   2.146   3.800 -0.1729 -0.7314 -0.2226
  204MOL0     C26855   3.847   2.235   3.905  0.0895  0.0964 -0.4466
  204MOL0     C26856   3.940   2.159   4.003 -0.2344  0.0423 -0.3621
  204MOL0     C26857   4.091   2.165   3.950 -0.5159  0.2761  0.0480
  204MOL0     C26858   4.181   2.085   4.045 -0.9266  0.5919 -0.0061
  204MOL0     C26859   4.322   2.089   4.000 -0.1305 -0.5012  0.7011
  204MOL0     C26860   4.441   2.090   3.965  0.2616  0.5216  0.2480
  204MOL0     C26861   3.664   2.095   3.609 -0.5290 -0.1322 -0.7648
  204MOL0     C26862   3.564   2.121   3.516  0.0402  0.1354 -0.0632
  204MOL0     H26863   3.384   2.267   3.086 -0.3110  1.6506 -0.2791
  204MOL0     H26864   3.223   2.300   2.921 -0.6758  1.3601  0.1654
  204MOL0     H26865   2.933   2.107   2.913 -0.3903  1.2222  1.5116
  204MOL0     H26866   3.038   2.189   2.810  0.2526 -0.8223 -0.1548
  204MOL0     H26867   2.824   2.167   2.679  0.1773  1.1870 -0.1535
  204MOL0     H26868   2.833   2.331   2.728 -0.3380 -0.1678 -0.6566
  204MOL0     H26869   2.687   2.292   2.935 -4.8757  1.1529 -1.6115
  204MOL0     H26870   2.679   2.130   2.885  1.6604  0.2826  2.6855
  204MOL0     H26871   2.613   2.334   2.681 -2.7216  1.0429  0.4111
  204MOL0     H26872   2.529   2.182   2.710 -0.5388  0.3685  0.4408
  204MOL0     H26873   2.380   2.368   2.743  1.8432  2.3529 -0.5371
  204MOL0     H26874   2.476   2.436   2.873 -1.5114 -0.0700  1.6515
  204MOL0     H26875   2.429   2.237   3.011  1.7294 -1.1061 -1.3195
  204MOL0     H26876   2.352   2.155   2.875 -1.2076  0.1922  0.7832
  204MOL0     H26877   2.180   2.226   3.019 -1.3368  0.9871 -0.1286
  204MOL0     H26878   2.239   2.387   3.041 -2.1309  2.1772 -2.2919
  204MOL0     H26879   2.158   2.293   2.767  1.9902 -0.3967  0.4862
  204MOL0     H26880   2.161   2.465   2.827 -2.2321  0.6494 -0.0244
  204MOL0     H26881   1.952   2.581   2.875 -0.7962  0.3582 -0.0961
  204MOL0     H26882   1.667   2.572   2.829 -0.4994  0.9253  1.1868
  204MOL0     H26883   1.673   2.592   3.010 -1.5383  0.9883 -0.8712
  204MOL0     H26884   1.536   2.407   3.033 -0.1264  0.1546  0.2291
  204MOL0     H26885   1.551   2.360   2.862  0.2585 -1.4691  0.2752
  204MOL0     H26886   1.410   2.598   2.983  0.2853 -0.2798 -1.2911
  204MOL0     H26887   1.423   2.561   2.797  1.4310 -2.6107 -1.9715
  204MOL0     H26888   1.298   2.367   3.008  1.6235  0.0647 -1.5631
  204MOL0     H26889   1.313   2.347   2.835 -0.7293 -2.3722  0.8412
  204MOL0     H26890   1.156   2.213   2.911  0.4365 -0.5079 -1.0573
  204MOL0     H26891   0.938   2.103   2.963 -3.4584  0.5477 -0.4618
  204MOL0     H26892   0.506   2.348   3.285  0.9273 -0.2942 -0.2942
  204MOL0     H26893   0.292   2.262   3.382  0.5715 -0.5844 -0.0789
  204MOL0     H26894  -0.010   2.287   3.265  0.4022  2.8099  1.8593
  204MOL0     H26895   0.101   2.274   3.399  1.1572 -0.4888 -0.8214
  204MOL0     H26896  -0.117   2.213   3.488 -0.3818 -1.6435 -0.4376
  204MOL0     H26897  -0.036   2.061   3.473 -0.3410  0.6588  0.9415
  204MOL0     H26898  -0.143   2.054   3.237 -0.4813  0.7575  0.2336
  204MOL0     H26899  -0.229   2.199   3.275 -1.5166 -2.4805 -4.6633
  204MOL0     H26900  -0.249   1.938   3.408  2.0875  1.8573  2.3235
  204MOL0     H26901  -0.337   2.083   3.473 -1.0389  0.9434  0.6062
  204MOL0     H26902  -0.394   2.003   3.187  1.6815 -1.5780  1.1271
  204MOL0     H26903  -0.473   2.117   3.294 -2.1394 -0.9913 -0.0048
  204MOL0     H26904  -0.470   1.813   3.330 -4.8806 -1.8440 -1.1789
  204MOL0     H26905  -0.591   1.909   3.264  1.7169 -0.9192 -2.2570
  204MOL0     H26906  -0.603   2.041   3.491 -0.1336 -0.4023  2.0270
  204MOL0     H26907  -0.683   1.880   3.482 -0.3357 -0.3978  0.0600
  204MOL0     H26908  -0.551   1.928   3.684  0.0567 -0.3143 -0.5803
  204MOL0     H26909  -0.404   1.917   3.590  0.4113  1.6374 -0.1092
  204MOL0     H26910   0.212   2.049   3.019  2.2658 -0.6650 -1.7939
  204MOL0     H26911   0.423   2.147   2.915 -2.2776 -0.3092 -0.4462
  204MOL0     H26912   0.749   2.485   2.989  1.7754  1.5936 -2.4506
  204MOL0     H26913   0.962   2.595   2.959  2.4112  0.0228  2.8444
  204MOL0     H26914   2.911   2.240   3.217 -0.2205 -0.0002 -2.0791
  204MOL0     H26915   3.092   2.187   3.381 -0.0056  1.7642 -0.1719
  204MOL0     H26916   3.492   2.440   3.617 -0.5766 -0.5150 -0.3927
  204MOL0     H26917   3.671   2.390   3.777  0.4152  0.8861  0.0795
  204MOL0     H26918   3.765   2.255   3.975  0.8029 -0.0335  0.4355
  204MOL0     H26919   3.877   2.331   3.861 -1.5568 -0.1673 -2.3083
  204MOL0     H26920   3.931   2.217   4.095  1.4099 -0.4709  0.1605
  204MOL0     H26921   3.905   2.059   4.027 -0.5379  0.1045 -0.5384
  204MOL0     H26922   4.138   2.263   3.954 -1.6684  0.8110  1.2310
  204MOL0     H26923   4.105   2.124   3.849  0.0463  0.8328 -0.1040
  204MOL0     H26924   4.182   2.122   4.148 -0.8277 -2.8692  1.3366
  204MOL0     H26925   4.140   1.984   4.037 -1.2157  0.8258 -2.2379
  204MOL0     H26926   4.544   2.115   3.950  0.3865  1.7190  2.6142
  204MOL0     H26927   3.711   1.997   3.606 -2.7557 -1.2756 -0.8490
  204MOL0     H26928   3.540   2.052   3.436 -0.3126 -1.0941  1.0750
  205MOL0     O26929   7.156   2.203   8.004  0.1808 -0.7331 -0.2591
  205MOL0     C26930   7.189   2.303   8.070 -0.7514 -0.3332  0.8348
  205MOL0     O26931   7.111   2.391   8.135  0.4212 -0.2983 -0.0002
  205MOL0     C26932   6.980   2.361   8.116  0.0642 -0.8656 -0.4683
  205MOL0     C26933   6.911   2.303   8.225  0.0783  0.5943 -0.7605
  205MOL0     C26934   6.768   2.278   8.216 -0.2847 -0.0470  0.3189
  205MOL0     C26935   6.703   2.306   8.094  0.7574 -0.2838 -0.3392
  205MOL0     O26936   6.567   2.275   8.090 -0.0619 -0.0388 -0.1657
  205MOL0     C26937   6.473   2.381   8.072  0.0416  0.3215  0.5711
  205MOL0     C26938   6.325   2.341   8.116 -0.0450  0.9572  0.1383
  205MOL0     C26939   6.236   2.468   8.127 -0.0838 -0.0061  0.1023
  205MOL0     C26940   6.085   2.439   8.137  0.1086  0.2649 -0.3364
  205MOL0     C26941   6.003   2.568   8.121  0.4414 -0.9109 -0.1122
  205MOL0     C26942   6.045   2.685   8.215 -0.3540 -0.4516 -0.0843
  205MOL0     C26943   5.964   2.818   8.192 -0.5386 -0.2095 -0.0730
  205MOL0     C26944   6.015   2.892   8.065 -1.3019 -0.2498  0.0647
  205MOL0     N26945   5.939   3.013   8.043 -0.3295 -0.3006 -0.5577
  205MOL0     C26946   5.928   3.116   8.135  0.7856 -0.1073 -0.0996
  205MOL0     C26947   5.829   3.195   8.090  0.4651  0.6262  0.0083
  205MOL0     C26948   5.757   3.308   8.164 -0.5294  0.2543 -0.4188
  205MOL0     C26949   5.606   3.272   8.200 -0.6527 -0.3495  1.1838
  205MOL0     C26950   5.537   3.386   8.273  0.1766  0.1405  0.0749
  205MOL0     C26951   5.390   3.369   8.290  0.1255  0.4644  0.0156
  205MOL0     O26952   5.348   3.468   8.386 -0.0202  0.3247  0.5667
  205MOL0     C26953   5.218   3.461   8.432  0.8039  0.1098 -0.6162
  205MOL0     C26954   5.178   3.550   8.535  0.1098 -0.1312 -0.2024
  205MOL0     C26955   5.057   3.545   8.594  0.7846 -0.3948  0.7898
  205MOL0     C26956   4.965   3.442   8.560  0.7939  0.1208  0.2885
  205MOL0     C26957   4.833   3.429   8.628 -0.3458  0.3669  0.2894
  205MOL0     O26958   4.768   3.311   8.604 -0.0751  0.3514  0.1670
  205MOL0     C26959   4.639   3.290   8.653  0.1376 -0.7159 -0.0059
  205MOL0     C26960   4.602   3.170   8.703 -0.1162 -0.1525 -1.3455
  205MOL0     C26961   4.471   3.143   8.741 -0.0731 -0.5739  0.2192
  205MOL0     C26962   4.367   3.234   8.723 -0.0545  0.6515  0.2779
  205MOL0     O26963   4.236   3.199   8.746  0.0653  0.4729 -0.4720
  205MOL0     C26964   4.216   3.098   8.848  0.0439  0.3355 -0.1226
  205MOL0     C26965   4.081   3.131   8.902  0.1373 -0.5734 -0.4909
  205MOL0     C26966   4.005   3.002   8.935 -0.3871 -0.9139 -0.3053
  205MOL0     C26967   3.859   3.041   8.953 -0.4462  0.0309 -0.2690
  205MOL0     C26968   3.781   2.911   8.980  0.3816  0.7047 -0.3012
  205MOL0     C26969   3.634   2.924   8.990  0.2266 -0.0898  0.3920
  205MOL0     C26970   3.571   2.797   9.043  0.9663  0.1745 -0.8021
  205MOL0     C26971   3.420   2.801   9.046 -0.2781  0.3088  0.0966
  205MOL0    Cl26972   3.363   2.851   8.882 -0.0157 -0.1760 -0.2291
  205MOL0     C26973   4.399   3.360   8.674  0.4783 -0.1071 -0.9989
  205MOL0     C26974   4.532   3.386   8.635 -0.6015  0.2080  0.1764
  205MOL0     O26975   4.787   3.526   8.688 -1.0870  0.4553  0.5380
  205MOL0     C26976   4.997   3.367   8.438 -0.1793  0.6187  0.7830
  205MOL0     C26977   5.123   3.372   8.381  0.2323 -0.0240  0.3295
  205MOL0     N26978   5.783   3.130   7.975  0.0252 -0.7063  0.5742
  205MOL0     N26979   5.849   3.021   7.948  0.3884 -0.5761 -0.5299
  205MOL0     C26980   6.773   2.365   7.985  0.7532 -0.4910  0.2362
  205MOL0     C26981   6.910   2.394   7.999 -0.1956  0.0565 -0.3889
  205MOL0     C26982   7.331   2.328   8.078 -0.3615 -0.1444  0.2464
  205MOL0     C26983   7.423   2.228   8.113  0.9729 -0.7974 -0.0275
  205MOL0     C26984   7.556   2.266   8.108  0.3692  0.0701 -0.4047
  205MOL0     C26985   7.596   2.401   8.091 -0.1213 -0.3584 -0.1815
  205MOL0     O26986   7.731   2.424   8.105 -0.2415 -0.2336 -0.5620
  205MOL0     C26987   7.785   2.561   8.122  1.3719 -0.4438  0.4469
  205MOL0     C26988   7.935   2.565   8.116 -0.2036  0.5246  0.4075
  205MOL0     C26989   7.999   2.509   8.239 -0.4984  0.8028 -0.0758
  205MOL0     C26990   8.147   2.539   8.238 -0.4307 -0.6003  0.4630
  205MOL0     C26991   8.180   2.667   8.304 -0.5358  0.1242 -0.6102
  205MOL0     C26992   8.203   2.770   8.353 -0.6022 -0.1938 -0.4442
  205MOL0     C26993   7.501   2.494   8.053 -0.1405  0.2086 -0.2255
  205MOL0     C26994   7.369   2.456   8.051 -0.0208  0.0481  0.9256
  205MOL0     H26995   6.967   2.280   8.315 -0.7384  0.8879 -0.1749
  205MOL0     H26996   6.715   2.238   8.302  0.3771 -0.7764  0.3945
  205MOL0     H26997   6.476   2.426   7.973  0.4614 -0.6087  0.1601
  205MOL0     H26998   6.495   2.458   8.147 -0.4892  0.9600  0.0817
  205MOL0     H26999   6.322   2.294   8.214  0.4949 -0.2176 -0.3922
  205MOL0     H27000   6.273   2.274   8.047 -0.8638  2.9064 -1.2390
  205MOL0     H27001   6.254   2.533   8.041 -0.6656 -1.6285 -1.3140
  205MOL0     H27002   6.274   2.525   8.212 -1.6448 -1.6499  2.0001
  205MOL0     H27003   6.054   2.364   8.064  0.8943  0.3164 -0.7438
  205MOL0     H27004   6.060   2.402   8.236  0.3554  0.0652 -0.3472
  205MOL0     H27005   5.900   2.545   8.152  0.2544 -0.5093 -0.4315
  205MOL0     H27006   6.006   2.602   8.018  1.1693  1.0486  0.5071
  205MOL0     H27007   6.150   2.706   8.191 -0.5448  0.1832 -0.3668
  205MOL0     H27008   6.033   2.656   8.320 -0.2279  2.9720  0.9863
  205MOL0     H27009   5.855   2.803   8.192 -0.5831  0.0277  1.5308
  205MOL0     H27010   5.987   2.869   8.285  0.6518 -2.2616  0.8222
  205MOL0     H27011   6.006   2.827   7.977 -1.9995  1.0033 -0.8244
  205MOL0     H27012   6.121   2.915   8.081 -0.6887 -3.0276  0.5059
  205MOL0     H27013   5.983   3.132   8.227  1.7164 -2.7233 -0.1118
  205MOL0     H27014   5.747   3.394   8.096 -2.2971 -0.1464 -0.6991
  205MOL0     H27015   5.812   3.341   8.253 -0.4180  0.8971 -0.7145
  205MOL0     H27016   5.622   3.186   8.265 -0.9613  0.0296  1.7729
  205MOL0     H27017   5.563   3.251   8.102  1.8609  0.0927 -0.1036
  205MOL0     H27018   5.583   3.400   8.371  1.7061  0.9604 -0.7298
  205MOL0     H27019   5.552   3.475   8.211  1.0708  0.5882  0.9088
  205MOL0     H27020   5.352   3.278   8.338  0.7664  1.4537  2.5692
  205MOL0     H27021   5.336   3.386   8.197 -1.5000 -0.0906  0.8100
  205MOL0     H27022   5.236   3.636   8.569  0.4662 -0.3502 -0.2512
  205MOL0     H27023   5.016   3.616   8.665 -0.1484  0.9480 -1.0418
  205MOL0     H27024   4.687   3.103   8.699 -0.2198 -0.6611  2.2625
  205MOL0     H27025   4.451   3.040   8.771 -2.3309 -0.2632 -0.0886
  205MOL0     H27026   4.296   3.099   8.923  1.1504  1.3887 -1.2776
  205MOL0     H27027   4.211   3.004   8.792 -3.4533  0.7747 -0.7163
  205MOL0     H27028   4.018   3.189   8.834 -2.5545  0.0565  2.3282
  205MOL0     H27029   4.100   3.190   8.992  0.3727 -0.6917 -0.4616
  205MOL0     H27030   4.045   2.955   9.026 -1.5381  0.4408  0.9401
  205MOL0     H27031   4.006   2.932   8.851  0.1387  0.6593 -1.6659
  205MOL0     H27032   3.878   3.113   9.032  3.4466 -0.8701 -0.1834
  205MOL0     H27033   3.810   3.080   8.863 -0.4073  0.0873 -0.2649
  205MOL0     H27034   3.804   2.874   9.080 -0.1096  3.0955  0.7714
  205MOL0     H27035   3.802   2.840   8.899 -0.5661 -0.7452  0.6939
  205MOL0     H27036   3.598   2.955   8.891  2.8964  0.3325 -0.5119
  205MOL0     H27037   3.610   3.004   9.061  0.9966 -0.9283  1.6187
  205MOL0     H27038   3.597   2.710   8.983  0.9380 -0.7945  0.5440
  205MOL0     H27039   3.608   2.764   9.141  1.4691  0.0365 -1.0375
  205MOL0     H27040   3.382   2.875   9.118 -0.6812  0.9403 -0.7447
  205MOL0     H27041   3.374   2.704   9.067 -2.3176  0.9852 -0.9749
  205MOL0     H27042   4.319   3.431   8.657 -1.3242 -2.6772 -4.5360
  205MOL0     H27043   4.544   3.477   8.577 -2.5194 -1.5673 -3.3169
  205MOL0     H27044   4.929   3.294   8.397 -0.1415  2.1405 -2.2675
  205MOL0     H27045   5.144   3.309   8.295  0.0998  1.7968 -1.0894
  205MOL0     H27046   6.726   2.396   7.892  0.4002  1.3264  0.9607
  205MOL0     H27047   6.959   2.435   7.912 -1.9327  0.5966 -1.1690
  205MOL0     H27048   7.391   2.125   8.129 -1.4480  0.1106  1.4887
  205MOL0     H27049   7.623   2.188   8.142 -2.0345 -0.8910  2.5680
  205MOL0     H27050   7.754   2.602   8.218 -1.4488 -0.8784 -0.1914
  205MOL0     H27051   7.746   2.625   8.042  0.6950  0.0792  1.1792
  205MOL0     H27052   7.971   2.518   8.024  1.3705 -1.8423  2.1122
  205MOL0     H27053   7.958   2.671   8.102 -1.2693  0.3379 -4.3830
  205MOL0     H27054   7.983   2.401   8.233 -1.7573  1.0229 -1.5654
  205MOL0     H27055   7.951   2.550   8.328  0.1083 -0.0780  0.6728
  205MOL0     H27056   8.202   2.466   8.298 -0.6995 -1.9710 -0.9201
  205MOL0     H27057   8.201   2.540   8.143 -0.6708  0.8958  0.3145
  205MOL0     H27058   8.222   2.862   8.405 -3.7347 -0.1392  0.8069
  205MOL0     H27059   7.528   2.599   8.042 -0.2151  0.4429  1.5221
  205MOL0     H27060   7.294   2.528   8.021 -1.2432 -1.8094 -0.7219
  206MOL0     O27061  10.058   0.088   2.465  0.6609  0.3275 -0.3758
  206MOL0     C27062  10.154   0.071   2.397 -0.1832 -0.4511  0.4883
  206MOL0     O27063  10.157   0.091   2.256 -0.0090 -0.5981 -0.1646
  206MOL0     C27064  10.034   0.100   2.189 -0.6110  0.0463 -0.4494
  206MOL0     C27065  10.008   0.207   2.108  0.2260 -0.0620  0.6730
  206MOL0     C27066   9.877   0.213   2.044  0.0376 -0.5953 -0.3487
  206MOL0     C27067   9.781   0.117   2.053  0.0727 -0.4851  0.2857
  206MOL0     O27068   9.656   0.134   2.004  0.4696 -0.5314  0.0804
  206MOL0     C27069   9.609   0.273   2.003 -0.1083  0.1637 -0.2871
  206MOL0     C27070   9.457   0.278   1.985  0.2057  0.3888 -0.0928
  206MOL0     C27071   9.418   0.223   1.848 -0.6061 -0.1527  0.5802
  206MOL0     C27072   9.467   0.303   1.729  0.1289  0.4151  0.1123
  206MOL0     C27073   9.401   0.258   1.601  0.0223  0.1763 -0.7069
  206MOL0     C27074   9.452   0.338   1.480 -1.0465 -0.1787 -0.2891
  206MOL0     C27075   9.371   0.327   1.356 -0.3040  0.0260 -0.0324
  206MOL0     C27076   9.273   0.447   1.350  0.0704  0.3024  0.2767
  206MOL0     N27077   9.164   0.435   1.449  0.3527 -0.3482 -0.0457
  206MOL0     C27078   9.071   0.338   1.430 -0.0821  0.1434  0.5916
  206MOL0     C27079   8.957   0.384   1.474 -0.1736 -0.0925  0.1443
  206MOL0     C27080   8.832   0.302   1.469 -0.2110  0.4437  0.1409
  206MOL0     C27081   8.800   0.259   1.327 -0.7870  0.5911 -0.4102
  206MOL0     C27082   8.688   0.147   1.313  0.3075 -0.0219 -0.1666
  206MOL0     C27083   8.549   0.219   1.318 -0.5613 -0.3977 -0.4140
  206MOL0     O27084   8.469   0.163   1.218 -0.4816 -0.2570 -0.1745
  206MOL0     C27085   8.350   0.231   1.187 -0.2235 -0.0560 -0.8195
  206MOL0     C27086   8.309   0.345   1.253  0.1108  0.0673  0.0830
  206MOL0     C27087   8.194   0.415   1.206 -0.1586  0.0551 -0.1949
  206MOL0     C27088   8.114   0.352   1.108 -0.6436 -0.2982  0.5619
  206MOL0     C27089   7.993   0.412   1.047 -0.2696  0.3998 -0.1196
  206MOL0     O27090   7.916   0.336   0.957 -0.2311  0.7293 -0.1304
  206MOL0     C27091   7.830   0.400   0.873  0.8469  0.6317  0.4286
  206MOL0     C27092   7.692   0.371   0.878 -0.2445 -0.2714 -0.4182
  206MOL0     C27093   7.609   0.436   0.791 -0.1360  0.3119 -0.5106
  206MOL0     C27094   7.651   0.531   0.701 -0.3580 -0.5803 -0.5931
  206MOL0     O27095   7.568   0.609   0.623 -0.4382 -0.1075 -0.2416
  206MOL0     C27096   7.461   0.530   0.558  0.5330 -0.4924 -0.6262
  206MOL0     C27097   7.400   0.624   0.453  0.2571 -0.3585  0.2088
  206MOL0     C27098   7.279   0.559   0.374  0.6452  0.2827 -0.3784
  206MOL0     C27099   7.165   0.509   0.464 -0.9838  0.4979  0.0797
  206MOL0     C27100   7.049   0.443   0.389 -0.2837 -1.0056  0.0267
  206MOL0     C27101   6.937   0.414   0.484 -0.1508 -0.2432 -0.3502
  206MOL0     C27102   6.818   0.345   0.416 -0.1417 -0.3171  0.0886
  206MOL0     C27103   6.713   0.323   0.514 -0.9774 -0.2032 -0.7131
  206MOL0    Cl27104   6.589   0.246   0.430  0.2367  0.0836 -0.2362
  206MOL0     C27105   7.788   0.566   0.702 -0.0109  0.1570  0.3627
  206MOL0     C27106   7.879   0.499   0.788  0.6050 -0.4587  0.4967
  206MOL0     O27107   7.968   0.525   1.082 -0.1145 -0.5011  0.5113
  206MOL0     C27108   8.156   0.231   1.050  0.0642 -0.2909  0.2590
  206MOL0     C27109   8.277   0.177   1.083  0.6173  0.0132  0.5052
  206MOL0     N27110   8.979   0.503   1.535 -0.0886 -0.6079 -0.2814
  206MOL0     N27111   9.104   0.542   1.518 -0.4341 -0.2156 -0.3962
  206MOL0     C27112   9.814   0.013   2.132  0.0689  0.5231 -0.4649
  206MOL0     C27113   9.935   0.003   2.197  1.2230  0.0283 -0.2964
  206MOL0     C27114  10.288   0.044   2.462 -0.3508 -0.0938 -0.3581
  206MOL0     C27115  10.301   0.024   2.599  0.4073 -0.2923 -0.5374
  206MOL0     C27116  10.420   0.002   2.662 -0.5957  0.4013  0.7343
  206MOL0     C27117  10.535  -0.025   2.581  1.2666 -0.1447 -0.2720
  206MOL0     O27118  10.651  -0.051   2.650  0.3284 -0.1713 -0.3495
  206MOL0     C27119  10.756   0.047   2.641  0.4299 -0.3445  0.0257
  206MOL0     C27120  10.885  -0.020   2.685 -0.1835 -0.5016  0.3937
  206MOL0     C27121  10.935  -0.141   2.602 -0.3856 -0.9323  0.2119
  206MOL0     C27122  11.025  -0.112   2.482  0.6873 -0.1856 -0.2500
  206MOL0     C27123  10.948  -0.051   2.371 -0.2880 -0.2598  0.6566
  206MOL0     C27124  10.876   0.001   2.283 -0.4107  0.0193 -0.1658
  206MOL0     C27125  10.526  -0.007   2.445 -0.4086  0.2351 -0.3185
  206MOL0     C27126  10.405   0.024   2.378  0.3541 -0.1051  0.7729
  206MOL0     H27127  10.078   0.285   2.081 -1.5869  1.0978 -0.9707
  206MOL0     H27128   9.860   0.294   1.974 -0.8401 -2.0607 -1.9105
  206MOL0     H27129   9.648   0.327   1.916  0.6399  0.2089  0.0729
  206MOL0     H27130   9.636   0.324   2.095  0.1941  2.4950 -1.5922
  206MOL0     H27131   9.422   0.381   1.999 -2.1530 -0.3018 -0.4788
  206MOL0     H27132   9.402   0.219   2.060 -3.2339 -1.9719 -3.9997
  206MOL0     H27133   9.309   0.236   1.848 -0.3995  2.1764  1.8142
  206MOL0     H27134   9.451   0.119   1.841 -0.9275 -0.1371 -1.7376
  206MOL0     H27135   9.441   0.407   1.750 -0.4054  0.1248  0.9856
  206MOL0     H27136   9.575   0.298   1.714  0.3380 -3.7500  1.4575
  206MOL0     H27137   9.293   0.254   1.618 -0.3991  0.2212 -2.9706
  206MOL0     H27138   9.437   0.155   1.587  0.2709  0.4625 -2.4815
  206MOL0     H27139   9.555   0.305   1.461 -0.0422  1.9499  1.0329
  206MOL0     H27140   9.460   0.444   1.508 -0.9668 -0.3527  0.3461
  206MOL0     H27141   9.425   0.326   1.261 -1.9544  1.3370 -1.0394
  206MOL0     H27142   9.313   0.235   1.370 -0.6962  0.3655  0.5998
  206MOL0     H27143   9.224   0.447   1.252  0.7103 -0.7713 -0.0585
  206MOL0     H27144   9.329   0.540   1.365 -0.5051  0.5184  1.1280
  206MOL0     H27145   9.086   0.240   1.385 -2.2306 -0.5254  1.2225
  206MOL0     H27146   8.744   0.348   1.515  1.4060  1.4187  2.3985
  206MOL0     H27147   8.860   0.219   1.535  0.9900 -0.1700 -1.0936
  206MOL0     H27148   8.887   0.213   1.281  1.1012  1.3188  2.2016
  206MOL0     H27149   8.776   0.345   1.264 -0.0569  1.1696  0.0893
  206MOL0     H27150   8.693   0.112   1.209  1.2504 -0.1619 -0.0879
  206MOL0     H27151   8.693   0.066   1.386 -0.6984 -0.2042 -0.2941
  206MOL0     H27152   8.568   0.324   1.295  1.1720 -0.8274 -1.0863
  206MOL0     H27153   8.497   0.208   1.413 -1.3380 -1.6466 -0.9414
  206MOL0     H27154   8.360   0.388   1.339 -1.4458  1.6200  0.2827
  206MOL0     H27155   8.159   0.506   1.254 -0.5909  0.5241 -1.3598
  206MOL0     H27156   7.644   0.313   0.956 -0.8874 -0.9619 -1.3090
  206MOL0     H27157   7.504   0.412   0.804 -0.0953 -1.2763 -2.5547
  206MOL0     H27158   7.383   0.506   0.630 -0.3418  1.3619 -0.8841
  206MOL0     H27159   7.491   0.437   0.509 -0.8647 -1.8895  1.0670
  206MOL0     H27160   7.478   0.650   0.381  0.6727  1.6223  1.2794
  206MOL0     H27161   7.358   0.716   0.496 -2.0981 -1.5324  0.6060
  206MOL0     H27162   7.327   0.496   0.298  0.8560  1.0117 -0.8733
  206MOL0     H27163   7.241   0.641   0.311 -1.2911  0.8616  1.4374
  206MOL0     H27164   7.202   0.440   0.540 -0.2946 -2.0319 -2.3871
  206MOL0     H27165   7.118   0.589   0.522 -2.2403 -0.6659  0.6929
  206MOL0     H27166   7.078   0.342   0.361 -1.8890 -2.2403  2.4211
  206MOL0     H27167   7.012   0.508   0.310  0.7738  3.1167  2.5784
  206MOL0     H27168   6.906   0.504   0.536  1.4507 -1.2426  2.5395
  206MOL0     H27169   6.986   0.340   0.548 -1.9549 -3.4947 -2.4161
  206MOL0     H27170   6.776   0.414   0.342  1.5858 -1.0224 -1.6309
  206MOL0     H27171   6.853   0.254   0.366  0.2525 -0.0492 -0.1320
  206MOL0     H27172   6.673   0.417   0.552 -1.1638 -0.7053  0.3588
  206MOL0     H27173   6.748   0.275   0.606 -0.5204  1.3390 -0.0373
  206MOL0     H27174   7.824   0.641   0.631 -0.0575 -1.9480 -2.0231
  206MOL0     H27175   7.981   0.535   0.800  0.4411 -0.5857  2.5817
  206MOL0     H27176   8.100   0.173   0.978 -1.3216  0.6307  0.5506
  206MOL0     H27177   8.321   0.092   1.032  0.0568 -0.0034  0.0295
  206MOL0     H27178   9.739  -0.062   2.156 -0.6495  1.4955  0.3916
  206MOL0     H27179   9.949  -0.090   2.252  2.4407  1.0200  1.1679
  206MOL0     H27180  10.210   0.045   2.655 -1.0346  1.6655 -3.3942
  206MOL0     H27181  10.435  -0.013   2.769 -1.7028 -0.6100  0.7626
  206MOL0     H27182  10.728   0.128   2.709  0.8493 -2.1511  2.4986
  206MOL0     H27183  10.757   0.091   2.541 -0.4333  1.0041  0.5756
  206MOL0     H27184  10.951   0.067   2.690 -1.9613  1.1201 -2.0990
  206MOL0     H27185  10.879  -0.064   2.784 -0.7188 -1.4375 -0.0442
  206MOL0     H27186  10.855  -0.212   2.579  0.0334 -2.4166  2.9985
  206MOL0     H27187  10.994  -0.200   2.672  0.2587  0.9891  1.3814
  206MOL0     H27188  11.109  -0.044   2.500  0.7462  0.2578 -1.9993
  206MOL0     H27189  11.066  -0.208   2.448 -1.4535 -1.2515  0.0212
  206MOL0     H27190  10.822   0.053   2.207 -0.4919 -2.0259 -1.5931
  206MOL0     H27191  10.620  -0.017   2.392  0.1851  3.8845 -0.1725
  206MOL0     H27192  10.392   0.047   2.273  0.8883  0.6138  0.8607
  207MOL0     O27193  10.491   8.192   4.043 -0.2894  0.6853  0.1915
  207MOL0     C27194  10.542   8.144   3.941  0.5335 -0.3610  0.2692
  207MOL0     O27195  10.484   8.099   3.825 -0.0035 -0.6217 -0.6314
  207MOL0     C27196  10.350   8.104   3.811  0.2315  0.8764  1.0042
  207MOL0     C27197  10.293   8.227   3.766  0.2202  0.5077  0.7018
  207MOL0     C27198  10.151   8.231   3.743  0.3113  0.1797  0.3175
  207MOL0     C27199  10.079   8.108   3.758  0.8150 -0.1687  0.8666
  207MOL0     O27200   9.941   8.087   3.740 -0.1180  0.8560  0.1626
  207MOL0     C27201   9.867   8.193   3.678 -0.2331 -0.3276 -0.4199
  207MOL0     C27202   9.746   8.125   3.622  0.3523 -0.5150 -0.1545
  207MOL0     C27203   9.635   8.211   3.557  0.5107  0.5823  1.0329
  207MOL0     C27204   9.510   8.120   3.522 -0.5101 -0.0207 -0.2258
  207MOL0     C27205   9.413   8.186   3.425 -0.4144 -0.8009  0.3593
  207MOL0     C27206   9.330   8.297   3.499 -0.5741 -0.3938 -0.5766
  207MOL0     C27207   9.188   8.316   3.450  1.0034  0.7268 -0.0867
  207MOL0     C27208   9.110   8.411   3.532  0.1430 -0.1077  0.0711
  207MOL0     N27209   8.985   8.451   3.467 -0.5302 -0.0667  0.3802
  207MOL0     C27210   8.968   8.549   3.376  0.4833  0.3469  0.7233
  207MOL0     C27211   8.838   8.548   3.346 -0.0675  0.0931  0.5666
  207MOL0     C27212   8.766   8.650   3.258 -1.2955 -0.0128 -0.1677
  207MOL0     C27213   8.829   8.785   3.227 -1.0355 -0.0453 -0.1334
  207MOL0     C27214   8.823   8.885   3.344 -0.2986 -0.2918  0.8916
  207MOL0     C27215   8.679   8.953   3.354 -0.5538  0.1972  0.7729
  207MOL0     O27216   8.655   9.029   3.235 -0.2999 -0.5918 -0.0119
  207MOL0     C27217   8.531   9.095   3.236 -0.6041 -0.5360  0.3200
  207MOL0     C27218   8.494   9.152   3.110 -0.3861  0.2372 -0.1822
  207MOL0     C27219   8.379   9.221   3.108  0.3572 -0.3798 -0.3259
  207MOL0     C27220   8.301   9.251   3.222 -0.1055  0.1002 -0.7037
  207MOL0     C27221   8.176   9.328   3.207  0.5497  0.8558  1.0126
  207MOL0     O27222   8.079   9.307   3.293 -0.1056  0.1573 -0.1547
  207MOL0     C27223   7.960   9.365   3.253 -0.8234  0.3549 -0.0468
  207MOL0     C27224   7.917   9.484   3.316  0.4027 -0.6343 -0.6819
  207MOL0     C27225   7.785   9.533   3.287 -0.1519 -1.7304  0.6230
  207MOL0     C27226   7.706   9.472   3.193 -0.0848 -0.8805 -0.1120
  207MOL0     O27227   7.592   9.537   3.164  0.5817  0.6001 -0.1812
  207MOL0     C27228   7.487   9.477   3.098  0.2077 -0.0840 -0.4934
  207MOL0     C27229   7.375   9.577   3.106 -0.2518  0.0193  1.1715
  207MOL0     C27230   7.259   9.518   3.020 -0.3151 -0.4363  0.6218
  207MOL0     C27231   7.165   9.632   2.973  0.5008  0.2763 -0.3388
  207MOL0     C27232   7.081   9.585   2.857 -0.6336  0.5304  0.3453
  207MOL0     C27233   6.950   9.677   2.845  0.4042  0.2952  0.2761
  207MOL0     C27234   6.871   9.626   2.723  0.4159 -0.7313  0.2036
  207MOL0     C27235   6.778   9.734   2.671 -0.0122  0.2224  0.0379
  207MOL0    Cl27236   6.669   9.678   2.536 -0.0414  0.2947  0.4267
  207MOL0     C27237   7.750   9.350   3.132 -0.8473 -0.9433 -0.0336
  207MOL0     C27238   7.876   9.298   3.167  0.3959 -0.8249  0.2432
  207MOL0     O27239   8.159   9.391   3.102 -0.0368 -0.1995  0.8160
  207MOL0     C27240   8.333   9.195   3.345  0.2011  0.0172  0.4811
  207MOL0     C27241   8.443   9.108   3.345 -0.5818 -1.0904 -1.6435
  207MOL0     N27242   8.777   8.451   3.412  0.3090  0.3624  0.1154
  207MOL0     N27243   8.865   8.390   3.481  0.0619 -0.1542 -0.1920
  207MOL0     C27244  10.139   7.994   3.814 -0.3866 -0.2359  0.1154
  207MOL0     C27245  10.277   7.989   3.842  0.6704  0.3877 -0.3334
  207MOL0     C27246  10.691   8.161   3.931  0.2231  0.8979 -1.0823
  207MOL0     C27247  10.764   8.165   4.055  0.2704 -0.7635 -0.4184
  207MOL0     C27248  10.904   8.195   4.050 -1.0820 -0.3286 -0.5172
  207MOL0     C27249  10.972   8.206   3.927 -1.7176  0.2582  0.3712
  207MOL0     O27250  11.112   8.219   3.930 -0.3317 -0.3294  0.2244
  207MOL0     C27251  11.184   8.246   3.807  0.2467  0.0046  0.3733
  207MOL0     C27252  11.325   8.286   3.837 -0.0979  0.1060  0.9445
  207MOL0     C27253  11.411   8.277   3.707  0.3744 -0.4882 -0.2096
  207MOL0     C27254  11.558   8.296   3.731  0.1866  0.2860  0.0583
  207MOL0     C27255  11.594   8.433   3.763 -0.0962 -0.1285  0.9178
  207MOL0     C27256  11.626   8.547   3.780 -0.2411  0.4924 -0.0233
  207MOL0     C27257  10.901   8.179   3.807  0.0187  0.8520  0.2659
  207MOL0     C27258  10.758   8.153   3.809  0.1004  0.1498  0.3593
  207MOL0     H27259  10.349   8.318   3.746 -0.2412  0.5244 -0.6090
  207MOL0     H27260  10.089   8.317   3.723 -1.0186 -0.9272 -0.5317
  207MOL0     H27261   9.925   8.230   3.593 -0.2793  0.3596 -0.1616
  207MOL0     H27262   9.824   8.271   3.741 -1.0237 -1.2436  0.2159
  207MOL0     H27263   9.692   8.080   3.706  0.4820  0.3256  0.3936
  207MOL0     H27264   9.776   8.051   3.547 -2.3440 -0.5770 -1.2671
  207MOL0     H27265   9.675   8.258   3.467  0.2156 -0.4954  0.3154
  207MOL0     H27266   9.597   8.290   3.623  0.4391  0.1072  1.5694
  207MOL0     H27267   9.546   8.023   3.486 -0.4898 -0.5132  1.0674
  207MOL0     H27268   9.448   8.102   3.611  0.0382  1.7796  0.5680
  207MOL0     H27269   9.343   8.108   3.393  0.0469 -0.8772 -0.4942
  207MOL0     H27270   9.454   8.230   3.333  2.5050 -1.9583  0.9865
  207MOL0     H27271   9.385   8.391   3.485  0.8789 -0.3863  3.6905
  207MOL0     H27272   9.330   8.275   3.606 -0.9452  0.3095 -0.4224
  207MOL0     H27273   9.201   8.361   3.351  3.8569 -0.3536 -0.2966
  207MOL0     H27274   9.144   8.219   3.429  3.4094 -0.0349 -2.1786
  207MOL0     H27275   9.166   8.495   3.573 -1.4805  0.1707  1.8605
  207MOL0     H27276   9.080   8.362   3.625 -1.9083  0.4444 -0.2483
  207MOL0     H27277   9.045   8.620   3.345 -0.1025  1.0739  0.8981
  207MOL0     H27278   8.665   8.670   3.296 -0.2764  2.2852  1.6027
  207MOL0     H27279   8.751   8.597   3.164  0.2874  0.5680 -0.7632
  207MOL0     H27280   8.785   8.825   3.135  0.1709 -0.6345 -0.9935
  207MOL0     H27281   8.930   8.770   3.188 -0.4725  1.2933  0.7264
  207MOL0     H27282   8.851   8.835   3.438  1.1539 -3.3071 -0.9633
  207MOL0     H27283   8.899   8.961   3.324  0.7387 -1.8185 -1.3787
  207MOL0     H27284   8.687   9.011   3.446  0.0615 -1.8987  2.1168
  207MOL0     H27285   8.600   8.878   3.364  0.5785 -0.9282  1.5620
  207MOL0     H27286   8.552   9.130   3.021 -1.1949 -2.2389 -0.1634
  207MOL0     H27287   8.346   9.263   3.013  0.2929  1.0101  0.2902
  207MOL0     H27288   7.974   9.535   3.394 -4.1148 -0.7951  3.2236
  207MOL0     H27289   7.735   9.621   3.325  2.2460 -0.3205  0.7727
  207MOL0     H27290   7.462   9.382   3.146 -0.7810 -0.1656 -1.1391
  207MOL0     H27291   7.510   9.440   2.997 -2.4207 -2.8529 -0.2322
  207MOL0     H27292   7.413   9.669   3.059  1.1741 -2.0824 -2.1391
  207MOL0     H27293   7.350   9.602   3.210  2.0609  0.5299  1.6747
  207MOL0     H27294   7.193   9.449   3.072 -3.0196  1.5102 -0.0061
  207MOL0     H27295   7.299   9.472   2.929 -1.9665 -1.1571  0.2326
  207MOL0     H27296   7.098   9.658   3.056  0.2483 -0.5135 -0.2858
  207MOL0     H27297   7.210   9.730   2.956 -2.1827  2.2255  2.5288
  207MOL0     H27298   7.037   9.490   2.888 -2.0237  0.9948 -0.0893
  207MOL0     H27299   7.140   9.579   2.765 -0.4256  1.2658  0.4205
  207MOL0     H27300   6.967   9.782   2.818 -2.9071  1.1310  0.9755
  207MOL0     H27301   6.885   9.676   2.933  0.6346  2.5238  0.5236
  207MOL0     H27302   6.937   9.605   2.639  1.6552  1.7996  0.4548
  207MOL0     H27303   6.817   9.534   2.747  0.2109 -0.5436  0.4733
  207MOL0     H27304   6.827   9.825   2.636  0.1843  0.3392  0.5977
  207MOL0     H27305   6.711   9.760   2.753 -0.0910 -1.9810  0.7384
  207MOL0     H27306   7.685   9.290   3.069 -3.1633  0.9309  0.4528
  207MOL0     H27307   7.908   9.200   3.132 -1.5630 -0.4358 -2.9843
  207MOL0     H27308   8.267   9.212   3.430 -0.9974 -2.9012  0.2353
  207MOL0     H27309   8.472   9.067   3.441  3.4065  3.5047 -0.4406
  207MOL0     H27310  10.074   7.909   3.830 -0.6555  0.4306  3.3597
  207MOL0     H27311  10.324   7.898   3.879 -2.9829 -1.0700  1.2668
  207MOL0     H27312  10.716   8.168   4.152  2.4287  1.6398  0.6835
  207MOL0     H27313  10.964   8.197   4.141  0.9979  0.8432 -1.8374
  207MOL0     H27314  11.128   8.326   3.758 -1.5262 -2.1717 -1.3733
  207MOL0     H27315  11.182   8.159   3.741 -1.2020  0.2044  0.1098
  207MOL0     H27316  11.335   8.392   3.862  0.4415  0.5977 -1.1826
  207MOL0     H27317  11.368   8.223   3.915  0.6715  0.4504  0.8107
  207MOL0     H27318  11.391   8.354   3.632 -0.9901 -1.0939 -0.5071
  207MOL0     H27319  11.406   8.179   3.659  1.2104 -1.3147  1.2890
  207MOL0     H27320  11.579   8.238   3.821 -1.1660  0.2883  0.3911
  207MOL0     H27321  11.624   8.261   3.651 -0.5512 -1.8051  0.3210
  207MOL0     H27322  11.674   8.642   3.791  0.8301 -0.2489  2.6638
  207MOL0     H27323  10.946   8.187   3.709 -0.1875 -1.9186 -0.1138
  207MOL0     H27324  10.705   8.135   3.716 -0.0126 -1.4113  0.6915
  208MOL0     O27325   1.442   6.390   0.814 -0.3098  0.1942 -0.3430
  208MOL0     C27326   1.499   6.470   0.886 -0.1525 -0.8438  0.7482
  208MOL0     O27327   1.432   6.548   0.979 -0.2900 -0.0601 -0.0511
  208MOL0     C27328   1.299   6.542   1.010  0.5261  1.1748  0.3966
  208MOL0     C27329   1.219   6.425   0.996 -0.3171  0.8552  0.6405
  208MOL0     C27330   1.082   6.426   1.028  0.3844 -0.2217 -0.2003
  208MOL0     C27331   1.020   6.548   1.075 -0.2930  0.4050 -0.1311
  208MOL0     O27332   0.889   6.557   1.111  0.4482 -0.3432 -0.3486
  208MOL0     C27333   0.821   6.429   1.143 -0.1333  0.6001 -0.0794
  208MOL0     C27334   0.689   6.464   1.219 -0.5352 -0.3118 -0.2714
  208MOL0     C27335   0.591   6.346   1.234 -0.7226 -0.0304  0.1164
  208MOL0     C27336   0.525   6.324   1.101  0.3042 -0.3912 -0.4315
  208MOL0     C27337   0.376   6.293   1.124  0.4181  0.0239  0.0163
  208MOL0     C27338   0.336   6.212   0.997 -0.6511 -0.1933  0.1419
  208MOL0     C27339   0.189   6.185   0.974 -0.2077  0.4634 -0.8477
  208MOL0     C27340   0.171   6.115   0.841  0.3732 -0.1803  0.6969
  208MOL0     N27341   0.177   6.215   0.728 -0.1148  0.1360  0.2922
  208MOL0     C27342   0.079   6.304   0.715  0.6566 -0.5183  0.7304
  208MOL0     C27343   0.094   6.362   0.591  0.1880 -0.2277 -0.3014
  208MOL0     C27344  -0.014   6.435   0.507 -0.0609 -0.0616  0.1970
  208MOL0     C27345  -0.157   6.423   0.552 -1.5985 -0.4759 -0.4374
  208MOL0     C27346  -0.260   6.460   0.446 -0.7343 -0.3364  0.7627
  208MOL0     C27347  -0.407   6.423   0.461  0.5510 -0.4740 -1.3375
  208MOL0     O27348  -0.473   6.492   0.573 -0.1994  0.0445  0.2630
  208MOL0     C27349  -0.607   6.485   0.591  0.3210  1.2025  0.0274
  208MOL0     C27350  -0.653   6.555   0.702 -0.4810  0.3182 -0.0364
  208MOL0     C27351  -0.781   6.543   0.747  1.2685 -0.2520  0.0007
  208MOL0     C27352  -0.879   6.471   0.675 -0.1502  1.0082 -0.0152
  208MOL0     C27353  -1.021   6.465   0.722 -0.3006  0.3820  0.4732
  208MOL0     O27354  -1.055   6.510   0.847 -0.4065 -0.0263 -0.6052
  208MOL0     C27355  -1.182   6.545   0.888 -0.0036 -0.2652 -0.0253
  208MOL0     C27356  -1.299   6.476   0.864 -0.0380  0.5578  0.6767
  208MOL0     C27357  -1.421   6.521   0.925 -0.1694 -0.8092 -0.0909
  208MOL0     C27358  -1.422   6.645   0.997  0.7108  0.5166 -0.0522
  208MOL0     O27359  -1.548   6.681   1.034 -0.1558 -0.0394  0.0608
  208MOL0     C27360  -1.570   6.806   1.096  0.4737 -0.7378  1.0482
  208MOL0     C27361  -1.717   6.821   1.144 -0.7238  0.6769 -0.1116
  208MOL0     C27362  -1.752   6.967   1.161  0.3750  0.4798  0.2452
  208MOL0     C27363  -1.904   6.986   1.210  0.1743  0.7215  0.4166
  208MOL0     C27364  -1.925   7.129   1.252  0.4912 -0.6624 -0.4239
  208MOL0     C27365  -2.076   7.154   1.235 -1.3420 -0.3634 -0.3524
  208MOL0     C27366  -2.120   7.293   1.248  0.5755 -0.0870 -0.0457
  208MOL0     C27367  -2.266   7.306   1.211  0.5695  0.1236  0.4431
  208MOL0    Cl27368  -2.369   7.238   1.345 -0.1318  0.0097  0.0516
  208MOL0     C27369  -1.308   6.719   1.006 -1.1766 -0.5383  0.0203
  208MOL0     C27370  -1.191   6.672   0.951  0.2171 -0.5656 -0.6529
  208MOL0     O27371  -1.099   6.416   0.642 -0.0475 -0.2087 -0.0507
  208MOL0     C27372  -0.834   6.397   0.563 -0.0872 -0.2342  0.3576
  208MOL0     C27373  -0.699   6.410   0.519  0.5365  0.1840  0.1473
  208MOL0     N27374   0.213   6.308   0.531  0.2295  0.7248  0.4655
  208MOL0     N27375   0.262   6.214   0.611  0.0902 -0.0624 -0.2969
  208MOL0     C27376   1.105   6.659   1.092  0.6484  0.7699 -0.4901
  208MOL0     C27377   1.240   6.652   1.070 -0.0615 -1.0559 -0.3995
  208MOL0     C27378   1.640   6.498   0.863 -0.4741  0.5486 -0.4517
  208MOL0     C27379   1.715   6.440   0.755 -0.4159 -0.1882  0.8254
  208MOL0     C27380   1.845   6.464   0.738  0.0905 -0.6102  0.5841
  208MOL0     C27381   1.911   6.554   0.822  0.0086 -0.2614 -0.3265
  208MOL0     O27382   2.052   6.559   0.809 -0.1285  0.9594 -0.2106
  208MOL0     C27383   2.130   6.617   0.907 -0.8250 -0.3819 -0.1153
  208MOL0     C27384   2.277   6.614   0.860 -0.2976 -0.3524  0.1761
  208MOL0     C27385   2.355   6.725   0.944 -0.8094  0.1484 -0.6274
  208MOL0     C27386   2.498   6.743   0.904  1.3714  0.0459  0.2484
  208MOL0     C27387   2.502   6.815   0.782 -0.7283 -0.7959  0.5895
  208MOL0     C27388   2.527   6.876   0.675  1.4130  0.0800 -0.1188
  208MOL0     C27389   1.845   6.616   0.924 -0.4541  0.0681 -0.1655
  208MOL0     C27390   1.709   6.589   0.941  1.5304 -0.5667 -0.1611
  208MOL0     H27391   1.262   6.329   0.969 -0.8920  0.4419  1.1648
  208MOL0     H27392   1.026   6.336   1.007  1.2704 -0.3534 -2.2533
  208MOL0     H27393   0.877   6.354   1.199 -1.0133  1.0735  1.4907
  208MOL0     H27394   0.794   6.378   1.050 -0.2443  1.3436 -0.4668
  208MOL0     H27395   0.635   6.547   1.173 -0.6210  0.6832  1.5548
  208MOL0     H27396   0.720   6.495   1.319 -2.1421  0.3868  0.0338
  208MOL0     H27397   0.517   6.373   1.309  0.6566  2.7476  0.5866
  208MOL0     H27398   0.640   6.255   1.272  1.0661  0.1672 -1.5665
  208MOL0     H27399   0.545   6.406   1.031 -0.3038  0.4496  0.3641
  208MOL0     H27400   0.576   6.239   1.056 -0.5730 -0.7539 -0.7402
  208MOL0     H27401   0.330   6.391   1.137  1.3681  0.6344 -1.0273
  208MOL0     H27402   0.368   6.239   1.218  2.6761  0.1286  0.3442
  208MOL0     H27403   0.394   6.119   0.999  0.7542  0.6414 -0.1940
  208MOL0     H27404   0.371   6.263   0.907  0.0392  2.0733  1.6117
  208MOL0     H27405   0.144   6.117   1.047 -1.5675  0.9943 -1.1572
  208MOL0     H27406   0.134   6.278   0.981  0.2346  0.5767  2.9821
  208MOL0     H27407   0.074   6.065   0.837  0.5030 -0.8424  3.6533
  208MOL0     H27408   0.245   6.037   0.819  0.3751  0.1307 -0.4989
  208MOL0     H27409   0.002   6.333   0.786 -2.4726 -1.4928 -2.0354
  208MOL0     H27410   0.005   6.416   0.401  1.5936  1.5226  0.1585
  208MOL0     H27411   0.012   6.541   0.504  0.0567 -0.0982 -0.1420
  208MOL0     H27412  -0.169   6.501   0.629  1.0041 -1.3801  1.0345
  208MOL0     H27413  -0.174   6.326   0.598  0.0859 -0.5823  0.0427
  208MOL0     H27414  -0.255   6.564   0.414 -1.3189 -0.8391 -1.0560
  208MOL0     H27415  -0.240   6.402   0.356 -0.9660  0.4460  0.2001
  208MOL0     H27416  -0.416   6.315   0.472 -0.7280 -0.2712 -0.0308
  208MOL0     H27417  -0.463   6.453   0.372 -2.2927  2.5315  1.1601
  208MOL0     H27418  -0.582   6.619   0.753  0.2618 -1.7732  1.7160
  208MOL0     H27419  -0.810   6.596   0.837 -2.0660 -1.1681 -0.3823
  208MOL0     H27420  -1.301   6.380   0.813  0.1191  2.1332 -2.5676
  208MOL0     H27421  -1.519   6.477   0.912 -1.0987  1.2934 -0.7402
  208MOL0     H27422  -1.552   6.886   1.024 -2.7418 -2.0011 -1.4060
  208MOL0     H27423  -1.494   6.818   1.174  1.5701 -1.1271  0.0786
  208MOL0     H27424  -1.723   6.761   1.235 -0.5048 -2.6691 -2.1136
  208MOL0     H27425  -1.781   6.778   1.066 -0.0294  1.7644 -1.3149
  208MOL0     H27426  -1.736   7.030   1.073 -0.3017  0.9764  0.4617
  208MOL0     H27427  -1.703   7.015   1.246  0.6149  0.7990 -0.0681
  208MOL0     H27428  -1.962   6.956   1.123  0.7771 -1.2430  0.6597
  208MOL0     H27429  -1.932   6.915   1.288  0.8017  0.6891  0.6197
  208MOL0     H27430  -1.877   7.202   1.187  2.0085 -0.0583  1.2734
  208MOL0     H27431  -1.889   7.156   1.352 -0.7203  2.5442 -0.7591
  208MOL0     H27432  -2.139   7.089   1.297 -0.6677  0.9496  1.8369
  208MOL0     H27433  -2.095   7.133   1.130  0.1721 -1.7205 -0.3976
  208MOL0     H27434  -2.125   7.322   1.354  1.7320  1.4817 -0.3965
  208MOL0     H27435  -2.058   7.354   1.182  0.4173  0.4273  0.2786
  208MOL0     H27436  -2.297   7.251   1.122 -1.7212  0.6914  0.8053
  208MOL0     H27437  -2.288   7.413   1.203 -0.5312 -0.0767  0.5594
  208MOL0     H27438  -1.295   6.818   1.049 -0.4333  0.2306 -1.8788
  208MOL0     H27439  -1.097   6.726   0.961  0.8213 -1.8678  1.0813
  208MOL0     H27440  -0.905   6.333   0.511  0.1951 -0.8493  0.7176
  208MOL0     H27441  -0.665   6.351   0.434 -1.5091 -3.3538  1.5432
  208MOL0     H27442   1.070   6.758   1.115 -0.8210  0.7320 -2.3037
  208MOL0     H27443   1.301   6.740   1.087  0.8702 -1.4797 -1.4459
  208MOL0     H27444   1.657   6.370   0.695 -2.2749  1.3189  0.7563
  208MOL0     H27445   1.896   6.414   0.656 -0.3098 -1.5574  0.9082
  208MOL0     H27446   2.114   6.567   1.003 -1.3501 -0.6179 -0.3192
  208MOL0     H27447   2.102   6.723   0.906 -1.8051 -0.6328 -1.0772
  208MOL0     H27448   2.324   6.517   0.872 -1.3717 -0.7467  1.6045
  208MOL0     H27449   2.285   6.630   0.753  1.7742  1.4754  0.5411
  208MOL0     H27450   2.339   6.707   1.051 -1.8664  0.5427 -0.7036
  208MOL0     H27451   2.301   6.820   0.931  1.6009  1.7122  0.1328
  208MOL0     H27452   2.554   6.796   0.981  2.4840  1.0183 -1.1723
  208MOL0     H27453   2.544   6.645   0.885 -0.4811 -0.7005 -0.6239
  208MOL0     H27454   2.553   6.947   0.599  2.4168  0.0469  0.1892
  208MOL0     H27455   1.890   6.688   0.991  0.4699 -0.2626 -0.4187
  208MOL0     H27456   1.658   6.652   1.013  3.8162 -2.0843  3.0163
  209MOL0     O27457   7.671   4.212   5.363 -0.3167 -0.1035  0.6906
  209MOL0     C27458   7.740   4.161   5.448  1.0721  0.2938  0.9684
  209MOL0     O27459   7.707   4.062   5.537  0.0426 -0.0518 -0.3641
  209MOL0     C27460   7.585   4.001   5.538  0.7207  0.4394 -0.7905
  209MOL0     C27461   7.587   3.888   5.624 -0.3668 -0.0906 -0.6288
  209MOL0     C27462   7.472   3.809   5.643  0.6579 -0.5055 -0.0660
  209MOL0     C27463   7.347   3.851   5.579 -0.5959  0.5426 -0.4224
  209MOL0     O27464   7.233   3.778   5.616 -0.3537  1.0214  0.1373
  209MOL0     C27465   7.138   3.742   5.504 -1.0797  0.0221  0.0420
  209MOL0     C27466   7.014   3.670   5.555 -0.6062  0.3620 -0.2376
  209MOL0     C27467   6.904   3.767   5.610  0.1077 -0.3578 -0.8425
  209MOL0     C27468   6.786   3.664   5.632  0.3782 -0.3440  0.3010
  209MOL0     C27469   6.663   3.741   5.678 -0.8066  0.2232 -0.1819
  209MOL0     C27470   6.549   3.646   5.690  0.9245  0.1874  0.5551
  209MOL0     C27471   6.415   3.719   5.720 -0.0328 -0.6327  1.2314
  209MOL0     C27472   6.297   3.623   5.723 -1.0424 -0.5208  0.8127
  209MOL0     N27473   6.174   3.694   5.714 -0.6286 -0.0645  1.2204
  209MOL0     C27474   6.127   3.777   5.813 -0.3749  0.9703  1.1250
  209MOL0     C27475   5.995   3.795   5.782  0.1106  0.7406  0.2923
  209MOL0     C27476   5.910   3.882   5.870  0.5935 -0.3368  0.0595
  209MOL0     C27477   5.760   3.865   5.828 -0.7973 -0.2814 -0.0781
  209MOL0     C27478   5.670   3.943   5.935  0.5352 -0.0339 -0.2082
  209MOL0     C27479   5.516   3.919   5.918 -0.3506 -0.4040  0.2918
  209MOL0     O27480   5.450   3.996   6.020  0.1246 -0.1854  0.2704
  209MOL0     C27481   5.314   3.975   6.032  0.0880 -0.4506 -0.5193
  209MOL0     C27482   5.223   3.998   5.931 -0.4004  0.6330 -0.0352
  209MOL0     C27483   5.094   3.962   5.950  0.4475 -0.9851  0.9346
  209MOL0     C27484   5.046   3.921   6.077  0.2180 -0.1877 -0.1777
  209MOL0     C27485   4.914   3.864   6.096 -0.1740  0.6430  0.5163
  209MOL0     O27486   4.841   3.847   5.982 -0.2339 -0.0258 -0.2562
  209MOL0     C27487   4.722   3.775   5.988 -0.0335 -0.0663 -0.1911
  209MOL0     C27488   4.707   3.638   6.024 -0.7956  1.3462  0.2727
  209MOL0     C27489   4.585   3.581   6.059 -0.1964  0.3960  0.1840
  209MOL0     C27490   4.466   3.652   6.050  0.4265 -1.0784 -0.3956
  209MOL0     O27491   4.349   3.581   6.069  0.2408 -0.2438 -0.3958
  209MOL0     C27492   4.241   3.656   6.127  0.2408  0.3967  0.5445
  209MOL0     C27493   4.117   3.573   6.135  0.5487  0.5103 -0.0075
  209MOL0     C27494   4.052   3.543   6.004  0.1847 -0.4716 -0.0530
  209MOL0     C27495   3.928   3.448   6.009  0.0542 -0.5692  0.2556
  209MOL0     C27496   3.800   3.518   6.051  0.4127  0.2876  0.0082
  209MOL0     C27497   3.682   3.417   6.035 -0.0061 -0.3885  0.3588
  209MOL0     C27498   3.560   3.461   6.121 -0.0370  0.0593  0.2296
  209MOL0     C27499   3.442   3.359   6.113 -0.3536 -0.9398 -0.3671
  209MOL0    Cl27500   3.295   3.436   6.184 -0.2249  0.4547 -0.2431
  209MOL0     C27501   4.478   3.789   6.007  0.1201  0.2634 -0.3189
  209MOL0     C27502   4.597   3.844   5.969  0.6759  0.1716 -0.3604
  209MOL0     O27503   4.881   3.822   6.206 -0.6546  0.0510 -0.3194
  209MOL0     C27504   5.139   3.931   6.185 -0.1734  0.0060  0.0071
  209MOL0     C27505   5.273   3.950   6.157  0.6357  0.4051  0.5154
  209MOL0     N27506   5.966   3.722   5.662 -0.4382  0.1351  0.2171
  209MOL0     N27507   6.080   3.672   5.620  0.7646  0.1650  0.8257
  209MOL0     C27508   7.341   3.965   5.503 -0.8991 -0.3188  0.5404
  209MOL0     C27509   7.462   4.036   5.475  0.0936 -0.2939 -0.5189
  209MOL0     C27510   7.861   4.237   5.476 -0.0865  0.4728  0.3431
  209MOL0     C27511   7.931   4.209   5.596 -0.1721  0.8298 -0.3115
  209MOL0     C27512   8.037   4.284   5.638 -0.1376  0.4450  0.2197
  209MOL0     C27513   8.100   4.361   5.549  0.5351 -0.4200  0.5705
  209MOL0     O27514   8.215   4.410   5.608 -0.0720 -0.5634  0.1362
  209MOL0     C27515   8.310   4.478   5.522  1.3411 -0.1562 -0.4679
  209MOL0     C27516   8.441   4.412   5.531  0.4429 -0.8139  0.3697
  209MOL0     C27517   8.543   4.505   5.462  0.3317 -0.3876  0.9163
  209MOL0     C27518   8.674   4.444   5.439  0.8604  0.9810 -0.2495
  209MOL0     C27519   8.746   4.438   5.566 -0.6820 -0.7460  0.0735
  209MOL0     C27520   8.820   4.445   5.665  0.5256 -0.3436 -0.2966
  209MOL0     C27521   8.044   4.392   5.422  0.9520  1.1323  0.9511
  209MOL0     C27522   7.924   4.328   5.386  0.1767 -0.0987 -0.2399
  209MOL0     H27523   7.686   3.863   5.661  0.3100  0.5115 -1.9783
  209MOL0     H27524   7.464   3.711   5.689 -1.4503  0.0337  0.8148
  209MOL0     H27525   7.177   3.673   5.429 -0.2230  0.7220 -0.1743
  209MOL0     H27526   7.106   3.837   5.459 -0.8644 -0.3782 -0.9724
  209MOL0     H27527   7.050   3.600   5.632 -2.7664  0.2965  0.8097
  209MOL0     H27528   6.969   3.618   5.470 -1.3299  0.6824 -0.0629
  209MOL0     H27529   6.874   3.842   5.536 -0.7871 -0.8245 -0.9665
  209MOL0     H27530   6.935   3.816   5.703 -1.4825  2.3761 -1.6332
  209MOL0     H27531   6.759   3.618   5.536  0.7546  2.3350 -1.2010
  209MOL0     H27532   6.805   3.584   5.704 -3.5863 -0.8914  0.9354
  209MOL0     H27533   6.643   3.820   5.605 -1.2993 -2.2361 -2.8987
  209MOL0     H27534   6.694   3.788   5.772  1.2669 -0.3936 -0.5171
  209MOL0     H27535   6.573   3.578   5.772  1.7222  2.3120  2.1715
  209MOL0     H27536   6.536   3.586   5.599  2.8670 -1.6189  1.3776
  209MOL0     H27537   6.423   3.770   5.817  0.5546 -1.7977  1.8132
  209MOL0     H27538   6.393   3.782   5.633 -1.9787 -1.1347  1.3167
  209MOL0     H27539   6.304   3.558   5.811 -4.3046 -0.0053  1.6019
  209MOL0     H27540   6.301   3.555   5.637  1.9001  0.1013  0.3734
  209MOL0     H27541   6.180   3.811   5.901  1.4347 -1.7471  1.1986
  209MOL0     H27542   5.931   3.989   5.863 -1.1988  0.2696  2.5175
  209MOL0     H27543   5.927   3.861   5.976 -2.2863 -1.6058  0.3712
  209MOL0     H27544   5.730   3.759   5.824  1.2900 -0.8937 -0.7966
  209MOL0     H27545   5.744   3.901   5.726  0.0715  0.8864  0.1848
  209MOL0     H27546   5.685   3.919   6.040  4.1715 -0.6502 -0.7407
  209MOL0     H27547   5.693   4.050   5.933  2.6683 -0.4398  0.5008
  209MOL0     H27548   5.491   3.813   5.919  0.2478 -0.5819 -1.1698
  209MOL0     H27549   5.486   3.958   5.820  0.0466  0.8674  0.6498
  209MOL0     H27550   5.246   4.022   5.827 -2.5286  1.2710 -0.4143
  209MOL0     H27551   5.020   3.957   5.872 -0.3783 -0.1535  1.6328
  209MOL0     H27552   4.790   3.570   6.042 -2.8455 -0.9041  1.9526
  209MOL0     H27553   4.566   3.484   6.104 -0.3153 -0.3291 -1.3652
  209MOL0     H27554   4.222   3.730   6.048  0.9701 -2.5274 -2.6167
  209MOL0     H27555   4.276   3.689   6.225 -0.1289 -0.4567  0.9645
  209MOL0     H27556   4.044   3.622   6.201 -1.5173 -0.2011 -1.6706
  209MOL0     H27557   4.147   3.478   6.180 -0.9910  0.3137  0.6791
  209MOL0     H27558   4.125   3.487   5.945 -1.9114 -1.9737 -1.3274
  209MOL0     H27559   4.027   3.642   5.965  0.5527  0.3657  1.7296
  209MOL0     H27560   3.918   3.414   5.905 -0.7742  1.1172 -0.2420
  209MOL0     H27561   3.938   3.364   6.079 -0.9710 -2.0771 -1.3265
  209MOL0     H27562   3.787   3.604   5.984  2.3571  1.0770  0.6005
  209MOL0     H27563   3.806   3.554   6.154 -0.4895 -1.5082  0.7315
  209MOL0     H27564   3.717   3.316   6.057  0.4901 -0.1557  0.6687
  209MOL0     H27565   3.653   3.421   5.930 -0.8306  1.3840  0.6221
  209MOL0     H27566   3.595   3.465   6.225  2.3189 -1.8308 -0.3974
  209MOL0     H27567   3.524   3.560   6.089 -1.9869 -0.3827  0.9220
  209MOL0     H27568   3.463   3.268   6.171 -4.0619 -0.1201  2.6908
  209MOL0     H27569   3.417   3.338   6.009  1.8516 -1.3430 -0.8586
  209MOL0     H27570   4.388   3.849   6.009  0.9418  1.5364  0.9998
  209MOL0     H27571   4.596   3.949   5.940 -0.9953  0.5975  1.0639
  209MOL0     H27572   5.112   3.906   6.288  1.8471 -2.1681  0.0901
  209MOL0     H27573   5.344   3.930   6.237 -0.5800 -0.2697  1.4824
  209MOL0     H27574   7.249   4.008   5.463  0.4486 -0.5415 -3.1705
  209MOL0     H27575   7.448   4.125   5.414 -1.7271  0.2086  0.5427
  209MOL0     H27576   7.898   4.140   5.674  3.0886 -0.3813  0.1320
  209MOL0     H27577   8.092   4.268   5.731 -0.1904 -1.1203  0.0126
  209MOL0     H27578   8.317   4.586   5.536  1.5146 -0.0024 -1.6634
  209MOL0     H27579   8.283   4.478   5.416  0.8263  2.1076 -0.4047
  209MOL0     H27580   8.461   4.398   5.637 -1.3733  1.2641  1.0692
  209MOL0     H27581   8.442   4.315   5.480  3.4522 -0.8954  0.4079
  209MOL0     H27582   8.546   4.593   5.527  3.1782 -0.6992  1.2936
  209MOL0     H27583   8.501   4.540   5.367  1.3778  2.0957  1.2877
  209MOL0     H27584   8.659   4.348   5.388 -1.0596  1.0245  0.1550
  209MOL0     H27585   8.728   4.507   5.368 -1.4484  1.8116 -1.3788
  209MOL0     H27586   8.884   4.457   5.750 -0.7255  3.5848  0.2880
  209MOL0     H27587   8.087   4.469   5.360  2.9959  1.2801  2.4683
  209MOL0     H27588   7.882   4.343   5.287 -0.0148 -0.3820 -0.2019
  210MOL0     O27589   6.812  10.375   3.820 -0.1451 -0.5592  0.5838
  210MOL0     C27590   6.817  10.334   3.934  0.3549 -0.4365  0.1176
  210MOL0     O27591   6.712  10.312   4.010  0.3872  0.3317 -0.0942
  210MOL0     C27592   6.584  10.325   3.966  0.3084 -0.3829  0.0797
  210MOL0     C27593   6.495  10.416   4.028  0.1188 -0.6444 -0.8548
  210MOL0     C27594   6.357  10.431   3.998  0.1018 -0.7934 -0.4143
  210MOL0     C27595   6.304  10.349   3.897 -0.3622  0.0788 -0.2399
  210MOL0     O27596   6.165  10.355   3.895 -0.0873 -0.3566  0.1999
  210MOL0     C27597   6.089  10.276   3.804  0.5147  0.0878 -0.2294
  210MOL0     C27598   6.092  10.360   3.674 -0.3788  0.2132 -0.4605
  210MOL0     C27599   6.009  10.302   3.572  0.7360 -0.2200 -0.7112
  210MOL0     C27600   6.076  10.186   3.499  0.1631  0.4576 -0.6832
  210MOL0     C27601   5.968  10.111   3.422  0.3887  0.2136  0.6877
  210MOL0     C27602   5.912  10.182   3.292  1.1332 -0.7895  0.0623
  210MOL0     C27603   5.820  10.099   3.210  0.7120 -0.3045 -0.0602
  210MOL0     C27604   5.772  10.181   3.091 -0.5069  0.1303  0.2805
  210MOL0     N27605   5.655  10.104   3.040 -0.0040  0.3593  0.2759
  210MOL0     C27606   5.646  10.052   2.908 -0.0120  0.0677  0.1866
  210MOL0     C27607   5.517  10.008   2.895  0.1731 -0.5497 -0.5835
  210MOL0     C27608   5.479   9.918   2.783 -0.1863 -0.1478 -0.0488
  210MOL0     C27609   5.504   9.986   2.645 -0.0440  0.1562 -0.0751
  210MOL0     C27610   5.451   9.911   2.518 -0.4734  0.1628 -0.4376
  210MOL0     C27611   5.524   9.772   2.506  0.1899  0.3702  0.4648
  210MOL0     O27612   5.506   9.727   2.369  0.5386  0.6197 -0.2078
  210MOL0     C27613   5.376   9.688   2.336 -0.4702 -0.4592  0.1258
  210MOL0     C27614   5.273   9.663   2.427  0.1598 -0.1307 -0.0455
  210MOL0     C27615   5.134   9.623   2.386 -0.7821 -1.0238  0.0663
  210MOL0     C27616   5.111   9.615   2.244 -0.6810 -0.8279  0.1750
  210MOL0     C27617   4.973   9.597   2.198  0.0301 -0.2045  0.6603
  210MOL0     O27618   4.964   9.616   2.065 -0.7567  0.8109  0.0185
  210MOL0     C27619   4.843   9.617   2.004 -0.4957 -0.0194 -0.4223
  210MOL0     C27620   4.815   9.724   1.916 -0.1261 -0.4929 -0.7431
  210MOL0     C27621   4.686   9.738   1.864 -0.1178  0.0066 -0.0457
  210MOL0     C27622   4.588   9.637   1.887 -0.0270  0.8558 -0.3266
  210MOL0     O27623   4.457   9.642   1.848 -0.2391  0.4565 -0.1943
  210MOL0     C27624   4.420   9.733   1.746  0.3245  0.4074 -0.5614
  210MOL0     C27625   4.271   9.719   1.721 -0.0716 -0.2682 -0.2610
  210MOL0     C27626   4.246   9.602   1.634  0.6041 -0.3907  0.8274
  210MOL0     C27627   4.097   9.597   1.592 -0.6959  0.3898  0.7174
  210MOL0     C27628   4.002   9.564   1.708 -0.8273  0.1740 -1.2043
  210MOL0     C27629   3.870   9.506   1.657  0.1944 -0.1576 -1.0263
  210MOL0     C27630   3.807   9.587   1.537 -0.5125 -0.2635 -0.4741
  210MOL0     C27631   3.661   9.558   1.505 -0.2380  0.0961 -0.4174
  210MOL0    Cl27632   3.628   9.390   1.460 -0.5847  0.1394  0.4074
  210MOL0     C27633   4.626   9.529   1.965 -0.2535  0.9765 -0.1652
  210MOL0     C27634   4.745   9.509   2.023 -0.5613 -1.5361  0.5434
  210MOL0     O27635   4.878   9.593   2.275 -0.2263 -0.1445 -0.4624
  210MOL0     C27636   5.221   9.631   2.157  0.6101 -0.7057  0.2245
  210MOL0     C27637   5.351   9.658   2.201  0.1891  0.5356 -0.0967
  210MOL0     N27638   5.443  10.031   3.016  0.0148 -0.2123  0.5804
  210MOL0     N27639   5.531  10.088   3.094 -0.0009  0.0742 -0.3388
  210MOL0     C27640   6.391  10.261   3.828  0.2328 -0.8192 -0.2241
  210MOL0     C27641   6.534  10.256   3.855  0.1880 -0.1207 -0.4962
  210MOL0     C27642   6.949  10.281   3.985  0.1104 -0.0881 -1.3654
  210MOL0     C27643   7.069  10.307   3.910  0.9799  0.5716 -0.1226
  210MOL0     C27644   7.189  10.263   3.957 -0.3484  0.0529 -0.6613
  210MOL0     C27645   7.208  10.226   4.093 -0.2667  0.7630 -1.2377
  210MOL0     O27646   7.333  10.203   4.143  0.1920  0.1720  0.6857
  210MOL0     C27647   7.392  10.307   4.231 -0.3141  0.0114  0.1943
  210MOL0     C27648   7.518  10.248   4.285 -0.4547  0.6903 -0.2307
  210MOL0     C27649   7.613  10.210   4.171 -0.0144  0.4337 -0.7298
  210MOL0     C27650   7.728  10.122   4.224  0.4995  1.3349  0.2734
  210MOL0     C27651   7.805  10.183   4.336 -0.2070  0.0258  0.5684
  210MOL0     C27652   7.861  10.228   4.433 -0.8588  0.5544 -0.2121
  210MOL0     C27653   7.095  10.206   4.172  0.1161  0.1236  0.2807
  210MOL0     C27654   6.969  10.227   4.112 -0.0568 -0.1346  0.2044
  210MOL0     H27655   6.533  10.478   4.109 -0.6003  1.0086 -1.7278
  210MOL0     H27656   6.296  10.495   4.061  1.8627  0.2933  0.2510
  210MOL0     H27657   5.988  10.261   3.843  0.1530  0.9945 -0.7778
  210MOL0     H27658   6.128  10.176   3.782 -0.5620 -0.3544 -0.2148
  210MOL0     H27659   6.191  10.368   3.629 -0.6736 -1.0845 -1.3930
  210MOL0     H27660   6.064  10.465   3.692 -0.0382  0.0889  0.9184
  210MOL0     H27661   5.996  10.378   3.494  1.5723 -0.8564 -1.4964
  210MOL0     H27662   5.907  10.275   3.602  0.4059  1.1412 -0.5143
  210MOL0     H27663   6.151  10.223   3.429  2.2251 -3.7470 -1.0303
  210MOL0     H27664   6.125  10.120   3.571  0.2992  0.4864 -0.7488
  210MOL0     H27665   5.888  10.083   3.492  1.0689  0.2424  1.4954
  210MOL0     H27666   6.008  10.015   3.386 -1.5658 -0.9023  1.3050
  210MOL0     H27667   5.998  10.210   3.230  0.2369  2.0361 -0.0429
  210MOL0     H27668   5.863  10.277   3.319  2.1691  0.0144 -0.7895
  210MOL0     H27669   5.870  10.007   3.181  0.1924 -0.7708  0.4948
  210MOL0     H27670   5.734  10.077   3.273 -0.5363 -0.8323 -1.8805
  210MOL0     H27671   5.843  10.202   3.010 -0.9964  1.5107  0.1910
  210MOL0     H27672   5.736  10.274   3.135 -3.8731 -1.2502  0.7400
  210MOL0     H27673   5.726  10.036   2.836 -0.8181 -2.4602 -0.2274
  210MOL0     H27674   5.375   9.888   2.798  0.2414 -1.6645  0.0677
  210MOL0     H27675   5.538   9.826   2.789 -0.4447 -0.4109 -1.2151
  210MOL0     H27676   5.611  10.000   2.626 -0.4415  1.4803 -1.6050
  210MOL0     H27677   5.455  10.084   2.646  0.2116  0.4507 -3.5482
  210MOL0     H27678   5.343   9.916   2.508 -0.3142  1.9030 -1.5363
  210MOL0     H27679   5.491   9.961   2.430  2.4683  0.9890  1.2182
  210MOL0     H27680   5.485   9.702   2.580 -1.5401  1.5159  0.6953
  210MOL0     H27681   5.632   9.774   2.519  0.1534 -0.8919  1.1228
  210MOL0     H27682   5.272   9.676   2.535 -0.4695 -1.3493  0.1238
  210MOL0     H27683   5.060   9.611   2.465 -0.5516  0.6412  0.5694
  210MOL0     H27684   4.890   9.801   1.904 -2.2687  1.7827 -0.2860
  210MOL0     H27685   4.669   9.826   1.802  3.2535  0.4296 -0.5627
  210MOL0     H27686   4.476   9.712   1.654 -0.0177 -0.6812 -0.5372
  210MOL0     H27687   4.432   9.839   1.771  0.2171  0.4641 -0.7491
  210MOL0     H27688   4.232   9.813   1.679 -3.1980 -0.6746  1.4134
  210MOL0     H27689   4.227   9.706   1.821  0.3723 -3.0559 -0.3478
  210MOL0     H27690   4.261   9.513   1.696  1.4499  0.4939  1.9521
  210MOL0     H27691   4.309   9.596   1.545 -2.7048  0.3889 -1.8113
  210MOL0     H27692   4.068   9.694   1.550 -3.0716  0.1033  1.4983
  210MOL0     H27693   4.097   9.526   1.509  1.4379  1.2562 -0.0815
  210MOL0     H27694   3.979   9.655   1.765 -1.5366  0.1447 -1.4269
  210MOL0     H27695   4.043   9.489   1.776 -2.2797 -0.7956 -1.3492
  210MOL0     H27696   3.799   9.515   1.740 -0.5840 -0.5932 -1.6324
  210MOL0     H27697   3.894   9.402   1.637 -0.8764 -0.5963 -0.1706
  210MOL0     H27698   3.798   9.691   1.571 -3.2086 -0.6187  0.1034
  210MOL0     H27699   3.870   9.583   1.448  1.6313  0.5804  0.9160
  210MOL0     H27700   3.622   9.631   1.433 -2.1935  0.1639  0.6204
  210MOL0     H27701   3.613   9.569   1.603 -0.8192  0.2602 -0.7146
  210MOL0     H27702   4.556   9.446   1.961 -0.3535  0.8429  2.4300
  210MOL0     H27703   4.776   9.414   2.067  0.8138 -1.0967  0.5859
  210MOL0     H27704   5.201   9.617   2.051 -0.5880 -1.1955  0.4954
  210MOL0     H27705   5.437   9.664   2.134  0.3348 -0.6822 -0.0526
  210MOL0     H27706   6.353  10.185   3.760 -0.7754 -1.8053  1.3686
  210MOL0     H27707   6.585  10.175   3.804 -0.1305 -0.0444 -0.9478
  210MOL0     H27708   7.055  10.346   3.809  0.2824  0.2323 -0.1653
  210MOL0     H27709   7.275  10.266   3.891  1.5537 -3.7915  1.3472
  210MOL0     H27710   7.325  10.337   4.311 -0.5474  1.2935 -0.4565
  210MOL0     H27711   7.410  10.398   4.173 -2.2482 -0.2988 -0.9807
  210MOL0     H27712   7.560  10.320   4.356 -0.3019  0.2257  0.1580
  210MOL0     H27713   7.489  10.164   4.348  0.7829  0.4284  0.0063
  210MOL0     H27714   7.643  10.298   4.112  2.0162 -0.1318 -0.6183
  210MOL0     H27715   7.556  10.152   4.097 -1.3074 -0.8737  1.2029
  210MOL0     H27716   7.692  10.020   4.236  2.6189  0.4146 -0.8209
  210MOL0     H27717   7.801  10.110   4.144 -0.2034 -2.6797  0.0550
  210MOL0     H27718   7.919  10.261   4.517  3.2028 -0.0802 -2.5056
  210MOL0     H27719   7.091  10.157   4.269 -1.1940  2.1555  1.3182
  210MOL0     H27720   6.882  10.228   4.177 -0.2982  0.8606 -0.1129
  211MOL0     O27721   1.960  10.960   5.560 -0.3728  0.4331 -0.0136
  211MOL0     C27722   1.997  11.073   5.582  0.1455  0.3419  0.7303
  211MOL0     O27723   1.926  11.187   5.549  0.1065  0.7440 -0.1589
  211MOL0     C27724   1.794  11.185   5.512  0.2429 -0.5318  0.6339
  211MOL0     C27725   1.751  11.293   5.432 -0.1985  0.8827 -0.9894
  211MOL0     C27726   1.620  11.299   5.380 -0.5128 -0.3267 -0.6344
  211MOL0     C27727   1.526  11.205   5.409  0.2243 -0.5855  0.3077
  211MOL0     O27728   1.402  11.223   5.362  0.0260 -0.3520  0.1278
  211MOL0     C27729   1.326  11.111   5.313  0.0114 -0.1017  0.5122
  211MOL0     C27730   1.200  11.171   5.270  0.8311 -0.2056 -0.8565
  211MOL0     C27731   1.104  11.189   5.393  0.2761  0.0539 -0.2437
  211MOL0     C27732   0.965  11.259   5.360  0.2734 -0.2787 -0.1006
  211MOL0     C27733   0.858  11.232   5.463  0.2811 -0.8664 -0.6098
  211MOL0     C27734   0.794  11.097   5.444  0.5041  0.1125 -0.0516
  211MOL0     C27735   0.682  11.050   5.541 -0.3993  0.5929  0.8466
  211MOL0     C27736   0.641  10.908   5.501  0.4442 -0.5138 -0.2584
  211MOL0     N27737   0.540  10.854   5.591  0.0103  0.0896 -0.0278
  211MOL0     C27738   0.574  10.778   5.702 -0.3920  0.7245  0.2540
  211MOL0     C27739   0.451  10.734   5.749 -0.2736 -0.7440  0.8379
  211MOL0     C27740   0.431  10.669   5.880  0.5564  0.3863 -0.1001
  211MOL0     C27741   0.433  10.521   5.843  0.5609  0.3001 -0.2970
  211MOL0     C27742   0.455  10.416   5.967 -0.3420 -0.1922 -0.4233
  211MOL0     C27743   0.315  10.394   6.035  0.4846  0.0133 -0.5111
  211MOL0     O27744   0.343  10.331   6.153 -0.2256 -0.1602  0.2555
  211MOL0     C27745   0.237  10.289   6.229 -0.0882 -0.5154  0.1339
  211MOL0     C27746   0.106  10.272   6.185  0.2222  0.0463  0.3304
  211MOL0     C27747   0.007  10.211   6.265  0.2110  0.1676  0.5169
  211MOL0     C27748   0.034  10.164   6.395  1.3654  0.4631  1.3150
  211MOL0     C27749  -0.070  10.097   6.468  0.7945 -0.1180  0.7316
  211MOL0     O27750  -0.200  10.100   6.421  0.4736  0.0259 -0.3771
  211MOL0     C27751  -0.318  10.044   6.485 -0.1006 -0.5829  0.3909
  211MOL0     C27752  -0.438  10.057   6.425 -0.0877 -0.4995 -0.4432
  211MOL0     C27753  -0.552  10.024   6.488  0.6373  0.7027  0.7169
  211MOL0     C27754  -0.560   9.993   6.622 -0.3214  0.2431  0.3782
  211MOL0     O27755  -0.685   9.980   6.682 -0.0111  0.2569 -0.3544
  211MOL0     C27756  -0.691   9.928   6.814  0.6900 -0.3414 -0.9215
  211MOL0     C27757  -0.824   9.931   6.881  0.7787  0.0507 -0.2267
  211MOL0     C27758  -0.930   9.862   6.803  0.9293  0.4596  0.3448
  211MOL0     C27759  -1.061   9.842   6.879  0.5376  0.8886  0.5499
  211MOL0     C27760  -1.173   9.810   6.779 -0.6342  0.5673  0.6651
  211MOL0     C27761  -1.305   9.799   6.857  0.1903  0.4885  0.2598
  211MOL0     C27762  -1.335   9.665   6.908  0.1569  0.1350  0.7042
  211MOL0     C27763  -1.423   9.688   7.024  0.2888 -0.0733 -0.0656
  211MOL0    Cl27764  -1.584   9.753   6.980  0.6847  0.2974  0.1678
  211MOL0     C27765  -0.440   9.987   6.698 -0.8686 -0.6723 -0.4970
  211MOL0     C27766  -0.315  10.012   6.627 -0.0994 -0.3582  0.5520
  211MOL0     O27767  -0.033  10.033   6.566  0.0483 -1.2124 -0.1251
  211MOL0     C27768   0.169  10.180   6.432  0.1209  0.2488 -1.6389
  211MOL0     C27769   0.271  10.244   6.358  0.3786 -0.2099 -0.4638
  211MOL0     N27770   0.362  10.761   5.652 -0.8189  0.6873  0.0969
  211MOL0     N27771   0.412  10.834   5.560  0.7406 -0.3662  1.2432
  211MOL0     C27772   1.566  11.106   5.487 -0.4353  0.1642  0.1697
  211MOL0     C27773   1.691  11.092   5.544 -0.1406 -0.4767  0.1627
  211MOL0     C27774   2.136  11.102   5.637  0.9245  0.1334  1.0103
  211MOL0     C27775   2.238  11.007   5.613  0.3956 -0.5384 -0.4148
  211MOL0     C27776   2.367  11.030   5.666 -0.0974 -0.8950  0.3274
  211MOL0     C27777   2.398  11.154   5.718 -0.4212  0.1995 -0.1665
  211MOL0     O27778   2.536  11.174   5.740  0.2445 -0.0403 -0.4092
  211MOL0     C27779   2.560  11.283   5.830 -0.1946 -0.9478  0.3191
  211MOL0     C27780   2.713  11.290   5.861 -0.4300  0.5174 -0.3324
  211MOL0     C27781   2.753  11.186   5.958 -0.4272  0.6090  0.2990
  211MOL0     C27782   2.896  11.155   5.950 -0.4863  0.3641  0.5166
  211MOL0     C27783   2.981  11.247   6.024  0.2405  0.9503 -0.1198
  211MOL0     C27784   3.062  11.306   6.088 -0.1988  0.1790  0.2655
  211MOL0     C27785   2.299  11.249   5.744  0.3605 -0.5107  0.0782
  211MOL0     C27786   2.173  11.222   5.705  0.2646 -0.0935  0.2677
  211MOL0     H27787   1.817  11.377   5.415 -1.0486  1.9138  0.5715
  211MOL0     H27788   1.595  11.389   5.325  0.5105  0.2059 -0.2631
  211MOL0     H27789   1.308  11.035   5.390 -0.8229  0.5485  0.9799
  211MOL0     H27790   1.373  11.064   5.227 -1.7060 -1.2323  0.1287
  211MOL0     H27791   1.153  11.093   5.209  0.8148 -1.8447  1.1712
  211MOL0     H27792   1.218  11.253   5.200  2.4796  1.3589  1.2426
  211MOL0     H27793   1.148  11.245   5.477  0.0186 -0.1397  0.0227
  211MOL0     H27794   1.094  11.089   5.437 -0.7349  0.8494  1.4324
  211MOL0     H27795   0.989  11.365   5.360  0.2512 -0.2364  1.8266
  211MOL0     H27796   0.935  11.224   5.260 -1.7798 -0.9857  0.7071
  211MOL0     H27797   0.775  11.300   5.441  0.6635 -0.5457 -1.0897
  211MOL0     H27798   0.890  11.261   5.563  0.1565  0.8607 -1.0374
  211MOL0     H27799   0.880  11.030   5.459  0.2928  0.4233  3.3067
  211MOL0     H27800   0.747  11.100   5.346 -0.7510  0.0205  0.5341
  211MOL0     H27801   0.713  11.054   5.646  0.8831 -1.6935  0.6292
  211MOL0     H27802   0.588  11.106   5.536 -0.7555  0.0899  1.6344
  211MOL0     H27803   0.732  10.847   5.507  1.0999  0.5989  3.2868
  211MOL0     H27804   0.597  10.909   5.401  0.0498 -0.2383 -0.0844
  211MOL0     H27805   0.672  10.749   5.738  0.2301  1.2118 -1.0060
  211MOL0     H27806   0.339  10.701   5.930 -0.3219 -0.4547 -1.1253
  211MOL0     H27807   0.518  10.695   5.941  1.4983 -2.5046 -0.0716
  211MOL0     H27808   0.522  10.515   5.781  0.0041  1.2617 -1.2307
  211MOL0     H27809   0.347  10.488   5.783  1.6607  0.2167 -1.8742
  211MOL0     H27810   0.502  10.324   5.931  4.1748  1.1464  1.4047
  211MOL0     H27811   0.522  10.460   6.042  0.3244  0.8797 -1.5879
  211MOL0     H27812   0.251  10.340   5.965  1.4439 -4.0258  1.4508
  211MOL0     H27813   0.260  10.488   6.051  0.1282  0.0173 -1.6602
  211MOL0     H27814   0.076  10.295   6.083 -0.0805  3.7495  1.1241
  211MOL0     H27815  -0.095  10.200   6.229  1.4785 -3.6093 -2.5306
  211MOL0     H27816  -0.432  10.081   6.319 -1.7493 -1.1831 -0.7106
  211MOL0     H27817  -0.647  10.030   6.434  1.1858  0.2620 -0.3291
  211MOL0     H27818  -0.634   9.996   6.879  1.5636 -1.6147 -0.3056
  211MOL0     H27819  -0.643   9.830   6.804  4.3318  1.1767 -0.0527
  211MOL0     H27820  -0.858  10.035   6.892  0.9845  0.1881 -0.8496
  211MOL0     H27821  -0.815   9.901   6.986  2.7498 -0.8514 -0.6085
  211MOL0     H27822  -0.891   9.764   6.775 -0.7381 -0.0764 -0.2198
  211MOL0     H27823  -0.940   9.912   6.707 -1.4699 -1.7294 -0.6637
  211MOL0     H27824  -1.047   9.765   6.954 -0.0459  2.1739  2.0345
  211MOL0     H27825  -1.082   9.934   6.935 -0.8276  1.2939 -0.5698
  211MOL0     H27826  -1.142   9.710   6.746 -3.6145 -1.2423  2.8175
  211MOL0     H27827  -1.181   9.875   6.691  1.2890  1.8404  1.3619
  211MOL0     H27828  -1.385   9.832   6.790  0.5879 -1.5981 -1.3645
  211MOL0     H27829  -1.285   9.860   6.946 -2.1097 -0.5308  1.5847
  211MOL0     H27830  -1.387   9.607   6.831  0.8392  0.8437 -0.3127
  211MOL0     H27831  -1.238   9.617   6.923  1.6195  1.2545 -3.6974
  211MOL0     H27832  -1.366   9.739   7.101  0.2915 -1.4998  0.9038
  211MOL0     H27833  -1.443   9.590   7.068 -0.9810  0.8232  1.4625
  211MOL0     H27834  -0.435   9.958   6.803 -2.1814  0.8419  0.0284
  211MOL0     H27835  -0.229   9.994   6.691 -0.5573 -0.8433  1.0467
  211MOL0     H27836   0.200  10.136   6.526 -1.2341 -0.2192 -1.3996
  211MOL0     H27837   0.376  10.254   6.384  0.1755 -0.0544  0.3497
  211MOL0     H27838   1.497  11.024   5.508  0.7347 -1.3737 -1.6341
  211MOL0     H27839   1.724  11.011   5.609 -0.0386 -1.3987 -0.9918
  211MOL0     H27840   2.217  10.917   5.556  2.8714 -0.8330 -1.0101
  211MOL0     H27841   2.452  10.967   5.643 -1.7935 -3.7665  1.3648
  211MOL0     H27842   2.502  11.262   5.921  1.3995 -0.2213  1.5581
  211MOL0     H27843   2.528  11.382   5.796 -0.2542 -0.8516  0.6486
  211MOL0     H27844   2.767  11.292   5.766 -1.0738  1.8105 -0.7096
  211MOL0     H27845   2.732  11.387   5.909 -0.9127  0.0599  0.8189
  211MOL0     H27846   2.703  11.091   5.937  0.1793  0.1470  0.9115
  211MOL0     H27847   2.741  11.211   6.064 -0.8116 -0.4036  0.5006
  211MOL0     H27848   2.926  11.056   5.984  0.7178  0.5151 -0.0775
  211MOL0     H27849   2.936  11.155   5.849 -1.5147  1.0685  0.0847
  211MOL0     H27850   3.136  11.351   6.151  1.5885 -1.0089 -0.9290
  211MOL0     H27851   2.316  11.348   5.786  3.2459  0.2286 -2.4335
  211MOL0     H27852   2.081  11.277   5.723 -0.0796 -0.7063  0.4202
  212MOL0     O27853   4.405   8.295   2.831 -0.2038 -0.6265  0.6683
  212MOL0     C27854   4.453   8.204   2.764 -0.7839  0.5048  0.1108
  212MOL0     O27855   4.429   8.174   2.640  0.3907  0.1172  1.5596
  212MOL0     C27856   4.321   8.225   2.567  0.9031  0.0106 -0.0612
  212MOL0     C27857   4.198   8.269   2.620  0.0781 -0.8649  0.5518
  212MOL0     C27858   4.094   8.311   2.541 -0.0726 -0.3552 -0.0823
  212MOL0     C27859   4.114   8.306   2.398  0.4750  0.0018  0.4205
  212MOL0     O27860   4.023   8.337   2.304  0.1711  0.0297  0.1790
  212MOL0     C27861   3.891   8.371   2.353 -0.1200 -0.3339 -0.3130
  212MOL0     C27862   3.807   8.395   2.225  0.9113 -0.5677  0.3016
  212MOL0     C27863   3.656   8.408   2.252  0.3783 -0.0205  0.7845
  212MOL0     C27864   3.579   8.457   2.133 -0.3395  0.9511  0.0486
  212MOL0     C27865   3.444   8.511   2.165 -0.2604 -0.1763  0.5196
  212MOL0     C27866   3.365   8.428   2.275 -0.0635  0.1996 -0.2169
  212MOL0     C27867   3.232   8.489   2.292 -0.5387 -0.2760  0.0908
  212MOL0     C27868   3.154   8.431   2.409 -0.2362 -0.0429 -0.0256
  212MOL0     N27869   3.015   8.467   2.407  0.0519  0.5831 -0.6538
  212MOL0     C27870   2.957   8.594   2.424  1.0022 -0.5746  0.3060
  212MOL0     C27871   2.840   8.595   2.367 -0.6960 -0.0982 -0.3119
  212MOL0     C27872   2.754   8.715   2.351 -0.4394 -0.5847  0.5931
  212MOL0     C27873   2.653   8.725   2.472  0.8374  0.4941  0.7754
  212MOL0     C27874   2.551   8.603   2.467  0.0045  0.8129 -0.7217
  212MOL0     C27875   2.445   8.631   2.570 -0.1194  0.0062 -0.8573
  212MOL0     O27876   2.353   8.522   2.583 -1.0078 -0.1642  0.0282
  212MOL0     C27877   2.264   8.527   2.686 -0.8624  0.2793  0.0757
  212MOL0     C27878   2.202   8.638   2.737  0.0919  0.3582  0.0461
  212MOL0     C27879   2.096   8.625   2.830  0.2191 -0.7474 -0.4419
  212MOL0     C27880   2.050   8.501   2.867  0.6578  0.1654  0.0700
  212MOL0     C27881   1.926   8.490   2.947 -0.2356  0.3867 -1.0220
  212MOL0     O27882   1.880   8.362   2.974  0.0152  0.4471 -0.0772
  212MOL0     C27883   1.763   8.323   3.034 -0.0218  0.5289  0.1749
  212MOL0     C27884   1.661   8.420   3.042 -0.2747  0.6801  0.2682
  212MOL0     C27885   1.548   8.394   3.127 -0.3588 -0.1467  0.0236
  212MOL0     C27886   1.532   8.264   3.185 -0.4111 -0.0841 -0.4027
  212MOL0     O27887   1.425   8.225   3.260  0.8722 -0.1995 -0.5666
  212MOL0     C27888   1.295   8.276   3.220  0.0837 -0.8631  0.7151
  212MOL0     C27889   1.188   8.190   3.287  0.0935 -1.0341  0.1186
  212MOL0     C27890   1.204   8.039   3.258 -0.1111  0.2474 -0.6241
  212MOL0     C27891   1.067   7.970   3.276  0.2058  0.8144 -0.0004
  212MOL0     C27892   1.068   7.821   3.258  0.6140  0.9841  0.1401
  212MOL0     C27893   1.159   7.755   3.359 -0.3623 -0.4757 -0.2005
  212MOL0     C27894   1.132   7.600   3.367  0.1975  0.4786 -0.6487
  212MOL0     C27895   1.260   7.513   3.393  0.5812  0.1303  0.3513
  212MOL0    Cl27896   1.180   7.355   3.413 -0.2042 -0.2551  0.6392
  212MOL0     C27897   1.637   8.169   3.169  0.1597  0.1208 -0.0786
  212MOL0     C27898   1.750   8.193   3.091  0.3264  0.1238 -0.5050
  212MOL0     O27899   1.897   8.587   3.022  0.0873 -0.0111  1.3067
  212MOL0     C27900   2.116   8.386   2.816 -0.4493  0.1620  0.4501
  212MOL0     C27901   2.217   8.399   2.723  0.3309  0.3502  0.2684
  212MOL0     N27902   2.815   8.467   2.319  0.3604  0.2019  0.1846
  212MOL0     N27903   2.913   8.396   2.349  0.0656  0.1997  0.3217
  212MOL0     C27904   4.234   8.269   2.348 -0.2937  0.0149 -0.3264
  212MOL0     C27905   4.333   8.211   2.431 -0.2023  0.4910  0.9615
  212MOL0     C27906   4.573   8.134   2.830  0.2722 -0.1331 -0.2971
  212MOL0     C27907   4.637   8.188   2.945 -0.3132 -0.2337  0.2511
  212MOL0     C27908   4.754   8.124   2.996  0.2928  0.0497  0.2510
  212MOL0     C27909   4.804   8.005   2.947 -0.4370 -0.6920  0.1646
  212MOL0     O27910   4.917   7.937   2.994 -0.4199  0.3929 -0.1852
  212MOL0     C27911   4.993   7.984   3.108 -1.0994 -0.1467  0.2271
  212MOL0     C27912   5.111   7.893   3.157  0.4295  0.5266 -0.3167
  212MOL0     C27913   5.171   7.954   3.289  0.4594 -0.6083 -0.1891
  212MOL0     C27914   5.255   8.086   3.279 -0.8609  0.2773 -0.2318
  212MOL0     C27915   5.176   8.198   3.232  0.3759  0.2645  0.2393
  212MOL0     C27916   5.100   8.285   3.207  0.8021  0.5537 -0.2987
  212MOL0     C27917   4.739   7.953   2.842  0.3665  0.4552  0.3964
  212MOL0     C27918   4.627   8.012   2.780  0.0306 -0.4700  0.6478
  212MOL0     H27919   4.174   8.255   2.724 -1.5029  1.0494  0.5026
  212MOL0     H27920   3.996   8.332   2.584  1.1037 -0.3500  2.8725
  212MOL0     H27921   3.886   8.464   2.409  4.6505  0.5105 -0.9065
  212MOL0     H27922   3.847   8.285   2.404 -0.0643  1.0137  2.1378
  212MOL0     H27923   3.820   8.302   2.170  1.6567  0.0049 -0.5166
  212MOL0     H27924   3.839   8.485   2.173 -2.7212  1.1094  0.6538
  212MOL0     H27925   3.630   8.479   2.331 -1.0539  0.9746 -0.5098
  212MOL0     H27926   3.615   8.310   2.277 -0.6625 -0.1711 -1.2732
  212MOL0     H27927   3.646   8.536   2.097 -0.2154 -0.6224 -3.7467
  212MOL0     H27928   3.581   8.381   2.054 -2.7516  1.0743 -0.1973
  212MOL0     H27929   3.383   8.518   2.074  1.0439  1.1288 -0.2882
  212MOL0     H27930   3.459   8.614   2.198  1.4313  0.1478 -1.0823
  212MOL0     H27931   3.423   8.421   2.367 -0.4484 -0.8482 -0.0488
  212MOL0     H27932   3.341   8.327   2.240 -1.6576  0.5796 -0.3053
  212MOL0     H27933   3.259   8.591   2.321  1.1703 -0.9529  1.0127
  212MOL0     H27934   3.172   8.486   2.201 -0.9024  0.9442  0.2635
  212MOL0     H27935   3.193   8.479   2.499 -2.0008  0.6324  0.4298
  212MOL0     H27936   3.181   8.326   2.396  1.5116  0.2294  1.1585
  212MOL0     H27937   3.001   8.681   2.473 -1.6063  2.8045 -2.7842
  212MOL0     H27938   2.701   8.703   2.257  0.4936 -2.2513  0.2396
  212MOL0     H27939   2.808   8.810   2.350  2.1890 -1.9304 -1.8613
  212MOL0     H27940   2.597   8.819   2.466  1.5298  0.8484 -0.6934
  212MOL0     H27941   2.718   8.737   2.559  1.2485  1.2716  0.3644
  212MOL0     H27942   2.498   8.582   2.374 -0.6177 -0.7887 -0.0588
  212MOL0     H27943   2.611   8.516   2.498  1.4531  2.8409  2.8327
  212MOL0     H27944   2.389   8.717   2.531 -3.4574 -1.4200  0.4043
  212MOL0     H27945   2.489   8.656   2.667 -0.4872 -0.5771 -0.5313
  212MOL0     H27946   2.235   8.741   2.727 -0.3989  0.5153  0.0292
  212MOL0     H27947   2.044   8.713   2.867  0.3763 -1.8349  2.6361
  212MOL0     H27948   1.656   8.512   2.985  0.7832  0.9438  0.5696
  212MOL0     H27949   1.469   8.467   3.140 -2.1474 -1.7302 -1.2907
  212MOL0     H27950   1.292   8.265   3.111  1.2650  2.5580  0.1923
  212MOL0     H27951   1.280   8.379   3.253  0.3141 -0.6177  0.0772
  212MOL0     H27952   1.094   8.221   3.240  0.4322 -1.8680 -1.1753
  212MOL0     H27953   1.191   8.221   3.392  1.1857  0.8259 -0.4025
  212MOL0     H27954   1.282   8.004   3.326 -1.0284 -1.2029 -0.2715
  212MOL0     H27955   1.236   8.020   3.155 -1.4119 -3.4085 -0.4934
  212MOL0     H27956   1.016   7.999   3.369  0.5927 -1.5309  1.0111
  212MOL0     H27957   1.011   8.010   3.191  0.6552 -1.6249 -1.5439
  212MOL0     H27958   1.102   7.793   3.157 -1.7199 -3.2172  0.2722
  212MOL0     H27959   0.970   7.772   3.267  0.8937 -0.2583 -2.4652
  212MOL0     H27960   1.155   7.798   3.459  1.2205 -0.5977 -0.0682
  212MOL0     H27961   1.264   7.769   3.332 -0.0838 -1.8915  0.0683
  212MOL0     H27962   1.058   7.584   3.445 -0.4056  1.8075 -0.9218
  212MOL0     H27963   1.089   7.563   3.274  0.5368 -1.7402  0.0265
  212MOL0     H27964   1.309   7.538   3.488 -0.3398 -0.1795  0.9258
  212MOL0     H27965   1.320   7.519   3.302  0.2592 -1.2323  0.0263
  212MOL0     H27966   1.621   8.070   3.212  2.0695 -1.3773 -2.5056
  212MOL0     H27967   1.835   8.128   3.072  2.8038  2.9736 -0.0492
  212MOL0     H27968   2.084   8.283   2.829 -0.7880  0.0476 -1.1450
  212MOL0     H27969   2.268   8.308   2.692  0.1616  0.1789  0.4895
  212MOL0     H27970   4.231   8.265   2.239 -2.0328  0.5401 -0.3370
  212MOL0     H27971   4.419   8.158   2.393  1.7206  3.7191  0.4703
  212MOL0     H27972   4.598   8.284   2.979 -1.2028  0.2425 -1.9057
  212MOL0     H27973   4.803   8.171   3.081 -1.2857  0.6822  0.8533
  212MOL0     H27974   4.921   8.000   3.188 -3.2294  0.3239 -1.6896
  212MOL0     H27975   5.041   8.076   3.072 -0.9362  0.4908  1.9963
  212MOL0     H27976   5.066   7.796   3.178 -2.1402  1.7781  0.2826
  212MOL0     H27977   5.200   7.882   3.093 -0.6249  1.3022 -1.9842
  212MOL0     H27978   5.228   7.874   3.338  0.1428 -0.6595  0.1011
  212MOL0     H27979   5.095   7.967   3.366 -0.3511  0.2957 -1.1129
  212MOL0     H27980   5.287   8.122   3.377 -1.8083 -0.0423  0.2088
  212MOL0     H27981   5.337   8.071   3.209  0.0620  1.3647  0.5777
  212MOL0     H27982   5.029   8.362   3.185  1.2657  0.8758 -0.6923
  212MOL0     H27983   4.769   7.862   2.793 -4.2339 -0.9117 -0.3582
  212MOL0     H27984   4.586   7.963   2.693  0.7519  0.4278 -0.2233
  213MOL0     O27985   6.430   9.035   7.879  0.3582  1.0499 -0.3495
  213MOL0     C27986   6.493   9.131   7.833 -0.3507 -0.0569  0.0163
  213MOL0     O27987   6.438   9.233   7.765 -0.4699  0.3002 -0.1515
  213MOL0     C27988   6.304   9.240   7.746  0.0912  0.2515  0.8084
  213MOL0     C27989   6.224   9.313   7.830  0.0665  0.2916  0.2565
  213MOL0     C27990   6.084   9.336   7.819 -0.2112  0.1864  0.5044
  213MOL0     C27991   6.017   9.281   7.712 -0.4869  0.0983  0.2842
  213MOL0     O27992   5.880   9.307   7.700 -1.1188  0.1047 -0.6194
  213MOL0     C27993   5.796   9.213   7.642 -0.2261  0.3881  0.8532
  213MOL0     C27994   5.661   9.291   7.658 -0.0842  0.4384 -1.4240
  213MOL0     C27995   5.545   9.215   7.582 -0.6997 -0.2542 -0.2425
  213MOL0     C27996   5.396   9.253   7.596 -0.4177  0.2042  0.3414
  213MOL0     C27997   5.308   9.139   7.521 -0.3320  0.5594  0.0769
  213MOL0     C27998   5.161   9.176   7.513  0.7648  0.6867  0.8488
  213MOL0     C27999   5.081   9.065   7.439 -0.2276  0.0823 -0.1058
  213MOL0     C28000   5.104   9.077   7.286  0.6212  0.0614  0.4544
  213MOL0     N28001   4.999   8.982   7.229  0.0937 -0.1841  0.3803
  213MOL0     C28002   5.010   8.841   7.225  0.3773 -0.3564  0.0422
  213MOL0     C28003   4.905   8.802   7.148 -0.3144 -0.6306 -0.1934
  213MOL0     C28004   4.895   8.663   7.091  0.0559 -1.2100 -0.6566
  213MOL0     C28005   4.780   8.589   7.150 -0.3048 -0.3970  0.2111
  213MOL0     C28006   4.750   8.452   7.086 -0.0331 -0.0754 -0.3843
  213MOL0     C28007   4.640   8.380   7.174 -0.5796 -0.3872 -0.4034
  213MOL0     O28008   4.519   8.449   7.138  0.5892  0.6392  0.0911
  213MOL0     C28009   4.400   8.414   7.194 -0.0308 -0.5665 -0.6661
  213MOL0     C28010   4.392   8.318   7.297 -0.8700 -0.6606  0.7606
  213MOL0     C28011   4.268   8.278   7.357  0.2333 -1.2508 -0.0404
  213MOL0     C28012   4.151   8.340   7.311  0.1297  0.6134 -0.2831
  213MOL0     C28013   4.018   8.296   7.351  0.6187  0.0028 -0.0839
  213MOL0     O28014   3.916   8.306   7.266 -0.6205 -0.1127  0.0948
  213MOL0     C28015   3.794   8.314   7.319 -0.5893 -0.2294 -0.5625
  213MOL0     C28016   3.747   8.431   7.383  0.5617  0.1892  0.0467
  213MOL0     C28017   3.610   8.438   7.426 -0.0170  0.4071 -0.1912
  213MOL0     C28018   3.527   8.321   7.411 -0.0272 -0.0900 -0.3167
  213MOL0     O28019   3.394   8.324   7.437  0.5214  0.1527 -0.3706
  213MOL0     C28020   3.339   8.455   7.452 -0.2021 -0.0287 -0.0636
  213MOL0     C28021   3.187   8.440   7.471 -0.1857  0.3613  0.1512
  213MOL0     C28022   3.131   8.577   7.526  0.4146  0.7997  1.2590
  213MOL0     C28023   2.984   8.577   7.541 -0.0240  0.0773  0.3974
  213MOL0     C28024   2.931   8.473   7.640 -0.4000  0.7084 -0.5765
  213MOL0     C28025   2.796   8.420   7.595  0.6651  0.0769 -0.2829
  213MOL0     C28026   2.682   8.520   7.602  1.3484 -0.1522 -0.7398
  213MOL0     C28027   2.558   8.478   7.518  0.3500 -0.5741  0.1557
  213MOL0    Cl28028   2.577   8.483   7.347 -0.4801  0.3788  0.1553
  213MOL0     C28029   3.577   8.200   7.361  0.2945 -0.2597 -0.5676
  213MOL0     C28030   3.709   8.198   7.317  0.4026  0.3925  0.9236
  213MOL0     O28031   4.014   8.234   7.457 -0.8336 -0.3601  0.5729
  213MOL0     C28032   4.156   8.440   7.212  0.3035  1.1192  0.1821
  213MOL0     C28033   4.282   8.475   7.162  0.3629 -0.3601  0.7520
  213MOL0     N28034   4.822   8.917   7.116  0.3278  0.5693  0.0916
  213MOL0     N28035   4.884   9.020   7.163 -0.1332 -0.2627  0.4948
  213MOL0     C28036   6.096   9.208   7.616  0.4667 -0.2736  0.1758
  213MOL0     C28037   6.241   9.193   7.626  0.2684  0.7300 -0.1602
  213MOL0     C28038   6.642   9.123   7.859  0.0980  0.0223 -0.4179
  213MOL0     C28039   6.714   9.019   7.922 -0.3504  0.7328  0.0151
  213MOL0     C28040   6.853   9.027   7.947 -0.4233 -0.0947  0.7050
  213MOL0     C28041   6.925   9.132   7.881 -0.5233  0.6157  0.2104
  213MOL0     O28042   7.061   9.153   7.889  0.4225 -0.0650  0.7596
  213MOL0     C28043   7.143   9.042   7.906 -0.6687 -0.5234  0.0930
  213MOL0     C28044   7.288   9.098   7.888 -0.1428  0.1415 -0.3626
  213MOL0     C28045   7.360   9.131   8.019 -0.0722 -0.0115 -0.4815
  213MOL0     C28046   7.507   9.079   8.031 -0.0583 -0.3557 -0.4093
  213MOL0     C28047   7.606   9.132   7.937  0.6171 -0.5607 -0.4466
  213MOL0     C28048   7.689   9.175   7.858 -0.1127 -0.3665  0.4494
  213MOL0     C28049   6.857   9.236   7.824  0.0577 -0.3133 -0.8760
  213MOL0     C28050   6.719   9.229   7.812  0.2178 -0.1860  0.3344
  213MOL0     H28051   6.271   9.361   7.915  0.8599 -0.3907  0.2065
  213MOL0     H28052   6.025   9.396   7.888  0.2348  0.3134  0.7825
  213MOL0     H28053   5.797   9.114   7.688 -0.3101 -1.9379 -3.5866
  213MOL0     H28054   5.827   9.200   7.538  0.5739  0.4677  1.0758
  213MOL0     H28055   5.664   9.396   7.628 -0.0050  0.3965 -1.5587
  213MOL0     H28056   5.627   9.282   7.762 -2.4934 -1.9035 -2.3011
  213MOL0     H28057   5.550   9.112   7.617 -0.1080 -0.5535 -1.1680
  213MOL0     H28058   5.577   9.219   7.478  2.7107 -1.8147  0.6139
  213MOL0     H28059   5.361   9.267   7.699 -0.5571 -0.0478  0.3294
  213MOL0     H28060   5.388   9.348   7.542 -1.7297  0.5189  1.0510
  213MOL0     H28061   5.327   9.042   7.567 -2.7098  0.2899  0.6116
  213MOL0     H28062   5.342   9.129   7.418  0.9979 -0.0234  0.5559
  213MOL0     H28063   5.151   9.270   7.459  1.4700  0.3191  0.0604
  213MOL0     H28064   5.134   9.188   7.619 -0.2309  3.6845  0.3589
  213MOL0     H28065   5.093   8.961   7.470  0.9219 -0.4740 -2.2370
  213MOL0     H28066   4.983   9.094   7.478  0.1371  0.0899  0.8402
  213MOL0     H28067   5.202   9.038   7.256 -0.2451  0.1261 -2.8991
  213MOL0     H28068   5.093   9.173   7.235  1.1538 -0.4811 -0.7295
  213MOL0     H28069   5.099   8.789   7.259  1.4372  1.5741  0.3710
  213MOL0     H28070   4.990   8.609   7.095  0.3250 -0.8441 -1.7601
  213MOL0     H28071   4.879   8.689   6.986 -0.1913  0.0269 -0.3278
  213MOL0     H28072   4.690   8.651   7.141 -0.8886 -0.9254  1.9084
  213MOL0     H28073   4.799   8.562   7.254  0.5457 -1.8645 -0.3037
  213MOL0     H28074   4.726   8.461   6.980  2.2335  1.8819 -0.8225
  213MOL0     H28075   4.842   8.394   7.096  0.1951 -0.1248 -2.4125
  213MOL0     H28076   4.661   8.397   7.280 -1.1067 -3.7172  0.3341
  213MOL0     H28077   4.634   8.274   7.148  0.0229 -0.1124 -1.7649
  213MOL0     H28078   4.480   8.264   7.333  0.5170 -0.4792 -2.1117
  213MOL0     H28079   4.265   8.199   7.432 -0.7178 -2.7694 -1.5873
  213MOL0     H28080   3.809   8.519   7.398  0.6465  0.2545 -0.6535
  213MOL0     H28081   3.574   8.532   7.467 -0.4357 -0.4039  1.3721
  213MOL0     H28082   3.359   8.532   7.377  0.5695  0.2497  0.4228
  213MOL0     H28083   3.368   8.499   7.548  0.9630  0.7778 -0.7541
  213MOL0     H28084   3.166   8.361   7.544  0.2994 -0.3238 -0.4447
  213MOL0     H28085   3.129   8.424   7.380 -0.5567 -1.9881  0.7275
  213MOL0     H28086   3.152   8.650   7.448 -2.6041  0.4113 -0.0685
  213MOL0     H28087   3.178   8.598   7.623  0.5083  1.8945  0.9763
  213MOL0     H28088   2.942   8.670   7.579  2.8610  2.0316 -0.7956
  213MOL0     H28089   2.938   8.555   7.444 -2.9226 -0.8622  1.8962
  213MOL0     H28090   2.922   8.525   7.735 -0.6253  0.2768 -0.3575
  213MOL0     H28091   2.995   8.387   7.663 -0.2228  1.0550  0.2262
  213MOL0     H28092   2.755   8.340   7.656 -1.1060 -0.9643 -2.6836
  213MOL0     H28093   2.806   8.381   7.494 -2.1612  0.8121 -0.9352
  213MOL0     H28094   2.650   8.533   7.706  0.8320  0.6901 -0.9893
  213MOL0     H28095   2.717   8.616   7.563  2.6252  0.3663  1.4667
  213MOL0     H28096   2.476   8.547   7.541  0.2495 -0.5292 -0.3206
  213MOL0     H28097   2.520   8.380   7.549 -1.4350 -0.8899 -2.6244
  213MOL0     H28098   3.519   8.109   7.353  0.0202 -0.0545 -0.9434
  213MOL0     H28099   3.749   8.107   7.273 -2.0152 -1.2402  1.8782
  213MOL0     H28100   4.065   8.487   7.176 -1.1714 -0.1802  2.0091
  213MOL0     H28101   4.299   8.562   7.099 -0.0394  0.4169  1.6887
  213MOL0     H28102   6.057   9.180   7.519  4.7474  1.1937 -2.2489
  213MOL0     H28103   6.296   9.144   7.546 -2.9260  0.9604 -2.7129
  213MOL0     H28104   6.659   8.932   7.954 -0.1018  0.9343  1.0126
  213MOL0     H28105   6.905   8.949   8.002  0.5874  1.1283  1.5562
  213MOL0     H28106   7.109   8.969   7.832 -3.1106  0.6669 -0.0641
  213MOL0     H28107   7.121   8.998   8.003  1.7271  0.3949  1.1435
  213MOL0     H28108   7.351   9.027   7.833  0.3815 -0.9427  1.5572
  213MOL0     H28109   7.274   9.184   7.822  2.3516  1.7167  0.9808
  213MOL0     H28110   7.302   9.085   8.099  0.4549 -0.4089 -0.3213
  213MOL0     H28111   7.345   9.237   8.041 -0.2587 -0.3869  1.3689
  213MOL0     H28112   7.538   9.097   8.134  0.3496 -2.4060 -0.1253
  213MOL0     H28113   7.505   8.970   8.026  1.2005 -0.3500 -2.9654
  213MOL0     H28114   7.773   9.211   7.802  0.7876 -0.9648  1.3631
  213MOL0     H28115   6.910   9.320   7.780  2.6885 -1.1297  0.4635
  213MOL0     H28116   6.677   9.313   7.757  1.3233  0.4249  0.3921
  214MOL0     O28117   2.254   2.504   2.340  0.2771 -0.2112 -0.0571
  214MOL0     C28118   2.280   2.537   2.450  0.5244  0.7243 -0.2143
  214MOL0     O28119   2.186   2.571   2.549  0.0960 -0.4459 -0.6140
  214MOL0     C28120   2.053   2.575   2.514  0.6552  0.2282 -0.4313
  214MOL0     C28121   1.954   2.499   2.581 -0.2259 -0.1753  0.4654
  214MOL0     C28122   1.817   2.516   2.561 -0.3866 -0.4470  0.8966
  214MOL0     C28123   1.771   2.591   2.455  0.6967  0.7221 -0.2055
  214MOL0     O28124   1.635   2.602   2.419  0.1611  0.5733 -0.2574
  214MOL0     C28125   1.537   2.519   2.492 -0.0329  0.2085  1.3572
  214MOL0     C28126   1.408   2.564   2.426 -0.1453  1.2843  0.3207
  214MOL0     C28127   1.294   2.516   2.516  0.2833 -0.0829  0.6820
  214MOL0     C28128   1.149   2.503   2.459 -0.4045 -0.2794 -0.7521
  214MOL0     C28129   1.051   2.456   2.567 -0.5322  0.0234  0.6265
  214MOL0     C28130   0.908   2.456   2.503  0.2711  0.0140 -0.3647
  214MOL0     C28131   0.820   2.364   2.588  0.3010 -0.4272  0.1964
  214MOL0     C28132   0.675   2.390   2.568  0.7328 -0.3325 -0.2932
  214MOL0     N28133   0.607   2.499   2.647 -0.1011  0.2538  0.2675
  214MOL0     C28134   0.554   2.484   2.771 -1.1357  0.1191 -0.0260
  214MOL0     C28135   0.526   2.608   2.812 -0.4381  0.5637  0.1422
  214MOL0     C28136   0.483   2.637   2.953  0.3089 -0.4538 -0.0777
  214MOL0     C28137   0.337   2.671   2.962 -0.9448  0.2114 -0.3933
  214MOL0     C28138   0.255   2.544   2.993  0.2422 -0.1933  0.0087
  214MOL0     C28139   0.113   2.585   3.019 -0.0502  0.7828 -0.3720
  214MOL0     O28140   0.037   2.469   3.019  0.1534 -0.2606  0.5892
  214MOL0     C28141  -0.095   2.488   3.041 -0.1380 -0.4277 -0.1802
  214MOL0     C28142  -0.147   2.610   3.085  0.4276  0.3419  0.9920
  214MOL0     C28143  -0.282   2.622   3.104  0.0764  0.0527  0.7677
  214MOL0     C28144  -0.364   2.512   3.099 -0.2468  0.9241 -0.3428
  214MOL0     C28145  -0.507   2.517   3.152 -0.6010  0.3290 -0.4373
  214MOL0     O28146  -0.581   2.405   3.176 -0.6746  0.4021  0.3999
  214MOL0     C28147  -0.713   2.405   3.213 -0.4065  0.0337  0.1142
  214MOL0     C28148  -0.754   2.297   3.292  0.9239 -0.5912  0.3851
  214MOL0     C28149  -0.888   2.291   3.339  0.4090  0.1943  0.0273
  214MOL0     C28150  -0.982   2.389   3.293  0.3511  0.6534 -0.0458
  214MOL0     O28151  -1.105   2.377   3.352 -0.1774 -0.5181 -0.3381
  214MOL0     C28152  -1.211   2.469   3.311  0.2916 -0.2557 -0.1596
  214MOL0     C28153  -1.326   2.388   3.368  0.7405 -0.5056  0.2969
  214MOL0     C28154  -1.451   2.470   3.352 -0.2657  0.2823  0.5433
  214MOL0     C28155  -1.574   2.410   3.414  0.0247  0.1699 -0.3362
  214MOL0     C28156  -1.700   2.492   3.392  0.1584  0.1907 -0.1634
  214MOL0     C28157  -1.717   2.611   3.487 -0.5564 -1.1878 -0.2596
  214MOL0     C28158  -1.829   2.699   3.447 -0.7150 -0.3372 -0.1344
  214MOL0     C28159  -1.885   2.775   3.567 -0.0479  0.7341  0.2470
  214MOL0    Cl28160  -1.947   2.656   3.687 -0.0494 -0.1708 -0.0019
  214MOL0     C28161  -0.943   2.494   3.206  0.3094  1.5167  1.0961
  214MOL0     C28162  -0.810   2.502   3.161  0.7576  0.2837  0.1320
  214MOL0     O28163  -0.546   2.628   3.169  0.1582 -0.6404 -0.4773
  214MOL0     C28164  -0.318   2.392   3.046 -0.1111  0.8004  0.4431
  214MOL0     C28165  -0.189   2.384   3.006 -0.4599  0.3269 -0.1554
  214MOL0     N28166   0.555   2.697   2.708  0.3932  1.1002 -0.4568
  214MOL0     N28167   0.606   2.630   2.607  0.8023 -0.0139  0.2594
  214MOL0     C28168   1.867   2.669   2.386  0.0194 -0.3158  0.9568
  214MOL0     C28169   2.004   2.658   2.413  0.0379 -0.4814  0.7613
  214MOL0     C28170   2.427   2.568   2.478 -0.0231  1.1061  0.5378
  214MOL0     C28171   2.533   2.493   2.413 -0.0470  0.1658  0.1660
  214MOL0     C28172   2.665   2.524   2.439 -0.1310  0.2467  0.6749
  214MOL0     C28173   2.698   2.626   2.527 -0.2575 -0.2176  0.3182
  214MOL0     O28174   2.828   2.676   2.539  0.1060  0.0966  0.3876
  214MOL0     C28175   2.931   2.592   2.500  0.7429  0.5255 -0.3198
  214MOL0     C28176   3.062   2.657   2.543  0.1511 -0.1578  0.2350
  214MOL0     C28177   3.090   2.645   2.694 -0.0781 -0.6399  0.4361
  214MOL0     C28178   3.149   2.510   2.729 -0.2019  0.0136  0.7052
  214MOL0     C28179   3.269   2.484   2.650 -0.5282 -0.6005  0.3272
  214MOL0     C28180   3.359   2.461   2.574 -0.9844  0.2681 -0.1778
  214MOL0     C28181   2.589   2.702   2.585 -0.3489 -0.3242  0.3013
  214MOL0     C28182   2.458   2.671   2.558  0.0212  0.5329  0.2529
  214MOL0     H28183   1.994   2.435   2.660 -0.1635  0.7824  1.2350
  214MOL0     H28184   1.753   2.462   2.630 -0.8031 -0.9057  0.1668
  214MOL0     H28185   1.539   2.547   2.598 -0.2187  2.0400  0.9135
  214MOL0     H28186   1.560   2.412   2.483  1.3530  0.4338  2.0217
  214MOL0     H28187   1.406   2.520   2.326  0.7683 -1.4513  1.4101
  214MOL0     H28188   1.411   2.673   2.424  0.3516  1.3984  2.9963
  214MOL0     H28189   1.283   2.598   2.587 -1.7609 -0.0430  0.3797
  214MOL0     H28190   1.311   2.423   2.570 -2.9537 -1.1000  0.1315
  214MOL0     H28191   1.116   2.593   2.406 -0.4079  0.7960  1.0070
  214MOL0     H28192   1.156   2.426   2.381 -1.8825 -0.3682 -0.8304
  214MOL0     H28193   1.046   2.519   2.656 -2.0628  3.5708 -1.7222
  214MOL0     H28194   1.079   2.355   2.597  1.3992  0.4844  0.4912
  214MOL0     H28195   0.914   2.437   2.396  2.5048  1.8196 -0.6473
  214MOL0     H28196   0.873   2.558   2.523  1.2299  0.0789  1.2084
  214MOL0     H28197   0.839   2.266   2.545 -1.3879 -0.8048  0.2308
  214MOL0     H28198   0.839   2.373   2.696 -2.8682  2.2209  0.6993
  214MOL0     H28199   0.626   2.294   2.585  1.1877 -0.7761 -1.4096
  214MOL0     H28200   0.660   2.405   2.461 -0.6603 -3.4156 -0.6227
  214MOL0     H28201   0.539   2.395   2.831  0.1751 -0.1887 -0.1183
  214MOL0     H28202   0.545   2.725   2.971  0.8162 -0.2187 -2.5432
  214MOL0     H28203   0.521   2.560   3.021 -0.5562 -0.5771  0.2758
  214MOL0     H28204   0.291   2.711   2.871  1.6111  1.2856 -1.3216
  214MOL0     H28205   0.330   2.755   3.032 -1.0516 -0.8123  0.8763
  214MOL0     H28206   0.257   2.471   2.912 -1.4820 -4.1009  3.1467
  214MOL0     H28207   0.300   2.493   3.079  0.9174 -0.8587 -0.7343
  214MOL0     H28208   0.069   2.651   2.943  0.4145 -0.5793 -1.8738
  214MOL0     H28209   0.113   2.620   3.122  0.1899 -2.9485  1.0294
  214MOL0     H28210  -0.092   2.701   3.106  0.9421  0.1357  0.5525
  214MOL0     H28211  -0.324   2.717   3.135 -0.6923 -0.7017  2.1139
  214MOL0     H28212  -0.677   2.234   3.335  1.1779  0.3453  1.3117
  214MOL0     H28213  -0.922   2.215   3.408 -1.0236 -0.8101 -1.7070
  214MOL0     H28214  -1.219   2.486   3.203 -2.6619 -1.8841 -0.2991
  214MOL0     H28215  -1.191   2.563   3.364  0.4971 -1.3539  1.8185
  214MOL0     H28216  -1.307   2.385   3.476  2.6467  1.8682  0.1198
  214MOL0     H28217  -1.334   2.292   3.317  0.8243 -0.5730  0.4089
  214MOL0     H28218  -1.465   2.483   3.244  3.7671  5.3195  0.2352
  214MOL0     H28219  -1.436   2.563   3.408 -2.7823  0.3908  1.1654
  214MOL0     H28220  -1.588   2.315   3.363  2.2132 -0.9925  1.0842
  214MOL0     H28221  -1.561   2.386   3.520 -1.3923  3.8409  0.8403
  214MOL0     H28222  -1.781   2.419   3.398  1.2751 -1.0586  0.3049
  214MOL0     H28223  -1.698   2.532   3.290 -0.5152  0.9013  0.0918
  214MOL0     H28224  -1.627   2.672   3.491 -1.1883 -0.2894  1.3301
  214MOL0     H28225  -1.732   2.573   3.588  2.3803  2.2978  1.7358
  214MOL0     H28226  -1.791   2.772   3.376 -0.4318 -0.6536 -0.3073
  214MOL0     H28227  -1.907   2.643   3.396 -0.0395 -1.6405  0.2201
  214MOL0     H28228  -1.965   2.845   3.539 -1.9301 -2.0048 -1.7914
  214MOL0     H28229  -1.805   2.828   3.619  0.4439 -0.2338  0.5036
  214MOL0     H28230  -1.007   2.572   3.167 -1.8469  0.3397  2.1329
  214MOL0     H28231  -0.790   2.577   3.086  0.7449  0.8533  0.6923
  214MOL0     H28232  -0.380   2.307   3.019  0.2879  0.1106  1.6215
  214MOL0     H28233  -0.168   2.285   2.968 -0.7102  0.2353 -0.0603
  214MOL0     H28234   1.833   2.731   2.304  1.4252 -0.4847  0.2229
  214MOL0     H28235   2.076   2.707   2.348 -0.2793  2.1612  2.2650
  214MOL0     H28236   2.509   2.421   2.336  0.3799  0.1929  0.0049
  214MOL0     H28237   2.739   2.455   2.399  1.4595  2.6549 -0.7410
  214MOL0     H28238   2.933   2.580   2.391 -1.1185  2.4431 -0.6300
  214MOL0     H28239   2.912   2.499   2.554 -2.3029  1.0760 -0.2887
  214MOL0     H28240   3.147   2.623   2.483  1.6352  1.9313  1.0718
  214MOL0     H28241   3.055   2.763   2.521 -0.4972  0.1775  1.8962
  214MOL0     H28242   3.005   2.668   2.759  0.4878  0.6144  0.7587
  214MOL0     H28243   3.160   2.721   2.730 -2.9214  2.4791 -0.1134
  214MOL0     H28244   3.173   2.509   2.836 -0.8615 -0.0466  0.8596
  214MOL0     H28245   3.075   2.433   2.703  0.6307 -0.8950  0.9753
  214MOL0     H28246   3.437   2.450   2.501  1.7110  0.2234  2.5130
  214MOL0     H28247   2.616   2.791   2.641 -1.3563  0.6949 -0.7854
  214MOL0     H28248   2.375   2.732   2.592 -1.2085  0.0347 -1.7213
  215MOL0     O28249   7.680   4.175   6.304  0.1424  0.5625 -0.3733
  215MOL0     C28250   7.668   4.082   6.223  0.9244  0.2786 -0.1736
  215MOL0     O28251   7.569   3.983   6.230  0.3065  0.2155 -0.6658
  215MOL0     C28252   7.486   4.006   6.334  0.5631  0.3868  0.5882
  215MOL0     C28253   7.353   4.030   6.307 -0.7903 -0.5136 -0.1284
  215MOL0     C28254   7.259   4.045   6.411 -0.3533 -0.3564  0.1553
  215MOL0     C28255   7.301   4.045   6.544 -0.2084 -0.1448 -0.7597
  215MOL0     O28256   7.207   4.065   6.638  0.5578 -0.4038 -0.7633
  215MOL0     C28257   7.200   3.968   6.739  1.2560 -0.5868 -0.4379
  215MOL0     C28258   7.061   3.972   6.796 -0.2078 -0.3644  0.5336
  215MOL0     C28259   6.946   3.938   6.719  0.3455  0.0478 -0.1968
  215MOL0     C28260   6.966   3.797   6.658  0.3727  0.3431 -0.0429
  215MOL0     C28261   6.838   3.747   6.594  0.3319  0.3226  0.1559
  215MOL0     C28262   6.853   3.644   6.480 -0.2511 -0.0977  0.2225
  215MOL0     C28263   6.850   3.498   6.517  0.7262 -0.5451  0.7664
  215MOL0     C28264   6.941   3.456   6.621 -0.6563 -0.8457 -0.2326
  215MOL0     N28265   7.084   3.491   6.583 -0.4080  0.2456 -0.6594
  215MOL0     C28266   7.152   3.454   6.464  0.7736  0.0907 -0.1356
  215MOL0     C28267   7.281   3.497   6.474  0.3930 -0.7324  0.1586
  215MOL0     C28268   7.396   3.479   6.374 -0.5173 -0.0484 -0.3622
  215MOL0     C28269   7.435   3.614   6.324 -0.2862 -0.0827 -0.5046
  215MOL0     C28270   7.335   3.680   6.235  0.4065 -0.1502 -0.1988
  215MOL0     C28271   7.311   3.598   6.108  0.3494 -0.3222  0.1541
  215MOL0     O28272   7.217   3.657   6.021  0.4503 -0.1793 -0.3430
  215MOL0     C28273   7.083   3.660   6.063 -0.1192 -0.0901 -0.0534
  215MOL0     C28274   7.012   3.541   6.086  0.2888 -0.3407  0.8940
  215MOL0     C28275   6.885   3.543   6.128  0.1505 -0.1540 -0.3875
  215MOL0     C28276   6.805   3.659   6.125  0.4877  0.2801 -0.9038
  215MOL0     C28277   6.659   3.655   6.131  0.9721 -0.9709  1.0989
  215MOL0     O28278   6.605   3.536   6.194 -0.2081  0.5739 -0.0096
  215MOL0     C28279   6.469   3.537   6.210  0.8285 -0.6035  0.0341
  215MOL0     C28280   6.381   3.563   6.093 -0.4037  0.3957 -0.3948
  215MOL0     C28281   6.240   3.569   6.108  0.2612 -0.2710 -0.1117
  215MOL0     C28282   6.181   3.538   6.227 -0.6972  0.6730  0.5406
  215MOL0     O28283   6.047   3.547   6.235  0.6610 -0.2883  0.1206
  215MOL0     C28284   5.999   3.682   6.207 -0.3756  0.2439 -0.8418
  215MOL0     C28285   5.850   3.678   6.227 -0.4522  0.7874  0.6673
  215MOL0     C28286   5.762   3.588   6.135 -0.1087 -0.3945 -0.0113
  215MOL0     C28287   5.615   3.609   6.172  0.2536  0.1943 -0.5476
  215MOL0     C28288   5.514   3.550   6.073  0.7559 -0.2966 -0.4517
  215MOL0     C28289   5.366   3.563   6.118 -0.2357 -0.4899 -0.2179
  215MOL0     C28290   5.273   3.516   6.008  0.3530  0.0010 -0.3126
  215MOL0     C28291   5.126   3.496   6.057  0.1647 -0.3849  0.1752
  215MOL0    Cl28292   5.032   3.537   5.916  0.1134 -0.1594  0.2692
  215MOL0     C28293   6.262   3.497   6.334  0.6669 -1.5899 -0.8660
  215MOL0     C28294   6.401   3.509   6.330  0.1359  0.2976  0.3982
  215MOL0     O28295   6.603   3.759   6.113 -0.0069  0.0018 -0.1954
  215MOL0     C28296   6.869   3.780   6.093 -0.5998  0.2531  0.3434
  215MOL0     C28297   7.008   3.783   6.071 -0.4472 -0.5194  0.1642
  215MOL0     N28298   7.286   3.564   6.599  0.2932 -0.5664 -0.1111
  215MOL0     N28299   7.170   3.561   6.660 -0.1162  0.3326  0.2792
  215MOL0     C28300   7.427   4.003   6.568  0.7244 -0.1946  1.3160
  215MOL0     C28301   7.524   3.983   6.467 -0.6167  1.2685  0.1574
  215MOL0     C28302   7.775   4.063   6.125 -0.1407  0.7168  0.4016
  215MOL0     C28303   7.783   3.944   6.059  0.1863 -0.5742  0.1322
  215MOL0     C28304   7.886   3.922   5.966  0.1427 -0.2399 -0.0007
  215MOL0     C28305   7.976   4.020   5.932 -0.4258 -0.3359 -0.0350
  215MOL0     O28306   8.075   4.012   5.830  0.9039  0.3973  0.2869
  215MOL0     C28307   8.095   3.898   5.742 -0.1983 -0.8238  0.0040
  215MOL0     C28308   8.173   3.947   5.624  0.5288 -1.2309  0.4787
  215MOL0     C28309   8.310   4.000   5.673  0.1154  0.5259  1.0305
  215MOL0     C28310   8.405   4.032   5.555  0.9823 -0.1866 -0.6566
  215MOL0     C28311   8.530   4.081   5.607  0.1735  0.3643  0.2763
  215MOL0     C28312   8.647   4.109   5.643 -0.4051  0.0049  1.1243
  215MOL0     C28313   7.955   4.138   5.999  0.0936  0.8322 -0.0336
  215MOL0     C28314   7.861   4.159   6.091  0.8623  0.3638 -0.3122
  215MOL0     H28315   7.343   4.049   6.201  0.4478  1.2269  0.0266
  215MOL0     H28316   7.160   4.063   6.370 -0.9401 -0.3164  1.5389
  215MOL0     H28317   7.274   3.991   6.816 -1.2346 -2.6295  2.8496
  215MOL0     H28318   7.224   3.866   6.709 -0.2637 -1.5335  1.3120
  215MOL0     H28319   7.034   4.074   6.828  2.0809  0.7504 -0.8520
  215MOL0     H28320   7.071   3.910   6.886  1.8352 -0.6534  0.1514
  215MOL0     H28321   6.922   4.017   6.646  0.7641 -1.2244 -1.7856
  215MOL0     H28322   6.861   3.924   6.785  1.4679 -0.2419  1.2433
  215MOL0     H28323   7.036   3.809   6.575  0.6294  0.4495  0.1870
  215MOL0     H28324   6.991   3.732   6.742  0.8154  1.9028  1.0755
  215MOL0     H28325   6.779   3.830   6.554 -2.8384 -3.3556 -3.7970
  215MOL0     H28326   6.770   3.707   6.670  2.2683  0.7422  2.2222
  215MOL0     H28327   6.936   3.672   6.414 -1.4379 -2.2634 -2.3306
  215MOL0     H28328   6.767   3.662   6.415 -1.5919 -0.9203  1.6928
  215MOL0     H28329   6.746   3.478   6.545 -0.0586  2.0221 -0.0087
  215MOL0     H28330   6.859   3.428   6.433 -0.9985 -0.6081  0.6022
  215MOL0     H28331   6.940   3.349   6.641  3.2670 -0.4511  3.5374
  215MOL0     H28332   6.930   3.509   6.716  4.4910  1.4356 -0.5804
  215MOL0     H28333   7.110   3.411   6.374  1.5531 -1.4435  0.2025
  215MOL0     H28334   7.376   3.412   6.290  0.9161 -0.5263 -0.3524
  215MOL0     H28335   7.483   3.436   6.425 -1.0632  0.4997  1.0903
  215MOL0     H28336   7.519   3.605   6.255 -0.7349 -0.0350 -1.0627
  215MOL0     H28337   7.462   3.680   6.407 -0.1892  0.9087 -1.2949
  215MOL0     H28338   7.240   3.702   6.284 -0.7229  0.4423 -2.5378
  215MOL0     H28339   7.377   3.776   6.203  4.4155 -1.4123  0.7152
  215MOL0     H28340   7.262   3.505   6.135 -0.3489  0.6513  2.5165
  215MOL0     H28341   7.402   3.568   6.054  1.2436  2.1546  0.1208
  215MOL0     H28342   7.073   3.453   6.068 -0.9025 -0.6793 -1.9397
  215MOL0     H28343   6.839   3.448   6.155  0.1641  0.1647  0.8224
  215MOL0     H28344   6.440   3.576   6.003  2.1943 -2.9473  0.6434
  215MOL0     H28345   6.185   3.596   6.019 -0.5411 -0.3334  0.3523
  215MOL0     H28346   6.022   3.722   6.108  0.0252  0.9194 -0.4769
  215MOL0     H28347   6.040   3.744   6.287  0.1954 -2.8186  1.4747
  215MOL0     H28348   5.819   3.782   6.222  0.6397  1.0771 -0.9559
  215MOL0     H28349   5.828   3.645   6.329 -0.2776 -3.6519 -0.5331
  215MOL0     H28350   5.797   3.485   6.141  0.2566 -0.4668 -2.4047
  215MOL0     H28351   5.787   3.621   6.034  1.2076  1.2259  0.7887
  215MOL0     H28352   5.593   3.555   6.265  0.6534 -1.1394 -1.1913
  215MOL0     H28353   5.605   3.715   6.197  2.9581  0.1862  1.0071
  215MOL0     H28354   5.531   3.443   6.055  2.7919  0.2885 -2.3997
  215MOL0     H28355   5.523   3.607   5.980  1.9111 -0.0774 -0.2253
  215MOL0     H28356   5.348   3.670   6.131 -1.0723 -0.0486 -4.0526
  215MOL0     H28357   5.345   3.505   6.209  0.7969 -0.2952  0.1578
  215MOL0     H28358   5.275   3.595   5.932  0.9544 -1.9076 -2.3829
  215MOL0     H28359   5.309   3.427   5.958  2.4331 -0.8366  2.4242
  215MOL0     H28360   5.098   3.558   6.142 -0.7691 -2.5269  1.5167
  215MOL0     H28361   5.112   3.392   6.089  1.0197 -0.6264 -0.2023
  215MOL0     H28362   6.205   3.477   6.424 -0.9389  0.4689 -1.3602
  215MOL0     H28363   6.467   3.468   6.406 -0.2006 -1.0695 -0.0256
  215MOL0     H28364   6.822   3.878   6.089 -0.0264  0.6184  1.8041
  215MOL0     H28365   7.056   3.876   6.040  0.2977 -0.8264  0.3752
  215MOL0     H28366   7.462   3.975   6.666  0.2511  0.0899  1.5698
  215MOL0     H28367   7.618   3.932   6.485 -1.2736 -1.3632 -2.9557
  215MOL0     H28368   7.711   3.866   6.082  0.2288 -1.2571 -1.8289
  215MOL0     H28369   7.895   3.822   5.924 -0.6166 -0.1905 -0.3038
  215MOL0     H28370   7.998   3.859   5.710 -1.3262  1.9071 -0.2245
  215MOL0     H28371   8.151   3.818   5.790  0.9835 -0.9328 -1.4484
  215MOL0     H28372   8.181   3.870   5.546 -0.0981 -0.5596 -0.2696
  215MOL0     H28373   8.115   4.031   5.585  3.0936  0.5657  0.3062
  215MOL0     H28374   8.356   3.918   5.730  1.1304  0.6145  0.3770
  215MOL0     H28375   8.299   4.092   5.731 -2.8689  0.1619  1.1944
  215MOL0     H28376   8.434   3.945   5.495 -0.5260 -1.9420  0.9924
  215MOL0     H28377   8.361   4.106   5.488 -3.1905 -0.3994  1.5035
  215MOL0     H28378   8.747   4.136   5.670  0.1153 -0.1419 -0.5495
  215MOL0     H28379   8.031   4.209   5.967  2.6942 -2.3736 -1.7107
  215MOL0     H28380   7.851   4.258   6.136  0.3730  0.2929 -0.2613
  216MOL0     O28381   2.073   1.199   3.734  0.7734  0.1847  0.4914
  216MOL0     C28382   2.101   1.273   3.833 -0.5688 -0.3230 -1.3166
  216MOL0     O28383   2.015   1.360   3.897 -0.2014  0.4565 -0.1956
  216MOL0     C28384   1.889   1.378   3.842  0.0588  0.4493 -0.7717
  216MOL0     C28385   1.845   1.390   3.702 -0.4076 -0.2097 -0.0849
  216MOL0     C28386   1.714   1.407   3.661 -0.2674  0.0192  0.4371
  216MOL0     C28387   1.620   1.422   3.763 -0.2448 -0.4891  0.7750
  216MOL0     O28388   1.487   1.438   3.735 -0.1162 -0.1392  0.1258
  216MOL0     C28389   1.441   1.433   3.599  0.2021 -0.2560 -0.1866
  216MOL0     C28390   1.289   1.425   3.604 -0.2746 -0.2427 -0.4445
  216MOL0     C28391   1.225   1.299   3.669 -0.5766  0.5543 -0.2728
  216MOL0     C28392   1.071   1.299   3.667 -0.3249  0.3939  0.3713
  216MOL0     C28393   1.011   1.189   3.750  0.0612  0.0684 -0.6445
  216MOL0     C28394   0.855   1.201   3.740 -0.2920  0.3929 -0.7540
  216MOL0     C28395   0.787   1.090   3.821 -0.1963 -0.2597  0.9546
  216MOL0     C28396   0.643   1.122   3.829 -0.0107  0.5592 -0.1573
  216MOL0     N28397   0.555   1.004   3.861  0.9620  1.1236  0.2315
  216MOL0     C28398   0.438   0.965   3.789  0.8049 -0.7481 -0.0349
  216MOL0     C28399   0.371   0.872   3.860  0.1585 -0.8333  0.4626
  216MOL0     C28400   0.239   0.814   3.836  0.1099  0.4503  0.5222
  216MOL0     C28401   0.134   0.872   3.928  0.7927 -0.7410  0.5073
  216MOL0     C28402  -0.012   0.854   3.877  0.0386  0.3876  0.2008
  216MOL0     C28403  -0.066   0.714   3.866  0.5634  0.6051  1.1465
  216MOL0     O28404  -0.200   0.719   3.803  0.1663  0.4100 -0.7460
  216MOL0     C28405  -0.314   0.724   3.885  0.0687  0.0794 -0.1530
  216MOL0     C28406  -0.430   0.764   3.817  1.3185 -0.0609  0.1430
  216MOL0     C28407  -0.550   0.770   3.892  0.2583 -0.5715  0.0640
  216MOL0     C28408  -0.558   0.739   4.030 -0.2324 -0.1010  0.7380
  216MOL0     C28409  -0.690   0.766   4.106 -0.2367 -0.5419  0.6283
  216MOL0     O28410  -0.691   0.800   4.250 -0.2529  0.0137  0.5044
  216MOL0     C28411  -0.811   0.817   4.316  0.0394 -0.9304 -1.1902
  216MOL0     C28412  -0.920   0.891   4.261  0.3623  0.2984 -0.2195
  216MOL0     C28413  -1.028   0.905   4.338 -0.5136  0.1419 -0.3957
  216MOL0     C28414  -1.040   0.864   4.469 -0.4539  0.5548 -0.7752
  216MOL0     O28415  -1.148   0.877   4.553  0.4880 -0.0397 -0.2632
  216MOL0     C28416  -1.254   0.958   4.510  0.0835  0.5196  0.3310
  216MOL0     C28417  -1.355   0.947   4.634 -0.6856 -0.0258 -0.0477
  216MOL0     C28418  -1.496   0.915   4.578 -0.0857 -0.0806  0.6565
  216MOL0     C28419  -1.605   0.938   4.686 -0.6464 -0.2048  0.4968
  216MOL0     C28420  -1.724   0.850   4.665 -0.2844 -0.0803 -0.4124
  216MOL0     C28421  -1.826   0.884   4.765  0.0869 -1.0902  0.3361
  216MOL0     C28422  -1.943   0.793   4.740  0.6859  0.2174  0.2159
  216MOL0     C28423  -2.035   0.779   4.857 -0.8620  0.2874 -0.6792
  216MOL0    Cl28424  -2.091   0.935   4.916  0.1638  0.4189  0.4155
  216MOL0     C28425  -0.937   0.792   4.526 -0.6382  0.4767  1.0643
  216MOL0     C28426  -0.824   0.766   4.448  0.3025  0.3155 -0.4955
  216MOL0     O28427  -0.793   0.769   4.032 -0.2057  0.2838 -0.0104
  216MOL0     C28428  -0.438   0.705   4.095 -0.3323 -0.0837  0.3157
  216MOL0     C28429  -0.318   0.695   4.020 -0.0808 -0.0147 -0.3872
  216MOL0     N28430   0.447   0.853   3.973  0.1143 -0.1079  0.6421
  216MOL0     N28431   0.553   0.921   3.971  0.0288 -0.3129  0.1836
  216MOL0     C28432   1.660   1.421   3.897  0.5895 -0.1043 -0.8318
  216MOL0     C28433   1.786   1.395   3.933  0.1066 -0.2705 -0.3152
  216MOL0     C28434   2.247   1.270   3.879 -0.4118 -0.3386 -0.1999
  216MOL0     C28435   2.334   1.178   3.824  1.1320 -0.4806  0.2976
  216MOL0     C28436   2.466   1.167   3.853 -0.3239 -0.1375  0.0567
  216MOL0     C28437   2.516   1.242   3.962 -0.9897 -0.3973 -0.5758
  216MOL0     O28438   2.643   1.249   4.009 -0.2519 -0.3899 -0.1272
  216MOL0     C28439   2.729   1.147   3.973  0.0208  0.4985 -0.0289
  216MOL0     C28440   2.875   1.157   4.026  0.4060  0.3761  0.0343
  216MOL0     C28441   2.944   1.284   3.994  0.2994  0.5267  0.3052
  216MOL0     C28442   3.095   1.294   4.051  0.1477  0.2885  0.0731
  216MOL0     C28443   3.174   1.185   3.991 -0.0056 -0.5866  0.4589
  216MOL0     C28444   3.240   1.097   3.937  0.0264  0.4211 -0.3438
  216MOL0     C28445   2.426   1.336   4.020  0.1763  0.2116 -0.5046
  216MOL0     C28446   2.298   1.350   3.981 -0.5728  0.1357  0.8641
  216MOL0     H28447   1.926   1.385   3.630  0.6062 -0.7814  1.0500
  216MOL0     H28448   1.692   1.408   3.555  0.8509 -2.4262  0.0897
  216MOL0     H28449   1.471   1.340   3.550  1.2828  1.4265 -2.9138
  216MOL0     H28450   1.471   1.516   3.534 -0.6458  0.4261  0.2705
  216MOL0     H28451   1.253   1.440   3.501 -0.1417  2.6808 -0.1525
  216MOL0     H28452   1.262   1.512   3.665 -0.8587 -0.9989  0.3947
  216MOL0     H28453   1.267   1.296   3.770 -0.7468  1.0582 -0.1894
  216MOL0     H28454   1.250   1.202   3.623  2.8365  0.2875  1.8406
  216MOL0     H28455   1.024   1.397   3.686 -0.8487  0.4620 -1.1659
  216MOL0     H28456   1.043   1.285   3.562  0.9986  0.1187  0.0359
  216MOL0     H28457   1.043   1.186   3.854 -3.9109 -0.8848  0.7000
  216MOL0     H28458   1.040   1.095   3.702 -0.3338  1.3207 -3.6085
  216MOL0     H28459   0.820   1.197   3.636  1.1250 -0.5874 -1.2189
  216MOL0     H28460   0.846   1.302   3.779  3.4744  2.3451 -4.2272
  216MOL0     H28461   0.793   0.994   3.768 -1.7093 -0.1928  0.6125
  216MOL0     H28462   0.837   1.077   3.917 -2.3661  1.0347  2.3331
  216MOL0     H28463   0.614   1.160   3.731 -2.6648  4.3168  1.8625
  216MOL0     H28464   0.621   1.198   3.903 -0.2936 -2.3325  2.9745
  216MOL0     H28465   0.405   1.007   3.694  3.2846 -0.4381 -0.8360
  216MOL0     H28466   0.253   0.707   3.855  0.4360  0.5642  0.9437
  216MOL0     H28467   0.207   0.827   3.732 -1.8224  0.4170  1.0757
  216MOL0     H28468   0.145   0.981   3.933 -0.5677 -0.6041  1.1153
  216MOL0     H28469   0.154   0.816   4.019 -2.0641 -0.0463  1.6751
  216MOL0     H28470  -0.083   0.892   3.951  1.2922 -0.0381  1.6804
  216MOL0     H28471  -0.024   0.905   3.781 -1.4914 -0.9680 -0.3800
  216MOL0     H28472  -0.062   0.659   3.961 -0.9009 -1.2692  0.1942
  216MOL0     H28473  -0.005   0.656   3.796 -1.0427  1.2398 -0.8530
  216MOL0     H28474  -0.432   0.789   3.712 -0.5221 -1.3709 -0.1956
  216MOL0     H28475  -0.637   0.801   3.834  3.5285  2.3589 -3.9025
  216MOL0     H28476  -0.938   0.937   4.165 -2.8292  1.0558  0.6284
  216MOL0     H28477  -1.105   0.950   4.277 -1.5164 -1.9520 -0.7607
  216MOL0     H28478  -1.305   0.920   4.420 -1.4190  2.3567  0.3451
  216MOL0     H28479  -1.219   1.059   4.490  1.9399 -0.0678  0.4748
  216MOL0     H28480  -1.351   1.042   4.689  0.8595 -0.2181  0.1982
  216MOL0     H28481  -1.331   0.865   4.702  0.9506  1.1235  0.8142
  216MOL0     H28482  -1.489   0.815   4.533  3.4281  1.0226 -1.7352
  216MOL0     H28483  -1.539   0.971   4.494 -0.0008 -1.5905 -0.4459
  216MOL0     H28484  -1.566   0.905   4.783 -2.2975 -2.7089  0.4072
  216MOL0     H28485  -1.635   1.042   4.673 -1.3796 -0.7127 -2.5201
  216MOL0     H28486  -1.700   0.743   4.666 -2.7440 -0.8117 -3.1796
  216MOL0     H28487  -1.768   0.866   4.566  1.1098  2.7153 -0.6791
  216MOL0     H28488  -1.857   0.988   4.753 -3.1400 -1.8479  1.2691
  216MOL0     H28489  -1.793   0.870   4.868  0.3201 -0.9208  0.2845
  216MOL0     H28490  -1.988   0.834   4.649  3.1998 -0.6849 -1.5750
  216MOL0     H28491  -1.903   0.693   4.718  0.9611  0.6356 -1.3582
  216MOL0     H28492  -1.983   0.727   4.937 -2.2958  2.0334  1.4917
  216MOL0     H28493  -2.118   0.712   4.833  0.5000 -1.7427  0.0696
  216MOL0     H28494  -0.958   0.747   4.623 -0.4267 -1.1986  0.3743
  216MOL0     H28495  -0.751   0.701   4.496 -0.3729  0.6143  0.9954
  216MOL0     H28496  -0.451   0.687   4.201 -0.4964 -1.7162  0.0453
  216MOL0     H28497  -0.231   0.651   4.066 -0.5720 -1.4986 -0.8150
  216MOL0     H28498   1.590   1.455   3.973 -1.2759  0.4266 -2.6977
  216MOL0     H28499   1.806   1.402   4.039  0.5421 -1.9228 -0.2550
  216MOL0     H28500   2.306   1.110   3.744  1.1906 -1.8516  1.3998
  216MOL0     H28501   2.530   1.095   3.801 -0.6157  0.4406 -1.1258
  216MOL0     H28502   2.740   1.133   3.866  2.2255 -2.0802  0.4222
  216MOL0     H28503   2.688   1.054   4.015  1.6293 -0.1969  0.0792
  216MOL0     H28504   2.886   1.127   4.131  0.9232 -1.9886 -0.6187
  216MOL0     H28505   2.930   1.077   3.976  1.8285  2.3987 -1.7842
  216MOL0     H28506   2.886   1.368   4.035  0.0761  0.9036 -0.7451
  216MOL0     H28507   2.936   1.305   3.887  0.7134  2.8149  0.6585
  216MOL0     H28508   3.130   1.396   4.031 -2.8904  1.3429 -0.4184
  216MOL0     H28509   3.096   1.284   4.160  2.2990  0.5745  0.1286
  216MOL0     H28510   3.292   1.027   3.875 -0.0619  0.4059 -0.4006
  216MOL0     H28511   2.448   1.397   4.107 -0.0314 -0.2541 -0.1190
  216MOL0     H28512   2.234   1.429   4.019  1.5590  0.1522  4.9388
  217MOL0     O28513   9.473   1.136   4.435 -0.0017  0.2602 -0.2485
  217MOL0     C28514   9.458   1.080   4.326 -0.7905 -0.3053 -0.1443
  217MOL0     O28515   9.344   1.026   4.280  0.1509 -0.2565 -0.4506
  217MOL0     C28516   9.237   1.009   4.364  0.2553 -0.4909 -0.1863
  217MOL0     C28517   9.194   1.088   4.472 -0.3740 -0.4635 -0.6316
  217MOL0     C28518   9.078   1.063   4.549  0.1846  0.6638 -0.6446
  217MOL0     C28519   8.993   0.956   4.512  0.0536 -0.2044  0.6972
  217MOL0     O28520   8.892   0.927   4.595  0.4734 -0.2144 -0.1974
  217MOL0     C28521   8.758   0.912   4.531 -0.0098 -0.0719 -0.0903
  217MOL0     C28522   8.675   1.038   4.563  0.7694  0.2274 -1.0000
  217MOL0     C28523   8.536   1.028   4.499 -0.8592 -0.8052  0.3992
  217MOL0     C28524   8.447   0.915   4.569  0.2324 -0.8263  0.0943
  217MOL0     C28525   8.296   0.933   4.533 -0.1974  0.8027  0.0511
  217MOL0     C28526   8.232   1.062   4.601 -0.2383 -0.6633 -0.8417
  217MOL0     C28527   8.087   1.085   4.559 -0.7781  0.6058  0.4554
  217MOL0     C28528   7.990   0.982   4.621 -0.0507 -0.0947 -0.5830
  217MOL0     N28529   7.850   1.007   4.570  0.3738  0.4633  0.3466
  217MOL0     C28530   7.752   1.063   4.643 -0.8275 -0.1630 -0.8216
  217MOL0     C28531   7.639   1.053   4.568  0.2556  0.1860 -0.0429
  217MOL0     C28532   7.495   1.083   4.603 -0.6875 -0.2006 -0.2777
  217MOL0     C28533   7.402   1.089   4.482  0.0464  0.4140  0.1305
  217MOL0     C28534   7.252   1.096   4.524 -0.1719 -0.2365  1.1379
  217MOL0     C28535   7.141   1.111   4.412 -0.2457  0.3213  0.8019
  217MOL0     O28536   7.013   1.126   4.473 -0.2199 -0.5674  0.0684
  217MOL0     C28537   6.894   1.116   4.404  0.2395 -0.1744  0.7684
  217MOL0     C28538   6.776   1.103   4.482  0.1512  0.3123  0.1040
  217MOL0     C28539   6.649   1.088   4.423 -0.2701  0.3517  0.3064
  217MOL0     C28540   6.638   1.091   4.281  0.0638  0.0631 -0.0359
  217MOL0     C28541   6.500   1.097   4.220 -0.8475 -0.2808  0.2220
  217MOL0     O28542   6.394   1.041   4.289  0.5643  0.6872 -0.4236
  217MOL0     C28543   6.268   1.039   4.233 -0.1079  0.3767 -0.2928
  217MOL0     C28544   6.197   0.924   4.264  0.1193 -0.1471 -0.0268
  217MOL0     C28545   6.061   0.928   4.230 -1.0845  0.3589 -1.2477
  217MOL0     C28546   5.998   1.043   4.174 -0.0862  0.8588 -0.2979
  217MOL0     O28547   5.864   1.047   4.149 -0.5842 -0.8308  0.7691
  217MOL0     C28548   5.772   0.998   4.243  0.1609  0.1715 -0.9905
  217MOL0     C28549   5.634   1.006   4.198 -0.3358 -0.4390  0.2690
  217MOL0     C28550   5.586   1.148   4.186  0.6785 -0.3512  0.1817
  217MOL0     C28551   5.446   1.165   4.119  0.0037  0.3411 -0.3360
  217MOL0     C28552   5.419   1.091   3.988 -0.5790  0.9132  0.1562
  217MOL0     C28553   5.279   1.134   3.930  1.2079  0.4826 -0.1969
  217MOL0     C28554   5.266   1.065   3.785  0.8644  0.7076  0.8610
  217MOL0     C28555   5.128   1.050   3.731  0.4043 -0.5144 -0.1665
  217MOL0    Cl28556   5.041   1.207   3.691 -0.3063 -0.0773  0.1019
  217MOL0     C28557   6.079   1.146   4.139  0.0905  0.4573 -0.1587
  217MOL0     C28558   6.211   1.153   4.182 -0.1943 -0.5928  0.1736
  217MOL0     O28559   6.495   1.146   4.108 -0.5644  0.4906  0.3368
  217MOL0     C28560   6.760   1.100   4.206  0.3526  0.6942 -0.4398
  217MOL0     C28561   6.889   1.107   4.264 -0.0577  0.1248  0.8275
  217MOL0     N28562   7.676   0.994   4.452  0.2802  0.6447 -0.0739
  217MOL0     N28563   7.798   0.962   4.452 -0.1667  0.3340 -0.5717
  217MOL0     C28564   9.018   0.891   4.398  0.3347 -0.1653 -0.4764
  217MOL0     C28565   9.135   0.917   4.321  0.0160  0.6739  0.1291
  217MOL0     C28566   9.575   1.086   4.231  0.6218  0.7663 -0.1905
  217MOL0     C28567   9.684   1.171   4.244  0.3083  0.3914  0.0071
  217MOL0     C28568   9.787   1.190   4.155 -0.2061  0.4454  0.1330
  217MOL0     C28569   9.790   1.115   4.039 -0.0775 -0.5134  0.5424
  217MOL0     O28570   9.892   1.154   3.949  0.3749 -0.0167 -0.0227
  217MOL0     C28571   9.895   1.093   3.823  0.7229  0.3505 -0.0667
  217MOL0     C28572   9.971   0.959   3.825  0.6218 -0.7281  0.0459
  217MOL0     C28573  10.109   0.966   3.885  0.4187 -0.0071 -0.0939
  217MOL0     C28574  10.198   1.078   3.835  0.6289 -0.2455  0.6066
  217MOL0     C28575  10.237   1.049   3.695  0.2505  0.2633  0.0791
  217MOL0     C28576  10.276   1.018   3.584 -0.0389  0.7419  0.5162
  217MOL0     C28577   9.684   1.022   4.022  0.3110  0.3302  0.4479
  217MOL0     C28578   9.578   1.004   4.116  0.3913  0.4019  0.3760
  217MOL0     H28579   9.258   1.170   4.503 -0.0102 -1.5228  1.6035
  217MOL0     H28580   9.049   1.122   4.635  0.9563 -0.4893  0.4459
  217MOL0     H28581   8.708   0.822   4.569  0.9038 -0.5395  0.0483
  217MOL0     H28582   8.770   0.907   4.423  3.0819 -1.0438  0.1896
  217MOL0     H28583   8.730   1.126   4.531 -0.2406  0.9454 -0.8026
  217MOL0     H28584   8.660   1.056   4.670 -1.8901 -0.8901 -1.0979
  217MOL0     H28585   8.554   1.012   4.393  2.6398  0.3662  0.6973
  217MOL0     H28586   8.492   1.128   4.514  0.4992  0.0085 -0.8382
  217MOL0     H28587   8.477   0.816   4.536  2.5652 -0.0450 -0.3292
  217MOL0     H28588   8.456   0.921   4.678  1.5398 -1.2535  0.0360
  217MOL0     H28589   8.233   0.850   4.565  2.9586 -1.4823  0.7541
  217MOL0     H28590   8.288   0.942   4.424  1.8256  1.1366 -0.1106
  217MOL0     H28591   8.283   1.147   4.554  0.6860  0.0351  1.3072
  217MOL0     H28592   8.239   1.060   4.710  2.3592 -3.4654 -0.9345
  217MOL0     H28593   8.050   1.186   4.577  0.9190  1.9814 -2.9757
  217MOL0     H28594   8.078   1.070   4.451  1.1934  1.4691  0.1429
  217MOL0     H28595   7.994   0.996   4.729  1.1400  2.2731 -0.8689
  217MOL0     H28596   8.021   0.878   4.604 -0.1455 -0.1111 -0.6607
  217MOL0     H28597   7.761   1.103   4.744  2.2150 -1.3422 -0.5241
  217MOL0     H28598   7.490   1.171   4.668 -0.4499 -1.0416  0.9226
  217MOL0     H28599   7.455   1.000   4.663 -1.2030 -0.4540 -0.9556
  217MOL0     H28600   7.413   0.995   4.427 -0.5704 -0.6790  1.7985
  217MOL0     H28601   7.432   1.181   4.430  4.9574  0.7859  3.0459
  217MOL0     H28602   7.224   1.005   4.577 -0.7791 -0.3483  0.6446
  217MOL0     H28603   7.245   1.179   4.595 -0.6683 -0.1211  0.9599
  217MOL0     H28604   7.147   1.021   4.351 -2.8163 -0.1134  1.0957
  217MOL0     H28605   7.165   1.202   4.357  3.0464 -0.0634  1.3904
  217MOL0     H28606   6.785   1.098   4.590  0.9390 -0.8938  0.0088
  217MOL0     H28607   6.555   1.090   4.477 -0.7756 -1.2291 -0.4681
  217MOL0     H28608   6.243   0.841   4.317 -0.6429 -0.0037  0.8871
  217MOL0     H28609   6.008   0.836   4.255  0.9221 -0.8527 -1.2026
  217MOL0     H28610   5.793   1.051   4.336 -0.1073 -1.9624  0.3670
  217MOL0     H28611   5.791   0.894   4.269  0.5988  0.1183 -1.5002
  217MOL0     H28612   5.573   0.953   4.272 -0.0053 -0.6350  0.4015
  217MOL0     H28613   5.637   0.949   4.104 -2.6811 -0.7466  0.3254
  217MOL0     H28614   5.658   1.197   4.119  0.5422 -2.4388 -1.6076
  217MOL0     H28615   5.582   1.199   4.282  1.0893 -1.7137  0.9597
  217MOL0     H28616   5.381   1.119   4.195 -0.3843  0.5480 -0.5387
  217MOL0     H28617   5.435   1.273   4.112  1.2959  0.5839  0.9155
  217MOL0     H28618   5.428   0.983   4.008  1.7600  0.5061 -2.5536
  217MOL0     H28619   5.493   1.096   3.908 -2.0285 -1.2403 -1.4365
  217MOL0     H28620   5.282   1.242   3.915  1.2705  0.2250 -2.2433
  217MOL0     H28621   5.194   1.102   3.992  1.8170 -0.5849  0.1148
  217MOL0     H28622   5.327   1.115   3.709 -1.9724  1.5434 -1.0110
  217MOL0     H28623   5.301   0.963   3.802 -1.0794 -0.2555 -0.4866
  217MOL0     H28624   5.061   0.993   3.798 -1.0761  2.4919  1.1118
  217MOL0     H28625   5.133   1.002   3.633 -0.1142  1.1021 -1.0271
  217MOL0     H28626   6.027   1.233   4.101  0.4816  0.7486 -0.0299
  217MOL0     H28627   6.274   1.242   4.182 -2.6526  1.2420 -0.6088
  217MOL0     H28628   6.753   1.103   4.097 -2.2287  1.8339 -0.3285
  217MOL0     H28629   6.976   1.126   4.203 -0.2235  0.3177  0.6474
  217MOL0     H28630   8.947   0.816   4.365 -0.7992 -0.3982  2.2870
  217MOL0     H28631   9.158   0.844   4.244 -0.5000  0.2667  0.3536
  217MOL0     H28632   9.666   1.233   4.332  0.4922 -2.5758  2.2995
  217MOL0     H28633   9.847   1.279   4.168 -0.2676  0.9120 -2.3618
  217MOL0     H28634   9.950   1.165   3.761  0.1739 -0.6400 -1.7618
  217MOL0     H28635   9.799   1.073   3.776  1.0650  1.1590 -1.1624
  217MOL0     H28636   9.913   0.884   3.878 -0.9259 -0.6279 -1.4218
  217MOL0     H28637   9.968   0.917   3.724 -1.4608  0.6140 -0.5211
  217MOL0     H28638  10.156   0.872   3.857  1.7870  0.5709  0.1941
  217MOL0     H28639  10.108   0.966   3.994  1.0680  1.6548 -0.0711
  217MOL0     H28640  10.153   1.176   3.855  0.3685 -0.3096  0.3485
  217MOL0     H28641  10.287   1.066   3.897  2.1029  2.5311 -0.7777
  217MOL0     H28642  10.316   0.971   3.496  1.5522  1.5826  0.7656
  217MOL0     H28643   9.676   0.955   3.938  0.4365 -1.2578  1.6546
  217MOL0     H28644   9.500   0.929   4.112  0.6895  0.0427  1.0778
  218MOL0     O28645   2.633   3.209   0.605 -0.5809  0.6807 -0.2038
  218MOL0     C28646   2.669   3.163   0.710 -0.3914  0.3949 -0.0456
  218MOL0     O28647   2.631   3.042   0.755 -0.6007  0.3455 -0.3094
  218MOL0     C28648   2.548   2.959   0.678 -0.0199 -0.5270 -0.4819
  218MOL0     C28649   2.409   2.978   0.676  0.3352 -0.6262 -0.4371
  218MOL0     C28650   2.328   2.907   0.587 -0.6581  0.3495 -0.7336
  218MOL0     C28651   2.393   2.819   0.497 -0.8380  0.5193  0.5156
  218MOL0     O28652   2.330   2.739   0.403 -0.0767  0.1393 -0.1640
  218MOL0     C28653   2.193   2.770   0.382  0.5112 -0.0550  1.0806
  218MOL0     C28654   2.087   2.685   0.469 -0.3197  0.3106 -0.0635
  218MOL0     C28655   1.948   2.745   0.449 -0.4830  0.7301  0.2975
  218MOL0     C28656   1.831   2.660   0.498 -0.4238  0.1654 -0.1054
  218MOL0     C28657   1.683   2.713   0.462  0.0358  0.2809 -0.6969
  218MOL0     C28658   1.584   2.622   0.537 -0.1427  0.4630  0.5046
  218MOL0     C28659   1.436   2.657   0.522  0.8869 -0.0344  0.5156
  218MOL0     C28660   1.349   2.574   0.613 -0.4275 -0.1446 -0.3458
  218MOL0     N28661   1.209   2.604   0.604 -0.5894 -1.0362  0.0096
  218MOL0     C28662   1.120   2.598   0.501 -0.4421 -0.6077 -0.1638
  218MOL0     C28663   1.004   2.631   0.553  0.0965 -0.1264 -0.4611
  218MOL0     C28664   0.881   2.639   0.472  0.7541 -0.3485 -0.1289
  218MOL0     C28665   0.763   2.633   0.573 -0.4679  0.5492 -0.6182
  218MOL0     C28666   0.627   2.613   0.505 -0.0533  0.2168 -0.7466
  218MOL0     C28667   0.526   2.634   0.608  1.2717 -0.5669  0.4012
  218MOL0     O28668   0.403   2.662   0.541 -0.3247 -0.5009 -0.1548
  218MOL0     C28669   0.290   2.674   0.623 -0.5940 -0.0182  0.3904
  218MOL0     C28670   0.293   2.690   0.762 -0.1847  0.5754  0.5218
  218MOL0     C28671   0.174   2.692   0.829  0.1620 -0.0188 -0.4139
  218MOL0     C28672   0.049   2.698   0.768  0.2680 -0.2733 -0.3139
  218MOL0     C28673  -0.072   2.711   0.852  0.5518 -0.7059 -0.4118
  218MOL0     O28674  -0.058   2.701   0.994 -0.0219  0.7379  0.2031
  218MOL0     C28675  -0.180   2.723   1.063 -0.0046 -0.1062 -0.3401
  218MOL0     C28676  -0.231   2.855   1.075 -0.0063 -0.5149  0.8969
  218MOL0     C28677  -0.338   2.881   1.162 -0.2604  0.0652  0.5603
  218MOL0     C28678  -0.412   2.775   1.213  0.8951  0.3562  1.2335
  218MOL0     O28679  -0.535   2.821   1.265  0.5168  0.4822 -0.1013
  218MOL0     C28680  -0.621   2.722   1.323 -0.6755 -0.7656  0.3474
  218MOL0     C28681  -0.733   2.794   1.390  0.1632  0.1194  0.7474
  218MOL0     C28682  -0.797   2.903   1.299 -0.3538  0.5067 -0.5257
  218MOL0     C28683  -0.945   2.926   1.341 -0.0292 -0.0337  0.8311
  218MOL0     C28684  -1.024   3.019   1.251 -0.0854  0.0886  0.0418
  218MOL0     C28685  -1.175   2.980   1.264 -0.2574 -0.0154  0.0531
  218MOL0     C28686  -1.216   2.977   1.412  0.3156 -0.2533 -0.2101
  218MOL0     C28687  -1.354   3.005   1.439  0.7881  0.2760  0.6546
  218MOL0    Cl28688  -1.459   2.945   1.318  0.4006 -0.4750  0.3798
  218MOL0     C28689  -0.374   2.643   1.190 -0.4623  0.6364 -0.0902
  218MOL0     C28690  -0.254   2.614   1.120  0.2229  0.0557  0.0177
  218MOL0     O28691  -0.184   2.722   0.795  0.7108 -0.2876  0.0791
  218MOL0     C28692   0.047   2.701   0.624  0.1893 -0.7662  0.0651
  218MOL0     C28693   0.170   2.674   0.557  0.7972 -0.6543 -0.5216
  218MOL0     N28694   1.023   2.669   0.688 -0.6972  0.5299  0.1298
  218MOL0     N28695   1.147   2.651   0.715  0.1315 -0.4735 -0.2470
  218MOL0     C28696   2.535   2.804   0.498  0.7152 -0.4576  0.1867
  218MOL0     C28697   2.608   2.867   0.595 -0.2731  0.5487  1.2900
  218MOL0     C28698   2.784   3.232   0.778  0.4394  0.0945  0.4052
  218MOL0     C28699   2.826   3.365   0.745  0.2398  0.6359  0.9171
  218MOL0     C28700   2.939   3.418   0.814  0.0602  0.6668  0.1402
  218MOL0     C28701   3.010   3.341   0.906  0.4375 -0.2237 -0.1411
  218MOL0     O28702   3.108   3.399   0.986  0.1002  0.2447  0.2812
  218MOL0     C28703   3.217   3.453   0.905  0.2971  0.1427  0.0613
  218MOL0     C28704   3.297   3.339   0.834 -0.2360  0.2714  0.2532
  218MOL0     C28705   3.418   3.387   0.760  0.2267 -0.6451  0.1699
  218MOL0     C28706   3.490   3.278   0.690 -0.0313 -0.1906  0.0859
  218MOL0     C28707   3.623   3.338   0.650  0.3222 -0.0325  0.5261
  218MOL0     C28708   3.740   3.365   0.607  0.0373 -0.8443 -0.0721
  218MOL0     C28709   2.969   3.216   0.939  0.2841  0.6927 -0.0631
  218MOL0     C28710   2.854   3.158   0.876 -0.4175  0.7287 -0.2060
  218MOL0     H28711   2.354   3.042   0.744 -2.1589 -2.9627 -0.0666
  218MOL0     H28712   2.223   2.919   0.607 -0.6233  0.5515 -0.6762
  218MOL0     H28713   2.167   2.754   0.277  1.2960  0.9131  0.7239
  218MOL0     H28714   2.187   2.879   0.392  3.3862  0.1901  0.8049
  218MOL0     H28715   2.119   2.675   0.573 -0.6496 -1.5357 -0.1059
  218MOL0     H28716   2.065   2.586   0.429 -0.7901  0.3258  0.1625
  218MOL0     H28717   1.923   2.769   0.345 -2.5425 -2.3650 -0.0187
  218MOL0     H28718   1.943   2.837   0.508  0.0073  1.0453 -0.1393
  218MOL0     H28719   1.838   2.556   0.466  2.7449  0.0256  0.7446
  218MOL0     H28720   1.830   2.665   0.607 -4.4365 -1.5174  0.1191
  218MOL0     H28721   1.672   2.706   0.354 -1.5826  1.9954 -0.7037
  218MOL0     H28722   1.674   2.822   0.475 -0.1772  0.5794 -3.0337
  218MOL0     H28723   1.604   2.629   0.645  2.2794  1.1123  0.0711
  218MOL0     H28724   1.603   2.518   0.508  1.3841  0.5839  0.9693
  218MOL0     H28725   1.414   2.764   0.533  0.0125  0.2635 -3.0347
  218MOL0     H28726   1.396   2.653   0.420  0.0107  1.8340  0.7365
  218MOL0     H28727   1.388   2.605   0.710  2.0396  0.4040 -1.4375
  218MOL0     H28728   1.372   2.468   0.605  0.4273 -0.0257  0.4488
  218MOL0     H28729   1.142   2.569   0.399  1.3349 -0.5841  0.1773
  218MOL0     H28730   0.862   2.555   0.405 -1.4676 -1.0634  1.3031
  218MOL0     H28731   0.864   2.738   0.427  1.3348 -0.3296 -0.3075
  218MOL0     H28732   0.759   2.731   0.623  2.7329  1.1188 -1.2452
  218MOL0     H28733   0.780   2.556   0.650 -1.8043  1.1649  0.3333
  218MOL0     H28734   0.615   2.694   0.434 -1.9263  1.0159  0.4023
  218MOL0     H28735   0.619   2.515   0.457  0.6568  0.7722 -2.0510
  218MOL0     H28736   0.560   2.713   0.676  1.9784 -0.9545  0.4987
  218MOL0     H28737   0.507   2.542   0.664  0.6944 -0.4502  0.4077
  218MOL0     H28738   0.378   2.703   0.828  0.0048  2.7605 -0.0982
  218MOL0     H28739   0.186   2.682   0.936 -0.3483 -0.2022 -0.3698
  218MOL0     H28740  -0.169   2.937   1.042 -1.5878  1.1197  1.8576
  218MOL0     H28741  -0.366   2.983   1.187 -4.4631 -0.0918 -2.5952
  218MOL0     H28742  -0.563   2.660   1.391  1.6814  0.9127 -0.0250
  218MOL0     H28743  -0.668   2.660   1.246 -1.4547 -0.3909  0.5127
  218MOL0     H28744  -0.707   2.846   1.483 -0.3097  1.6610  0.0303
  218MOL0     H28745  -0.801   2.708   1.398  2.5514 -1.8283  1.7288
  218MOL0     H28746  -0.798   2.869   1.195 -2.3026 -2.0857  0.2319
  218MOL0     H28747  -0.749   3.000   1.289  0.6533 -0.0582 -1.2762
  218MOL0     H28748  -0.989   2.826   1.348  2.5431 -1.3089 -0.1195
  218MOL0     H28749  -0.945   2.969   1.441 -2.0291  0.8175  0.5179
  218MOL0     H28750  -0.988   2.998   1.150 -0.4303  0.7714 -0.2316
  218MOL0     H28751  -1.012   3.125   1.275 -3.0818 -0.0183  2.6817
  218MOL0     H28752  -1.194   2.884   1.214 -0.8342  1.0767 -1.9585
  218MOL0     H28753  -1.232   3.057   1.213  1.1247 -0.0147 -1.6173
  218MOL0     H28754  -1.184   2.883   1.459 -3.2486 -1.3187  0.4102
  218MOL0     H28755  -1.167   3.061   1.461 -3.0791  2.0761 -0.4368
  218MOL0     H28756  -1.360   3.114   1.430 -2.3949  0.0049 -3.1023
  218MOL0     H28757  -1.388   2.974   1.538 -2.0836  1.0773 -0.0044
  218MOL0     H28758  -0.432   2.553   1.203 -0.5953  0.8435  0.8255
  218MOL0     H28759  -0.219   2.512   1.108  1.2208  0.2792  0.8146
  218MOL0     H28760  -0.040   2.719   0.563  0.8393  0.2479 -0.5860
  218MOL0     H28761   0.175   2.663   0.449 -1.8578 -0.5780 -0.7357
  218MOL0     H28762   2.589   2.754   0.418  0.4985 -0.7949  0.2480
  218MOL0     H28763   2.715   2.851   0.601 -0.2202  1.3605  3.5246
  218MOL0     H28764   2.784   3.415   0.658  1.3994  0.2590  0.1079
  218MOL0     H28765   2.975   3.518   0.792  2.8498 -0.3588 -0.3851
  218MOL0     H28766   3.278   3.509   0.977 -0.3608  0.2408  0.5647
  218MOL0     H28767   3.196   3.518   0.820  0.5139 -2.9601 -2.5455
  218MOL0     H28768   3.325   3.263   0.908  1.7817 -0.9894 -1.6923
  218MOL0     H28769   3.233   3.293   0.759  0.7458 -1.2895  0.3173
  218MOL0     H28770   3.482   3.432   0.837 -0.5097  1.2543 -0.2727
  218MOL0     H28771   3.396   3.467   0.689 -1.2339 -0.9899  0.2015
  218MOL0     H28772   3.510   3.189   0.750 -0.0021 -0.9365 -0.9984
  218MOL0     H28773   3.435   3.240   0.603 -2.7189  0.7055  1.2812
  218MOL0     H28774   3.839   3.382   0.570  0.4893 -0.7755  1.1431
  218MOL0     H28775   3.030   3.169   1.016 -0.9949  0.0636  0.5973
  218MOL0     H28776   2.815   3.061   0.905 -2.2114  1.1066 -1.1843
  219MOL0     O28777   6.964   8.031   8.786 -0.0416  0.4543  0.0884
  219MOL0     C28778   7.019   8.069   8.680 -0.4372  0.0572 -0.0297
  219MOL0     O28779   6.962   8.105   8.562  1.0298 -0.0664 -0.0289
  219MOL0     C28780   6.823   8.096   8.551  0.1833 -0.4277  0.3927
  219MOL0     C28781   6.786   8.069   8.419 -0.8368  1.5511 -0.5683
  219MOL0     C28782   6.654   8.050   8.389  0.4372  0.2008 -0.1895
  219MOL0     C28783   6.555   8.060   8.488  0.0335  0.2733 -1.2642
  219MOL0     O28784   6.425   8.030   8.452  0.5680 -0.2928 -0.4372
  219MOL0     C28785   6.310   8.091   8.505  0.2902  0.1833  0.3035
  219MOL0     C28786   6.201   7.977   8.514  0.3919 -0.3053 -0.5261
  219MOL0     C28787   6.063   8.033   8.549 -0.1792 -0.1463  0.3220
  219MOL0     C28788   6.001   8.113   8.435 -0.1856 -0.4901 -0.2618
  219MOL0     C28789   5.851   8.112   8.460 -0.8295 -0.6482  1.1194
  219MOL0     C28790   5.768   8.185   8.349 -0.3217  0.3429  0.2933
  219MOL0     C28791   5.625   8.164   8.383 -0.9773 -0.2687 -0.0217
  219MOL0     C28792   5.522   8.231   8.288 -0.3748  0.2274 -0.0814
  219MOL0     N28793   5.399   8.163   8.283 -0.1512  0.0689 -0.8955
  219MOL0     C28794   5.283   8.212   8.345  0.5762  0.0852 -0.0905
  219MOL0     C28795   5.186   8.121   8.310 -0.6667 -0.4384 -0.1653
  219MOL0     C28796   5.046   8.113   8.376  0.1145  1.0812 -0.0417
  219MOL0     C28797   4.938   8.056   8.274  0.3572 -0.0272 -0.1251
  219MOL0     C28798   4.882   8.155   8.175  0.2464  0.0449 -0.9796
  219MOL0     C28799   4.762   8.088   8.096 -0.2871 -0.8387  0.5223
  219MOL0     O28800   4.648   8.085   8.186 -0.7808 -0.7500 -0.8999
  219MOL0     C28801   4.531   8.020   8.135 -0.1969 -0.2733  0.4845
  219MOL0     C28802   4.511   7.942   8.022 -0.8388 -0.1273  0.6149
  219MOL0     C28803   4.397   7.892   7.969  0.3524 -0.5733 -0.2263
  219MOL0     C28804   4.280   7.925   8.048  0.1249  0.2334 -0.1290
  219MOL0     C28805   4.149   7.866   8.013 -0.4350 -0.0748 -0.0507
  219MOL0     O28806   4.118   7.815   7.894 -1.1599 -0.8831  0.4124
  219MOL0     C28807   3.999   7.743   7.893  0.5750  0.2537  0.0960
  219MOL0     C28808   3.873   7.793   7.843  0.0983 -0.2263 -0.0812
  219MOL0     C28809   3.763   7.711   7.852  0.6990 -1.0735  0.2842
  219MOL0     C28810   3.758   7.591   7.923  0.6292 -0.8019  0.1339
  219MOL0     O28811   3.638   7.532   7.934 -0.1517  0.2628  0.1748
  219MOL0     C28812   3.515   7.607   7.946  0.6197 -0.1946 -0.3721
  219MOL0     C28813   3.501   7.715   8.054  0.4443 -0.2369  0.4435
  219MOL0     C28814   3.355   7.741   8.083  1.1750 -0.3898  0.3391
  219MOL0     C28815   3.325   7.831   8.204 -0.7420 -0.1550  0.4114
  219MOL0     C28816   3.329   7.774   8.339  0.0057  0.4728 -0.3607
  219MOL0     C28817   3.204   7.690   8.368 -0.6495 -0.4885 -0.7425
  219MOL0     C28818   3.237   7.610   8.497 -0.0785  0.0827 -0.2997
  219MOL0     C28819   3.101   7.560   8.557 -0.3324 -1.5101  0.6902
  219MOL0    Cl28820   3.007   7.471   8.448  0.1460  0.0050  0.1469
  219MOL0     C28821   3.877   7.531   7.965  1.1242 -0.9484 -0.6097
  219MOL0     C28822   3.998   7.610   7.943  0.7707  0.6153  0.0546
  219MOL0     O28823   4.068   7.873   8.107 -0.2196  0.8594 -0.2746
  219MOL0     C28824   4.285   8.010   8.159  0.0137  0.2801  0.4793
  219MOL0     C28825   4.410   8.054   8.209 -0.6322 -0.5479  0.1369
  219MOL0     N28826   5.242   8.030   8.225 -0.6472 -0.1073  0.5907
  219MOL0     N28827   5.372   8.055   8.216  0.0488 -0.2357  0.9095
  219MOL0     C28828   6.594   8.114   8.614 -0.2617  0.0152 -0.0639
  219MOL0     C28829   6.730   8.134   8.645  0.7783  0.0434  0.3187
  219MOL0     C28830   7.166   8.062   8.676  0.7880  0.7296  0.1167
  219MOL0     C28831   7.240   8.101   8.558 -0.4169  1.0038 -0.6747
  219MOL0     C28832   7.385   8.087   8.553  0.5592 -0.2729 -0.5415
  219MOL0     C28833   7.454   8.038   8.665 -0.6380  0.0460 -0.0424
  219MOL0     O28834   7.588   8.011   8.665  0.5431 -0.1003 -0.5436
  219MOL0     C28835   7.616   7.887   8.597  0.1463 -0.6090  0.5702
  219MOL0     C28836   7.772   7.865   8.621 -0.0995  0.4895 -0.0756
  219MOL0     C28837   7.861   7.969   8.538  0.6852 -0.9829  0.1142
  219MOL0     C28838   8.010   7.939   8.556 -0.9524 -0.5352  0.3974
  219MOL0     C28839   8.094   8.019   8.460  0.2933  0.0856 -0.7558
  219MOL0     C28840   8.156   8.086   8.385 -0.5937  0.0400  0.4498
  219MOL0     C28841   7.379   7.996   8.781  0.7212 -0.5065 -0.9014
  219MOL0     C28842   7.236   8.012   8.788  0.4855  0.1326  0.4906
  219MOL0     H28843   6.864   8.057   8.345 -0.7845  0.2365 -0.3313
  219MOL0     H28844   6.628   8.011   8.291 -1.7893  1.4739 -0.1757
  219MOL0     H28845   6.274   8.162   8.430  0.7947 -0.5709 -0.6714
  219MOL0     H28846   6.331   8.154   8.592  2.4743  1.2097 -0.8805
  219MOL0     H28847   6.238   7.910   8.592  1.1939  0.9625  0.2132
  219MOL0     H28848   6.193   7.915   8.424  1.3529 -0.3317 -0.6085
  219MOL0     H28849   6.068   8.097   8.638  3.2493  1.9831 -1.1748
  219MOL0     H28850   5.998   7.946   8.562  0.5961 -0.7896 -0.0494
  219MOL0     H28851   6.034   8.217   8.435 -1.6040  0.0879 -3.6804
  219MOL0     H28852   6.022   8.074   8.335  0.7585 -1.9984  0.4692
  219MOL0     H28853   5.832   8.142   8.564  1.3734 -1.6462  1.8617
  219MOL0     H28854   5.826   8.006   8.465 -1.9947 -0.3452  2.7905
  219MOL0     H28855   5.790   8.147   8.249 -1.9693  2.6554 -1.0590
  219MOL0     H28856   5.786   8.293   8.352  0.1540  0.2563  1.9590
  219MOL0     H28857   5.606   8.056   8.375 -0.6116 -0.2550 -1.4354
  219MOL0     H28858   5.614   8.194   8.487 -0.5395  1.0763 -0.3453
  219MOL0     H28859   5.555   8.233   8.183  0.5662  0.3786  0.2097
  219MOL0     H28860   5.512   8.332   8.328 -2.2649  0.5989 -1.3690
  219MOL0     H28861   5.275   8.298   8.411  1.3336  0.6396 -0.6910
  219MOL0     H28862   5.017   8.215   8.404  1.5560  2.5482 -3.4073
  219MOL0     H28863   5.041   8.054   8.468 -2.2922  1.4729  0.1468
  219MOL0     H28864   4.851   8.016   8.327 -0.5075 -0.0541 -1.5018
  219MOL0     H28865   4.974   7.972   8.215  0.2995 -1.1373  1.3614
  219MOL0     H28866   4.837   8.246   8.216 -0.7290 -0.8478  0.0281
  219MOL0     H28867   4.961   8.178   8.103  1.3457  0.2267  0.2480
  219MOL0     H28868   4.800   7.992   8.061  1.0413 -0.8005  1.7449
  219MOL0     H28869   4.740   8.151   8.009 -0.0437 -0.7475  0.5265
  219MOL0     H28870   4.600   7.922   7.963 -1.7119 -0.7964 -0.5113
  219MOL0     H28871   4.406   7.830   7.880  3.3926 -1.4275  0.5210
  219MOL0     H28872   3.879   7.887   7.790 -0.0324  0.4625  1.0926
  219MOL0     H28873   3.669   7.761   7.826  1.0982 -0.5698 -0.2333
  219MOL0     H28874   3.438   7.536   7.975  1.4091  0.0982  2.8884
  219MOL0     H28875   3.484   7.659   7.856  0.3287  3.9629  1.8772
  219MOL0     H28876   3.568   7.797   8.029  0.3166 -0.5494 -1.0358
  219MOL0     H28877   3.564   7.679   8.136  0.2791  2.0596  1.6527
  219MOL0     H28878   3.299   7.649   8.099  1.8040 -1.0642 -1.1337
  219MOL0     H28879   3.312   7.789   7.995  1.5643 -0.6739 -0.0109
  219MOL0     H28880   3.408   7.902   8.199 -0.3388 -0.6213  0.3912
  219MOL0     H28881   3.229   7.882   8.193 -0.8647 -0.8006 -2.2486
  219MOL0     H28882   3.332   7.856   8.411 -0.2596 -0.1502  0.3776
  219MOL0     H28883   3.424   7.723   8.360  1.5191  2.8559 -1.0591
  219MOL0     H28884   3.172   7.623   8.288 -1.5979  2.5371 -3.1133
  219MOL0     H28885   3.120   7.757   8.389  0.5729  0.6085  0.8863
  219MOL0     H28886   3.308   7.529   8.475 -0.5226  0.3049 -2.7779
  219MOL0     H28887   3.288   7.671   8.572  2.2297  1.0894 -2.5445
  219MOL0     H28888   3.052   7.654   8.586 -1.0371 -1.9961  1.0963
  219MOL0     H28889   3.131   7.508   8.649  0.0536 -0.1401  1.3638
  219MOL0     H28890   3.873   7.438   8.021  2.1428 -0.5451  0.1633
  219MOL0     H28891   4.092   7.565   7.971  1.2163  0.9402 -0.8961
  219MOL0     H28892   4.192   8.042   8.203 -0.4888 -2.8961  2.0044
  219MOL0     H28893   4.427   8.105   8.303  1.4136 -3.5276  1.5500
  219MOL0     H28894   6.532   8.142   8.699  0.2965  3.7617 -0.7322
  219MOL0     H28895   6.764   8.171   8.741 -1.9040 -0.1466  1.4215
  219MOL0     H28896   7.194   8.124   8.463  0.5288  1.1637 -1.1099
  219MOL0     H28897   7.445   8.120   8.468  0.3256  1.0130 -0.2190
  219MOL0     H28898   7.585   7.892   8.493 -1.3629 -0.2245  1.0118
  219MOL0     H28899   7.552   7.813   8.648 -1.7815 -0.0245 -0.8988
  219MOL0     H28900   7.784   7.865   8.729 -3.1787 -2.7593  0.4421
  219MOL0     H28901   7.801   7.766   8.586  1.6325  0.7199  0.5885
  219MOL0     H28902   7.836   8.069   8.577  0.2816  1.8428 -6.2168
  219MOL0     H28903   7.839   7.964   8.431  2.2126  2.2101 -0.4933
  219MOL0     H28904   8.060   7.957   8.652  3.5818 -1.2732 -1.6067
  219MOL0     H28905   8.021   7.833   8.532  0.0738  0.0794 -2.0779
  219MOL0     H28906   8.207   8.160   8.326  1.3402 -2.8699 -1.7900
  219MOL0     H28907   7.431   7.953   8.867  1.9860  0.3850 -1.1925
  219MOL0     H28908   7.188   7.966   8.873 -3.2970 -0.0615 -1.5360
  220MOL0     O28909   9.712   8.605   3.706  0.1751  0.1260  0.1149
  220MOL0     C28910   9.803   8.637   3.788 -0.8596 -0.3262  0.6209
  220MOL0     O28911   9.783   8.706   3.900 -0.4102 -0.9258  0.1114
  220MOL0     C28912   9.651   8.749   3.920  0.2595  0.6154 -0.1543
  220MOL0     C28913   9.573   8.683   4.016 -0.7528 -0.4043 -0.7242
  220MOL0     C28914   9.434   8.726   4.039 -1.0736 -0.0578 -0.2775
  220MOL0     C28915   9.378   8.836   3.959 -0.8981  0.3414 -0.0930
  220MOL0     O28916   9.247   8.870   3.987 -0.2823 -0.0056  0.4162
  220MOL0     C28917   9.197   9.002   3.970  0.0201  0.3771  0.0480
  220MOL0     C28918   9.065   9.002   4.035  0.2653  0.0681  0.5059
  220MOL0     C28919   9.012   9.140   4.053  0.3308  0.1298 -0.0496
  220MOL0     C28920   8.884   9.141   4.142  0.0454 -0.2083  0.1092
  220MOL0     C28921   8.769   9.069   4.077  0.2097 -0.5829  0.1937
  220MOL0     C28922   8.635   9.118   4.121 -0.1442 -0.0468 -0.5333
  220MOL0     C28923   8.519   9.037   4.051 -0.6638  0.0235  0.4194
  220MOL0     C28924   8.393   9.125   4.054  0.1075 -0.5683  0.4812
  220MOL0     N28925   8.262   9.058   4.021  0.5667  0.5583  0.0667
  220MOL0     C28926   8.222   9.008   3.898  0.3218  0.5558 -0.3571
  220MOL0     C28927   8.118   8.920   3.922  0.0216  0.0711  0.3362
  220MOL0     C28928   8.044   8.825   3.833  0.0903 -0.2098 -0.8830
  220MOL0     C28929   7.989   8.874   3.695 -0.1131  0.4913  0.1586
  220MOL0     C28930   8.104   8.893   3.594  0.1394  0.3707 -0.4188
  220MOL0     C28931   8.052   8.892   3.445  0.2585  0.2860  0.1433
  220MOL0     O28932   7.936   8.972   3.436 -0.2703 -0.7498 -0.3024
  220MOL0     C28933   7.851   8.959   3.336  0.2430 -0.5261 -0.2556
  220MOL0     C28934   7.734   9.031   3.343  1.2114 -0.2007 -0.1420
  220MOL0     C28935   7.636   9.036   3.239  0.2946 -0.1841  0.6690
  220MOL0     C28936   7.661   8.968   3.112 -0.1692  0.0818 -0.2374
  220MOL0     C28937   7.573   8.986   2.988 -0.0617 -0.2972 -0.5986
  220MOL0     O28938   7.465   9.059   2.990  0.4317  0.5389 -0.6080
  220MOL0     C28939   7.387   9.090   2.889 -0.5605  0.2756 -0.0700
  220MOL0     C28940   7.273   9.161   2.924 -0.4538  0.4090  0.0282
  220MOL0     C28941   7.169   9.204   2.843  0.2479  0.7621 -0.3810
  220MOL0     C28942   7.176   9.156   2.710  0.2846 -0.5932 -0.8586
  220MOL0     O28943   7.075   9.180   2.621  0.1595  0.2125  0.8212
  220MOL0     C28944   6.939   9.208   2.674 -0.5512 -0.4243  0.2942
  220MOL0     C28945   6.853   9.211   2.552  1.0354 -0.2072  0.1262
  220MOL0     C28946   6.809   9.074   2.504 -0.7567 -0.3888  0.0755
  220MOL0     C28947   6.718   9.077   2.374 -0.1046 -0.0332  0.5105
  220MOL0     C28948   6.588   9.151   2.398  0.3956 -0.2368 -0.9410
  220MOL0     C28949   6.476   9.117   2.311  0.6382 -0.2129  0.0122
  220MOL0     C28950   6.343   9.159   2.367  0.0718  0.4560  0.1239
  220MOL0     C28951   6.238   9.203   2.253  0.2885  0.5858 -0.5853
  220MOL0    Cl28952   6.080   9.240   2.330 -0.0599 -0.2876  0.1293
  220MOL0     C28953   7.289   9.094   2.663 -0.6569 -0.4842 -0.7045
  220MOL0     C28954   7.393   9.062   2.754  0.1252  0.1593 -0.2071
  220MOL0     O28955   7.610   8.925   2.889  0.4098 -0.3696 -0.6699
  220MOL0     C28956   7.785   8.900   3.113 -0.4064  0.7464 -0.4830
  220MOL0     C28957   7.875   8.889   3.216 -0.0956 -1.0040  0.0823
  220MOL0     N28958   8.091   8.915   4.056 -0.3524  0.1602  0.3908
  220MOL0     N28959   8.170   9.010   4.105 -0.8973 -0.2002  0.4601
  220MOL0     C28960   9.462   8.901   3.870  0.0919  0.1935  0.8437
  220MOL0     C28961   9.592   8.855   3.851  0.2386  0.3914  0.7927
  220MOL0     C28962   9.946   8.616   3.746 -0.2015 -0.6049  0.4345
  220MOL0     C28963  10.064   8.656   3.822  0.4566  0.1204  0.5432
  220MOL0     C28964  10.192   8.642   3.766  0.4155 -0.4868 -0.1267
  220MOL0     C28965  10.205   8.595   3.634 -0.1427  0.6118  0.2413
  220MOL0     O28966  10.336   8.586   3.582 -0.3004  0.5998  0.5504
  220MOL0     C28967  10.361   8.546   3.446 -0.2848  0.1525 -1.2584
  220MOL0     C28968  10.497   8.590   3.405  0.5898  0.8462 -0.3790
  220MOL0     C28969  10.602   8.492   3.452 -0.4143 -0.5235 -0.5732
  220MOL0     C28970  10.736   8.551   3.408  0.8201 -0.2424  0.1401
  220MOL0     C28971  10.845   8.473   3.460  0.2675 -0.3640 -0.2912
  220MOL0     C28972  10.950   8.419   3.513  0.5674 -0.1337  0.2928
  220MOL0     C28973  10.093   8.560   3.567 -0.2598  0.5244 -0.5993
  220MOL0     C28974   9.963   8.560   3.616  0.2126 -0.4049  0.2959
  220MOL0     H28975   9.619   8.610   4.081 -0.7901 -0.5671 -0.8768
  220MOL0     H28976   9.368   8.698   4.121 -0.1810 -1.3847  0.0227
  220MOL0     H28977   9.192   9.024   3.863 -3.5784 -0.7412 -0.1379
  220MOL0     H28978   9.265   9.075   4.017  0.0287  0.9574 -0.8318
  220MOL0     H28979   9.071   8.939   4.124 -1.2437 -2.8178 -1.2601
  220MOL0     H28980   8.995   8.960   3.961  1.4229 -0.9138 -0.0716
  220MOL0     H28981   8.992   9.182   3.954  1.7322 -1.1329 -0.9081
  220MOL0     H28982   9.085   9.209   4.097 -1.1314  0.9257  1.2417
  220MOL0     H28983   8.899   9.100   4.242  0.0705 -0.5129 -0.0180
  220MOL0     H28984   8.851   9.245   4.146  2.0251  0.5352 -1.1191
  220MOL0     H28985   8.777   8.963   4.100  1.1082 -0.5218  0.1732
  220MOL0     H28986   8.780   9.093   3.971  0.2665 -1.7964 -0.0916
  220MOL0     H28987   8.642   9.222   4.085  4.8247 -0.3962 -1.3099
  220MOL0     H28988   8.630   9.119   4.230 -0.0010 -0.7875 -0.5180
  220MOL0     H28989   8.532   9.012   3.945 -1.7007  1.1197  0.0095
  220MOL0     H28990   8.485   8.944   4.098 -3.2836 -0.5323 -2.2339
  220MOL0     H28991   8.401   9.206   3.981  4.2657 -1.5127 -0.3564
  220MOL0     H28992   8.368   9.175   4.148 -3.3687  1.1373 -1.1496
  220MOL0     H28993   8.260   9.021   3.797 -2.3666  1.3642 -1.3731
  220MOL0     H28994   7.959   8.793   3.894  0.0788 -0.8714 -1.2346
  220MOL0     H28995   8.107   8.737   3.814  1.6866  0.6463  0.2093
  220MOL0     H28996   7.938   8.970   3.711  3.0083  1.8760  3.2668
  220MOL0     H28997   7.924   8.804   3.644  2.9923  0.1601 -3.8025
  220MOL0     H28998   8.157   8.988   3.603 -0.1088  0.3878  1.1036
  220MOL0     H28999   8.174   8.810   3.605  0.0846 -0.2058 -3.5077
  220MOL0     H29000   8.015   8.793   3.417 -0.2329  0.8028 -1.1032
  220MOL0     H29001   8.131   8.922   3.376  1.2547  0.1413  1.1850
  220MOL0     H29002   7.703   9.089   3.429 -0.2208  1.2215 -1.5504
  220MOL0     H29003   7.546   9.089   3.266  0.5497  0.1728  0.8276
  220MOL0     H29004   7.266   9.181   3.030  0.9191 -1.7538  0.6021
  220MOL0     H29005   7.081   9.256   2.878  1.6506  2.0773  1.4178
  220MOL0     H29006   6.947   9.305   2.723  1.0851 -0.9633  1.1475
  220MOL0     H29007   6.900   9.128   2.738 -0.6769 -0.4036  0.2434
  220MOL0     H29008   6.889   9.281   2.476 -0.9227 -0.1139 -0.7634
  220MOL0     H29009   6.758   9.255   2.584  0.4342 -1.2997 -0.0941
  220MOL0     H29010   6.767   9.018   2.588 -1.8768 -2.2700 -1.6403
  220MOL0     H29011   6.898   9.016   2.480  0.9370  2.3801 -0.7735
  220MOL0     H29012   6.764   9.132   2.292 -0.7752 -0.7862 -0.3949
  220MOL0     H29013   6.678   8.979   2.348  0.5980 -0.4523  0.9831
  220MOL0     H29014   6.594   9.260   2.392 -1.5969 -0.0681 -0.5109
  220MOL0     H29015   6.555   9.130   2.500 -3.4157 -0.9171 -2.1319
  220MOL0     H29016   6.479   9.010   2.288  0.4513 -0.3573  0.6232
  220MOL0     H29017   6.495   9.180   2.224  1.0773 -0.9485 -0.4317
  220MOL0     H29018   6.294   9.080   2.426 -0.9302  1.4535  0.6807
  220MOL0     H29019   6.348   9.243   2.437 -1.2284 -1.3743  2.5990
  220MOL0     H29020   6.233   9.119   2.183 -1.1573 -1.3499  1.6698
  220MOL0     H29021   6.271   9.291   2.197  0.4997 -0.0922 -1.5456
  220MOL0     H29022   7.284   9.067   2.558 -0.9404  2.2903 -1.5062
  220MOL0     H29023   7.486   9.032   2.706 -0.4020  0.0257 -1.1667
  220MOL0     H29024   7.820   8.853   3.022 -3.2101 -1.1595 -0.7196
  220MOL0     H29025   7.955   8.817   3.202  0.1985 -1.0485  1.8473
  220MOL0     H29026   9.426   8.985   3.812 -0.4148 -0.0715  0.7681
  220MOL0     H29027   9.651   8.895   3.769  1.6103 -5.1449 -1.3294
  220MOL0     H29028  10.067   8.694   3.924  0.2277 -1.8968  1.3311
  220MOL0     H29029  10.277   8.662   3.830  0.9774 -3.6396  0.2493
  220MOL0     H29030  10.287   8.588   3.377 -1.1210  0.6575 -0.0869
  220MOL0     H29031  10.357   8.437   3.434  1.8767 -0.2326  0.6943
  220MOL0     H29032  10.504   8.581   3.297  1.0319 -0.6735 -0.2515
  220MOL0     H29033  10.508   8.690   3.448  1.1350  0.4249  0.4774
  220MOL0     H29034  10.585   8.392   3.411  3.8366 -0.8382 -2.0379
  220MOL0     H29035  10.605   8.480   3.561  0.5956  0.0748 -0.5249
  220MOL0     H29036  10.736   8.562   3.300 -0.2675 -2.7233 -0.1783
  220MOL0     H29037  10.757   8.651   3.447  2.5682  0.1348 -1.6370
  220MOL0     H29038  11.037   8.375   3.557  3.1620  1.8891 -2.4078
  220MOL0     H29039  10.116   8.516   3.471  3.4395  1.2354 -0.1748
  220MOL0     H29040   9.873   8.534   3.560  0.4552  0.0727 -0.3229
  221MOL0     O29041   1.580   6.989   4.198 -0.0094  0.6547  0.0399
  221MOL0     C29042   1.483   6.973   4.278  0.2177 -0.1083 -0.7866
  221MOL0     O29043   1.486   6.998   4.408 -0.1587 -0.1159  0.0464
  221MOL0     C29044   1.600   7.045   4.469 -0.3623  0.6031 -0.1738
  221MOL0     C29045   1.729   7.014   4.429  0.1093 -0.2895  0.1109
  221MOL0     C29046   1.840   7.063   4.503 -0.0260  0.1601 -0.0375
  221MOL0     C29047   1.827   7.146   4.613  0.6600 -0.0730 -0.3693
  221MOL0     O29048   1.927   7.207   4.687 -0.2748 -0.3921 -0.1822
  221MOL0     C29049   2.058   7.158   4.680  1.2274 -0.4889 -0.5742
  221MOL0     C29050   2.146   7.237   4.774  0.3999 -0.6173  0.4632
  221MOL0     C29051   2.132   7.391   4.760 -0.0448  0.0932 -0.0210
  221MOL0     C29052   2.207   7.447   4.889  0.5505  0.9150 -1.0962
  221MOL0     C29053   2.120   7.454   5.020  0.1225  0.1902 -0.5144
  221MOL0     C29054   1.982   7.519   5.002  0.4192  0.1963  0.0343
  221MOL0     C29055   1.892   7.530   5.134 -0.9234  0.1866 -0.2778
  221MOL0     C29056   1.771   7.611   5.104 -0.3042  0.0294  0.3232
  221MOL0     N29057   1.684   7.554   4.996  0.8504  1.2275  0.2044
  221MOL0     C29058   1.615   7.439   5.014  0.2617 -0.0479 -0.2527
  221MOL0     C29059   1.544   7.429   4.899  0.3744  0.4554  0.6783
  221MOL0     C29060   1.434   7.327   4.859 -1.0606  0.0203  0.3490
  221MOL0     C29061   1.299   7.350   4.923  0.5471  0.9014  0.1679
  221MOL0     C29062   1.268   7.498   4.927  0.1522  0.1275  0.9239
  221MOL0     C29063   1.114   7.507   4.927  0.4183 -0.5140  0.9692
  221MOL0     O29064   1.044   7.423   5.024  0.4306 -0.4897 -0.3010
  221MOL0     C29065   0.909   7.436   5.028  0.5535  1.2828  0.3027
  221MOL0     C29066   0.832   7.538   4.963  0.2684  0.1265 -0.3863
  221MOL0     C29067   0.701   7.526   4.941  0.6112 -0.2147  0.0086
  221MOL0     C29068   0.625   7.417   4.995 -0.4148 -1.4198 -0.2774
  221MOL0     C29069   0.478   7.412   4.981 -1.0385 -0.5135 -0.1389
  221MOL0     O29070   0.409   7.353   5.090  0.1208 -1.2811  0.3136
  221MOL0     C29071   0.277   7.320   5.083 -0.2568 -0.1587  0.0343
  221MOL0     C29072   0.172   7.398   5.032 -0.8589 -0.5276  0.1070
  221MOL0     C29073   0.042   7.356   5.033 -0.9805  0.0534  0.9772
  221MOL0     C29074   0.011   7.227   5.072  0.2134  1.1272 -0.3854
  221MOL0     O29075  -0.107   7.153   5.069  0.3806 -0.1555 -0.5988
  221MOL0     C29076  -0.223   7.241   5.051 -0.5319 -0.1921  0.2373
  221MOL0     C29077  -0.341   7.158   5.045  0.5250  0.5880  0.7137
  221MOL0     C29078  -0.391   7.085   5.160 -0.0671 -0.3280  0.1753
  221MOL0     C29079  -0.534   7.041   5.135  0.5842  0.1661 -0.2387
  221MOL0     C29080  -0.601   7.019   5.270 -0.5914  0.4160 -0.3718
  221MOL0     C29081  -0.659   7.151   5.311  0.2434  0.1035 -0.7215
  221MOL0     C29082  -0.739   7.152   5.452  0.5651 -0.2638  0.9538
  221MOL0     C29083  -0.828   7.271   5.474 -0.4423 -0.0136  0.4603
  221MOL0    Cl29084  -0.956   7.266   5.339  0.0679  0.2136 -0.1762
  221MOL0     C29085   0.116   7.141   5.125 -0.3580 -0.8245  0.3441
  221MOL0     C29086   0.250   7.188   5.126  0.6454 -0.5904 -0.2629
  221MOL0     O29087   0.424   7.454   4.883  0.0013 -0.1872  0.3061
  221MOL0     C29088   0.696   7.322   5.072 -0.4736  0.1366  0.3557
  221MOL0     C29089   0.834   7.328   5.089 -0.1335 -0.5787  0.2279
  221MOL0     N29090   1.578   7.531   4.812  0.4847 -0.0271 -0.5901
  221MOL0     N29091   1.663   7.603   4.875  0.2636 -0.3201 -0.8544
  221MOL0     C29092   1.698   7.186   4.642  0.7630  0.1445 -1.0035
  221MOL0     C29093   1.587   7.130   4.576 -0.1391 -0.2782  0.1356
  221MOL0     C29094   1.352   6.944   4.218  0.0300 -0.0311  0.2698
  221MOL0     C29095   1.238   6.933   4.300  0.7497  0.4864  0.0589
  221MOL0     C29096   1.113   6.897   4.240 -0.0775 -1.6047  1.7906
  221MOL0     C29097   1.101   6.873   4.099  0.2019  0.2171 -0.2795
  221MOL0     O29098   0.985   6.847   4.031 -0.3541 -0.2593  0.1497
  221MOL0     C29099   0.877   6.793   4.099  0.1817  0.8055 -0.4935
  221MOL0     C29100   0.775   6.746   3.994  0.3996  0.2589  0.0823
  221MOL0     C29101   0.644   6.694   4.065  0.3944 -0.9334  0.3597
  221MOL0     C29102   0.546   6.631   3.965  0.6326  0.0935  0.0129
  221MOL0     C29103   0.448   6.559   4.044  0.2164 -1.0301 -0.8192
  221MOL0     C29104   0.349   6.508   4.090 -0.5099 -0.6078  0.6264
  221MOL0     C29105   1.215   6.883   4.025  0.5710 -0.8688 -0.7701
  221MOL0     C29106   1.337   6.918   4.080  0.6152 -0.1391 -0.0595
  221MOL0     H29107   1.757   6.948   4.348  1.3759  0.2357  0.0921
  221MOL0     H29108   1.942   7.039   4.471 -0.7389  0.2305 -2.6375
  221MOL0     H29109   2.094   7.170   4.577 -0.2113 -1.5832 -1.2337
  221MOL0     H29110   2.061   7.055   4.715 -0.7323  0.1663  1.7648
  221MOL0     H29111   2.253   7.218   4.768  0.3511 -1.3596  1.7884
  221MOL0     H29112   2.113   7.222   4.877  0.4505  0.6739  0.6828
  221MOL0     H29113   2.030   7.427   4.748  0.0653 -0.3851 -3.4410
  221MOL0     H29114   2.185   7.421   4.669 -0.6189  0.7784 -0.1364
  221MOL0     H29115   2.294   7.391   4.924  0.4009  0.9228 -0.7130
  221MOL0     H29116   2.242   7.548   4.867 -2.0957  1.9407 -0.9270
  221MOL0     H29117   2.168   7.499   5.107  1.7592  0.3745 -1.4806
  221MOL0     H29118   2.096   7.351   5.046  0.0913  0.3885  0.2577
  221MOL0     H29119   1.920   7.456   4.937  0.3168  0.3590 -0.0259
  221MOL0     H29120   1.994   7.613   4.948 -0.2685 -0.5723 -1.5085
  221MOL0     H29121   1.862   7.435   5.177 -1.9469 -0.2363 -1.8571
  221MOL0     H29122   1.956   7.578   5.209 -0.8978  2.8032 -1.8674
  221MOL0     H29123   1.793   7.714   5.074  2.3909 -0.7718 -0.7137
  221MOL0     H29124   1.714   7.628   5.196 -1.9987 -1.8882 -0.3233
  221MOL0     H29125   1.582   7.384   5.102 -0.9122 -0.2371 -0.7909
  221MOL0     H29126   1.468   7.224   4.873 -1.3242  0.1250  1.9501
  221MOL0     H29127   1.421   7.338   4.751 -1.9292  3.2209  0.6810
  221MOL0     H29128   1.303   7.313   5.026 -0.9555  0.4440  0.0857
  221MOL0     H29129   1.222   7.290   4.873 -0.5115  1.3533  1.1957
  221MOL0     H29130   1.309   7.540   5.019  1.4939 -1.2277  0.9931
  221MOL0     H29131   1.309   7.544   4.837  0.3574 -1.1892  0.3190
  221MOL0     H29132   1.076   7.484   4.827  0.4290 -0.6771  1.0035
  221MOL0     H29133   1.079   7.610   4.943  0.9076  0.0884 -1.4629
  221MOL0     H29134   0.881   7.623   4.918 -2.2957  3.0849  1.9841
  221MOL0     H29135   0.654   7.610   4.890 -0.1157  1.5497  3.2777
  221MOL0     H29136   0.202   7.495   4.996  0.0610 -0.1571  1.7718
  221MOL0     H29137  -0.029   7.423   4.985  1.6281  1.7238 -0.8161
  221MOL0     H29138  -0.213   7.297   4.958 -1.5142 -2.1542 -1.1113
  221MOL0     H29139  -0.233   7.313   5.133 -0.5002 -1.1893  1.1351
  221MOL0     H29140  -0.322   7.093   4.959  0.0975 -0.0845  1.1189
  221MOL0     H29141  -0.424   7.219   5.007 -0.1534 -2.2873 -2.9184
  221MOL0     H29142  -0.399   7.154   5.245 -2.9490  0.2571 -0.4386
  221MOL0     H29143  -0.320   7.007   5.186 -1.2352 -1.0332  1.3393
  221MOL0     H29144  -0.587   7.116   5.076  1.5876  1.2302  0.1769
  221MOL0     H29145  -0.527   6.942   5.088 -2.2186 -1.1977  1.9117
  221MOL0     H29146  -0.532   6.987   5.349 -1.3963  0.2304  0.2707
  221MOL0     H29147  -0.683   6.947   5.277 -2.6387  2.8281  3.9745
  221MOL0     H29148  -0.730   7.190   5.236 -1.6749  1.1095  1.4880
  221MOL0     H29149  -0.580   7.226   5.318 -1.1456  1.5043  1.3878
  221MOL0     H29150  -0.805   7.065   5.457  0.2189 -0.0861 -0.1713
  221MOL0     H29151  -0.660   7.153   5.528  0.8192  1.1036  0.6990
  221MOL0     H29152  -0.772   7.362   5.453 -2.0293  0.4644 -2.1288
  221MOL0     H29153  -0.879   7.268   5.571 -0.6141 -4.8805  0.4538
  221MOL0     H29154   0.097   7.039   5.159  0.7367 -0.2253  2.9842
  221MOL0     H29155   0.334   7.123   5.149 -0.9101 -2.8217 -0.5299
  221MOL0     H29156   0.637   7.241   5.114 -0.2552 -0.7010 -0.9176
  221MOL0     H29157   0.877   7.248   5.148  1.0475  0.1100  0.3342
  221MOL0     H29158   1.697   7.261   4.721 -0.1061 -0.4888 -0.3966
  221MOL0     H29159   1.486   7.159   4.603 -0.2312 -1.2411  0.8798
  221MOL0     H29160   1.233   6.952   4.407 -0.2248  2.1370 -0.2497
  221MOL0     H29161   1.022   6.903   4.300 -1.0407 -1.0103  0.3203
  221MOL0     H29162   0.816   6.854   4.166 -3.0811 -1.2001 -1.4129
  221MOL0     H29163   0.914   6.707   4.156  3.8144  1.0518 -2.2011
  221MOL0     H29164   0.761   6.833   3.929  4.1150  2.9154  2.4159
  221MOL0     H29165   0.826   6.659   3.952  2.8002  1.6928 -0.1752
  221MOL0     H29166   0.597   6.774   4.122  2.0739 -1.8481  3.2504
  221MOL0     H29167   0.677   6.619   4.138 -0.4893  0.0870  1.8785
  221MOL0     H29168   0.491   6.710   3.914 -1.5329 -2.3162 -1.6383
  221MOL0     H29169   0.606   6.579   3.890 -0.7842 -0.3569 -0.8400
  221MOL0     H29170   0.253   6.471   4.120 -0.3836 -0.8795  0.6992
  221MOL0     H29171   1.207   6.862   3.919 -0.9110  0.4041 -0.9565
  221MOL0     H29172   1.414   6.928   4.005  1.4710 -1.0022  0.6813
  222MOL0     O29173   0.356   4.053   1.813  0.0396 -0.3014 -0.4949
  222MOL0     C29174   0.389   4.061   1.936  0.1873  0.5913  0.4194
  222MOL0     O29175   0.319   4.035   2.041  0.2411  0.0405 -0.0892
  222MOL0     C29176   0.173   4.036   2.035 -0.1041  0.0931 -0.1591
  222MOL0     C29177   0.107   4.133   2.106  0.0170 -0.0317 -0.0194
  222MOL0     C29178  -0.029   4.125   2.118 -0.4447 -0.1305  0.1941
  222MOL0     C29179  -0.100   4.014   2.059 -0.3251  0.0314 -0.4727
  222MOL0     O29180  -0.238   4.019   2.071  0.3281 -0.0964  0.6063
  222MOL0     C29181  -0.320   3.901   2.047 -0.0069  0.6255  0.4608
  222MOL0     C29182  -0.460   3.929   2.090  0.2204 -0.2321  0.2142
  222MOL0     C29183  -0.474   3.908   2.238 -0.4528 -0.0286  0.0996
  222MOL0     C29184  -0.599   3.976   2.309  0.3300  0.3454  0.0684
  222MOL0     C29185  -0.727   3.920   2.247 -0.1885 -0.2056  0.0861
  222MOL0     C29186  -0.853   3.959   2.314 -0.7116  0.7159  0.3331
  222MOL0     C29187  -0.868   3.909   2.454 -0.8619 -0.5361  0.5124
  222MOL0     C29188  -0.991   3.949   2.531 -0.2700  0.5683  0.4801
  222MOL0     N29189  -1.028   4.092   2.503  0.6295  0.4617  0.2583
  222MOL0     C29190  -1.141   4.129   2.432 -0.0012 -0.6475 -0.1689
  222MOL0     C29191  -1.138   4.268   2.447 -0.4105  0.6856  0.7579
  222MOL0     C29192  -1.248   4.365   2.400 -0.7189 -0.5280 -0.5573
  222MOL0     C29193  -1.331   4.425   2.514 -0.0500  0.0276  0.2706
  222MOL0     C29194  -1.477   4.378   2.497  0.1110 -0.3719  0.1456
  222MOL0     C29195  -1.562   4.381   2.629  0.4029 -0.4867 -0.0329
  222MOL0     O29196  -1.601   4.527   2.647 -0.2822  0.3524  0.3394
  222MOL0     C29197  -1.698   4.549   2.739  0.0044 -0.0724 -0.2716
  222MOL0     C29198  -1.724   4.460   2.843 -0.2273 -0.0168 -0.8436
  222MOL0     C29199  -1.832   4.475   2.926  0.0283  0.3888  0.1929
  222MOL0     C29200  -1.921   4.578   2.914  0.4919 -0.2694 -0.9138
  222MOL0     C29201  -2.039   4.580   3.001  0.0146 -0.6124  0.0635
  222MOL0     O29202  -2.088   4.712   3.017 -0.5496  0.0409  0.2604
  222MOL0     C29203  -2.178   4.716   3.111 -0.1447 -0.8111 -0.5025
  222MOL0     C29204  -2.129   4.728   3.245 -0.2429 -0.0233 -0.3741
  222MOL0     C29205  -2.229   4.735   3.350 -0.1373  1.3054 -0.0287
  222MOL0     C29206  -2.363   4.715   3.330  0.6969  0.1043 -0.7663
  222MOL0     O29207  -2.451   4.706   3.435 -0.0148 -0.0243  0.2587
  222MOL0     C29208  -2.413   4.669   3.575  0.4894 -0.1906  0.9603
  222MOL0     C29209  -2.541   4.670   3.656  0.9797  0.7943 -0.6395
  222MOL0     C29210  -2.531   4.622   3.803 -0.0744 -0.4614 -0.1280
  222MOL0     C29211  -2.649   4.655   3.888  0.5562 -0.8858  0.3546
  222MOL0     C29212  -2.647   4.611   4.034  0.3019 -0.3275  0.2282
  222MOL0     C29213  -2.602   4.472   4.045  0.2495  1.0629 -0.1246
  222MOL0     C29214  -2.652   4.395   4.165  0.3827  0.3264  0.8631
  222MOL0     C29215  -2.627   4.247   4.144  0.6251 -0.0662  0.4206
  222MOL0    Cl29216  -2.675   4.153   4.287  0.0213  0.1902 -0.0958
  222MOL0     C29217  -2.407   4.698   3.196  0.1481  0.1563 -0.3286
  222MOL0     C29218  -2.312   4.692   3.091  0.1748  0.0408  1.2318
  222MOL0     O29219  -2.092   4.481   3.039  0.2859  0.8114  1.0209
  222MOL0     C29220  -1.895   4.681   2.817  0.2978 -0.1757 -0.1855
  222MOL0     C29221  -1.784   4.669   2.733 -0.3624 -0.0601  0.0100
  222MOL0     N29222  -1.028   4.300   2.518 -0.4370 -0.3151  0.2920
  222MOL0     N29223  -0.963   4.196   2.550  0.5806  0.0084 -0.5192
  222MOL0     C29224  -0.035   3.924   1.977  0.0697  0.1773 -0.2576
  222MOL0     C29225   0.104   3.936   1.969  0.5430 -0.0945  0.7483
  222MOL0     C29226   0.530   4.114   1.957 -0.3725 -0.6786 -0.9390
  222MOL0     C29227   0.627   4.130   1.856  0.4639  0.3076 -0.2029
  222MOL0     C29228   0.756   4.171   1.893 -0.4682 -0.0338  0.1718
  222MOL0     C29229   0.798   4.191   2.024  1.4067  0.1388  0.2159
  222MOL0     O29230   0.920   4.220   2.067 -0.7056  0.1817  0.1991
  222MOL0     C29231   1.032   4.189   1.983 -0.1939 -0.9214 -0.3557
  222MOL0     C29232   1.069   4.297   1.885 -0.6955  0.4365  1.0868
  222MOL0     C29233   1.188   4.242   1.801 -0.0153  0.2872  0.6750
  222MOL0     C29234   1.285   4.355   1.771 -0.2243 -0.0200  0.3494
  222MOL0     C29235   1.250   4.437   1.655 -0.4965  0.0622 -0.4479
  222MOL0     C29236   1.228   4.515   1.559  0.1006 -0.0952 -0.1317
  222MOL0     C29237   0.701   4.184   2.118 -0.9238 -0.4972  0.7542
  222MOL0     C29238   0.570   4.157   2.089  0.0172  0.3393  0.2444
  222MOL0     H29239   0.169   4.217   2.133  0.8251  0.2425 -2.4438
  222MOL0     H29240  -0.086   4.208   2.157 -2.6279 -1.4556 -0.0005
  222MOL0     H29241  -0.275   3.810   2.089 -0.2876 -0.0293 -0.6192
  222MOL0     H29242  -0.327   3.875   1.941  2.7865 -2.9083  0.9377
  222MOL0     H29243  -0.527   3.859   2.039 -1.5632  3.0993 -2.4871
  222MOL0     H29244  -0.493   4.030   2.063 -0.3987 -0.2194  1.0096
  222MOL0     H29245  -0.393   3.963   2.285 -0.1641  1.2939 -1.8126
  222MOL0     H29246  -0.462   3.804   2.268  3.0836 -0.0124 -0.8078
  222MOL0     H29247  -0.592   3.953   2.416 -1.0549 -2.7924 -0.4284
  222MOL0     H29248  -0.598   4.082   2.281  1.6630 -0.1103 -1.8423
  222MOL0     H29249  -0.717   3.811   2.244  3.2902  0.0362 -0.4279
  222MOL0     H29250  -0.734   3.946   2.141 -3.3726  0.9665  0.4702
  222MOL0     H29251  -0.929   3.920   2.246  0.5705 -1.8718  0.2578
  222MOL0     H29252  -0.863   4.068   2.321 -0.1176  0.6710  4.1439
  222MOL0     H29253  -0.846   3.802   2.449  2.7850  0.1112 -0.2186
  222MOL0     H29254  -0.791   3.948   2.521  0.4822 -0.9971 -0.7253
  222MOL0     H29255  -0.980   3.925   2.637 -0.3820  0.4287  0.4605
  222MOL0     H29256  -1.070   3.879   2.500  0.0725 -0.3811  1.6779
  222MOL0     H29257  -1.217   4.073   2.381  1.3334 -1.6288 -1.1345
  222MOL0     H29258  -1.312   4.314   2.328 -1.3407 -0.5087 -0.0257
  222MOL0     H29259  -1.196   4.455   2.365  0.9985  0.3844  3.6712
  222MOL0     H29260  -1.341   4.533   2.499 -1.8696 -0.2828 -1.0909
  222MOL0     H29261  -1.294   4.395   2.612  0.9589 -1.6696 -0.5836
  222MOL0     H29262  -1.518   4.443   2.419  1.4993 -1.5270 -1.6243
  222MOL0     H29263  -1.485   4.275   2.461 -1.1859 -0.2116 -0.0993
  222MOL0     H29264  -1.502   4.342   2.711 -2.4967  0.9416  2.9876
  222MOL0     H29265  -1.650   4.319   2.610  0.8470 -0.6947 -1.5772
  222MOL0     H29266  -1.661   4.372   2.855 -0.1218  0.2500  0.8360
  222MOL0     H29267  -1.842   4.397   3.002 -2.2626  0.6096  0.1951
  222MOL0     H29268  -2.025   4.753   3.264 -0.7476  1.2585  0.8078
  222MOL0     H29269  -2.195   4.759   3.450  0.2433 -2.0584  0.7572
  222MOL0     H29270  -2.342   4.744   3.611 -1.6557  1.1310  2.7157
  222MOL0     H29271  -2.352   4.578   3.578  0.9893  0.1576  3.4905
  222MOL0     H29272  -2.607   4.601   3.603  0.5120 -0.2972  1.2602
  222MOL0     H29273  -2.580   4.771   3.646  1.2733  0.8383 -1.4186
  222MOL0     H29274  -2.438   4.661   3.844 -0.2497 -2.3488  2.3186
  222MOL0     H29275  -2.511   4.514   3.797  0.2823 -0.4389  0.5618
  222MOL0     H29276  -2.668   4.761   3.872  1.1595 -0.8894 -0.4789
  222MOL0     H29277  -2.743   4.615   3.849  0.1794  0.7905 -0.5443
  222MOL0     H29278  -2.746   4.627   4.076  0.7785  1.5922  0.7339
  222MOL0     H29279  -2.566   4.657   4.091  1.5682 -2.3869  0.1660
  222MOL0     H29280  -2.493   4.460   4.048 -0.0136 -1.9073  0.6935
  222MOL0     H29281  -2.637   4.418   3.957  0.9532 -1.1558  0.8819
  222MOL0     H29282  -2.600   4.417   4.259  1.8231 -0.8313  0.3608
  222MOL0     H29283  -2.759   4.408   4.182  0.1502 -2.6058  2.2030
  222MOL0     H29284  -2.527   4.223   4.108 -0.1627 -0.1870 -1.8457
  222MOL0     H29285  -2.698   4.225   4.064 -2.5901  3.0211  2.1147
  222MOL0     H29286  -2.510   4.685   3.165 -0.4287  1.6506  0.8213
  222MOL0     H29287  -2.348   4.670   2.991 -0.5996 -3.9451  2.2346
  222MOL0     H29288  -1.936   4.781   2.818 -1.5302 -0.8898  0.0689
  222MOL0     H29289  -1.766   4.740   2.652 -1.4202  1.3568  0.9638
  222MOL0     H29290  -0.084   3.841   1.926  2.0163 -0.8946 -0.4737
  222MOL0     H29291   0.149   3.853   1.915 -0.5482 -0.2679  0.0770
  222MOL0     H29292   0.604   4.122   1.751 -1.2250  2.0676 -0.0159
  222MOL0     H29293   0.826   4.189   1.812  0.0439 -0.0505  0.6017
  222MOL0     H29294   1.021   4.093   1.931  0.8991  0.5798 -3.6168
  222MOL0     H29295   1.123   4.183   2.043  0.6251  0.5893 -1.3821
  222MOL0     H29296   0.984   4.329   1.824  1.5191  0.0563 -2.4935
  222MOL0     H29297   1.093   4.385   1.947 -2.3779  0.8975  1.1260
  222MOL0     H29298   1.153   4.205   1.704  2.7567  0.9086 -0.6708
  222MOL0     H29299   1.236   4.160   1.855 -0.5119  0.2053  0.9895
  222MOL0     H29300   1.299   4.425   1.854 -1.0551  0.5748 -0.0089
  222MOL0     H29301   1.388   4.320   1.757 -0.2305  0.7507 -2.0491
  222MOL0     H29302   1.211   4.575   1.472  0.3312 -0.2022 -0.2500
  222MOL0     H29303   0.726   4.208   2.221 -1.9415  0.8000  0.7224
  222MOL0     H29304   0.505   4.146   2.176 -0.2938  1.4105  0.1661
  223MOL0     O29305   5.813   6.113   8.850  0.5529 -0.7399 -0.4802
  223MOL0     C29306   5.894   6.019   8.844 -0.3624  0.3339 -0.3118
  223MOL0     O29307   5.873   5.891   8.884  0.5895  1.1605 -0.3606
  223MOL0     C29308   5.746   5.857   8.916 -0.0368  0.4706  0.4516
  223MOL0     C29309   5.677   5.792   8.814  0.4334 -0.0351 -0.6093
  223MOL0     C29310   5.543   5.750   8.834  1.0876  0.5428  0.1176
  223MOL0     C29311   5.470   5.774   8.949  0.0596 -0.2087  0.2451
  223MOL0     O29312   5.341   5.737   8.967 -0.5031 -0.1892  0.5510
  223MOL0     C29313   5.294   5.659   8.857 -0.3942  0.1140  0.2867
  223MOL0     C29314   5.150   5.617   8.873 -0.2809 -0.2424  0.1475
  223MOL0     C29315   5.054   5.732   8.858  1.5082 -0.4045  0.3562
  223MOL0     C29316   4.914   5.676   8.855 -0.3234 -0.2809 -0.2636
  223MOL0     C29317   4.807   5.790   8.857  0.3241 -0.0830 -0.1155
  223MOL0     C29318   4.675   5.728   8.843  0.2465  0.2133 -1.0028
  223MOL0     C29319   4.561   5.824   8.865 -0.3268  0.0285 -0.1719
  223MOL0     C29320   4.534   5.917   8.741  0.0051 -0.1692 -0.4220
  223MOL0     N29321   4.388   5.949   8.733 -0.4472  0.5700 -0.5037
  223MOL0     C29322   4.322   6.027   8.824  0.3718  0.4065  0.0337
  223MOL0     C29323   4.197   6.039   8.768 -0.3433  0.2491  0.3880
  223MOL0     C29324   4.087   6.107   8.838 -0.1469 -0.8392  0.0623
  223MOL0     C29325   4.027   5.996   8.927  0.9355 -0.0537  0.0866
  223MOL0     C29326   3.925   6.041   9.036 -0.2201  0.1491  1.2780
  223MOL0     C29327   3.797   6.087   8.968 -0.8122 -0.4028  0.0053
  223MOL0     O29328   3.729   5.985   8.894 -0.7013  0.3009  0.7800
  223MOL0     C29329   3.620   6.016   8.816 -0.2840  0.4659 -0.7772
  223MOL0     C29330   3.549   6.131   8.824  0.4697 -0.1049  0.3366
  223MOL0     C29331   3.416   6.145   8.776  0.1723  0.0187  0.1967
  223MOL0     C29332   3.364   6.047   8.698 -0.0197 -0.3535  0.4223
  223MOL0     C29333   3.233   6.055   8.631 -0.2551  0.6821 -0.5270
  223MOL0     O29334   3.176   5.943   8.577 -0.1173 -0.0349 -0.6850
  223MOL0     C29335   3.054   5.959   8.528  0.1020  0.3293 -0.2324
  223MOL0     C29336   2.950   6.016   8.598  0.0158 -0.4117 -0.4124
  223MOL0     C29337   2.823   6.026   8.545  0.3087 -0.5696 -0.0860
  223MOL0     C29338   2.787   5.973   8.419 -0.0875  0.0540  0.1455
  223MOL0     O29339   2.654   5.985   8.387 -0.5255 -0.0946 -0.3626
  223MOL0     C29340   2.591   5.875   8.323  0.4305 -0.4481  0.6175
  223MOL0     C29341   2.442   5.915   8.297  0.2639 -0.0738  1.0437
  223MOL0     C29342   2.368   5.807   8.213 -0.5432  0.1342 -0.2903
  223MOL0     C29343   2.224   5.854   8.169 -0.5106 -0.0320  0.0655
  223MOL0     C29344   2.153   5.762   8.067  0.2669 -0.0094 -1.0383
  223MOL0     C29345   2.004   5.796   8.052 -0.1773  0.2683 -0.1849
  223MOL0     C29346   1.964   5.906   7.951  0.6816 -0.3039 -1.0544
  223MOL0     C29347   1.830   5.957   7.983 -0.3568  0.4000 -0.5464
  223MOL0    Cl29348   1.706   5.826   8.005 -0.2641  0.0291  0.1339
  223MOL0     C29349   2.889   5.907   8.346  0.2859 -0.1414  0.0130
  223MOL0     C29350   3.014   5.893   8.401 -0.7551  0.1383  0.1622
  223MOL0     O29351   3.189   6.170   8.629  0.4946  0.3454  0.1342
  223MOL0     C29352   3.440   5.929   8.678 -0.4920 -0.1203  0.2421
  223MOL0     C29353   3.568   5.913   8.737  0.1451 -0.2398  0.0210
  223MOL0     N29354   4.193   5.977   8.637  0.1122  0.0838  0.4469
  223MOL0     N29355   4.309   5.925   8.624  0.2590 -0.6111 -0.5931
  223MOL0     C29356   5.540   5.843   9.051 -0.0303 -0.1375 -0.4260
  223MOL0     C29357   5.675   5.875   9.040 -1.0234 -0.0416 -0.3183
  223MOL0     C29358   6.033   6.047   8.798  0.5195  0.3395  0.4935
  223MOL0     C29359   6.136   5.949   8.791 -0.3015 -0.0575  0.0488
  223MOL0     C29360   6.269   5.984   8.770 -0.6616  0.6047  0.5010
  223MOL0     C29361   6.313   6.122   8.773  1.0035 -0.0672  0.1355
  223MOL0     O29362   6.432   6.173   8.753 -0.1974 -0.6249 -0.3501
  223MOL0     C29363   6.543   6.076   8.761  0.2375  0.7306 -0.5373
  223MOL0     C29364   6.676   6.143   8.734  0.4729  0.2729  0.5415
  223MOL0     C29365   6.795   6.060   8.693 -0.5646 -0.2240  0.0755
  223MOL0     C29366   6.925   6.139   8.713  0.7864  0.0146 -0.3095
  223MOL0     C29367   7.030   6.055   8.685 -0.4448 -0.1871  0.4850
  223MOL0     C29368   7.134   5.991   8.661  0.3010 -0.4753 -0.1491
  223MOL0     C29369   6.212   6.215   8.776  0.0789 -1.0497  0.4036
  223MOL0     C29370   6.074   6.186   8.779  0.3029 -0.1318  0.5769
  223MOL0     H29371   5.728   5.772   8.720  0.5472 -2.5675 -0.0743
  223MOL0     H29372   5.514   5.689   8.750  3.0733  1.6211 -1.4414
  223MOL0     H29373   5.362   5.574   8.842 -0.2590  0.6555 -2.7407
  223MOL0     H29374   5.305   5.717   8.765  1.6031 -0.4827  0.0913
  223MOL0     H29375   5.142   5.574   8.973 -1.8873 -0.1251  0.0881
  223MOL0     H29376   5.121   5.534   8.808  0.4923 -1.1951  0.9740
  223MOL0     H29377   5.071   5.790   8.767 -1.9821 -1.3441 -1.0417
  223MOL0     H29378   5.074   5.795   8.946 -0.5269 -0.4895  0.9393
  223MOL0     H29379   4.909   5.612   8.766 -0.6245 -1.9237  0.8728
  223MOL0     H29380   4.916   5.603   8.936  0.8949 -1.1215 -0.9998
  223MOL0     H29381   4.828   5.868   8.783 -4.3466  0.5710 -1.1196
  223MOL0     H29382   4.813   5.839   8.954  1.1434 -0.5992  0.1010
  223MOL0     H29383   4.674   5.664   8.932  0.4720  0.7968 -0.5724
  223MOL0     H29384   4.668   5.672   8.749 -1.2856  2.1877 -2.1317
  223MOL0     H29385   4.469   5.770   8.892 -0.0805  0.0429  0.7173
  223MOL0     H29386   4.582   5.884   8.954  0.2989 -1.0171  0.4053
  223MOL0     H29387   4.561   5.871   8.646 -2.3532 -0.0832 -1.1819
  223MOL0     H29388   4.577   6.017   8.752 -1.9899  0.7511 -0.6670
  223MOL0     H29389   4.357   6.072   8.917  1.4111 -1.7540  0.7852
  223MOL0     H29390   4.015   6.157   8.772  1.9417  4.7718  1.4255
  223MOL0     H29391   4.133   6.187   8.897  1.9052 -2.0453  0.1889
  223MOL0     H29392   4.109   5.953   8.985 -0.3046  0.4229  2.3580
  223MOL0     H29393   3.982   5.921   8.862  1.4286 -0.8032  0.5986
  223MOL0     H29394   3.903   5.951   9.093 -2.5655  0.1379  0.4512
  223MOL0     H29395   3.970   6.119   9.099  2.4388  1.8807 -2.4159
  223MOL0     H29396   3.816   6.163   8.891  1.1744  0.6607  1.4544
  223MOL0     H29397   3.727   6.119   9.046 -1.1810 -1.6097  0.1798
  223MOL0     H29398   3.588   6.210   8.887  1.5941 -0.5880  0.2663
  223MOL0     H29399   3.365   6.234   8.810  1.0776 -0.0232  1.7636
  223MOL0     H29400   2.966   6.045   8.701  0.8661  0.4592 -0.7744
  223MOL0     H29401   2.745   6.069   8.607  1.0005 -2.0524  1.9021
  223MOL0     H29402   2.604   5.786   8.384  1.0976 -1.3145 -0.7367
  223MOL0     H29403   2.633   5.865   8.222 -0.4185  0.5032  0.1374
  223MOL0     H29404   2.432   6.012   8.248  0.8928 -0.4103  0.2130
  223MOL0     H29405   2.392   5.934   8.392 -1.3623 -0.9417  0.4096
  223MOL0     H29406   2.345   5.718   8.273 -0.0135  0.5293  0.5092
  223MOL0     H29407   2.439   5.775   8.135  1.4001 -1.1885  1.8677
  223MOL0     H29408   2.161   5.856   8.258 -1.8371 -0.0989 -0.8329
  223MOL0     H29409   2.227   5.957   8.132  0.1532 -0.1838 -0.3120
  223MOL0     H29410   2.168   5.664   8.113  0.7870  0.0958 -0.9772
  223MOL0     H29411   2.205   5.767   7.971 -1.0713 -0.7258 -1.8314
  223MOL0     H29412   1.954   5.814   8.148  0.8737  0.1035  0.4116
  223MOL0     H29413   1.960   5.704   8.015 -0.5861  1.1525 -2.0038
  223MOL0     H29414   2.038   5.987   7.956 -1.4478  1.7381 -0.9398
  223MOL0     H29415   1.955   5.867   7.849  1.2070  0.4390 -1.3939
  223MOL0     H29416   1.797   6.022   7.902  1.5714  0.8580 -1.0124
  223MOL0     H29417   1.845   6.016   8.074 -0.4250  0.0918 -0.3341
  223MOL0     H29418   2.860   5.865   8.250  1.2487 -0.8081 -0.0048
  223MOL0     H29419   3.099   5.848   8.350  0.3574  0.6754  1.4941
  223MOL0     H29420   3.392   5.845   8.628 -2.5112  1.1038  0.0063
  223MOL0     H29421   3.615   5.816   8.739  1.6950  0.4786  1.8199
  223MOL0     H29422   5.484   5.881   9.136 -2.0076  2.5026 -2.6991
  223MOL0     H29423   5.720   5.923   9.127  1.7082 -0.8937 -1.1614
  223MOL0     H29424   6.116   5.843   8.804 -1.4867  0.0955 -0.3705
  223MOL0     H29425   6.337   5.900   8.767  0.2597  1.3253  0.5925
  223MOL0     H29426   6.536   6.004   8.678  2.5100 -0.0944 -0.0822
  223MOL0     H29427   6.531   6.018   8.853 -1.0379  1.2381 -0.3617
  223MOL0     H29428   6.661   6.213   8.651  1.6294 -0.0658  0.0230
  223MOL0     H29429   6.694   6.199   8.826 -0.2811  1.0845  0.2048
  223MOL0     H29430   6.782   6.034   8.588 -1.0234  1.2355 -0.2566
  223MOL0     H29431   6.803   5.986   8.773  0.5937  0.9788  1.1306
  223MOL0     H29432   6.919   6.233   8.657  1.7717  0.1641 -0.1854
  223MOL0     H29433   6.948   6.177   8.813  0.8463  3.1124 -1.3844
  223MOL0     H29434   7.223   5.936   8.637 -0.2217 -1.3860 -0.0618
  223MOL0     H29435   6.248   6.317   8.769 -1.0065 -0.7780 -2.0872
  223MOL0     H29436   5.992   6.257   8.777 -1.6544 -2.2879  0.5544
  224MOL0     O29437   5.430   2.809  10.525  0.4535 -0.2654  0.1163
  224MOL0     C29438   5.492   2.916  10.512  0.1284  0.6596  0.1001
  224MOL0     O29439   5.443   3.045  10.503 -0.0405  0.1139 -0.0232
  224MOL0     C29440   5.315   3.089  10.491  0.2837  0.6593  0.3122
  224MOL0     C29441   5.301   3.224  10.469 -0.5398  0.2454  0.3349
  224MOL0     C29442   5.175   3.275  10.462 -0.3411  0.3860 -0.3941
  224MOL0     C29443   5.057   3.191  10.472 -0.5984 -0.0762 -0.2440
  224MOL0     O29444   4.943   3.259  10.449 -0.3033  0.1776  0.1679
  224MOL0     C29445   4.815   3.198  10.431  0.4093  0.6873 -0.4467
  224MOL0     C29446   4.702   3.299  10.436 -0.5437 -0.1006  0.0271
  224MOL0     C29447   4.566   3.239  10.461 -0.0054 -0.0013 -0.4181
  224MOL0     C29448   4.462   3.345  10.425  0.1772 -0.1672  0.6363
  224MOL0     C29449   4.327   3.279  10.443  0.7545 -0.6879  0.7916
  224MOL0     C29450   4.217   3.384  10.425  0.2432 -0.3195  0.3610
  224MOL0     C29451   4.072   3.335  10.454 -0.1076 -0.3421 -0.0423
  224MOL0     C29452   3.972   3.449  10.438  0.6999  0.4814  1.1479
  224MOL0     N29453   3.831   3.398  10.424 -0.1264 -0.0950 -0.0148
  224MOL0     C29454   3.770   3.330  10.527  0.0998  0.2430 -0.2158
  224MOL0     C29455   3.643   3.303  10.490  0.4101  0.5126  0.3933
  224MOL0     C29456   3.528   3.230  10.556  0.4766 -0.6172 -0.2147
  224MOL0     C29457   3.455   3.338  10.641 -0.8623  0.1567  0.1742
  224MOL0     C29458   3.342   3.274  10.729  0.5503 -0.0095 -0.7543
  224MOL0     C29459   3.210   3.218  10.646 -1.1240 -0.7077  0.4895
  224MOL0     O29460   3.102   3.314  10.663  0.1997  0.1406 -0.0982
  224MOL0     C29461   2.989   3.286  10.592  0.2373 -0.0270  0.1855
  224MOL0     C29462   2.961   3.168  10.518  0.9987  0.4637  0.3736
  224MOL0     C29463   2.842   3.150  10.447  0.3279 -0.6772  0.4754
  224MOL0     C29464   2.754   3.258  10.435 -0.5615  0.3412 -0.1751
  224MOL0     C29465   2.623   3.248  10.354 -0.3161 -0.5587  0.5023
  224MOL0     O29466   2.529   3.354  10.369 -1.0015  0.0467  0.8102
  224MOL0     C29467   2.407   3.318  10.320  0.4972 -0.3806  0.0371
  224MOL0     C29468   2.299   3.331  10.411  0.7771 -1.0144 -0.3616
  224MOL0     C29469   2.160   3.309  10.375 -0.5622 -0.0583 -0.2048
  224MOL0     C29470   2.136   3.279  10.239 -0.7810  0.4554  0.3027
  224MOL0     O29471   2.003   3.264  10.208  0.0062 -0.6041  0.5264
  224MOL0     C29472   1.956   3.253  10.075  0.7288  0.3494  0.1902
  224MOL0     C29473   1.807   3.272  10.073  0.0062 -0.1365  0.1496
  224MOL0     C29474   1.726   3.169  10.149 -0.4397 -0.7592 -0.3429
  224MOL0     C29475   1.577   3.195  10.146  1.1936  0.8943  0.2534
  224MOL0     C29476   1.502   3.092  10.237  0.4029 -0.0535  0.0387
  224MOL0     C29477   1.487   2.951  10.175  0.1980  0.1001 -0.4853
  224MOL0     C29478   1.404   2.944  10.052 -0.3175 -0.2471  0.5710
  224MOL0     C29479   1.264   3.004  10.061 -0.0432 -0.4983 -0.1095
  224MOL0    Cl29480   1.168   2.941  10.212  0.1562  0.1275 -0.1167
  224MOL0     C29481   2.241   3.253  10.151 -0.0315  0.6385  0.2531
  224MOL0     C29482   2.378   3.274  10.190 -0.2767  0.3085  0.3308
  224MOL0     O29483   2.601   3.139  10.301 -0.5536  0.0652  0.2643
  224MOL0     C29484   2.788   3.381  10.492  0.3621 -0.5344  0.1029
  224MOL0     C29485   2.897   3.387  10.578  0.6311  0.1611  1.0224
  224MOL0     N29486   3.634   3.340  10.359 -0.2003  0.1123  0.1468
  224MOL0     N29487   3.748   3.398  10.323 -0.1088 -0.0896  0.7705
  224MOL0     C29488   5.072   3.055  10.494 -0.8446  0.0134  0.2260
  224MOL0     C29489   5.202   3.010  10.508  0.8460  0.0426 -0.5013
  224MOL0     C29490   5.645   2.917  10.502  0.0968  0.5992 -0.3776
  224MOL0     C29491   5.725   3.033  10.514 -0.4227  0.0465 -0.5699
  224MOL0     C29492   5.864   3.035  10.512 -0.1487  0.3287  0.2170
  224MOL0     C29493   5.937   2.920  10.476 -0.3553 -0.3373  0.4529
  224MOL0     O29494   6.075   2.903  10.460  0.5001 -0.2921 -0.3244
  224MOL0     C29495   6.155   3.024  10.479  0.6932  0.1869 -0.4977
  224MOL0     C29496   6.293   2.972  10.515 -0.0338 -0.5460  0.3524
  224MOL0     C29497   6.355   2.872  10.419  0.4278 -0.9321  0.1908
  224MOL0     C29498   6.494   2.848  10.457 -0.2012  0.0654 -0.3148
  224MOL0     C29499   6.546   2.740  10.371 -0.3899  0.1492 -0.5575
  224MOL0     C29500   6.580   2.649  10.296 -0.4436  0.1512 -0.0506
  224MOL0     C29501   5.859   2.803  10.462  0.0564  0.0643  0.1053
  224MOL0     C29502   5.713   2.797  10.480 -0.4399  0.0591  0.6754
  224MOL0     H29503   5.389   3.286  10.458  1.1575 -2.2255 -1.0907
  224MOL0     H29504   5.166   3.383  10.455  1.7940  0.5615 -1.1313
  224MOL0     H29505   4.799   3.120  10.506 -2.0109  1.8223  0.3065
  224MOL0     H29506   4.815   3.148  10.333 -0.4149  0.0017 -0.1166
  224MOL0     H29507   4.706   3.347  10.338 -1.1673  0.6701  0.3771
  224MOL0     H29508   4.729   3.378  10.507  1.2263 -0.7670  0.1723
  224MOL0     H29509   4.553   3.217  10.567 -0.3138  4.1775  0.5651
  224MOL0     H29510   4.550   3.144  10.409 -0.1380  0.7046 -1.7186
  224MOL0     H29511   4.468   3.430  10.494 -0.8703 -0.8006  1.5514
  224MOL0     H29512   4.478   3.388  10.326 -1.9737  0.6965  0.6092
  224MOL0     H29513   4.315   3.246  10.546 -1.2004 -2.4162  0.0751
  224MOL0     H29514   4.308   3.196  10.375 -1.5626 -0.3852  0.9654
  224MOL0     H29515   4.223   3.419  10.322  3.2828 -1.5862  0.0026
  224MOL0     H29516   4.234   3.475  10.483  2.0474  0.4014 -1.1973
  224MOL0     H29517   4.051   3.255  10.383 -0.6928 -1.8209  1.7142
  224MOL0     H29518   4.067   3.296  10.556 -0.4630  1.4925  0.6665
  224MOL0     H29519   4.000   3.505  10.349 -1.2069  1.1071  0.9007
  224MOL0     H29520   3.968   3.511  10.528 -3.4512 -0.8641  2.1043
  224MOL0     H29521   3.812   3.303  10.623  2.2747 -1.4607 -1.5550
  224MOL0     H29522   3.559   3.145  10.617 -1.3464 -0.8909  0.3922
  224MOL0     H29523   3.461   3.199  10.474 -1.6935  1.5508  0.6124
  224MOL0     H29524   3.418   3.426  10.587 -1.1400  0.0030  0.1114
  224MOL0     H29525   3.526   3.381  10.712 -0.4308  0.9951 -0.7362
  224MOL0     H29526   3.386   3.188  10.780  0.3184  0.8292  0.9481
  224MOL0     H29527   3.312   3.342  10.810  1.3181 -0.8502  0.2651
  224MOL0     H29528   3.185   3.116  10.676 -0.2243 -0.3321  2.6914
  224MOL0     H29529   3.229   3.223  10.538 -0.1075 -3.0157  0.4999
  224MOL0     H29530   3.024   3.080  10.512 -0.2418 -0.4477  0.2981
  224MOL0     H29531   2.824   3.058  10.392 -0.2412 -0.8878  1.0075
  224MOL0     H29532   2.320   3.356  10.514  1.8450 -0.2460 -0.7452
  224MOL0     H29533   2.068   3.305  10.431 -2.1698 -1.3579 -2.7212
  224MOL0     H29534   1.973   3.153  10.035 -0.0898  0.0859  0.4850
  224MOL0     H29535   2.001   3.332  10.015  1.2889  0.9027  1.3044
  224MOL0     H29536   1.773   3.271   9.969  0.4675  3.9002 -0.2103
  224MOL0     H29537   1.785   3.373  10.110 -2.1633  0.5652 -2.7137
  224MOL0     H29538   1.758   3.173  10.254 -2.1670  0.3912  0.1745
  224MOL0     H29539   1.746   3.070  10.106  0.9325 -0.0221 -1.4963
  224MOL0     H29540   1.549   3.290  10.192 -4.1178 -0.7236  0.9994
  224MOL0     H29541   1.538   3.209  10.045  3.6421 -0.9781 -1.0823
  224MOL0     H29542   1.410   3.147  10.254  1.4525  2.6432 -2.3542
  224MOL0     H29543   1.554   3.093  10.334 -1.0824  0.7894  0.8546
  224MOL0     H29544   1.437   2.888  10.249 -0.0627 -0.2800 -0.9852
  224MOL0     H29545   1.584   2.912  10.143 -0.9617 -1.4377 -2.3716
  224MOL0     H29546   1.456   2.999   9.973 -0.4132 -0.2550  0.5026
  224MOL0     H29547   1.395   2.838  10.029 -0.9955 -1.0794  4.0874
  224MOL0     H29548   1.209   3.000   9.967 -0.5028  0.5325  0.1084
  224MOL0     H29549   1.268   3.112  10.080  0.6545 -0.7003  0.9928
  224MOL0     H29550   2.223   3.207  10.055 -1.8834  2.8501 -0.5568
  224MOL0     H29551   2.459   3.253  10.121 -0.4126  0.6629  0.0594
  224MOL0     H29552   2.729   3.471  10.487  0.0696 -0.7866 -2.6875
  224MOL0     H29553   2.911   3.483  10.628  2.5273 -0.7706  2.4103
  224MOL0     H29554   4.982   2.995  10.501  0.1245 -1.3628  1.5442
  224MOL0     H29555   5.216   2.908  10.541  1.7905 -0.2400 -1.7155
  224MOL0     H29556   5.679   3.130  10.534 -0.7369  0.0873 -1.4282
  224MOL0     H29557   5.906   3.134  10.517  0.8042 -0.0581 -0.0508
  224MOL0     H29558   6.123   3.094  10.557 -0.9996 -0.9726 -0.1043
  224MOL0     H29559   6.158   3.083  10.387  0.1514 -1.3773 -1.5548
  224MOL0     H29560   6.355   3.062  10.513  0.9266 -1.1375  1.8840
  224MOL0     H29561   6.296   2.920  10.611 -0.5181 -1.5456 -0.1596
  224MOL0     H29562   6.351   2.909  10.316  2.0293 -1.2453 -0.0024
  224MOL0     H29563   6.292   2.783  10.425 -0.7569 -0.1649 -0.2496
  224MOL0     H29564   6.547   2.943  10.443 -4.0801  2.2985 -1.2065
  224MOL0     H29565   6.498   2.811  10.560  1.2777 -2.7758 -1.2930
  224MOL0     H29566   6.607   2.578  10.221 -3.2753  0.1462 -1.1847
  224MOL0     H29567   5.916   2.711  10.455  1.2614  0.6685  1.4997
  224MOL0     H29568   5.657   2.704  10.475 -0.6691  0.2553 -3.1222
  225MOL0     O29569   2.557   7.476   1.706 -0.9263 -0.3601  0.0842
  225MOL0     C29570   2.576   7.568   1.789  0.1820  0.0536  0.4456
  225MOL0     O29571   2.502   7.592   1.901 -1.0555 -0.1954  0.1681
  225MOL0     C29572   2.366   7.562   1.913 -0.5571  0.5960  0.4589
  225MOL0     C29573   2.284   7.555   1.798 -0.2147  1.3120 -0.4782
  225MOL0     C29574   2.145   7.536   1.817  0.6003  0.6962 -0.5151
  225MOL0     C29575   2.093   7.528   1.946  0.1770  0.2991  0.5559
  225MOL0     O29576   1.956   7.521   1.959  0.4462  1.0844  0.4685
  225MOL0     C29577   1.894   7.429   2.052 -0.9390  0.1575  0.5059
  225MOL0     C29578   1.753   7.387   2.022  0.0785  0.1616 -0.6424
  225MOL0     C29579   1.649   7.470   2.094  0.5578  0.2658  0.3069
  225MOL0     C29580   1.509   7.405   2.082 -0.2265  0.2602  0.2657
  225MOL0     C29581   1.397   7.473   2.167  0.2913  0.1856 -0.1525
  225MOL0     C29582   1.357   7.606   2.106 -0.1764  0.4386 -1.1898
  225MOL0     C29583   1.243   7.680   2.173  0.5700  0.2848 -1.0141
  225MOL0     C29584   1.289   7.757   2.292  0.3029 -0.0311 -0.0557
  225MOL0     N29585   1.179   7.841   2.345 -0.0337 -0.5853 -0.3484
  225MOL0     C29586   1.167   7.979   2.325  0.1746 -0.1778  0.2480
  225MOL0     C29587   1.049   8.006   2.386  0.3517 -0.1610 -0.1059
  225MOL0     C29588   0.965   8.131   2.390 -0.2119 -0.7807 -0.1898
  225MOL0     C29589   0.817   8.092   2.356  0.3192  0.7898 -0.0298
  225MOL0     C29590   0.734   8.219   2.342  0.7498  0.0243  0.2701
  225MOL0     C29591   0.579   8.193   2.347  0.5083  1.1096  0.9718
  225MOL0     O29592   0.558   8.132   2.475  0.3716 -0.0137 -0.0618
  225MOL0     C29593   0.430   8.100   2.507 -0.8032  0.3586 -0.3513
  225MOL0     C29594   0.416   8.082   2.645  0.2801  0.2979 -0.1163
  225MOL0     C29595   0.283   8.048   2.695  0.7742 -0.7525 -0.0543
  225MOL0     C29596   0.177   8.039   2.606  0.2924  0.3862 -0.2507
  225MOL0     C29597   0.043   8.001   2.666 -0.0689 -0.2220 -0.0168
  225MOL0     O29598   0.029   7.976   2.795  0.6835 -0.1868  0.3504
  225MOL0     C29599  -0.101   8.001   2.852  0.0484  0.4951  1.0563
  225MOL0     C29600  -0.152   7.917   2.948 -0.8191 -0.2488 -0.4255
  225MOL0     C29601  -0.281   7.947   3.002 -0.0323 -0.5931  0.1228
  225MOL0     C29602  -0.348   8.059   2.968 -1.1736  0.1215 -0.3187
  225MOL0     O29603  -0.470   8.074   3.012  0.2401  0.1012  0.2461
  225MOL0     C29604  -0.506   8.209   3.058 -0.2076  0.0928  0.4658
  225MOL0     C29605  -0.606   8.201   3.171 -0.0383 -0.1470 -0.0808
  225MOL0     C29606  -0.734   8.130   3.126 -0.5263  0.1203  0.0811
  225MOL0     C29607  -0.842   8.165   3.228 -0.1874 -0.4007 -0.6541
  225MOL0     C29608  -0.976   8.106   3.198 -0.2603  0.7911  0.5285
  225MOL0     C29609  -1.057   8.130   3.331 -0.3852  1.0321 -0.4322
  225MOL0     C29610  -1.192   8.077   3.302  0.2537 -0.3458  0.2347
  225MOL0     C29611  -1.286   8.183   3.261 -0.1765 -0.8918  0.0286
  225MOL0    Cl29612  -1.455   8.116   3.254 -0.2184 -0.3137 -0.3880
  225MOL0     C29613  -0.294   8.141   2.875  0.4159 -0.0449 -0.4939
  225MOL0     C29614  -0.170   8.118   2.818 -0.1135 -0.1887 -1.3818
  225MOL0     O29615  -0.051   8.025   2.589  0.4714  0.7802 -0.2364
  225MOL0     C29616   0.197   8.054   2.461 -0.3162 -0.4121 -0.2662
  225MOL0     C29617   0.328   8.087   2.413  1.1717 -0.0837  0.5074
  225MOL0     N29618   1.006   7.899   2.458  0.2678  0.1902  0.4104
  225MOL0     N29619   1.079   7.794   2.436 -0.5130 -0.3517  0.0646
  225MOL0     C29620   2.180   7.530   2.055 -0.2014  0.1504  0.2259
  225MOL0     C29621   2.313   7.561   2.041 -0.3286 -0.7899 -0.2678
  225MOL0     C29622   2.707   7.634   1.782 -0.6622 -0.2475 -0.0135
  225MOL0     C29623   2.752   7.709   1.889 -0.6310  0.3982 -0.1656
  225MOL0     C29624   2.880   7.757   1.880  0.4446  0.2307  0.5041
  225MOL0     C29625   2.967   7.740   1.768 -0.1192  0.6160 -0.4911
  225MOL0     O29626   3.087   7.797   1.787 -0.5550  0.0336  0.2784
  225MOL0     C29627   3.196   7.761   1.701  0.8378 -0.7943 -0.3001
  225MOL0     C29628   3.250   7.621   1.717 -0.8517  0.7063 -0.3622
  225MOL0     C29629   3.276   7.588   1.865  0.0219 -0.0261  0.1849
  225MOL0     C29630   3.379   7.673   1.936 -0.6085  0.2207 -0.2767
  225MOL0     C29631   3.521   7.639   1.895  0.2652  0.7675 -1.2788
  225MOL0     C29632   3.638   7.616   1.883  0.1513  0.1892 -0.7146
  225MOL0     C29633   2.914   7.667   1.657  0.7925 -0.0642  0.1273
  225MOL0     C29634   2.784   7.613   1.667 -0.0725  0.2470 -0.8928
  225MOL0     H29635   2.329   7.558   1.699  1.2252  0.0155  0.0952
  225MOL0     H29636   2.075   7.534   1.734 -1.4507  0.7784  1.1191
  225MOL0     H29637   1.904   7.452   2.158 -2.7678  1.3263  0.4672
  225MOL0     H29638   1.953   7.340   2.026 -0.5577  0.9625 -1.6463
  225MOL0     H29639   1.744   7.285   2.060  2.2471  0.5186  0.9695
  225MOL0     H29640   1.727   7.376   1.916 -0.8900 -2.2361 -0.2116
  225MOL0     H29641   1.656   7.570   2.049  1.7770 -0.5850 -1.5297
  225MOL0     H29642   1.683   7.482   2.197  1.9331 -1.9566  0.1701
  225MOL0     H29643   1.466   7.403   1.981 -0.0196  1.6362  0.1365
  225MOL0     H29644   1.516   7.299   2.108  1.3144 -0.6343 -3.1587
  225MOL0     H29645   1.438   7.491   2.267  2.5254 -0.5869 -0.8558
  225MOL0     H29646   1.312   7.406   2.179  1.1748 -0.9550 -0.0718
  225MOL0     H29647   1.322   7.585   2.004 -0.6402 -0.6662 -0.8202
  225MOL0     H29648   1.448   7.666   2.107  0.1800 -0.0463 -2.4765
  225MOL0     H29649   1.197   7.752   2.105  2.3959  2.2230 -0.3004
  225MOL0     H29650   1.164   7.615   2.211  2.2942 -1.4739 -0.3076
  225MOL0     H29651   1.375   7.822   2.276  1.0382 -1.3479 -1.8380
  225MOL0     H29652   1.325   7.686   2.367 -1.0062 -0.2073  0.4392
  225MOL0     H29653   1.220   8.043   2.255  1.0312 -3.1182 -2.0284
  225MOL0     H29654   1.000   8.205   2.317  2.3562 -1.9230 -0.2358
  225MOL0     H29655   0.974   8.176   2.489 -2.3607 -1.5791  0.4364
  225MOL0     H29656   0.778   8.030   2.437 -0.2840 -0.7609 -1.4542
  225MOL0     H29657   0.820   8.026   2.269 -0.7811 -1.3519  1.4537
  225MOL0     H29658   0.774   8.291   2.414  1.3766  1.4495 -1.4300
  225MOL0     H29659   0.759   8.264   2.246 -1.7264  1.2705  0.1494
  225MOL0     H29660   0.556   8.114   2.275 -0.8562  3.5198 -1.4212
  225MOL0     H29661   0.518   8.282   2.334 -1.1236 -0.1386 -0.3771
  225MOL0     H29662   0.502   8.078   2.712  0.3074 -1.5106 -0.2024
  225MOL0     H29663   0.260   8.033   2.800 -3.1877 -0.4653 -0.7494
  225MOL0     H29664  -0.085   7.835   2.970  0.0417 -0.0368 -2.0914
  225MOL0     H29665  -0.315   7.880   3.080  0.1971  0.6292  1.2946
  225MOL0     H29666  -0.554   8.274   2.983 -1.1377  2.1481  2.7042
  225MOL0     H29667  -0.414   8.266   3.073  0.5897 -0.4117 -1.9428
  225MOL0     H29668  -0.622   8.307   3.192  3.8589  1.0148 -2.0031
  225MOL0     H29669  -0.564   8.164   3.265  2.9183  4.2343  0.6188
  225MOL0     H29670  -0.722   8.021   3.130 -1.8960 -0.0594  3.9181
  225MOL0     H29671  -0.765   8.168   3.028  0.7739 -0.6065 -0.6384
  225MOL0     H29672  -0.814   8.129   3.327  0.5845 -0.1062 -0.7638
  225MOL0     H29673  -0.839   8.274   3.232  5.1434 -0.3381  1.4823
  225MOL0     H29674  -0.960   7.998   3.185  1.5036  1.1530 -0.6818
  225MOL0     H29675  -1.010   8.155   3.106  1.6995  1.7573  0.2564
  225MOL0     H29676  -1.062   8.235   3.358  2.1954  0.5760  2.4538
  225MOL0     H29677  -1.004   8.084   3.415  2.1279  1.9135 -1.4409
  225MOL0     H29678  -1.190   7.995   3.229 -0.0144  0.5957 -0.8504
  225MOL0     H29679  -1.234   8.032   3.393  1.0253  0.1371  0.8392
  225MOL0     H29680  -1.248   8.238   3.175  0.4134  1.6103  1.7737
  225MOL0     H29681  -1.285   8.257   3.341 -0.6096  1.6266 -2.1661
  225MOL0     H29682  -0.344   8.230   2.836  2.7199  1.8091  0.5585
  225MOL0     H29683  -0.148   8.181   2.732 -1.9734  0.7867 -1.1810
  225MOL0     H29684   0.117   8.040   2.390  1.0013  0.4537 -1.9918
  225MOL0     H29685   0.346   8.105   2.307  1.0117  0.0119  0.4951
  225MOL0     H29686   2.133   7.508   2.150  1.2197 -2.7123  0.3799
  225MOL0     H29687   2.379   7.555   2.126 -0.9380 -1.0943  0.1904
  225MOL0     H29688   2.686   7.716   1.975 -1.6757 -0.2732 -0.8874
  225MOL0     H29689   2.918   7.813   1.965  0.6977  0.5855  0.1603
  225MOL0     H29690   3.281   7.826   1.721 -1.2418  1.3624  2.3468
  225MOL0     H29691   3.166   7.776   1.597  1.3511 -1.3061 -0.5253
  225MOL0     H29692   3.177   7.553   1.674 -1.4481  0.4451  1.0337
  225MOL0     H29693   3.347   7.615   1.666 -0.4835  1.5798  0.2112
  225MOL0     H29694   3.288   7.480   1.874 -0.5401 -0.0769  0.3764
  225MOL0     H29695   3.184   7.594   1.924 -0.0250 -1.6629  0.3308
  225MOL0     H29696   3.357   7.779   1.921 -2.6002 -0.2969 -1.3831
  225MOL0     H29697   3.371   7.638   2.039 -2.8486 -0.2977 -0.5695
  225MOL0     H29698   3.741   7.590   1.890  0.1587  0.2891 -0.4519
  225MOL0     H29699   2.969   7.667   1.563 -0.3809 -1.2030 -0.5993
  225MOL0     H29700   2.744   7.555   1.584  1.1450 -2.0328  0.0110
  226MOL0     O29701   0.059   0.833   5.215  0.9780 -0.5038  0.1553
  226MOL0     C29702   0.161   0.885   5.261 -0.1996  0.1363  0.7986
  226MOL0     O29703   0.166   0.946   5.384 -0.6721  0.1089  0.4669
  226MOL0     C29704   0.046   0.968   5.456 -1.0053  0.6932  0.2388
  226MOL0     C29705  -0.002   1.098   5.468  0.9986  0.2844  0.1383
  226MOL0     C29706  -0.119   1.126   5.546  0.1576  0.1665  0.1777
  226MOL0     C29707  -0.193   1.028   5.603  0.7305 -0.8507  0.3498
  226MOL0     O29708  -0.318   1.060   5.661  0.7071  0.2624 -0.1443
  226MOL0     C29709  -0.350   0.988   5.785  0.1596 -0.6295  0.4006
  226MOL0     C29710  -0.422   1.091   5.885 -0.0704 -0.3219  0.8674
  226MOL0     C29711  -0.554   1.144   5.821 -0.7753  0.9333  0.2803
  226MOL0     C29712  -0.643   1.210   5.930 -0.2447  0.2918  0.6296
  226MOL0     C29713  -0.790   1.202   5.905  0.0031 -0.2322  0.6764
  226MOL0     C29714  -0.868   1.301   5.989  0.2937  0.4645 -0.2388
  226MOL0     C29715  -1.019   1.265   5.958 -0.0001  0.4442 -0.3500
  226MOL0     C29716  -1.071   1.343   5.839  0.1640 -0.8955 -0.6436
  226MOL0     N29717  -1.219   1.331   5.837 -0.1397 -0.3304 -0.1947
  226MOL0     C29718  -1.278   1.214   5.807  0.4463 -0.5457  0.3767
  226MOL0     C29719  -1.409   1.249   5.799  0.5155 -0.4252  0.3680
  226MOL0     C29720  -1.513   1.149   5.762 -0.2691  0.5200 -0.2998
  226MOL0     C29721  -1.602   1.141   5.885  0.7079 -0.8925 -0.2491
  226MOL0     C29722  -1.696   1.019   5.880  0.3304  0.3742  1.0870
  226MOL0     C29723  -1.829   1.053   5.953 -0.0488  0.3873 -0.7097
  226MOL0     O29724  -1.897   0.930   5.984 -0.3534 -0.6766 -0.0456
  226MOL0     C29725  -2.002   0.920   6.067  0.4277  1.0832  0.0569
  226MOL0     C29726  -2.065   1.020   6.125 -0.4708 -1.1476  0.2251
  226MOL0     C29727  -2.175   1.009   6.203 -0.2635 -0.4127 -0.4405
  226MOL0     C29728  -2.220   0.879   6.237 -0.7262 -0.7268 -1.2209
  226MOL0     C29729  -2.341   0.873   6.321 -0.3040  0.4139 -0.6938
  226MOL0     O29730  -2.408   0.988   6.361  0.2426  0.3313 -0.1707
  226MOL0     C29731  -2.534   0.969   6.403  0.0893 -0.2003 -0.8204
  226MOL0     C29732  -2.558   1.020   6.536 -0.1561 -0.3650  0.4111
  226MOL0     C29733  -2.682   1.021   6.590  1.5384  0.3204 -0.3727
  226MOL0     C29734  -2.790   0.966   6.512  0.7928 -0.2201  0.0581
  226MOL0     O29735  -2.909   0.953   6.578 -0.6847  0.0367 -0.2587
  226MOL0     C29736  -3.031   0.961   6.507 -0.5388  0.2879 -0.0470
  226MOL0     C29737  -3.142   0.981   6.609 -0.1006 -0.3969 -0.8750
  226MOL0     C29738  -3.178   0.861   6.683  0.4983  0.0656 -0.2523
  226MOL0     C29739  -3.271   0.904   6.788 -0.5554 -0.2199 -0.3560
  226MOL0     C29740  -3.303   0.806   6.897 -0.3050 -0.6811  0.2820
  226MOL0     C29741  -3.401   0.873   6.997  0.3782 -0.0107  0.2437
  226MOL0     C29742  -3.420   0.790   7.125  0.0520 -0.3787  0.3913
  226MOL0     C29743  -3.548   0.707   7.119 -0.5551 -0.3937 -0.7558
  226MOL0    Cl29744  -3.688   0.806   7.166  0.0354  0.6775  0.0890
  226MOL0     C29745  -2.766   0.913   6.382 -0.3910  0.7534  0.4678
  226MOL0     C29746  -2.637   0.912   6.333 -0.7068 -0.2009 -0.0029
  226MOL0     O29747  -2.383   0.760   6.345  0.1535  0.3582 -0.5570
  226MOL0     C29748  -2.151   0.766   6.195 -0.7335 -0.7826 -0.8444
  226MOL0     C29749  -2.039   0.793   6.114  0.7599  0.0447  0.0860
  226MOL0     N29750  -1.420   1.380   5.854 -0.7145  0.7469  0.2487
  226MOL0     N29751  -1.300   1.430   5.865  0.7362  0.1022 -0.2490
  226MOL0     C29752  -0.154   0.891   5.587  0.9967  0.5405  0.0577
  226MOL0     C29753  -0.040   0.861   5.508  0.0016 -0.1248 -0.1756
  226MOL0     C29754   0.280   0.890   5.189 -0.4341 -0.3377 -0.2469
  226MOL0     C29755   0.277   0.878   5.052 -0.1276  0.1012 -0.3714
  226MOL0     C29756   0.392   0.870   4.976  0.5394  0.5803 -0.2622
  226MOL0     C29757   0.514   0.869   5.045  0.0064  0.4377  0.2320
  226MOL0     O29758   0.618   0.848   4.959 -0.1797  0.8009  0.2778
  226MOL0     C29759   0.752   0.871   5.001  0.4094  0.3674 -0.3867
  226MOL0     C29760   0.845   0.785   4.905 -0.0239 -0.9996 -0.2513
  226MOL0     C29761   0.998   0.805   4.934  0.3337 -0.0858 -0.5623
  226MOL0     C29762   1.084   0.750   4.815 -0.3689 -0.3304 -0.5014
  226MOL0     C29763   1.233   0.752   4.839  0.7058 -0.2896  0.6725
  226MOL0     C29764   1.348   0.768   4.863 -0.2657 -0.6287  0.4395
  226MOL0     C29765   0.521   0.883   5.177  0.6014 -0.3770 -0.4944
  226MOL0     C29766   0.406   0.892   5.252  0.3184 -0.9830  0.2262
  226MOL0     H29767   0.059   1.173   5.418  0.1173  0.5380 -0.5921
  226MOL0     H29768  -0.162   1.226   5.546 -1.6995 -0.5857 -0.4392
  226MOL0     H29769  -0.260   0.950   5.834 -1.2174 -1.8672  2.0877
  226MOL0     H29770  -0.412   0.901   5.764  1.4643 -1.9677  1.7611
  226MOL0     H29771  -0.353   1.176   5.889  0.1074 -0.2517 -1.7715
  226MOL0     H29772  -0.431   1.032   5.976  0.7752 -4.2382 -1.3614
  226MOL0     H29773  -0.598   1.055   5.775  0.2579  0.1264  0.8116
  226MOL0     H29774  -0.525   1.217   5.745 -2.4021  2.5215  1.1025
  226MOL0     H29775  -0.627   1.166   6.028 -0.4911  1.0712  1.0253
  226MOL0     H29776  -0.609   1.313   5.946  0.7453  0.1768 -0.5771
  226MOL0     H29777  -0.810   1.096   5.923  3.2524 -1.2888 -1.1725
  226MOL0     H29778  -0.808   1.221   5.799  1.2808 -0.5205  0.3918
  226MOL0     H29779  -0.844   1.405   5.965 -2.0258  0.7107 -1.7698
  226MOL0     H29780  -0.838   1.283   6.093  2.5989  1.5939 -0.6440
  226MOL0     H29781  -1.033   1.157   5.949  0.7036  0.1445  1.6413
  226MOL0     H29782  -1.083   1.288   6.044 -0.1268  2.9502 -1.0363
  226MOL0     H29783  -1.030   1.319   5.740 -0.1051 -1.8460 -0.5310
  226MOL0     H29784  -1.048   1.448   5.860  0.3596 -1.1067  0.2172
  226MOL0     H29785  -1.231   1.121   5.776  3.7063  1.1476 -0.2219
  226MOL0     H29786  -1.457   1.056   5.748  3.3066  2.3525  0.8249
  226MOL0     H29787  -1.571   1.178   5.674  1.7567  2.4731 -1.0895
  226MOL0     H29788  -1.666   1.229   5.892  0.8973 -0.7697 -0.0418
  226MOL0     H29789  -1.552   1.126   5.981  0.1074 -1.6540 -0.0473
  226MOL0     H29790  -1.707   0.999   5.773  2.4979  1.4713  0.5942
  226MOL0     H29791  -1.649   0.929   5.918  0.6021  0.0995  0.1395
  226MOL0     H29792  -1.898   1.118   5.899 -0.4467 -0.1859 -0.9014
  226MOL0     H29793  -1.815   1.110   6.046 -2.0221  1.8799 -1.2563
  226MOL0     H29794  -2.042   1.123   6.102 -0.9023 -0.9460  0.7087
  226MOL0     H29795  -2.227   1.101   6.227  1.3597  0.3294  0.3486
  226MOL0     H29796  -2.471   1.048   6.595 -0.7406 -2.6724  2.5594
  226MOL0     H29797  -2.696   1.057   6.691  2.1920 -2.7296  0.9167
  226MOL0     H29798  -3.052   0.865   6.460  1.1849 -0.6011  0.8901
  226MOL0     H29799  -3.031   1.046   6.437  0.2477  0.6725  0.4018
  226MOL0     H29800  -3.232   1.013   6.556 -0.8113  0.8577  0.9887
  226MOL0     H29801  -3.103   1.062   6.671 -2.6737  1.5287 -1.5795
  226MOL0     H29802  -3.088   0.815   6.725  1.1128 -1.9654 -3.4708
  226MOL0     H29803  -3.224   0.778   6.629  0.0810 -3.1243  4.3548
  226MOL0     H29804  -3.232   0.991   6.842 -0.0515 -1.0914  0.7264
  226MOL0     H29805  -3.368   0.929   6.744  1.1725  2.7459 -2.8864
  226MOL0     H29806  -3.215   0.771   6.951  0.8377  0.0223 -1.0385
  226MOL0     H29807  -3.349   0.718   6.850  2.7659 -2.0062 -0.4457
  226MOL0     H29808  -3.503   0.889   6.961  0.7783  1.3584 -0.3565
  226MOL0     H29809  -3.367   0.976   7.009 -0.6333  0.3609  0.0537
  226MOL0     H29810  -3.332   0.728   7.139 -0.7565 -1.8984 -0.9368
  226MOL0     H29811  -3.418   0.859   7.210  3.2077 -1.5154  1.3478
  226MOL0     H29812  -3.535   0.621   7.185 -0.0339  1.4508  1.6974
  226MOL0     H29813  -3.553   0.665   7.018  1.3082  0.0844 -1.0864
  226MOL0     H29814  -2.844   0.885   6.313  2.0824 -1.2460 -1.7278
  226MOL0     H29815  -2.612   0.876   6.234  1.1342 -2.7391  1.2836
  226MOL0     H29816  -2.164   0.664   6.230  1.7421 -1.1263 -0.7544
  226MOL0     H29817  -1.985   0.701   6.090  0.5281  0.0404 -0.4356
  226MOL0     H29818  -0.222   0.814   5.624 -1.1368  2.5740  0.6308
  226MOL0     H29819  -0.010   0.758   5.498  0.1487 -0.5106  3.0590
  226MOL0     H29820   0.187   0.870   4.992 -0.2356 -1.1743 -0.0670
  226MOL0     H29821   0.388   0.865   4.868 -0.9788  0.1090 -0.2148
  226MOL0     H29822   0.770   0.859   5.108 -1.2053  1.7790  0.0918
  226MOL0     H29823   0.771   0.975   4.974 -1.1712 -0.1863 -4.1384
  226MOL0     H29824   0.821   0.682   4.933 -0.9477 -0.4471  1.0521
  226MOL0     H29825   0.819   0.819   4.804 -0.0722  0.0575  0.1049
  226MOL0     H29826   1.025   0.750   5.024  5.8806  1.3588 -0.9556
  226MOL0     H29827   1.024   0.910   4.951  2.1739 -0.6976  0.7310
  226MOL0     H29828   1.046   0.649   4.803 -2.1409  0.2188  0.2379
  226MOL0     H29829   1.067   0.811   4.725 -1.8720 -1.2083 -0.8401
  226MOL0     H29830   1.452   0.780   4.886  0.2040  1.2196 -2.2556
  226MOL0     H29831   0.609   0.888   5.240  0.4075  1.4923 -0.2921
  226MOL0     H29832   0.410   0.899   5.360  1.5828 -0.2620  0.1531
  227MOL0     O29833   6.163   0.934   6.085  0.2268 -0.1102 -0.6608
  227MOL0     C29834   6.212   0.988   6.186  0.0576 -0.5224 -0.2671
  227MOL0     O29835   6.146   1.056   6.281  0.9543  0.2040  0.0119
  227MOL0     C29836   6.014   1.077   6.255 -0.3616 -0.4480 -0.4860
  227MOL0     C29837   5.923   0.977   6.293 -0.3450  0.2129 -0.9056
  227MOL0     C29838   5.786   1.005   6.270  0.1457 -0.0225  0.7773
  227MOL0     C29839   5.737   1.125   6.225  0.3968 -0.1098  0.0771
  227MOL0     O29840   5.597   1.143   6.221  0.4092  0.2699  0.2997
  227MOL0     C29841   5.548   1.253   6.147  0.2500  0.2457  0.0877
  227MOL0     C29842   5.396   1.253   6.184 -0.4762 -1.0509 -0.5857
  227MOL0     C29843   5.317   1.131   6.139 -0.6185 -0.5223 -0.1195
  227MOL0     C29844   5.164   1.141   6.163 -1.1649  0.2512 -0.9980
  227MOL0     C29845   5.092   1.251   6.075 -0.2840  0.8585 -1.1918
  227MOL0     C29846   4.936   1.249   6.107  0.3284 -0.7293 -0.6285
  227MOL0     C29847   4.872   1.360   6.024 -0.3770 -0.5826 -0.5394
  227MOL0     C29848   4.723   1.365   6.049  0.2533 -0.2598  0.2712
  227MOL0     N29849   4.663   1.462   5.964 -0.2403  0.0604  0.8950
  227MOL0     C29850   4.630   1.588   6.001  0.3533  1.0487 -0.5720
  227MOL0     C29851   4.571   1.635   5.888  0.0505 -0.5254 -0.4003
  227MOL0     C29852   4.535   1.780   5.865  0.1174 -0.9116  0.2337
  227MOL0     C29853   4.378   1.805   5.853 -0.2593 -0.5799  0.2982
  227MOL0     C29854   4.317   1.797   5.988 -0.1427  0.1385 -0.0569
  227MOL0     C29855   4.168   1.816   5.983 -0.2525 -0.5271  0.5355
  227MOL0     O29856   4.122   1.746   6.088  0.1841 -0.0547 -0.2667
  227MOL0     C29857   3.989   1.716   6.091  0.3394  1.1009  0.1745
  227MOL0     C29858   3.896   1.735   5.985  0.5867 -0.3043 -0.1452
  227MOL0     C29859   3.764   1.691   5.992  0.2397  0.2405 -0.0830
  227MOL0     C29860   3.717   1.622   6.104 -0.1724  0.5015 -0.4492
  227MOL0     C29861   3.580   1.583   6.119  0.6523  0.7570  0.2367
  227MOL0     O29862   3.485   1.632   6.025  0.3003  0.5917  0.3592
  227MOL0     C29863   3.351   1.606   6.030  0.8331 -0.1518 -0.4199
  227MOL0     C29864   3.293   1.488   6.076 -0.0273 -0.0637 -0.1671
  227MOL0     C29865   3.150   1.483   6.095  0.4689 -0.4134  0.2925
  227MOL0     C29866   3.066   1.588   6.046 -0.4038 -0.3319  0.9281
  227MOL0     O29867   2.928   1.587   6.050  0.0599  0.2932 -0.3222
  227MOL0     C29868   2.863   1.467   6.099 -0.5914  0.8366  0.0128
  227MOL0     C29869   2.714   1.487   6.082 -0.6569  0.4700 -0.4382
  227MOL0     C29870   2.643   1.361   6.133  0.1762 -0.3291 -0.7618
  227MOL0     C29871   2.496   1.362   6.103 -0.1333 -0.6537 -0.1021
  227MOL0     C29872   2.424   1.239   6.161  0.2091 -1.1062  0.7996
  227MOL0     C29873   2.274   1.254   6.130  0.0329 -0.4489 -0.7027
  227MOL0     C29874   2.208   1.120   6.176  0.0136  0.0645  0.4468
  227MOL0     C29875   2.059   1.145   6.188  0.4650 -0.6782 -0.8977
  227MOL0    Cl29876   2.012   1.257   6.322  0.1374 -0.5410  0.1122
  227MOL0     C29877   3.125   1.701   5.999  0.0085  0.2639  0.2386
  227MOL0     C29878   3.266   1.710   5.993 -0.0199  0.3280  0.8683
  227MOL0     O29879   3.549   1.511   6.223  0.8834 -0.5708  0.2874
  227MOL0     C29880   3.804   1.594   6.204  0.3515 -1.0804 -0.2583
  227MOL0     C29881   3.932   1.642   6.197 -0.3870  0.2506 -0.2129
  227MOL0     N29882   4.571   1.544   5.787 -0.0924  0.2250 -0.0545
  227MOL0     N29883   4.631   1.440   5.833  0.2493  0.1737  0.0083
  227MOL0     C29884   5.827   1.221   6.185 -0.0756  1.0142 -1.5138
  227MOL0     C29885   5.964   1.200   6.200 -0.3195 -0.1886  0.0589
  227MOL0     C29886   6.364   0.976   6.186  0.7281  0.1466 -0.3958
  227MOL0     C29887   6.432   1.020   6.298  0.1776 -0.3895  0.0128
  227MOL0     C29888   6.570   1.007   6.310 -0.5198  0.4071 -0.9565
  227MOL0     C29889   6.643   0.969   6.204 -0.5893  0.7319 -0.5397
  227MOL0     O29890   6.775   0.971   6.239 -0.2746  0.1921 -0.3682
  227MOL0     C29891   6.862   0.904   6.147  0.8836 -0.1891 -0.2608
  227MOL0     C29892   6.988   0.861   6.214 -0.6368 -0.0243  1.0711
  227MOL0     C29893   7.069   0.982   6.260 -0.3362 -0.6272  0.4296
  227MOL0     C29894   7.206   0.942   6.320  0.0287 -0.1794 -0.6924
  227MOL0     C29895   7.301   0.906   6.215 -0.4255  0.4798  0.5475
  227MOL0     C29896   7.371   0.869   6.119  0.5869  0.3878  0.6415
  227MOL0     C29897   6.579   0.929   6.090  0.6679 -0.7896 -0.3107
  227MOL0     C29898   6.440   0.937   6.079  0.2926 -0.1257  0.2704
  227MOL0     H29899   5.960   0.881   6.326  1.2797  0.0892 -2.8791
  227MOL0     H29900   5.717   0.926   6.296 -2.7143  2.2511  0.6429
  227MOL0     H29901   5.548   1.250   6.038 -0.3543 -3.2478  0.0926
  227MOL0     H29902   5.586   1.349   6.185 -0.7062  0.5048  0.4303
  227MOL0     H29903   5.349   1.341   6.139 -1.4797  0.8103  3.5725
  227MOL0     H29904   5.391   1.261   6.293 -2.3056 -0.5962 -0.6740
  227MOL0     H29905   5.349   1.041   6.191 -0.5823  0.5231  1.7383
  227MOL0     H29906   5.342   1.117   6.033  1.7539 -0.1745  0.3360
  227MOL0     H29907   5.117   1.046   6.139 -4.0743  1.4707 -0.5544
  227MOL0     H29908   5.150   1.165   6.269  0.0770 -1.9024 -0.2876
  227MOL0     H29909   5.113   1.237   5.969 -0.5616  0.9879 -1.2633
  227MOL0     H29910   5.133   1.348   6.104  1.3663 -0.0880 -0.1883
  227MOL0     H29911   4.910   1.254   6.213  0.3633 -2.0589 -0.5389
  227MOL0     H29912   4.884   1.157   6.078  1.7014 -2.5381  2.1882
  227MOL0     H29913   4.918   1.457   6.048  0.2439 -1.1091  0.4781
  227MOL0     H29914   4.884   1.356   5.915  0.8881  1.8921 -0.5797
  227MOL0     H29915   4.696   1.383   6.154  0.6377  2.1848  0.0067
  227MOL0     H29916   4.679   1.267   6.026 -5.4815  1.3286  2.7161
  227MOL0     H29917   4.644   1.642   6.094  0.2758  0.6722 -0.3398
  227MOL0     H29918   4.582   1.809   5.771  0.1702  0.2260  0.5910
  227MOL0     H29919   4.570   1.858   5.934 -2.0318  1.6069 -1.2830
  227MOL0     H29920   4.338   1.729   5.785  1.4742 -1.3557  0.1029
  227MOL0     H29921   4.379   1.908   5.814 -1.0032 -0.0974  1.4862
  227MOL0     H29922   4.331   1.696   6.028 -1.1359 -0.4035 -0.9954
  227MOL0     H29923   4.359   1.876   6.051 -1.2120  1.8345 -1.3700
  227MOL0     H29924   4.132   1.790   5.883 -0.1363  1.4591 -0.0750
  227MOL0     H29925   4.143   1.922   6.000  1.8449  0.3095 -1.0933
  227MOL0     H29926   3.925   1.767   5.886  1.0552 -0.7869 -0.1687
  227MOL0     H29927   3.697   1.704   5.907 -1.6991 -0.8933  1.1762
  227MOL0     H29928   3.352   1.400   6.100 -2.1785 -1.3273  0.8798
  227MOL0     H29929   3.107   1.394   6.138  0.1252 -0.0709  0.6696
  227MOL0     H29930   2.887   1.454   6.205  2.0501  0.8668 -0.5193
  227MOL0     H29931   2.896   1.374   6.050  0.2003  1.3499 -0.4414
  227MOL0     H29932   2.683   1.508   5.979 -0.7560 -0.4045 -0.5911
  227MOL0     H29933   2.678   1.568   6.146 -0.0737 -0.3334  0.9668
  227MOL0     H29934   2.643   1.345   6.241 -0.1863 -2.3587 -1.0185
  227MOL0     H29935   2.687   1.272   6.088  1.9139  0.7591 -1.3086
  227MOL0     H29936   2.453   1.456   6.139 -1.7069 -1.7085  0.8840
  227MOL0     H29937   2.482   1.367   5.995  1.0055 -4.5814 -0.6010
  227MOL0     H29938   2.434   1.232   6.270 -1.8930 -3.2148  0.9374
  227MOL0     H29939   2.462   1.143   6.125 -1.0166 -1.1048 -0.6093
  227MOL0     H29940   2.251   1.296   6.031 -0.7241  2.7730  0.6994
  227MOL0     H29941   2.242   1.335   6.197  1.6021 -0.5208  0.1798
  227MOL0     H29942   2.219   1.045   6.097  2.3002  0.7229  0.0692
  227MOL0     H29943   2.247   1.088   6.273  0.1073 -2.7644 -0.4281
  227MOL0     H29944   2.003   1.052   6.206 -0.3234 -0.1215 -0.4302
  227MOL0     H29945   2.022   1.190   6.096 -1.1667  3.3316  1.4880
  227MOL0     H29946   3.067   1.782   5.955 -0.6536 -1.6083 -2.7240
  227MOL0     H29947   3.304   1.801   5.949  1.1041  0.3521  1.8305
  227MOL0     H29948   3.784   1.539   6.296  1.7246  1.4510  1.6799
  227MOL0     H29949   3.993   1.615   6.283  0.7252  2.0961 -0.3804
  227MOL0     H29950   5.799   1.323   6.159  0.0206  1.1869 -0.9559
  227MOL0     H29951   6.037   1.277   6.176 -1.7682  0.8891 -1.1313
  227MOL0     H29952   6.379   1.060   6.384 -1.4380 -0.2099 -1.0137
  227MOL0     H29953   6.617   1.031   6.405 -0.1386  0.6903 -1.2141
  227MOL0     H29954   6.888   0.961   6.057  1.9778 -2.1963 -1.2721
  227MOL0     H29955   6.812   0.817   6.105 -0.4799  0.9534 -1.1133
  227MOL0     H29956   6.943   0.815   6.303 -0.5472  1.4225  1.8939
  227MOL0     H29957   7.046   0.787   6.160 -0.0854 -0.0935  1.7443
  227MOL0     H29958   7.008   1.039   6.331  1.4240  0.8722  0.8338
  227MOL0     H29959   7.088   1.046   6.173 -1.9043 -1.4317 -0.5506
  227MOL0     H29960   7.249   1.024   6.379  0.6808  0.3530 -1.8623
  227MOL0     H29961   7.188   0.849   6.374 -2.0625 -0.9477 -2.5382
  227MOL0     H29962   7.416   0.838   6.027 -1.0605 -0.1542 -0.0220
  227MOL0     H29963   6.643   0.888   6.012 -0.0642 -1.4332 -0.5833
  227MOL0     H29964   6.399   0.895   5.987  1.0254 -0.8075  0.2537
  228MOL0     O29965   9.979   9.213   5.231  0.3019  0.0008 -0.0390
  228MOL0     C29966  10.073   9.194   5.311  0.4232 -0.0649 -0.5996
  228MOL0     O29967  10.075   9.199   5.449  0.0751  0.1688 -0.5254
  228MOL0     C29968   9.950   9.221   5.510  0.1074 -0.7689  0.1109
  228MOL0     C29969   9.868   9.330   5.484  0.8670 -0.9755 -0.4321
  228MOL0     C29970   9.744   9.341   5.551  0.3809  0.2429  0.6889
  228MOL0     C29971   9.699   9.241   5.637 -0.3957  0.4384 -0.3692
  228MOL0     O29972   9.577   9.242   5.702 -0.2275  0.5825 -0.2279
  228MOL0     C29973   9.473   9.322   5.655  0.0806  1.0527 -0.3641
  228MOL0     C29974   9.340   9.284   5.726  0.1157  0.3494 -0.2994
  228MOL0     C29975   9.347   9.310   5.881 -1.2362  0.3464  0.2848
  228MOL0     C29976   9.229   9.245   5.961  0.6133  0.1206  0.1037
  228MOL0     C29977   9.090   9.298   5.918  0.2530 -0.1417  0.3160
  228MOL0     C29978   8.990   9.310   6.030  0.5001  0.6753 -0.8403
  228MOL0     C29979   8.973   9.175   6.106  0.4942 -0.8857 -0.2040
  228MOL0     C29980   8.854   9.175   6.208  0.5311  0.3239  0.1645
  228MOL0     N29981   8.847   9.304   6.276  0.5057  0.3310 -0.1257
  228MOL0     C29982   8.927   9.353   6.384  1.0348 -0.8662 -0.2112
  228MOL0     C29983   8.876   9.473   6.411 -0.0196  0.6816 -0.2309
  228MOL0     C29984   8.918   9.561   6.527  0.3193  0.5608 -0.2712
  228MOL0     C29985   9.011   9.678   6.485 -0.1091  0.4250  0.0045
  228MOL0     C29986   9.072   9.761   6.588 -0.6408 -0.2594 -0.4263
  228MOL0     C29987   9.185   9.856   6.542 -0.3254 -0.6377  0.6174
  228MOL0     O29988   9.234   9.933   6.659  0.1970 -0.0525  0.7194
  228MOL0     C29989   9.362   9.988   6.653 -0.1838 -0.3069 -0.2568
  228MOL0     C29990   9.426  10.022   6.777  0.8691 -0.5092  1.1611
  228MOL0     C29991   9.551  10.086   6.770  0.8016  0.6057  0.2378
  228MOL0     C29992   9.623  10.097   6.647 -0.3059  0.0038  0.5642
  228MOL0     C29993   9.765  10.143   6.647 -1.1280  0.0623 -0.8792
  228MOL0     O29994   9.830  10.145   6.526  0.1131  0.2846 -0.2883
  228MOL0     C29995   9.963  10.142   6.493 -0.0090  0.5243  0.7766
  228MOL0     C29996   9.980  10.163   6.353 -0.8013  0.5197 -0.0466
  228MOL0     C29997  10.112  10.155   6.293  0.1827  0.5795  0.6207
  228MOL0     C29998  10.224  10.147   6.378 -0.3289  0.1828 -0.1837
  228MOL0     O29999  10.353  10.153   6.339  0.3549 -0.4358  0.0836
  228MOL0     C30000  10.378  10.150   6.197 -0.1117  0.5082 -0.2636
  228MOL0     C30001  10.521  10.097   6.168  0.1322  0.3250  0.3238
  228MOL0     C30002  10.551  10.125   6.024 -0.1244 -0.5956  0.4949
  228MOL0     C30003  10.669  10.029   5.980  0.7714  0.0136 -0.5676
  228MOL0     C30004  10.713  10.057   5.840  0.9874 -0.2071 -1.2090
  228MOL0     C30005  10.833   9.978   5.778  0.3934 -0.6003  0.5540
  228MOL0     C30006  10.937   9.916   5.871 -0.5038 -0.1284 -0.5736
  228MOL0     C30007  11.027  10.026   5.914 -0.5885 -0.0261 -1.2061
  228MOL0    Cl30008  11.154   9.960   6.017 -0.3756  0.2243 -0.1650
  228MOL0     C30009  10.200  10.136   6.512 -0.4562  0.6174 -0.8546
  228MOL0     C30010  10.070  10.132   6.570 -0.0072 -0.2973  0.4682
  228MOL0     O30011   9.822  10.159   6.756  0.2201  0.2066  0.4875
  228MOL0     C30012   9.558  10.049   6.532 -0.3958 -0.5294 -0.0638
  228MOL0     C30013   9.429  10.004   6.534 -0.2242 -0.0032 -0.0815
  228MOL0     N30014   8.756   9.480   6.338 -0.7311 -0.1340  0.0398
  228MOL0     N30015   8.750   9.392   6.246 -0.9589  0.0830  0.1386
  228MOL0     C30016   9.792   9.134   5.676 -0.2510 -0.5852  0.6095
  228MOL0     C30017   9.913   9.123   5.605 -0.7406 -0.7322 -0.0189
  228MOL0     C30018  10.201   9.196   5.243 -0.5696 -0.4943 -0.2217
  228MOL0     C30019  10.218   9.217   5.102  0.5884  0.6523  0.4838
  228MOL0     C30020  10.340   9.231   5.037  0.5466 -0.4669 -0.2212
  228MOL0     C30021  10.458   9.220   5.118  0.7902 -0.6579 -0.4433
  228MOL0     O30022  10.571   9.251   5.046 -0.6605 -1.0924 -0.0004
  228MOL0     C30023  10.692   9.192   5.103 -0.0518  0.0792  0.3220
  228MOL0     C30024  10.788   9.170   4.980 -0.1676 -0.1905  0.7915
  228MOL0     C30025  10.927   9.152   5.024 -0.6267  0.8332 -0.2051
  228MOL0     C30026  11.027   9.137   4.900 -0.6366 -0.7169  0.0006
  228MOL0     C30027  11.163   9.124   4.958 -0.0563 -0.6209 -0.4891
  228MOL0     C30028  11.276   9.123   4.996  0.1106 -0.6746 -0.0488
  228MOL0     C30029  10.449   9.208   5.256 -0.5194  0.6100 -0.2829
  228MOL0     C30030  10.324   9.187   5.317  0.2774  0.1173 -0.1008
  228MOL0     H30031   9.902   9.411   5.422 -0.9836  0.2583  0.0638
  228MOL0     H30032   9.697   9.437   5.532  2.5991  0.7354 -3.4526
  228MOL0     H30033   9.456   9.302   5.549 -1.1620  1.3420 -0.2447
  228MOL0     H30034   9.479   9.427   5.686 -1.0636  0.2560  3.0561
  228MOL0     H30035   9.306   9.182   5.706 -0.6841  0.8762 -1.8077
  228MOL0     H30036   9.257   9.347   5.691 -0.7828  0.1697  1.4310
  228MOL0     H30037   9.347   9.416   5.907 -0.4941  0.2760  0.6207
  228MOL0     H30038   9.446   9.276   5.915  0.0855  1.3858 -2.2287
  228MOL0     H30039   9.230   9.136   5.953  0.0513  0.0541  0.8331
  228MOL0     H30040   9.238   9.267   6.068 -1.8131 -2.0318  0.8669
  228MOL0     H30041   9.050   9.245   5.831  0.1664  1.2518 -0.5261
  228MOL0     H30042   9.104   9.402   5.885  0.4547  0.2159  1.4969
  228MOL0     H30043   8.889   9.332   5.994 -0.3379 -0.2420  0.8143
  228MOL0     H30044   9.028   9.387   6.098 -1.3758 -0.2822  1.4513
  228MOL0     H30045   8.975   9.086   6.042  2.6583 -0.9798 -0.0939
  228MOL0     H30046   9.058   9.163   6.174  0.3590 -1.8150 -0.1796
  228MOL0     H30047   8.857   9.090   6.276  0.2184  0.0505 -0.1558
  228MOL0     H30048   8.768   9.160   6.141  0.6797 -1.4974  0.3408
  228MOL0     H30049   9.016   9.310   6.428  2.7260  1.8381 -0.7914
  228MOL0     H30050   8.974   9.501   6.599 -0.8007  1.6892  1.6446
  228MOL0     H30051   8.828   9.596   6.580 -1.8287 -2.1717 -1.8571
  228MOL0     H30052   8.960   9.732   6.404  0.3774 -1.7220 -1.8425
  228MOL0     H30053   9.093   9.627   6.433 -1.3443 -2.5166  0.7322
  228MOL0     H30054   8.984   9.818   6.619  1.3768  2.0040  1.5670
  228MOL0     H30055   9.119   9.704   6.668  0.6266  2.2039  0.6764
  228MOL0     H30056   9.148   9.922   6.464  1.2514 -0.4608 -0.0185
  228MOL0     H30057   9.273   9.804   6.503  1.4940  1.4995  1.6499
  228MOL0     H30058   9.374  10.007   6.871 -2.6892 -1.8305 -0.8119
  228MOL0     H30059   9.593  10.127   6.861  0.2858 -0.8025  1.1367
  228MOL0     H30060   9.888  10.167   6.294 -0.5607  1.1466 -0.3858
  228MOL0     H30061  10.126  10.160   6.186  0.9753 -1.4923  0.5829
  228MOL0     H30062  10.369  10.253   6.163 -0.1850  1.2488  1.9036
  228MOL0     H30063  10.311  10.075   6.152  0.5032  0.0807 -0.4915
  228MOL0     H30064  10.529   9.989   6.185 -0.8306  0.0589 -0.8253
  228MOL0     H30065  10.586  10.152   6.237  0.8148 -0.4640  0.3333
  228MOL0     H30066  10.588  10.228   6.017  1.5299 -1.2395 -0.7871
  228MOL0     H30067  10.465  10.103   5.961  0.7443 -2.6105 -0.0553
  228MOL0     H30068  10.748  10.046   6.055  2.3783 -0.5006 -2.0620
  228MOL0     H30069  10.643   9.923   5.983 -0.4340  0.3145  1.0424
  228MOL0     H30070  10.735  10.164   5.838 -1.0656  0.2523 -2.4777
  228MOL0     H30071  10.629  10.037   5.774 -0.8434  0.8558  0.6950
  228MOL0     H30072  10.885  10.048   5.712  0.5859 -0.7576  0.5383
  228MOL0     H30073  10.796   9.898   5.713  1.0938 -0.0878 -0.5083
  228MOL0     H30074  10.900   9.867   5.961 -1.7959  1.2582 -0.3084
  228MOL0     H30075  10.996   9.840   5.820  0.9893 -0.0028  0.8709
  228MOL0     H30076  10.968  10.100   5.969 -1.9742 -2.0033  0.1486
  228MOL0     H30077  11.076  10.074   5.829 -2.3197  2.3804 -0.9199
  228MOL0     H30078  10.286  10.122   6.576 -2.2852  1.3474  1.9583
  228MOL0     H30079  10.041  10.120   6.674  0.6024 -0.5873  0.6088
  228MOL0     H30080   9.613  10.035   6.440  0.0435 -3.8246  0.5790
  228MOL0     H30081   9.402   9.962   6.437  3.1511 -1.4756 -0.5337
  228MOL0     H30082   9.767   9.071   5.760  0.8864 -0.4936  1.0449
  228MOL0     H30083   9.984   9.041   5.618 -1.1176 -1.1919 -0.7695
  228MOL0     H30084  10.135   9.230   5.034  0.5803  0.3836  0.4426
  228MOL0     H30085  10.363   9.271   4.939  1.0643  1.6306  0.6963
  228MOL0     H30086  10.676   9.101   5.162  3.2812 -0.0714  1.1954
  228MOL0     H30087  10.743   9.261   5.171  0.7662 -2.0415  1.9678
  228MOL0     H30088  10.750   9.079   4.932  0.7509  0.5194 -1.4275
  228MOL0     H30089  10.786   9.259   4.917  1.6651  0.0364  1.0203
  228MOL0     H30090  10.934   9.066   5.091 -2.8983  0.5351 -0.2678
  228MOL0     H30091  10.966   9.240   5.076  0.1765  0.6631 -0.4938
  228MOL0     H30092  11.010   9.038   4.857 -0.1104 -0.3599 -1.0635
  228MOL0     H30093  11.017   9.212   4.820  1.6485 -0.3095  0.0213
  228MOL0     H30094  11.380   9.124   5.019  0.5492  0.7439 -1.8962
  228MOL0     H30095  10.541   9.210   5.314 -0.3314  0.3976 -0.5741
  228MOL0     H30096  10.322   9.193   5.426  0.0208  0.1637 -0.1067
  229MOL0     O30097   3.685   7.191  10.624 -0.5345  0.8405 -0.0354
  229MOL0     C30098   3.616   7.098  10.585 -0.5561 -0.3111 -0.6544
  229MOL0     O30099   3.650   6.971  10.600  0.2853  0.1481  0.6051
  229MOL0     C30100   3.762   6.936  10.671 -0.4826 -0.1875  0.0970
  229MOL0     C30101   3.815   6.987  10.795  0.4889  0.1266 -0.0734
  229MOL0     C30102   3.926   6.932  10.854 -0.1004 -0.2975  0.0624
  229MOL0     C30103   3.988   6.824  10.791 -0.0163 -0.0090 -0.4032
  229MOL0     O30104   4.096   6.776  10.853  0.6091 -0.0352  0.7196
  229MOL0     C30105   4.207   6.740  10.772 -0.2781  0.8276 -0.4844
  229MOL0     C30106   4.348   6.719  10.855  1.6089  0.4602 -0.5692
  229MOL0     C30107   4.429   6.605  10.807 -0.0615  0.1802  0.2451
  229MOL0     C30108   4.566   6.602  10.879 -0.4859  0.6861 -1.4988
  229MOL0     C30109   4.560   6.572  11.030 -0.5685 -0.2123  0.8804
  229MOL0     C30110   4.704   6.574  11.087 -0.9051  0.0369 -0.7604
  229MOL0     C30111   4.703   6.539  11.241 -0.1207  0.2200 -0.7253
  229MOL0     C30112   4.839   6.573  11.311  0.1163  0.2117  0.2005
  229MOL0     N30113   4.943   6.483  11.295  0.1594  1.0585 -0.0692
  229MOL0     C30114   5.053   6.505  11.209  0.2704  0.0965 -0.6709
  229MOL0     C30115   5.131   6.396  11.228 -0.1422 -1.0044 -0.5363
  229MOL0     C30116   5.263   6.369  11.154  0.3721  0.2836  0.1865
  229MOL0     C30117   5.238   6.275  11.035 -0.3737 -0.1168 -0.0429
  229MOL0     C30118   5.199   6.136  11.083  0.8377 -0.1694  0.0635
  229MOL0     C30119   5.089   6.067  10.995 -0.1171  0.4534 -0.2782
  229MOL0     O30120   4.979   6.163  11.002  0.5963  0.1236  0.2370
  229MOL0     C30121   4.876   6.155  10.915  0.5051  0.2243  0.2516
  229MOL0     C30122   4.760   6.215  10.956 -0.2022  0.2822 -0.1112
  229MOL0     C30123   4.647   6.204  10.877  0.3108  0.2236 -0.5311
  229MOL0     C30124   4.633   6.142  10.754  0.1891 -0.6419 -0.8434
  229MOL0     C30125   4.504   6.147  10.678 -0.4399  0.5176 -0.0968
  229MOL0     O30126   4.492   6.058  10.573  0.8786 -0.3811 -0.2351
  229MOL0     C30127   4.381   6.067  10.505  0.5733 -0.1630  1.1023
  229MOL0     C30128   4.276   5.993  10.542 -0.3277  0.7001 -0.7626
  229MOL0     C30129   4.153   5.985  10.476 -0.3172 -0.6701 -0.0906
  229MOL0     C30130   4.140   6.067  10.353 -0.3977  1.1743 -0.5443
  229MOL0     O30131   4.007   6.064  10.295  0.2395 -0.3907  0.0300
  229MOL0     C30132   3.992   6.029  10.154 -0.2871  0.4370 -0.2499
  229MOL0     C30133   3.851   6.074  10.099 -0.2253 -0.1433  0.3430
  229MOL0     C30134   3.804   6.210  10.160 -0.2913 -0.1486 -0.2094
  229MOL0     C30135   3.658   6.250  10.149  0.5446 -0.4389  0.6749
  229MOL0     C30136   3.628   6.297  10.007  0.3050  1.0378 -0.1585
  229MOL0     C30137   3.482   6.312   9.970 -0.6339 -0.1691  0.0136
  229MOL0     C30138   3.472   6.323   9.826 -0.9459 -0.2280 -0.7218
  229MOL0     C30139   3.331   6.312   9.778 -0.3824 -0.0148  0.1917
  229MOL0    Cl30140   3.250   6.459   9.833  0.2190 -0.1877  0.0689
  229MOL0     C30141   4.247   6.138  10.302 -0.0046 -0.1652 -0.4069
  229MOL0     C30142   4.364   6.137  10.383 -0.8579  0.8030  0.3210
  229MOL0     O30143   4.415   6.223  10.714 -0.4340  0.0878  0.1745
  229MOL0     C30144   4.757   6.089  10.714  0.1310  0.6815  1.4091
  229MOL0     C30145   4.878   6.095  10.789  0.4214 -0.3206  0.4227
  229MOL0     N30146   5.083   6.335  11.340 -0.3791  0.5517  0.4390
  229MOL0     N30147   4.965   6.373  11.366  0.0292  0.1085 -0.2043
  229MOL0     C30148   3.939   6.769  10.670  0.6476  0.2262 -0.0961
  229MOL0     C30149   3.827   6.830  10.607  0.1027  0.3712  0.0784
  229MOL0     C30150   3.496   7.140  10.505  0.1359 -0.1083  0.0752
  229MOL0     C30151   3.439   7.058  10.408 -0.0184  0.3786 -0.5370
  229MOL0     C30152   3.324   7.097  10.338 -0.4705  0.3399  0.2983
  229MOL0     C30153   3.270   7.220  10.354 -0.5406 -0.0454 -0.3410
  229MOL0     O30154   3.154   7.265  10.290 -0.3178 -0.1471  0.5517
  229MOL0     C30155   3.069   7.158  10.234  0.4418 -0.1172 -0.6974
  229MOL0     C30156   2.986   7.084  10.336 -0.2381 -0.4763  0.2692
  229MOL0     C30157   2.930   7.172  10.447 -0.3628  0.3560  0.5310
  229MOL0     C30158   2.827   7.094  10.536 -0.7502 -0.9698 -0.0290
  229MOL0     C30159   2.720   7.018  10.453  0.2785 -0.4233  0.2884
  229MOL0     C30160   2.645   6.962  10.380  0.2215 -0.6170  0.4733
  229MOL0     C30161   3.337   7.304  10.442 -0.2175  0.2404 -0.0348
  229MOL0     C30162   3.447   7.272  10.507  0.3991  0.1885 -0.5912
  229MOL0     H30163   3.766   7.068  10.848 -0.7009 -0.5346 -0.1120
  229MOL0     H30164   3.966   6.963  10.950  1.6470  1.8378 -1.2608
  229MOL0     H30165   4.230   6.825  10.706 -0.1219  1.8506  0.8410
  229MOL0     H30166   4.186   6.647  10.719  1.5583  0.0319  0.1372
  229MOL0     H30167   4.315   6.697  10.957 -0.9094 -1.2768 -1.6439
  229MOL0     H30168   4.402   6.813  10.847 -2.3664  3.1780  1.4052
  229MOL0     H30169   4.438   6.611  10.698  0.0438 -1.2679  0.1602
  229MOL0     H30170   4.376   6.511  10.822  1.0308 -0.0046  4.1773
  229MOL0     H30171   4.628   6.523  10.835  1.4833 -0.0515  2.2144
  229MOL0     H30172   4.616   6.699  10.877 -0.5524  1.1271  3.9205
  229MOL0     H30173   4.523   6.470  11.044  1.3047 -1.1280 -0.3704
  229MOL0     H30174   4.494   6.644  11.078 -1.0095  1.2352 -1.6660
  229MOL0     H30175   4.743   6.676  11.079 -0.6095 -0.1788 -2.3344
  229MOL0     H30176   4.780   6.511  11.040 -0.8038  0.8386 -1.6944
  229MOL0     H30177   4.633   6.608  11.290  2.1016  3.7153 -2.0665
  229MOL0     H30178   4.679   6.436  11.267  0.8332  0.3949  1.0190
  229MOL0     H30179   4.812   6.588  11.416 -1.1462 -0.0238 -0.0728
  229MOL0     H30180   4.863   6.671  11.270 -1.8279  0.4405 -0.4861
  229MOL0     H30181   5.061   6.585  11.137 -3.6407  1.8098  0.5093
  229MOL0     H30182   5.344   6.326  11.215  1.9905  1.9838 -0.6490
  229MOL0     H30183   5.307   6.465  11.125 -1.2068  1.7688  2.3568
  229MOL0     H30184   5.329   6.271  10.975  0.7547 -4.1792  1.5849
  229MOL0     H30185   5.155   6.328  10.987  0.1644  1.6722  0.9130
  229MOL0     H30186   5.287   6.071  11.081 -1.1902 -3.1314  0.4631
  229MOL0     H30187   5.152   6.130  11.182 -1.2114 -0.7695 -0.8764
  229MOL0     H30188   5.065   5.971  11.042 -0.6123  0.7789  0.1424
  229MOL0     H30189   5.126   6.056  10.893 -1.9443  2.1383 -1.1855
  229MOL0     H30190   4.761   6.266  11.052  4.6676 -0.2953  0.4337
  229MOL0     H30191   4.563   6.251  10.926 -0.2614  0.0568 -1.3370
  229MOL0     H30192   4.279   5.953  10.642  1.9547  2.2348 -0.1455
  229MOL0     H30193   4.063   5.932  10.505 -1.7885  1.3230 -0.8195
  229MOL0     H30194   3.988   5.920  10.160 -1.7477  0.4483 -0.5278
  229MOL0     H30195   4.067   6.069  10.085  2.0732 -0.2774  1.7612
  229MOL0     H30196   3.782   5.997  10.135  0.6989 -0.4548  1.4952
  229MOL0     H30197   3.837   6.070   9.990 -0.2113 -1.1039  0.3635
  229MOL0     H30198   3.875   6.283  10.121 -0.2809 -0.1379 -0.1712
  229MOL0     H30199   3.802   6.204  10.269 -1.1360  1.7844 -0.0730
  229MOL0     H30200   3.595   6.163  10.167  1.7907 -1.5541 -0.1469
  229MOL0     H30201   3.640   6.322  10.229  2.4278  0.5104  0.3053
  229MOL0     H30202   3.684   6.244   9.929 -0.7911 -0.7419  0.1980
  229MOL0     H30203   3.661   6.401   9.999  0.2538  1.0574 -0.1142
  229MOL0     H30204   3.441   6.395  10.028  2.1097 -0.9178  3.3670
  229MOL0     H30205   3.422   6.224   9.994 -1.7067 -0.3654 -2.9069
  229MOL0     H30206   3.509   6.418   9.786 -2.6194 -0.0595 -1.9707
  229MOL0     H30207   3.528   6.240   9.781 -0.1932  1.0912 -2.3311
  229MOL0     H30208   3.282   6.222   9.816 -0.4159 -0.2318 -0.3531
  229MOL0     H30209   3.325   6.318   9.669 -1.5241 -0.0494  0.2485
  229MOL0     H30210   4.224   6.191  10.209 -1.2550 -1.1145 -0.6750
  229MOL0     H30211   4.457   6.173  10.339  0.6229 -2.3295  0.6618
  229MOL0     H30212   4.767   6.038  10.618 -0.7285 -1.2856  2.3070
  229MOL0     H30213   4.975   6.080  10.743  1.5400 -0.9823  2.8852
  229MOL0     H30214   3.967   6.680  10.614 -3.9141 -0.3396 -1.9330
  229MOL0     H30215   3.798   6.786  10.512 -0.2239  0.7434  0.0026
  229MOL0     H30216   3.494   6.966  10.392  0.2887  0.7893 -2.0319
  229MOL0     H30217   3.287   7.028  10.262 -0.4684  0.1326  0.4839
  229MOL0     H30218   3.118   7.087  10.166 -1.5971 -0.0720 -2.2927
  229MOL0     H30219   2.995   7.213  10.176 -0.0155  2.3999  2.0447
  229MOL0     H30220   2.913   7.022  10.285  1.5740 -0.2841 -2.8082
  229MOL0     H30221   3.054   7.011  10.381  1.2455 -1.8355 -3.7879
  229MOL0     H30222   2.875   7.261  10.413  0.0072  1.0933  1.7711
  229MOL0     H30223   3.009   7.194  10.520  0.6638 -1.9731  0.1951
  229MOL0     H30224   2.883   7.021  10.594  2.2774  0.5737 -0.7699
  229MOL0     H30225   2.781   7.169  10.600 -1.4969 -0.2259 -1.3771
  229MOL0     H30226   2.583   6.912  10.308  3.3954  1.3591 -4.1496
  229MOL0     H30227   3.277   7.391  10.466  1.3297  1.3556 -0.0512
  229MOL0     H30228   3.475   7.346  10.581 -1.8552 -0.0487  0.6020
  230MOL0     O30229   0.015   6.794   8.410  1.0938 -0.2010  0.7493
  230MOL0     C30230  -0.008   6.680   8.365  1.0507 -0.2158 -0.6534
  230MOL0     O30231   0.075   6.608   8.292  0.3433 -0.6211  0.2776
  230MOL0     C30232   0.196   6.659   8.244  0.2610  0.8061 -0.0491
  230MOL0     C30233   0.309   6.644   8.319  0.0220  0.3086  0.2200
  230MOL0     C30234   0.426   6.707   8.283 -0.1803  0.0615 -0.7227
  230MOL0     C30235   0.430   6.768   8.155 -0.9931 -1.1160 -1.4291
  230MOL0     O30236   0.549   6.824   8.121 -0.3993 -0.4515 -0.4120
  230MOL0     C30237   0.606   6.787   7.989 -0.1056 -0.4519  0.2657
  230MOL0     C30238   0.650   6.649   8.014 -0.6957 -0.6869  0.6962
  230MOL0     C30239   0.753   6.616   7.901  1.0636 -0.3334  0.0969
  230MOL0     C30240   0.686   6.611   7.761  0.4063  0.2202  0.0742
  230MOL0     C30241   0.744   6.491   7.686  0.3117  0.3488 -0.1585
  230MOL0     C30242   0.674   6.357   7.737  0.0002 -1.0508  0.1726
  230MOL0     C30243   0.618   6.280   7.613 -0.0467 -0.2422 -0.0501
  230MOL0     C30244   0.536   6.163   7.662  0.2040  0.4176  0.6371
  230MOL0     N30245   0.479   6.096   7.544 -0.7613  0.0384  0.0736
  230MOL0     C30246   0.556   5.999   7.473  0.1635 -0.4638 -0.3813
  230MOL0     C30247   0.479   5.937   7.380 -0.0340 -0.1877  0.0194
  230MOL0     C30248   0.527   5.843   7.274  0.1143 -0.5313  0.3004
  230MOL0     C30249   0.473   5.886   7.131 -0.2823  0.8000  0.0209
  230MOL0     C30250   0.332   5.824   7.100 -0.7927 -0.2901  0.4577
  230MOL0     C30251   0.274   5.901   6.985  0.1946  0.5755 -0.0033
  230MOL0     O30252   0.363   5.904   6.868  0.4912 -0.0227  0.1165
  230MOL0     C30253   0.328   5.965   6.750  0.7786  0.0595  0.1680
  230MOL0     C30254   0.419   5.967   6.654  0.5465 -0.1871  0.1337
  230MOL0     C30255   0.398   6.029   6.532  0.9318  0.9203 -0.7915
  230MOL0     C30256   0.277   6.097   6.502 -1.1593 -0.1593 -0.1315
  230MOL0     C30257   0.259   6.172   6.378  0.0398  0.4009  0.7039
  230MOL0     O30258   0.132   6.215   6.357 -0.4002 -0.0010  0.3610
  230MOL0     C30259   0.099   6.277   6.235  0.3463 -0.1586 -0.3403
  230MOL0     C30260   0.161   6.389   6.181 -0.2649 -0.0918  0.6351
  230MOL0     C30261   0.136   6.444   6.056  0.5041  0.0872  0.3063
  230MOL0     C30262   0.026   6.392   5.987  0.3251 -0.1035 -0.4615
  230MOL0     O30263   0.003   6.437   5.854  0.1316 -0.2001 -0.6715
  230MOL0     C30264   0.093   6.533   5.788 -0.4001 -0.0073  0.0371
  230MOL0     C30265   0.051   6.550   5.641  0.2825 -0.6028 -0.2899
  230MOL0     C30266  -0.084   6.612   5.618  0.2671 -0.3183  0.0102
  230MOL0     C30267  -0.108   6.616   5.463 -1.0983 -0.0013  0.4562
  230MOL0     C30268  -0.236   6.698   5.437 -0.3222  0.0380  0.3253
  230MOL0     C30269  -0.256   6.734   5.291 -0.5997 -0.2086  0.3584
  230MOL0     C30270  -0.254   6.610   5.194  0.0740 -0.0666 -0.2544
  230MOL0     C30271  -0.341   6.496   5.254 -0.3962 -0.0002 -0.3589
  230MOL0    Cl30272  -0.522   6.524   5.229 -0.2997  0.0240 -1.0471
  230MOL0     C30273  -0.043   6.282   6.042  0.2098  0.0075  0.8936
  230MOL0     C30274  -0.006   6.221   6.163 -0.4473  0.1223 -1.3808
  230MOL0     O30275   0.353   6.197   6.299 -0.9937 -1.2070  0.0847
  230MOL0     C30276   0.177   6.092   6.603  0.2071  0.6530  0.8412
  230MOL0     C30277   0.212   6.043   6.727  0.8217 -0.1569  0.4674
  230MOL0     N30278   0.351   6.000   7.404 -0.0506  0.2671 -0.3252
  230MOL0     N30279   0.354   6.096   7.493  0.6222 -0.2362 -0.8555
  230MOL0     C30280   0.319   6.781   8.076  0.0535  0.1665  1.0333
  230MOL0     C30281   0.197   6.730   8.126  0.2123  1.2278  0.3585
  230MOL0     C30282  -0.142   6.621   8.394  0.3895  0.5191 -0.4746
  230MOL0     C30283  -0.199   6.505   8.325 -0.3017 -0.3593 -0.2769
  230MOL0     C30284  -0.327   6.459   8.363  0.5341 -0.9793  0.2394
  230MOL0     C30285  -0.401   6.507   8.468  0.6405 -0.6312 -0.0528
  230MOL0     O30286  -0.516   6.457   8.517  0.8832 -0.5679  0.4602
  230MOL0     C30287  -0.572   6.351   8.435 -0.1658 -0.0924  0.0739
  230MOL0     C30288  -0.702   6.302   8.498  0.3961 -0.0135  1.0312
  230MOL0     C30289  -0.829   6.408   8.490  0.3209 -0.5227  0.1518
  230MOL0     C30290  -0.960   6.353   8.554  0.2874  0.0586  0.2604
  230MOL0     C30291  -0.994   6.238   8.476 -0.1645  0.6479 -0.0246
  230MOL0     C30292  -1.019   6.139   8.401  0.6723  0.2093  0.0589
  230MOL0     C30293  -0.340   6.614   8.539  0.8154 -0.8215 -0.2272
  230MOL0     C30294  -0.219   6.668   8.504 -0.0079 -0.6715 -0.4873
  230MOL0     H30295   0.306   6.600   8.418  0.6882 -0.4615 -0.0890
  230MOL0     H30296   0.514   6.718   8.346 -1.8799 -0.1942  1.8820
  230MOL0     H30297   0.683   6.862   7.967 -1.6812  1.0197 -0.4258
  230MOL0     H30298   0.532   6.804   7.911 -2.4552  0.3695  2.5425
  230MOL0     H30299   0.565   6.582   8.023 -0.9612 -0.1225  2.9158
  230MOL0     H30300   0.702   6.643   8.110 -0.4619  4.2905  1.1834
  230MOL0     H30301   0.813   6.530   7.932  0.9365  0.1332  1.7299
  230MOL0     H30302   0.832   6.692   7.890  1.0429 -0.5915 -2.2558
  230MOL0     H30303   0.576   6.609   7.761  0.3023  0.2326 -3.3049
  230MOL0     H30304   0.713   6.702   7.707 -2.2169  2.8497  2.7702
  230MOL0     H30305   0.849   6.475   7.712 -0.5616 -1.9508  2.4079
  230MOL0     H30306   0.730   6.516   7.581  1.3221  3.5000  0.3570
  230MOL0     H30307   0.593   6.395   7.800 -1.9512  2.4331 -3.9765
  230MOL0     H30308   0.748   6.292   7.785  0.3091 -0.0122  1.1276
  230MOL0     H30309   0.551   6.349   7.561  0.8291 -1.4665 -2.9733
  230MOL0     H30310   0.695   6.247   7.543  0.9713  2.1592 -0.1785
  230MOL0     H30311   0.449   6.187   7.724 -1.3369  0.2181 -1.3841
  230MOL0     H30312   0.605   6.102   7.722  0.1933 -1.4298 -1.1110
  230MOL0     H30313   0.662   5.980   7.491  0.4414  0.6321 -0.7414
  230MOL0     H30314   0.485   5.746   7.303 -1.7808  0.7194  2.1522
  230MOL0     H30315   0.635   5.833   7.279  0.6304  3.3279 -0.1695
  230MOL0     H30316   0.545   5.852   7.057 -1.2255 -0.7936 -0.2199
  230MOL0     H30317   0.465   5.995   7.132 -3.2443  0.8023  4.3967
  230MOL0     H30318   0.342   5.718   7.076 -1.3560 -0.0637 -0.8900
  230MOL0     H30319   0.260   5.819   7.182 -1.8869  0.1026 -0.4463
  230MOL0     H30320   0.246   6.002   7.014  0.6827  1.0725 -1.2044
  230MOL0     H30321   0.180   5.860   6.946  0.1663  0.9485 -0.3301
  230MOL0     H30322   0.516   5.918   6.655  0.1315 -1.1282 -1.6490
  230MOL0     H30323   0.474   6.027   6.454  1.9654  0.0464  0.1954
  230MOL0     H30324   0.236   6.443   6.237  1.7309  0.8456 -2.6089
  230MOL0     H30325   0.196   6.523   6.014  0.6509  0.1302  0.5900
  230MOL0     H30326   0.193   6.489   5.789 -0.7399 -0.9483 -2.0524
  230MOL0     H30327   0.088   6.629   5.841 -3.9553 -1.0265  1.8528
  230MOL0     H30328   0.036   6.450   5.598 -3.7438 -1.4414  2.5069
  230MOL0     H30329   0.131   6.600   5.585  0.1062  0.4715  0.4043
  230MOL0     H30330  -0.096   6.716   5.651 -2.7492  0.4677 -3.0200
  230MOL0     H30331  -0.160   6.552   5.669  1.1423 -0.5107  1.1431
  230MOL0     H30332  -0.029   6.655   5.398 -1.2488 -0.5571 -0.0758
  230MOL0     H30333  -0.120   6.508   5.445 -0.8099 -0.5051  2.9502
  230MOL0     H30334  -0.225   6.790   5.495 -0.4353 -0.8854  1.8747
  230MOL0     H30335  -0.330   6.651   5.469  0.0431  0.4454  2.1099
  230MOL0     H30336  -0.174   6.796   5.252  0.0086  0.3455  2.4373
  230MOL0     H30337  -0.345   6.799   5.284 -0.1722  0.6262  2.1345
  230MOL0     H30338  -0.295   6.638   5.097  1.0094  2.1303 -0.0566
  230MOL0     H30339  -0.151   6.575   5.182  1.0861  1.1728  3.4014
  230MOL0     H30340  -0.335   6.470   5.360 -2.1528  0.2254 -0.1807
  230MOL0     H30341  -0.318   6.406   5.196 -0.4296 -1.1320  1.3365
  230MOL0     H30342  -0.106   6.228   5.972  0.0406 -0.3981  1.3585
  230MOL0     H30343  -0.056   6.134   6.204 -1.4807  0.2987 -2.2045
  230MOL0     H30344   0.080   6.137   6.587  0.6464  2.1851  2.1323
  230MOL0     H30345   0.130   6.041   6.799 -0.2109  1.7861 -0.5686
  230MOL0     H30346   0.319   6.835   7.982 -0.6852 -1.5568  0.0004
  230MOL0     H30347   0.103   6.749   8.075 -1.6584 -1.0487  2.7043
  230MOL0     H30348  -0.145   6.450   8.248  0.1547  0.1914 -0.3567
  230MOL0     H30349  -0.367   6.381   8.299  0.7820 -0.0451 -1.1177
  230MOL0     H30350  -0.499   6.269   8.447  2.4738  2.1155  0.2076
  230MOL0     H30351  -0.593   6.375   8.331  1.1009 -0.4094 -0.2828
  230MOL0     H30352  -0.734   6.212   8.445 -2.2891  2.1223 -1.3134
  230MOL0     H30353  -0.685   6.281   8.604 -1.3707 -0.1672  1.3213
  230MOL0     H30354  -0.845   6.439   8.386  3.0619 -1.0507 -0.5031
  230MOL0     H30355  -0.824   6.502   8.545 -1.6743  1.5372 -2.8713
  230MOL0     H30356  -0.938   6.315   8.654  1.0916 -3.0366 -0.9623
  230MOL0     H30357  -1.038   6.429   8.554 -0.4459 -0.6152 -1.5561
  230MOL0     H30358  -1.037   6.055   8.337  0.1794 -0.6096  1.2372
  230MOL0     H30359  -0.405   6.657   8.615 -0.6068 -0.8264 -1.4053
  230MOL0     H30360  -0.183   6.753   8.561  1.7747  1.5589 -4.5236
  231MOL0     O30361   3.264   3.890   2.401  0.2080  0.1059  0.2558
  231MOL0     C30362   3.295   3.945   2.301 -0.0815 -0.8093  0.1166
  231MOL0     O30363   3.225   3.945   2.184 -0.8249 -0.1003 -0.4706
  231MOL0     C30364   3.098   3.889   2.186 -0.2244  0.0745  0.0601
  231MOL0     C30365   3.004   3.934   2.287 -0.1012  0.6176 -0.1415
  231MOL0     C30366   2.872   3.887   2.279 -0.7014 -0.5691 -0.1328
  231MOL0     C30367   2.832   3.801   2.170  0.5046 -0.9164 -0.4075
  231MOL0     O30368   2.705   3.753   2.148 -0.3925  0.0595 -0.2682
  231MOL0     C30369   2.631   3.712   2.262 -0.2474 -0.3487 -0.6460
  231MOL0     C30370   2.487   3.663   2.228  0.1653 -0.1546  0.0453
  231MOL0     C30371   2.390   3.780   2.217  0.1574  0.6798  0.3710
  231MOL0     C30372   2.251   3.719   2.211  0.6199  0.5143 -0.4443
  231MOL0     C30373   2.146   3.825   2.227 -0.8129  0.0270  0.0743
  231MOL0     C30374   2.006   3.758   2.234 -0.9079 -0.3885 -0.1528
  231MOL0     C30375   1.898   3.862   2.251  0.0776  0.6456 -0.3642
  231MOL0     C30376   1.762   3.785   2.229  0.8956 -0.0843  0.5764
  231MOL0     N30377   1.646   3.876   2.228  0.2458 -0.0806  0.3197
  231MOL0     C30378   1.651   4.012   2.185  0.4592  0.4444  0.2076
  231MOL0     C30379   1.526   4.056   2.198  0.3189  0.2966 -0.8388
  231MOL0     C30380   1.464   4.190   2.160 -0.3380  0.9416 -0.5757
  231MOL0     C30381   1.518   4.305   2.245  0.0640 -0.0161  0.2223
  231MOL0     C30382   1.496   4.273   2.391  0.4925  0.3266  0.2138
  231MOL0     C30383   1.355   4.247   2.443  0.7606  0.8685  0.5072
  231MOL0     O30384   1.264   4.338   2.384  0.7491 -0.0314 -0.4174
  231MOL0     C30385   1.131   4.325   2.412  0.1394 -0.1591  0.5138
  231MOL0     C30386   1.074   4.240   2.506 -0.1087 -0.3158 -0.1830
  231MOL0     C30387   0.942   4.240   2.534 -0.3670 -0.8361  0.1963
  231MOL0     C30388   0.855   4.321   2.452 -0.1666  0.5801  0.0540
  231MOL0     C30389   0.716   4.342   2.495  0.1377  0.3172  0.9525
  231MOL0     O30390   0.618   4.389   2.406 -0.7029  0.3158 -0.1198
  231MOL0     C30391   0.487   4.410   2.434  1.3378 -0.6144 -0.9063
  231MOL0     C30392   0.414   4.502   2.348  0.1030  1.0408  0.2273
  231MOL0     C30393   0.282   4.530   2.373  0.3912 -0.5784  0.4675
  231MOL0     C30394   0.203   4.460   2.466 -0.6405  0.6835  0.3778
  231MOL0     O30395   0.076   4.512   2.480 -0.1077 -0.1605 -0.6508
  231MOL0     C30396  -0.009   4.435   2.574 -0.0831 -0.3871 -0.4689
  231MOL0     C30397  -0.140   4.492   2.583  0.6601 -1.7032 -0.5155
  231MOL0     C30398  -0.232   4.501   2.466  0.1582  0.1855  0.9005
  231MOL0     C30399  -0.254   4.362   2.410  0.5259  0.8000 -0.2721
  231MOL0     C30400  -0.349   4.361   2.281  0.5042  0.8137  0.4292
  231MOL0     C30401  -0.490   4.418   2.309  0.7141 -0.4280  0.4660
  231MOL0     C30402  -0.593   4.376   2.204 -0.1250 -1.5889 -0.9099
  231MOL0     C30403  -0.728   4.436   2.227  0.5439  0.9569 -0.6766
  231MOL0    Cl30404  -0.729   4.611   2.194 -0.2019  0.0855 -0.1166
  231MOL0     C30405   0.273   4.356   2.539  0.6979  0.5036  0.2143
  231MOL0     C30406   0.410   4.339   2.530  0.2895  0.0733  0.4226
  231MOL0     O30407   0.686   4.308   2.613  0.4766 -0.8602  0.0133
  231MOL0     C30408   0.906   4.400   2.348  0.1298 -0.1547  0.2973
  231MOL0     C30409   1.043   4.397   2.334  0.6341 -0.3942  0.1883
  231MOL0     N30410   1.450   3.948   2.254 -0.2491 -0.8368  0.0165
  231MOL0     N30411   1.527   3.848   2.274  0.6574 -0.3828 -0.7061
  231MOL0     C30412   2.930   3.762   2.078  0.7006  0.8634  0.0553
  231MOL0     C30413   3.060   3.806   2.085  0.3302 -0.3129 -0.1754
  231MOL0     C30414   3.427   4.011   2.305 -0.0825 -0.0627  0.1154
  231MOL0     C30415   3.507   4.029   2.191 -0.1481 -0.2135  0.4846
  231MOL0     C30416   3.642   4.079   2.200 -0.0205  0.4934 -0.1012
  231MOL0     C30417   3.684   4.137   2.323  0.0278 -0.6183 -0.3657
  231MOL0     O30418   3.800   4.204   2.335 -0.0390  0.2636  0.4843
  231MOL0     C30419   3.885   4.221   2.222  0.1046  1.3802  0.0343
  231MOL0     C30420   3.983   4.092   2.191 -0.0663 -0.6518 -0.0205
  231MOL0     C30421   4.019   4.024   2.323  0.0949  0.0161 -0.5510
  231MOL0     C30422   4.161   3.957   2.326  0.5000 -0.1505 -0.7360
  231MOL0     C30423   4.169   3.865   2.208  0.2826 -0.5441 -0.6856
  231MOL0     C30424   4.183   3.784   2.114  0.5797 -0.8216 -0.2798
  231MOL0     C30425   3.605   4.126   2.438  0.4328 -0.0919  0.2940
  231MOL0     C30426   3.486   4.062   2.430  0.3634  0.6588  0.6860
  231MOL0     H30427   3.027   4.009   2.362  1.8900 -1.1814  1.1622
  231MOL0     H30428   2.798   3.928   2.347  1.2035  1.2126  0.9798
  231MOL0     H30429   2.620   3.799   2.327  0.4995 -0.9824  0.3615
  231MOL0     H30430   2.692   3.636   2.313 -1.3021  0.5483  2.1646
  231MOL0     H30431   2.450   3.595   2.305  0.6113  0.1925  0.5755
  231MOL0     H30432   2.482   3.612   2.131 -4.1645 -0.7941  0.3867
  231MOL0     H30433   2.409   3.845   2.131 -2.0097 -2.9324 -3.1922
  231MOL0     H30434   2.397   3.845   2.305  1.1492  2.9024 -1.2517
  231MOL0     H30435   2.226   3.664   2.120  0.5846  1.9696 -1.3515
  231MOL0     H30436   2.242   3.655   2.299 -0.2897  1.1562 -0.0580
  231MOL0     H30437   2.149   3.895   2.144 -0.7629  1.7149  1.4393
  231MOL0     H30438   2.166   3.888   2.314 -0.5373 -1.1916  0.9293
  231MOL0     H30439   1.999   3.684   2.314  2.1476 -0.8847 -0.2331
  231MOL0     H30440   1.988   3.713   2.136 -0.0022 -1.6483  0.2317
  231MOL0     H30441   1.909   3.912   2.348 -1.6202  0.7114 -0.1740
  231MOL0     H30442   1.903   3.944   2.180 -0.0363  0.1415 -0.9617
  231MOL0     H30443   1.735   3.722   2.314  0.9690  1.2396  1.6043
  231MOL0     H30444   1.769   3.718   2.142  1.7991  0.1288  0.4783
  231MOL0     H30445   1.726   4.075   2.138 -0.6302  0.2073 -1.9486
  231MOL0     H30446   1.357   4.178   2.182 -0.5689  1.7666 -1.1815
  231MOL0     H30447   1.481   4.211   2.054  1.0067  0.0485 -0.5481
  231MOL0     H30448   1.467   4.397   2.216 -0.9139 -0.7305 -0.4170
  231MOL0     H30449   1.624   4.315   2.221  0.3695 -2.1050  0.4533
  231MOL0     H30450   1.559   4.189   2.422  0.3041 -0.7455 -2.1293
  231MOL0     H30451   1.527   4.356   2.456  1.2081 -0.6460  1.1586
  231MOL0     H30452   1.346   4.267   2.550 -1.3329 -0.0159  0.5415
  231MOL0     H30453   1.324   4.143   2.428 -1.1593  1.8757 -4.4110
  231MOL0     H30454   1.145   4.172   2.554 -1.7992 -1.3902  0.9375
  231MOL0     H30455   0.906   4.172   2.611  1.8456  0.9847  3.0388
  231MOL0     H30456   0.460   4.548   2.261 -2.4380 -0.3121 -1.9675
  231MOL0     H30457   0.222   4.599   2.314 -0.7764 -3.4027 -1.9185
  231MOL0     H30458   0.030   4.416   2.674 -0.8774 -2.0187 -0.4303
  231MOL0     H30459  -0.030   4.335   2.534  0.5419 -1.0227  0.7336
  231MOL0     H30460  -0.128   4.595   2.620 -2.1553 -1.0033 -1.3071
  231MOL0     H30461  -0.196   4.435   2.657  1.8608  0.3228  2.0934
  231MOL0     H30462  -0.191   4.568   2.391 -0.7812 -1.9145 -1.6235
  231MOL0     H30463  -0.323   4.549   2.503  0.3765 -0.5365  2.4747
  231MOL0     H30464  -0.163   4.314   2.373  0.1975  1.0281 -1.4223
  231MOL0     H30465  -0.302   4.297   2.484  0.8094 -0.3531 -1.0767
  231MOL0     H30466  -0.360   4.260   2.241 -0.6233  1.2303 -0.3695
  231MOL0     H30467  -0.303   4.416   2.199 -1.2132 -0.1196 -1.2350
  231MOL0     H30468  -0.476   4.526   2.317  1.6492 -0.2291 -2.6273
  231MOL0     H30469  -0.523   4.383   2.408 -1.0216  0.4537  0.2307
  231MOL0     H30470  -0.549   4.396   2.106  2.0578 -1.7083 -0.0271
  231MOL0     H30471  -0.606   4.268   2.210  0.9703 -1.6860  0.5296
  231MOL0     H30472  -0.771   4.416   2.326  0.8174  1.6732 -0.4027
  231MOL0     H30473  -0.793   4.385   2.155  0.4250  0.9556 -0.5682
  231MOL0     H30474   0.222   4.304   2.620 -1.2707  0.1629 -1.1984
  231MOL0     H30475   0.462   4.264   2.587 -1.9187 -1.0272  1.1021
  231MOL0     H30476   0.855   4.472   2.285  2.0627  2.3096  1.4225
  231MOL0     H30477   1.092   4.461   2.261  0.1201 -0.1399  0.0558
  231MOL0     H30478   2.887   3.684   2.015 -1.8046  1.4471  0.9345
  231MOL0     H30479   3.135   3.773   2.014  1.2702  4.3274 -1.6961
  231MOL0     H30480   3.470   3.998   2.094  0.7078  1.1864 -0.3164
  231MOL0     H30481   3.702   4.077   2.110  0.0772  0.7971 -0.0470
  231MOL0     H30482   3.952   4.302   2.253 -0.0775  1.4307  0.3028
  231MOL0     H30483   3.841   4.258   2.129  3.0269 -0.8883 -2.4471
  231MOL0     H30484   3.936   4.015   2.130  0.4012 -0.9272 -0.0329
  231MOL0     H30485   4.067   4.124   2.129 -1.9337  3.7450 -0.7123
  231MOL0     H30486   3.944   3.949   2.350  0.6871 -0.2935  0.3155
  231MOL0     H30487   4.015   4.092   2.408 -0.8421 -0.3975 -0.2496
  231MOL0     H30488   4.243   4.027   2.341  1.1397 -1.1080  0.4592
  231MOL0     H30489   4.179   3.892   2.413 -1.1159  2.2743  1.5560
  231MOL0     H30490   4.209   3.713   2.038 -0.3540 -2.4956  0.8990
  231MOL0     H30491   3.636   4.166   2.534  0.8367  1.5331 -0.4892
  231MOL0     H30492   3.439   4.052   2.527 -1.0793  2.4648  0.2255
  232MOL0     O30493   7.365   2.892  10.517 -0.6280  0.2203  0.0152
  232MOL0     C30494   7.304   2.903  10.415 -0.0041  0.0082  0.3616
  232MOL0     O30495   7.176   2.931  10.401  0.3277  0.7894  0.0423
  232MOL0     C30496   7.113   3.006  10.495 -0.9110  0.4623  0.2352
  232MOL0     C30497   6.975   2.974  10.509  0.3850  0.0749  0.1476
  232MOL0     C30498   6.896   3.050  10.592 -0.5591  0.1375  0.4317
  232MOL0     C30499   6.949   3.145  10.680  0.6783 -0.1997 -1.0453
  232MOL0     O30500   6.855   3.207  10.765 -0.1865  0.2768  0.5660
  232MOL0     C30501   6.899   3.318  10.839 -0.2136  0.4330  0.4927
  232MOL0     C30502   6.781   3.356  10.932  0.0869 -0.9938  0.5697
  232MOL0     C30503   6.799   3.302  11.075  0.1340  0.5232  0.1067
  232MOL0     C30504   6.693   3.357  11.180  0.6384  0.6759 -0.7320
  232MOL0     C30505   6.677   3.264  11.300 -0.5041 -0.2987  0.8570
  232MOL0     C30506   6.605   3.321  11.423 -0.4567  0.2945 -0.8459
  232MOL0     C30507   6.615   3.212  11.535  0.7473 -0.3370 -0.1126
  232MOL0     C30508   6.529   3.250  11.655  0.9137 -0.4526  0.0886
  232MOL0     N30509   6.568   3.170  11.773  0.6904 -0.4304 -0.3467
  232MOL0     C30510   6.587   3.031  11.781  0.1590 -0.3047 -1.2927
  232MOL0     C30511   6.574   2.996  11.914  0.2216 -0.4225 -0.0770
  232MOL0     C30512   6.565   2.858  11.978 -0.2137 -0.0793  0.1800
  232MOL0     C30513   6.423   2.806  11.978  0.3216 -0.2019 -0.2780
  232MOL0     C30514   6.401   2.741  11.836  0.1510  0.0753 -0.2486
  232MOL0     C30515   6.269   2.668  11.826 -0.3902 -0.2931  0.4752
  232MOL0     O30516   6.261   2.562  11.927  0.3807 -0.0396  0.4579
  232MOL0     C30517   6.138   2.513  11.960  0.4172 -0.1993 -0.8843
  232MOL0     C30518   6.122   2.453  12.086  0.2086 -0.0174  0.2848
  232MOL0     C30519   6.003   2.399  12.133 -0.5043  0.0142  1.0970
  232MOL0     C30520   5.887   2.407  12.048  0.0030 -0.5622  0.0481
  232MOL0     C30521   5.744   2.359  12.086 -0.7180 -0.3997 -0.4107
  232MOL0     O30522   5.642   2.401  12.000 -0.5680 -0.2990  0.8751
  232MOL0     C30523   5.511   2.381  12.034 -0.1803 -0.3366 -0.7578
  232MOL0     C30524   5.458   2.402  12.163  0.2031 -0.8198  0.0580
  232MOL0     C30525   5.316   2.380  12.181  0.3039  0.4570 -0.0993
  232MOL0     C30526   5.235   2.330  12.083  0.4438  0.5876 -0.7228
  232MOL0     O30527   5.099   2.305  12.097  0.4823  0.0123  0.0170
  232MOL0     C30528   5.017   2.334  12.211 -0.1426 -0.1073 -0.1644
  232MOL0     C30529   4.879   2.380  12.151  0.1313 -0.0302 -0.3857
  232MOL0     C30530   4.824   2.283  12.050  0.2297 -0.3588 -0.0064
  232MOL0     C30531   4.724   2.346  11.951 -0.1096  0.1262  0.9261
  232MOL0     C30532   4.655   2.238  11.876 -0.2101  0.5905  0.3674
  232MOL0     C30533   4.510   2.279  11.854  0.7250 -0.7426  0.4129
  232MOL0     C30534   4.432   2.163  11.791  0.0733  0.0775 -0.0398
  232MOL0     C30535   4.304   2.206  11.705 -0.5141 -0.5017  0.3747
  232MOL0    Cl30536   4.183   2.298  11.796  0.0409 -0.1264  0.2736
  232MOL0     C30537   5.294   2.299  11.960 -0.4757 -0.3254 -0.4737
  232MOL0     C30538   5.435   2.330  11.934  1.3047  0.2698  0.0006
  232MOL0     O30539   5.734   2.284  12.184 -0.0434  0.0758  0.4860
  232MOL0     C30540   5.904   2.451  11.919 -0.0025 -0.5675  0.1823
  232MOL0     C30541   6.019   2.520  11.880 -0.9302 -0.8464  0.2095
  232MOL0     N30542   6.574   3.114  11.978 -0.0996 -0.0970 -0.2731
  232MOL0     N30543   6.569   3.220  11.900 -0.0405 -0.3744  0.3561
  232MOL0     C30544   7.089   3.169  10.674 -0.2983 -0.3718  0.5739
  232MOL0     C30545   7.165   3.103  10.580  0.1488 -0.3711  0.1367
  232MOL0     C30546   7.374   2.865  10.286  0.3445 -0.2290 -0.6631
  232MOL0     C30547   7.301   2.834  10.169 -0.0091  0.1350 -0.2589
  232MOL0     C30548   7.372   2.806  10.044  0.2357 -0.9495 -0.0440
  232MOL0     C30549   7.508   2.807  10.042  1.0753  0.4912  0.5340
  232MOL0     O30550   7.582   2.770   9.937 -0.0944 -0.3658  0.6430
  232MOL0     C30551   7.623   2.882   9.855  0.5585 -0.0487  0.8505
  232MOL0     C30552   7.746   2.843   9.768 -0.5638 -0.4472 -0.5123
  232MOL0     C30553   7.709   2.755   9.649 -0.6265  0.7646 -0.1609
  232MOL0     C30554   7.625   2.829   9.549 -0.1039 -0.1752  0.1768
  232MOL0     C30555   7.648   2.774   9.416 -0.0526 -0.4780 -0.0299
  232MOL0     C30556   7.668   2.722   9.309 -0.4749 -1.4473 -1.1471
  232MOL0     C30557   7.579   2.831  10.160  0.4038 -0.8653  0.5608
  232MOL0     C30558   7.517   2.862  10.279  0.0167  0.4425  0.9776
  232MOL0     H30559   6.933   2.897  10.445 -0.7669 -0.5630  1.6181
  232MOL0     H30560   6.789   3.048  10.575 -0.4200 -0.3200 -0.4368
  232MOL0     H30561   6.930   3.402  10.777 -0.4861 -0.6367 -1.1486
  232MOL0     H30562   6.986   3.297  10.901  1.4341  0.0896 -1.8061
  232MOL0     H30563   6.683   3.326  10.893  0.2268 -1.2777  0.4432
  232MOL0     H30564   6.782   3.464  10.952 -0.9840 -1.0407  0.9843
  232MOL0     H30565   6.900   3.336  11.102  0.6968  0.3867 -1.6991
  232MOL0     H30566   6.788   3.195  11.057 -1.7913  1.2423 -4.0704
  232MOL0     H30567   6.727   3.451  11.224  0.7159 -0.3302  1.4925
  232MOL0     H30568   6.595   3.379  11.136 -0.5484 -0.1317  1.3764
  232MOL0     H30569   6.778   3.241  11.336 -0.1728  0.1180  0.2232
  232MOL0     H30570   6.633   3.168  11.271 -0.6379 -0.3947  1.3701
  232MOL0     H30571   6.500   3.330  11.396 -0.6918 -1.2974 -0.5902
  232MOL0     H30572   6.663   3.409  11.452  1.6114 -0.8729 -1.2279
  232MOL0     H30573   6.576   3.119  11.494 -0.7831  0.3340 -0.2456
  232MOL0     H30574   6.718   3.199  11.570 -0.5710 -0.7063  4.1474
  232MOL0     H30575   6.427   3.236  11.617 -0.1618  0.8714  2.2633
  232MOL0     H30576   6.556   3.352  11.685  0.7674 -0.3232 -0.2233
  232MOL0     H30577   6.593   2.961  11.698 -0.9577 -2.4717  0.3467
  232MOL0     H30578   6.596   2.858  12.083  0.4263  1.5680  0.0069
  232MOL0     H30579   6.632   2.788  11.928 -0.0212  1.0421 -1.1630
  232MOL0     H30580   6.347   2.879  12.006  2.0244  1.0740  1.2052
  232MOL0     H30581   6.418   2.729  12.055  1.4483 -2.8903 -2.6849
  232MOL0     H30582   6.391   2.822  11.762 -2.9250  0.3015  0.2630
  232MOL0     H30583   6.477   2.672  11.799  0.8678  0.8341 -0.2110
  232MOL0     H30584   6.263   2.621  11.727  0.9578  1.1538 -0.3387
  232MOL0     H30585   6.186   2.738  11.827 -0.7423 -0.6336 -1.2986
  232MOL0     H30586   6.200   2.451  12.161 -1.3989 -2.3083  2.0430
  232MOL0     H30587   5.988   2.354  12.230 -0.0023 -2.3363  0.1631
  232MOL0     H30588   5.511   2.429  12.253 -1.1389 -0.5840  0.7976
  232MOL0     H30589   5.264   2.402  12.274 -2.0643  0.5190 -1.3665
  232MOL0     H30590   5.056   2.415  12.273 -0.2540  0.4023 -0.7580
  232MOL0     H30591   5.008   2.250  12.281  0.3035  1.3207  1.6993
  232MOL0     H30592   4.891   2.477  12.104  2.3311 -1.0035 -2.0131
  232MOL0     H30593   4.804   2.385  12.231  0.1502 -0.4846 -0.3348
  232MOL0     H30594   4.771   2.204  12.104  0.0560 -0.2650 -0.0392
  232MOL0     H30595   4.904   2.247  11.984 -1.5229 -1.9533 -1.3466
  232MOL0     H30596   4.654   2.409  12.007  0.7180  0.2812  1.7939
  232MOL0     H30597   4.766   2.413  11.876 -1.1629  1.8830  1.8378
  232MOL0     H30598   4.651   2.149  11.940 -2.7878  1.5901  1.7447
  232MOL0     H30599   4.700   2.223  11.777  0.9557  1.7768  0.6893
  232MOL0     H30600   4.515   2.355  11.776 -2.2376 -2.5786 -1.7806
  232MOL0     H30601   4.464   2.314  11.947  0.5028 -4.6026  1.9172
  232MOL0     H30602   4.508   2.120  11.726  1.7218 -0.3697  2.0790
  232MOL0     H30603   4.394   2.092  11.865 -1.0101  0.6021 -0.0801
  232MOL0     H30604   4.267   2.104  11.689  1.4813 -0.9689 -1.7248
  232MOL0     H30605   4.332   2.253  11.611 -2.1482 -0.6735 -0.2396
  232MOL0     H30606   5.238   2.257  11.876 -1.6865  2.2680 -1.0550
  232MOL0     H30607   5.466   2.309  11.832 -0.8760 -1.5883 -0.3732
  232MOL0     H30608   5.822   2.449  11.849  1.0423  0.4773 -1.1214
  232MOL0     H30609   6.021   2.578  11.788  1.0077 -0.6520  0.3313
  232MOL0     H30610   7.142   3.239  10.737  1.2757 -0.7534 -0.2711
  232MOL0     H30611   7.268   3.131  10.557  0.6213 -1.1552  1.2278
  232MOL0     H30612   7.196   2.827  10.192  0.3634 -0.6851  1.3092
  232MOL0     H30613   7.317   2.785   9.953  0.4043  2.8409 -1.2234
  232MOL0     H30614   7.640   2.972   9.916 -2.3622  1.3552 -0.2253
  232MOL0     H30615   7.536   2.915   9.798 -0.2177  0.5364  2.3135
  232MOL0     H30616   7.792   2.938   9.739  1.2250 -0.3382  2.3094
  232MOL0     H30617   7.831   2.806   9.825  0.7494  2.6576 -0.2847
  232MOL0     H30618   7.655   2.667   9.687 -1.6154  2.0223  1.4767
  232MOL0     H30619   7.806   2.719   9.614 -1.1522 -0.4159 -0.4650
  232MOL0     H30620   7.522   2.802   9.574 -0.7106  0.7123 -1.2184
  232MOL0     H30621   7.631   2.938   9.539 -2.0113  0.1309  1.7302
  232MOL0     H30622   7.677   2.669   9.217  2.8842 -2.8501 -0.1520
  232MOL0     H30623   7.688   2.832  10.150  0.3169 -0.7692 -0.5857
  232MOL0     H30624   7.579   2.893  10.362  0.4326  1.8688  0.1567
  233MOL0     O30625   1.841  10.349   2.332  0.3429  0.3281 -1.2610
  233MOL0     C30626   1.923  10.402   2.407 -0.4302  0.2773  0.0210
  233MOL0     O30627   1.888  10.474   2.512 -0.2046 -1.1692 -0.6363
  233MOL0     C30628   1.754  10.466   2.553 -1.1469  0.0932 -0.0895
  233MOL0     C30629   1.712  10.347   2.624 -0.9789 -0.6820 -0.1628
  233MOL0     C30630   1.580  10.338   2.661 -0.4197 -0.3390 -0.2060
  233MOL0     C30631   1.488  10.443   2.630 -0.2574 -0.4636 -0.2204
  233MOL0     O30632   1.355  10.423   2.665 -0.7418 -0.5022  0.1381
  233MOL0     C30633   1.264  10.539   2.665 -0.0698 -0.3268 -0.4672
  233MOL0     C30634   1.130  10.495   2.729 -0.1726  0.4418 -0.1280
  233MOL0     C30635   1.027  10.614   2.735  0.6008 -0.6215 -0.0824
  233MOL0     C30636   0.884  10.564   2.783  0.5687 -0.0923  0.1803
  233MOL0     C30637   0.800  10.468   2.693  0.2523 -0.4460 -0.3252
  233MOL0     C30638   0.664  10.435   2.761 -0.2190  0.3520  0.1918
  233MOL0     C30639   0.580  10.366   2.651 -0.2621  0.2200  1.0730
  233MOL0     C30640   0.642  10.227   2.627  0.2098  0.4468  0.1394
  233MOL0     N30641   0.577  10.127   2.705  0.0648  0.4179  0.3180
  233MOL0     C30642   0.508  10.149   2.829 -0.1351  0.2590  1.1305
  233MOL0     C30643   0.464  10.027   2.860  0.3342  0.1208 -0.1549
  233MOL0     C30644   0.372  10.005   2.979  0.6383  0.1672  0.3234
  233MOL0     C30645   0.226  10.035   2.942 -0.6698  0.7270  0.5199
  233MOL0     C30646   0.129   9.986   3.045 -0.3407  0.3639 -0.7496
  233MOL0     C30647  -0.003  10.053   3.013  0.0198 -0.3585  0.2384
  233MOL0     O30648  -0.088  10.019   3.128  0.1699 -0.2555  0.5503
  233MOL0     C30649  -0.221  10.036   3.106 -0.3814 -0.6905  0.0245
  233MOL0     C30650  -0.304   9.991   3.209  0.0664 -0.1294  0.0452
  233MOL0     C30651  -0.439  10.012   3.206  0.5230 -0.4777 -0.7471
  233MOL0     C30652  -0.501  10.087   3.110  0.2741 -0.2222  0.6585
  233MOL0     C30653  -0.648  10.102   3.106 -0.5074  0.8929 -0.3573
  233MOL0     O30654  -0.718  10.033   3.196 -0.7798 -0.2975  0.1382
  233MOL0     C30655  -0.851  10.023   3.192 -0.5353  0.0767 -0.6709
  233MOL0     C30656  -0.932  10.136   3.201  0.1729 -0.3557  0.3349
  233MOL0     C30657  -1.071  10.126   3.226  0.2268  0.2435  0.1242
  233MOL0     C30658  -1.128  10.000   3.255  0.2343  0.8922  0.4181
  233MOL0     O30659  -1.258  10.003   3.306 -0.8467  0.3495  0.1406
  233MOL0     C30660  -1.337   9.884   3.299  0.2980 -0.8726  0.0403
  233MOL0     C30661  -1.488   9.907   3.309 -0.3317 -0.1616 -0.1395
  233MOL0     C30662  -1.522  10.012   3.422  0.2408 -1.0675 -0.0072
  233MOL0     C30663  -1.675  10.008   3.452  0.5326 -1.4572  0.4701
  233MOL0     C30664  -1.735  10.141   3.492 -0.0569 -0.1441  0.0814
  233MOL0     C30665  -1.889  10.133   3.517 -0.4560  0.0851  0.5573
  233MOL0     C30666  -1.941  10.265   3.566  0.1446 -0.0207 -0.2767
  233MOL0     C30667  -2.081  10.259   3.626 -0.4721  0.5057 -0.1941
  233MOL0    Cl30668  -2.083  10.167   3.787 -0.1181 -0.1184 -0.5946
  233MOL0     C30669  -1.043   9.885   3.251  0.5244  0.2770 -0.1232
  233MOL0     C30670  -0.909   9.898   3.221 -0.1123  0.3001 -0.5204
  233MOL0     O30671  -0.698  10.167   3.014 -0.0984  0.0308  0.1055
  233MOL0     C30672  -0.419  10.130   3.004 -0.2856  0.1009  0.2303
  233MOL0     C30673  -0.282  10.112   3.005  0.0627 -0.2545 -0.5681
  233MOL0     N30674   0.512   9.933   2.771 -0.3949 -0.5982  0.2732
  233MOL0     N30675   0.583   9.995   2.678 -0.0490  0.4868  0.0363
  233MOL0     C30676   1.534  10.556   2.559  0.2165  0.6404  0.0819
  233MOL0     C30677   1.666  10.568   2.519 -0.8420  0.1466 -0.7354
  233MOL0     C30678   2.069  10.381   2.383  0.2180  0.1429  0.0857
  233MOL0     C30679   2.111  10.312   2.272  0.1391  0.7429  1.1225
  233MOL0     C30680   2.245  10.282   2.250 -0.2168 -0.0501 -0.2375
  233MOL0     C30681   2.344  10.324   2.346  0.5028  1.0512  0.3213
  233MOL0     O30682   2.484  10.306   2.328  0.7553  0.1842 -0.7055
  233MOL0     C30683   2.551  10.295   2.205  0.9478 -0.3978 -0.7318
  233MOL0     C30684   2.589  10.428   2.153  0.2138  0.0175  0.7373
  233MOL0     C30685   2.643  10.418   2.014 -0.3938 -0.3070 -0.0166
  233MOL0     C30686   2.655  10.552   1.939  0.0854  0.1551 -0.2994
  233MOL0     C30687   2.697  10.529   1.804 -0.0407  0.2998  0.3413
  233MOL0     C30688   2.732  10.534   1.682 -0.6962 -0.7119 -0.5352
  233MOL0     C30689   2.303  10.387   2.457 -0.2751 -0.4256 -0.6290
  233MOL0     C30690   2.165  10.413   2.479  0.4765 -0.9334  0.0660
  233MOL0     H30691   1.783  10.271   2.656  1.1868 -0.3978 -3.6888
  233MOL0     H30692   1.554  10.246   2.714 -3.4508  0.9886  0.8476
  233MOL0     H30693   1.249  10.573   2.563  0.6582  1.4885 -0.0106
  233MOL0     H30694   1.314  10.618   2.723  2.1408 -2.4452  0.7114
  233MOL0     H30695   1.152  10.445   2.824  2.7507 -0.0948 -0.9890
  233MOL0     H30696   1.097  10.417   2.660  1.1216  0.8330 -1.2180
  233MOL0     H30697   1.019  10.659   2.636  1.6213  1.4225  0.7176
  233MOL0     H30698   1.061  10.692   2.804  0.0012  0.7719 -1.3365
  233MOL0     H30699   0.888  10.508   2.877  0.1739 -0.3229  0.0642
  233MOL0     H30700   0.827  10.656   2.797 -0.7349 -0.6562 -1.1555
  233MOL0     H30701   0.859  10.378   2.672 -0.8458 -1.0133 -1.0721
  233MOL0     H30702   0.785  10.524   2.601  1.0906  2.3971  1.1356
  233MOL0     H30703   0.615  10.529   2.788  0.2496  0.0431  2.2508
  233MOL0     H30704   0.668  10.375   2.852 -0.6743  1.3316  0.8769
  233MOL0     H30705   0.471  10.364   2.666 -0.4944 -0.5695 -0.5681
  233MOL0     H30706   0.599  10.428   2.563  1.9574 -2.4687 -0.4734
  233MOL0     H30707   0.748  10.217   2.654 -0.1971 -1.7982  1.1740
  233MOL0     H30708   0.632  10.192   2.524  1.5125  1.7309 -0.4625
  233MOL0     H30709   0.499  10.238   2.891  1.3256  1.3269 -0.0746
  233MOL0     H30710   0.393  10.066   3.067  1.1705 -0.4611  0.6390
  233MOL0     H30711   0.374   9.901   3.014 -0.5234  0.1981  0.5235
  233MOL0     H30712   0.210   9.991   2.843 -0.5719  2.4232 -0.2769
  233MOL0     H30713   0.226  10.144   2.941 -0.0828  0.7818  2.3221
  233MOL0     H30714   0.136   9.877   3.040 -1.3978  0.3011 -1.1724
  233MOL0     H30715   0.153  10.009   3.149 -3.2989 -1.7614  0.5687
  233MOL0     H30716  -0.037  10.011   2.918  2.4152 -0.9574 -0.4461
  233MOL0     H30717  -0.005  10.161   3.001  0.1668  0.0660  3.2729
  233MOL0     H30718  -0.256   9.928   3.283  0.0690  0.0464  0.1951
  233MOL0     H30719  -0.498   9.971   3.287  0.5556  1.2781  0.2229
  233MOL0     H30720  -0.898  10.237   3.180  0.4787 -0.7906 -1.3988
  233MOL0     H30721  -1.127  10.218   3.236 -0.2193  0.0021 -0.1120
  233MOL0     H30722  -1.302   9.816   3.378  1.7768  1.1970  1.2704
  233MOL0     H30723  -1.312   9.841   3.201  3.9457  0.6390  0.1191
  233MOL0     H30724  -1.534   9.808   3.314  0.1639 -0.4262 -0.6596
  233MOL0     H30725  -1.535   9.943   3.217 -1.4519 -0.5314  0.2713
  233MOL0     H30726  -1.493  10.109   3.383  0.3682 -1.3572 -0.6473
  233MOL0     H30727  -1.465   9.992   3.513 -0.1242 -0.2920  0.4008
  233MOL0     H30728  -1.735   9.986   3.363 -1.3062  0.6601  1.1064
  233MOL0     H30729  -1.702   9.931   3.524 -1.5939 -0.2222  1.0706
  233MOL0     H30730  -1.722  10.224   3.421 -0.8711  1.1546  1.3918
  233MOL0     H30731  -1.682  10.160   3.586 -0.4137 -0.9058  0.4451
  233MOL0     H30732  -1.904  10.061   3.599  0.2451  0.4054  0.9827
  233MOL0     H30733  -1.955  10.096   3.439 -0.1490 -2.3649  1.3441
  233MOL0     H30734  -1.886  10.319   3.644 -1.3646  2.6879 -0.9439
  233MOL0     H30735  -1.952  10.335   3.482 -1.3544  1.8823  1.3854
  233MOL0     H30736  -2.140  10.197   3.559  0.4128 -0.8378  0.2292
  233MOL0     H30737  -2.119  10.361   3.635 -1.7099  0.3269 -2.6031
  233MOL0     H30738  -1.080   9.788   3.280  1.5864  0.2427  1.2207
  233MOL0     H30739  -0.861   9.801   3.232  0.8169  0.9977  2.8336
  233MOL0     H30740  -0.459  10.189   2.922  1.8808 -0.3691 -1.2379
  233MOL0     H30741  -0.238  10.151   2.914 -1.2198 -1.2234 -1.6562
  233MOL0     H30742   1.472  10.641   2.533  0.2885  0.4917 -0.6041
  233MOL0     H30743   1.716  10.651   2.471  0.9018  0.6681  1.8216
  233MOL0     H30744   2.048  10.269   2.194  3.7404  1.1334 -2.3669
  233MOL0     H30745   2.257  10.216   2.165 -0.6860  0.3383 -0.6072
  233MOL0     H30746   2.490  10.236   2.136 -1.2435  0.0599  0.7002
  233MOL0     H30747   2.638  10.232   2.229 -0.2180 -1.8363 -0.0820
  233MOL0     H30748   2.497  10.486   2.150  0.0177 -0.2621  1.2626
  233MOL0     H30749   2.657  10.472   2.227 -1.1628 -0.8872  2.6301
  233MOL0     H30750   2.575  10.358   1.954 -2.5117  0.8493  1.1201
  233MOL0     H30751   2.745  10.378   2.028  0.2063  0.8823 -0.8656
  233MOL0     H30752   2.557  10.599   1.951 -0.0174 -0.4509  1.6166
  233MOL0     H30753   2.721  10.618   1.997 -1.1506  0.9090  0.2857
  233MOL0     H30754   2.756  10.546   1.579  1.3201 -0.7233 -0.1035
  233MOL0     H30755   2.382  10.397   2.530 -0.1918 -1.7870 -0.5154
  233MOL0     H30756   2.145  10.462   2.574  1.5281  0.1004 -0.2170
  234MOL0     O30757   7.363   8.273   0.008 -0.2888 -0.1382  1.3951
  234MOL0     C30758   7.390   8.194   0.094 -0.3873 -0.0139  0.2613
  234MOL0     O30759   7.309   8.152   0.192 -0.2581  0.5191 -0.3284
  234MOL0     C30760   7.177   8.185   0.189  0.6148  0.1073  0.5472
  234MOL0     C30761   7.119   8.297   0.245 -0.1215  0.0089 -0.5465
  234MOL0     C30762   6.974   8.312   0.246  0.0009 -0.4314 -0.1134
  234MOL0     C30763   6.892   8.221   0.179 -0.6401  0.9973 -1.3690
  234MOL0     O30764   6.758   8.229   0.183 -0.2363 -0.3712  0.1434
  234MOL0     C30765   6.698   8.339   0.112 -0.0399 -0.4009 -0.0348
  234MOL0     C30766   6.544   8.346   0.105  0.5912 -0.4707  0.0192
  234MOL0     C30767   6.478   8.320   0.236 -0.2206  0.1205 -0.4745
  234MOL0     C30768   6.324   8.343   0.226 -0.5246 -0.0808 -0.3021
  234MOL0     C30769   6.237   8.226   0.173 -0.1301 -0.3040 -0.6392
  234MOL0     C30770   6.092   8.241   0.224 -0.3105  0.6361  0.5490
  234MOL0     C30771   5.996   8.131   0.183  0.4999  0.3181 -0.0823
  234MOL0     C30772   5.869   8.133   0.269  0.0817 -0.7889  0.1116
  234MOL0     N30773   5.792   8.011   0.243  0.0468  0.8595  0.4244
  234MOL0     C30774   5.694   7.993   0.144  0.0026  0.2370  0.0103
  234MOL0     C30775   5.630   7.880   0.181  0.2889  0.9709  0.8170
  234MOL0     C30776   5.525   7.805   0.094 -1.5016 -0.4858  0.0394
  234MOL0     C30777   5.383   7.873   0.081 -0.4447  0.0718  0.3726
  234MOL0     C30778   5.283   7.774   0.016 -0.3246  0.7355  0.3716
  234MOL0     C30779   5.132   7.802   0.035 -0.1712 -0.1671  0.1588
  234MOL0     O30780   5.066   7.689  -0.021  0.7084  0.3198 -0.6521
  234MOL0     C30781   4.932   7.703  -0.015  1.8651  0.2297 -0.0211
  234MOL0     C30782   4.861   7.729   0.101 -0.0113 -0.4392 -0.2457
  234MOL0     C30783   4.722   7.748   0.092  0.2484 -0.0792  0.1006
  234MOL0     C30784   4.651   7.746  -0.033 -0.1378 -0.3875  0.5148
  234MOL0     C30785   4.501   7.753  -0.042  0.4181 -0.3508  0.4215
  234MOL0     O30786   4.430   7.756   0.071 -0.5878 -0.1798  0.2560
  234MOL0     C30787   4.301   7.793   0.074 -0.9493 -1.7152  0.2269
  234MOL0     C30788   4.203   7.739  -0.009  0.1612 -0.3965  0.1752
  234MOL0     C30789   4.067   7.768   0.017  0.4997  0.1153 -0.4946
  234MOL0     C30790   4.038   7.853   0.127 -0.0623 -0.7638  0.0039
  234MOL0     O30791   3.902   7.876   0.151  0.9807 -0.3861  0.7554
  234MOL0     C30792   3.857   7.848   0.283  0.3629  0.5012 -0.8204
  234MOL0     C30793   3.808   7.703   0.308  0.5523 -0.9016 -0.3883
  234MOL0     C30794   3.741   7.626   0.186  0.3868  0.6485  0.0275
  234MOL0     C30795   3.600   7.690   0.148 -0.1073 -1.0155  0.0566
  234MOL0     C30796   3.496   7.578   0.151 -0.2487  1.1524  0.1322
  234MOL0     C30797   3.448   7.545   0.294  0.1077 -0.2922  0.7907
  234MOL0     C30798   3.346   7.431   0.298 -0.2021 -0.4176  0.0117
  234MOL0     C30799   3.409   7.300   0.246 -0.5097 -0.5587  0.7220
  234MOL0    Cl30800   3.302   7.172   0.303 -0.5360  0.1542 -0.1455
  234MOL0     C30801   4.138   7.917   0.199 -1.0380 -0.3002  0.1462
  234MOL0     C30802   4.274   7.882   0.181 -0.2198 -0.2963 -0.3227
  234MOL0     O30803   4.449   7.774  -0.151 -0.3527 -0.0209  0.0912
  234MOL0     C30804   4.723   7.729  -0.145  0.7337  0.0149 -0.0566
  234MOL0     C30805   4.860   7.708  -0.142 -0.4321  0.4227  0.4465
  234MOL0     N30806   5.682   7.832   0.298  0.1115  0.3196 -0.4762
  234MOL0     N30807   5.781   7.909   0.335 -1.2725 -0.7798 -0.4423
  234MOL0     C30808   6.954   8.099   0.137  0.6663  0.5748 -0.0384
  234MOL0     C30809   7.096   8.087   0.133  0.3349  0.6546 -0.0556
  234MOL0     C30810   7.535   8.153   0.105 -0.5778  0.0068  0.7121
  234MOL0     C30811   7.627   8.179   0.006 -0.0870 -0.3126 -0.6521
  234MOL0     C30812   7.764   8.137   0.015  0.7146 -0.5816 -0.6578
  234MOL0     C30813   7.810   8.057   0.122  0.2330  0.1708 -0.2608
  234MOL0     O30814   7.943   8.012   0.132 -0.5462 -0.4423  0.1168
  234MOL0     C30815   8.048   8.095   0.076  0.0515 -0.0129 -0.5517
  234MOL0     C30816   8.185   8.036   0.099 -0.2170 -0.1440 -0.0629
  234MOL0     C30817   8.294   8.129   0.063  0.3199  0.4869  0.7702
  234MOL0     C30818   8.421   8.056   0.023 -0.2656  0.1363  0.4851
  234MOL0     C30819   8.478   7.973   0.130  0.2946 -0.1675  0.6908
  234MOL0     C30820   8.528   7.937   0.235  0.6477  0.8313  0.7183
  234MOL0     C30821   7.715   8.019   0.219 -0.3921  0.3057 -0.0269
  234MOL0     C30822   7.585   8.069   0.209  0.1862  0.4214 -0.1040
  234MOL0     H30823   7.175   8.383   0.279 -0.0607 -0.3545  0.3044
  234MOL0     H30824   6.933   8.400   0.295 -0.0126 -0.6034  0.1838
  234MOL0     H30825   6.733   8.346   0.008 -0.7206  0.6223 -0.2123
  234MOL0     H30826   6.728   8.428   0.169 -0.7419 -0.5579  0.5982
  234MOL0     H30827   6.508   8.283   0.023  1.8623  3.1745 -3.6908
  234MOL0     H30828   6.518   8.447   0.071  2.2496  0.0753  0.2820
  234MOL0     H30829   6.525   8.382   0.313 -1.8885  1.8337 -0.7557
  234MOL0     H30830   6.483   8.214   0.262  2.2370  0.2603 -0.0768
  234MOL0     H30831   6.284   8.366   0.326  0.7364 -1.5003  0.5684
  234MOL0     H30832   6.305   8.434   0.168 -2.2097 -0.0218  0.2664
  234MOL0     H30833   6.278   8.134   0.215  1.8427  0.7425 -0.1359
  234MOL0     H30834   6.242   8.223   0.064 -0.1953  2.3218 -0.7728
  234MOL0     H30835   6.057   8.337   0.184 -0.4678  0.6806  0.7970
  234MOL0     H30836   6.097   8.248   0.333 -0.4038 -0.1495  0.6111
  234MOL0     H30837   5.963   8.142   0.080 -1.3202  1.6259  0.5851
  234MOL0     H30838   6.047   8.035   0.193 -0.3351 -0.1559 -0.2774
  234MOL0     H30839   5.811   8.222   0.244  0.2294 -1.4885 -3.1430
  234MOL0     H30840   5.886   8.135   0.377  1.6809 -0.3556 -0.1167
  234MOL0     H30841   5.689   8.057   0.057 -3.5678 -0.7460 -0.6420
  234MOL0     H30842   5.514   7.704   0.135 -0.5772  0.0066  1.5943
  234MOL0     H30843   5.570   7.800  -0.006 -1.6956 -2.7348  0.0233
  234MOL0     H30844   5.396   7.962   0.019  0.1132  0.1400  0.5873
  234MOL0     H30845   5.342   7.893   0.181 -0.1854 -0.2703  0.5500
  234MOL0     H30846   5.293   7.761  -0.093 -1.5005  1.1797  0.2033
  234MOL0     H30847   5.306   7.674   0.053 -0.8863  0.3616 -0.2645
  234MOL0     H30848   5.089   7.889  -0.015  0.0161 -0.1570  0.0137
  234MOL0     H30849   5.113   7.802   0.142  0.1209  2.5423  0.2714
  234MOL0     H30850   4.912   7.738   0.197  0.6439 -3.3132 -0.2109
  234MOL0     H30851   4.663   7.766   0.181  0.7730 -1.0924  0.6700
  234MOL0     H30852   4.230   7.661  -0.079  1.5939  0.4995 -0.3136
  234MOL0     H30853   3.985   7.729  -0.043 -1.4718  3.2519 -0.0625
  234MOL0     H30854   3.774   7.916   0.305 -0.4448 -0.2098 -1.6268
  234MOL0     H30855   3.934   7.862   0.360  0.0866 -0.4826 -0.3502
  234MOL0     H30856   3.736   7.704   0.390 -1.5226 -2.5196 -2.0970
  234MOL0     H30857   3.899   7.646   0.329  0.9127 -1.4831 -3.0930
  234MOL0     H30858   3.738   7.519   0.206  1.6087  0.3783 -1.0885
  234MOL0     H30859   3.803   7.637   0.097 -2.7336 -0.3343 -2.4400
  234MOL0     H30860   3.555   7.762   0.217 -2.3167 -0.1542 -2.1240
  234MOL0     H30861   3.607   7.741   0.052 -1.4147 -1.8964 -0.5467
  234MOL0     H30862   3.538   7.498   0.089  1.2292  2.2235 -0.2969
  234MOL0     H30863   3.419   7.624   0.087  3.2674  2.9003 -3.3307
  234MOL0     H30864   3.406   7.643   0.319  1.6614  0.2835  1.2443
  234MOL0     H30865   3.531   7.523   0.361  1.0990  1.5511  0.2241
  234MOL0     H30866   3.304   7.421   0.399  1.5068  0.6101  0.8635
  234MOL0     H30867   3.263   7.453   0.229  1.1627  2.1080 -0.9369
  234MOL0     H30868   3.515   7.284   0.269 -0.1480 -0.4897 -0.7538
  234MOL0     H30869   3.408   7.290   0.137 -0.7635  0.4300  0.6188
  234MOL0     H30870   4.131   7.992   0.277  0.2830 -0.7506  0.7242
  234MOL0     H30871   4.352   7.909   0.252  0.6471 -1.8761 -0.6265
  234MOL0     H30872   4.678   7.729  -0.243  2.5650  0.5635 -0.9372
  234MOL0     H30873   4.922   7.715  -0.231 -0.2794 -0.8587  0.4296
  234MOL0     H30874   6.887   8.015   0.117 -1.0426  1.1799  2.6904
  234MOL0     H30875   7.145   7.994   0.107 -1.2220 -0.4936  0.8995
  234MOL0     H30876   7.597   8.238  -0.080 -2.5066 -1.0757 -0.3953
  234MOL0     H30877   7.827   8.155  -0.071  2.3981 -1.3983  0.3446
  234MOL0     H30878   8.050   8.192   0.126 -1.1971 -0.7712  1.0345
  234MOL0     H30879   8.038   8.104  -0.033 -0.2970  0.1596 -0.5073
  234MOL0     H30880   8.197   8.014   0.206  1.3364 -3.6824 -0.8160
  234MOL0     H30881   8.195   7.944   0.041 -0.8333 -1.4438  1.7793
  234MOL0     H30882   8.309   8.200   0.145 -2.8606 -0.2166  2.1102
  234MOL0     H30883   8.255   8.186  -0.022 -0.8236 -0.8838  0.3309
  234MOL0     H30884   8.406   7.989  -0.061 -0.3893  0.9351 -0.1402
  234MOL0     H30885   8.495   8.131  -0.007 -0.2462 -0.2725 -0.4946
  234MOL0     H30886   8.572   7.895   0.323  0.7726  0.7012  0.5930
  234MOL0     H30887   7.744   7.956   0.302 -0.0316 -0.2210 -0.5440
  234MOL0     H30888   7.520   8.035   0.288  0.0270  0.5213 -0.1894
  235MOL0     O30889   5.770   4.109  10.116 -0.4620  0.2671  0.1099
  235MOL0     C30890   5.808   3.993  10.119 -0.8562  0.0842 -0.6921
  235MOL0     O30891   5.729   3.887  10.122 -0.1476  0.3178 -0.4934
  235MOL0     C30892   5.592   3.900  10.135 -0.0559  0.5470  0.2534
  235MOL0     C30893   5.529   3.992  10.213  0.4411  0.0320  0.2352
  235MOL0     C30894   5.391   4.000  10.209 -0.6691 -0.4750 -0.4766
  235MOL0     C30895   5.315   3.922  10.123 -0.5300  0.2916  0.2874
  235MOL0     O30896   5.180   3.931  10.129  0.0389 -0.1548 -0.2085
  235MOL0     C30897   5.104   3.864  10.029 -0.2471 -0.7990  0.4018
  235MOL0     C30898   4.954   3.882  10.049  0.1400 -0.8271 -0.5224
  235MOL0     C30899   4.915   4.032  10.037 -0.5871  0.5421  0.7533
  235MOL0     C30900   4.768   4.034   9.996 -0.1621 -0.1578  0.2476
  235MOL0     C30901   4.710   4.173   9.948 -0.8799  0.8287 -0.3393
  235MOL0     C30902   4.763   4.226   9.815  0.3089  0.3614  0.1876
  235MOL0     C30903   4.738   4.377   9.820  0.2198  0.2381  0.6326
  235MOL0     C30904   4.801   4.445   9.696  1.1101  0.1918 -0.3149
  235MOL0     N30905   4.737   4.422   9.569  0.7278  0.0466  0.8745
  235MOL0     C30906   4.765   4.321   9.481 -0.3058 -0.2403 -1.0566
  235MOL0     C30907   4.673   4.332   9.388 -0.2132 -0.1077  0.1530
  235MOL0     C30908   4.642   4.259   9.255  0.3990  0.6533  0.1127
  235MOL0     C30909   4.648   4.348   9.131  0.2554  0.9138  0.6181
  235MOL0     C30910   4.617   4.275   9.000  0.1119 -0.3276  0.8079
  235MOL0     C30911   4.612   4.362   8.880 -0.1297 -0.5072  0.0204
  235MOL0     O30912   4.499   4.449   8.893 -0.2220  0.8023  0.0260
  235MOL0     C30913   4.387   4.418   8.811 -0.2977 -0.1631 -1.0546
  235MOL0     C30914   4.351   4.291   8.768  0.4727 -0.0121 -0.1748
  235MOL0     C30915   4.255   4.275   8.665 -0.8340  0.0661 -0.4369
  235MOL0     C30916   4.170   4.376   8.626  0.2974  0.9075  0.8863
  235MOL0     C30917   4.059   4.361   8.521  0.3286  0.2248  0.2901
  235MOL0     O30918   4.036   4.244   8.452  0.1443 -0.2973 -0.3589
  235MOL0     C30919   3.918   4.219   8.390  0.8609  0.2598 -0.1604
  235MOL0     C30920   3.923   4.134   8.273 -0.2265 -1.2439  0.1106
  235MOL0     C30921   3.813   4.091   8.215 -0.3790 -0.2696 -0.4678
  235MOL0     C30922   3.686   4.119   8.267 -1.0159  0.1545 -0.4163
  235MOL0     O30923   3.567   4.079   8.210 -0.9901 -0.0121 -0.3554
  235MOL0     C30924   3.559   4.060   8.065  0.4622  0.2113  0.5812
  235MOL0     C30925   3.415   4.072   8.017  0.4092  0.4847  0.3239
  235MOL0     C30926   3.338   3.960   8.081 -0.7877 -0.6079 -0.0468
  235MOL0     C30927   3.192   3.973   8.040  1.5073  0.0300  0.1104
  235MOL0     C30928   3.101   3.892   8.132 -0.2618 -0.2270 -0.8419
  235MOL0     C30929   2.959   3.915   8.095  0.7116 -0.6411 -0.0386
  235MOL0     C30930   2.921   3.842   7.964 -0.1044 -0.1041 -0.1937
  235MOL0     C30931   2.765   3.856   7.945 -0.4213 -0.4463  0.3587
  235MOL0    Cl30932   2.714   4.005   7.877 -0.1593 -0.0898 -0.2157
  235MOL0     C30933   3.679   4.187   8.386  0.0703 -1.0214  0.5771
  235MOL0     C30934   3.788   4.242   8.446 -0.1020 -0.0248 -0.3592
  235MOL0     O30935   3.994   4.461   8.503  0.3262 -0.5849 -0.2903
  235MOL0     C30936   4.189   4.506   8.689 -0.1332  0.0655 -0.5047
  235MOL0     C30937   4.297   4.527   8.775 -0.7646  0.9760  0.5267
  235MOL0     N30938   4.593   4.436   9.423  0.2573  0.6070 -0.4179
  235MOL0     N30939   4.631   4.493   9.536  0.4187  0.1292  0.3678
  235MOL0     C30940   5.380   3.843  10.036  0.0372 -0.3224  0.6480
  235MOL0     C30941   5.520   3.823  10.038 -0.0383  1.3277 -0.1297
  235MOL0     C30942   5.954   3.980  10.144  0.3908  0.4731  0.7917
  235MOL0     C30943   6.007   3.850  10.169  0.6798  0.4239 -0.7032
  235MOL0     C30944   6.140   3.830  10.204 -0.4911  0.2095  0.5417
  235MOL0     C30945   6.233   3.935  10.203  0.1177 -0.0120 -0.0707
  235MOL0     O30946   6.367   3.924  10.220 -0.0044 -0.2204  0.1941
  235MOL0     C30947   6.421   3.802  10.278  0.0257 -0.2451  0.2434
  235MOL0     C30948   6.572   3.811  10.328 -0.0652  0.5903 -0.0171
  235MOL0     C30949   6.613   3.664  10.335 -0.0138  0.6693 -0.1397
  235MOL0     C30950   6.743   3.652  10.423  0.1661 -0.7252  0.4307
  235MOL0     C30951   6.814   3.526  10.385  0.1022 -0.1891 -0.5732
  235MOL0     C30952   6.869   3.421  10.346  0.4376  0.3852  0.5322
  235MOL0     C30953   6.185   4.063  10.166  0.5414 -0.1965  0.0734
  235MOL0     C30954   6.044   4.083  10.136 -0.7549 -0.3832  0.1743
  235MOL0     H30955   5.591   4.051  10.280  0.0283  1.1900 -0.3840
  235MOL0     H30956   5.345   4.061  10.286  0.2688  0.4141 -0.5840
  235MOL0     H30957   5.133   3.759  10.028 -1.0412 -1.0947  2.6718
  235MOL0     H30958   5.133   3.910   9.934 -1.7286  1.2113  0.8344
  235MOL0     H30959   4.911   3.840  10.140 -1.0929  2.1049  0.3869
  235MOL0     H30960   4.910   3.833   9.961  0.4367  0.3756 -1.3810
  235MOL0     H30961   4.972   4.069   9.952 -0.6629 -0.4060  0.2832
  235MOL0     H30962   4.931   4.097  10.124 -1.0437  2.6640 -0.6559
  235MOL0     H30963   4.751   3.965   9.912 -0.8477  1.6665 -1.1758
  235MOL0     H30964   4.713   4.000  10.084 -1.7626 -2.4586 -1.5159
  235MOL0     H30965   4.733   4.246  10.026 -3.1844  1.9710 -0.6479
  235MOL0     H30966   4.602   4.166   9.935 -0.7063  1.3203 -2.3538
  235MOL0     H30967   4.701   4.178   9.739  0.9479  0.8976 -0.6948
  235MOL0     H30968   4.867   4.198   9.799 -0.6038 -2.9720 -0.6321
  235MOL0     H30969   4.630   4.393   9.826 -0.0536  0.2897 -2.8297
  235MOL0     H30970   4.786   4.430   9.903  1.7541  2.6192 -1.6229
  235MOL0     H30971   4.900   4.405   9.676  0.5110 -1.5221 -0.0502
  235MOL0     H30972   4.803   4.552   9.717 -1.0673  0.7288 -2.3644
  235MOL0     H30973   4.833   4.238   9.498  1.4038  1.0991 -0.9908
  235MOL0     H30974   4.546   4.210   9.267  0.5675 -0.5659 -2.7071
  235MOL0     H30975   4.722   4.186   9.239  2.1524  2.0639  1.8773
  235MOL0     H30976   4.743   4.402   9.119 -0.5681  2.5501  1.2102
  235MOL0     H30977   4.566   4.420   9.140 -1.2044 -0.6165  0.1035
  235MOL0     H30978   4.698   4.202   8.988 -0.6909 -0.9814 -1.0545
  235MOL0     H30979   4.523   4.219   8.999 -0.1911  0.1782  0.1365
  235MOL0     H30980   4.606   4.315   8.781  1.3592  0.0343 -0.3647
  235MOL0     H30981   4.701   4.425   8.873  0.0241 -0.8762 -2.3861
  235MOL0     H30982   4.412   4.209   8.804 -0.3378 -0.3238  0.5144
  235MOL0     H30983   4.265   4.179   8.616  0.5856  1.4043 -3.0356
  235MOL0     H30984   4.016   4.101   8.227 -0.2554 -0.9180 -0.1783
  235MOL0     H30985   3.826   4.038   8.121 -0.2415 -0.7299 -0.1916
  235MOL0     H30986   3.593   3.960   8.037 -0.0931  0.9756 -3.3949
  235MOL0     H30987   3.629   4.131   8.019  1.4142 -1.4074 -0.5811
  235MOL0     H30988   3.423   4.056   7.909 -0.0717  3.8972 -0.3432
  235MOL0     H30989   3.372   4.172   8.028 -0.0715  0.3301 -0.0777
  235MOL0     H30990   3.336   3.959   8.191  0.6706 -0.0116 -0.0041
  235MOL0     H30991   3.372   3.858   8.058 -0.5213 -0.0993 -2.0924
  235MOL0     H30992   3.153   4.075   8.044 -1.3783 -0.9936  0.7238
  235MOL0     H30993   3.181   3.938   7.938 -1.5647 -1.8552  0.9356
  235MOL0     H30994   3.121   3.922   8.236  0.3960  1.0848 -1.3279
  235MOL0     H30995   3.121   3.784   8.134 -1.2771 -0.4944  2.7801
  235MOL0     H30996   2.942   4.023   8.093  2.5559 -0.2795  0.9485
  235MOL0     H30997   2.896   3.879   8.177 -1.0074  1.0785 -0.5490
  235MOL0     H30998   2.968   3.891   7.879  1.3978  2.4515  1.9628
  235MOL0     H30999   2.958   3.739   7.962  1.0311  0.2668  0.7417
  235MOL0     H31000   2.717   3.840   8.042 -1.4059 -0.0333 -0.0390
  235MOL0     H31001   2.745   3.771   7.878  1.5395 -1.1997  0.6754
  235MOL0     H31002   3.584   4.198   8.438 -0.4191 -3.2249  0.2696
  235MOL0     H31003   3.782   4.301   8.537 -0.9021 -1.5031  0.5848
  235MOL0     H31004   4.111   4.582   8.691  0.9693  1.2392  1.3348
  235MOL0     H31005   4.315   4.626   8.815  4.4108 -0.0628  1.4893
  235MOL0     H31006   5.331   3.783   9.961  0.5100 -0.3473  0.3523
  235MOL0     H31007   5.571   3.752   9.974 -0.5063 -1.2669  2.2325
  235MOL0     H31008   5.944   3.764  10.150  0.8174  0.5410 -1.7723
  235MOL0     H31009   6.180   3.731  10.222  1.1995  0.2641 -2.2838
  235MOL0     H31010   6.413   3.721  10.205  0.2955 -1.0627  1.1074
  235MOL0     H31011   6.370   3.778  10.371  0.3403 -1.1738  0.1851
  235MOL0     H31012   6.628   3.870  10.255 -1.2125  1.3068 -0.3492
  235MOL0     H31013   6.587   3.857  10.426 -1.8264  0.2372  0.4483
  235MOL0     H31014   6.626   3.637  10.229  2.8583  2.4058 -0.3224
  235MOL0     H31015   6.532   3.601  10.375 -1.4471  1.0510 -2.2368
  235MOL0     H31016   6.804   3.734  10.386  1.6018 -1.4678  1.1013
  235MOL0     H31017   6.721   3.678  10.527  1.8456  1.3060  0.3328
  235MOL0     H31018   6.901   3.327  10.305  0.0905  0.2043  0.6678
  235MOL0     H31019   6.243   4.154  10.158  1.6275 -0.8128  0.6448
  235MOL0     H31020   6.012   4.178  10.095  0.5556 -0.5150 -1.2267
  236MOL0     O31021   2.411   7.262  10.673 -0.4258  0.9534  0.3325
  236MOL0     C31022   2.404   7.381  10.695  0.3136  0.4799  0.6184
  236MOL0     O31023   2.286   7.445  10.720 -0.2186 -0.1410 -0.2298
  236MOL0     C31024   2.168   7.385  10.740 -0.1213  0.5015  0.4225
  236MOL0     C31025   2.048   7.470  10.754 -0.3194  0.9337  1.2220
  236MOL0     C31026   1.917   7.413  10.770  0.4058 -0.1189 -0.0246
  236MOL0     C31027   1.894   7.278  10.775  0.4323 -0.1194  0.4826
  236MOL0     O31028   1.767   7.230  10.792 -0.1081 -0.6055 -0.1981
  236MOL0     C31029   1.745   7.092  10.810  0.7160  0.2541  0.2416
  236MOL0     C31030   1.593   7.085  10.832 -0.0719  0.2268  0.4763
  236MOL0     C31031   1.533   6.950  10.863 -0.2291 -0.5054 -0.1734
  236MOL0     C31032   1.378   6.961  10.882  0.5956 -0.0174 -0.1232
  236MOL0     C31033   1.313   6.826  10.869  1.1753  0.1434  0.4824
  236MOL0     C31034   1.161   6.849  10.898 -0.0202 -0.7779 -0.3489
  236MOL0     C31035   1.085   6.723  10.908  0.8653 -0.4031  0.6934
  236MOL0     C31036   0.933   6.738  10.933  0.0879 -0.6860 -0.1985
  236MOL0     N31037   0.865   6.610  10.925  0.2474  0.8051 -0.5098
  236MOL0     C31038   0.882   6.491  10.999 -0.3864  0.1517  0.3486
  236MOL0     C31039   0.805   6.394  10.932 -0.4237  0.3963 -0.3275
  236MOL0     C31040   0.771   6.252  10.989  0.0168  0.1349 -1.0314
  236MOL0     C31041   0.637   6.248  11.069 -0.3025  0.1861  0.3842
  236MOL0     C31042   0.631   6.125  11.156  0.0664  0.2372  1.0483
  236MOL0     C31043   0.504   6.120  11.246 -0.6836 -0.6871 -0.2395
  236MOL0     O31044   0.387   6.172  11.190  0.5343  0.6658 -0.1496
  236MOL0     C31045   0.271   6.155  11.275  0.2469 -0.1030  0.5241
  236MOL0     C31046   0.150   6.169  11.207 -0.1411 -0.6987  0.3058
  236MOL0     C31047   0.021   6.159  11.261 -0.0167  0.2061  0.7240
  236MOL0     C31048   0.019   6.126  11.396  0.6964  0.6822 -0.0210
  236MOL0     C31049  -0.109   6.117  11.472 -0.5404  0.0954 -0.0458
  236MOL0     O31050  -0.103   6.034  11.577 -0.9830  0.2078  0.0085
  236MOL0     C31051  -0.202   6.026  11.668  0.4988  0.4950 -0.0737
  236MOL0     C31052  -0.322   5.958  11.648 -0.1456 -0.1905  0.1398
  236MOL0     C31053  -0.424   5.947  11.737 -0.1429  0.0253  0.1741
  236MOL0     C31054  -0.407   6.004  11.868  0.1588 -0.1994 -0.0659
  236MOL0     O31055  -0.521   5.999  11.952 -0.1041 -0.0533  0.2677
  236MOL0     C31056  -0.497   6.055  12.076  0.4746 -0.5134 -0.4740
  236MOL0     C31057  -0.625   6.054  12.153  1.5077 -0.2442  0.6132
  236MOL0     C31058  -0.723   6.161  12.082 -0.1914 -0.1225  0.0665
  236MOL0     C31059  -0.832   6.202  12.183 -0.7068  0.1764 -0.2641
  236MOL0     C31060  -0.961   6.148  12.129  0.3549  0.6820  0.1132
  236MOL0     C31061  -1.088   6.187  12.208 -1.1456 -0.2806 -0.4364
  236MOL0     C31062  -1.209   6.113  12.148 -0.2728 -0.3450  1.0988
  236MOL0     C31063  -1.333   6.136  12.233 -0.1312 -0.2509 -0.2504
  236MOL0    Cl31064  -1.481   6.084  12.149 -0.4920 -0.8073  0.0649
  236MOL0     C31065  -0.284   6.075  11.891  0.3844  0.5383  0.0925
  236MOL0     C31066  -0.180   6.072  11.796 -0.1546 -0.3168  1.0781
  236MOL0     O31067  -0.205   6.192  11.450  0.2727 -0.5046  0.6139
  236MOL0     C31068   0.137   6.100  11.471  0.6171  0.1187 -0.4830
  236MOL0     C31069   0.261   6.118  11.412  0.2200 -0.3933  0.4150
  236MOL0     N31070   0.735   6.460  10.828  0.2835  0.2571 -0.0588
  236MOL0     N31071   0.769   6.582  10.833  0.3066 -0.7219 -0.3532
  236MOL0     C31072   2.010   7.191  10.773  0.7567 -0.4581  0.2010
  236MOL0     C31073   2.142   7.247  10.769 -0.2568  0.0720  0.4511
  236MOL0     C31074   2.532   7.466  10.686  0.2246 -0.3608  0.5529
  236MOL0     C31075   2.526   7.603  10.659 -0.4420  0.4079  0.6738
  236MOL0     C31076   2.649   7.674  10.635  0.1013  0.7445 -0.1529
  236MOL0     C31077   2.770   7.605  10.652 -0.0278  0.1562  0.0858
  236MOL0     O31078   2.891   7.667  10.639  0.0167 -0.2572  0.3578
  236MOL0     C31079   2.894   7.757  10.529 -0.1138  0.4028  0.1712
  236MOL0     C31080   3.038   7.815  10.500 -0.1350  0.2346 -0.4490
  236MOL0     C31081   3.147   7.715  10.451  0.2290  0.0670 -1.0498
  236MOL0     C31082   3.286   7.774  10.434 -0.3114  0.2172  1.2527
  236MOL0     C31083   3.364   7.703  10.332 -0.9078  0.7296  0.1081
  236MOL0     C31084   3.435   7.648  10.250 -0.4309 -0.5542  0.9090
  236MOL0     C31085   2.776   7.469  10.680  0.5463  0.2792 -0.2029
  236MOL0     C31086   2.654   7.395  10.694 -0.0270 -0.4707 -1.0234
  236MOL0     H31087   2.063   7.577  10.747 -0.5247  0.8905  0.0150
  236MOL0     H31088   1.837   7.486  10.779  0.6899  0.0855  1.0244
  236MOL0     H31089   1.794   7.049  10.898 -1.7741  0.2656  1.7063
  236MOL0     H31090   1.773   7.041  10.717 -0.7535  0.6471 -0.4352
  236MOL0     H31091   1.544   7.130  10.746  2.3160  0.7907 -0.6566
  236MOL0     H31092   1.561   7.148  10.916 -0.0137 -0.7650  1.2723
  236MOL0     H31093   1.567   6.919  10.963 -4.4558 -0.9254  1.3515
  236MOL0     H31094   1.557   6.873  10.790 -1.5508 -1.1441  0.0206
  236MOL0     H31095   1.361   7.002  10.982  2.0284 -0.9003  0.5146
  236MOL0     H31096   1.340   7.021  10.798  3.2365  1.0167 -0.6776
  236MOL0     H31097   1.351   6.763  10.950 -0.8201  0.4576  1.7261
  236MOL0     H31098   1.334   6.787  10.769  1.7513  1.4967  0.0600
  236MOL0     H31099   1.118   6.917  10.823 -0.3127 -1.7631 -1.0874
  236MOL0     H31100   1.147   6.900  10.993  2.8765 -2.1497  0.9464
  236MOL0     H31101   1.103   6.663  10.819 -0.1709 -0.4563  0.5167
  236MOL0     H31102   1.126   6.675  10.998 -0.8365  0.5277  2.0246
  236MOL0     H31103   0.880   6.810  10.871  1.5819  0.9950  0.4046
  236MOL0     H31104   0.908   6.773  11.033 -0.0288  0.3419 -0.5727
  236MOL0     H31105   0.928   6.470  11.095  0.6666 -1.4619 -0.4609
  236MOL0     H31106   0.855   6.224  11.052 -0.8167  3.4007  1.8656
  236MOL0     H31107   0.750   6.179  10.911 -0.1639  0.1757 -1.0229
  236MOL0     H31108   0.559   6.243  10.992  1.0934  0.6903 -1.1265
  236MOL0     H31109   0.621   6.331  11.138  3.7693 -0.3935  2.2901
  236MOL0     H31110   0.643   6.037  11.093 -0.7454  2.5494 -2.6754
  236MOL0     H31111   0.723   6.142  11.213  0.8719 -0.7497  0.0731
  236MOL0     H31112   0.515   6.163  11.346 -0.9134  0.0528 -0.5258
  236MOL0     H31113   0.481   6.015  11.266  4.1972 -1.8685  0.4063
  236MOL0     H31114   0.160   6.204  11.105  0.3687  0.1019  0.6165
  236MOL0     H31115  -0.071   6.182  11.208  0.1306 -2.5918 -0.9654
  236MOL0     H31116  -0.330   5.905  11.554  0.2456 -1.3082  0.7118
  236MOL0     H31117  -0.516   5.896  11.711  0.3920 -1.5029  1.1426
  236MOL0     H31118  -0.469   6.160  12.071 -0.8457 -0.0910  0.3787
  236MOL0     H31119  -0.418   6.002  12.131 -0.7450 -4.7121 -2.3168
  236MOL0     H31120  -0.609   6.087  12.256  0.9226  1.6836  0.1295
  236MOL0     H31121  -0.670   5.954  12.158  2.6877 -0.8116  0.3207
  236MOL0     H31122  -0.757   6.111  11.991  0.7315  0.0583 -0.3859
  236MOL0     H31123  -0.661   6.247  12.055  0.7420 -0.3766  1.3471
  236MOL0     H31124  -0.821   6.159  12.283 -0.9570 -0.3820 -0.4686
  236MOL0     H31125  -0.827   6.310  12.196  1.4913 -0.2255  3.7387
  236MOL0     H31126  -0.953   6.039  12.127 -2.2379  0.4357 -1.8405
  236MOL0     H31127  -0.984   6.177  12.026 -1.9784 -2.9502 -0.5733
  236MOL0     H31128  -1.095   6.296  12.209 -0.1792 -0.2117  0.2070
  236MOL0     H31129  -1.068   6.156  12.311  1.9267 -0.1032 -0.8926
  236MOL0     H31130  -1.234   6.154  12.050 -0.1935 -2.1504  0.2835
  236MOL0     H31131  -1.189   6.005  12.154  1.2947 -0.2395 -0.9835
  236MOL0     H31132  -1.341   6.243  12.252 -1.5392  0.5951 -4.5845
  236MOL0     H31133  -1.316   6.079  12.325 -1.3067  2.0853  1.5104
  236MOL0     H31134  -0.273   6.132  11.982 -1.4887 -0.7077  1.1746
  236MOL0     H31135  -0.085   6.122  11.812 -1.8582  3.3237  0.8450
  236MOL0     H31136   0.148   6.071  11.575  0.8739  0.3872 -0.4322
  236MOL0     H31137   0.350   6.087  11.466  0.2874 -2.1033 -0.5909
  236MOL0     H31138   2.001   7.085  10.790 -0.6618 -0.3558  0.2127
  236MOL0     H31139   2.218   7.169  10.773  1.9220  1.9653 -1.4125
  236MOL0     H31140   2.431   7.656  10.653 -0.9690 -0.5154  0.6835
  236MOL0     H31141   2.643   7.776  10.599 -3.2772  0.2321 -1.3612
  236MOL0     H31142   2.833   7.846  10.548  2.8630  2.3334  1.3506
  236MOL0     H31143   2.858   7.708  10.437  3.1622 -2.5139  0.2532
  236MOL0     H31144   3.036   7.891  10.421 -0.3259  2.2655  1.4146
  236MOL0     H31145   3.073   7.870  10.588  2.1432  1.3309 -1.9465
  236MOL0     H31146   3.122   7.659  10.360  5.0601 -3.7910 -0.3757
  236MOL0     H31147   3.147   7.645  10.535 -2.6913  0.2340 -0.8041
  236MOL0     H31148   3.289   7.879  10.404 -0.0260 -0.2081 -0.3075
  236MOL0     H31149   3.326   7.766  10.536 -0.0621  0.4506  1.1754
  236MOL0     H31150   3.502   7.594  10.185  1.0798  3.3013 -1.0740
  236MOL0     H31151   2.866   7.410  10.689  0.8740  0.8512  0.3111
  236MOL0     H31152   2.651   7.288  10.713  2.5274 -0.3201  0.6956
  237MOL0     O31153   1.085   6.510   4.094  0.1680 -0.5094  0.2759
  237MOL0     C31154   1.122   6.511   3.979  0.1878  0.3544  0.9681
  237MOL0     O31155   1.068   6.435   3.873 -0.7786 -0.7186 -0.3776
  237MOL0     C31156   0.949   6.359   3.876  0.0746 -0.3387 -0.1528
  237MOL0     C31157   0.870   6.363   3.766  0.1847 -0.4677 -0.0651
  237MOL0     C31158   0.745   6.293   3.768 -0.1655  0.3701 -0.3227
  237MOL0     C31159   0.702   6.224   3.880 -0.5899  0.6005 -0.1255
  237MOL0     O31160   0.578   6.167   3.869 -0.9052 -0.6738  0.0491
  237MOL0     C31161   0.528   6.110   3.987  0.1599 -0.6705  0.2704
  237MOL0     C31162   0.388   6.070   3.960  0.1613 -0.4087 -0.7291
  237MOL0     C31163   0.296   6.193   3.926  0.0708  0.6007  0.6877
  237MOL0     C31164   0.150   6.155   3.910  0.2876 -0.6727 -0.5106
  237MOL0     C31165   0.078   6.277   3.842 -0.7143 -0.0231 -0.4202
  237MOL0     C31166  -0.064   6.290   3.891 -0.0715 -0.2167 -0.5176
  237MOL0     C31167  -0.152   6.389   3.806 -1.0229 -0.3087 -0.7608
  237MOL0     C31168  -0.294   6.410   3.858 -0.4073 -0.1928  0.1295
  237MOL0     N31169  -0.380   6.295   3.826  0.2853 -1.1511 -0.1288
  237MOL0     C31170  -0.444   6.273   3.708 -0.0761 -0.5206 -0.0956
  237MOL0     C31171  -0.512   6.162   3.739  0.6172 -0.1776  0.4957
  237MOL0     C31172  -0.614   6.092   3.649 -0.5810 -0.1332 -0.2077
  237MOL0     C31173  -0.763   6.136   3.662  0.1886  0.5613  0.1874
  237MOL0     C31174  -0.777   6.284   3.613  0.3255  0.2527 -0.0426
  237MOL0     C31175  -0.926   6.323   3.619 -0.8693 -0.3217 -0.1145
  237MOL0     O31176  -0.976   6.318   3.753  0.3811 -0.2316 -0.0210
  237MOL0     C31177  -1.096   6.388   3.776 -0.3368 -0.0686  0.3915
  237MOL0     C31178  -1.186   6.443   3.680 -0.4613  0.2389 -0.6363
  237MOL0     C31179  -1.309   6.497   3.719  0.1027  0.3134  0.5071
  237MOL0     C31180  -1.343   6.509   3.860 -0.1080  0.5255  0.3409
  237MOL0     C31181  -1.469   6.561   3.912  0.3470  0.5677  0.0102
  237MOL0     O31182  -1.496   6.545   4.044 -0.4746 -0.1503 -0.2221
  237MOL0     C31183  -1.631   6.561   4.069  0.6449 -0.6010 -0.4493
  237MOL0     C31184  -1.685   6.681   4.137 -0.6262  0.6535 -0.2335
  237MOL0     C31185  -1.824   6.688   4.142  0.0359  1.1130 -0.5499
  237MOL0     C31186  -1.918   6.589   4.096  0.0822  0.2029 -0.1019
  237MOL0     O31187  -2.054   6.600   4.107 -0.7864 -0.5017  0.1525
  237MOL0     C31188  -2.111   6.711   4.171 -0.6916 -0.1134 -0.3418
  237MOL0     C31189  -2.256   6.707   4.120  0.3290  0.4990  0.3922
  237MOL0     C31190  -2.336   6.819   4.181 -0.0691 -0.5298 -0.5816
  237MOL0     C31191  -2.486   6.821   4.140  0.8901 -0.5102 -0.1080
  237MOL0     C31192  -2.567   6.938   4.211 -0.3223  0.0130 -0.4429
  237MOL0     C31193  -2.703   6.971   4.151  0.2743 -0.2161 -0.8827
  237MOL0     C31194  -2.814   6.871   4.182 -0.5041 -0.8456 -0.7712
  237MOL0     C31195  -2.941   6.913   4.102 -0.2206  0.2053  0.0284
  237MOL0    Cl31196  -2.994   7.077   4.137 -0.3886  0.4366  0.5160
  237MOL0     C31197  -1.861   6.472   4.044 -0.0167  0.2549  1.1532
  237MOL0     C31198  -1.721   6.456   4.036  0.4992 -0.3728  0.3769
  237MOL0     O31199  -1.549   6.607   3.830  0.1162 -0.4875 -0.8065
  237MOL0     C31200  -1.250   6.458   3.953 -0.0701  0.5808  1.0732
  237MOL0     C31201  -1.135   6.392   3.911 -0.7500 -0.1189 -0.3409
  237MOL0     N31202  -0.494   6.126   3.868  0.2892 -0.8207 -0.0146
  237MOL0     N31203  -0.421   6.214   3.922 -0.1839  0.4165  0.3876
  237MOL0     C31204   0.786   6.218   3.990  0.5161 -0.6970 -0.1477
  237MOL0     C31205   0.907   6.286   3.988 -0.0465 -0.4034  0.7952
  237MOL0     C31206   1.262   6.552   3.962  0.4155 -0.2200  0.2083
  237MOL0     C31207   1.323   6.566   3.836  0.0931 -0.1645 -1.0522
  237MOL0     C31208   1.457   6.611   3.827  0.4224 -1.2705  0.2833
  237MOL0     C31209   1.535   6.619   3.943 -0.0260  0.2792 -0.3074
  237MOL0     O31210   1.657   6.662   3.927 -0.9953 -0.0659  0.6973
  237MOL0     C31211   1.744   6.704   4.035  0.3933  0.4085 -0.2250
  237MOL0     C31212   1.856   6.790   3.987  0.1583  0.0336  0.5614
  237MOL0     C31213   1.929   6.855   4.103  0.4108  0.9673  0.2916
  237MOL0     C31214   2.003   6.979   4.045 -0.3795 -0.5904 -0.0858
  237MOL0     C31215   2.107   7.011   4.139  0.8406 -0.3320 -0.1533
  237MOL0     C31216   2.202   7.027   4.212  0.2987 -0.2549  0.4653
  237MOL0     C31217   1.474   6.599   4.069 -0.2814 -0.3621  0.4762
  237MOL0     C31218   1.340   6.571   4.080 -0.6350  0.0268  0.8571
  237MOL0     H31219   0.899   6.425   3.682 -2.4991  2.7143  1.1232
  237MOL0     H31220   0.696   6.288   3.671  0.8423 -0.1198 -0.8128
  237MOL0     H31221   0.516   6.184   4.067 -0.2600 -0.0627 -0.3471
  237MOL0     H31222   0.576   6.020   4.029 -0.9970 -1.0629  0.7822
  237MOL0     H31223   0.350   6.015   4.047  2.3987 -1.9825 -0.6674
  237MOL0     H31224   0.400   5.996   3.880 -0.2215 -0.1656 -1.0173
  237MOL0     H31225   0.331   6.236   3.831 -4.2758 -0.4950 -1.7104
  237MOL0     H31226   0.312   6.266   4.006  1.9175 -0.4401  1.3400
  237MOL0     H31227   0.135   6.069   3.844 -0.8200 -1.8238  1.1666
  237MOL0     H31228   0.098   6.139   4.005 -0.5324 -1.2889 -1.0449
  237MOL0     H31229   0.088   6.262   3.735 -1.3027 -0.2511 -0.4525
  237MOL0     H31230   0.126   6.372   3.868  1.6642 -1.6483  1.6082
  237MOL0     H31231  -0.058   6.319   3.996  1.9422  1.7330 -1.1033
  237MOL0     H31232  -0.114   6.193   3.878  0.5694 -0.2573 -3.4588
  237MOL0     H31233  -0.106   6.488   3.798 -4.1036  1.1939 -1.1920
  237MOL0     H31234  -0.162   6.355   3.703 -2.8847  0.3050 -0.8241
  237MOL0     H31235  -0.342   6.495   3.809  1.1719  0.9631  0.5043
  237MOL0     H31236  -0.298   6.424   3.966 -2.8798 -1.4759  0.2713
  237MOL0     H31237  -0.441   6.328   3.615  0.8997 -2.0567 -1.0292
  237MOL0     H31238  -0.601   5.985   3.669  0.3524 -0.2459 -1.3097
  237MOL0     H31239  -0.578   6.112   3.547 -2.7887  0.2194 -0.9652
  237MOL0     H31240  -0.792   6.136   3.768 -1.8948 -1.0365 -0.3350
  237MOL0     H31241  -0.829   6.067   3.610 -1.5585  1.8906  0.5469
  237MOL0     H31242  -0.725   6.356   3.677 -3.2320  1.6725  1.4867
  237MOL0     H31243  -0.741   6.286   3.509 -0.8934 -2.6961 -0.6283
  237MOL0     H31244  -0.977   6.270   3.538 -0.2857  1.0161 -1.4007
  237MOL0     H31245  -0.936   6.429   3.592 -1.9751  0.1392  1.8429
  237MOL0     H31246  -1.144   6.443   3.580  1.4357 -1.2294  0.1146
  237MOL0     H31247  -1.373   6.550   3.649  1.0374  2.4809  1.2044
  237MOL0     H31248  -1.625   6.762   4.177 -0.8538  0.8621 -0.3094
  237MOL0     H31249  -1.865   6.774   4.194  0.2839  0.9973 -0.1593
  237MOL0     H31250  -2.061   6.802   4.138 -0.3997 -0.3257 -0.4905
  237MOL0     H31251  -2.099   6.699   4.279  0.0262 -1.6309 -0.5665
  237MOL0     H31252  -2.296   6.606   4.133  0.3107  0.6684  1.9278
  237MOL0     H31253  -2.251   6.722   4.012  0.0318  1.7728  0.5419
  237MOL0     H31254  -2.288   6.914   4.155 -0.8732  0.2846  0.7976
  237MOL0     H31255  -2.334   6.813   4.290  1.0586 -2.9571 -0.6772
  237MOL0     H31256  -2.499   6.832   4.032  0.7611 -0.7773 -0.1206
  237MOL0     H31257  -2.528   6.723   4.166  1.8125 -1.5187 -2.1559
  237MOL0     H31258  -2.512   7.032   4.212  0.2256 -0.2641  1.6400
  237MOL0     H31259  -2.573   6.904   4.315 -0.5955 -2.2025 -1.1376
  237MOL0     H31260  -2.684   6.975   4.043 -1.9323  0.0251 -1.3040
  237MOL0     H31261  -2.735   7.068   4.191  0.1871 -0.4254 -0.4341
  237MOL0     H31262  -2.774   6.772   4.159 -0.3065 -1.2715  1.2666
  237MOL0     H31263  -2.840   6.883   4.287 -1.1087 -1.9489 -0.7844
  237MOL0     H31264  -3.026   6.848   4.127 -1.2746 -0.4691 -4.4291
  237MOL0     H31265  -2.923   6.900   3.994  0.1918 -1.9968  0.3036
  237MOL0     H31266  -1.917   6.390   4.001  1.3111  0.0543 -0.2733
  237MOL0     H31267  -1.694   6.362   3.989  0.7329 -0.0754 -0.1040
  237MOL0     H31268  -1.256   6.472   4.060  0.7645  0.7805  1.1019
  237MOL0     H31269  -1.084   6.331   3.985 -1.6609  1.3565  1.5917
  237MOL0     H31270   0.767   6.158   4.077  3.3868 -0.9922  0.3464
  237MOL0     H31271   0.967   6.282   4.078 -1.0103 -0.8139  1.4370
  237MOL0     H31272   1.260   6.540   3.751 -0.0147 -2.1407 -0.4191
  237MOL0     H31273   1.501   6.633   3.730  1.4341 -1.9988  0.5644
  237MOL0     H31274   1.787   6.617   4.086  2.0738  1.7926  0.8415
  237MOL0     H31275   1.689   6.759   4.112 -2.0789 -1.2523 -0.6956
  237MOL0     H31276   1.925   6.729   3.929  1.2595  1.6586  0.0859
  237MOL0     H31277   1.823   6.872   3.922  0.7209 -0.3121 -0.1703
  237MOL0     H31278   2.002   6.785   4.144  0.7435  0.7133 -0.6866
  237MOL0     H31279   1.862   6.875   4.187  1.3906 -1.5713  1.7953
  237MOL0     H31280   2.049   6.952   3.950  1.6017 -1.5105  1.0720
  237MOL0     H31281   1.927   7.056   4.028  0.1566 -0.2717 -1.1407
  237MOL0     H31282   2.300   7.020   4.254  1.1228 -0.9725 -1.4615
  237MOL0     H31283   1.530   6.610   4.161 -0.6393  1.0636  0.5479
  237MOL0     H31284   1.294   6.551   4.176 -2.8321  2.9336  0.5586
  238MOL0     O31285   0.828   4.788   9.706  0.4878 -0.7814 -0.4690
  238MOL0     C31286   0.897   4.712   9.769  0.0455  0.6049  0.6214
  238MOL0     O31287   0.865   4.577   9.784  0.4363  0.7792 -0.5944
  238MOL0     C31288   0.740   4.543   9.732  0.2707  0.2451 -0.3115
  238MOL0     C31289   0.719   4.490   9.601  0.7104  0.0605  0.0850
  238MOL0     C31290   0.598   4.434   9.562  0.4224 -0.8179  0.1055
  238MOL0     C31291   0.486   4.447   9.655  0.1124  0.0846  0.9053
  238MOL0     O31292   0.371   4.396   9.609  0.0558 -0.7903 -0.6455
  238MOL0     C31293   0.249   4.389   9.693  0.3708  0.1341 -0.0457
  238MOL0     C31294   0.252   4.264   9.783  0.4703  0.3626 -1.3270
  238MOL0     C31295   0.112   4.207   9.832  0.7545  0.4423 -0.1480
  238MOL0     C31296   0.044   4.312   9.917  0.0242 -0.0240 -0.0104
  238MOL0     C31297  -0.087   4.260   9.968 -0.3180  0.0340  0.7468
  238MOL0     C31298  -0.172   4.349  10.056  0.4912 -0.0759 -0.7614
  238MOL0     C31299  -0.105   4.403  10.185  0.5809  0.1923 -0.4919
  238MOL0     C31300  -0.070   4.313  10.301 -0.1396  0.0307 -0.1826
  238MOL0     N31301  -0.022   4.404  10.413 -0.4507 -0.3428 -0.1636
  238MOL0     C31302   0.106   4.427  10.450 -0.3604  0.5289  0.0781
  238MOL0     C31303   0.097   4.505  10.561 -0.0901 -0.0187 -0.2980
  238MOL0     C31304   0.212   4.565  10.643 -0.0155 -0.7834 -0.1573
  238MOL0     C31305   0.237   4.499  10.772  0.0124  0.0924  0.8326
  238MOL0     C31306   0.264   4.353  10.752 -0.0727 -0.1092  1.3292
  238MOL0     C31307   0.383   4.323  10.658 -0.7479 -0.0674  0.0743
  238MOL0     O31308   0.513   4.379  10.707  0.2087  0.0906  0.6238
  238MOL0     C31309   0.633   4.314  10.690  0.5635  0.0456  0.5092
  238MOL0     C31310   0.742   4.371  10.766  0.2614 -0.7315  0.4214
  238MOL0     C31311   0.869   4.315  10.764  0.0828  0.8424 -0.0780
  238MOL0     C31312   0.899   4.198  10.691  0.4817  0.4594 -0.5247
  238MOL0     C31313   1.030   4.136  10.690  0.7130 -0.0576 -0.2828
  238MOL0     O31314   1.040   4.005  10.656 -0.0577 -0.3688  0.2754
  238MOL0     C31315   1.168   3.964  10.633  0.0019  0.4268 -0.0173
  238MOL0     C31316   1.205   3.852  10.708 -0.0364 -0.6299  0.0782
  238MOL0     C31317   1.328   3.794  10.689  0.6737  0.2186 -0.3386
  238MOL0     C31318   1.427   3.853  10.606 -0.2492  0.1403  0.0549
  238MOL0     O31319   1.559   3.817  10.602 -0.3561  0.2237 -0.3035
  238MOL0     C31320   1.584   3.689  10.665 -1.0222  0.1719 -0.0738
  238MOL0     C31321   1.728   3.680  10.703 -0.5253  0.2849  0.1131
  238MOL0     C31322   1.826   3.738  10.604  0.2581 -0.2251 -0.1163
  238MOL0     C31323   1.969   3.747  10.637 -0.5729  0.1540 -0.8110
  238MOL0     C31324   2.035   3.820  10.516 -0.0499 -0.2288 -0.4618
  238MOL0     C31325   2.178   3.788  10.509 -0.7761  0.2458 -1.0644
  238MOL0     C31326   2.264   3.871  10.618 -0.1765  0.5902  0.2260
  238MOL0     C31327   2.405   3.829  10.607 -0.2915 -0.4739 -0.5035
  238MOL0    Cl31328   2.473   3.872  10.443 -0.3768 -0.1053  0.4022
  238MOL0     C31329   1.384   3.955  10.520  0.7936 -0.2962  0.1676
  238MOL0     C31330   1.257   4.013  10.538 -0.4648  0.6093  0.7169
  238MOL0     O31331   1.113   4.217  10.715 -0.7034  0.1795  0.2313
  238MOL0     C31332   0.798   4.134  10.619  0.6283 -0.1684 -0.5051
  238MOL0     C31333   0.665   4.190  10.623 -0.2374 -0.2602  0.1997
  238MOL0     N31334  -0.039   4.524  10.582 -0.0659  1.0455 -0.3705
  238MOL0     N31335  -0.108   4.461  10.501 -0.2877  0.4051 -0.4888
  238MOL0     C31336   0.509   4.503   9.778  0.4628 -0.1687  0.6592
  238MOL0     C31337   0.628   4.539   9.827  0.1052 -0.7701  0.0904
  238MOL0     C31338   1.039   4.746   9.798  0.4418  0.1420  0.2470
  238MOL0     C31339   1.107   4.859   9.736  0.3065  0.3040  0.0171
  238MOL0     C31340   1.238   4.894   9.767 -0.7894 -0.5302 -0.0972
  238MOL0     C31341   1.308   4.820   9.867 -0.1491  0.2681  1.1962
  238MOL0     O31342   1.440   4.841   9.884 -0.5878  0.1549 -0.0905
  238MOL0     C31343   1.471   4.962   9.954 -0.3185 -0.6340 -0.0738
  238MOL0     C31344   1.573   5.049   9.875 -0.5582 -0.7871  0.2330
  238MOL0     C31345   1.716   4.992   9.909  0.4267 -0.4872 -0.1838
  238MOL0     C31346   1.776   5.085  10.016 -0.9464  0.8312 -0.1164
  238MOL0     C31347   1.910   5.033  10.055 -0.0474 -0.5355  0.0670
  238MOL0     C31348   2.017   4.993  10.090 -0.0510 -0.4119  0.4792
  238MOL0     C31349   1.249   4.707   9.920 -0.3173  0.3020  0.5975
  238MOL0     C31350   1.118   4.670   9.891  0.0574 -0.5968  0.1169
  238MOL0     H31351   0.790   4.471   9.521  1.7079  2.2550  0.3774
  238MOL0     H31352   0.581   4.385   9.467 -0.9069 -0.5855  0.2065
  238MOL0     H31353   0.167   4.375   9.622 -0.5863  1.9634  0.6448
  238MOL0     H31354   0.223   4.480   9.747  0.1273 -0.1659  0.3509
  238MOL0     H31355   0.318   4.284   9.867  0.6572 -0.8233 -1.1791
  238MOL0     H31356   0.296   4.179   9.730 -1.2334 -0.5561 -1.3741
  238MOL0     H31357   0.125   4.119   9.896 -3.8517  0.1550  0.7343
  238MOL0     H31358   0.051   4.182   9.745  2.3685  0.3317 -1.2849
  238MOL0     H31359   0.106   4.325  10.006  1.4131 -1.7466 -0.6640
  238MOL0     H31360   0.038   4.410   9.868  1.3557 -0.0139 -0.2050
  238MOL0     H31361  -0.060   4.172  10.028 -1.9325 -2.7680 -2.2608
  238MOL0     H31362  -0.136   4.236   9.873  1.9605  1.1971 -0.8143
  238MOL0     H31363  -0.256   4.286  10.087  1.1006 -1.4949 -1.8616
  238MOL0     H31364  -0.204   4.438  10.001 -2.7194  0.1653  1.2426
  238MOL0     H31365  -0.017   4.460  10.154  0.2412  0.5316 -0.8464
  238MOL0     H31366  -0.170   4.480  10.229  1.1417 -0.1272  0.9717
  238MOL0     H31367   0.012   4.245  10.273  0.6338  0.2975  1.3369
  238MOL0     H31368  -0.157   4.254  10.333 -1.4532  1.2790 -1.3322
  238MOL0     H31369   0.195   4.396  10.397  1.4692  6.0961 -0.7896
  238MOL0     H31370   0.189   4.671  10.655  0.9909 -0.4280 -1.1585
  238MOL0     H31371   0.305   4.563  10.586 -0.4106 -1.8902 -0.8051
  238MOL0     H31372   0.149   4.503  10.837 -0.7797 -1.4686 -0.0864
  238MOL0     H31373   0.328   4.546  10.812 -0.3779  1.5926  0.0052
  238MOL0     H31374   0.287   4.312  10.851  0.5277 -1.0716  0.8016
  238MOL0     H31375   0.172   4.315  10.707  0.3759  1.9975 -1.6856
  238MOL0     H31376   0.358   4.362  10.559  0.0123  0.5811  0.1334
  238MOL0     H31377   0.399   4.215  10.653  1.7141  0.1852  1.0814
  238MOL0     H31378   0.722   4.451  10.837  0.3905  0.2255 -0.5748
  238MOL0     H31379   0.942   4.363  10.829 -0.8765  1.9724  0.2076
  238MOL0     H31380   1.144   3.799  10.780 -2.1019 -2.3434 -2.7492
  238MOL0     H31381   1.341   3.702  10.745 -1.0576  0.9398  1.3711
  238MOL0     H31382   1.569   3.607  10.593 -0.3237  0.7957 -0.9496
  238MOL0     H31383   1.529   3.666  10.757  0.2708  1.2683  0.9900
  238MOL0     H31384   1.767   3.578  10.712 -2.4861 -0.4187  1.1738
  238MOL0     H31385   1.739   3.732  10.798  2.2712  1.0369 -0.5382
  238MOL0     H31386   1.784   3.830  10.561 -1.5572 -0.5866  0.7979
  238MOL0     H31387   1.816   3.675  10.516  2.7111 -0.7343 -0.1070
  238MOL0     H31388   1.986   3.809  10.725  1.0381 -2.3982  0.8248
  238MOL0     H31389   1.997   3.643  10.659 -2.4092  0.2572  2.6882
  238MOL0     H31390   2.031   3.929  10.528 -0.8648 -0.2648 -0.3592
  238MOL0     H31391   1.977   3.788  10.430  0.3201 -0.8940 -0.4683
  238MOL0     H31392   2.213   3.816  10.409  1.2063  0.1866 -0.4277
  238MOL0     H31393   2.190   3.680  10.512 -2.1386  0.0943  0.6887
  238MOL0     H31394   2.254   3.976  10.590  1.4191  0.8548  0.5405
  238MOL0     H31395   2.219   3.864  10.718  3.0444 -0.8430  1.7393
  238MOL0     H31396   2.418   3.722  10.627  0.8684 -0.3491 -0.4967
  238MOL0     H31397   2.458   3.892  10.678  0.7606 -0.3803 -1.3450
  238MOL0     H31398   1.450   3.996  10.443 -1.2974  0.1759 -1.4657
  238MOL0     H31399   1.224   4.090  10.468  0.4957  0.4879  0.1187
  238MOL0     H31400   0.818   4.052  10.550  0.1635 -1.7636  1.1894
  238MOL0     H31401   0.594   4.132  10.566  2.0437 -1.4904 -1.5726
  238MOL0     H31402   0.427   4.504   9.849  0.1647 -1.1173  0.3478
  238MOL0     H31403   0.641   4.563   9.933 -1.7508 -1.5803  0.5321
  238MOL0     H31404   1.051   4.912   9.660 -1.3704 -0.5817  0.5821
  238MOL0     H31405   1.287   4.978   9.719  1.3200 -1.0775  0.9949
  238MOL0     H31406   1.507   4.959  10.057 -0.9140  0.8655  0.2024
  238MOL0     H31407   1.382   5.023   9.972  0.5598  1.0706 -1.2150
  238MOL0     H31408   1.548   5.054   9.768 -0.7495 -1.0156  0.2665
  238MOL0     H31409   1.570   5.152   9.910 -0.8130 -1.0465  0.9874
  238MOL0     H31410   1.769   4.989   9.813 -2.2485 -1.2633 -1.7452
  238MOL0     H31411   1.704   4.888   9.941  0.2544 -0.0500  1.2457
  238MOL0     H31412   1.783   5.189   9.983  1.8073  1.1464  1.2035
  238MOL0     H31413   1.712   5.078  10.104 -0.0891  0.5611  0.4935
  238MOL0     H31414   2.108   4.939  10.106 -0.3308 -1.1246 -0.2985
  238MOL0     H31415   1.310   4.649   9.989  1.4866 -0.5796 -1.6161
  238MOL0     H31416   1.091   4.572   9.930 -1.1815 -1.0345 -1.6933
  239MOL0     O31417   7.906   3.470   3.966 -0.3094 -0.0632  0.0667
  239MOL0     C31418   7.856   3.557   3.906  0.0023 -0.6204  0.0069
  239MOL0     O31419   7.739   3.620   3.931 -0.5217  0.6026 -0.2898
  239MOL0     C31420   7.664   3.570   4.035  0.3204  0.3204  0.2444
  239MOL0     C31421   7.620   3.659   4.138 -0.5706  0.2971 -0.0176
  239MOL0     C31422   7.543   3.617   4.245  0.0783  0.0246 -0.0460
  239MOL0     C31423   7.507   3.484   4.254 -0.1711  0.3088  0.5503
  239MOL0     O31424   7.422   3.458   4.359  0.0130 -0.2998  0.1179
  239MOL0     C31425   7.363   3.329   4.379 -0.3763  0.3335 -0.4108
  239MOL0     C31426   7.236   3.335   4.475 -0.3931  0.3787 -0.7551
  239MOL0     C31427   7.152   3.462   4.451 -0.1820  0.0403  0.2081
  239MOL0     C31428   7.033   3.452   4.554 -0.1819  0.2916 -0.3844
  239MOL0     C31429   6.949   3.578   4.549 -0.0840 -0.1584  0.3709
  239MOL0     C31430   6.833   3.577   4.654  0.0398 -0.0962  0.4541
  239MOL0     C31431   6.741   3.697   4.631 -0.1752  1.4185 -0.3487
  239MOL0     C31432   6.627   3.669   4.733  0.8318  0.0221 -1.0978
  239MOL0     N31433   6.511   3.762   4.720  0.4192  1.0461  0.3818
  239MOL0     C31434   6.396   3.717   4.659 -0.3344 -0.3652 -0.4356
  239MOL0     C31435   6.323   3.823   4.650 -0.0836 -1.1990 -0.2312
  239MOL0     C31436   6.184   3.830   4.584 -0.9526 -0.2439 -0.0841
  239MOL0     C31437   6.089   3.910   4.669 -0.6510  0.3739 -0.5778
  239MOL0     C31438   5.967   3.930   4.578  0.3951 -0.4477  0.0319
  239MOL0     C31439   5.864   4.008   4.656  0.0194 -0.3157 -0.3350
  239MOL0     O31440   5.733   3.987   4.594  0.5024  0.6373  0.3201
  239MOL0     C31441   5.621   4.056   4.650  0.5221 -0.2180 -0.6267
  239MOL0     C31442   5.636   4.147   4.756 -0.3276 -0.1022  0.6475
  239MOL0     C31443   5.531   4.220   4.813 -0.0899 -0.3671 -0.2092
  239MOL0     C31444   5.403   4.204   4.761  0.8468 -0.9070 -0.1308
  239MOL0     C31445   5.291   4.283   4.813 -0.9590  0.9239 -0.6272
  239MOL0     O31446   5.178   4.289   4.743  0.4635  0.5955  0.4651
  239MOL0     C31447   5.069   4.352   4.803  0.0584 -0.3177 -0.2992
  239MOL0     C31448   5.047   4.490   4.782 -0.4418 -0.2293 -0.3443
  239MOL0     C31449   4.933   4.550   4.848  0.2770  0.3394 -0.0480
  239MOL0     C31450   4.861   4.483   4.951 -0.9124 -0.3040  0.8059
  239MOL0     O31451   4.775   4.536   5.036  0.3541 -0.5764 -0.1786
  239MOL0     C31452   4.731   4.673   5.027 -0.2694  0.3386 -0.1827
  239MOL0     C31453   4.674   4.696   5.164  0.7694  0.4146  0.2654
  239MOL0     C31454   4.581   4.828   5.171 -0.8271 -0.1459  0.5842
  239MOL0     C31455   4.531   4.853   5.322  0.6096  1.1491  0.2403
  239MOL0     C31456   4.427   4.957   5.339 -0.2658  0.6286 -0.1155
  239MOL0     C31457   4.382   4.964   5.489 -0.3902 -0.2732  0.7067
  239MOL0     C31458   4.310   5.093   5.525 -0.3413 -0.0841  0.0100
  239MOL0     C31459   4.183   5.111   5.459  0.3733 -0.6170 -1.1946
  239MOL0    Cl31460   4.062   5.026   5.557 -0.1717 -0.1283  0.4461
  239MOL0     C31461   4.899   4.346   4.964  0.0735  0.1596  0.3818
  239MOL0     C31462   5.000   4.284   4.897  0.2606  0.8806 -0.2913
  239MOL0     O31463   5.318   4.350   4.912 -0.1574  0.3210 -0.9013
  239MOL0     C31464   5.383   4.111   4.657 -0.0356  0.5394 -0.2520
  239MOL0     C31465   5.496   4.035   4.605 -0.0386 -0.0224 -0.2947
  239MOL0     N31466   6.385   3.929   4.706 -0.3692  0.9971  0.3278
  239MOL0     N31467   6.498   3.889   4.751  0.1225 -0.5172  0.3988
  239MOL0     C31468   7.551   3.391   4.156 -0.2443  0.2806  0.1701
  239MOL0     C31469   7.623   3.435   4.044 -0.0198 -0.3134  0.1508
  239MOL0     C31470   7.941   3.635   3.820 -0.5435 -0.0548  0.8007
  239MOL0     C31471   7.934   3.780   3.803 -0.6135 -0.5242 -0.2674
  239MOL0     C31472   8.021   3.853   3.723 -0.7241  0.4606  0.9870
  239MOL0     C31473   8.121   3.783   3.647  0.4099 -0.7429 -0.3377
  239MOL0     O31474   8.210   3.864   3.584 -0.3015  0.4738 -0.7352
  239MOL0     C31475   8.284   3.794   3.483  0.5684  0.7726 -0.2664
  239MOL0     C31476   8.347   3.894   3.389  0.1232  0.4098 -0.1075
  239MOL0     C31477   8.419   3.819   3.283  0.1603  0.5238  0.6019
  239MOL0     C31478   8.527   3.903   3.213 -0.2633  1.1314 -0.3760
  239MOL0     C31479   8.642   3.933   3.309 -0.2999 -0.5673 -0.2245
  239MOL0     C31480   8.736   3.960   3.385  0.0517 -0.7712  0.1351
  239MOL0     C31481   8.127   3.637   3.661 -0.6227 -0.6066 -0.4937
  239MOL0     C31482   8.040   3.570   3.745  0.0856 -0.4715  0.0490
  239MOL0     H31483   7.639   3.765   4.130  2.5340 -0.0923  0.7845
  239MOL0     H31484   7.517   3.691   4.320  1.2693  1.8274 -1.3141
  239MOL0     H31485   7.437   3.262   4.424 -0.5994  1.3521  1.6154
  239MOL0     H31486   7.338   3.282   4.284 -0.0363 -1.8520  0.5226
  239MOL0     H31487   7.271   3.335   4.579 -1.1304 -0.5718 -0.4943
  239MOL0     H31488   7.165   3.254   4.458 -1.4045  0.5764  2.0094
  239MOL0     H31489   7.112   3.471   4.350 -2.4879 -0.1125  1.0340
  239MOL0     H31490   7.216   3.547   4.474  1.1018 -1.2125  1.4642
  239MOL0     H31491   6.968   3.367   4.532  0.0156 -0.3770  1.4461
  239MOL0     H31492   7.079   3.443   4.652 -0.0567  1.9189 -0.2531
  239MOL0     H31493   6.906   3.575   4.449  0.1924 -1.2053  0.2724
  239MOL0     H31494   7.009   3.669   4.553 -1.8964  1.0563  1.4020
  239MOL0     H31495   6.882   3.588   4.751  0.9570  1.9916 -0.1869
  239MOL0     H31496   6.775   3.486   4.634 -0.9426  0.7095 -0.4555
  239MOL0     H31497   6.802   3.787   4.644 -0.4717  1.4880  0.6309
  239MOL0     H31498   6.705   3.683   4.528  1.4222 -1.2598 -0.6366
  239MOL0     H31499   6.675   3.688   4.829  0.7268 -0.3035 -0.9816
  239MOL0     H31500   6.587   3.567   4.730  1.6113 -0.5378  2.9525
  239MOL0     H31501   6.373   3.623   4.609  0.7081 -0.2381 -1.1969
  239MOL0     H31502   6.140   3.730   4.579 -3.5485  0.7542  0.9412
  239MOL0     H31503   6.194   3.858   4.479  1.1003  1.0422  0.4113
  239MOL0     H31504   6.143   4.003   4.690  0.1764  0.1904 -1.8350
  239MOL0     H31505   6.072   3.843   4.754  0.0017  0.4205 -0.3993
  239MOL0     H31506   5.999   3.984   4.488  1.7220 -1.4170 -0.1190
  239MOL0     H31507   5.915   3.840   4.545  0.1782 -0.5427  0.6269
  239MOL0     H31508   5.892   4.112   4.642  1.3047 -0.5335  0.4083
  239MOL0     H31509   5.857   3.997   4.765 -4.3026  0.5792 -0.3463
  239MOL0     H31510   5.727   4.175   4.807 -0.8188  0.3893  1.2670
  239MOL0     H31511   5.553   4.292   4.891 -1.0022 -0.5968  0.2756
  239MOL0     H31512   5.117   4.551   4.725 -0.4915 -0.3243 -0.5059
  239MOL0     H31513   4.912   4.655   4.830 -0.6182  0.4339  1.3529
  239MOL0     H31514   4.671   4.687   4.937  0.4455  0.4586 -0.6446
  239MOL0     H31515   4.818   4.739   5.029 -0.7385  0.9557  1.7076
  239MOL0     H31516   4.757   4.698   5.236  0.6997  0.5267  0.3428
  239MOL0     H31517   4.611   4.612   5.194  0.7193 -0.3034 -1.7083
  239MOL0     H31518   4.493   4.827   5.107 -1.3979 -2.7436  1.2709
  239MOL0     H31519   4.652   4.908   5.148 -0.0365 -1.4819 -2.0469
  239MOL0     H31520   4.490   4.758   5.357  1.0390  0.7066 -0.4258
  239MOL0     H31521   4.616   4.887   5.382  1.2489 -0.5326  0.3527
  239MOL0     H31522   4.343   4.920   5.279 -1.6503 -0.0548  2.1081
  239MOL0     H31523   4.460   5.057   5.307 -1.2040  1.0417  0.1752
  239MOL0     H31524   4.471   4.955   5.552 -0.2144  1.2497  0.7189
  239MOL0     H31525   4.319   4.878   5.507  0.3023 -0.9287  0.1051
  239MOL0     H31526   4.293   5.097   5.633  0.9645  1.5185  0.2044
  239MOL0     H31527   4.361   5.185   5.493 -1.5086  0.9343  0.9733
  239MOL0     H31528   4.182   5.070   5.358  1.4997 -4.4573  0.1687
  239MOL0     H31529   4.156   5.217   5.457 -1.5760 -1.0664 -0.6183
  239MOL0     H31530   4.842   4.294   5.040  1.3776 -0.3148  1.0720
  239MOL0     H31531   5.019   4.178   4.915  0.0368  0.7336 -0.8974
  239MOL0     H31532   5.288   4.089   4.610  0.5934 -1.0456 -0.8637
  239MOL0     H31533   5.484   3.960   4.527  0.1043  0.8362 -1.1587
  239MOL0     H31534   7.518   3.288   4.159 -0.0728  0.2335  0.5158
  239MOL0     H31535   7.639   3.354   3.975 -0.2877  0.0973 -0.3979
  239MOL0     H31536   7.858   3.841   3.851  3.1636  3.4799  1.3304
  239MOL0     H31537   8.011   3.959   3.703  0.4858  0.6106  1.0920
  239MOL0     H31538   8.227   3.724   3.421  1.7621  0.7193 -1.3480
  239MOL0     H31539   8.370   3.735   3.516  2.1016  1.2703 -3.0245
  239MOL0     H31540   8.257   3.945   3.352  0.5587  0.6278 -0.9033
  239MOL0     H31541   8.418   3.961   3.438 -2.1652  1.7091  1.6706
  239MOL0     H31542   8.353   3.775   3.207  0.0796 -0.8965  1.4450
  239MOL0     H31543   8.474   3.734   3.324 -0.1156  0.2801  0.4768
  239MOL0     H31544   8.576   3.850   3.131  0.3731 -0.7486  1.1162
  239MOL0     H31545   8.498   4.004   3.183  0.3175  0.9615 -1.5751
  239MOL0     H31546   8.800   3.989   3.466 -1.2533  1.4056  0.4893
  239MOL0     H31547   8.205   3.581   3.609 -0.5815 -0.3090 -0.7607
  239MOL0     H31548   8.059   3.463   3.751 -1.9992 -1.0058 -1.4154
  240MOL0     O31549   2.939   7.253   5.041 -0.9853  0.4637  0.3906
  240MOL0     C31550   3.039   7.250   5.114 -0.6050 -0.2500  0.2205
  240MOL0     O31551   3.060   7.168   5.220 -0.0726 -0.8268 -0.1727
  240MOL0     C31552   2.963   7.088   5.258  0.0305  0.1552 -0.8247
  240MOL0     C31553   2.827   7.124   5.268 -0.1877 -0.8536  0.5723
  240MOL0     C31554   2.733   7.037   5.318 -0.4944  0.2193  0.4168
  240MOL0     C31555   2.771   6.911   5.357 -0.5866  0.5643 -1.4019
  240MOL0     O31556   2.682   6.835   5.427  0.7309  0.0969  0.0998
  240MOL0     C31557   2.656   6.693   5.397  0.0923 -1.6904 -0.2383
  240MOL0     C31558   2.502   6.667   5.369 -0.0158  0.1537 -0.0204
  240MOL0     C31559   2.471   6.522   5.316  0.4415 -0.1667  0.9094
  240MOL0     C31560   2.327   6.490   5.290  0.6234  0.0872  0.6701
  240MOL0     C31561   2.291   6.341   5.261 -0.4307 -0.7703 -0.0748
  240MOL0     C31562   2.141   6.332   5.248 -0.0849  1.0962  0.3430
  240MOL0     C31563   2.105   6.185   5.258 -0.4509  1.0062  0.3619
  240MOL0     C31564   1.953   6.155   5.251  0.4363  0.2430  0.7588
  240MOL0     N31565   1.916   6.016   5.243  0.6101  0.5378 -0.6611
  240MOL0     C31566   1.878   5.948   5.133  0.1981 -0.2455  0.2936
  240MOL0     C31567   1.850   5.820   5.167  0.8932 -0.2852 -0.2165
  240MOL0     C31568   1.815   5.706   5.074  0.7670 -0.3562 -0.1525
  240MOL0     C31569   1.777   5.579   5.144  0.0425  0.3595 -0.0446
  240MOL0     C31570   1.650   5.589   5.230  0.1603  0.2863  0.3914
  240MOL0     C31571   1.526   5.617   5.142 -0.5946 -0.1781 -0.7275
  240MOL0     O31572   1.500   5.507   5.066  0.2553  0.1652  0.0391
  240MOL0     C31573   1.379   5.448   5.100 -0.1826 -0.2985  0.4708
  240MOL0     C31574   1.346   5.395   5.235 -0.5769 -0.3393 -0.1125
  240MOL0     C31575   1.233   5.312   5.257 -0.1667 -0.3747  0.3611
  240MOL0     C31576   1.153   5.274   5.152  0.5207  0.4568 -0.5016
  240MOL0     C31577   1.037   5.185   5.171 -0.8836  0.2599  0.0780
  240MOL0     O31578   0.961   5.166   5.061 -0.0428 -0.4786 -0.1743
  240MOL0     C31579   0.851   5.082   5.076 -0.3317 -0.1409  0.1000
  240MOL0     C31580   0.727   5.144   5.080  0.2352  0.5042  0.3715
  240MOL0     C31581   0.610   5.066   5.071 -0.8110 -0.6414  0.0085
  240MOL0     C31582   0.611   4.925   5.073 -0.1024 -0.0611  0.1304
  240MOL0     O31583   0.492   4.861   5.082 -0.1318 -0.6415 -0.1367
  240MOL0     C31584   0.504   4.715   5.076 -0.9433  0.5223 -0.6230
  240MOL0     C31585   0.358   4.680   5.093 -0.4115  0.2802  0.7091
  240MOL0     C31586   0.288   4.728   5.222 -0.2667  0.4260  0.2427
  240MOL0     C31587   0.137   4.688   5.214 -0.1402 -0.0320 -0.0382
  240MOL0     C31588   0.074   4.700   5.364 -0.6582 -0.1699  0.4211
  240MOL0     C31589  -0.075   4.649   5.367  0.0049 -0.1960  0.1306
  240MOL0     C31590  -0.149   4.699   5.487  0.0857 -0.1482  0.2654
  240MOL0     C31591  -0.306   4.663   5.469  0.5620  1.2088 -0.2408
  240MOL0    Cl31592  -0.396   4.756   5.352 -0.0119 -0.0742  0.2372
  240MOL0     C31593   0.737   4.864   5.071 -0.2760 -0.8806  0.2438
  240MOL0     C31594   0.858   4.938   5.068 -1.3465  0.3674 -0.1298
  240MOL0     O31595   1.024   5.125   5.276  0.1089 -0.5161 -0.9088
  240MOL0     C31596   1.188   5.319   5.025  1.4085 -0.3220  0.1590
  240MOL0     C31597   1.292   5.405   4.997  0.1241 -0.2934  0.4630
  240MOL0     N31598   1.865   5.818   5.304 -0.5021 -0.2232 -0.0899
  240MOL0     N31599   1.901   5.938   5.349 -0.1325  0.3191  0.3340
  240MOL0     C31600   2.904   6.867   5.341  0.0510 -0.3739  0.3045
  240MOL0     C31601   2.998   6.953   5.283  0.2331 -0.8582 -0.7040
  240MOL0     C31602   3.152   7.339   5.084  0.1099 -0.6977 -0.1268
  240MOL0     C31603   3.285   7.308   5.122  0.5221  0.4328 -0.1159
  240MOL0     C31604   3.387   7.396   5.103 -0.7241  0.2254  0.5651
  240MOL0     C31605   3.373   7.515   5.028  0.8824  0.7839  0.1692
  240MOL0     O31606   3.478   7.603   4.995 -0.6040 -0.1620 -0.2992
  240MOL0     C31607   3.592   7.608   5.078 -0.6031 -0.0780  0.9734
  240MOL0     C31608   3.648   7.752   5.079  1.6641  1.0831 -0.4404
  240MOL0     C31609   3.784   7.762   5.122 -0.9186 -0.8638  0.0986
  240MOL0     C31610   3.816   7.735   5.278  0.0358 -0.5745 -0.3418
  240MOL0     C31611   3.944   7.779   5.333 -0.1365  0.2248  0.0114
  240MOL0     C31612   4.056   7.799   5.377  0.2210  0.1369  0.2404
  240MOL0     C31613   3.237   7.546   4.985  0.2595  0.7453 -0.3998
  240MOL0     C31614   3.131   7.458   5.006  0.6434  0.1688  0.0577
  240MOL0     H31615   2.807   7.227   5.240  3.9860  0.2003  0.7198
  240MOL0     H31616   2.628   7.065   5.313 -0.9554 -1.5981 -2.5580
  240MOL0     H31617   2.685   6.637   5.486 -3.4014 -0.0745  2.1535
  240MOL0     H31618   2.724   6.654   5.321  0.2157  1.6787 -2.0536
  240MOL0     H31619   2.460   6.739   5.298  0.7242  2.5695  1.8690
  240MOL0     H31620   2.442   6.688   5.458  0.2971 -0.2242  0.2900
  240MOL0     H31621   2.517   6.458   5.392  1.8388 -1.2554 -0.7773
  240MOL0     H31622   2.522   6.501   5.222 -1.4959 -1.8029  0.1470
  240MOL0     H31623   2.283   6.517   5.386 -2.2969 -0.7841 -0.3243
  240MOL0     H31624   2.279   6.561   5.222  2.1837 -0.7145 -1.3582
  240MOL0     H31625   2.319   6.277   5.346 -1.0694 -3.8389 -2.0077
  240MOL0     H31626   2.350   6.304   5.177 -1.0575 -2.2146  0.0830
  240MOL0     H31627   2.130   6.373   5.147  2.1632  3.2056  0.8837
  240MOL0     H31628   2.085   6.383   5.326 -3.3160 -2.4107  0.5897
  240MOL0     H31629   2.157   6.135   5.175 -0.3582  1.1402  0.3388
  240MOL0     H31630   2.149   6.139   5.348  1.0580 -1.8336 -1.6546
  240MOL0     H31631   1.918   6.213   5.165  2.0100  0.3211  0.1187
  240MOL0     H31632   1.910   6.190   5.345  0.6411 -0.5174  1.1412
  240MOL0     H31633   1.876   5.987   5.032 -0.1055 -2.2893 -0.5226
  240MOL0     H31634   1.901   5.689   5.010  0.9596  3.0222 -0.9451
  240MOL0     H31635   1.734   5.740   5.008  1.7996 -0.5418 -1.5539
  240MOL0     H31636   1.854   5.547   5.214 -0.4658 -1.7612 -0.3600
  240MOL0     H31637   1.776   5.494   5.074 -1.8401 -1.7064  2.2894
  240MOL0     H31638   1.638   5.491   5.278  2.8448 -0.9234 -1.1360
  240MOL0     H31639   1.669   5.660   5.310  3.6554  0.1540 -0.1429
  240MOL0     H31640   1.535   5.715   5.095  0.5329  0.5777  0.9543
  240MOL0     H31641   1.447   5.633   5.216  0.4515  1.5969  0.0670
  240MOL0     H31642   1.420   5.423   5.309 -0.2520  1.0506 -0.9292
  240MOL0     H31643   1.209   5.280   5.358 -0.2536 -0.8016  0.2085
  240MOL0     H31644   0.723   5.252   5.072  1.0732  0.4573 -1.0459
  240MOL0     H31645   0.514   5.116   5.078  0.6259  2.2489  0.9250
  240MOL0     H31646   0.560   4.674   5.161 -0.0492 -2.2659 -2.4109
  240MOL0     H31647   0.544   4.670   4.985  0.0036 -0.3836  0.2109
  240MOL0     H31648   0.336   4.573   5.084 -4.6110  1.1086 -1.9167
  240MOL0     H31649   0.303   4.724   5.009 -0.4066 -0.7552  0.1405
  240MOL0     H31650   0.308   4.835   5.236  1.1165 -0.0199  2.0979
  240MOL0     H31651   0.337   4.688   5.311 -1.6981 -0.9766  0.4398
  240MOL0     H31652   0.099   4.759   5.140  0.4639 -0.3055 -0.6324
  240MOL0     H31653   0.125   4.588   5.172  0.8397  0.2065 -0.9441
  240MOL0     H31654   0.086   4.802   5.401  1.8549 -0.5663  0.8972
  240MOL0     H31655   0.126   4.631   5.431 -0.1787 -0.4980 -0.2697
  240MOL0     H31656  -0.081   4.540   5.372 -0.0090 -0.2692 -1.2542
  240MOL0     H31657  -0.122   4.679   5.273  4.2639  1.8186 -1.6224
  240MOL0     H31658  -0.108   4.645   5.573  0.3776 -0.3602 -0.0060
  240MOL0     H31659  -0.139   4.806   5.506  1.3474  0.0678 -1.4429
  240MOL0     H31660  -0.360   4.675   5.564  0.9998 -0.1627  0.2049
  240MOL0     H31661  -0.312   4.556   5.449 -2.7743  1.1177  0.5504
  240MOL0     H31662   0.759   4.759   5.059  0.5342 -0.5757 -1.1466
  240MOL0     H31663   0.959   4.897   5.062 -0.2476  2.8257  0.2083
  240MOL0     H31664   1.125   5.302   4.938 -0.4804  0.7469  1.2470
  240MOL0     H31665   1.317   5.438   4.897  1.9481  0.2069  1.0353
  240MOL0     H31666   2.952   6.774   5.372  3.2027  1.1410  0.3999
  240MOL0     H31667   3.096   6.908   5.267 -0.7294 -3.6297  0.5989
  240MOL0     H31668   3.301   7.220   5.183 -0.6728 -0.0196 -0.4199
  240MOL0     H31669   3.484   7.375   5.146 -0.8129  0.1121  0.7115
  240MOL0     H31670   3.668   7.541   5.040 -0.4116  0.6712  0.0031
  240MOL0     H31671   3.573   7.585   5.184 -1.2972  1.4124  1.2037
  240MOL0     H31672   3.635   7.787   4.976  1.6547 -1.0157 -1.2144
  240MOL0     H31673   3.587   7.813   5.147  1.0882 -0.8040  0.8356
  240MOL0     H31674   3.813   7.864   5.097 -0.4846 -1.3509 -1.5321
  240MOL0     H31675   3.856   7.704   5.063 -1.1871 -0.8964 -0.2029
  240MOL0     H31676   3.737   7.778   5.340 -0.8194 -1.1110 -1.0235
  240MOL0     H31677   3.814   7.625   5.282 -0.5312 -0.5744 -0.4801
  240MOL0     H31678   4.156   7.820   5.411  1.3278 -1.5209 -1.7683
  240MOL0     H31679   3.207   7.637   4.934 -1.6309 -0.1294 -0.8974
  240MOL0     H31680   3.032   7.494   4.981  0.1103  0.4210  2.2953
  241MOL0     O31681   3.366   9.056   3.410  0.5050  0.6843  0.4743
  241MOL0     C31682   3.375   9.094   3.524  0.7717  0.1723 -0.4272
  241MOL0     O31683   3.479   9.093   3.609 -0.0054 -0.3246 -0.4464
  241MOL0     C31684   3.611   9.071   3.573  0.5614 -0.0573  0.1042
  241MOL0     C31685   3.710   9.111   3.664  0.1065 -0.1873  0.7240
  241MOL0     C31686   3.849   9.092   3.630 -0.2623 -0.1371 -0.0371
  241MOL0     C31687   3.890   9.010   3.521  0.1356 -0.2635 -0.2775
  241MOL0     O31688   4.027   8.990   3.522 -0.4491  0.0043  0.2481
  241MOL0     C31689   4.087   8.939   3.402 -0.2868  0.3138  0.6879
  241MOL0     C31690   4.136   9.059   3.318  0.2834  0.7789 -0.1169
  241MOL0     C31691   4.030   9.149   3.244  0.4056  0.3404  0.0953
  241MOL0     C31692   3.973   9.065   3.135  0.7757 -0.1842  0.4314
  241MOL0     C31693   3.870   9.154   3.061  1.1251  0.4021  0.1931
  241MOL0     C31694   3.778   9.067   2.972 -0.5650 -0.4721 -0.2834
  241MOL0     C31695   3.674   9.160   2.903  0.8953  0.7584 -0.0165
  241MOL0     C31696   3.566   9.091   2.820  0.3191 -0.5943  0.0699
  241MOL0     N31697   3.455   9.180   2.798  0.6204 -0.2122  0.1339
  241MOL0     C31698   3.465   9.304   2.743  0.0099  0.1293  0.1232
  241MOL0     C31699   3.344   9.334   2.688 -0.4355  0.0886  0.3852
  241MOL0     C31700   3.321   9.461   2.602 -0.0010  0.5306 -0.7308
  241MOL0     C31701   3.399   9.582   2.659 -0.1233  0.2434 -0.1732
  241MOL0     C31702   3.375   9.705   2.570  0.0771  0.2569 -0.5875
  241MOL0     C31703   3.266   9.803   2.626  0.5131 -0.2241 -0.2421
  241MOL0     O31704   3.131   9.753   2.604 -0.4722 -0.0318 -0.5960
  241MOL0     C31705   3.062   9.801   2.500 -0.5589  0.7194 -0.1593
  241MOL0     C31706   2.921   9.796   2.522  0.5243 -0.0946  0.3501
  241MOL0     C31707   2.830   9.847   2.423  0.0475 -0.2954 -0.4685
  241MOL0     C31708   2.886   9.922   2.317  0.5132  0.5870  0.6198
  241MOL0     C31709   2.793   9.984   2.226 -0.2341  0.1306  0.3231
  241MOL0     O31710   2.675   9.916   2.211 -0.1023 -0.1601 -0.7538
  241MOL0     C31711   2.573   9.942   2.127 -0.6984  0.6630  0.8402
  241MOL0     C31712   2.583  10.019   2.008 -0.3971  0.3335  0.0271
  241MOL0     C31713   2.470  10.037   1.926  0.0013  0.4466  0.4950
  241MOL0     C31714   2.343   9.991   1.970 -1.1763  0.2014  0.3769
  241MOL0     O31715   2.228  10.015   1.896 -0.0134  0.1324 -0.5396
  241MOL0     C31716   2.238  10.037   1.758  0.0547  0.2049  0.3638
  241MOL0     C31717   2.102  10.018   1.696  0.0732 -0.8725 -0.0353
  241MOL0     C31718   2.097  10.098   1.563 -0.0588 -0.4953  1.0397
  241MOL0     C31719   1.978  10.055   1.478 -0.7118  0.3105 -0.8456
  241MOL0     C31720   1.947  10.155   1.366  0.3798  0.6344 -0.2742
  241MOL0     C31721   1.812  10.115   1.297 -0.6389 -0.1861 -0.0463
  241MOL0     C31722   1.818  10.007   1.191 -0.1899  0.3120 -0.0484
  241MOL0     C31723   1.691   9.986   1.110  0.3714  0.3762 -0.1604
  241MOL0    Cl31724   1.643  10.110   0.990  0.0982  0.1896  0.2746
  241MOL0     C31725   2.330   9.916   2.087 -0.4181  0.3372 -0.6445
  241MOL0     C31726   2.444   9.900   2.169  0.2337 -0.6880 -0.3519
  241MOL0     O31727   2.823  10.091   2.179 -0.2361  0.2852  0.5849
  241MOL0     C31728   3.026   9.926   2.298  0.3580  0.1212  0.7082
  241MOL0     C31729   3.106   9.869   2.391  0.5448 -0.5256  0.2076
  241MOL0     N31730   3.271   9.218   2.705 -0.0820  0.6280 -0.6935
  241MOL0     N31731   3.330   9.131   2.774 -0.1315 -0.5874  0.2704
  241MOL0     C31732   3.793   8.974   3.434  0.7678  0.4912  0.2714
  241MOL0     C31733   3.658   9.008   3.455  0.7105  0.3132 -0.0373
  241MOL0     C31734   3.242   9.134   3.579  0.2464 -0.5054 -0.8528
  241MOL0     C31735   3.139   9.189   3.505 -0.1362 -0.0990  0.1323
  241MOL0     C31736   3.028   9.244   3.572  0.5662 -0.4980 -0.7506
  241MOL0     C31737   3.023   9.247   3.716  0.4075  0.3321  0.4911
  241MOL0     O31738   2.919   9.317   3.775 -0.0067  0.2080 -0.4231
  241MOL0     C31739   2.890   9.299   3.914  0.6006  0.0439  0.9225
  241MOL0     C31740   2.745   9.349   3.945 -0.2906 -0.0449 -0.4396
  241MOL0     C31741   2.639   9.290   3.864  0.7726  0.5555 -0.8842
  241MOL0     C31742   2.607   9.139   3.906 -0.4554 -0.1362  0.2844
  241MOL0     C31743   2.468   9.125   3.866  0.6796  0.0784 -0.7930
  241MOL0     C31744   2.351   9.122   3.831 -0.2135 -0.4757 -0.9550
  241MOL0     C31745   3.132   9.203   3.777 -0.4824 -0.2990  0.0970
  241MOL0     C31746   3.241   9.158   3.715  0.2482  0.6879  0.5413
  241MOL0     H31747   3.673   9.158   3.755  0.0430  1.1861  0.0180
  241MOL0     H31748   3.921   9.131   3.701  0.7039  2.7645 -2.4057
  241MOL0     H31749   4.017   8.872   3.351  0.0732 -0.1337  0.7724
  241MOL0     H31750   4.179   8.882   3.419  0.6555  1.3845 -0.7236
  241MOL0     H31751   4.212   9.022   3.248 -0.0317  0.3785 -0.2478
  241MOL0     H31752   4.188   9.130   3.383  0.2345 -1.7566  2.9358
  241MOL0     H31753   4.082   9.236   3.203  1.9228 -0.9237 -0.8279
  241MOL0     H31754   3.960   9.185   3.320 -0.3912 -3.2412  1.2543
  241MOL0     H31755   4.046   9.039   3.059 -0.0836 -0.6917 -0.2436
  241MOL0     H31756   3.920   8.977   3.173 -1.3039  0.2449 -1.2557
  241MOL0     H31757   3.918   9.229   2.998  1.3944  0.6693  0.7152
  241MOL0     H31758   3.798   9.205   3.125  0.5771  0.7468 -0.6693
  241MOL0     H31759   3.740   8.982   3.030  0.4108 -1.7423 -1.4412
  241MOL0     H31760   3.848   9.026   2.900  0.9735  0.8181  0.4236
  241MOL0     H31761   3.622   9.223   2.976  0.1407  0.2154 -0.0720
  241MOL0     H31762   3.732   9.236   2.851 -1.2069  3.0665  0.7907
  241MOL0     H31763   3.525   9.001   2.867  1.1436 -0.5553  0.9045
  241MOL0     H31764   3.607   9.058   2.724  3.3911  2.3465  0.2041
  241MOL0     H31765   3.558   9.359   2.734 -0.8077  1.3869 -0.9350
  241MOL0     H31766   3.216   9.493   2.603  0.3235  1.7409 -2.0440
  241MOL0     H31767   3.336   9.446   2.494  0.1332  1.0622 -0.7886
  241MOL0     H31768   3.507   9.567   2.651 -0.0618  0.8031 -0.4085
  241MOL0     H31769   3.375   9.599   2.764 -0.7965 -2.1219  0.1314
  241MOL0     H31770   3.463   9.770   2.566 -0.8448  1.6417  0.7575
  241MOL0     H31771   3.343   9.680   2.468 -2.4405  0.2943  0.1246
  241MOL0     H31772   3.268   9.904   2.585 -4.1984 -0.3103 -1.3012
  241MOL0     H31773   3.276   9.817   2.734 -1.2079  1.7559 -0.2699
  241MOL0     H31774   2.887   9.746   2.612  0.4498  1.2894  1.1163
  241MOL0     H31775   2.722   9.848   2.437 -0.3034  1.0255 -2.7543
  241MOL0     H31776   2.673  10.062   1.965  0.7866 -1.4719  0.5990
  241MOL0     H31777   2.475  10.082   1.827 -2.1899  0.9325  0.5475
  241MOL0     H31778   2.303   9.966   1.706  0.2588 -1.2353  2.4611
  241MOL0     H31779   2.267  10.140   1.736  0.5000 -0.3122 -1.7524
  241MOL0     H31780   2.028  10.058   1.765  0.6416  0.1873 -0.0226
  241MOL0     H31781   2.078   9.912   1.681 -2.4464 -0.4304  0.3911
  241MOL0     H31782   2.179  10.067   1.498  0.7039 -2.7415  2.9098
  241MOL0     H31783   2.089  10.204   1.587 -2.0140 -0.4589  0.3546
  241MOL0     H31784   2.013   9.962   1.433  2.4903  0.9315  0.0704
  241MOL0     H31785   1.890  10.039   1.540 -1.0793 -2.2514 -1.9079
  241MOL0     H31786   2.028  10.159   1.292  0.3783  3.5597 -0.2241
  241MOL0     H31787   1.939  10.256   1.406 -0.0727  1.7578 -2.9664
  241MOL0     H31788   1.776  10.203   1.242  1.8747  1.1746  0.3304
  241MOL0     H31789   1.743  10.094   1.378  0.5080 -1.5886  0.6135
  241MOL0     H31790   1.894  10.035   1.117 -1.0486  3.2672  0.0494
  241MOL0     H31791   1.841   9.911   1.238  1.1685  1.6767  2.2647
  241MOL0     H31792   1.615   9.974   1.188  0.9593  0.6670  0.4732
  241MOL0     H31793   1.694   9.887   1.063  3.3249 -0.7732  2.1391
  241MOL0     H31794   2.234   9.876   2.118  0.8253 -1.3772  1.2842
  241MOL0     H31795   2.427   9.837   2.256  1.5939 -1.9419 -0.9513
  241MOL0     H31796   3.064   9.974   2.209  2.2549 -1.2142  0.7192
  241MOL0     H31797   3.208   9.901   2.372  0.2214  0.4775  0.1010
  241MOL0     H31798   3.823   8.909   3.352 -1.7424 -0.5576  0.0980
  241MOL0     H31799   3.585   8.981   3.379  3.8444 -1.4983 -2.6556
  241MOL0     H31800   3.142   9.175   3.398  0.2820  1.4591 -0.0903
  241MOL0     H31801   2.962   9.290   3.499  1.1398  0.6710 -0.5537
  241MOL0     H31802   2.971   9.331   3.981  1.2664 -2.3152  1.3318
  241MOL0     H31803   2.880   9.191   3.927  0.9751 -0.1892 -0.5378
  241MOL0     H31804   2.720   9.321   4.048 -1.6065  0.1318 -0.7021
  241MOL0     H31805   2.736   9.457   3.931  2.8738  0.5293  0.8669
  241MOL0     H31806   2.660   9.282   3.757 -1.8674 -0.2752 -1.4056
  241MOL0     H31807   2.543   9.341   3.876 -0.7227 -2.3333  0.4990
  241MOL0     H31808   2.668   9.066   3.851 -0.6912 -0.4034  0.3738
  241MOL0     H31809   2.619   9.114   4.012  1.0609  1.2814  0.5030
  241MOL0     H31810   2.253   9.130   3.788 -1.1332  0.4185  1.1555
  241MOL0     H31811   3.129   9.203   3.886 -0.5827  1.3540  0.1108
  241MOL0     H31812   3.325   9.126   3.775  1.1822  3.1435  0.6583
  242MOL0     O31813   6.133   1.787   8.317 -0.2763  0.1401  0.1517
  242MOL0     C31814   6.201   1.887   8.346  0.0379  0.4234  0.4269
  242MOL0     O31815   6.151   2.012   8.353 -0.3749  0.3149 -0.5120
  242MOL0     C31816   6.023   2.023   8.316  0.7613  0.2129  0.3592
  242MOL0     C31817   5.909   1.957   8.371  0.0161 -0.0319 -0.1357
  242MOL0     C31818   5.777   1.974   8.325  0.5493 -0.3222  0.1892
  242MOL0     C31819   5.744   2.080   8.233 -0.1002  0.6151 -0.1939
  242MOL0     O31820   5.620   2.094   8.172 -0.0336  0.3952  0.0398
  242MOL0     C31821   5.500   2.100   8.252  0.1017  0.4474 -0.8788
  242MOL0     C31822   5.516   2.212   8.362  0.4714  0.3216 -0.8826
  242MOL0     C31823   5.523   2.350   8.305 -0.0675  0.1862  0.2661
  242MOL0     C31824   5.535   2.450   8.421 -0.8457 -0.4135  0.7163
  242MOL0     C31825   5.563   2.585   8.364 -0.0509 -0.3083  0.1374
  242MOL0     C31826   5.577   2.675   8.483 -0.1292  0.3249 -0.2592
  242MOL0     C31827   5.633   2.813   8.456 -0.0815 -0.1432 -0.2384
  242MOL0     C31828   5.541   2.905   8.359 -0.1705 -0.2703 -0.2026
  242MOL0     N31829   5.423   2.943   8.426  0.4813 -1.1906  0.0179
  242MOL0     C31830   5.399   3.000   8.547  0.4803  0.4275 -0.2545
  242MOL0     C31831   5.287   3.069   8.540  0.1366  0.0750  1.0314
  242MOL0     C31832   5.204   3.114   8.647  0.8513 -0.1495 -0.4780
  242MOL0     C31833   5.076   3.028   8.671 -0.1569 -0.7388  0.1522
  242MOL0     C31834   5.108   2.894   8.737  0.1997  0.7338  0.0438
  242MOL0     C31835   4.982   2.810   8.765  0.5638 -0.6757 -0.0741
  242MOL0     O31836   4.894   2.896   8.843 -0.7400 -0.8632  0.2542
  242MOL0     C31837   4.765   2.855   8.855  0.1046 -0.2021 -0.9796
  242MOL0     C31838   4.702   2.739   8.798 -0.4688 -0.6754  0.1793
  242MOL0     C31839   4.571   2.708   8.826 -0.8386  0.3391  0.1296
  242MOL0     C31840   4.499   2.777   8.917  0.2725 -0.1140  0.1274
  242MOL0     C31841   4.363   2.736   8.944  0.3412 -0.0994 -0.6911
  242MOL0     O31842   4.343   2.603   8.958 -0.0473 -0.2497 -0.1880
  242MOL0     C31843   4.219   2.570   9.014  0.0620  0.6015  0.0568
  242MOL0     C31844   4.103   2.587   8.944 -0.3485  0.6801  0.0685
  242MOL0     C31845   3.977   2.554   8.990 -0.2441 -0.4075 -0.5626
  242MOL0     C31846   3.973   2.500   9.125  0.1312 -0.1956 -0.0398
  242MOL0     O31847   3.847   2.458   9.160 -0.5106 -0.0079  0.2863
  242MOL0     C31848   3.826   2.472   9.301 -0.0328 -0.2971 -0.0337
  242MOL0     C31849   3.681   2.487   9.317  0.5852  0.2586 -0.1633
  242MOL0     C31850   3.604   2.352   9.282  0.6785  0.5456  0.0942
  242MOL0     C31851   3.467   2.358   9.345 -0.0882  0.2605  0.4353
  242MOL0     C31852   3.468   2.305   9.491 -0.4794  0.0089  0.3435
  242MOL0     C31853   3.333   2.289   9.563  0.1650  0.6622  0.2138
  242MOL0     C31854   3.259   2.428   9.582 -1.0920 -0.1614 -1.2216
  242MOL0     C31855   3.123   2.411   9.653 -0.0069 -0.5431  0.1057
  242MOL0    Cl31856   3.030   2.558   9.636  0.2411  0.1154 -0.3191
  242MOL0     C31857   4.088   2.492   9.206  0.5372  0.1492  0.4252
  242MOL0     C31858   4.209   2.526   9.148  0.5766  0.8459 -0.5933
  242MOL0     O31859   4.286   2.826   8.983  1.0143  0.1261 -0.6510
  242MOL0     C31860   4.559   2.897   8.974 -0.0697 -0.0885 -0.0475
  242MOL0     C31861   4.691   2.933   8.941  0.4054 -0.1192 -0.3064
  242MOL0     N31862   5.243   3.062   8.404 -0.1982  0.1020  0.8173
  242MOL0     N31863   5.328   2.989   8.340 -0.3687  0.1063 -0.4812
  242MOL0     C31864   5.856   2.149   8.189  0.6529 -0.6763  0.1733
  242MOL0     C31865   5.986   2.124   8.232 -0.8377 -0.0391  0.1116
  242MOL0     C31866   6.350   1.860   8.375  0.1408 -0.6040  0.5057
  242MOL0     C31867   6.428   1.967   8.416  0.0660 -0.1905 -0.7993
  242MOL0     C31868   6.566   1.939   8.439 -0.1803  0.4758  0.0551
  242MOL0     C31869   6.622   1.810   8.424 -0.1292  0.1759 -0.0552
  242MOL0     O31870   6.750   1.770   8.447  0.0106 -0.3204  0.0981
  242MOL0     C31871   6.845   1.859   8.516  0.0534  0.0705 -0.5857
  242MOL0     C31872   6.853   1.826   8.662  0.5081  0.9555 -1.1194
  242MOL0     C31873   6.928   1.927   8.740 -0.4358 -0.1010 -0.4052
  242MOL0     C31874   6.847   2.042   8.803 -0.9776 -0.1771  0.1138
  242MOL0     C31875   6.941   2.153   8.829 -0.2985 -0.5336 -0.6837
  242MOL0     C31876   7.018   2.237   8.852 -0.0516 -0.9046 -0.9038
  242MOL0     C31877   6.540   1.714   8.376 -0.6151  0.1918  0.3368
  242MOL0     C31878   6.400   1.737   8.359  0.3031  0.1559 -0.3339
  242MOL0     H31879   5.926   1.878   8.444  1.6309 -0.0475 -0.4909
  242MOL0     H31880   5.697   1.910   8.361  1.1816 -1.1443  0.1466
  242MOL0     H31881   5.484   2.005   8.305  3.1173  0.7588  0.8343
  242MOL0     H31882   5.417   2.119   8.184  0.3212  1.3773 -0.8980
  242MOL0     H31883   5.600   2.194   8.430 -0.8691 -1.1268  0.4661
  242MOL0     H31884   5.425   2.217   8.421  1.0446  3.3274 -0.0973
  242MOL0     H31885   5.445   2.372   8.231 -0.5314 -2.0237  0.0519
  242MOL0     H31886   5.617   2.361   8.251  0.1674  2.1533  0.9702
  242MOL0     H31887   5.445   2.444   8.483 -2.7557  1.0906 -1.7200
  242MOL0     H31888   5.619   2.421   8.485  0.5549 -1.4276 -1.4698
  242MOL0     H31889   5.488   2.632   8.299  0.2386  0.2614  0.2087
  242MOL0     H31890   5.653   2.590   8.301 -0.1014 -1.7941 -0.0775
  242MOL0     H31891   5.624   2.623   8.567  0.4340  1.9071  0.4479
  242MOL0     H31892   5.475   2.688   8.521 -0.3231  0.1999 -0.7313
  242MOL0     H31893   5.648   2.859   8.554  0.8010 -0.0805 -0.3906
  242MOL0     H31894   5.734   2.802   8.414 -0.2245  1.9137 -1.2521
  242MOL0     H31895   5.514   2.858   8.264  0.1503  1.4214 -1.1689
  242MOL0     H31896   5.590   2.998   8.331  2.4902 -0.6778  2.5677
  242MOL0     H31897   5.458   2.997   8.638 -0.8137  0.8592  0.6177
  242MOL0     H31898   5.163   3.212   8.622  0.5732 -0.3630 -0.8732
  242MOL0     H31899   5.267   3.123   8.736  0.5714 -1.5689 -0.1133
  242MOL0     H31900   5.027   3.013   8.574 -1.5695 -1.4733  0.9532
  242MOL0     H31901   5.004   3.086   8.729 -0.6502 -2.3166  1.1814
  242MOL0     H31902   5.174   2.832   8.675 -0.8594 -2.2049  1.6639
  242MOL0     H31903   5.164   2.912   8.829  3.1912 -0.0719 -1.4981
  242MOL0     H31904   5.011   2.717   8.815  1.3975 -0.7532 -0.6773
  242MOL0     H31905   4.944   2.772   8.670  2.4307 -2.7467 -0.0559
  242MOL0     H31906   4.765   2.675   8.736 -0.1408 -0.9083  0.7467
  242MOL0     H31907   4.536   2.611   8.792  0.3437  0.3744 -1.2899
  242MOL0     H31908   4.109   2.622   8.841  0.3466  0.5106  0.0499
  242MOL0     H31909   3.883   2.561   8.935  0.1689 -0.4661 -1.2921
  242MOL0     H31910   3.876   2.560   9.343 -2.6137  1.2335  0.0952
  242MOL0     H31911   3.854   2.392   9.370  0.6774  1.4695  1.8569
  242MOL0     H31912   3.643   2.562   9.247  0.2946 -0.1876 -0.4875
  242MOL0     H31913   3.658   2.510   9.422  2.3126  0.2780  0.2507
  242MOL0     H31914   3.655   2.267   9.327  0.9295  0.0550 -1.0619
  242MOL0     H31915   3.600   2.348   9.172  3.2829  0.8914 -0.0600
  242MOL0     H31916   3.420   2.457   9.340 -0.7341 -0.0520 -3.8384
  242MOL0     H31917   3.401   2.283   9.299  0.7654 -0.5019  0.4196
  242MOL0     H31918   3.519   2.378   9.555 -1.0514  1.5564 -0.9121
  242MOL0     H31919   3.521   2.209   9.494 -1.9259 -1.1492 -4.0722
  242MOL0     H31920   3.351   2.248   9.663 -0.5916 -3.6561 -1.1988
  242MOL0     H31921   3.265   2.221   9.512  0.6967 -0.0681  0.4570
  242MOL0     H31922   3.315   2.498   9.645 -1.9521 -1.8983  1.6310
  242MOL0     H31923   3.257   2.473   9.482  0.3273  2.0225 -0.3618
  242MOL0     H31924   3.134   2.377   9.756 -0.1056 -1.8060 -0.2763
  242MOL0     H31925   3.065   2.333   9.601  2.0385 -0.9949 -1.6640
  242MOL0     H31926   4.088   2.450   9.306 -0.5547  0.0171  0.3757
  242MOL0     H31927   4.306   2.498   9.189 -0.2049 -0.7270  0.2690
  242MOL0     H31928   4.505   2.961   9.043  0.4118  1.3438 -0.9432
  242MOL0     H31929   4.752   3.010   8.988  0.8839 -0.1703 -0.8249
  242MOL0     H31930   5.851   2.225   8.112  1.3587 -1.1265 -0.3268
  242MOL0     H31931   6.068   2.181   8.190 -1.5489 -1.8487 -4.2574
  242MOL0     H31932   6.380   2.062   8.436  1.1647  0.6609 -1.9946
  242MOL0     H31933   6.628   2.022   8.472 -0.5758  1.1723 -0.8776
  242MOL0     H31934   6.833   1.966   8.496 -0.2592  0.0586 -0.4737
  242MOL0     H31935   6.940   1.822   8.476  0.1451  1.8518 -2.1530
  242MOL0     H31936   6.755   1.809   8.707  1.6109  1.6736  1.7990
  242MOL0     H31937   6.905   1.730   8.666 -2.2738 -0.6563 -1.1527
  242MOL0     H31938   7.003   1.962   8.668 -0.3861  2.6605  0.8657
  242MOL0     H31939   6.980   1.872   8.819 -2.3265 -1.7474 -0.2431
  242MOL0     H31940   6.771   2.069   8.729 -3.0556 -4.3172  0.4343
  242MOL0     H31941   6.792   2.019   8.895 -2.3517  2.2506 -0.0166
  242MOL0     H31942   7.099   2.304   8.874 -2.1377  1.0005  1.4826
  242MOL0     H31943   6.573   1.612   8.359  1.5004  0.1232  3.7644
  242MOL0     H31944   6.341   1.656   8.318 -0.1826  1.6747 -2.8986
  243MOL0     O31945   4.713   2.808   2.294 -0.7922  0.4213  0.0764
  243MOL0     C31946   4.770   2.908   2.338  0.6693 -0.0390  0.0285
  243MOL0     O31947   4.896   2.915   2.372 -0.3701 -0.3800  0.1298
  243MOL0     C31948   4.970   2.802   2.377 -0.1875  0.8728  0.5416
  243MOL0     C31949   4.948   2.715   2.483  0.5822  0.2935  0.0961
  243MOL0     C31950   5.012   2.588   2.499 -0.4651 -0.6397  0.4103
  243MOL0     C31951   5.098   2.548   2.396  0.9795 -0.2124 -0.0401
  243MOL0     O31952   5.177   2.437   2.424 -0.2046  0.2823 -0.1711
  243MOL0     C31953   5.270   2.401   2.322 -0.3248 -0.2788 -0.1766
  243MOL0     C31954   5.347   2.275   2.356  0.1579  0.2862 -0.2386
  243MOL0     C31955   5.452   2.297   2.466 -0.1155 -0.2187 -0.3991
  243MOL0     C31956   5.519   2.171   2.514 -0.2638  0.7528 -0.2546
  243MOL0     C31957   5.447   2.104   2.629 -0.5402  0.5700  1.1245
  243MOL0     C31958   5.517   1.971   2.684  0.2045  1.1797 -0.2899
  243MOL0     C31959   5.661   1.976   2.734 -0.6505 -0.0385 -0.1835
  243MOL0     C31960   5.701   1.834   2.786  0.4354 -0.0542 -0.2344
  243MOL0     N31961   5.726   1.745   2.681  0.3291  0.7690  0.0268
  243MOL0     C31962   5.810   1.774   2.581  0.0960  0.0076  0.6448
  243MOL0     C31963   5.769   1.717   2.466  0.4011  0.0132  0.2331
  243MOL0     C31964   5.812   1.735   2.323  0.2658  0.5843 -0.4603
  243MOL0     C31965   5.697   1.790   2.242  0.0747  0.3218  0.0430
  243MOL0     C31966   5.722   1.828   2.096 -0.4429  1.2574  0.4556
  243MOL0     C31967   5.835   1.938   2.082  0.6911 -0.3550  0.1223
  243MOL0     O31968   5.823   2.061   2.163 -1.2887  0.6715 -0.4165
  243MOL0     C31969   5.746   2.165   2.126  0.1280  0.8944  0.0929
  243MOL0     C31970   5.754   2.273   2.211 -0.9808 -0.1258 -0.7359
  243MOL0     C31971   5.672   2.390   2.187  0.6142 -0.0710 -0.7272
  243MOL0     C31972   5.584   2.387   2.079 -0.0387  0.3199  0.7820
  243MOL0     C31973   5.482   2.496   2.066 -0.3648 -0.8147 -0.0304
  243MOL0     O31974   5.382   2.464   1.979 -0.1682 -0.3539  0.0526
  243MOL0     C31975   5.279   2.549   1.946 -0.6765 -0.2560 -0.0372
  243MOL0     C31976   5.284   2.688   1.943  0.8515 -0.4211 -0.2803
  243MOL0     C31977   5.174   2.762   1.905  0.6444 -0.8304  0.8296
  243MOL0     C31978   5.056   2.706   1.851 -0.5241  0.2537  0.5290
  243MOL0     O31979   4.961   2.790   1.796  0.2012  0.6894 -0.6893
  243MOL0     C31980   4.860   2.811   1.892  0.1553  0.4648  0.1087
  243MOL0     C31981   4.760   2.916   1.823 -0.2291  0.0470 -0.4000
  243MOL0     C31982   4.661   2.980   1.918  0.2131 -0.0966  0.7069
  243MOL0     C31983   4.553   2.885   1.977 -0.3714  0.0867 -0.1628
  243MOL0     C31984   4.444   2.974   2.048 -0.6832  0.4216 -0.8560
  243MOL0     C31985   4.323   2.891   2.089  0.4061 -1.0407  0.0591
  243MOL0     C31986   4.205   2.962   2.154 -0.4230 -0.6804 -1.3051
  243MOL0     C31987   4.077   2.889   2.138  0.0717  0.2364  0.9228
  243MOL0    Cl31988   4.002   2.906   1.977 -0.0026  0.0739  0.4216
  243MOL0     C31989   5.059   2.564   1.843 -0.4427 -0.8471  0.4403
  243MOL0     C31990   5.168   2.491   1.883 -0.1288  0.5260  0.8370
  243MOL0     O31991   5.498   2.601   2.126 -0.2328 -0.0893  0.5725
  243MOL0     C31992   5.577   2.281   1.988  0.3145  0.2963  0.0309
  243MOL0     C31993   5.664   2.170   2.011  0.2641 -0.5407 -0.7541
  243MOL0     N31994   5.654   1.638   2.510 -0.1614  0.0059  0.2081
  243MOL0     N31995   5.634   1.650   2.636  0.3155 -0.2819  0.0791
  243MOL0     C31996   5.111   2.630   2.282  1.3307  0.3479 -0.8261
  243MOL0     C31997   5.052   2.756   2.274  0.8357 -0.4437  0.0504
  243MOL0     C31998   4.694   3.020   2.378  0.4975 -0.0624  0.7690
  243MOL0     C31999   4.742   3.154   2.384 -0.5417 -0.0773  0.6000
  243MOL0     C32000   4.659   3.248   2.449  0.1966 -0.1388 -0.0767
  243MOL0     C32001   4.532   3.210   2.507  0.0752 -0.2576  0.4234
  243MOL0     O32002   4.471   3.307   2.582 -0.2336  0.2945 -0.4900
  243MOL0     C32003   4.358   3.257   2.655  0.9335  1.3872 -0.7558
  243MOL0     C32004   4.229   3.292   2.595  1.1640  1.0828 -0.2302
  243MOL0     C32005   4.102   3.229   2.658  0.0559 -0.1771  0.2112
  243MOL0     C32006   3.979   3.301   2.599 -0.1045  0.1283 -0.4559
  243MOL0     C32007   3.861   3.276   2.684  0.7558  0.3109 -0.2061
  243MOL0     C32008   3.763   3.275   2.758 -0.1079  0.6033 -0.3937
  243MOL0     C32009   4.485   3.081   2.482  0.0681  0.4598  0.0221
  243MOL0     C32010   4.558   2.993   2.406 -0.1046 -0.3364 -0.2751
  243MOL0     H32011   4.869   2.750   2.549  0.8913  1.4859 -0.1536
  243MOL0     H32012   4.992   2.537   2.593  0.4163 -1.8122 -0.0037
  243MOL0     H32013   5.335   2.482   2.289 -1.5601  0.7644 -0.1402
  243MOL0     H32014   5.213   2.374   2.233  0.8654  0.3064 -1.1346
  243MOL0     H32015   5.395   2.227   2.270 -1.0064 -1.5381  0.0718
  243MOL0     H32016   5.276   2.201   2.392 -0.9595  1.6607  0.4492
  243MOL0     H32017   5.411   2.344   2.556  1.5699 -3.5381  2.3920
  243MOL0     H32018   5.537   2.355   2.429 -0.2458  0.1518 -0.1211
  243MOL0     H32019   5.538   2.111   2.425 -1.1064  1.6173 -1.0294
  243MOL0     H32020   5.611   2.199   2.566 -0.3244 -0.0250  0.2839
  243MOL0     H32021   5.347   2.075   2.596  1.0230 -4.3485 -0.1356
  243MOL0     H32022   5.433   2.177   2.709 -2.8332  1.5444 -0.0888
  243MOL0     H32023   5.516   1.895   2.606 -2.1031  1.1154 -0.2814
  243MOL0     H32024   5.448   1.937   2.762 -1.0536 -1.3260 -2.3517
  243MOL0     H32025   5.732   2.001   2.654 -1.0495 -0.7269 -0.7684
  243MOL0     H32026   5.662   2.043   2.820  1.6117 -1.7154  1.1795
  243MOL0     H32027   5.624   1.782   2.844  0.3399 -1.0486 -1.2257
  243MOL0     H32028   5.779   1.852   2.860  1.1048  0.8710 -1.1261
  243MOL0     H32029   5.896   1.841   2.583  0.1381  0.2911 -3.1487
  243MOL0     H32030   5.844   1.639   2.282  0.0123 -0.6397  2.0137
  243MOL0     H32031   5.906   1.791   2.320 -0.0138  1.0149 -2.3561
  243MOL0     H32032   5.655   1.869   2.304  0.0315 -2.3423  3.7041
  243MOL0     H32033   5.623   1.711   2.230  0.1151  0.6326 -3.3478
  243MOL0     H32034   5.759   1.750   2.028 -1.2610  3.7836 -3.1690
  243MOL0     H32035   5.634   1.863   2.042  0.1244 -0.0698 -1.4570
  243MOL0     H32036   5.835   1.970   1.977  0.4094  0.5981  0.4072
  243MOL0     H32037   5.935   1.895   2.096  1.2597  1.0915  0.6413
  243MOL0     H32038   5.822   2.271   2.295 -1.2837  2.7239 -0.3242
  243MOL0     H32039   5.666   2.472   2.258  0.8276 -0.6891  0.0166
  243MOL0     H32040   5.380   2.734   1.965  0.5740  1.5550 -2.7208
  243MOL0     H32041   5.193   2.869   1.908 -0.2171 -0.6858  2.0125
  243MOL0     H32042   4.898   2.853   1.985 -2.6382 -1.2097  2.1427
  243MOL0     H32043   4.804   2.718   1.905  1.3518 -0.1494  0.9332
  243MOL0     H32044   4.703   2.881   1.736 -0.2023  3.5703 -2.0325
  243MOL0     H32045   4.820   2.995   1.776 -3.0580  1.5899 -1.6559
  243MOL0     H32046   4.611   3.065   1.872 -0.5264 -1.2142 -0.6511
  243MOL0     H32047   4.713   3.023   2.004  0.7012 -1.9122  1.3627
  243MOL0     H32048   4.503   2.832   1.895  0.8111  0.1050 -0.9197
  243MOL0     H32049   4.592   2.813   2.048 -2.4867 -0.7677  0.2077
  243MOL0     H32050   4.402   3.053   1.985 -0.3787  2.3718  1.2086
  243MOL0     H32051   4.476   3.024   2.141 -4.0918  1.1109  0.1134
  243MOL0     H32052   4.362   2.818   2.162  2.2016  0.2876  0.4949
  243MOL0     H32053   4.279   2.834   2.007 -0.0958  0.9387 -1.1133
  243MOL0     H32054   4.231   2.973   2.259 -1.5050 -0.6753 -1.0272
  243MOL0     H32055   4.201   3.066   2.118  0.0741  1.8966  4.8499
  243MOL0     H32056   4.013   2.938   2.213 -0.1512  1.6340 -0.1271
  243MOL0     H32057   4.090   2.784   2.166 -2.1473 -0.3696 -0.0404
  243MOL0     H32058   4.982   2.507   1.791  0.8056 -1.5432 -0.7258
  243MOL0     H32059   5.166   2.383   1.892  2.8928  0.3611  0.5364
  243MOL0     H32060   5.512   2.276   1.901 -0.8978  1.5156  0.8330
  243MOL0     H32061   5.671   2.090   1.939  1.5531 -0.3344 -0.8719
  243MOL0     H32062   5.175   2.607   2.197 -0.0696  1.7680 -2.3395
  243MOL0     H32063   5.072   2.814   2.184  3.1121  0.4229  1.0291
  243MOL0     H32064   4.842   3.181   2.354 -0.4556 -0.2407  0.7357
  243MOL0     H32065   4.689   3.352   2.458 -0.4211 -0.0968  2.0751
  243MOL0     H32066   4.368   3.300   2.755  0.8555  0.4134 -0.3221
  243MOL0     H32067   4.355   3.150   2.677 -1.0861  1.6550  0.5543
  243MOL0     H32068   4.224   3.401   2.586 -0.6295  0.8744 -3.1903
  243MOL0     H32069   4.220   3.255   2.492  0.5954 -1.3126  0.6181
  243MOL0     H32070   4.114   3.245   2.765  0.3744 -0.8315  0.2799
  243MOL0     H32071   4.101   3.121   2.640  0.5953  0.1478 -2.1164
  243MOL0     H32072   3.984   3.411   2.596 -0.3254  0.1682  0.3752
  243MOL0     H32073   3.974   3.255   2.500  2.1614  0.4973 -0.7905
  243MOL0     H32074   3.673   3.268   2.814 -0.5014 -0.1023 -1.0943
  243MOL0     H32075   4.382   3.054   2.501  0.6818 -2.4435 -0.2354
  243MOL0     H32076   4.513   2.899   2.375  0.9051 -0.7334 -0.5635
  244MOL0     O32077   8.642  10.938   2.000  0.7038  0.3064 -0.3378
  244MOL0     C32078   8.729  10.872   1.951  0.2332  0.6819  0.2284
  244MOL0     O32079   8.723  10.831   1.822 -0.9219  0.5839 -0.1701
  244MOL0     C32080   8.622  10.872   1.742  0.2694  0.1186  0.0570
  244MOL0     C32081   8.637  10.963   1.642  0.9259 -0.1547  0.3409
  244MOL0     C32082   8.552  10.980   1.538  0.6577 -0.3257 -0.0945
  244MOL0     C32083   8.429  10.914   1.534  0.1697  0.2014  0.2962
  244MOL0     O32084   8.327  10.930   1.447  0.0948 -0.0548  0.4538
  244MOL0     C32085   8.293  11.054   1.394 -0.6886 -0.0953 -0.5588
  244MOL0     C32086   8.210  11.126   1.493 -0.1251  0.3189 -0.6169
  244MOL0     C32087   8.154  11.261   1.445  0.5030  0.3341 -0.3522
  244MOL0     C32088   8.051  11.314   1.536  0.0566 -0.0325  0.3957
  244MOL0     C32089   7.974  11.433   1.485 -0.5808 -0.1840 -0.0990
  244MOL0     C32090   7.878  11.402   1.369  0.2076  0.7257  0.1424
  244MOL0     C32091   7.781  11.520   1.332  0.4154  0.6545  0.0622
  244MOL0     C32092   7.657  11.511   1.415  0.4330  0.0008  0.0918
  244MOL0     N32093   7.588  11.642   1.432 -0.4539 -0.3864 -0.1797
  244MOL0     C32094   7.460  11.636   1.491 -0.0154 -0.4551 -0.0095
  244MOL0     C32095   7.419  11.765   1.480 -0.0883 -0.4549  0.4111
  244MOL0     C32096   7.290  11.821   1.520  0.2950 -0.1100  0.4136
  244MOL0     C32097   7.164  11.784   1.434 -0.6954 -0.0177  0.9671
  244MOL0     C32098   7.026  11.825   1.490  1.0910  0.2725  0.3852
  244MOL0     C32099   6.907  11.756   1.417 -1.3985  0.9304  0.4087
  244MOL0     O32100   6.778  11.785   1.470 -0.6718  0.3097  0.1101
  244MOL0     C32101   6.673  11.740   1.389  0.3773  0.9352  0.0711
  244MOL0     C32102   6.683  11.651   1.290 -0.1650  0.1330 -0.3608
  244MOL0     C32103   6.569  11.613   1.220  0.0983 -0.6011 -0.0716
  244MOL0     C32104   6.445  11.652   1.261  0.8630  0.2406 -0.0349
  244MOL0     C32105   6.322  11.598   1.206 -0.5900 -2.2741 -0.3853
  244MOL0     O32106   6.218  11.697   1.199  0.5861  0.1455  0.2776
  244MOL0     C32107   6.101  11.651   1.145  0.8890 -1.6995  0.6935
  244MOL0     C32108   6.104  11.632   1.005  0.1631  0.4218  0.4843
  244MOL0     C32109   5.987  11.588   0.942  0.2352  0.2265  0.1951
  244MOL0     C32110   5.860  11.578   1.014  0.2487  0.2595 -0.2693
  244MOL0     O32111   5.734  11.564   0.960  0.0695  0.5377 -0.1229
  244MOL0     C32112   5.724  11.518   0.819  0.9882  0.1711 -0.1235
  244MOL0     C32113   5.583  11.525   0.765 -0.0223 -1.0952 -1.3759
  244MOL0     C32114   5.486  11.435   0.844  1.0578  0.2715  0.1003
  244MOL0     C32115   5.339  11.455   0.802  0.5051 -0.0274  0.2606
  244MOL0     C32116   5.245  11.383   0.901  0.1058 -0.1794  0.1106
  244MOL0     C32117   5.103  11.427   0.881 -0.5892 -1.1905  0.2436
  244MOL0     C32118   5.014  11.383   0.996 -0.1705  0.5654 -1.0027
  244MOL0     C32119   4.871  11.434   0.971  0.1660  0.2460  0.8541
  244MOL0    Cl32120   4.820  11.332   0.839  0.0170  0.2156 -0.3996
  244MOL0     C32121   5.866  11.601   1.151  1.2055 -0.3869 -0.2674
  244MOL0     C32122   5.984  11.643   1.214 -0.0499 -0.2444 -0.6194
  244MOL0     O32123   6.331  11.492   1.145 -0.0648 -0.1480  0.0957
  244MOL0     C32124   6.437  11.747   1.360 -0.5547  0.8880  0.5876
  244MOL0     C32125   6.554  11.792   1.424  0.8475  0.4293  0.2621
  244MOL0     N32126   7.512  11.834   1.396 -0.1496 -0.1020  0.1062
  244MOL0     N32127   7.622  11.756   1.376 -0.3161 -0.5193 -0.6673
  244MOL0     C32128   8.414  10.812   1.623 -0.4705 -0.3620 -0.2362
  244MOL0     C32129   8.509  10.793   1.728  0.0777  0.1121  0.3313
  244MOL0     C32130   8.850  10.829   2.027  0.2164  0.6984 -0.6545
  244MOL0     C32131   8.945  10.736   1.983  0.1278  0.7608  0.1654
  244MOL0     C32132   9.058  10.700   2.052 -0.0271  0.4632 -0.0030
  244MOL0     C32133   9.093  10.762   2.171 -0.4046  0.5600  0.0833
  244MOL0     O32134   9.213  10.720   2.222 -0.1876 -0.6503  0.2657
  244MOL0     C32135   9.281  10.793   2.324 -0.3646 -0.5282 -0.1718
  244MOL0     C32136   9.383  10.703   2.399 -0.5635  0.0550  0.6577
  244MOL0     C32137   9.332  10.623   2.520  0.0638  0.5843 -0.9193
  244MOL0     C32138   9.252  10.493   2.486  0.7375  0.7678  0.9039
  244MOL0     C32139   9.338  10.388   2.419 -0.4347 -0.2997 -0.7048
  244MOL0     C32140   9.414  10.311   2.365  0.0880 -0.0958  0.1281
  244MOL0     C32141   9.005  10.860   2.217  0.0487  0.1147  0.3800
  244MOL0     C32142   8.885  10.890   2.150  0.0319 -1.0307 -0.5483
  244MOL0     H32143   8.732  11.015   1.647 -0.6205  2.7549  1.6795
  244MOL0     H32144   8.586  11.044   1.457  0.6671  1.3372  1.1791
  244MOL0     H32145   8.238  11.032   1.302  0.9991  1.2161 -1.9560
  244MOL0     H32146   8.375  11.124   1.379 -0.5992 -0.3278 -1.1914
  244MOL0     H32147   8.263  11.142   1.587  0.0300  1.1299 -0.8329
  244MOL0     H32148   8.121  11.063   1.499  1.5213 -2.5633 -3.2117
  244MOL0     H32149   8.113  11.252   1.344 -1.0151  0.0678  0.2660
  244MOL0     H32150   8.235  11.335   1.438  0.5995  0.4184  1.2218
  244MOL0     H32151   7.982  11.237   1.571  0.0787 -0.0494  0.4032
  244MOL0     H32152   8.098  11.355   1.626  0.6718  1.8908 -0.7381
  244MOL0     H32153   8.039  11.510   1.443  0.1068 -0.3302  0.6809
  244MOL0     H32154   7.914  11.478   1.564 -1.9411  0.2955 -1.3417
  244MOL0     H32155   7.812  11.319   1.397  1.1002 -0.6952 -1.6980
  244MOL0     H32156   7.932  11.375   1.278  2.6767  2.1182  1.0987
  244MOL0     H32157   7.827  11.617   1.357 -1.7554  0.9875  3.3441
  244MOL0     H32158   7.746  11.519   1.228 -1.3034  1.1100  0.6184
  244MOL0     H32159   7.673  11.496   1.522 -0.6796  0.1937  0.2919
  244MOL0     H32160   7.590  11.437   1.370 -1.3173  1.8803 -0.5845
  244MOL0     H32161   7.409  11.553   1.539 -0.4806  0.7203  1.5937
  244MOL0     H32162   7.302  11.929   1.516 -1.0872  0.0393 -0.3186
  244MOL0     H32163   7.274  11.785   1.622  2.0296 -0.6564  0.5200
  244MOL0     H32164   7.173  11.677   1.414  2.7868  0.1415  1.1266
  244MOL0     H32165   7.176  11.829   1.335  0.1819  0.2210  1.1732
  244MOL0     H32166   7.019  11.786   1.592 -1.1082 -1.0386 -0.2081
  244MOL0     H32167   7.013  11.934   1.483 -0.4718 -0.0080 -2.6712
  244MOL0     H32168   6.918  11.649   1.432 -1.3407  0.6728 -1.2903
  244MOL0     H32169   6.916  11.787   1.313  1.9796  0.1274  0.3357
  244MOL0     H32170   6.776  11.604   1.261 -1.8166 -2.7727 -1.3811
  244MOL0     H32171   6.581  11.531   1.151  3.1975 -0.9231  0.7137
  244MOL0     H32172   6.196  11.641   0.947  0.0288  0.6005  0.2973
  244MOL0     H32173   5.974  11.570   0.836 -1.5071  1.9492  0.0509
  244MOL0     H32174   5.761  11.415   0.814  1.5714  0.3254  0.6473
  244MOL0     H32175   5.781  11.593   0.763  1.8089  0.7648  1.4279
  244MOL0     H32176   5.588  11.499   0.658 -0.9887  0.2502 -1.7761
  244MOL0     H32177   5.549  11.626   0.786 -0.5196 -1.3693 -0.8289
  244MOL0     H32178   5.497  11.455   0.951  0.0566  0.1101  0.2432
  244MOL0     H32179   5.514  11.330   0.828 -1.6169 -0.4868 -0.2331
  244MOL0     H32180   5.318  11.561   0.787 -0.2047 -0.0832  0.7634
  244MOL0     H32181   5.319  11.407   0.706 -2.9309  2.3331 -0.3866
  244MOL0     H32182   5.273  11.404   1.004  2.9118  0.8289 -0.7630
  244MOL0     H32183   5.251  11.274   0.893 -0.5153 -0.3900  2.1120
  244MOL0     H32184   5.073  11.389   0.783  1.2072  0.2025 -0.9129
  244MOL0     H32185   5.113  11.536   0.879 -0.3071 -1.2171  0.1472
  244MOL0     H32186   5.018  11.276   1.019  1.0267  0.4955 -1.4626
  244MOL0     H32187   5.048  11.433   1.087 -2.6543  0.9629 -0.2213
  244MOL0     H32188   4.870  11.538   0.939 -2.0050 -0.1656 -0.7019
  244MOL0     H32189   4.811  11.418   1.061  1.8104 -4.1036  1.4589
  244MOL0     H32190   5.778  11.616   1.211  0.8557 -0.6362 -0.7089
  244MOL0     H32191   5.980  11.659   1.321 -1.0103  0.3054 -0.7177
  244MOL0     H32192   6.338  11.775   1.395 -1.0541 -0.3212  0.1993
  244MOL0     H32193   6.540  11.865   1.502 -2.1773  0.1061  0.1607
  244MOL0     H32194   8.328  10.747   1.633 -1.4203  1.1168  2.0657
  244MOL0     H32195   8.498  10.712   1.799 -0.4373 -0.2144 -0.1185
  244MOL0     H32196   8.932  10.703   1.880  0.1465 -0.6958  0.6017
  244MOL0     H32197   9.121  10.631   1.996  1.7497  1.0001  1.2364
  244MOL0     H32198   9.209  10.831   2.397  0.0771 -1.9980  1.0765
  244MOL0     H32199   9.317  10.893   2.299 -1.4334  0.6641  2.6040
  244MOL0     H32200   9.418  10.628   2.327  0.5003 -1.4875  2.6726
  244MOL0     H32201   9.472  10.755   2.435 -0.7346  1.4711 -0.8340
  244MOL0     H32202   9.263  10.684   2.579 -0.3476  0.2542 -1.0535
  244MOL0     H32203   9.424  10.596   2.573  0.1366  1.5662 -0.5223
  244MOL0     H32204   9.194  10.446   2.567 -1.0824  1.8749  0.2951
  244MOL0     H32205   9.175  10.513   2.411 -2.1839 -3.2384  2.4422
  244MOL0     H32206   9.459  10.227   2.316  1.0843  1.5454 -1.9360
  244MOL0     H32207   9.024  10.914   2.310 -2.4317  1.3514  0.2415
  244MOL0     H32208   8.813  10.964   2.182  1.5721  0.4443 -0.3367
  245MOL0     O32209   5.909  10.143   4.321 -0.1645  0.1346 -0.4290
  245MOL0     C32210   5.875  10.190   4.429 -0.4864 -0.3285  0.6962
  245MOL0     O32211   5.747  10.222   4.463  0.5393  0.2841 -0.1235
  245MOL0     C32212   5.657  10.240   4.363 -0.0297  0.8011 -0.2686
  245MOL0     C32213   5.626  10.366   4.307 -0.5460 -0.0189 -0.5752
  245MOL0     C32214   5.536  10.379   4.201 -0.0635 -0.0797 -0.9447
  245MOL0     C32215   5.460  10.268   4.160 -0.2925 -0.2839  1.0225
  245MOL0     O32216   5.377  10.264   4.051 -0.5672 -0.0282  0.4465
  245MOL0     C32217   5.325  10.391   3.991 -0.0461  0.5492  0.0130
  245MOL0     C32218   5.248  10.488   4.074  0.3975  0.4958  0.8338
  245MOL0     C32219   5.106  10.434   4.105 -0.1584  0.5047 -0.3680
  245MOL0     C32220   5.007  10.545   4.150 -0.3491  1.1893  0.4512
  245MOL0     C32221   4.860  10.523   4.108 -0.3566 -0.4007 -0.2774
  245MOL0     C32222   4.803  10.379   4.152  0.3784 -0.2265  0.7388
  245MOL0     C32223   4.827  10.366   4.304  0.3526  1.0995  0.0212
  245MOL0     C32224   4.719  10.271   4.356  0.1233  0.0696 -0.3839
  245MOL0     N32225   4.584  10.321   4.331 -0.6140  0.0331 -0.5623
  245MOL0     C32226   4.540  10.451   4.343 -0.8782  0.3008  0.0418
  245MOL0     C32227   4.418  10.439   4.285 -0.2581 -0.2579 -0.4402
  245MOL0     C32228   4.318  10.547   4.286  0.2808  0.1793  0.1992
  245MOL0     C32229   4.283  10.594   4.149 -1.3641 -1.2345  0.3402
  245MOL0     C32230   4.195  10.720   4.139  0.2959 -0.0272 -0.3114
  245MOL0     C32231   4.131  10.737   4.008 -0.3817 -0.8986  0.7941
  245MOL0     O32232   4.224  10.752   3.898  0.4437 -0.0059  0.0455
  245MOL0     C32233   4.177  10.774   3.768 -0.1945 -0.3076  0.5196
  245MOL0     C32234   4.269  10.776   3.668 -0.4783 -0.2024  0.0009
  245MOL0     C32235   4.232  10.812   3.535  0.4148 -0.0222 -0.2826
  245MOL0     C32236   4.101  10.857   3.500 -0.6991  0.4086 -0.2656
  245MOL0     C32237   4.071  10.893   3.358 -0.3914  0.0306  0.3898
  245MOL0     O32238   3.953  10.950   3.332  0.0268  0.6640 -0.5255
  245MOL0     C32239   3.920  10.983   3.201  0.3358 -0.6888 -0.1390
  245MOL0     C32240   3.802  10.943   3.149  0.2448  0.6355  0.7215
  245MOL0     C32241   3.779  10.965   3.008  0.9878 -0.1944 -0.0025
  245MOL0     C32242   3.877  11.031   2.929  0.7012 -0.5815  1.0536
  245MOL0     O32243   3.858  11.050   2.795 -0.2223  0.3967 -0.1870
  245MOL0     C32244   3.734  11.100   2.746 -0.3292 -0.5156  0.4725
  245MOL0     C32245   3.740  11.102   2.591  0.1333 -0.3826  0.1323
  245MOL0     C32246   3.764  10.961   2.526 -0.8794 -0.2974 -0.1710
  245MOL0     C32247   3.728  10.956   2.379 -0.9933 -0.6611 -0.6259
  245MOL0     C32248   3.713  10.810   2.328 -0.2256  0.5658 -0.1432
  245MOL0     C32249   3.692  10.798   2.175  0.4187 -0.4646 -0.4017
  245MOL0     C32250   3.688  10.650   2.129  0.0057  0.0771 -0.4836
  245MOL0     C32251   3.568  10.566   2.185 -0.6874 -0.7813 -0.7014
  245MOL0    Cl32252   3.423  10.653   2.141 -0.1370 -0.1416  0.1684
  245MOL0     C32253   3.996  11.073   2.984 -0.2197  1.0585  0.4090
  245MOL0     C32254   4.014  11.059   3.123 -0.1985  0.4324  0.7482
  245MOL0     O32255   4.161  10.875   3.275  0.3090  0.1626 -0.3999
  245MOL0     C32256   4.008  10.862   3.605  0.1212 -0.6567  0.2433
  245MOL0     C32257   4.042  10.808   3.732 -1.0942  0.2731 -0.8340
  245MOL0     N32258   4.384  10.304   4.260 -0.2062  0.4384  0.0518
  245MOL0     N32259   4.490  10.236   4.292 -0.1569  0.4270  0.4494
  245MOL0     C32260   5.484  10.149   4.231  0.2822 -0.2532  0.0875
  245MOL0     C32261   5.584  10.130   4.325  0.5294  0.4114 -0.0292
  245MOL0     C32262   5.981  10.193   4.534  0.3972 -0.0054  0.0381
  245MOL0     C32263   5.941  10.231   4.666 -0.1857  0.2431  0.0164
  245MOL0     C32264   6.041  10.234   4.766 -1.1847 -0.0545 -0.4382
  245MOL0     C32265   6.177  10.216   4.737 -0.0247  0.1607  0.3924
  245MOL0     O32266   6.268  10.221   4.836  0.0156  0.7099 -0.3744
  245MOL0     C32267   6.244  10.322   4.936 -0.6880  0.1136  0.4205
  245MOL0     C32268   6.370  10.348   5.023 -1.3250  0.3553 -0.3866
  245MOL0     C32269   6.488  10.398   4.931  0.1389 -0.2374 -0.3727
  245MOL0     C32270   6.623  10.381   4.999  0.1393 -0.4493 -0.1270
  245MOL0     C32271   6.735  10.419   4.907  0.5025  0.2372  0.0558
  245MOL0     C32272   6.827  10.447   4.827  0.1372 -0.5191  0.5502
  245MOL0     C32273   6.208  10.176   4.606  0.0479 -0.3596  0.1555
  245MOL0     C32274   6.109  10.156   4.506 -0.7422  1.5962 -0.2091
  245MOL0     H32275   5.687  10.449   4.341 -0.7848  0.4250 -1.2155
  245MOL0     H32276   5.532  10.479   4.157 -0.1010 -0.1695 -1.1468
  245MOL0     H32277   5.277  10.344   3.905  1.0207 -0.8506  0.1425
  245MOL0     H32278   5.414  10.439   3.948  2.0703 -2.5520  0.5346
  245MOL0     H32279   5.247  10.579   4.015 -0.5199  1.7656  2.7166
  245MOL0     H32280   5.305  10.511   4.164 -0.2066  1.9486  0.8594
  245MOL0     H32281   5.118  10.348   4.171  0.2474 -0.6508 -1.8886
  245MOL0     H32282   5.057  10.394   4.016 -1.8754 -0.8607  1.0857
  245MOL0     H32283   5.014  10.566   4.257  0.8392  1.1305  0.4045
  245MOL0     H32284   5.034  10.642   4.107 -0.0767  0.3229 -1.4053
  245MOL0     H32285   4.854  10.539   4.000 -1.1981  2.4630  0.1072
  245MOL0     H32286   4.797  10.594   4.162  0.9620  1.6132 -1.2666
  245MOL0     H32287   4.872  10.309   4.104  3.5932  2.5549  0.9279
  245MOL0     H32288   4.697  10.375   4.127  0.0603  0.8072  1.8105
  245MOL0     H32289   4.921  10.316   4.330  0.1694 -0.1602 -1.5105
  245MOL0     H32290   4.817  10.467   4.343 -1.7129  0.7124  0.6246
  245MOL0     H32291   4.735  10.266   4.464  0.1523 -1.7087 -0.4456
  245MOL0     H32292   4.749  10.173   4.318  2.3847  0.7886 -0.6210
  245MOL0     H32293   4.587  10.534   4.394 -0.6277 -0.2740  0.7538
  245MOL0     H32294   4.357  10.626   4.351  1.1090 -1.2103  1.4457
  245MOL0     H32295   4.230  10.501   4.332  1.5874 -1.6362  0.9856
  245MOL0     H32296   4.227  10.508   4.111 -0.8609 -0.7851 -1.5471
  245MOL0     H32297   4.375  10.616   4.094 -2.0103  0.9405  0.0526
  245MOL0     H32298   4.115  10.725   4.214  0.6166  2.3998 -0.0395
  245MOL0     H32299   4.260  10.805   4.162  0.4872  0.1247 -1.3983
  245MOL0     H32300   4.063  10.821   4.025  0.9847  0.0795  1.5807
  245MOL0     H32301   4.062  10.653   3.995  1.2951 -2.6674  2.7004
  245MOL0     H32302   4.373  10.751   3.688 -0.4057 -0.2537 -0.4337
  245MOL0     H32303   4.314  10.808   3.464  1.0525  1.4526  0.3273
  245MOL0     H32304   3.738  10.886   3.215 -0.6937 -1.4290 -1.8148
  245MOL0     H32305   3.684  10.928   2.970  0.7844  0.4319 -0.1271
  245MOL0     H32306   3.732  11.198   2.794  2.3944 -1.2827  2.3929
  245MOL0     H32307   3.649  11.037   2.772 -1.3268  0.8512  0.6396
  245MOL0     H32308   3.817  11.176   2.570 -1.1574  0.9906  0.0710
  245MOL0     H32309   3.647  11.146   2.554  0.1826 -0.3863  0.0036
  245MOL0     H32310   3.705  10.885   2.579 -2.8305  1.7351  0.7167
  245MOL0     H32311   3.870  10.941   2.540 -0.6264  1.7895  1.4999
  245MOL0     H32312   3.643  11.020   2.353  0.3451  0.3766 -2.7745
  245MOL0     H32313   3.809  11.009   2.329 -1.0846  1.6992  1.5821
  245MOL0     H32314   3.626  10.765   2.378  0.0612  0.7163  0.5002
  245MOL0     H32315   3.808  10.760   2.349  0.3816  1.3527 -0.9308
  245MOL0     H32316   3.779  10.838   2.123 -0.0322  2.3611  0.8408
  245MOL0     H32317   3.607  10.857   2.141 -0.1213 -0.3682  1.0398
  245MOL0     H32318   3.669  10.642   2.022  0.3841 -2.4669 -0.4411
  245MOL0     H32319   3.782  10.602   2.157  0.2808  1.2291  0.6751
  245MOL0     H32320   3.584  10.557   2.293  3.5182  0.6702 -0.9999
  245MOL0     H32321   3.570  10.466   2.139  1.5827 -0.0894 -2.2834
  245MOL0     H32322   4.069  11.109   2.912 -0.7571 -0.6005 -1.0290
  245MOL0     H32323   4.108  11.091   3.169  0.5607 -1.4359  0.5928
  245MOL0     H32324   3.913  10.904   3.573  1.5014  3.1573  0.6675
  245MOL0     H32325   3.967  10.814   3.810  1.6557 -1.8842  2.2744
  245MOL0     H32326   5.425  10.064   4.196 -0.8462  1.0517 -1.3328
  245MOL0     H32327   5.597  10.031   4.367 -3.1265 -0.6021 -0.9256
  245MOL0     H32328   5.834  10.241   4.681 -0.5348 -1.2600 -1.1799
  245MOL0     H32329   6.003  10.260   4.864 -2.0100 -1.8755 -0.2383
  245MOL0     H32330   6.159  10.288   4.996 -0.4971 -0.6372  0.2682
  245MOL0     H32331   6.214  10.418   4.893 -0.1323  0.7791  1.4686
  245MOL0     H32332   6.363  10.418   5.106  4.0472 -1.1914  1.7967
  245MOL0     H32333   6.398  10.257   5.077  0.7058  0.4386 -1.1892
  245MOL0     H32334   6.472  10.497   4.889  2.6326 -1.0370 -3.6199
  245MOL0     H32335   6.491  10.329   4.846 -0.1313 -0.0114 -0.5664
  245MOL0     H32336   6.630  10.433   5.095  0.0443 -2.5876  1.1079
  245MOL0     H32337   6.637  10.274   5.018  1.5718 -0.1704  0.5189
  245MOL0     H32338   6.915  10.466   4.768 -1.1121  0.6985 -1.0257
  245MOL0     H32339   6.303  10.131   4.579  0.2299  0.7807 -1.2819
  245MOL0     H32340   6.139  10.105   4.415  0.3036  0.4817  0.7208
  246MOL0     O32341  10.316   8.066   0.452  1.0821 -0.2068  0.1363
  246MOL0     C32342  10.358   7.945   0.441  0.9157 -0.3532  0.2587
  246MOL0     O32343  10.284   7.840   0.464  0.5350 -0.5980 -0.2056
  246MOL0     C32344  10.145   7.856   0.482 -0.4334  0.6166 -0.2648
  246MOL0     C32345  10.089   7.934   0.577  0.1574 -0.6591 -0.8940
  246MOL0     C32346   9.947   7.936   0.597  0.1767  0.5726  0.1863
  246MOL0     C32347   9.868   7.846   0.523 -0.0345 -0.2999  0.3784
  246MOL0     O32348   9.732   7.855   0.553 -0.0220  0.3766 -0.5500
  246MOL0     C32349   9.635   7.777   0.473  0.0583 -0.2368  0.4116
  246MOL0     C32350   9.492   7.760   0.529  0.0676  0.8075 -0.9602
  246MOL0     C32351   9.496   7.657   0.647  0.5262 -0.9616  0.1393
  246MOL0     C32352   9.360   7.639   0.721 -0.2834 -0.2175 -0.8509
  246MOL0     C32353   9.388   7.538   0.832 -0.5305  0.8972  0.4750
  246MOL0     C32354   9.268   7.532   0.931  0.5488  0.3508  1.1532
  246MOL0     C32355   9.129   7.509   0.869 -0.2081  0.1903  0.0956
  246MOL0     C32356   9.115   7.371   0.807 -0.5013 -0.1651 -0.4157
  246MOL0     N32357   8.971   7.341   0.799  0.0326 -0.2034  0.3516
  246MOL0     C32358   8.880   7.407   0.721 -0.3854 -0.4230  0.6205
  246MOL0     C32359   8.765   7.328   0.717 -0.7017 -1.1488 -0.1490
  246MOL0     C32360   8.639   7.370   0.649 -0.5573 -0.1609  0.5386
  246MOL0     C32361   8.521   7.373   0.748  0.7149 -0.0356 -0.6742
  246MOL0     C32362   8.388   7.405   0.689  0.3762  0.2865 -0.7603
  246MOL0     C32363   8.264   7.359   0.774  0.5778  0.6119 -1.3438
  246MOL0     O32364   8.154   7.418   0.714 -0.1410 -0.4425 -0.2995
  246MOL0     C32365   8.031   7.402   0.765  0.0375  0.1726 -0.1728
  246MOL0     C32366   8.006   7.346   0.893 -0.4470 -0.7515 -0.9979
  246MOL0     C32367   7.875   7.323   0.934 -0.0935  0.0980  0.6167
  246MOL0     C32368   7.765   7.363   0.856  0.3135  0.9295 -0.6033
  246MOL0     C32369   7.633   7.351   0.906 -0.4814  0.1187  0.7334
  246MOL0     O32370   7.539   7.408   0.825 -0.1310 -0.0491 -0.0593
  246MOL0     C32371   7.407   7.410   0.859  0.4299 -0.0662  1.2279
  246MOL0     C32372   7.341   7.288   0.866  0.4459 -1.0399  0.2570
  246MOL0     C32373   7.199   7.282   0.879 -0.5384 -0.6217 -0.0748
  246MOL0     C32374   7.126   7.399   0.898  0.0932  0.2746  0.4257
  246MOL0     O32375   6.996   7.396   0.923  0.3440  0.9090 -0.0191
  246MOL0     C32376   6.910   7.507   0.923  0.5168 -0.0419  0.1534
  246MOL0     C32377   6.790   7.495   1.010  0.5843 -0.4041 -0.1968
  246MOL0     C32378   6.709   7.632   1.012  0.0763 -0.9285 -0.0270
  246MOL0     C32379   6.611   7.633   1.135  0.0056  0.6075  0.1041
  246MOL0     C32380   6.515   7.751   1.143  0.2913  0.1075  0.8777
  246MOL0     C32381   6.578   7.885   1.189 -0.1429  0.9079 -0.4976
  246MOL0     C32382   6.497   8.012   1.170 -0.0808 -0.1528 -0.2280
  246MOL0     C32383   6.560   8.132   1.227  0.0003 -0.2792 -0.3913
  246MOL0    Cl32384   6.529   8.127   1.405 -0.1654  0.0819  0.1771
  246MOL0     C32385   7.203   7.520   0.906 -0.7436 -0.7930 -0.0523
  246MOL0     C32386   7.333   7.530   0.876 -0.2043 -0.0447  0.9702
  246MOL0     O32387   7.615   7.295   1.010 -0.5482  1.2447  0.3144
  246MOL0     C32388   7.791   7.431   0.739  0.0822  0.4072 -0.2769
  246MOL0     C32389   7.925   7.442   0.687  0.1670  0.0202 -0.2006
  246MOL0     N32390   8.790   7.216   0.798  0.2430  0.5783  0.0024
  246MOL0     N32391   8.905   7.237   0.855 -0.0021  0.6534  0.2825
  246MOL0     C32392   9.934   7.763   0.427  0.8354 -0.0847  0.2672
  246MOL0     C32393  10.064   7.778   0.402 -0.5889  0.5217 -0.1515
  246MOL0     C32394  10.497   7.919   0.396 -0.0740  0.7589 -0.5966
  246MOL0     C32395  10.560   7.795   0.430  0.6906 -0.6118  0.7481
  246MOL0     C32396  10.697   7.771   0.387 -0.4668 -0.8494  1.0427
  246MOL0     C32397  10.764   7.866   0.306 -0.0991  0.6351 -0.4903
  246MOL0     O32398  10.891   7.827   0.258 -0.5085 -0.2263 -0.1050
  246MOL0     C32399  10.978   7.920   0.189 -0.2506 -0.0487 -0.3420
  246MOL0     C32400  11.126   7.848   0.185 -0.6018 -0.0514  0.0937
  246MOL0     C32401  11.122   7.727   0.091 -0.3262  0.6117 -0.2131
  246MOL0     C32402  11.042   7.605   0.141 -0.0126  0.0179 -0.5927
  246MOL0     C32403  11.088   7.480   0.093  0.3488 -0.0183 -0.3351
  246MOL0     C32404  11.121   7.365   0.057 -0.0768  0.7991 -0.0728
  246MOL0     C32405  10.703   7.987   0.281  0.9694  0.4957  0.1710
  246MOL0     C32406  10.569   8.013   0.319 -0.9573 -0.3787 -0.0731
  246MOL0     H32407  10.152   7.993   0.642 -1.9765  0.5182  0.2190
  246MOL0     H32408   9.908   7.996   0.679  0.0536  2.1009 -0.9614
  246MOL0     H32409   9.678   7.679   0.453 -1.9451 -1.0041 -0.4127
  246MOL0     H32410   9.621   7.820   0.373  2.8310  1.0064  0.4808
  246MOL0     H32411   9.423   7.725   0.452 -1.9045  1.1453  0.5821
  246MOL0     H32412   9.464   7.859   0.567  1.2787  0.5668  0.6600
  246MOL0     H32413   9.576   7.689   0.715  2.2090 -4.1862 -0.1335
  246MOL0     H32414   9.530   7.560   0.612  0.7441 -0.9655  0.3605
  246MOL0     H32415   9.329   7.728   0.776 -2.2570 -1.9742  1.0891
  246MOL0     H32416   9.281   7.604   0.653 -1.6688  2.6330 -0.8519
  246MOL0     H32417   9.480   7.567   0.883 -0.6569  0.8458  0.7336
  246MOL0     H32418   9.400   7.437   0.791  3.0431  1.2033  0.5176
  246MOL0     H32419   9.263   7.628   0.984 -0.4012  0.9970 -0.0574
  246MOL0     H32420   9.282   7.451   1.003 -2.4651 -2.6423 -1.3299
  246MOL0     H32421   9.051   7.525   0.943 -1.4497  0.3580 -1.2112
  246MOL0     H32422   9.104   7.588   0.798 -3.9563  1.1783  2.2641
  246MOL0     H32423   9.155   7.305   0.884  1.3644 -0.2126 -1.3581
  246MOL0     H32424   9.164   7.353   0.710 -1.9505 -1.4246 -0.9409
  246MOL0     H32425   8.898   7.497   0.663  0.2358 -0.9010  0.0607
  246MOL0     H32426   8.613   7.309   0.562  0.0804 -1.2918  1.1175
  246MOL0     H32427   8.652   7.474   0.619 -0.4736 -0.4030 -0.2710
  246MOL0     H32428   8.533   7.457   0.816 -0.1536  2.1372 -3.0542
  246MOL0     H32429   8.518   7.283   0.810 -0.8131  0.6765  0.3401
  246MOL0     H32430   8.372   7.513   0.683 -1.8372 -0.0372 -1.8219
  246MOL0     H32431   8.383   7.371   0.585 -1.0282  1.0668 -0.9733
  246MOL0     H32432   8.274   7.379   0.881 -1.3960 -4.6381  0.1521
  246MOL0     H32433   8.270   7.250   0.768  1.3471  0.4069  1.4690
  246MOL0     H32434   8.079   7.314   0.965 -1.0891  0.9517  0.4895
  246MOL0     H32435   7.849   7.275   1.027  0.0785 -0.7103  0.2580
  246MOL0     H32436   7.397   7.197   0.849 -1.7086 -2.9582  2.5831
  246MOL0     H32437   7.148   7.186   0.883 -1.5876 -0.0449  1.8961
  246MOL0     H32438   6.862   7.530   0.827 -0.5040  0.1021  0.6880
  246MOL0     H32439   6.962   7.600   0.948  0.3484  0.2021 -0.3757
  246MOL0     H32440   6.830   7.468   1.108  0.4331 -2.4896 -0.6605
  246MOL0     H32441   6.734   7.408   0.974  0.2720 -0.1596 -0.3016
  246MOL0     H32442   6.654   7.636   0.918  1.0093 -0.5412 -0.5657
  246MOL0     H32443   6.773   7.720   1.022 -2.2188  0.9357 -0.7732
  246MOL0     H32444   6.559   7.538   1.126 -0.1158  0.6848 -0.0086
  246MOL0     H32445   6.654   7.621   1.235  0.6983  1.0943 -0.1228
  246MOL0     H32446   6.448   7.710   1.218  2.5214 -1.2146  2.2600
  246MOL0     H32447   6.476   7.775   1.044  2.1393  0.3976  0.1650
  246MOL0     H32448   6.675   7.889   1.137 -0.1746 -1.4993 -0.8399
  246MOL0     H32449   6.603   7.877   1.295  4.3332 -1.1415 -1.4408
  246MOL0     H32450   6.473   8.029   1.065 -1.9790 -0.0951  0.1936
  246MOL0     H32451   6.403   7.992   1.221  0.2053 -0.9085  0.0227
  246MOL0     H32452   6.510   8.224   1.195 -1.3410 -1.7105 -2.6809
  246MOL0     H32453   6.668   8.137   1.212  0.3125 -3.4348  0.0604
  246MOL0     H32454   7.168   7.619   0.935  0.7639 -0.1201 -0.4278
  246MOL0     H32455   7.387   7.624   0.880 -0.4419  0.1303  0.1936
  246MOL0     H32456   7.713   7.465   0.671 -2.0394 -2.3325  0.5950
  246MOL0     H32457   7.951   7.490   0.593  0.6560 -0.6457 -0.4134
  246MOL0     H32458   9.881   7.685   0.373  1.7593 -0.0441 -0.7421
  246MOL0     H32459  10.109   7.710   0.330 -2.2640 -2.6904  1.6017
  246MOL0     H32460  10.513   7.715   0.487  1.6973 -1.4507  0.4205
  246MOL0     H32461  10.752   7.686   0.425 -2.7065 -1.8686  2.1826
  246MOL0     H32462  10.982   8.020   0.233 -2.0841 -0.5997  1.2086
  246MOL0     H32463  10.943   7.926   0.086 -1.7606 -1.9844 -0.0013
  246MOL0     H32464  11.193   7.923   0.143 -0.5552  0.8543  1.6784
  246MOL0     H32465  11.165   7.829   0.285 -1.0649  0.1644  0.3207
  246MOL0     H32466  11.225   7.702   0.065 -0.2217 -3.1141  2.8385
  246MOL0     H32467  11.072   7.755  -0.003  0.5307 -0.4339 -1.0041
  246MOL0     H32468  11.036   7.608   0.250 -0.4745 -0.3357 -0.6027
  246MOL0     H32469  10.942   7.613   0.097 -0.9811  1.4186  1.7116
  246MOL0     H32470  11.163   7.269   0.035  1.9894  1.1144  2.0148
  246MOL0     H32471  10.752   8.068   0.226 -1.8045  1.2302 -1.3818
  246MOL0     H32472  10.520   8.103   0.283  0.9316  0.8093  0.1586
  247MOL0     O32473   6.671   2.196   4.805 -0.4273 -0.3468 -0.0431
  247MOL0     C32474   6.633   2.162   4.912 -0.0040  0.2641 -0.3839
  247MOL0     O32475   6.706   2.102   5.006  0.3525  0.0469 -0.1230
  247MOL0     C32476   6.808   2.030   4.963  0.5734 -0.3358  0.0548
  247MOL0     C32477   6.790   1.900   4.924  0.6290  0.5303  0.6692
  247MOL0     C32478   6.893   1.811   4.892 -0.7456 -0.3114  0.3018
  247MOL0     C32479   7.024   1.867   4.897  0.7396  0.3692  0.2049
  247MOL0     O32480   7.132   1.795   4.871 -0.8704 -0.2013  0.0860
  247MOL0     C32481   7.239   1.777   4.964 -0.2643  0.1096  0.2266
  247MOL0     C32482   7.357   1.689   4.911  0.7816 -0.1505 -0.3045
  247MOL0     C32483   7.320   1.539   4.891 -0.2513 -0.0916  0.2694
  247MOL0     C32484   7.294   1.474   5.027 -0.3853 -0.6112 -1.1206
  247MOL0     C32485   7.245   1.330   5.021 -0.1143 -0.3584  0.2941
  247MOL0     C32486   7.312   1.231   4.931 -0.0184 -0.3329 -0.3625
  247MOL0     C32487   7.247   1.092   4.948  0.3271 -0.1574  0.0604
  247MOL0     C32488   7.341   1.008   5.030 -0.3528 -0.5443  0.2149
  247MOL0     N32489   7.435   0.934   4.938  0.0269 -0.3117 -0.0601
  247MOL0     C32490   7.420   0.803   4.895  0.8064  0.0093  0.0923
  247MOL0     C32491   7.525   0.763   4.827  0.0200 -0.0661  0.4957
  247MOL0     C32492   7.540   0.627   4.769 -0.2915  0.5325 -0.4697
  247MOL0     C32493   7.685   0.598   4.725  0.0086  0.0331 -0.4728
  247MOL0     C32494   7.693   0.483   4.618 -0.7213 -0.1082 -0.3506
  247MOL0     C32495   7.817   0.496   4.528 -0.4559 -0.2192 -0.9238
  247MOL0     O32496   7.936   0.456   4.604  0.6957 -0.3141  0.7799
  247MOL0     C32497   8.024   0.379   4.537  0.1140  0.3934  0.2107
  247MOL0     C32498   7.986   0.251   4.498 -0.1878 -0.5126 -1.2050
  247MOL0     C32499   8.078   0.162   4.445 -0.3847  0.2752 -0.3874
  247MOL0     C32500   8.210   0.197   4.412  0.0758 -0.1416  0.6752
  247MOL0     C32501   8.292   0.117   4.329  0.5784  0.7298 -0.3943
  247MOL0     O32502   8.420   0.173   4.310  0.0809  0.2685  0.1220
  247MOL0     C32503   8.528   0.104   4.258 -1.0644 -0.5767 -0.3535
  247MOL0     C32504   8.526  -0.027   4.209 -0.4592  0.0624 -0.1858
  247MOL0     C32505   8.647  -0.075   4.157  0.2356 -0.9536 -0.3587
  247MOL0     C32506   8.764   0.001   4.147 -0.1538 -0.1459  0.1999
  247MOL0     O32507   8.879  -0.041   4.093  0.0212 -0.1718 -0.2205
  247MOL0     C32508   8.884  -0.158   4.012 -0.0047  0.8370  1.1843
  247MOL0     C32509   9.035  -0.178   3.970 -0.0911 -0.8064  0.3077
  247MOL0     C32510   9.130  -0.223   4.080  0.3393 -0.7254  0.6190
  247MOL0     C32511   9.271  -0.239   4.026  0.0388 -0.5995 -0.4031
  247MOL0     C32512   9.343  -0.097   4.010  0.5783  0.3895 -0.2508
  247MOL0     C32513   9.444  -0.098   3.900  0.2337  0.1433 -0.4031
  247MOL0     C32514   9.549  -0.209   3.923 -0.4209 -0.0016 -0.8203
  247MOL0     C32515   9.688  -0.191   3.861 -0.2310 -0.9753 -0.0087
  247MOL0    Cl32516   9.776  -0.045   3.928  0.3675 -0.0920 -0.0334
  247MOL0     C32517   8.769   0.122   4.211 -0.1921  0.6851  0.5290
  247MOL0     C32518   8.654   0.170   4.265 -0.1190  0.3831 -0.2654
  247MOL0     O32519   8.257   0.003   4.294 -0.7213  0.1645  0.2971
  247MOL0     C32520   8.255   0.323   4.459 -0.5137  0.2957 -0.3713
  247MOL0     C32521   8.165   0.411   4.526 -0.2238 -0.4329  0.2445
  247MOL0     N32522   7.622   0.864   4.844  1.1045  0.5300 -0.3004
  247MOL0     N32523   7.564   0.967   4.900  0.1411  0.5768  0.4385
  247MOL0     C32524   7.044   2.001   4.933  0.1075  0.2933 -0.1147
  247MOL0     C32525   6.938   2.087   4.964  0.1982  0.8272 -0.7688
  247MOL0     C32526   6.493   2.203   4.945 -0.1994  0.1275  0.4412
  247MOL0     C32527   6.403   2.256   4.854  0.3246  0.4313 -0.3520
  247MOL0     C32528   6.265   2.273   4.891 -0.7363  0.4232 -0.4796
  247MOL0     C32529   6.215   2.244   5.021 -0.1875 -0.2911 -0.5281
  247MOL0     O32530   6.090   2.250   5.069  0.5314  0.3561  0.3761
  247MOL0     C32531   5.985   2.294   4.979 -0.3391 -0.6053 -0.0269
  247MOL0     C32532   5.847   2.295   5.045 -0.7246  0.6300 -0.4263
  247MOL0     C32533   5.796   2.161   5.095 -0.0328  1.0193 -0.4582
  247MOL0     C32534   5.699   2.176   5.222 -0.2959 -0.6561  0.3693
  247MOL0     C32535   5.566   2.218   5.169 -0.6363 -0.4682 -0.2130
  247MOL0     C32536   5.457   2.237   5.131 -0.1070 -0.0819  0.9077
  247MOL0     C32537   6.307   2.193   5.110 -0.3554  0.8296 -0.1386
  247MOL0     C32538   6.439   2.179   5.072  0.1723  0.3777 -0.1519
  247MOL0     H32539   6.693   1.854   4.939  0.5456  0.6651  0.5521
  247MOL0     H32540   6.877   1.706   4.870 -0.8143 -0.5771  1.5585
  247MOL0     H32541   7.202   1.733   5.057  1.6043 -0.9320  0.5129
  247MOL0     H32542   7.290   1.873   4.977 -2.1388  1.3281 -0.9081
  247MOL0     H32543   7.435   1.687   4.988 -0.0359 -1.5189  0.5398
  247MOL0     H32544   7.405   1.722   4.819  0.0535 -0.9040 -0.9789
  247MOL0     H32545   7.406   1.490   4.842  1.3526 -0.2213  3.0003
  247MOL0     H32546   7.233   1.520   4.828 -1.2875 -1.2051  1.9534
  247MOL0     H32547   7.394   1.480   5.071 -0.6741  1.0119 -0.6239
  247MOL0     H32548   7.227   1.535   5.088 -0.0880  0.0611 -1.4582
  247MOL0     H32549   7.139   1.333   4.993 -1.0693  0.2928  3.6195
  247MOL0     H32550   7.252   1.286   5.121 -1.3151  0.5578  0.7924
  247MOL0     H32551   7.418   1.225   4.959 -0.4747 -0.7589  1.4604
  247MOL0     H32552   7.305   1.258   4.826 -1.8779  1.2783  0.1292
  247MOL0     H32553   7.156   1.095   5.008  0.8710  1.0750  0.8653
  247MOL0     H32554   7.228   1.055   4.847 -1.6373 -0.5918  0.5565
  247MOL0     H32555   7.288   0.938   5.096 -1.1376  1.6473  2.0682
  247MOL0     H32556   7.403   1.065   5.100 -1.5345 -0.0460  0.8881
  247MOL0     H32557   7.331   0.744   4.915  0.8047  0.7454  2.6543
  247MOL0     H32558   7.465   0.615   4.690 -3.1485 -1.1197  2.3052
  247MOL0     H32559   7.509   0.547   4.835  1.7952  1.6943  2.0929
  247MOL0     H32560   7.755   0.573   4.805  1.3587 -0.2617 -1.6959
  247MOL0     H32561   7.728   0.691   4.687 -0.9353  1.9490  2.7452
  247MOL0     H32562   7.696   0.386   4.668 -2.5989 -0.5687 -1.0488
  247MOL0     H32563   7.604   0.486   4.554 -0.9725  0.2559  0.0150
  247MOL0     H32564   7.840   0.599   4.501  2.4659 -0.3289  0.7588
  247MOL0     H32565   7.797   0.436   4.439 -1.2032  0.4462 -1.2135
  247MOL0     H32566   7.880   0.229   4.503  0.2868 -2.7079  0.2862
  247MOL0     H32567   8.034   0.071   4.405 -0.2730  0.6976 -1.5195
  247MOL0     H32568   8.442  -0.095   4.206 -2.1337  2.0615 -1.8125
  247MOL0     H32569   8.641  -0.178   4.126  1.6391 -0.7601 -1.3327
  247MOL0     H32570   8.822  -0.151   3.922  3.3769  0.7897 -1.3665
  247MOL0     H32571   8.849  -0.251   4.058 -0.3504 -0.6136 -1.7528
  247MOL0     H32572   9.072  -0.089   3.919 -0.4239 -0.2034  1.1072
  247MOL0     H32573   9.045  -0.259   3.897  0.1609 -0.9442  0.4898
  247MOL0     H32574   9.087  -0.320   4.107  0.7356 -1.3732 -1.0004
  247MOL0     H32575   9.128  -0.147   4.159 -1.6391 -0.5149  0.4138
  247MOL0     H32576   9.338  -0.285   4.100  0.1472  1.1846  0.6778
  247MOL0     H32577   9.261  -0.286   3.928  0.4090  1.1531 -1.3279
  247MOL0     H32578   9.391  -0.074   4.105 -2.4859  2.7441  0.8832
  247MOL0     H32579   9.276  -0.013   3.986  1.7581  1.2856 -0.4655
  247MOL0     H32580   9.500  -0.004   3.898  0.2912  0.1217  0.1531
  247MOL0     H32581   9.398  -0.103   3.801 -0.3454  0.0609 -0.1330
  247MOL0     H32582   9.571  -0.230   4.028 -0.0483  0.3245 -0.8279
  247MOL0     H32583   9.515  -0.302   3.876  3.3304 -1.4576 -0.9435
  247MOL0     H32584   9.688  -0.169   3.754 -1.4518  1.7998  0.4736
  247MOL0     H32585   9.742  -0.285   3.879 -2.0767 -1.7602  1.9036
  247MOL0     H32586   8.863   0.176   4.206  1.0293 -1.3578 -0.0796
  247MOL0     H32587   8.667   0.263   4.320 -0.4521 -0.3270  1.0476
  247MOL0     H32588   8.357   0.359   4.450 -0.6839  0.6734 -0.8138
  247MOL0     H32589   8.193   0.508   4.568 -1.4436  0.8187 -1.7098
  247MOL0     H32590   7.144   2.041   4.944  0.5481 -0.6774 -0.4859
  247MOL0     H32591   6.948   2.190   4.997  1.0830  0.8836 -1.1833
  247MOL0     H32592   6.439   2.275   4.754  0.3381 -1.2305 -0.6858
  247MOL0     H32593   6.193   2.300   4.813 -1.6629 -0.0053  0.2073
  247MOL0     H32594   5.996   2.228   4.892 -2.3809 -1.9727  0.6846
  247MOL0     H32595   6.011   2.392   4.938 -0.8791 -1.7951 -3.6208
  247MOL0     H32596   5.847   2.370   5.124  1.0971  0.9725 -0.7213
  247MOL0     H32597   5.775   2.318   4.966 -0.0051 -2.0803 -2.0269
  247MOL0     H32598   5.889   2.105   5.112 -0.9300 -0.3654  0.0690
  247MOL0     H32599   5.752   2.106   5.011  3.2329 -0.6651 -1.2532
  247MOL0     H32600   5.687   2.078   5.268  0.1570 -0.4739  0.8971
  247MOL0     H32601   5.736   2.239   5.304 -0.3456  0.7937 -0.6867
  247MOL0     H32602   5.359   2.270   5.102 -0.1878  1.1661  2.5017
  247MOL0     H32603   6.268   2.160   5.206  1.2365 -4.8075 -1.1124
  247MOL0     H32604   6.497   2.127   5.148  0.0247  4.0540  2.7380
  248MOL0     O32605  10.593   6.237   2.301 -0.3368  0.4814 -0.9997
  248MOL0     C32606  10.598   6.137   2.374 -0.5713  0.1889 -0.0096
  248MOL0     O32607  10.499   6.061   2.418 -0.3027 -1.0269 -0.2862
  248MOL0     C32608  10.364   6.096   2.431  0.0650  0.3067  0.5737
  248MOL0     C32609  10.283   5.997   2.490  0.3933  0.4159 -0.0844
  248MOL0     C32610  10.147   6.014   2.504 -0.1454 -0.1288 -0.5981
  248MOL0     C32611  10.083   6.135   2.463 -0.3439  0.0702  0.1023
  248MOL0     O32612   9.951   6.132   2.492  0.1317  0.2491 -0.6830
  248MOL0     C32613   9.872   6.250   2.470 -0.0933 -0.2809  0.0554
  248MOL0     C32614   9.724   6.233   2.499 -0.0595 -1.0280  0.2349
  248MOL0     C32615   9.706   6.192   2.646  0.1386  0.4264 -0.2729
  248MOL0     C32616   9.554   6.195   2.695 -0.1820  1.1805  0.6405
  248MOL0     C32617   9.522   6.324   2.767 -0.6725 -0.7785 -0.1189
  248MOL0     C32618   9.372   6.341   2.782 -0.0356  0.2499 -0.5175
  248MOL0     C32619   9.350   6.447   2.899 -0.0528  0.6238  0.0987
  248MOL0     C32620   9.197   6.471   2.915  0.3010  0.6098  0.3922
  248MOL0     N32621   9.144   6.375   3.008  0.0015  0.8080  0.8384
  248MOL0     C32622   9.116   6.393   3.144 -0.1007  0.4262 -0.0567
  248MOL0     C32623   9.031   6.290   3.171  1.0097 -0.1897 -0.4593
  248MOL0     C32624   8.964   6.260   3.299 -0.2874 -0.2173  0.1295
  248MOL0     C32625   8.828   6.328   3.321 -0.0764  0.8617  0.1037
  248MOL0     C32626   8.850   6.481   3.328  0.5274  0.7347  0.5376
  248MOL0     C32627   8.713   6.552   3.311 -0.0149  0.2271 -0.1802
  248MOL0     O32628   8.611   6.523   3.411 -0.7096 -0.7322  0.2225
  248MOL0     C32629   8.490   6.580   3.405  0.4960 -0.3327  0.3164
  248MOL0     C32630   8.439   6.657   3.299 -0.5776 -0.3835  0.0944
  248MOL0     C32631   8.312   6.706   3.286  0.5415  0.0321 -0.2097
  248MOL0     C32632   8.223   6.696   3.392 -0.4563  0.9207  1.1168
  248MOL0     C32633   8.093   6.759   3.389 -0.0041 -0.9637  2.0069
  248MOL0     O32634   8.023   6.764   3.506 -0.6115  0.8687  0.1286
  248MOL0     C32635   7.902   6.828   3.513 -0.7434  0.0985  0.2748
  248MOL0     C32636   7.787   6.752   3.501  0.1230  0.1745  0.2945
  248MOL0     C32637   7.664   6.812   3.515  0.2525  0.1650  0.4957
  248MOL0     C32638   7.637   6.950   3.533  0.4707  0.6537  0.4190
  248MOL0     O32639   7.502   6.990   3.536  0.2356  0.0532  0.5904
  248MOL0     C32640   7.469   7.114   3.596  0.6653 -1.1754 -0.0605
  248MOL0     C32641   7.323   7.135   3.590  0.1476  0.9455 -0.2143
  248MOL0     C32642   7.283   7.284   3.621 -0.3791  0.5700 -0.4472
  248MOL0     C32643   7.141   7.314   3.650  0.0062 -0.4521  0.0518
  248MOL0     C32644   7.119   7.464   3.670  0.1510 -0.3638  0.1833
  248MOL0     C32645   7.009   7.499   3.776  0.0476 -0.5582  0.2325
  248MOL0     C32646   6.874   7.457   3.731 -0.3092 -0.2267 -0.1065
  248MOL0     C32647   6.794   7.426   3.858 -0.7545 -0.0656  0.2098
  248MOL0    Cl32648   6.867   7.265   3.908 -0.0350 -0.0609 -0.4158
  248MOL0     C32649   7.750   7.022   3.547 -0.0698 -0.5206  0.0916
  248MOL0     C32650   7.882   6.964   3.543  0.3545 -0.7998  0.6388
  248MOL0     O32651   8.053   6.803   3.282  0.2824 -0.5214 -0.0496
  248MOL0     C32652   8.268   6.615   3.502 -0.8642  0.1195 -0.4049
  248MOL0     C32653   8.396   6.557   3.504 -0.4146  0.5895  0.2016
  248MOL0     N32654   9.019   6.212   3.058  0.5709 -0.1764 -0.4590
  248MOL0     N32655   9.088   6.257   2.967 -0.0414  0.0661 -0.0176
  248MOL0     C32656  10.159   6.232   2.389 -0.3072  0.2591 -0.1562
  248MOL0     C32657  10.301   6.208   2.373  0.5540  0.5902  0.7076
  248MOL0     C32658  10.738   6.089   2.401  0.5992  0.5313  0.1228
  248MOL0     C32659  10.756   5.953   2.388  0.2542  0.3211  0.1997
  248MOL0     C32660  10.886   5.895   2.412 -0.1629 -1.0130 -0.2003
  248MOL0     C32661  10.996   5.979   2.424 -0.2255  0.4416 -0.6197
  248MOL0     O32662  11.118   5.922   2.435  0.5691  0.1934 -0.0666
  248MOL0     C32663  11.233   5.994   2.477 -0.6109 -0.6506  0.6851
  248MOL0     C32664  11.340   5.883   2.498 -0.2808 -0.3639 -0.6684
  248MOL0     C32665  11.487   5.928   2.509 -0.4585 -0.2928 -0.1410
  248MOL0     C32666  11.582   5.820   2.460 -0.5712  0.0526 -0.0390
  248MOL0     C32667  11.703   5.888   2.467 -0.2865 -0.2436 -0.4106
  248MOL0     C32668  11.813   5.934   2.443  0.7334 -0.0656  0.5959
  248MOL0     C32669  10.977   6.118   2.435 -0.2875  0.3469 -0.0280
  248MOL0     C32670  10.852   6.169   2.419 -0.0632 -0.1369  0.1105
  248MOL0     H32671  10.335   5.904   2.513  0.0407 -0.3262 -2.0905
  248MOL0     H32672  10.075   5.942   2.544 -0.6527  1.5344  1.6538
  248MOL0     H32673   9.883   6.287   2.368 -2.5796  1.0361  0.1738
  248MOL0     H32674   9.920   6.326   2.532  1.6311  0.3724 -1.9547
  248MOL0     H32675   9.677   6.158   2.434 -0.1552 -0.0393 -0.8615
  248MOL0     H32676   9.667   6.323   2.474  1.2983 -0.4395 -0.9264
  248MOL0     H32677   9.767   6.259   2.707  1.1152  2.2901 -3.0874
  248MOL0     H32678   9.752   6.093   2.659  0.0603  0.3536 -0.5371
  248MOL0     H32679   9.494   6.180   2.605  1.5270 -1.4553 -0.1766
  248MOL0     H32680   9.535   6.110   2.761  0.2542 -1.8003 -2.7358
  248MOL0     H32681   9.563   6.410   2.713 -1.4064 -0.8010 -0.7327
  248MOL0     H32682   9.564   6.312   2.867  1.1226  3.1510 -0.2368
  248MOL0     H32683   9.327   6.247   2.814 -1.8968  1.3250  0.1468
  248MOL0     H32684   9.318   6.358   2.688 -0.2279 -0.2012 -0.4885
  248MOL0     H32685   9.399   6.419   2.992  0.8009 -1.9589 -1.0252
  248MOL0     H32686   9.383   6.545   2.863  3.5533  0.2229  1.9211
  248MOL0     H32687   9.138   6.469   2.824  0.4705  0.7763  0.2776
  248MOL0     H32688   9.188   6.568   2.966 -0.9267  0.4916  0.4200
  248MOL0     H32689   9.152   6.467   3.215  2.5014  0.4070 -1.2424
  248MOL0     H32690   9.034   6.287   3.379 -0.4515  1.7492 -0.3278
  248MOL0     H32691   8.940   6.154   3.299  0.7129 -0.4564 -0.2342
  248MOL0     H32692   8.774   6.289   3.408  0.9850 -0.5232  0.1914
  248MOL0     H32693   8.768   6.295   3.236  1.6243 -3.0320  0.1925
  248MOL0     H32694   8.901   6.516   3.418  1.3589  0.9649 -0.0147
  248MOL0     H32695   8.906   6.500   3.236  1.2625  0.7665  0.9855
  248MOL0     H32696   8.680   6.515   3.213 -0.8084 -0.7756  0.4443
  248MOL0     H32697   8.727   6.660   3.322  1.6099 -0.1607  2.1145
  248MOL0     H32698   8.510   6.674   3.219 -1.4018 -1.2001 -0.8355
  248MOL0     H32699   8.289   6.766   3.198  0.9415  0.6856  0.1277
  248MOL0     H32700   7.801   6.647   3.475  0.4544  0.6442 -1.5130
  248MOL0     H32701   7.571   6.755   3.513  0.3423 -0.0819  2.0326
  248MOL0     H32702   7.512   7.200   3.543  0.0557  0.6694  2.2697
  248MOL0     H32703   7.510   7.122   3.697 -0.7964 -0.0019  0.4770
  248MOL0     H32704   7.266   7.086   3.669 -1.1888 -0.7977 -2.1258
  248MOL0     H32705   7.293   7.098   3.491  0.0846  1.7620 -0.5088
  248MOL0     H32706   7.312   7.339   3.532  2.6144  0.9432  0.6530
  248MOL0     H32707   7.347   7.323   3.701 -0.8542  1.7264 -0.6152
  248MOL0     H32708   7.075   7.269   3.576 -1.8366 -0.1880  1.4632
  248MOL0     H32709   7.123   7.256   3.741 -1.9247  1.7483  1.1514
  248MOL0     H32710   7.094   7.507   3.572 -1.4038  0.2109  0.7977
  248MOL0     H32711   7.213   7.514   3.695  0.5653 -1.4122  0.7518
  248MOL0     H32712   7.001   7.606   3.794 -0.9600 -0.8455  1.6504
  248MOL0     H32713   7.037   7.465   3.877  2.7451 -0.6318 -0.4649
  248MOL0     H32714   6.833   7.533   3.664 -2.1992  0.6202  1.8572
  248MOL0     H32715   6.878   7.369   3.666 -2.0396  0.7632 -1.6582
  248MOL0     H32716   6.687   7.415   3.843 -0.8589 -3.0537  2.3104
  248MOL0     H32717   6.800   7.504   3.934 -3.0152 -1.3730  1.8333
  248MOL0     H32718   7.733   7.128   3.558 -1.5680 -0.5227 -1.7332
  248MOL0     H32719   7.969   7.027   3.558  1.0251 -1.4640 -0.3381
  248MOL0     H32720   8.205   6.597   3.589  0.4476  0.2638  0.5946
  248MOL0     H32721   8.443   6.503   3.586  0.8663  2.8563  1.0290
  248MOL0     H32722  10.118   6.325   2.351 -1.8921 -0.6173 -0.6750
  248MOL0     H32723  10.353   6.286   2.318 -1.3656  1.6639  0.3182
  248MOL0     H32724  10.673   5.886   2.368  0.6480 -0.1443  0.1083
  248MOL0     H32725  10.900   5.787   2.415 -2.4725 -1.3605 -0.6171
  248MOL0     H32726  11.210   6.050   2.568  0.0441 -1.1207  1.1528
  248MOL0     H32727  11.265   6.063   2.398 -0.9224 -1.6913 -0.3769
  248MOL0     H32728  11.316   5.846   2.598  3.0432  0.0006  0.3872
  248MOL0     H32729  11.325   5.804   2.425  0.2028  0.2294 -1.4268
  248MOL0     H32730  11.512   5.949   2.614 -0.0965  0.0827 -0.3046
  248MOL0     H32731  11.494   6.024   2.459 -1.2881  0.4129  1.0442
  248MOL0     H32732  11.595   5.731   2.522  1.2165  1.8633  2.3910
  248MOL0     H32733  11.569   5.787   2.357  2.7922 -2.6759  0.2529
  248MOL0     H32734  11.909   5.979   2.428  0.7531  0.4329  2.0787
  248MOL0     H32735  11.056   6.185   2.467  0.9206 -0.2235 -1.6992
  248MOL0     H32736  10.837   6.276   2.417 -1.7080 -0.2657 -4.1569
  249MOL0     O32737   0.079  10.496   7.719  1.1713 -0.0584 -0.8493
  249MOL0     C32738   0.014  10.526   7.623 -0.2676 -0.1887  0.1439
  249MOL0     O32739   0.056  10.614   7.527 -0.3940  0.0101 -0.6699
  249MOL0     C32740   0.166  10.688   7.563  0.1717  0.1622  0.3141
  249MOL0     C32741   0.292  10.659   7.506  0.5969 -0.3779 -0.4024
  249MOL0     C32742   0.411  10.727   7.536  0.7584 -1.0236  0.0576
  249MOL0     C32743   0.411  10.830   7.636  0.1626 -0.0724 -0.0962
  249MOL0     O32744   0.526  10.900   7.676  0.0871  0.5072  0.0754
  249MOL0     C32745   0.583  10.853   7.798 -0.2177  0.1853  0.5050
  249MOL0     C32746   0.710  10.924   7.834  0.2386  0.0283 -0.2638
  249MOL0     C32747   0.817  10.906   7.728  0.1501 -0.0928 -0.1405
  249MOL0     C32748   0.948  10.967   7.771 -0.3962  0.2407  0.4563
  249MOL0     C32749   1.051  10.930   7.664 -0.1762  0.3231  0.1406
  249MOL0     C32750   1.193  10.946   7.707  0.2063  0.3917 -0.0045
  249MOL0     C32751   1.305  10.901   7.613  0.9262 -0.1117 -0.5398
  249MOL0     C32752   1.440  10.923   7.669 -0.3656 -0.2069 -0.5401
  249MOL0     N32753   1.555  10.881   7.582 -0.2114  0.1376 -0.0020
  249MOL0     C32754   1.656  10.805   7.627 -0.5591  0.3213 -1.0577
  249MOL0     C32755   1.772  10.858   7.578  0.5764 -0.4443  0.2679
  249MOL0     C32756   1.913  10.805   7.595 -0.6767 -0.4134  0.6365
  249MOL0     C32757   1.923  10.656   7.552  0.0478  0.7182 -0.5942
  249MOL0     C32758   1.929  10.634   7.399  0.4925  0.5737 -0.4415
  249MOL0     C32759   1.782  10.639   7.349  0.0914 -0.1515  0.1130
  249MOL0     O32760   1.696  10.547   7.430  0.1886 -0.1711 -0.4246
  249MOL0     C32761   1.562  10.561   7.415  0.2874 -0.2844  0.1628
  249MOL0     C32762   1.487  10.493   7.502  0.6131  0.0905 -0.4974
  249MOL0     C32763   1.341  10.487   7.497  0.2416 -0.2223 -0.6115
  249MOL0     C32764   1.275  10.575   7.410  0.5652  0.0975 -0.0204
  249MOL0     C32765   1.129  10.594   7.406  0.3195 -0.1149 -0.1654
  249MOL0     O32766   1.059  10.508   7.483 -0.4643 -0.2533 -0.0339
  249MOL0     C32767   0.925  10.505   7.471 -0.3225 -0.0258  0.0174
  249MOL0     C32768   0.851  10.520   7.357  0.5201  0.8654  0.7444
  249MOL0     C32769   0.709  10.495   7.358  0.2313 -0.6822  0.4890
  249MOL0     C32770   0.648  10.458   7.478 -0.3535 -0.4573  0.4706
  249MOL0     O32771   0.513  10.444   7.482  0.3455 -0.4196  0.5786
  249MOL0     C32772   0.443  10.375   7.585  0.4414  0.4133  0.7416
  249MOL0     C32773   0.324  10.294   7.542  0.0476  0.6758  0.7495
  249MOL0     C32774   0.269  10.225   7.677  0.0623 -0.3028  0.1448
  249MOL0     C32775   0.166  10.114   7.649 -0.3051 -0.4564 -0.2380
  249MOL0     C32776   0.033  10.166   7.584  0.3611 -0.3125 -0.1347
  249MOL0     C32777  -0.056  10.046   7.571  0.3801  0.3665  0.5633
  249MOL0     C32778  -0.203  10.096   7.546  0.7116 -0.1312  0.6604
  249MOL0     C32779  -0.285   9.980   7.498 -0.1295  0.7996 -0.1018
  249MOL0    Cl32780  -0.312   9.858   7.630  0.0964 -0.4945  0.3640
  249MOL0     C32781   0.730  10.440   7.587  0.6017 -0.3995 -0.2456
  249MOL0     C32782   0.863  10.463   7.588  0.7561  0.1739 -0.3466
  249MOL0     O32783   1.083  10.686   7.334  0.4832  0.2501  0.0713
  249MOL0     C32784   1.350  10.638   7.321 -0.4305  0.1067  0.4567
  249MOL0     C32785   1.490  10.637   7.326  0.4656  0.9758  0.5663
  249MOL0     N32786   1.738  10.958   7.490 -0.0907  0.7459 -0.6144
  249MOL0     N32787   1.607  10.962   7.486 -0.7658  0.3395 -0.7847
  249MOL0     C32788   0.281  10.871   7.686  1.0288 -0.7600 -1.1612
  249MOL0     C32789   0.160  10.802   7.653  0.0020  0.0460  0.3037
  249MOL0     C32790  -0.124  10.489   7.624  0.0970 -0.0546 -0.0050
  249MOL0     C32791  -0.205  10.481   7.510  0.0782  0.8222 -0.7629
  249MOL0     C32792  -0.337  10.441   7.508 -0.3829  0.4589  0.4776
  249MOL0     C32793  -0.394  10.418   7.626 -0.1443  0.1089 -0.8091
  249MOL0     O32794  -0.530  10.385   7.626  0.0922 -0.2299 -0.5990
  249MOL0     C32795  -0.607  10.364   7.748 -0.0467 -0.1554  0.9365
  249MOL0     C32796  -0.616  10.212   7.768 -0.0611 -0.2540 -0.3353
  249MOL0     C32797  -0.665  10.170   7.905 -0.3437  0.1053  0.0418
  249MOL0     C32798  -0.585  10.234   8.026  0.1570  0.4281 -0.1188
  249MOL0     C32799  -0.567  10.147   8.143 -0.0885  0.0508 -0.2806
  249MOL0     C32800  -0.573  10.076   8.239  0.6723  0.4123  0.4443
  249MOL0     C32801  -0.317  10.409   7.745 -0.1653  0.3477  0.2518
  249MOL0     C32802  -0.181  10.448   7.748 -0.4739  0.8957 -0.7496
  249MOL0     H32803   0.292  10.570   7.444 -0.7845 -1.2758  0.8180
  249MOL0     H32804   0.508  10.703   7.492  0.7041 -0.1757 -0.5657
  249MOL0     H32805   0.602  10.746   7.787  0.0579  0.3091 -0.2929
  249MOL0     H32806   0.501  10.881   7.865 -1.4053  0.4694 -1.0096
  249MOL0     H32807   0.733  10.867   7.925 -0.6695 -1.0778 -0.7093
  249MOL0     H32808   0.704  11.033   7.843  0.5768 -0.0877  1.9452
  249MOL0     H32809   0.792  10.964   7.638  0.5185 -0.2460 -0.3460
  249MOL0     H32810   0.821  10.799   7.707  1.2561 -0.2094  0.5451
  249MOL0     H32811   0.940  11.074   7.793 -1.5027  0.1834  0.3443
  249MOL0     H32812   0.974  10.914   7.863 -0.8292 -2.1079 -0.7002
  249MOL0     H32813   1.031  10.999   7.581 -1.4557 -0.4875 -0.2451
  249MOL0     H32814   1.024  10.832   7.625 -1.5979  0.1878  1.3828
  249MOL0     H32815   1.212  10.912   7.809  0.6353  3.1328  0.9280
  249MOL0     H32816   1.221  11.052   7.714 -1.0030  0.6833  0.6999
  249MOL0     H32817   1.299  10.796   7.584 -0.9100 -0.8687  2.1840
  249MOL0     H32818   1.284  10.949   7.517 -1.1443 -0.1326 -0.1443
  249MOL0     H32819   1.460  10.865   7.760  2.9379 -0.3273 -1.2233
  249MOL0     H32820   1.442  11.030   7.692 -0.0620  0.0588 -1.7260
  249MOL0     H32821   1.661  10.725   7.700  0.9309 -0.4639 -1.9734
  249MOL0     H32822   1.939  10.809   7.701  1.1651  0.6342  0.1777
  249MOL0     H32823   1.985  10.865   7.539  2.2704  0.1048  4.5235
  249MOL0     H32824   1.838  10.608   7.602 -1.4235  4.0996  0.4755
  249MOL0     H32825   2.012  10.611   7.597 -0.2093 -0.7350 -1.4838
  249MOL0     H32826   1.977  10.717   7.346 -0.0541  1.4322  0.3790
  249MOL0     H32827   1.973  10.534   7.389  1.5023  0.6239  2.4785
  249MOL0     H32828   1.775  10.614   7.243 -4.0219  3.7069 -0.8482
  249MOL0     H32829   1.747  10.743   7.352  1.3585  0.2851  0.2545
  249MOL0     H32830   1.537  10.442   7.584  0.9798 -1.0691 -1.4267
  249MOL0     H32831   1.295  10.428   7.576  2.7143 -0.6315  0.6155
  249MOL0     H32832   0.889  10.554   7.261  0.5887 -0.4418  0.2900
  249MOL0     H32833   0.652  10.513   7.266  1.9448  1.2977 -0.2766
  249MOL0     H32834   0.420  10.440   7.670 -0.8196 -0.0748  0.8007
  249MOL0     H32835   0.508  10.297   7.626  0.0371 -0.0157  0.5760
  249MOL0     H32836   0.348  10.216   7.469  0.3698 -1.1024  2.6505
  249MOL0     H32837   0.250  10.359   7.495 -0.7341 -1.0491 -0.5126
  249MOL0     H32838   0.226  10.303   7.741  0.5024 -0.0881  0.1821
  249MOL0     H32839   0.350  10.184   7.738  0.0500 -0.5764 -0.0223
  249MOL0     H32840   0.218  10.041   7.586  0.5314 -0.7619  0.7612
  249MOL0     H32841   0.153  10.059   7.743  0.7089  3.1629  2.2491
  249MOL0     H32842   0.067  10.209   7.490  1.1379  0.1137  0.3372
  249MOL0     H32843  -0.013  10.240   7.650 -0.0575 -1.1726  0.5746
  249MOL0     H32844  -0.056   9.979   7.658  0.9643 -0.5864 -0.1505
  249MOL0     H32845  -0.021   9.986   7.486 -1.0754  1.2577 -0.7039
  249MOL0     H32846  -0.240  10.134   7.642  0.8653  0.0760  0.6383
  249MOL0     H32847  -0.199  10.176   7.472  0.2259 -2.6862 -2.2834
  249MOL0     H32848  -0.256   9.936   7.402 -1.7550  1.3228 -0.8674
  249MOL0     H32849  -0.373  10.041   7.475  0.5919  1.6845 -0.5737
  249MOL0     H32850   0.692  10.398   7.680 -2.1780 -1.8763 -1.9000
  249MOL0     H32851   0.916  10.451   7.682  0.0427 -1.3048 -0.0988
  249MOL0     H32852   1.304  10.708   7.252 -0.5032  0.3673  0.7710
  249MOL0     H32853   1.531  10.712   7.259  0.8714  1.6784  1.5760
  249MOL0     H32854   0.262  10.961   7.743  1.5918 -0.8000 -0.9000
  249MOL0     H32855   0.059  10.830   7.683  0.3783  1.1321  0.6041
  249MOL0     H32856  -0.171  10.506   7.411 -1.7947 -0.5028 -1.8079
  249MOL0     H32857  -0.397  10.439   7.417  0.8298  0.6283 -0.3542
  249MOL0     H32858  -0.706  10.412   7.745 -0.1095 -0.1802  2.1065
  249MOL0     H32859  -0.552  10.417   7.826 -0.0440  0.6176  0.4292
  249MOL0     H32860  -0.685  10.176   7.691  0.1447  2.0424 -1.6972
  249MOL0     H32861  -0.519  10.166   7.748 -0.0518 -0.2531 -0.2890
  249MOL0     H32862  -0.669  10.060   7.907  0.8942  0.0436  1.6467
  249MOL0     H32863  -0.771  10.194   7.914 -0.2198  2.1591 -2.7988
  249MOL0     H32864  -0.488  10.255   7.981  0.2603 -0.5293 -0.3525
  249MOL0     H32865  -0.628  10.330   8.056 -0.5104  0.1171 -0.0600
  249MOL0     H32866  -0.579   9.998   8.312 -1.4073 -0.9107 -1.0007
  249MOL0     H32867  -0.362  10.380   7.839  0.4396  0.3856  0.5546
  249MOL0     H32868  -0.133  10.433   7.844 -2.2762 -0.8479 -0.0436
  250MOL0     O32869   1.495  11.156  11.182  0.3376 -0.2395  0.2007
  250MOL0     C32870   1.545  11.082  11.266  0.3211 -0.5446  0.1708
  250MOL0     O32871   1.496  10.967  11.306 -0.5657  0.4692 -0.2344
  250MOL0     C32872   1.373  10.908  11.260  0.0206  0.3463  0.5604
  250MOL0     C32873   1.256  10.986  11.224 -0.2643  0.4660 -0.4156
  250MOL0     C32874   1.134  10.921  11.187  0.2322  0.3095  0.5326
  250MOL0     C32875   1.125  10.781  11.192 -0.1027 -0.1565 -0.4913
  250MOL0     O32876   1.003  10.709  11.179 -0.0866  0.1875 -0.1459
  250MOL0     C32877   0.883  10.784  11.167 -0.1612 -0.3501  0.4133
  250MOL0     C32878   0.769  10.693  11.173 -0.1489  0.2472  0.3352
  250MOL0     C32879   0.716  10.669  11.314 -0.4121 -0.2768 -0.2456
  250MOL0     C32880   0.627  10.776  11.368  0.0329 -0.5340  1.2447
  250MOL0     C32881   0.579  10.728  11.500 -0.3035  0.3772  0.2125
  250MOL0     C32882   0.484  10.837  11.558 -0.8999  0.1775  0.0257
  250MOL0     C32883   0.434  10.799  11.698  0.1606 -0.4022  0.1537
  250MOL0     C32884   0.350  10.912  11.754 -0.4040 -0.4077  0.4440
  250MOL0     N32885   0.323  10.900  11.900  0.0688  0.2601  0.4121
  250MOL0     C32886   0.413  10.915  11.996  0.6947  0.5874 -0.5443
  250MOL0     C32887   0.343  10.925  12.115  0.5732  0.1734  0.2479
  250MOL0     C32888   0.405  10.956  12.247  0.4268  0.0819 -0.9912
  250MOL0     C32889   0.299  11.026  12.338  0.0891  0.3283  0.7472
  250MOL0     C32890   0.380  11.095  12.452  0.4722  0.1062  0.7814
  250MOL0     C32891   0.295  11.212  12.506 -0.5972 -0.5627 -0.4475
  250MOL0     O32892   0.169  11.162  12.540 -0.0107 -0.4712  0.5145
  250MOL0     C32893   0.079  11.253  12.574  0.5532  0.2688  0.1896
  250MOL0     C32894   0.079  11.394  12.569 -0.3362 -0.1035 -0.1347
  250MOL0     C32895  -0.025  11.472  12.615 -0.2905  0.6264 -0.4253
  250MOL0     C32896  -0.145  11.411  12.668  0.0068  1.1136  0.2779
  250MOL0     C32897  -0.259  11.494  12.711  0.6220 -0.1296  0.2147
  250MOL0     O32898  -0.370  11.435  12.782  0.2634 -0.5353  0.5908
  250MOL0     C32899  -0.478  11.508  12.795  0.1274 -0.3105 -0.0705
  250MOL0     C32900  -0.561  11.542  12.692  0.4713 -0.1502  0.2883
  250MOL0     C32901  -0.668  11.632  12.725 -0.9125  0.3337  1.1811
  250MOL0     C32902  -0.700  11.676  12.848  0.2624  0.2186 -0.6068
  250MOL0     O32903  -0.812  11.753  12.860  0.1578 -1.1557 -0.0832
  250MOL0     C32904  -0.854  11.823  12.981 -0.5729  0.7206  0.2839
  250MOL0     C32905  -0.766  11.929  13.032  0.0195 -0.3533  0.3281
  250MOL0     C32906  -0.763  12.046  12.928 -0.0124 -0.4562 -0.4786
  250MOL0     C32907  -0.641  12.139  12.948  0.8683 -0.3690 -0.4902
  250MOL0     C32908  -0.649  12.255  12.850 -0.2859 -0.1586  0.4727
  250MOL0     C32909  -0.548  12.365  12.887 -0.0661 -0.3946  0.0688
  250MOL0     C32910  -0.571  12.491  12.808  0.0725  0.3482 -0.4632
  250MOL0     C32911  -0.498  12.614  12.870  0.3211  0.3786  1.0933
  250MOL0    Cl32912  -0.327  12.592  12.832  0.0608 -0.0988 -0.2040
  250MOL0     C32913  -0.618  11.627  12.955  0.6045 -0.4396 -0.2729
  250MOL0     C32914  -0.509  11.545  12.931  0.9310  0.6722 -0.3397
  250MOL0     O32915  -0.245  11.616  12.690  0.2669  1.0712  0.2017
  250MOL0     C32916  -0.145  11.264  12.677  0.1226  1.1560 -0.1191
  250MOL0     C32917  -0.041  11.192  12.622  0.9932 -0.5357  0.1649
  250MOL0     N32918   0.209  10.901  12.084  0.1835  0.1463 -0.4499
  250MOL0     N32919   0.197  10.889  11.959 -0.3869  0.5428 -0.7021
  250MOL0     C32920   1.233  10.707  11.233 -0.6435  0.3573  0.4407
  250MOL0     C32921   1.352  10.763  11.271  0.1834 -0.1370 -0.0045
  250MOL0     C32922   1.688  11.111  11.296 -0.4070 -0.5970 -0.3417
  250MOL0     C32923   1.732  11.246  11.301 -0.3158 -0.6785  0.0891
  250MOL0     C32924   1.868  11.285  11.336 -1.5375  0.8647 -0.7143
  250MOL0     C32925   1.960  11.174  11.367  0.3591 -0.5158  0.5058
  250MOL0     O32926   2.094  11.185  11.394 -0.1512 -0.6156  0.5994
  250MOL0     C32927   2.154  11.320  11.395  0.0848 -0.0199  0.4709
  250MOL0     C32928   2.136  11.390  11.524  0.1872 -0.1376 -1.0655
  250MOL0     C32929   2.240  11.498  11.550 -0.2481  1.2190  0.6954
  250MOL0     C32930   2.211  11.578  11.676 -0.5930  0.3094 -0.1146
  250MOL0     C32931   2.296  11.697  11.680  0.1528  0.1946  0.4821
  250MOL0     C32932   2.383  11.784  11.688  0.6776 -0.6245  0.0126
  250MOL0     C32933   1.906  11.042  11.374  0.3721  0.5747  0.2428
  250MOL0     C32934   1.778  11.013  11.337  0.1723 -0.1960  0.7596
  250MOL0     H32935   1.273  11.091  11.203  1.6227  0.1868 -0.4427
  250MOL0     H32936   1.051  10.981  11.152 -0.2851 -0.3098  0.6669
  250MOL0     H32937   0.880  10.824  11.065 -3.6084 -1.9913 -0.2456
  250MOL0     H32938   0.873  10.864  11.241 -1.2081  0.8059 -0.9120
  250MOL0     H32939   0.807  10.598  11.134 -0.1430 -0.6297  2.3639
  250MOL0     H32940   0.690  10.732  11.108  1.4087  0.9774 -1.2089
  250MOL0     H32941   0.804  10.650  11.376 -1.6299 -0.4381  1.4925
  250MOL0     H32942   0.648  10.583  11.309  2.2129 -2.3970 -2.5011
  250MOL0     H32943   0.680  10.868  11.391  0.5092 -1.0205  2.1798
  250MOL0     H32944   0.546  10.791  11.296  1.7175  0.7090 -0.4757
  250MOL0     H32945   0.669  10.716  11.561 -0.2810 -2.6575 -0.2562
  250MOL0     H32946   0.523  10.635  11.492 -0.7656  0.7370 -0.9658
  250MOL0     H32947   0.401  10.843  11.488 -1.4336 -0.1905  0.6146
  250MOL0     H32948   0.539  10.932  11.563 -2.4942  1.2293 -1.3111
  250MOL0     H32949   0.365  10.715  11.686 -1.4362  1.0246 -1.0862
  250MOL0     H32950   0.517  10.767  11.761 -1.0962 -4.3927  0.0537
  250MOL0     H32951   0.260  10.922  11.693 -0.8943  5.4081  1.5164
  250MOL0     H32952   0.412  11.001  11.744 -0.1016 -0.3023  2.6239
  250MOL0     H32953   0.520  10.924  11.982  0.6043  2.7873 -0.1911
  250MOL0     H32954   0.484  11.027  12.222  0.3002  0.2802 -0.8331
  250MOL0     H32955   0.451  10.870  12.296 -1.0936  0.3175  0.9457
  250MOL0     H32956   0.226  10.954  12.374  0.9412 -0.6741  0.5137
  250MOL0     H32957   0.238  11.103  12.289  0.8644 -0.8487 -2.3247
  250MOL0     H32958   0.407  11.022  12.529  0.6269 -1.5076 -0.7414
  250MOL0     H32959   0.472  11.140  12.415  1.3693 -1.7504  0.6410
  250MOL0     H32960   0.292  11.284  12.424 -1.8502  0.3747  0.3828
  250MOL0     H32961   0.348  11.258  12.590 -0.5703 -0.1395 -0.6955
  250MOL0     H32962   0.168  11.435  12.523 -1.3748  1.0139 -1.2046
  250MOL0     H32963  -0.011  11.576  12.586  0.8623 -0.2041 -3.2534
  250MOL0     H32964  -0.531  11.509  12.593 -2.6212 -0.9223 -0.4828
  250MOL0     H32965  -0.738  11.666  12.649 -0.4743 -0.9136  0.1960
  250MOL0     H32966  -0.860  11.755  13.067  0.1861  0.9802  0.5584
  250MOL0     H32967  -0.951  11.865  12.956 -2.2640 -1.1381  3.1915
  250MOL0     H32968  -0.669  11.880  13.038  0.0802 -0.5313 -1.4008
  250MOL0     H32969  -0.801  11.964  13.129  0.3688 -3.1617  1.5363
  250MOL0     H32970  -0.858  12.100  12.927  0.1503 -0.1715 -0.6401
  250MOL0     H32971  -0.755  11.999  12.830 -1.3607 -1.4730 -0.1269
  250MOL0     H32972  -0.641  12.167  13.054  1.0912 -0.7185 -0.3960
  250MOL0     H32973  -0.549  12.085  12.923  0.8074 -0.7924  0.1719
  250MOL0     H32974  -0.748  12.299  12.864 -0.0597  0.2045  0.9569
  250MOL0     H32975  -0.634  12.212  12.751 -1.9931 -0.5273  0.3444
  250MOL0     H32976  -0.446  12.338  12.858  0.2070 -0.6679  1.2417
  250MOL0     H32977  -0.562  12.391  12.992 -0.6080  1.7377 -0.4713
  250MOL0     H32978  -0.546  12.471  12.703 -1.7476  1.4585 -1.1505
  250MOL0     H32979  -0.675  12.524  12.812 -0.1813 -0.5305  0.3953
  250MOL0     H32980  -0.501  12.625  12.979  0.1782  4.6765  0.7929
  250MOL0     H32981  -0.529  12.710  12.828  2.1423 -0.1512 -1.7312
  250MOL0     H32982  -0.637  11.644  13.060  0.0136 -2.8739  0.0783
  250MOL0     H32983  -0.443  11.518  13.013 -0.0933 -1.4108 -0.1187
  250MOL0     H32984  -0.228  11.212  12.724  1.7578 -1.2804  0.2392
  250MOL0     H32985  -0.053  11.085  12.615 -0.7620 -0.4590  1.4887
  250MOL0     H32986   1.223  10.600  11.244  1.8906  0.0215 -0.0156
  250MOL0     H32987   1.430  10.694  11.301  0.2249 -0.3765 -0.6449
  250MOL0     H32988   1.661  11.327  11.287 -0.2140 -0.7364 -0.8590
  250MOL0     H32989   1.893  11.390  11.337  0.1128  0.5354 -2.3213
  250MOL0     H32990   2.130  11.393  11.317  0.6477 -0.2865  0.0427
  250MOL0     H32991   2.261  11.304  11.381 -0.5025 -1.4609 -3.3709
  250MOL0     H32992   2.034  11.428  11.539 -0.2202 -2.1643  2.3121
  250MOL0     H32993   2.149  11.313  11.601 -2.1448  2.1364  1.8930
  250MOL0     H32994   2.259  11.558  11.461 -0.6828  1.7759  0.9721
  250MOL0     H32995   2.338  11.449  11.552  0.8567  3.1629 -1.2152
  250MOL0     H32996   2.106  11.605  11.687 -1.3151 -2.6069  1.0617
  250MOL0     H32997   2.224  11.510  11.761 -0.3197  0.1929 -0.2474
  250MOL0     H32998   2.465  11.853  11.697 -1.4760  2.1153  0.1412
  250MOL0     H32999   1.980  10.966  11.397  1.6276  1.4992 -0.5939
  250MOL0     H33000   1.734  10.914  11.329  0.4171 -0.2019 -1.0014
  251MOL0     O33001   8.040   3.223   9.429  0.4621 -0.0243 -0.3519
  251MOL0     C33002   7.920   3.260   9.409  0.0197 -0.3815 -0.3630
  251MOL0     O33003   7.878   3.339   9.296 -0.4689  0.1466 -0.5716
  251MOL0     C33004   7.962   3.377   9.192 -0.0731  0.0245 -0.1816
  251MOL0     C33005   7.915   3.385   9.061  0.1103 -0.3121  0.0218
  251MOL0     C33006   7.992   3.421   8.950  0.0111 -0.4161 -0.1391
  251MOL0     C33007   8.131   3.449   8.975 -0.1251 -0.4530  1.7634
  251MOL0     O33008   8.210   3.511   8.880  0.4244 -0.7245  0.1064
  251MOL0     C33009   8.208   3.463   8.747  0.1744 -0.5841 -0.6573
  251MOL0     C33010   8.284   3.557   8.657 -1.2534  0.8286  0.4180
  251MOL0     C33011   8.439   3.525   8.664  0.3525 -0.4729 -0.4124
  251MOL0     C33012   8.500   3.614   8.564  0.8659 -0.6937 -0.0230
  251MOL0     C33013   8.651   3.605   8.557 -0.8667  0.0485 -0.5282
  251MOL0     C33014   8.721   3.633   8.693 -0.5784  0.3961  0.3002
  251MOL0     C33015   8.867   3.671   8.656  0.6158  0.5158  0.5213
  251MOL0     C33016   8.950   3.561   8.598 -0.3456  0.2889 -0.5520
  251MOL0     N33017   8.957   3.442   8.687 -0.2906  0.0897 -0.2957
  251MOL0     C33018   8.908   3.316   8.658 -0.3671 -0.7560 -0.5280
  251MOL0     C33019   8.974   3.235   8.744 -0.1284  0.2615 -0.4266
  251MOL0     C33020   8.969   3.090   8.759 -0.2117  0.6600  0.9349
  251MOL0     C33021   8.861   3.051   8.860 -0.9835  0.7183 -0.8835
  251MOL0     C33022   8.851   2.898   8.890  0.6203  0.2145  0.0159
  251MOL0     C33023   8.829   2.805   8.765 -0.5193 -0.8219 -0.6480
  251MOL0     O33024   8.737   2.881   8.687 -0.8426  0.2592  1.3176
  251MOL0     C33025   8.604   2.869   8.704  0.7161 -0.0067  0.3319
  251MOL0     C33026   8.540   2.768   8.785 -1.0469 -0.5058 -0.7058
  251MOL0     C33027   8.407   2.753   8.778 -0.2219  0.2922 -0.5901
  251MOL0     C33028   8.316   2.831   8.711  0.3871  0.8514 -0.5599
  251MOL0     C33029   8.170   2.802   8.711 -0.7495  0.2068  0.4540
  251MOL0     O33030   8.125   2.680   8.754 -0.9432 -0.3222 -0.0423
  251MOL0     C33031   7.990   2.670   8.752  0.1356 -0.4717  0.3238
  251MOL0     C33032   7.910   2.710   8.855 -0.5057 -0.0993  0.1163
  251MOL0     C33033   7.772   2.676   8.855  0.0826 -0.1825  0.1116
  251MOL0     C33034   7.708   2.614   8.740 -0.9420 -0.2186  0.1597
  251MOL0     O33035   7.573   2.590   8.724 -0.6257  0.4317 -0.7058
  251MOL0     C33036   7.489   2.650   8.824  0.1959 -0.5932  0.1232
  251MOL0     C33037   7.480   2.553   8.939  0.8238  0.3865 -0.0826
  251MOL0     C33038   7.379   2.592   9.052 -0.7026  0.3500  0.3824
  251MOL0     C33039   7.234   2.596   9.005 -0.0344 -0.6129 -0.0202
  251MOL0     C33040   7.130   2.624   9.122 -0.0218  0.7484 -0.5916
  251MOL0     C33041   7.022   2.719   9.080  0.1563  0.5535  0.3617
  251MOL0     C33042   6.912   2.656   8.999  0.7746 -0.2120 -0.3742
  251MOL0     C33043   6.830   2.540   9.058 -0.3885 -0.6557 -0.6652
  251MOL0    Cl33044   6.764   2.584   9.218 -0.3432  0.0484 -0.3041
  251MOL0     C33045   7.797   2.590   8.628 -0.6750  0.0988 -0.2944
  251MOL0     C33046   7.937   2.611   8.633 -0.4015  0.1618  0.2669
  251MOL0     O33047   8.104   2.901   8.687  1.0070 -0.2704 -0.7674
  251MOL0     C33048   8.369   2.935   8.641 -0.4333 -0.1595  0.7340
  251MOL0     C33049   8.511   2.950   8.631 -0.3167  0.3197  0.2972
  251MOL0     N33050   9.061   3.311   8.817  0.5690 -0.0392 -0.1697
  251MOL0     N33051   9.051   3.432   8.786 -0.5219 -0.6524 -0.0239
  251MOL0     C33052   8.180   3.435   9.100 -0.5551  0.4519  0.1186
  251MOL0     C33053   8.101   3.396   9.213 -0.3624 -0.3701 -0.5478
  251MOL0     C33054   7.813   3.245   9.515  0.4245  0.8277  0.5310
  251MOL0     C33055   7.674   3.271   9.484  0.1624 -0.1600  0.2328
  251MOL0     C33056   7.578   3.270   9.588 -0.2437  0.3306 -0.1478
  251MOL0     C33057   7.609   3.222   9.715  0.4571 -0.1583  0.8541
  251MOL0     O33058   7.513   3.214   9.813  0.3603  0.1017  0.2520
  251MOL0     C33059   7.377   3.207   9.778  0.5753  0.5111  0.3964
  251MOL0     C33060   7.293   3.164   9.904 -0.6710 -0.8089 -0.8042
  251MOL0     C33061   7.284   3.277  10.007 -0.3892 -0.1827 -0.3169
  251MOL0     C33062   7.214   3.224  10.130 -0.3000 -0.4110 -0.1359
  251MOL0     C33063   7.191   3.327  10.239  0.8887  0.6574  0.5074
  251MOL0     C33064   7.185   3.402  10.329 -0.1200 -1.0013 -0.1292
  251MOL0     C33065   7.742   3.193   9.745 -0.1374 -0.5038 -0.3135
  251MOL0     C33066   7.840   3.203   9.647  0.3617  0.3132  0.1152
  251MOL0     H33067   7.814   3.363   9.029 -0.2481 -0.7768  1.4079
  251MOL0     H33068   7.951   3.427   8.850  0.5414  0.0131 -0.3365
  251MOL0     H33069   8.107   3.470   8.706  1.0144  0.1954 -2.7431
  251MOL0     H33070   8.248   3.363   8.732  0.3471 -0.2797 -2.4084
  251MOL0     H33071   8.264   3.664   8.669 -1.1199  1.1051 -1.5074
  251MOL0     H33072   8.249   3.535   8.556 -0.8345 -0.4301  0.5196
  251MOL0     H33073   8.449   3.422   8.630 -1.9098 -1.6225  2.0188
  251MOL0     H33074   8.477   3.540   8.765 -0.3947  1.2055 -0.3325
  251MOL0     H33075   8.457   3.578   8.470  2.9045  0.5475 -1.5074
  251MOL0     H33076   8.474   3.717   8.586 -1.5550 -1.1300 -0.5844
  251MOL0     H33077   8.667   3.677   8.476  0.0753  0.4848  0.0225
  251MOL0     H33078   8.679   3.505   8.521 -0.0934  0.4618 -1.1079
  251MOL0     H33079   8.723   3.546   8.758 -0.0540  0.6201  0.5890
  251MOL0     H33080   8.672   3.716   8.744  0.0258  1.2640 -0.4918
  251MOL0     H33081   8.864   3.751   8.582 -1.1962 -0.9452 -1.0997
  251MOL0     H33082   8.911   3.694   8.753  3.9688  0.7918 -0.9339
  251MOL0     H33083   9.057   3.585   8.597 -0.5723  1.9957  2.6360
  251MOL0     H33084   8.916   3.533   8.498 -0.7764 -1.6252  0.0889
  251MOL0     H33085   8.837   3.286   8.582 -2.1238 -1.4050  1.2730
  251MOL0     H33086   9.065   3.042   8.782 -2.1046 -2.9180  2.2241
  251MOL0     H33087   8.952   3.046   8.661  2.4519  0.4112  0.5024
  251MOL0     H33088   8.760   3.081   8.828 -2.2456 -2.9513 -0.8619
  251MOL0     H33089   8.889   3.093   8.957  2.5913  0.4101 -1.6572
  251MOL0     H33090   8.948   2.871   8.932  0.4413 -0.4033  0.0508
  251MOL0     H33091   8.775   2.874   8.965 -0.5900 -0.2563 -1.3162
  251MOL0     H33092   8.789   2.704   8.775  2.2443 -2.0065 -0.5810
  251MOL0     H33093   8.923   2.799   8.708  1.5103 -0.4802  2.3937
  251MOL0     H33094   8.599   2.701   8.847  0.4474 -1.5984 -3.1136
  251MOL0     H33095   8.356   2.675   8.834  0.9711  0.7129  1.1648
  251MOL0     H33096   7.973   2.750   8.934 -0.3562  0.9034 -0.4964
  251MOL0     H33097   7.721   2.712   8.944  1.6880  1.6256  0.3583
  251MOL0     H33098   7.390   2.660   8.776 -0.0501 -2.6467  0.1414
  251MOL0     H33099   7.517   2.751   8.857 -4.3199  0.7386  0.6323
  251MOL0     H33100   7.579   2.534   8.982  0.4710  0.0067  0.5800
  251MOL0     H33101   7.436   2.458   8.907  0.4277  0.7654 -0.6854
  251MOL0     H33102   7.399   2.698   9.070  0.6142  0.8575 -3.2638
  251MOL0     H33103   7.383   2.526   9.139 -0.2477 -0.3319 -0.1476
  251MOL0     H33104   7.223   2.662   8.918  1.2279  0.1158  0.3369
  251MOL0     H33105   7.215   2.495   8.968 -0.4900  0.0746 -1.7647
  251MOL0     H33106   7.185   2.655   9.211  2.1647 -1.0504 -1.2120
  251MOL0     H33107   7.074   2.532   9.142  1.6071 -0.5008 -1.4991
  251MOL0     H33108   7.065   2.796   9.014 -0.4323  0.2082 -0.4418
  251MOL0     H33109   6.983   2.768   9.169 -0.0148  0.5161  0.3074
  251MOL0     H33110   6.845   2.739   8.978  1.0487  0.1459  0.1327
  251MOL0     H33111   6.951   2.623   8.902 -2.4245 -3.5334 -0.7550
  251MOL0     H33112   6.893   2.450   9.057 -0.4204 -0.7083  0.5494
  251MOL0     H33113   6.744   2.512   8.996 -1.4080 -0.0122  0.4284
  251MOL0     H33114   7.762   2.557   8.531 -2.4315  1.2578 -0.1175
  251MOL0     H33115   7.993   2.595   8.542 -2.3041 -1.9483 -0.6291
  251MOL0     H33116   8.290   2.994   8.597 -3.0172 -0.7763  4.1479
  251MOL0     H33117   8.545   3.022   8.557 -0.3935 -2.0124 -2.1573
  251MOL0     H33118   8.284   3.456   9.126 -0.1574 -0.2516 -0.8377
  251MOL0     H33119   8.147   3.387   9.311 -2.1159  0.6250  0.3961
  251MOL0     H33120   7.640   3.299   9.385  1.8453 -0.1646 -0.3859
  251MOL0     H33121   7.476   3.279   9.554 -0.2787 -1.7423 -0.7271
  251MOL0     H33122   7.360   3.129   9.703  0.9918  1.1900 -0.4170
  251MOL0     H33123   7.338   3.304   9.747 -1.5703 -0.1527  0.7991
  251MOL0     H33124   7.191   3.144   9.870 -0.5944 -1.2724 -0.7613
  251MOL0     H33125   7.345   3.073   9.933  0.5722 -0.7342 -2.6263
  251MOL0     H33126   7.220   3.357   9.969  1.7906  1.1646 -1.2797
  251MOL0     H33127   7.376   3.321  10.046 -1.9204  0.9707  2.2711
  251MOL0     H33128   7.114   3.194  10.096 -0.0464 -1.1115 -0.2856
  251MOL0     H33129   7.250   3.128  10.168  0.7359 -0.4969 -1.2639
  251MOL0     H33130   7.170   3.484  10.396  0.4328 -0.3395 -0.8005
  251MOL0     H33131   7.769   3.168   9.847  0.0575  0.1032 -0.2106
  251MOL0     H33132   7.943   3.181   9.673  0.1452 -2.4401 -0.9785
  252MOL0     O33133   2.102   6.577   8.877  0.0681  0.0547  0.5231
  252MOL0     C33134   2.116   6.500   8.970  0.0466  0.6344  0.1888
  252MOL0     O33135   2.021   6.405   9.011 -0.5580 -0.6655 -0.1741
  252MOL0     C33136   1.901   6.423   8.953  0.4654  0.2419 -0.4978
  252MOL0     C33137   1.812   6.517   9.013 -0.6019  0.3176  0.2070
  252MOL0     C33138   1.686   6.527   8.959  0.2335  0.7812  0.6440
  252MOL0     C33139   1.648   6.457   8.845 -0.6836  0.0203  0.3336
  252MOL0     O33140   1.516   6.471   8.812 -0.4975 -0.2325  0.1226
  252MOL0     C33141   1.462   6.393   8.704 -0.3577 -0.7587 -0.5045
  252MOL0     C33142   1.315   6.425   8.687 -0.6931  0.3801 -0.4477
  252MOL0     C33143   1.289   6.565   8.639  0.7193 -1.0196  0.2220
  252MOL0     C33144   1.132   6.590   8.638  0.9169  0.2283 -0.5983
  252MOL0     C33145   1.061   6.519   8.523  0.3375 -0.1310 -0.0097
  252MOL0     C33146   0.925   6.576   8.484  0.6986 -0.0079  0.2079
  252MOL0     C33147   0.815   6.496   8.560  0.6296 -0.9944 -0.8192
  252MOL0     C33148   0.685   6.582   8.551  0.4430 -0.3842  0.2144
  252MOL0     N33149   0.569   6.520   8.614 -0.4256  0.3730  0.6936
  252MOL0     C33150   0.527   6.542   8.744  0.4737 -0.3249  0.1869
  252MOL0     C33151   0.419   6.461   8.763  0.3993 -0.0421 -0.3421
  252MOL0     C33152   0.326   6.454   8.885 -0.9417 -1.4450  0.4768
  252MOL0     C33153   0.202   6.376   8.856 -0.1915 -0.8549 -0.2217
  252MOL0     C33154   0.095   6.399   8.961  0.2802 -0.0611 -0.3045
  252MOL0     C33155   0.036   6.540   8.943  0.1119 -0.3354  1.0877
  252MOL0     O33156  -0.081   6.557   9.028 -0.0000  1.0708  0.5441
  252MOL0     C33157  -0.211   6.515   9.000  0.1145  0.5546  0.9998
  252MOL0     C33158  -0.300   6.512   9.113 -0.1904  0.9403 -0.3568
  252MOL0     C33159  -0.436   6.472   9.089 -0.3244  0.3001  0.1164
  252MOL0     C33160  -0.484   6.444   8.958  0.7468  0.5448 -0.2450
  252MOL0     C33161  -0.628   6.450   8.923  0.3604  0.3509 -0.8220
  252MOL0     O33162  -0.715   6.520   9.005 -0.6474  0.5434  0.6721
  252MOL0     C33163  -0.845   6.541   8.967 -1.0936 -0.3445 -0.3326
  252MOL0     C33164  -0.883   6.592   8.840 -0.0371  0.0708 -0.5184
  252MOL0     C33165  -1.024   6.615   8.818 -0.3821 -0.6077  0.1513
  252MOL0     C33166  -1.119   6.572   8.910  0.2674 -0.3040 -1.0664
  252MOL0     O33167  -1.241   6.592   8.859  0.0503 -0.2775  0.1278
  252MOL0     C33168  -1.353   6.522   8.942  0.4847  0.2472  0.0084
  252MOL0     C33169  -1.484   6.556   8.867  0.3928  0.0644  0.2694
  252MOL0     C33170  -1.607   6.483   8.931  0.5326 -0.7479  0.6663
  252MOL0     C33171  -1.734   6.516   8.843 -0.1077  0.1223 -0.3820
  252MOL0     C33172  -1.830   6.409   8.863  0.0836 -0.3940 -0.3289
  252MOL0     C33173  -1.941   6.407   8.772 -0.4136  0.0359  0.3884
  252MOL0     C33174  -2.049   6.311   8.835 -0.3586 -0.1686 -0.1523
  252MOL0     C33175  -2.176   6.313   8.753  0.7003 -0.0737  0.1187
  252MOL0    Cl33176  -2.297   6.398   8.854  0.2835 -0.0996  0.0398
  252MOL0     C33177  -1.080   6.521   9.036 -0.0701 -0.5980  0.2933
  252MOL0     C33178  -0.940   6.507   9.061  0.2599  0.2352  0.3799
  252MOL0     O33179  -0.662   6.394   8.820 -0.4048  0.0556 -0.0048
  252MOL0     C33180  -0.383   6.420   8.865 -0.3541 -0.9434  0.2767
  252MOL0     C33181  -0.259   6.456   8.876 -0.0212  0.0032  0.3363
  252MOL0     N33182   0.402   6.392   8.642  0.3240 -0.3133 -0.5072
  252MOL0     N33183   0.482   6.436   8.556  0.2993 -0.5533 -0.6671
  252MOL0     C33184   1.740   6.369   8.778  0.1348 -0.9875  0.1270
  252MOL0     C33185   1.866   6.363   8.834 -0.4181  0.1685 -0.0299
  252MOL0     C33186   2.244   6.511   9.042  0.1034 -1.1816 -0.1481
  252MOL0     C33187   2.334   6.612   9.014 -0.1925 -0.1925 -0.0819
  252MOL0     C33188   2.448   6.621   9.093  0.1112 -0.6985  0.6749
  252MOL0     C33189   2.484   6.530   9.182 -0.3292  0.5961 -0.1133
  252MOL0     O33190   2.613   6.544   9.213  1.2220  0.0366 -0.1049
  252MOL0     C33191   2.676   6.455   9.305 -0.4853  0.4381 -0.4420
  252MOL0     C33192   2.811   6.508   9.346  0.1391 -0.2916  0.5399
  252MOL0     C33193   2.816   6.647   9.407 -1.2738  0.7005 -0.3636
  252MOL0     C33194   2.756   6.656   9.552 -0.1073 -0.3163 -0.3718
  252MOL0     C33195   2.846   6.587   9.641 -0.2576  0.1374  0.6445
  252MOL0     C33196   2.908   6.513   9.715  0.1569  0.4446  0.5394
  252MOL0     C33197   2.402   6.421   9.205 -0.5308  0.2199  0.4043
  252MOL0     C33198   2.280   6.422   9.140  0.3074  0.7191  0.5559
  252MOL0     H33199   1.835   6.560   9.109 -0.0155  0.3842  0.0421
  252MOL0     H33200   1.614   6.595   9.002  1.5699  3.0662 -0.5320
  252MOL0     H33201   1.461   6.285   8.721 -1.9545 -0.8947 -1.2713
  252MOL0     H33202   1.513   6.418   8.611 -0.4758  0.0829 -0.3527
  252MOL0     H33203   1.265   6.402   8.781  0.8555 -3.3546 -0.3760
  252MOL0     H33204   1.289   6.355   8.607 -0.1810 -0.4900  0.1279
  252MOL0     H33205   1.328   6.577   8.537 -0.7466 -0.0488 -0.2487
  252MOL0     H33206   1.332   6.636   8.709  0.3037  0.5352 -1.0415
  252MOL0     H33207   1.094   6.575   8.740  1.1877  0.1000 -0.5161
  252MOL0     H33208   1.118   6.696   8.619 -2.6991  0.0553  0.3667
  252MOL0     H33209   1.056   6.412   8.546 -2.2218 -0.9814 -3.6270
  252MOL0     H33210   1.124   6.536   8.435  0.8154 -3.8362 -0.5406
  252MOL0     H33211   0.914   6.567   8.376  1.9777  1.0557 -0.0480
  252MOL0     H33212   0.919   6.683   8.508  1.2328  1.0751 -3.7870
  252MOL0     H33213   0.800   6.399   8.511 -1.7999 -1.5002  0.7608
  252MOL0     H33214   0.847   6.496   8.665  0.3011  2.4895 -0.6036
  252MOL0     H33215   0.669   6.587   8.443  3.4225 -2.8077 -0.4997
  252MOL0     H33216   0.688   6.682   8.594  0.5607 -1.4434  2.9079
  252MOL0     H33217   0.565   6.597   8.829  2.6832 -0.7475 -0.4722
  252MOL0     H33218   0.299   6.558   8.905 -1.0346 -0.9200 -2.0258
  252MOL0     H33219   0.382   6.408   8.968  1.8087  1.4542  0.4339
  252MOL0     H33220   0.227   6.270   8.840  0.9489 -0.2790 -2.7337
  252MOL0     H33221   0.166   6.412   8.759 -1.4956 -0.7511  0.2876
  252MOL0     H33222   0.009   6.335   8.939 -0.1919  0.6244 -0.4794
  252MOL0     H33223   0.139   6.384   9.060  1.0609 -0.5769 -0.7157
  252MOL0     H33224   0.007   6.551   8.838 -1.7422  0.6949  1.6588
  252MOL0     H33225   0.109   6.614   8.978  0.0179 -1.3505  3.6713
  252MOL0     H33226  -0.265   6.543   9.211 -0.8043  1.8076 -0.4022
  252MOL0     H33227  -0.519   6.490   9.157 -1.5959 -1.3117 -0.9486
  252MOL0     H33228  -0.806   6.624   8.770  2.8994 -0.3867  2.2512
  252MOL0     H33229  -1.064   6.648   8.722  1.7655 -2.1484 -1.3930
  252MOL0     H33230  -1.348   6.572   9.039  3.0529  2.1431 -0.9816
  252MOL0     H33231  -1.353   6.414   8.956 -0.8701  0.0692 -1.1433
  252MOL0     H33232  -1.466   6.520   8.765  1.1733 -1.3550  0.8670
  252MOL0     H33233  -1.506   6.663   8.867 -0.9361 -0.1886 -0.6894
  252MOL0     H33234  -1.630   6.518   9.032 -3.0524  1.3133 -0.6503
  252MOL0     H33235  -1.578   6.379   8.948 -0.6548 -0.9879  1.3777
  252MOL0     H33236  -1.779   6.611   8.870  1.8028  0.5358  1.6308
  252MOL0     H33237  -1.695   6.531   8.742  2.0220 -0.1703  0.3429
  252MOL0     H33238  -1.868   6.426   8.964  1.5401  2.9805 -0.2320
  252MOL0     H33239  -1.778   6.313   8.866  0.1952 -0.3353 -0.3577
  252MOL0     H33240  -1.913   6.393   8.667  0.9455  3.0434  0.2547
  252MOL0     H33241  -1.975   6.511   8.775  0.2082  0.2428  0.4560
  252MOL0     H33242  -2.005   6.211   8.843 -0.4865 -0.3333 -1.2499
  252MOL0     H33243  -2.087   6.328   8.936 -2.5344  0.9950 -1.1016
  252MOL0     H33244  -2.201   6.208   8.736 -1.4104  0.3229  0.5585
  252MOL0     H33245  -2.166   6.361   8.655  0.2742 -1.3495 -0.5675
  252MOL0     H33246  -1.151   6.498   9.115  0.0855 -0.0023  0.6108
  252MOL0     H33247  -0.919   6.459   9.156 -2.2441 -2.5987 -0.3654
  252MOL0     H33248  -0.421   6.381   8.771  0.1155 -0.4905 -0.1080
  252MOL0     H33249  -0.201   6.444   8.785 -1.2499  0.5902 -0.5498
  252MOL0     H33250   1.724   6.332   8.678 -0.0805 -1.3046  0.2786
  252MOL0     H33251   1.944   6.298   8.793 -1.6157 -0.7502 -0.9111
  252MOL0     H33252   2.315   6.686   8.936  1.0749 -1.5800 -1.8114
  252MOL0     H33253   2.525   6.691   9.063  0.3880 -0.7939  1.1433
  252MOL0     H33254   2.674   6.351   9.271 -0.5338  0.6128 -0.9809
  252MOL0     H33255   2.619   6.441   9.398 -0.6916 -0.3057 -0.6756
  252MOL0     H33256   2.855   6.448   9.426  1.8038  0.7500  0.4650
  252MOL0     H33257   2.878   6.505   9.259 -1.2354 -0.4120 -0.5506
  252MOL0     H33258   2.762   6.715   9.341  1.0141  2.0261 -0.9681
  252MOL0     H33259   2.923   6.667   9.393 -0.5069 -3.4162 -1.7041
  252MOL0     H33260   2.742   6.763   9.568  0.2971 -0.1288 -1.1979
  252MOL0     H33261   2.655   6.616   9.566 -0.3287 -0.3097 -1.8074
  252MOL0     H33262   2.943   6.454   9.797 -0.3075  0.3362  0.6606
  252MOL0     H33263   2.435   6.344   9.273  0.3687  2.3563  2.5445
  252MOL0     H33264   2.217   6.335   9.157  2.0203 -0.8689 -0.7833
  253MOL0     O33265  10.445   8.601   6.669  0.3839  0.5425 -0.4105
  253MOL0     C33266  10.547   8.573   6.733 -0.5228  0.3449  0.0460
  253MOL0     O33267  10.564   8.569   6.869  0.4899  0.3127  0.4337
  253MOL0     C33268  10.467   8.597   6.969 -0.7313  0.3935 -0.1133
  253MOL0     C33269  10.520   8.634   7.091 -0.0869  0.2159 -0.5144
  253MOL0     C33270  10.445   8.660   7.200 -0.5456 -0.4836 -0.2843
  253MOL0     C33271  10.307   8.639   7.198 -0.0013  0.2231 -0.1143
  253MOL0     O33272  10.220   8.662   7.308 -0.2427 -0.1123  0.3533
  253MOL0     C33273  10.278   8.746   7.410  0.0864 -0.8579  0.0240
  253MOL0     C33274  10.173   8.810   7.487  0.3151  0.0467 -0.2678
  253MOL0     C33275  10.106   8.698   7.567  0.1914  0.4359  0.3676
  253MOL0     C33276   9.992   8.739   7.656 -0.4011 -0.0260  0.0577
  253MOL0     C33277   9.928   8.620   7.747  0.1869 -0.9721  0.4632
  253MOL0     C33278   9.835   8.678   7.854  0.0346  0.1645 -0.4731
  253MOL0     C33279   9.728   8.780   7.799  0.7246 -0.1923 -0.6688
  253MOL0     C33280   9.635   8.834   7.913 -0.5338 -0.0442 -0.2592
  253MOL0     N33281   9.570   8.720   7.970  0.3894  1.4877 -0.1331
  253MOL0     C33282   9.466   8.646   7.920  0.1531  0.0313  0.2231
  253MOL0     C33283   9.453   8.548   8.003 -0.3130 -0.1931 -0.8444
  253MOL0     C33284   9.345   8.439   7.987 -0.3466 -0.0379  0.0081
  253MOL0     C33285   9.207   8.491   7.992  0.8066  0.2726 -0.1099
  253MOL0     C33286   9.165   8.571   8.119 -0.4019 -0.3138  0.6957
  253MOL0     C33287   9.013   8.597   8.124 -0.2712  0.8506 -0.5137
  253MOL0     O33288   8.952   8.652   8.007  0.7270 -0.4504  0.5930
  253MOL0     C33289   9.009   8.766   7.952  0.3177  0.2027  0.2795
  253MOL0     C33290   9.048   8.760   7.817  0.4751  0.3614  0.4179
  253MOL0     C33291   9.139   8.854   7.763 -0.7934  0.1682 -0.3424
  253MOL0     C33292   9.188   8.961   7.838  0.1616 -1.0930 -0.7536
  253MOL0     C33293   9.286   9.067   7.804  0.4338  0.9345  0.3706
  253MOL0     O33294   9.342   9.135   7.907 -0.0388  0.5197 -0.2993
  253MOL0     C33295   9.428   9.246   7.884 -0.0911  0.0154 -0.1102
  253MOL0     C33296   9.530   9.273   7.974 -0.2711 -0.5327  0.0856
  253MOL0     C33297   9.615   9.386   7.964  0.8246  0.7974  0.3807
  253MOL0     C33298   9.601   9.470   7.854 -0.6974  0.8112  0.0124
  253MOL0     O33299   9.687   9.582   7.828  0.4599  0.0719 -0.0058
  253MOL0     C33300   9.821   9.560   7.869 -0.1177 -0.4658 -0.0630
  253MOL0     C33301   9.924   9.650   7.788 -0.5275 -0.2930 -0.3453
  253MOL0     C33302  10.074   9.643   7.847 -0.8382  0.3909 -1.0550
  253MOL0     C33303  10.084   9.685   7.993 -0.4712 -0.6505 -0.5482
  253MOL0     C33304  10.233   9.670   8.016  0.0536  0.1971  0.5661
  253MOL0     C33305  10.264   9.692   8.162  0.3743 -0.6069  0.0457
  253MOL0     C33306  10.323   9.573   8.240 -0.1783 -0.1523  0.6905
  253MOL0     C33307  10.365   9.606   8.381 -0.3404 -0.7601  0.6897
  253MOL0    Cl33308  10.519   9.710   8.354 -0.0844 -0.0381 -0.0269
  253MOL0     C33309   9.505   9.442   7.755  0.3962  0.3421  0.5067
  253MOL0     C33310   9.416   9.331   7.774  0.6404 -0.1510  0.0099
  253MOL0     O33311   9.292   9.102   7.682  0.9934  0.0334 -0.1023
  253MOL0     C33312   9.139   8.962   7.973  0.1857 -0.2982  0.3168
  253MOL0     C33313   9.052   8.871   8.027  0.2293  0.3159 -0.2898
  253MOL0     N33314   9.534   8.554   8.107 -0.1782 -0.3604 -0.2733
  253MOL0     N33315   9.599   8.668   8.096 -0.2643 -0.2788  0.3595
  253MOL0     C33316  10.250   8.604   7.077 -0.3513 -0.2807  0.6510
  253MOL0     C33317  10.325   8.594   6.959 -0.0208 -0.0243  0.2417
  253MOL0     C33318  10.671   8.536   6.651  0.3553 -0.2124  0.2164
  253MOL0     C33319  10.664   8.480   6.523  0.4251  0.5769  0.3775
  253MOL0     C33320  10.772   8.444   6.455 -0.8985  0.9962  0.3265
  253MOL0     C33321  10.901   8.469   6.491 -1.8409 -0.1531 -0.3978
  253MOL0     O33322  11.007   8.428   6.408 -0.3943 -0.5863 -0.0323
  253MOL0     C33323  11.120   8.522   6.402  0.1070  0.8065  0.5370
  253MOL0     C33324  11.216   8.480   6.281 -0.1013  0.0691 -0.8295
  253MOL0     C33325  11.294   8.608   6.246 -0.2905 -0.8079 -0.0940
  253MOL0     C33326  11.436   8.572   6.190  0.2471  0.0520 -0.7455
  253MOL0     C33327  11.526   8.691   6.190 -1.1153  0.9083 -1.1942
  253MOL0     C33328  11.604   8.784   6.172 -0.7216 -0.4488 -0.1467
  253MOL0     C33329  10.915   8.530   6.622  0.5054  0.2686 -0.6963
  253MOL0     C33330  10.801   8.558   6.705 -0.6260  0.4129  0.0730
  253MOL0     H33331  10.622   8.670   7.101 -0.6614  1.8286 -0.2492
  253MOL0     H33332  10.505   8.695   7.284 -1.4140 -1.4587  0.7896
  253MOL0     H33333  10.338   8.827   7.367 -0.4459 -1.1939 -1.4170
  253MOL0     H33334  10.353   8.693   7.469  2.1574  0.5068 -1.2457
  253MOL0     H33335  10.101   8.864   7.426 -0.8380  0.6207  1.5064
  253MOL0     H33336  10.213   8.882   7.560 -0.3308  0.5465 -0.3949
  253MOL0     H33337  10.176   8.636   7.625  0.0602 -1.2866 -1.2188
  253MOL0     H33338  10.065   8.624   7.497  4.8326 -0.4770 -1.7974
  253MOL0     H33339  10.031   8.821   7.717  2.6725 -0.9226 -0.5131
  253MOL0     H33340   9.916   8.770   7.583  1.1908  2.7414 -0.6157
  253MOL0     H33341   9.996   8.556   7.804 -2.4426 -3.4145  1.0513
  253MOL0     H33342   9.881   8.557   7.672 -1.2488  0.2098  0.3196
  253MOL0     H33343   9.895   8.723   7.933 -0.3517  1.8100 -1.0740
  253MOL0     H33344   9.782   8.593   7.897  2.2114 -1.1388 -0.2621
  253MOL0     H33345   9.772   8.874   7.764 -0.8378  1.0373  0.4540
  253MOL0     H33346   9.665   8.736   7.721  0.8066 -1.3197 -0.1246
  253MOL0     H33347   9.567   8.912   7.879 -0.8621  0.6861  1.9246
  253MOL0     H33348   9.696   8.875   7.994 -5.6943  0.2981  3.9717
  253MOL0     H33349   9.407   8.663   7.830 -0.7796  2.4777  1.2109
  253MOL0     H33350   9.356   8.363   8.065 -1.0359  0.3594  0.5049
  253MOL0     H33351   9.360   8.377   7.898 -0.7952 -1.2733  0.7590
  253MOL0     H33352   9.148   8.399   7.994  0.7099  0.3337 -0.1838
  253MOL0     H33353   9.176   8.550   7.906 -1.5631 -0.8501 -0.1028
  253MOL0     H33354   9.200   8.516   8.206 -0.4274 -1.6479 -0.1147
  253MOL0     H33355   9.218   8.667   8.125  1.0708 -1.1102  0.9327
  253MOL0     H33356   8.976   8.656   8.209 -3.0549  0.7983 -1.5695
  253MOL0     H33357   8.972   8.498   8.142  2.1928  0.1135  1.5205
  253MOL0     H33358   9.007   8.690   7.744  1.3120  2.5325 -2.3245
  253MOL0     H33359   9.157   8.859   7.655 -1.8270  1.7458 -0.4761
  253MOL0     H33360   9.534   9.207   8.060 -1.6688 -0.2495  0.3882
  253MOL0     H33361   9.686   9.415   8.042  0.7444  3.6991 -0.5289
  253MOL0     H33362   9.854   9.455   7.870  0.2838 -0.3394  0.7256
  253MOL0     H33363   9.831   9.592   7.973  0.1333  2.2380 -0.8627
  253MOL0     H33364   9.891   9.754   7.782  0.5926  0.1522  0.6344
  253MOL0     H33365   9.925   9.615   7.684 -0.4861  0.5331 -0.6314
  253MOL0     H33366  10.133   9.722   7.800  2.8570  0.7687  3.5242
  253MOL0     H33367  10.116   9.544   7.832 -2.7600 -0.4134 -1.4856
  253MOL0     H33368  10.066   9.793   7.997 -0.6359 -0.6729 -0.7074
  253MOL0     H33369  10.013   9.633   8.059 -1.6917  1.9976  0.3797
  253MOL0     H33370  10.295   9.737   7.956  2.3941 -1.7455  0.6258
  253MOL0     H33371  10.268   9.567   8.006 -0.0157  0.0410  1.7351
  253MOL0     H33372  10.175   9.728   8.216  0.4255 -0.3451 -0.0432
  253MOL0     H33373  10.345   9.765   8.170  0.0761 -0.3314  0.6058
  253MOL0     H33374  10.239   9.504   8.258 -1.8922  2.0104  1.3916
  253MOL0     H33375  10.412   9.537   8.187  1.4130  4.4034 -0.1912
  253MOL0     H33376  10.389   9.519   8.442 -1.5258  0.2389  2.6990
  253MOL0     H33377  10.297   9.670   8.438 -1.5170 -2.4774  1.2949
  253MOL0     H33378   9.491   9.509   7.670 -0.5444  2.5119  2.2650
  253MOL0     H33379   9.335   9.328   7.702  0.9055  2.5006 -0.5141
  253MOL0     H33380   9.180   9.033   8.044  1.9325  0.5323 -1.4384
  253MOL0     H33381   9.021   8.890   8.129  2.6761  0.6531  0.4618
  253MOL0     H33382  10.146   8.577   7.063 -0.6626  1.9185 -2.4338
  253MOL0     H33383  10.283   8.571   6.862  1.9468  0.7550 -0.8622
  253MOL0     H33384  10.568   8.478   6.472 -0.3135 -0.2180  1.7575
  253MOL0     H33385  10.759   8.409   6.354 -1.5489 -0.8259  1.0070
  253MOL0     H33386  11.176   8.530   6.496  0.2994 -0.9556  0.5988
  253MOL0     H33387  11.083   8.622   6.376 -1.8302 -0.4310 -1.7621
  253MOL0     H33388  11.284   8.396   6.300 -1.7453 -1.7577 -2.5706
  253MOL0     H33389  11.144   8.452   6.204 -1.9401  0.8371  0.5431
  253MOL0     H33390  11.307   8.667   6.336 -0.3330 -1.5437  0.4055
  253MOL0     H33391  11.239   8.672   6.176  0.2000  1.7333  1.7045
  253MOL0     H33392  11.489   8.497   6.250  0.8518  1.2201  0.2404
  253MOL0     H33393  11.418   8.538   6.088 -0.4357  0.1906 -0.6717
  253MOL0     H33394  11.670   8.854   6.125 -1.9711  1.0942  0.3306
  253MOL0     H33395  11.013   8.547   6.665 -0.4977 -1.0288  2.3453
  253MOL0     H33396  10.818   8.606   6.801 -1.0439  0.8315 -0.0554
  254MOL0     O33397   2.225   4.892   2.247 -0.4373 -0.7445 -1.4153
  254MOL0     C33398   2.245   4.826   2.148  0.4937 -0.0298 -0.7792
  254MOL0     O33399   2.155   4.726   2.101 -0.6284  0.3917  0.0654
  254MOL0     C33400   2.039   4.692   2.167  0.5731  0.2022 -0.6220
  254MOL0     C33401   2.039   4.613   2.278 -0.4843 -0.2200  0.2388
  254MOL0     C33402   1.919   4.602   2.351 -0.5297  0.0794 -0.1087
  254MOL0     C33403   1.797   4.666   2.315  0.0953 -0.7193  0.0814
  254MOL0     O33404   1.682   4.646   2.392  0.2715  0.0939  0.8327
  254MOL0     C33405   1.574   4.735   2.360  0.5692  0.2725  0.4804
  254MOL0     C33406   1.456   4.686   2.447  0.4769 -0.0703  0.4737
  254MOL0     C33407   1.349   4.789   2.442  0.2247  0.2930 -0.4767
  254MOL0     C33408   1.214   4.737   2.511  0.1364  0.0276  0.7704
  254MOL0     C33409   1.087   4.810   2.454 -1.0700  0.1019  0.0330
  254MOL0     C33410   0.953   4.753   2.501  0.9005 -0.6612 -0.7303
  254MOL0     C33411   0.836   4.798   2.410  0.5229  0.3670  0.4469
  254MOL0     C33412   0.721   4.704   2.447 -0.4068 -0.0624 -0.4303
  254MOL0     N33413   0.647   4.738   2.571  0.4318 -0.1219  0.6795
  254MOL0     C33414   0.651   4.659   2.681  0.4967  0.0797 -0.3498
  254MOL0     C33415   0.567   4.720   2.764  0.2453  0.1255  0.3476
  254MOL0     C33416   0.552   4.683   2.902  0.3334 -0.9237 -0.6627
  254MOL0     C33417   0.423   4.601   2.932  0.5398 -0.7673 -0.4407
  254MOL0     C33418   0.434   4.455   2.891 -0.0875  0.0121  0.1509
  254MOL0     C33419   0.500   4.372   3.001 -0.3028 -0.1623  0.0182
  254MOL0     O33420   0.492   4.231   2.998 -0.0146  0.3379  0.4521
  254MOL0     C33421   0.368   4.179   3.036  0.5983 -0.0804 -0.2416
  254MOL0     C33422   0.249   4.258   3.069 -0.5028  0.0793  0.8176
  254MOL0     C33423   0.129   4.196   3.105 -0.0721 -1.2352 -0.2834
  254MOL0     C33424   0.126   4.059   3.126  0.5082 -0.7709 -0.0467
  254MOL0     C33425   0.004   3.986   3.172  0.2405 -0.3921  1.1348
  254MOL0     O33426  -0.104   4.060   3.215  0.2354 -0.4404  0.5964
  254MOL0     C33427  -0.228   4.006   3.233  0.3390 -0.3491 -0.3728
  254MOL0     C33428  -0.285   3.922   3.132 -0.1964 -0.1039 -0.2437
  254MOL0     C33429  -0.420   3.888   3.132  0.5104  0.5113  0.1874
  254MOL0     C33430  -0.503   3.939   3.231  0.0920 -0.0295  0.3782
  254MOL0     O33431  -0.632   3.899   3.205  0.0063  0.2207 -0.1556
  254MOL0     C33432  -0.739   3.931   3.289 -0.1158 -0.0113  0.1355
  254MOL0     C33433  -0.773   4.077   3.257 -0.3045  0.3584  0.5688
  254MOL0     C33434  -0.896   4.126   3.323  0.2113 -0.6486  0.8350
  254MOL0     C33435  -0.889   4.105   3.474  0.4682 -0.1091 -0.0266
  254MOL0     C33436  -0.990   4.194   3.540 -0.5870  0.3898 -0.0799
  254MOL0     C33437  -1.127   4.131   3.530 -0.1687 -0.0310 -0.0834
  254MOL0     C33438  -1.246   4.212   3.589  0.7238 -0.3837 -0.0516
  254MOL0     C33439  -1.263   4.351   3.529 -0.1900  0.5148 -0.3058
  254MOL0    Cl33440  -1.303   4.351   3.351  0.2846  0.1885  0.0357
  254MOL0     C33441  -0.449   4.014   3.334 -0.3349  0.0613 -0.2761
  254MOL0     C33442  -0.316   4.052   3.337 -0.2714 -0.0118 -0.2241
  254MOL0     O33443   0.013   3.864   3.183  0.1396 -0.0940  0.2404
  254MOL0     C33444   0.247   3.984   3.106  0.0216 -0.7656 -0.6348
  254MOL0     C33445   0.361   4.043   3.054 -0.5594 -0.4923  0.6040
  254MOL0     N33446   0.509   4.831   2.702 -0.1817  0.7833 -0.2982
  254MOL0     N33447   0.559   4.843   2.584  0.1965  0.0651  0.0195
  254MOL0     C33448   1.799   4.741   2.197 -0.3485 -0.6492  0.1161
  254MOL0     C33449   1.917   4.754   2.124  0.1781 -0.1109  0.5270
  254MOL0     C33450   2.380   4.830   2.096  0.0193 -0.2528 -0.1137
  254MOL0     C33451   2.424   4.727   2.019 -0.5479  0.7796  0.3252
  254MOL0     C33452   2.556   4.720   1.967 -0.1376 -0.2343 -0.6412
  254MOL0     C33453   2.644   4.830   1.981  0.4665 -0.0731 -0.7231
  254MOL0     O33454   2.776   4.831   1.951  0.2904 -0.0752 -0.0768
  254MOL0     C33455   2.838   4.730   1.871  0.4664  0.0034 -0.7471
  254MOL0     C33456   2.812   4.746   1.716 -0.4687  0.8315  0.1402
  254MOL0     C33457   2.825   4.898   1.687 -0.2128  0.8494  0.6257
  254MOL0     C33458   2.973   4.952   1.698 -0.9488  0.1099  0.4801
  254MOL0     C33459   2.988   5.088   1.656  0.3533 -1.0286 -0.5120
  254MOL0     C33460   3.006   5.202   1.627 -1.1114  0.1946  0.5919
  254MOL0     C33461   2.594   4.940   2.052 -0.1916  0.2104  0.4587
  254MOL0     C33462   2.462   4.950   2.106 -0.8207 -0.5198  0.2575
  254MOL0     H33463   2.125   4.560   2.317  1.5143  3.1785  0.8613
  254MOL0     H33464   1.931   4.559   2.450  2.8666  0.7192 -0.1316
  254MOL0     H33465   1.538   4.719   2.257 -0.5550 -1.0492  1.0449
  254MOL0     H33466   1.610   4.834   2.387  0.7274 -0.2874  2.4170
  254MOL0     H33467   1.500   4.667   2.545  0.9129  0.0683  0.3113
  254MOL0     H33468   1.414   4.590   2.417  0.0334  0.0484  0.7115
  254MOL0     H33469   1.316   4.810   2.340  0.4501  0.0976 -0.5886
  254MOL0     H33470   1.387   4.869   2.507 -0.2805 -1.7220  2.5132
  254MOL0     H33471   1.206   4.630   2.494  2.5812 -0.3808  1.7870
  254MOL0     H33472   1.231   4.740   2.619  1.2207 -1.0524  0.6455
  254MOL0     H33473   1.081   4.789   2.347  3.0498 -1.4173 -0.0534
  254MOL0     H33474   1.084   4.917   2.480 -0.6865 -0.0505  0.7204
  254MOL0     H33475   0.923   4.790   2.599  2.1087 -3.6316  0.8709
  254MOL0     H33476   0.957   4.644   2.505  2.5025 -0.6027 -0.3571
  254MOL0     H33477   0.810   4.904   2.419 -0.9671  0.0378  0.2304
  254MOL0     H33478   0.874   4.774   2.310  1.4986  1.1747  0.6083
  254MOL0     H33479   0.758   4.602   2.466 -1.0904  0.1463  2.5476
  254MOL0     H33480   0.651   4.696   2.363  0.8348  0.6765 -1.5678
  254MOL0     H33481   0.713   4.574   2.707  0.1176 -0.0112  0.2914
  254MOL0     H33482   0.553   4.781   2.952  1.1219 -2.2642  2.1607
  254MOL0     H33483   0.641   4.625   2.929  2.6579  1.6874 -2.0886
  254MOL0     H33484   0.330   4.640   2.891  0.0634  0.4975  1.6556
  254MOL0     H33485   0.395   4.600   3.038 -3.3407 -2.3852 -1.3406
  254MOL0     H33486   0.335   4.412   2.871  0.6649 -0.6378 -2.7358
  254MOL0     H33487   0.491   4.443   2.798 -1.1159  0.1489 -0.5197
  254MOL0     H33488   0.460   4.404   3.098  0.8170  0.9913  0.1179
  254MOL0     H33489   0.607   4.396   3.000  0.1413 -1.9828 -0.1941
  254MOL0     H33490   0.244   4.365   3.055 -2.7082  0.0242  0.8583
  254MOL0     H33491   0.045   4.262   3.123  1.9337  1.3414  0.1542
  254MOL0     H33492  -0.211   3.882   3.064 -0.6976 -2.5179  0.5309
  254MOL0     H33493  -0.456   3.825   3.050 -1.0991  1.1317  0.3864
  254MOL0     H33494  -0.713   3.904   3.392 -1.1127 -0.6109  0.2470
  254MOL0     H33495  -0.826   3.872   3.259 -1.8308  1.8636  1.0654
  254MOL0     H33496  -0.788   4.090   3.150 -2.7022  0.3390  0.8333
  254MOL0     H33497  -0.692   4.139   3.295 -0.9427 -0.3911  3.4185
  254MOL0     H33498  -0.987   4.075   3.288 -0.5949 -1.6661  4.1106
  254MOL0     H33499  -0.903   4.232   3.297 -0.3917 -0.0698  3.1224
  254MOL0     H33500  -0.896   3.998   3.494  2.3539 -0.2390  0.0680
  254MOL0     H33501  -0.795   4.149   3.507  0.3596  1.3309 -1.5263
  254MOL0     H33502  -0.987   4.293   3.492 -2.5654  0.4598 -0.1452
  254MOL0     H33503  -0.970   4.203   3.647  0.1703  0.2308 -0.2031
  254MOL0     H33504  -1.135   4.036   3.583 -2.0608  0.0665 -0.1207
  254MOL0     H33505  -1.160   4.104   3.429  2.2223 -2.3427 -0.3258
  254MOL0     H33506  -1.339   4.156   3.580  1.6497 -2.2563  1.4231
  254MOL0     H33507  -1.227   4.236   3.694  0.4047  0.4513 -0.1788
  254MOL0     H33508  -1.162   4.392   3.528 -0.4688  1.1976 -1.0370
  254MOL0     H33509  -1.343   4.407   3.579 -1.2581 -1.0610 -0.1624
  254MOL0     H33510  -0.509   4.047   3.419 -2.3045  0.7903 -1.8776
  254MOL0     H33511  -0.283   4.117   3.417  1.2216  0.4577 -1.1626
  254MOL0     H33512   0.257   3.878   3.123  0.4311 -0.5018  0.9237
  254MOL0     H33513   0.445   3.978   3.034 -0.5281  0.7537 -5.1701
  254MOL0     H33514   1.710   4.794   2.165  0.3325  1.8478  2.1065
  254MOL0     H33515   1.918   4.822   2.040 -1.7741 -1.9155 -1.0821
  254MOL0     H33516   2.366   4.639   1.993  2.6823 -2.2999  2.6222
  254MOL0     H33517   2.596   4.629   1.924  0.2151  0.3784 -1.6578
  254MOL0     H33518   2.810   4.631   1.907  1.9055  0.1513  0.8647
  254MOL0     H33519   2.944   4.747   1.888  0.0401  3.6976 -1.0031
  254MOL0     H33520   2.891   4.684   1.673  0.2629  0.6027  1.7471
  254MOL0     H33521   2.714   4.715   1.680  0.9716 -1.5797 -2.0732
  254MOL0     H33522   2.759   4.963   1.745 -0.6049  2.0787 -1.1018
  254MOL0     H33523   2.791   4.925   1.586 -2.3331 -1.3200  0.6571
  254MOL0     H33524   3.011   4.950   1.801 -0.4696  5.3487  0.6618
  254MOL0     H33525   3.040   4.898   1.629 -1.8677  1.0723 -1.2384
  254MOL0     H33526   3.029   5.307   1.631  0.3313 -0.0781  0.1068
  254MOL0     H33527   2.662   5.024   2.063  0.9411 -0.8426  2.0413
  254MOL0     H33528   2.425   5.037   2.160 -0.6404  0.5128 -1.2248
  255MOL0     O33529   5.874   3.362  10.403  0.0655 -0.0073 -0.3172
  255MOL0     C33530   5.812   3.441  10.327  0.7205 -0.0742 -0.1670
  255MOL0     O33531   5.854   3.486  10.207  0.2016 -0.1187 -0.0095
  255MOL0     C33532   5.964   3.436  10.138 -0.6009 -0.3695  0.2928
  255MOL0     C33533   6.035   3.310  10.157 -0.5426  0.1150 -0.0618
  255MOL0     C33534   6.135   3.268  10.068  0.1735 -0.3747  0.1908
  255MOL0     C33535   6.160   3.344   9.961 -0.0772  0.2226 -0.7581
  255MOL0     O33536   6.261   3.321   9.874 -0.3406 -0.1357 -1.2429
  255MOL0     C33537   6.359   3.224   9.914  0.4604  0.6495 -0.0469
  255MOL0     C33538   6.466   3.213   9.812 -0.1705 -0.1129 -0.3370
  255MOL0     C33539   6.528   3.355   9.777  0.4888 -0.0269 -0.5923
  255MOL0     C33540   6.632   3.333   9.671  0.2749  0.5019  0.2112
  255MOL0     C33541   6.694   3.467   9.611  0.4924 -0.3678 -0.6621
  255MOL0     C33542   6.776   3.443   9.486  0.4389  0.2202  0.1159
  255MOL0     C33543   6.900   3.351   9.506  0.2751 -0.9669  0.1192
  255MOL0     C33544   6.967   3.335   9.379  0.3972  0.8196  0.1739
  255MOL0     N33545   7.071   3.235   9.398  0.3020  0.2943  0.2432
  255MOL0     C33546   7.057   3.103   9.371  0.0525  1.2015 -0.4449
  255MOL0     C33547   7.166   3.038   9.424 -0.9265 -0.5716  0.4584
  255MOL0     C33548   7.206   2.895   9.416  0.2581  0.6278 -0.6396
  255MOL0     C33549   7.232   2.835   9.550  0.6911  0.6683 -0.3104
  255MOL0     C33550   7.119   2.795   9.640 -0.0980  0.3391  0.6871
  255MOL0     C33551   7.058   2.926   9.692  0.7610  0.7095 -0.1455
  255MOL0     O33552   6.996   2.878   9.814  0.1603  0.6761  0.5577
  255MOL0     C33553   6.935   2.972   9.895 -0.2274  0.1029  0.8906
  255MOL0     C33554   6.876   2.912  10.009 -0.0212 -0.1958  0.3188
  255MOL0     C33555   6.801   2.997  10.087 -1.0607 -0.0493 -0.4782
  255MOL0     C33556   6.787   3.133  10.063 -0.4972  0.5944 -1.4647
  255MOL0     C33557   6.691   3.213  10.140  0.0710 -0.1380  0.3625
  255MOL0     O33558   6.636   3.156  10.252  0.4505  0.4193  0.8609
  255MOL0     C33559   6.545   3.237  10.326  0.8213  0.6235 -0.8662
  255MOL0     C33560   6.413   3.243  10.295  0.1480 -0.5123 -0.3453
  255MOL0     C33561   6.322   3.326  10.359 -0.3362  0.6616 -0.1122
  255MOL0     C33562   6.362   3.394  10.477  0.2523 -0.3631  0.5341
  255MOL0     O33563   6.283   3.470  10.552 -0.3666 -0.2379 -0.0519
  255MOL0     C33564   6.152   3.497  10.506  0.8455 -0.5550  0.1893
  255MOL0     C33565   6.076   3.601  10.595  0.0186  0.9117  0.7279
  255MOL0     C33566   6.055   3.732  10.527  0.2839  0.5302  0.1958
  255MOL0     C33567   5.936   3.806  10.595 -0.2740 -0.3655 -0.2259
  255MOL0     C33568   5.904   3.945  10.533 -0.1260 -0.3985 -0.3202
  255MOL0     C33569   5.811   4.036  10.606 -0.0002 -0.3000 -0.1772
  255MOL0     C33570   5.664   4.001  10.601  0.2999  0.0613 -0.1617
  255MOL0     C33571   5.581   4.064  10.712 -0.2443  0.2209 -0.2095
  255MOL0    Cl33572   5.647   4.026  10.868  0.1486 -0.0830 -0.2020
  255MOL0     C33573   6.495   3.377  10.516  0.0643 -0.0653 -0.9884
  255MOL0     C33574   6.586   3.301  10.446  0.5196  0.6972  1.1458
  255MOL0     O33575   6.655   3.321  10.095 -0.2369  1.0529 -0.3565
  255MOL0     C33576   6.846   3.194   9.954  0.0197 -0.3404  0.3303
  255MOL0     C33577   6.921   3.110   9.869  0.6371 -0.4776  0.6039
  255MOL0     N33578   7.245   3.142   9.482 -0.1812 -0.2564  0.0630
  255MOL0     N33579   7.190   3.253   9.470 -0.6176  0.4236  0.0441
  255MOL0     C33580   6.100   3.474   9.939  0.3240  0.7213  0.7069
  255MOL0     C33581   6.001   3.518  10.020  0.2639  0.2038 -0.7692
  255MOL0     C33582   5.701   3.507  10.384 -0.3327 -0.1129  0.4963
  255MOL0     C33583   5.694   3.512  10.520 -0.5174 -0.2819 -1.0988
  255MOL0     C33584   5.575   3.558  10.576  0.4130 -0.2796  1.0568
  255MOL0     C33585   5.480   3.629  10.503  0.2288  0.3834 -0.9945
  255MOL0     O33586   5.374   3.699  10.557  0.1108  0.7259  0.1726
  255MOL0     C33587   5.260   3.755  10.486 -0.4485 -0.1703  0.0414
  255MOL0     C33588   5.161   3.646  10.454 -0.4167  0.4722  0.4864
  255MOL0     C33589   5.021   3.698  10.442 -0.4592 -0.3073  0.3882
  255MOL0     C33590   4.920   3.586  10.414 -0.5722 -0.3195  0.3947
  255MOL0     C33591   4.781   3.633  10.429 -1.4003 -0.2631 -0.5314
  255MOL0     C33592   4.658   3.662  10.436 -1.3629  0.4583 -0.7694
  255MOL0     C33593   5.494   3.624  10.364 -0.6239 -0.5318  0.3031
  255MOL0     C33594   5.605   3.570  10.306  1.2134  1.2460 -0.7831
  255MOL0     H33595   5.999   3.244  10.235  1.1558  0.4305  1.0391
  255MOL0     H33596   6.177   3.169  10.085  1.1183  0.0069  0.1151
  255MOL0     H33597   6.299   3.133   9.928  0.3520  0.5024 -1.3519
  255MOL0     H33598   6.407   3.252  10.008 -0.7577  2.9867 -0.0594
  255MOL0     H33599   6.426   3.167   9.721  1.0885  0.8816 -1.4433
  255MOL0     H33600   6.546   3.144   9.842  0.6097  1.3536  1.0884
  255MOL0     H33601   6.574   3.410   9.860 -3.5227  3.1184 -0.1616
  255MOL0     H33602   6.451   3.420   9.735  1.6057  2.9826  1.6178
  255MOL0     H33603   6.714   3.280   9.722  1.4154  3.3311  1.5112
  255MOL0     H33604   6.605   3.267   9.588  0.4208  0.8106 -0.0859
  255MOL0     H33605   6.760   3.508   9.689  0.9061 -0.6500 -0.8596
  255MOL0     H33606   6.611   3.537   9.601  0.0923 -0.4367  1.5217
  255MOL0     H33607   6.817   3.541   9.463  0.3726  0.7651  2.1081
  255MOL0     H33608   6.709   3.405   9.409  0.6518 -1.3035  0.6506
  255MOL0     H33609   6.975   3.394   9.573  2.5984 -0.2178 -2.7715
  255MOL0     H33610   6.863   3.258   9.552 -2.5891 -0.7427 -1.4560
  255MOL0     H33611   6.999   3.429   9.334 -2.1941  0.5769 -2.5278
  255MOL0     H33612   6.897   3.286   9.310 -0.4870  0.1832  1.4878
  255MOL0     H33613   6.987   3.047   9.310 -0.6259  0.2912  1.1194
  255MOL0     H33614   7.292   2.883   9.350  1.1271 -0.7407  0.7035
  255MOL0     H33615   7.125   2.850   9.358  0.9633 -0.7301 -0.5943
  255MOL0     H33616   7.301   2.895   9.610  0.4277  0.4082  0.2571
  255MOL0     H33617   7.295   2.748   9.528  1.8847  1.7085 -1.1821
  255MOL0     H33618   7.044   2.736   9.586  1.1769  0.7591 -1.6869
  255MOL0     H33619   7.160   2.731   9.719  0.4777 -0.1812 -0.0175
  255MOL0     H33620   6.989   2.970   9.620  1.4195 -3.0636 -3.4639
  255MOL0     H33621   7.133   3.004   9.708  1.1417  0.5550 -1.1195
  255MOL0     H33622   6.870   2.807  10.037 -0.8175 -0.3161 -0.2800
  255MOL0     H33623   6.756   2.948  10.173  1.5046  1.2837  1.7991
  255MOL0     H33624   6.385   3.172  10.218 -1.5528  1.1069 -1.3002
  255MOL0     H33625   6.221   3.347  10.327 -0.0303  3.1026  0.3603
  255MOL0     H33626   6.090   3.408  10.517  1.3668 -1.3126 -2.2847
  255MOL0     H33627   6.144   3.526  10.401  0.2124  0.6525  0.5524
  255MOL0     H33628   6.134   3.622  10.686  0.4885  1.8353  0.2277
  255MOL0     H33629   5.978   3.564  10.625  0.3983  0.0032  0.8868
  255MOL0     H33630   6.030   3.727  10.421  1.5796 -0.4761 -0.0793
  255MOL0     H33631   6.150   3.785  10.538  1.4778 -1.4136 -0.2550
  255MOL0     H33632   5.843   3.752  10.579 -1.9581  1.4454  2.6129
  255MOL0     H33633   5.951   3.813  10.703 -0.4239  1.1730 -0.2850
  255MOL0     H33634   5.866   3.932  10.431 -1.4483  0.7464 -0.0128
  255MOL0     H33635   5.999   3.998  10.525 -0.8770  1.1590  0.5206
  255MOL0     H33636   5.834   4.134  10.562 -1.9205  0.7147  0.9740
  255MOL0     H33637   5.841   4.035  10.711 -0.3848 -1.4720 -0.0597
  255MOL0     H33638   5.621   4.050  10.513  0.7742  0.2510 -0.2900
  255MOL0     H33639   5.654   3.893  10.589  1.4916 -0.2997  1.6450
  255MOL0     H33640   5.478   4.029  10.706 -0.3888  0.7608 -0.8885
  255MOL0     H33641   5.579   4.171  10.693  0.4494  0.6745  2.0309
  255MOL0     H33642   6.524   3.431  10.606 -0.5901 -1.7909  0.3095
  255MOL0     H33643   6.689   3.284  10.476  0.7541 -1.3211 -0.6148
  255MOL0     H33644   6.852   3.300   9.934  2.3162 -0.6298 -0.8440
  255MOL0     H33645   6.957   3.161   9.780 -0.0417  1.1656  1.2248
  255MOL0     H33646   6.133   3.521   9.847 -3.0610  2.2005  0.0900
  255MOL0     H33647   5.948   3.609   9.994 -2.7213 -0.7681  1.4155
  255MOL0     H33648   5.772   3.475  10.586 -1.0571 -2.4544 -1.6004
  255MOL0     H33649   5.559   3.562  10.684 -1.2855 -1.0496  0.8783
  255MOL0     H33650   5.289   3.800  10.390  0.9530  1.5892  1.2327
  255MOL0     H33651   5.216   3.836  10.545  0.7031  0.0963  0.5503
  255MOL0     H33652   5.185   3.608  10.354  2.1528  1.7642  0.5205
  255MOL0     H33653   5.160   3.576  10.538  0.4301  2.5741  2.3576
  255MOL0     H33654   5.013   3.779  10.369 -0.7699  0.4386  1.2440
  255MOL0     H33655   4.995   3.746  10.536 -2.7234 -1.9726  0.7013
  255MOL0     H33656   4.937   3.544  10.314 -0.8810 -0.6585  0.4796
  255MOL0     H33657   4.935   3.508  10.489 -0.3112 -0.2580  0.4045
  255MOL0     H33658   4.553   3.684  10.437 -2.8285 -4.7255  2.6162
  255MOL0     H33659   5.430   3.694  10.311 -0.2290 -0.3308  0.0858
  255MOL0     H33660   5.608   3.575  10.197 -1.7398  0.7762 -0.9652
  256MOL0     O33661   0.765   2.949   4.742 -0.2208 -0.6358 -0.4900
  256MOL0     C33662   0.742   3.023   4.645  0.5276  0.6360  0.2511
  256MOL0     O33663   0.646   3.124   4.648  0.5369  0.0802 -0.4135
  256MOL0     C33664   0.557   3.126   4.752 -0.0431 -0.0127  0.2177
  256MOL0     C33665   0.503   3.254   4.783 -0.2634  0.2732 -0.3711
  256MOL0     C33666   0.399   3.256   4.873  0.4554  0.7925 -0.0207
  256MOL0     C33667   0.337   3.135   4.912 -0.3930  0.3317 -0.2120
  256MOL0     O33668   0.216   3.126   4.984  0.0427 -0.1041 -0.3422
  256MOL0     C33669   0.120   3.239   4.995 -0.1091  0.7313  0.4818
  256MOL0     C33670  -0.012   3.204   4.931  0.6694  0.1784  0.1063
  256MOL0     C33671  -0.111   3.113   5.017 -0.3085  0.4587  0.3481
  256MOL0     C33672  -0.245   3.076   4.958 -0.6204  0.6802  0.1658
  256MOL0     C33673  -0.339   3.029   5.066  0.0474 -0.3182  0.1250
  256MOL0     C33674  -0.473   2.978   5.010  0.1316 -0.0171  0.0327
  256MOL0     C33675  -0.579   2.926   5.114  0.2115 -0.9254 -0.0545
  256MOL0     C33676  -0.688   2.837   5.054 -0.4931  0.5989 -0.8778
  256MOL0     N33677  -0.797   2.808   5.148 -0.0326 -0.3367  0.6025
  256MOL0     C33678  -0.823   2.698   5.220  0.5329  0.2358  0.3334
  256MOL0     C33679  -0.933   2.729   5.290  0.5563  0.2176  0.3526
  256MOL0     C33680  -0.999   2.643   5.398 -0.3961 -0.1447 -0.2757
  256MOL0     C33681  -1.147   2.682   5.409 -0.0478  0.7372  0.3457
  256MOL0     C33682  -1.214   2.570   5.490 -0.4000  0.2021 -0.9336
  256MOL0     C33683  -1.192   2.571   5.647 -0.1310  0.2379  0.7753
  256MOL0     O33684  -1.280   2.663   5.713  0.1501  0.3730 -0.3167
  256MOL0     C33685  -1.416   2.635   5.705 -0.5664 -0.3389 -0.8783
  256MOL0     C33686  -1.484   2.519   5.664 -0.2462  0.2085 -0.0141
  256MOL0     C33687  -1.618   2.500   5.678  0.5413 -0.1626  0.4720
  256MOL0     C33688  -1.693   2.606   5.723  0.2663  0.4201  0.5147
  256MOL0     C33689  -1.845   2.595   5.728 -0.2359  0.3638 -0.3457
  256MOL0     O33690  -1.907   2.498   5.658  0.1373 -0.5912  0.1674
  256MOL0     C33691  -2.041   2.515   5.645 -0.0081  0.3383  0.3311
  256MOL0     C33692  -2.088   2.574   5.528  0.6802  0.1092 -0.6130
  256MOL0     C33693  -2.227   2.594   5.506 -0.0802  0.0823  0.1091
  256MOL0     C33694  -2.321   2.533   5.593 -0.4222  0.1902 -0.0638
  256MOL0     O33695  -2.453   2.552   5.570  0.0904  0.6304 -0.2599
  256MOL0     C33696  -2.546   2.548   5.680  0.0732  0.4817  0.1962
  256MOL0     C33697  -2.682   2.590   5.643  0.0431  0.9303 -0.4299
  256MOL0     C33698  -2.772   2.640   5.764 -0.4155  0.3371 -0.0865
  256MOL0     C33699  -2.921   2.647   5.734 -0.7721  0.2083 -0.4168
  256MOL0     C33700  -2.985   2.687   5.869  0.5980 -0.1153  0.5306
  256MOL0     C33701  -3.130   2.736   5.855  0.1177  0.5164  0.5704
  256MOL0     C33702  -3.226   2.630   5.793  0.6259 -0.8055  0.5691
  256MOL0     C33703  -3.375   2.666   5.798  0.4830 -0.1571 -0.4800
  256MOL0    Cl33704  -3.426   2.649   5.967  0.3158 -0.2257 -0.7413
  256MOL0     C33705  -2.269   2.482   5.712 -0.2854  0.4391 -1.1574
  256MOL0     C33706  -2.133   2.472   5.740 -0.2568 -0.9658 -0.0096
  256MOL0     O33707  -1.908   2.685   5.788 -0.2213  0.1890 -0.3236
  256MOL0     C33708  -1.632   2.727   5.765  0.6853 -0.5015  0.8295
  256MOL0     C33709  -1.496   2.732   5.767 -0.0917 -0.2900  0.0511
  256MOL0     N33710  -0.971   2.862   5.260  0.3595  0.0522  0.3543
  256MOL0     N33711  -0.886   2.907   5.175 -0.3941  0.0356 -0.4602
  256MOL0     C33712   0.389   3.015   4.880  0.8167 -0.2246 -0.7614
  256MOL0     C33713   0.500   3.007   4.802  0.3425 -0.2724  0.0096
  256MOL0     C33714   0.824   3.017   4.520 -0.1255  0.6126  0.0865
  256MOL0     C33715   0.824   3.127   4.432 -0.8363  0.7770  0.6911
  256MOL0     C33716   0.917   3.127   4.326 -0.5785  0.3044  0.8106
  256MOL0     C33717   1.007   3.026   4.313  0.2538 -0.0298  0.3770
  256MOL0     O33718   1.082   3.025   4.195  0.2279  0.0067  0.4647
  256MOL0     C33719   1.203   2.943   4.197  0.4014 -0.4801  1.0252
  256MOL0     C33720   1.190   2.790   4.156  0.0558 -0.2518 -0.6012
  256MOL0     C33721   1.320   2.708   4.180  0.2260 -0.2112 -0.4164
  256MOL0     C33722   1.353   2.677   4.327  0.7015 -0.3872 -0.2361
  256MOL0     C33723   1.256   2.571   4.366 -0.1707 -0.7871 -0.0654
  256MOL0     C33724   1.177   2.488   4.410  0.3748 -0.0865  0.2077
  256MOL0     C33725   1.005   2.916   4.408 -0.3613 -0.8291  0.0283
  256MOL0     C33726   0.919   2.908   4.510 -0.7026 -0.1124 -0.6113
  256MOL0     H33727   0.549   3.344   4.742 -0.9043  0.8612  0.1699
  256MOL0     H33728   0.373   3.357   4.904  0.2859  1.4254 -2.0746
  256MOL0     H33729   0.158   3.326   4.941  0.7501 -0.3716 -0.7390
  256MOL0     H33730   0.098   3.257   5.101 -0.7209  2.2460  0.1259
  256MOL0     H33731   0.011   3.150   4.839 -1.8314 -1.6307  0.4649
  256MOL0     H33732  -0.054   3.303   4.910  2.7442  1.5952  1.9891
  256MOL0     H33733  -0.126   3.164   5.112  0.0600 -0.0360  0.6746
  256MOL0     H33734  -0.050   3.023   5.026  2.1596  1.9174 -0.6037
  256MOL0     H33735  -0.287   3.163   4.908  1.6537  2.1771  0.7227
  256MOL0     H33736  -0.220   2.998   4.885  2.6235 -1.2938  3.0897
  256MOL0     H33737  -0.373   3.117   5.121 -1.4243 -0.6715 -0.1620
  256MOL0     H33738  -0.292   2.958   5.133  0.6333  2.1923  2.5631
  256MOL0     H33739  -0.448   2.902   4.935  0.3691  0.2035 -0.1127
  256MOL0     H33740  -0.529   3.049   4.949 -1.9202 -3.0249 -1.8883
  256MOL0     H33741  -0.529   2.869   5.193 -0.9235  0.0984  1.4812
  256MOL0     H33742  -0.632   3.009   5.162 -0.8873 -1.5955 -0.0574
  256MOL0     H33743  -0.639   2.742   5.029 -1.3282  0.5846 -2.5742
  256MOL0     H33744  -0.728   2.876   4.960 -0.8488  3.1387  0.2547
  256MOL0     H33745  -0.766   2.605   5.224  0.2792  0.0592 -0.1220
  256MOL0     H33746  -0.950   2.676   5.490  1.0548 -1.0864 -0.6653
  256MOL0     H33747  -0.972   2.542   5.366  0.4578  0.0862 -0.3324
  256MOL0     H33748  -1.202   2.685   5.315  0.0169 -0.9978  0.2191
  256MOL0     H33749  -1.157   2.779   5.458  0.1772  0.1258  1.6769
  256MOL0     H33750  -1.321   2.587   5.472 -0.6675 -0.8504 -0.4185
  256MOL0     H33751  -1.191   2.472   5.446  0.4780  0.2000 -0.4939
  256MOL0     H33752  -1.089   2.600   5.668  2.6268 -4.6723 -3.7143
  256MOL0     H33753  -1.211   2.469   5.683  0.9020 -0.3529 -0.3362
  256MOL0     H33754  -1.434   2.431   5.625 -0.8913 -0.0382 -0.3016
  256MOL0     H33755  -1.669   2.408   5.650  1.1208 -1.0313  2.1397
  256MOL0     H33756  -2.010   2.598   5.456  0.2209 -1.5475 -1.7269
  256MOL0     H33757  -2.259   2.641   5.414 -0.3374 -0.5161 -0.1111
  256MOL0     H33758  -2.525   2.608   5.769 -0.3348 -3.1043  2.9674
  256MOL0     H33759  -2.550   2.444   5.716  2.1301  1.0177  2.2805
  256MOL0     H33760  -2.725   2.506   5.589 -0.3553 -0.3484  1.7662
  256MOL0     H33761  -2.667   2.683   5.587  1.5278 -0.1619 -1.9573
  256MOL0     H33762  -2.725   2.727   5.809  1.4623 -1.1105  0.9182
  256MOL0     H33763  -2.771   2.560   5.840 -1.1411 -0.5290 -0.9535
  256MOL0     H33764  -2.945   2.713   5.651  1.8482 -0.0679 -1.4902
  256MOL0     H33765  -2.945   2.543   5.708  0.7005 -0.4772  0.7677
  256MOL0     H33766  -2.923   2.756   5.927  0.7481 -1.6640  2.2895
  256MOL0     H33767  -2.982   2.597   5.931  0.8316 -1.1183 -0.9001
  256MOL0     H33768  -3.136   2.825   5.792  2.9762  0.5934  0.2639
  256MOL0     H33769  -3.169   2.751   5.956 -0.0210 -2.7001  1.0825
  256MOL0     H33770  -3.220   2.640   5.684 -3.3136  0.3105  0.2840
  256MOL0     H33771  -3.215   2.528   5.830  0.6420 -2.2169 -2.9063
  256MOL0     H33772  -3.420   2.611   5.715  0.1396  0.5198 -0.7534
  256MOL0     H33773  -3.390   2.774   5.784  1.9233  0.3931  1.7965
  256MOL0     H33774  -2.332   2.442   5.791 -1.3727 -2.4528 -3.3215
  256MOL0     H33775  -2.078   2.436   5.826  1.3727  1.4669  0.0822
  256MOL0     H33776  -1.698   2.807   5.799 -1.0726 -1.5768  0.0918
  256MOL0     H33777  -1.451   2.825   5.800  1.5027 -1.8838  2.6713
  256MOL0     H33778   0.351   2.920   4.918  1.7185 -0.7736 -1.1772
  256MOL0     H33779   0.529   2.906   4.775 -0.1317  0.1311 -2.2298
  256MOL0     H33780   0.761   3.215   4.439 -0.8848  0.7009  1.2295
  256MOL0     H33781   0.935   3.216   4.266  1.8016 -0.1689  0.7636
  256MOL0     H33782   1.257   2.944   4.293  1.3268  1.6838  0.5378
  256MOL0     H33783   1.270   2.989   4.123 -1.4852  0.1617 -0.3471
  256MOL0     H33784   1.108   2.742   4.211 -0.7253  0.9973 -0.6310
  256MOL0     H33785   1.156   2.774   4.053  0.4232  0.8935 -0.9225
  256MOL0     H33786   1.398   2.773   4.139 -1.2595  2.9265  1.4066
  256MOL0     H33787   1.321   2.614   4.124  2.9738 -1.1703  1.0784
  256MOL0     H33788   1.454   2.638   4.340  1.6910  1.6727 -1.1782
  256MOL0     H33789   1.346   2.772   4.380 -1.7649  0.2869 -1.6169
  256MOL0     H33790   1.111   2.415   4.452 -0.2882  1.4786  2.0442
  256MOL0     H33791   1.087   2.844   4.411  0.1871 -0.2159  0.1130
  256MOL0     H33792   0.922   2.833   4.588  1.3315  1.3017  0.7465
  257MOL0     O33793   5.702   1.828   7.238 -0.4608  0.0455 -0.5282
  257MOL0     C33794   5.756   1.808   7.350  0.0535  0.1930  0.0099
  257MOL0     O33795   5.692   1.774   7.467 -0.0248 -0.0560  0.8321
  257MOL0     C33796   5.557   1.759   7.460 -0.2681  0.1641  0.1072
  257MOL0     C33797   5.479   1.868   7.431  0.0620  1.0623  0.8170
  257MOL0     C33798   5.341   1.853   7.418  0.5864  0.5733  0.3588
  257MOL0     C33799   5.276   1.732   7.457 -1.0833 -0.1635  1.1664
  257MOL0     O33800   5.139   1.736   7.450  0.4091  0.0081  0.9821
  257MOL0     C33801   5.071   1.627   7.514  0.1990  0.6818 -0.5749
  257MOL0     C33802   4.921   1.628   7.503  0.3510  0.4282 -0.2302
  257MOL0     C33803   4.842   1.730   7.582  0.4405  0.4302 -0.8364
  257MOL0     C33804   4.869   1.886   7.542  0.0276 -0.3216 -0.2744
  257MOL0     C33805   4.793   1.966   7.645  0.1357  0.1107 -0.7020
  257MOL0     C33806   4.816   2.113   7.637 -0.7675  0.5409  0.2986
  257MOL0     C33807   4.739   2.184   7.751 -0.3091  0.2105 -0.1903
  257MOL0     C33808   4.791   2.323   7.766 -0.7512 -0.5047 -0.2592
  257MOL0     N33809   4.762   2.394   7.890  0.2433 -0.4476  0.1964
  257MOL0     C33810   4.647   2.454   7.921 -0.1768  0.3993 -0.6507
  257MOL0     C33811   4.672   2.510   8.047 -0.2177 -0.0064 -0.3552
  257MOL0     C33812   4.582   2.608   8.117 -0.9047  1.0156  0.1062
  257MOL0     C33813   4.440   2.564   8.087  0.3047  0.2369 -0.3685
  257MOL0     C33814   4.340   2.617   8.190 -0.0362  0.2609 -0.4920
  257MOL0     C33815   4.201   2.550   8.176  0.3067 -0.2476  0.3915
  257MOL0     O33816   4.212   2.407   8.193 -0.6432  0.2165  0.5247
  257MOL0     C33817   4.107   2.333   8.144  0.1594 -0.2826 -0.5653
  257MOL0     C33818   4.112   2.273   8.015  0.2301  0.0811 -0.6357
  257MOL0     C33819   4.010   2.182   7.974 -0.5390 -0.1035  0.9953
  257MOL0     C33820   3.910   2.144   8.058 -0.2594  0.2156 -0.6831
  257MOL0     C33821   3.814   2.037   8.016  0.2470  0.3583  0.3721
  257MOL0     O33822   3.741   1.972   8.119  0.0458  0.2724 -0.0017
  257MOL0     C33823   3.656   1.869   8.084 -0.4901 -0.2075  0.0720
  257MOL0     C33824   3.522   1.881   8.129  0.6565 -0.1136 -0.5491
  257MOL0     C33825   3.427   1.789   8.079  0.5058 -0.3495  0.2155
  257MOL0     C33826   3.457   1.688   7.987 -0.1023 -0.1800 -0.0160
  257MOL0     O33827   3.354   1.619   7.923 -0.2514 -0.3832 -0.0196
  257MOL0     C33828   3.392   1.547   7.811  0.2217 -0.0331 -0.4997
  257MOL0     C33829   3.275   1.466   7.751 -0.1745 -0.1941  0.7286
  257MOL0     C33830   3.192   1.578   7.675 -0.3425 -0.2330 -0.5715
  257MOL0     C33831   3.072   1.507   7.617  0.2308 -0.2603  0.1497
  257MOL0     C33832   2.982   1.592   7.533  0.3452  0.0428 -0.5681
  257MOL0     C33833   2.866   1.526   7.464  0.4078  0.2049  0.5724
  257MOL0     C33834   2.767   1.638   7.415 -0.1804  0.1158 -0.0442
  257MOL0     C33835   2.661   1.583   7.326 -0.4195  0.2692 -0.1714
  257MOL0    Cl33836   2.547   1.486   7.424 -0.1217 -0.0371  0.0939
  257MOL0     C33837   3.602   1.678   7.959  0.2003 -0.1402 -0.9111
  257MOL0     C33838   3.701   1.760   8.008  1.2120  0.4985 -0.1708
  257MOL0     O33839   3.805   2.019   7.894 -0.0606  0.6507 -0.0170
  257MOL0     C33840   3.895   2.208   8.187 -0.0569  0.1943  0.4623
  257MOL0     C33841   3.993   2.300   8.229 -0.8887 -0.1549  0.1454
  257MOL0     N33842   4.800   2.469   8.091  0.5695  0.0347  0.0601
  257MOL0     N33843   4.856   2.403   7.995  0.3564  0.1363  0.0191
  257MOL0     C33844   5.356   1.621   7.500 -0.2545 -0.6799 -0.7376
  257MOL0     C33845   5.498   1.636   7.511 -0.0125 -0.1400  0.1812
  257MOL0     C33846   5.901   1.832   7.372 -0.1843  0.2372 -0.3494
  257MOL0     C33847   5.966   1.788   7.488  0.9473 -0.1705 -0.3472
  257MOL0     C33848   6.106   1.790   7.490  0.7150  0.0613  0.4152
  257MOL0     C33849   6.183   1.844   7.383  0.2544  0.5907 -0.2783
  257MOL0     O33850   6.320   1.849   7.394 -0.2261  0.7570 -0.1126
  257MOL0     C33851   6.406   1.804   7.282  0.6842 -1.0461 -0.4915
  257MOL0     C33852   6.485   1.679   7.315 -0.1824 -0.8111 -0.0225
  257MOL0     C33853   6.604   1.687   7.418  0.1826  0.7264  0.3821
  257MOL0     C33854   6.703   1.782   7.360 -0.9071 -0.2086  0.6512
  257MOL0     C33855   6.825   1.766   7.447  1.0442 -0.1066  0.2251
  257MOL0     C33856   6.919   1.761   7.528 -0.2146  1.0901  0.5406
  257MOL0     C33857   6.116   1.894   7.267 -0.3685  0.5571 -0.2923
  257MOL0     C33858   5.975   1.884   7.264 -0.0872 -0.6217  0.2302
  257MOL0     H33859   5.539   1.958   7.416  1.3334  0.2576  0.9412
  257MOL0     H33860   5.267   1.928   7.391 -1.3376 -1.0972  0.7653
  257MOL0     H33861   5.100   1.629   7.619  0.2217  3.5081 -0.5468
  257MOL0     H33862   5.104   1.534   7.469 -0.4145 -0.8543  1.9393
  257MOL0     H33863   4.884   1.526   7.513  1.9941 -0.4857 -2.3919
  257MOL0     H33864   4.898   1.639   7.396 -1.3719 -0.8220 -0.0188
  257MOL0     H33865   4.885   1.709   7.680 -0.2443 -2.3616 -1.0558
  257MOL0     H33866   4.736   1.703   7.584  0.7218 -0.6993 -0.1982
  257MOL0     H33867   4.976   1.904   7.531 -0.2264 -0.4401 -4.0069
  257MOL0     H33868   4.818   1.894   7.446  0.7696  1.1828 -0.5727
  257MOL0     H33869   4.812   1.924   7.744 -1.2550 -2.4624 -1.4280
  257MOL0     H33870   4.687   1.943   7.627  0.3073  0.2094 -1.8940
  257MOL0     H33871   4.768   2.150   7.546  0.9026  3.1886  0.4026
  257MOL0     H33872   4.924   2.124   7.649 -0.2724 -3.2027  0.5312
  257MOL0     H33873   4.633   2.182   7.725 -0.5183 -0.4846  0.6877
  257MOL0     H33874   4.757   2.130   7.844  0.1300  0.6072 -0.0365
  257MOL0     H33875   4.761   2.376   7.676  2.0497  0.4787 -0.7013
  257MOL0     H33876   4.900   2.322   7.761 -0.6120  0.4785  1.6736
  257MOL0     H33877   4.556   2.441   7.864 -0.2340 -1.5178 -0.1735
  257MOL0     H33878   4.590   2.707   8.071 -0.3931  0.9544  0.0546
  257MOL0     H33879   4.613   2.615   8.221  2.0983  0.9603 -0.7021
  257MOL0     H33880   4.437   2.456   8.102  0.7436  0.1175 -1.0783
  257MOL0     H33881   4.417   2.595   7.984 -1.5199 -0.6623 -0.2648
  257MOL0     H33882   4.366   2.592   8.294 -1.0438 -0.1532 -0.3249
  257MOL0     H33883   4.340   2.726   8.181  2.4142  0.5088  1.3572
  257MOL0     H33884   4.162   2.577   8.078  2.7945 -0.3498 -0.7023
  257MOL0     H33885   4.145   2.587   8.263 -1.5345  3.3648 -2.0989
  257MOL0     H33886   4.194   2.292   7.948 -1.0447  2.7101 -1.5996
  257MOL0     H33887   4.023   2.136   7.877  0.0810  0.0835  0.9874
  257MOL0     H33888   3.493   1.965   8.191 -3.3238 -2.0846  0.5651
  257MOL0     H33889   3.323   1.798   8.110  0.0588 -0.7073 -1.1072
  257MOL0     H33890   3.467   1.475   7.844  0.6985  1.8263  2.9918
  257MOL0     H33891   3.448   1.611   7.742  0.9058 -3.0091 -2.9102
  257MOL0     H33892   3.214   1.425   7.832 -3.5726  2.0178 -0.4623
  257MOL0     H33893   3.320   1.393   7.683 -0.2977  1.3638 -1.1099
  257MOL0     H33894   3.253   1.625   7.598  1.6006  1.5742  1.8960
  257MOL0     H33895   3.154   1.661   7.735 -1.5178 -0.5321 -0.8752
  257MOL0     H33896   3.104   1.422   7.555  0.9595  1.2735 -1.7060
  257MOL0     H33897   3.021   1.464   7.703  0.0238 -0.6505 -0.1648
  257MOL0     H33898   3.041   1.642   7.455 -0.3384 -0.2715 -1.3016
  257MOL0     H33899   2.955   1.675   7.599 -0.1904  0.5735 -1.4252
  257MOL0     H33900   2.809   1.452   7.521  1.7340 -0.8082  0.6174
  257MOL0     H33901   2.898   1.468   7.378 -1.7811 -1.2461  0.6773
  257MOL0     H33902   2.718   1.681   7.503  0.1858  1.8071 -0.6249
  257MOL0     H33903   2.819   1.719   7.363 -1.0782  1.1655  0.6407
  257MOL0     H33904   2.691   1.529   7.236 -0.2984 -1.3324  0.7998
  257MOL0     H33905   2.597   1.666   7.294 -1.5536 -1.6079 -3.2183
  257MOL0     H33906   3.638   1.600   7.893  0.0019  0.5320 -1.8325
  257MOL0     H33907   3.805   1.751   7.978  1.4692 -1.4714  1.1591
  257MOL0     H33908   3.808   2.181   8.246 -0.6707  1.6293  0.2298
  257MOL0     H33909   3.979   2.348   8.325  2.1591 -0.4982  0.8526
  257MOL0     H33910   5.319   1.520   7.514 -2.6654  0.3950  1.5092
  257MOL0     H33911   5.563   1.555   7.541 -0.1128 -1.8119 -3.5901
  257MOL0     H33912   5.912   1.732   7.564 -0.8197  0.5833 -1.0049
  257MOL0     H33913   6.159   1.750   7.576 -1.6211  0.2812  2.0565
  257MOL0     H33914   6.472   1.887   7.253 -3.0378  1.6780 -2.1027
  257MOL0     H33915   6.344   1.786   7.193 -0.7213 -0.2114  0.2787
  257MOL0     H33916   6.408   1.613   7.356 -3.7068  1.1607 -2.9121
  257MOL0     H33917   6.508   1.629   7.220 -2.8022 -1.6415 -0.2941
  257MOL0     H33918   6.640   1.584   7.428 -3.7028 -0.5975  3.5642
  257MOL0     H33919   6.573   1.724   7.516  2.3779  3.8003  0.0685
  257MOL0     H33920   6.743   1.747   7.265  0.5725 -1.8007  1.8011
  257MOL0     H33921   6.663   1.884   7.358 -0.4462  0.0182 -2.4126
  257MOL0     H33922   6.989   1.767   7.608  1.5195 -0.3590 -0.7803
  257MOL0     H33923   6.166   1.926   7.176 -1.9733 -1.7775 -2.1209
  257MOL0     H33924   5.911   1.929   7.188 -0.4036 -0.3395  0.6617
  258MOL0     O33925   8.978   2.441   9.714 -0.6123  0.5297 -0.1628
  258MOL0     C33926   9.011   2.551   9.756  0.1436  0.1233 -0.0433
  258MOL0     O33927   9.004   2.603   9.888 -0.1513  0.0140 -0.1777
  258MOL0     C33928   8.947   2.530   9.991  0.3374  0.2273  0.0050
  258MOL0     C33929   8.965   2.596  10.119 -0.4148  0.3459  0.0135
  258MOL0     C33930   8.913   2.532  10.233  0.3357  0.0803 -0.4793
  258MOL0     C33931   8.841   2.412  10.226 -0.1260  0.0284  0.5911
  258MOL0     O33932   8.762   2.382  10.335  0.0897 -0.4691 -0.5696
  258MOL0     C33933   8.832   2.339  10.446 -0.0613 -0.5467  0.2102
  258MOL0     C33934   8.748   2.271  10.554 -0.1147  0.5238  0.0520
  258MOL0     C33935   8.834   2.203  10.666 -0.5326 -0.0570 -0.2032
  258MOL0     C33936   8.916   2.084  10.609 -0.3357 -0.6657 -0.4361
  258MOL0     C33937   8.992   2.003  10.727  0.8144  0.1040 -0.5496
  258MOL0     C33938   9.064   1.873  10.673  0.0756  0.4706 -0.3462
  258MOL0     C33939   8.965   1.759  10.647 -0.1859  0.4338 -0.2443
  258MOL0     C33940   9.049   1.629  10.630 -0.3230  0.4929 -0.2503
  258MOL0     N33941   9.099   1.562  10.758 -0.4478 -0.7389 -0.2629
  258MOL0     C33942   9.233   1.566  10.795  0.7566 -0.3841 -0.4586
  258MOL0     C33943   9.238   1.478  10.898  0.0415  0.1993 -0.1924
  258MOL0     C33944   9.364   1.436  10.972 -0.5019  0.5759  0.5958
  258MOL0     C33945   9.394   1.531  11.083 -0.8510  0.8134 -0.6391
  258MOL0     C33946   9.299   1.522  11.209  0.1393  0.1188  0.0871
  258MOL0     C33947   9.352   1.613  11.328 -0.4544  0.2119  0.6015
  258MOL0     O33948   9.438   1.537  11.413 -0.4327  0.0767  0.8025
  258MOL0     C33949   9.573   1.573  11.425  0.0755  0.5297  0.0392
  258MOL0     C33950   9.646   1.645  11.333  0.2735  0.5533  0.5421
  258MOL0     C33951   9.778   1.666  11.362 -0.0944  1.3809 -0.9615
  258MOL0     C33952   9.843   1.622  11.475  0.3084  0.1478 -0.2182
  258MOL0     C33953   9.984   1.654  11.493 -0.9046  0.0836  0.7552
  258MOL0     O33954  10.044   1.592  11.593  0.6817  0.6381 -0.4013
  258MOL0     C33955  10.183   1.611  11.625 -0.5063  0.0626  0.3640
  258MOL0     C33956  10.289   1.645  11.536 -0.1667  0.0923 -0.4446
  258MOL0     C33957  10.422   1.634  11.572  0.4692 -0.3624 -0.0208
  258MOL0     C33958  10.464   1.591  11.696  0.1322  0.6344 -0.0192
  258MOL0     O33959  10.591   1.565  11.738  0.3590  0.0945 -0.0097
  258MOL0     C33960  10.704   1.633  11.674 -0.2457 -0.3914 -0.3033
  258MOL0     C33961  10.833   1.620  11.761 -0.4889  0.7888  0.0068
  258MOL0     C33962  10.856   1.488  11.835 -0.1323  0.9722 -0.0571
  258MOL0     C33963  10.990   1.483  11.906  0.0712 -0.3831  0.0503
  258MOL0     C33964  11.024   1.340  11.939 -0.0467 -0.9820 -0.4900
  258MOL0     C33965  11.158   1.330  11.987 -0.6058 -0.0668 -0.1701
  258MOL0     C33966  11.205   1.182  12.027  0.1928  0.1435 -0.9870
  258MOL0     C33967  11.290   1.118  11.926  0.2953  0.0451  0.5685
  258MOL0    Cl33968  11.460   1.175  11.892 -0.0645  0.0067 -0.2987
  258MOL0     C33969  10.368   1.560  11.787  0.2747 -0.4240 -0.0274
  258MOL0     C33970  10.228   1.574  11.756 -0.3744 -0.6174 -0.1934
  258MOL0     O33971  10.036   1.724  11.405 -0.0658 -0.1306 -0.3740
  258MOL0     C33972   9.765   1.562  11.576 -0.7190 -0.0920 -0.8246
  258MOL0     C33973   9.627   1.533  11.549  0.1246 -0.2244  1.0851
  258MOL0     N33974   9.118   1.413  10.901  0.9566 -0.4552 -0.0068
  258MOL0     N33975   9.026   1.462  10.822 -0.1364  0.4471  0.0292
  258MOL0     C33976   8.826   2.354  10.102 -0.4848 -0.0973 -0.4884
  258MOL0     C33977   8.877   2.411   9.985  0.0842 -0.5873 -0.6133
  258MOL0     C33978   9.082   2.631   9.650  0.5321  0.5738 -0.8671
  258MOL0     C33979   9.164   2.735   9.686 -0.5612  0.4849  0.1034
  258MOL0     C33980   9.226   2.805   9.580 -0.0954 -0.1284 -0.5349
  258MOL0     C33981   9.217   2.773   9.449  0.3520  0.5567  1.0120
  258MOL0     O33982   9.266   2.842   9.341 -0.3364 -0.5666  0.3249
  258MOL0     C33983   9.352   2.952   9.379  0.1691  0.4118  0.7523
  258MOL0     C33984   9.388   3.043   9.251 -0.5736  0.2619 -0.2405
  258MOL0     C33985   9.473   3.157   9.299 -0.1566 -0.4593  0.0456
  258MOL0     C33986   9.526   3.241   9.176  0.4155  0.6989 -0.0346
  258MOL0     C33987   9.602   3.354   9.222  0.2992  0.1888 -0.3945
  258MOL0     C33988   9.656   3.458   9.251 -0.1078  0.4387 -0.1571
  258MOL0     C33989   9.134   2.664   9.417 -0.7290  0.4539  0.2262
  258MOL0     C33990   9.067   2.592   9.510 -0.2690 -0.0554  0.4448
  258MOL0     H33991   9.024   2.687  10.119 -0.7165  0.5561 -1.5077
  258MOL0     H33992   8.933   2.571  10.332 -1.4381 -0.0817 -0.0217
  258MOL0     H33993   8.883   2.417  10.505 -0.6649  0.3327 -0.4113
  258MOL0     H33994   8.916   2.282  10.406 -0.2659 -1.6370  1.2673
  258MOL0     H33995   8.681   2.197  10.510  1.2582 -1.0234  0.4630
  258MOL0     H33996   8.686   2.343  10.608  0.6514  0.0804  1.5864
  258MOL0     H33997   8.773   2.169  10.750 -0.7185  0.4214 -0.1404
  258MOL0     H33998   8.904   2.273  10.712  0.3578 -1.4924  0.7275
  258MOL0     H33999   8.850   2.015  10.556  0.2671 -3.4259  2.1281
  258MOL0     H34000   8.988   2.118  10.535  1.2629 -0.9011  0.9396
  258MOL0     H34001   8.914   1.973  10.798 -0.2387 -0.6665 -1.9834
  258MOL0     H34002   9.074   2.059  10.773  0.4177 -0.1777  0.5154
  258MOL0     H34003   9.148   1.837  10.732  0.6879  0.3566 -1.2639
  258MOL0     H34004   9.115   1.892  10.578  2.2392  0.5853  0.7770
  258MOL0     H34005   8.894   1.748  10.729  1.3313  0.2772  1.1110
  258MOL0     H34006   8.913   1.769  10.552 -4.0247 -1.8615  1.4076
  258MOL0     H34007   9.123   1.651  10.552 -4.6687  1.6833 -4.5154
  258MOL0     H34008   8.990   1.551  10.583  0.2004  2.0932 -3.8575
  258MOL0     H34009   9.299   1.636  10.746 -2.1174  4.4361  1.7470
  258MOL0     H34010   9.454   1.434  10.909 -1.7424 -1.6132 -1.2465
  258MOL0     H34011   9.355   1.330  10.999  0.8512  0.2005 -0.3352
  258MOL0     H34012   9.410   1.637  11.059 -1.3783  1.9983  3.3679
  258MOL0     H34013   9.491   1.506  11.127 -0.2422  3.5061 -0.2470
  258MOL0     H34014   9.198   1.548  11.175 -0.5980 -1.6030  0.8342
  258MOL0     H34015   9.287   1.420  11.246  2.2470  0.0524  0.6872
  258MOL0     H34016   9.270   1.632  11.398  0.9423 -0.7001  2.5782
  258MOL0     H34017   9.389   1.713  11.301  1.5768 -0.1216  1.9337
  258MOL0     H34018   9.605   1.664  11.234 -0.3289  0.6536  0.8103
  258MOL0     H34019   9.840   1.711  11.286  1.3824  0.8781 -0.1076
  258MOL0     H34020  10.268   1.683  11.436 -1.2055  0.2222 -0.1880
  258MOL0     H34021  10.498   1.663  11.501  0.0445  0.5758 -0.0991
  258MOL0     H34022  10.682   1.740  11.676 -1.1774 -0.5707  1.5244
  258MOL0     H34023  10.717   1.590  11.574  2.4472 -1.9195  0.6027
  258MOL0     H34024  10.829   1.696  11.839 -0.3256  1.1718 -0.3492
  258MOL0     H34025  10.920   1.654  11.704  0.9486  0.1677  1.7699
  258MOL0     H34026  10.857   1.411  11.757  1.6224  0.5115  0.3767
  258MOL0     H34027  10.770   1.460  11.896 -0.9778  0.1177 -1.5806
  258MOL0     H34028  11.063   1.514  11.830  1.2078  0.1450  1.3098
  258MOL0     H34029  10.992   1.552  11.991 -1.3428  0.4795 -0.5832
  258MOL0     H34030  11.007   1.284  11.847 -0.2453  1.7606 -2.2127
  258MOL0     H34031  10.949   1.313  12.015 -0.9003 -0.2643 -1.0542
  258MOL0     H34032  11.183   1.401  12.066  1.0231  2.4374 -2.7003
  258MOL0     H34033  11.218   1.349  11.897  0.5126 -1.6510  0.1978
  258MOL0     H34034  11.256   1.184  12.124  1.5405  0.1980 -1.6640
  258MOL0     H34035  11.112   1.130  12.050  0.5927  0.3437  1.3737
  258MOL0     H34036  11.229   1.115  11.835  1.2287  3.4689 -0.3195
  258MOL0     H34037  11.299   1.013  11.956  2.3019 -0.6227 -2.0029
  258MOL0     H34038  10.401   1.519  11.882  5.4502  2.6492 -0.1292
  258MOL0     H34039  10.162   1.533  11.831  0.0603 -0.0131  0.5381
  258MOL0     H34040   9.811   1.539  11.671  0.5567  3.8449 -0.3219
  258MOL0     H34041   9.566   1.484  11.624 -1.3841  1.4437  1.0015
  258MOL0     H34042   8.760   2.268  10.096 -2.0306  0.7151  2.5748
  258MOL0     H34043   8.848   2.376   9.887  2.1324 -1.7438 -0.8565
  258MOL0     H34044   9.176   2.766   9.789  4.5105 -3.0380  0.9263
  258MOL0     H34045   9.283   2.893   9.605 -1.2547  0.4916  0.0090
  258MOL0     H34046   9.447   2.905   9.403  1.3192  2.4258  0.3545
  258MOL0     H34047   9.312   3.018   9.456 -1.1132 -0.1284  0.5792
  258MOL0     H34048   9.435   2.986   9.170 -1.0940 -0.5910  0.0561
  258MOL0     H34049   9.293   3.084   9.215 -0.6414 -1.2493 -1.9052
  258MOL0     H34050   9.563   3.128   9.355  1.4314  0.8366 -1.6911
  258MOL0     H34051   9.413   3.218   9.367 -1.6587 -1.8280  0.0122
  258MOL0     H34052   9.590   3.182   9.110 -1.1386 -2.1559  0.8137
  258MOL0     H34053   9.446   3.284   9.116  1.2665 -1.6408 -3.0901
  258MOL0     H34054   9.713   3.547   9.267  0.5569  0.1134 -0.6347
  258MOL0     H34055   9.120   2.653   9.310 -0.6119  2.3232 -0.0285
  258MOL0     H34056   9.015   2.502   9.481 -1.0861  0.8381 -0.9538
  259MOL0     O34057  10.458   3.402  10.277 -0.0307  0.7329 -0.1678
  259MOL0     C34058  10.434   3.299  10.336 -0.9305 -0.0261 -0.0986
  259MOL0     O34059  10.335   3.281  10.419 -0.5318 -0.3392 -0.8314
  259MOL0     C34060  10.264   3.374  10.484 -0.6626 -0.9350  0.3117
  259MOL0     C34061  10.153   3.324  10.544  0.3037 -1.0435 -0.3715
  259MOL0     C34062  10.060   3.410  10.604  0.5055  0.5260 -0.7869
  259MOL0     C34063  10.065   3.547  10.587  1.0494  0.2742  0.2987
  259MOL0     O34064   9.958   3.617  10.627 -0.4269  0.2365  0.1032
  259MOL0     C34065   9.941   3.744  10.555  0.0223  0.1145 -0.4638
  259MOL0     C34066   9.893   3.743  10.404  0.1639 -0.5558 -0.4081
  259MOL0     C34067   9.761   3.667  10.373  0.1615 -0.7419 -0.6826
  259MOL0     C34068   9.731   3.707  10.226  0.2430  0.4014 -0.7023
  259MOL0     C34069   9.608   3.628  10.195 -0.8417 -0.0869 -0.2844
  259MOL0     C34070   9.549   3.684  10.061  0.0405  0.2621  0.4287
  259MOL0     C34071   9.441   3.592  10.008  0.5987 -0.5499 -0.1762
  259MOL0     C34072   9.385   3.659   9.882  0.2587  0.2279 -0.0475
  259MOL0     N34073   9.286   3.590   9.812 -0.1730 -0.5883 -0.9240
  259MOL0     C34074   9.288   3.458   9.785 -1.0605 -0.3077  0.8471
  259MOL0     C34075   9.186   3.449   9.698  0.3920  0.1764 -0.2510
  259MOL0     C34076   9.132   3.319   9.646  0.3705  0.0400  0.6141
  259MOL0     C34077   9.080   3.229   9.771  0.2858 -0.0855  0.4547
  259MOL0     C34078   8.999   3.103   9.725  0.2205  0.3162  0.4509
  259MOL0     C34079   8.931   3.020   9.834 -0.3446  0.0383  0.8053
  259MOL0     O34080   8.825   3.090   9.897 -1.0911 -0.0637 -0.6433
  259MOL0     C34081   8.751   3.024   9.994  0.1602 -0.6225  0.7096
  259MOL0     C34082   8.635   3.083  10.044  0.3685 -0.7415  0.1969
  259MOL0     C34083   8.559   3.030  10.147 -0.6601 -0.2298  0.2445
  259MOL0     C34084   8.587   2.900  10.194  0.4041  0.1180  0.0902
  259MOL0     C34085   8.510   2.827  10.288 -0.1406  0.7579  1.1738
  259MOL0     O34086   8.530   2.694  10.296  0.5796  0.2329  0.3006
  259MOL0     C34087   8.441   2.626  10.384 -0.1936  0.5695  1.1343
  259MOL0     C34088   8.297   2.640  10.371 -1.4816 -0.6975  0.0874
  259MOL0     C34089   8.216   2.583  10.467 -0.8389 -0.8421 -1.2889
  259MOL0     C34090   8.270   2.520  10.579  0.1303  0.8232  0.2900
  259MOL0     O34091   8.199   2.466  10.683 -0.5120  0.3810 -0.0324
  259MOL0     C34092   8.054   2.459  10.663 -0.5732  0.6714  0.4232
  259MOL0     C34093   7.991   2.380  10.781 -0.0681  0.6457  0.2661
  259MOL0     C34094   7.881   2.461  10.841  0.5595 -0.1945 -0.2907
  259MOL0     C34095   7.810   2.381  10.949  0.1220 -0.5450  0.7388
  259MOL0     C34096   7.688   2.453  11.001 -0.5319  0.1514  0.0419
  259MOL0     C34097   7.629   2.343  11.097 -0.3210 -0.5484 -0.2600
  259MOL0     C34098   7.519   2.406  11.197 -0.0590 -0.2045  0.3069
  259MOL0     C34099   7.461   2.294  11.285 -0.8470  0.0837  0.3355
  259MOL0    Cl34100   7.589   2.217  11.380 -0.1652  0.4887 -0.2550
  259MOL0     C34101   8.407   2.494  10.576 -0.3934  0.7206 -0.3934
  259MOL0     C34102   8.491   2.553  10.482  0.8563 -0.1695  0.0242
  259MOL0     O34103   8.425   2.889  10.346 -0.0859 -0.1787 -0.3675
  259MOL0     C34104   8.703   2.840  10.145  0.2323 -0.1130  0.2447
  259MOL0     C34105   8.782   2.900  10.045 -0.0027  0.3994  0.1119
  259MOL0     N34106   9.121   3.567   9.684  0.6637  0.0854  0.2421
  259MOL0     N34107   9.176   3.651   9.764  0.2562 -0.0184 -0.6635
  259MOL0     C34108  10.180   3.601  10.531 -0.3935 -0.3426 -0.1775
  259MOL0     C34109  10.284   3.514  10.487 -0.6778 -0.1816  0.4530
  259MOL0     C34110  10.529   3.188  10.311  0.3132 -0.2553  0.7232
  259MOL0     C34111  10.506   3.055  10.362  0.0832 -0.2296 -0.0995
  259MOL0     C34112  10.599   2.954  10.332  0.2525  0.3560 -0.3334
  259MOL0     C34113  10.721   2.970  10.267  0.6384 -0.8274  0.2204
  259MOL0     O34114  10.824   2.875  10.258  0.6052 -0.8681 -0.3775
  259MOL0     C34115  10.809   2.747  10.323 -0.2606 -0.6629 -0.2156
  259MOL0     C34116  10.938   2.676  10.286 -0.4934  0.1725 -0.1514
  259MOL0     C34117  11.066   2.742  10.332 -1.2430  0.3324 -0.4722
  259MOL0     C34118  11.191   2.649  10.324  0.4400 -0.1865 -0.6213
  259MOL0     C34119  11.215   2.582  10.193 -0.5775  0.5265  0.1669
  259MOL0     C34120  11.237   2.526  10.090 -0.5533 -0.5193 -0.0219
  259MOL0     C34121  10.739   3.095  10.208 -0.3077  0.5270 -0.5337
  259MOL0     C34122  10.649   3.197  10.234  0.0345 -0.3204  0.9444
  259MOL0     H34123  10.135   3.217  10.535 -2.1366 -0.8059  0.9022
  259MOL0     H34124   9.974   3.375  10.660 -0.3045  1.2781 -1.5166
  259MOL0     H34125  10.029   3.809  10.565  0.6828 -0.8420  0.2169
  259MOL0     H34126   9.878   3.797  10.627 -3.2365 -5.1477  1.0659
  259MOL0     H34127   9.972   3.699  10.342 -1.1827  0.4214 -2.9880
  259MOL0     H34128   9.881   3.848  10.377  1.9030  0.4254  2.2939
  259MOL0     H34129   9.688   3.706  10.445  0.3399 -2.5941  0.5673
  259MOL0     H34130   9.772   3.561  10.399  1.3328 -0.2280  1.0382
  259MOL0     H34131   9.716   3.815  10.228  1.8678  0.6509  0.1002
  259MOL0     H34132   9.809   3.685  10.151  1.4452 -1.8372  1.0765
  259MOL0     H34133   9.534   3.640  10.275 -0.3068  1.1489  0.0559
  259MOL0     H34134   9.632   3.521  10.191 -0.0697  0.0144  0.9784
  259MOL0     H34135   9.626   3.687   9.984  1.9557  0.5482  2.2789
  259MOL0     H34136   9.505   3.783  10.073  1.8374  1.0940  0.5185
  259MOL0     H34137   9.480   3.492   9.989  1.4507 -0.1722 -0.4830
  259MOL0     H34138   9.363   3.583  10.084 -0.0554  1.5105 -0.5474
  259MOL0     H34139   9.454   3.700   9.807  2.1205 -3.1104 -0.3359
  259MOL0     H34140   9.332   3.744   9.926 -0.3531 -0.2729  0.1854
  259MOL0     H34141   9.351   3.382   9.830 -0.5283  0.4334  1.3769
  259MOL0     H34142   9.210   3.269   9.588 -0.6546 -0.7787 -0.1001
  259MOL0     H34143   9.056   3.340   9.570  2.7911  1.0006 -1.7026
  259MOL0     H34144   9.022   3.294   9.837 -0.0223 -0.8328  0.9442
  259MOL0     H34145   9.173   3.188   9.811 -1.0533 -4.0646 -0.0781
  259MOL0     H34146   8.929   3.133   9.647  0.2442 -0.7666 -0.0051
  259MOL0     H34147   9.064   3.026   9.682 -2.9121 -2.6713  0.7148
  259MOL0     H34148   9.014   2.989   9.899  1.5804  0.0493 -1.4971
  259MOL0     H34149   8.887   2.933   9.786 -1.5550  1.7260 -1.3202
  259MOL0     H34150   8.597   3.177  10.004 -2.3080 -0.9154  2.0526
  259MOL0     H34151   8.474   3.083  10.187 -0.5218 -0.2870  0.6155
  259MOL0     H34152   8.250   2.681  10.282  0.1407  0.7105 -0.1593
  259MOL0     H34153   8.109   2.584  10.448 -1.0913 -0.2533  0.0447
  259MOL0     H34154   8.026   2.400  10.576 -0.4008  1.9528 -0.5355
  259MOL0     H34155   8.008   2.558  10.656 -2.5041 -0.2124 -0.1195
  259MOL0     H34156   8.068   2.351  10.852 -1.5496 -1.7508  1.0050
  259MOL0     H34157   7.947   2.287  10.743  0.6351 -0.0383  1.0996
  259MOL0     H34158   7.801   2.495  10.775  1.0203  2.2553  0.3318
  259MOL0     H34159   7.926   2.552  10.882  0.6922  0.2490 -1.3922
  259MOL0     H34160   7.791   2.281  10.907  2.8861 -0.2343 -1.5805
  259MOL0     H34161   7.875   2.362  11.035  0.5815 -1.9090  0.1232
  259MOL0     H34162   7.607   2.482  10.933 -2.4107 -0.5657  1.8545
  259MOL0     H34163   7.720   2.540  11.058 -1.6872  0.5069  0.1691
  259MOL0     H34164   7.710   2.301  11.159 -0.6050 -1.1339 -0.2782
  259MOL0     H34165   7.591   2.260  11.037 -0.5746 -0.3667 -0.3484
  259MOL0     H34166   7.562   2.486  11.259  0.2339 -0.6403  0.6719
  259MOL0     H34167   7.447   2.442  11.123  2.0429 -0.4032 -1.9733
  259MOL0     H34168   7.415   2.215  11.225  3.9075 -2.0008 -1.0473
  259MOL0     H34169   7.391   2.338  11.356 -1.4663 -0.4775  0.0840
  259MOL0     H34170   8.442   2.434  10.659 -2.2407  0.5463  0.2986
  259MOL0     H34171   8.599   2.542  10.483  1.0402  1.0120 -1.7845
  259MOL0     H34172   8.742   2.747  10.186 -1.4338 -1.4988 -1.1372
  259MOL0     H34173   8.870   2.847  10.011 -0.2160 -0.3716  0.7487
  259MOL0     H34174  10.200   3.708  10.535 -4.1082  0.6674 -2.9265
  259MOL0     H34175  10.370   3.561  10.442 -1.0702  0.1041 -0.0010
  259MOL0     H34176  10.422   3.033  10.428 -0.3542  0.0135 -0.5681
  259MOL0     H34177  10.575   2.858  10.378  2.7313 -0.7618 -1.2055
  259MOL0     H34178  10.727   2.695  10.274 -1.4534 -1.2470  2.2524
  259MOL0     H34179  10.794   2.760  10.430  0.7903  2.3409 -0.3236
  259MOL0     H34180  10.921   2.581  10.338  0.1301 -0.0444 -0.3439
  259MOL0     H34181  10.940   2.650  10.180  3.4876 -3.2845  0.5301
  259MOL0     H34182  11.053   2.770  10.436 -1.7096  1.8359 -0.9136
  259MOL0     H34183  11.084   2.830  10.270 -2.0958  0.7814 -0.0901
  259MOL0     H34184  11.279   2.702  10.363  0.5377  0.4027 -1.6065
  259MOL0     H34185  11.184   2.573  10.402 -0.0845 -1.4126 -1.8281
  259MOL0     H34186  11.265   2.477   9.999  4.1474 -0.3256  1.0660
  259MOL0     H34187  10.831   3.114  10.153  0.6892 -0.1393  0.8342
  259MOL0     H34188  10.682   3.295  10.202  0.1770 -1.2657 -2.1242
  260MOL0     O34189  10.408   3.932   1.239 -0.2616  0.1070 -0.4494
  260MOL0     C34190  10.385   3.866   1.340 -0.2618 -0.0791  0.5146
  260MOL0     O34191  10.479   3.815   1.415 -0.3146  0.6604 -0.2506
  260MOL0     C34192  10.613   3.810   1.370 -0.7276 -0.3264 -0.0798
  260MOL0     C34193  10.673   3.694   1.324  0.1170 -0.1354  0.5326
  260MOL0     C34194  10.807   3.680   1.278 -0.6036  0.0682  0.6378
  260MOL0     C34195  10.882   3.795   1.302 -0.7416  0.5593 -0.7798
  260MOL0     O34196  11.017   3.801   1.283  0.0615  0.0112 -0.2117
  260MOL0     C34197  11.094   3.684   1.307 -0.1230  0.7239  0.4622
  260MOL0     C34198  11.249   3.698   1.258  0.2079 -0.2816 -0.8710
  260MOL0     C34199  11.320   3.818   1.324 -0.6668 -0.2531 -0.8182
  260MOL0     C34200  11.472   3.823   1.295 -0.1925 -0.4294  0.6767
  260MOL0     C34201  11.531   3.955   1.359 -0.1171  0.3334 -0.0364
  260MOL0     C34202  11.675   3.945   1.376 -0.6279  0.4113 -0.3856
  260MOL0     C34203  11.753   3.966   1.246 -0.0829 -0.3415 -0.0654
  260MOL0     C34204  11.903   3.946   1.272 -0.1025 -0.1014  0.4363
  260MOL0     N34205  11.959   4.035   1.370  0.1712 -0.9039  0.7170
  260MOL0     C34206  11.989   4.165   1.352  0.8642 -0.1870  0.5655
  260MOL0     C34207  12.053   4.197   1.462 -0.3942 -0.1637 -0.3711
  260MOL0     C34208  12.106   4.333   1.485  0.0300  0.3854 -1.0488
  260MOL0     C34209  12.001   4.445   1.509 -0.1813  0.1810  1.3954
  260MOL0     C34210  11.914   4.429   1.634 -0.2653  0.4791 -0.4018
  260MOL0     C34211  11.809   4.542   1.643 -0.3519 -0.3122  0.0960
  260MOL0     O34212  11.721   4.535   1.529 -0.0588 -0.3190  0.5707
  260MOL0     C34213  11.592   4.484   1.539  0.1325  0.1310 -0.5821
  260MOL0     C34214  11.487   4.550   1.475  0.3343  0.6187 -0.4786
  260MOL0     C34215  11.351   4.517   1.501  0.3184  1.1227 -0.7598
  260MOL0     C34216  11.314   4.408   1.590  0.1485  0.2336  0.3881
  260MOL0     C34217  11.171   4.380   1.624  0.0259  0.7066 -0.6009
  260MOL0     O34218  11.150   4.294   1.732 -0.7794 -0.4991  0.4647
  260MOL0     C34219  11.016   4.275   1.755 -0.5302  0.3798  0.2017
  260MOL0     C34220  10.932   4.384   1.797 -0.2511  0.7048 -0.4544
  260MOL0     C34221  10.799   4.349   1.814  0.1454 -0.2767  1.0468
  260MOL0     C34222  10.750   4.216   1.807  0.4877  0.5558 -0.5995
  260MOL0     O34223  10.618   4.210   1.844 -0.8564  0.1339  0.2158
  260MOL0     C34224  10.533   4.115   1.777 -0.5311 -0.4786  0.0939
  260MOL0     C34225  10.388   4.100   1.828  0.1621  0.1361 -0.1047
  260MOL0     C34226  10.334   4.233   1.881  0.0786 -0.5136  0.4010
  260MOL0     C34227  10.180   4.224   1.890  0.1372 -0.3658 -0.0494
  260MOL0     C34228  10.133   4.135   2.006  0.4610  0.4865  0.2594
  260MOL0     C34229   9.981   4.114   2.010 -0.3341  0.3691  0.4432
  260MOL0     C34230   9.896   4.235   2.052 -0.0804  0.8003  1.4551
  260MOL0     C34231   9.751   4.204   2.084  0.4643 -0.2171 -0.1929
  260MOL0    Cl34232   9.639   4.337   2.027  0.1747  0.3052 -0.4242
  260MOL0     C34233  10.838   4.112   1.777  0.9584  0.1967  0.5185
  260MOL0     C34234  10.969   4.145   1.742 -0.1526  0.4032 -0.4311
  260MOL0     O34235  11.085   4.439   1.560 -0.2997  0.4525 -0.4499
  260MOL0     C34236  11.426   4.345   1.653 -0.3619 -0.4079  0.1642
  260MOL0     C34237  11.561   4.375   1.629  0.8918 -0.0546 -0.1109
  260MOL0     N34238  12.046   4.097   1.557  0.0346  0.9450  0.2897
  260MOL0     N34239  11.982   3.998   1.497  0.1792 -0.3301  0.4009
  260MOL0     C34240  10.825   3.910   1.347 -0.2684  0.7962  0.1529
  260MOL0     C34241  10.693   3.915   1.384  0.3639 -0.3177  0.3788
  260MOL0     C34242  10.253   3.825   1.380 -0.4919 -0.1862  0.7163
  260MOL0     C34243  10.226   3.737   1.484  0.5056 -0.2038 -0.0161
  260MOL0     C34244  10.092   3.725   1.523  0.3171  0.3147  0.4196
  260MOL0     C34245   9.987   3.806   1.469 -0.7390  0.4287 -0.9291
  260MOL0     O34246   9.856   3.798   1.501  0.2277  0.4562  0.2099
  260MOL0     C34247   9.805   3.740   1.628 -0.8341 -0.4691  0.0797
  260MOL0     C34248   9.671   3.794   1.662 -0.1327  0.0041 -0.9024
  260MOL0     C34249   9.655   3.940   1.708 -0.5247  1.1320  0.1585
  260MOL0     C34250   9.710   4.041   1.605  0.3127  0.4775 -0.2204
  260MOL0     C34251   9.668   4.181   1.643 -0.3007 -0.0692  0.7570
  260MOL0     C34252   9.627   4.288   1.668  0.1426  0.8682 -0.4864
  260MOL0     C34253  10.026   3.883   1.365  0.2159  0.6358 -0.4899
  260MOL0     C34254  10.151   3.897   1.312  0.4977  0.2731  0.4973
  260MOL0     H34255  10.609   3.606   1.322  0.5929 -0.4953  0.9667
  260MOL0     H34256  10.832   3.589   1.224 -1.1315  0.8880 -1.0826
  260MOL0     H34257  11.051   3.598   1.255  1.9519 -0.0297 -0.1096
  260MOL0     H34258  11.099   3.662   1.414 -0.2714 -1.3374  0.0731
  260MOL0     H34259  11.244   3.693   1.148  1.8264  1.1605 -1.0372
  260MOL0     H34260  11.301   3.605   1.284 -1.1794 -0.6434  0.7966
  260MOL0     H34261  11.306   3.806   1.432 -1.3382 -0.1771 -0.8959
  260MOL0     H34262  11.268   3.907   1.289  0.7408  0.3875 -1.3506
  260MOL0     H34263  11.519   3.744   1.355  0.5029  0.6459  1.6150
  260MOL0     H34264  11.492   3.819   1.188  0.4449 -0.3663  0.7870
  260MOL0     H34265  11.484   3.963   1.458  1.9285 -3.0912  1.3817
  260MOL0     H34266  11.504   4.048   1.308 -1.9196 -0.4372 -0.5864
  260MOL0     H34267  11.710   3.857   1.430  2.7446  0.7344 -1.8386
  260MOL0     H34268  11.707   4.024   1.445 -1.1638  0.4002 -0.1150
  260MOL0     H34269  11.711   3.891   1.178 -0.9894  1.8224 -2.0405
  260MOL0     H34270  11.751   4.068   1.205  1.5664 -0.0828  0.4506
  260MOL0     H34271  11.960   3.956   1.179  2.9271 -0.9278  2.0896
  260MOL0     H34272  11.909   3.843   1.310 -0.3551  0.2947  1.5916
  260MOL0     H34273  11.974   4.229   1.265 -0.0183 -0.0275  0.8272
  260MOL0     H34274  12.177   4.360   1.406  0.7778 -2.6951 -1.5685
  260MOL0     H34275  12.175   4.331   1.570  0.3870  4.9092 -1.0279
  260MOL0     H34276  11.934   4.435   1.423  0.1536 -0.5101  1.2053
  260MOL0     H34277  12.036   4.547   1.497  2.5034 -0.9041 -1.3245
  260MOL0     H34278  11.860   4.335   1.648  0.3768 -0.1485 -1.9358
  260MOL0     H34279  11.982   4.426   1.720  0.2907  1.9298 -0.7685
  260MOL0     H34280  11.862   4.637   1.641  2.2803 -1.6493 -2.2737
  260MOL0     H34281  11.756   4.533   1.738 -0.6563  1.7269  0.1474
  260MOL0     H34282  11.505   4.639   1.415 -1.9309 -0.4080 -2.8424
  260MOL0     H34283  11.283   4.572   1.437 -0.4147  1.5653  0.3682
  260MOL0     H34284  10.978   4.481   1.808  2.1140 -0.2552 -1.2059
  260MOL0     H34285  10.732   4.430   1.840  2.6682  2.4309 -0.2538
  260MOL0     H34286  10.575   4.015   1.762  0.2623  0.2227 -3.2811
  260MOL0     H34287  10.532   4.142   1.671 -0.6241 -0.2244  0.1605
  260MOL0     H34288  10.374   4.022   1.903 -3.7845  0.2479 -0.5037
  260MOL0     H34289  10.329   4.064   1.743 -0.0461  0.6086 -0.1627
  260MOL0     H34290  10.365   4.312   1.811  0.6013 -0.3994  0.7582
  260MOL0     H34291  10.391   4.265   1.968  1.5291 -0.8974 -0.3663
  260MOL0     H34292  10.137   4.323   1.910  1.1225  0.1801 -0.5225
  260MOL0     H34293  10.140   4.194   1.793 -0.8358  1.3572 -0.2277
  260MOL0     H34294  10.164   4.190   2.095 -0.5622 -0.4903  1.2497
  260MOL0     H34295  10.186   4.040   2.007  0.2018  0.2880  3.2593
  260MOL0     H34296   9.963   4.036   2.084 -1.5176  0.0041 -0.1977
  260MOL0     H34297   9.940   4.077   1.915  0.9693 -1.2622  0.4889
  260MOL0     H34298   9.942   4.290   2.135 -1.7867 -0.3819  3.2817
  260MOL0     H34299   9.908   4.302   1.967  1.4210 -0.7265  0.4085
  260MOL0     H34300   9.752   4.190   2.192 -0.5819  0.5606 -0.0597
  260MOL0     H34301   9.726   4.108   2.038 -4.1120  0.4380  0.4654
  260MOL0     H34302  10.803   4.012   1.756  3.0617 -0.8485  1.7466
  260MOL0     H34303  11.033   4.060   1.721 -2.3936 -1.8152  1.1479
  260MOL0     H34304  11.406   4.270   1.729 -0.3524  0.2692  0.8521
  260MOL0     H34305  11.644   4.329   1.681 -0.2711  0.5720  2.4397
  260MOL0     H34306  10.872   4.007   1.362 -0.6964  0.8249  1.4603
  260MOL0     H34307  10.644   4.009   1.407 -1.8321 -0.8743 -1.6864
  260MOL0     H34308  10.298   3.682   1.545  0.6826 -1.0207 -0.9289
  260MOL0     H34309  10.063   3.647   1.593 -2.1013 -1.3473 -2.1758
  260MOL0     H34310   9.862   3.769   1.716 -1.8081  1.8817  0.0185
  260MOL0     H34311   9.794   3.632   1.625 -0.4947 -0.5479  1.2341
  260MOL0     H34312   9.609   3.780   1.573 -2.6574 -0.0147  0.7499
  260MOL0     H34313   9.636   3.726   1.741  2.2682 -0.0144  0.2213
  260MOL0     H34314   9.716   3.954   1.798  1.4040  1.5103 -1.1706
  260MOL0     H34315   9.552   3.966   1.735 -0.2870  2.0921  0.1863
  260MOL0     H34316   9.819   4.039   1.598  0.2173 -0.3446 -1.9391
  260MOL0     H34317   9.673   4.004   1.509 -1.2909 -1.1577  0.9452
  260MOL0     H34318   9.595   4.386   1.698  0.5805  0.8301  0.1223
  260MOL0     H34319   9.950   3.951   1.328  0.4982 -0.8401 -4.2866
  260MOL0     H34320  10.167   3.968   1.231 -0.4469 -1.6183 -1.4300
  261MOL0     O34321   4.740   9.769  11.084 -0.0344 -0.4914 -0.2219
  261MOL0     C34322   4.770   9.711  11.188  1.4806 -0.5137 -0.3086
  261MOL0     O34323   4.691   9.617  11.248  0.2186 -0.4873 -0.4599
  261MOL0     C34324   4.570   9.588  11.178  0.0836  0.1664 -0.0815
  261MOL0     C34325   4.458   9.677  11.168 -0.4588  0.0305  0.5890
  261MOL0     C34326   4.339   9.623  11.103 -0.0393 -0.2371 -0.2548
  261MOL0     C34327   4.332   9.495  11.046 -0.5526 -0.2090  0.2649
  261MOL0     O34328   4.214   9.463  10.993  0.1563 -0.2926  0.1857
  261MOL0     C34329   4.189   9.335  10.951  0.6689  0.5627  0.3406
  261MOL0     C34330   4.059   9.317  10.886 -0.2581 -0.1034  0.3149
  261MOL0     C34331   3.928   9.332  10.964 -0.8176  0.3296 -0.1938
  261MOL0     C34332   3.813   9.294  10.867  0.2909  0.9429 -0.2909
  261MOL0     C34333   3.677   9.303  10.946  0.1290 -0.1409  0.2171
  261MOL0     C34334   3.614   9.440  10.908  0.1595  0.2212 -0.0907
  261MOL0     C34335   3.483   9.461  10.975 -0.1532  0.2322  0.5259
  261MOL0     C34336   3.433   9.608  10.954  0.1543  0.3675  0.7315
  261MOL0     N34337   3.357   9.640  11.074  0.4199 -0.1709 -0.0792
  261MOL0     C34338   3.228   9.600  11.092 -0.3811  0.1337  0.2063
  261MOL0     C34339   3.190   9.639  11.217  0.2780 -1.0063  0.0626
  261MOL0     C34340   3.057   9.621  11.281 -0.6454  0.9418  0.1169
  261MOL0     C34341   2.955   9.723  11.226  0.1321  0.4440 -0.1422
  261MOL0     C34342   2.813   9.663  11.251  0.4681 -0.0491  0.1581
  261MOL0     C34343   2.701   9.751  11.200  0.7209  0.2621  0.1662
  261MOL0     O34344   2.581   9.752  11.289  0.6586 -1.1414 -0.3136
  261MOL0     C34345   2.458   9.725  11.235  0.2375  0.8844 -0.5872
  261MOL0     C34346   2.344   9.763  11.299  0.3292  0.7555  0.4371
  261MOL0     C34347   2.223   9.735  11.244  0.1100  0.5215 -0.5768
  261MOL0     C34348   2.208   9.658  11.121 -0.2627 -0.2523  0.1584
  261MOL0     C34349   2.081   9.632  11.063 -0.4568 -1.0179 -0.0220
  261MOL0     O34350   2.065   9.541  10.962  0.3619  0.1783 -0.0172
  261MOL0     C34351   1.956   9.457  10.960 -0.1862 -0.9346  0.4660
  261MOL0     C34352   1.860   9.471  10.860 -0.0360  0.3019  1.0240
  261MOL0     C34353   1.742   9.386  10.872 -1.4458  0.1186  0.0116
  261MOL0     C34354   1.730   9.297  10.984 -0.9789  0.8328 -0.4831
  261MOL0     O34355   1.623   9.212  10.999 -0.4305  0.1341  0.3720
  261MOL0     C34356   1.562   9.164  10.876 -0.3121  0.0376 -0.0195
  261MOL0     C34357   1.455   9.071  10.915  0.8601 -0.3521 -0.3365
  261MOL0     C34358   1.410   8.988  10.796 -0.2352 -1.0103  0.3320
  261MOL0     C34359   1.279   8.933  10.832 -0.7489 -0.2225 -0.8010
  261MOL0     C34360   1.219   8.842  10.715 -0.3374  0.1039 -0.3006
  261MOL0     C34361   1.072   8.794  10.746  0.0007  0.6885  0.3363
  261MOL0     C34362   0.962   8.895  10.762  0.7233  0.0012  0.3671
  261MOL0     C34363   0.815   8.827  10.783  0.1657  0.7302 -0.6750
  261MOL0    Cl34364   0.815   8.737  10.948 -0.3761  0.0760 -0.2746
  261MOL0     C34365   1.832   9.290  11.080  0.6116 -0.6788 -0.3981
  261MOL0     C34366   1.947   9.364  11.063  0.9306  0.0484 -0.6303
  261MOL0     O34367   1.985   9.685  11.118 -0.2287  0.7971  0.2150
  261MOL0     C34368   2.327   9.594  11.072 -0.0522 -0.0571 -0.6187
  261MOL0     C34369   2.450   9.638  11.126  0.3164  0.0791  0.5296
  261MOL0     N34370   3.290   9.722  11.268 -0.4170  0.6645  0.1443
  261MOL0     N34371   3.390   9.714  11.183  0.4980  0.2974 -0.3465
  261MOL0     C34372   4.454   9.420  11.034 -0.1802 -0.1143  1.0591
  261MOL0     C34373   4.571   9.464  11.109 -0.1158  0.2488  0.3243
  261MOL0     C34374   4.901   9.734  11.253  0.0423 -0.5020  0.8305
  261MOL0     C34375   4.936   9.665  11.368 -0.4085  0.0873 -0.3421
  261MOL0     C34376   5.066   9.676  11.426 -0.0434  0.2951 -0.0078
  261MOL0     C34377   5.164   9.755  11.366 -0.3898  0.6228 -0.7466
  261MOL0     O34378   5.294   9.759  11.421 -0.2147  0.4360 -0.7102
  261MOL0     C34379   5.384   9.867  11.392 -0.4443 -0.2795 -0.5472
  261MOL0     C34380   5.490   9.896  11.505 -0.5291  0.5955  0.1443
  261MOL0     C34381   5.591   9.778  11.543  0.3157 -0.3626  0.1592
  261MOL0     C34382   5.707   9.774  11.433 -0.2396  0.2025 -0.0924
  261MOL0     C34383   5.808   9.673  11.451 -0.2770  0.3769  0.5303
  261MOL0     C34384   5.892   9.586  11.472 -0.3426 -0.2154  0.2920
  261MOL0     C34385   5.132   9.824  11.256 -0.2959  0.2129  0.4851
  261MOL0     C34386   5.005   9.817  11.202 -0.3384  0.0778  0.4193
  261MOL0     H34387   4.452   9.764  11.232 -0.6965  0.1508  0.3998
  261MOL0     H34388   4.243   9.674  11.097 -0.9485 -1.8106  0.2708
  261MOL0     H34389   4.183   9.268  11.037 -1.1622  2.8009  2.0875
  261MOL0     H34390   4.267   9.301  10.882 -0.7208  1.9868 -2.1204
  261MOL0     H34391   4.071   9.214  10.852  3.0302  0.4476 -0.5184
  261MOL0     H34392   4.056   9.388  10.803 -1.5865 -0.1782  0.2852
  261MOL0     H34393   3.923   9.439  10.989 -1.2804  0.2239  0.1832
  261MOL0     H34394   3.931   9.263  11.049 -1.2440 -0.5576 -0.8906
  261MOL0     H34395   3.811   9.357  10.777 -0.5807  2.4792  0.7517
  261MOL0     H34396   3.823   9.191  10.833 -0.6537  1.5731 -2.7007
  261MOL0     H34397   3.701   9.277  11.050  2.1449 -0.7755 -0.3490
  261MOL0     H34398   3.608   9.228  10.906  2.1640 -0.3450 -3.3834
  261MOL0     H34399   3.593   9.444  10.801 -0.1012 -0.4395 -0.0741
  261MOL0     H34400   3.686   9.515  10.940  1.3871 -1.5497  1.6087
  261MOL0     H34401   3.414   9.388  10.932 -1.2528  1.4911  0.0806
  261MOL0     H34402   3.486   9.433  11.081 -2.7234 -0.4776  0.4659
  261MOL0     H34403   3.362   9.607  10.871 -0.7382 -0.6994  1.4698
  261MOL0     H34404   3.513   9.680  10.934  0.4529 -0.2388 -0.3043
  261MOL0     H34405   3.180   9.526  11.028  5.1288 -1.4794 -2.7801
  261MOL0     H34406   3.066   9.637  11.389  0.3829 -1.1722  0.3921
  261MOL0     H34407   3.040   9.515  11.262  1.0618  0.4662  1.0228
  261MOL0     H34408   2.965   9.733  11.117  0.9573  0.0436 -0.1123
  261MOL0     H34409   2.975   9.816  11.280  0.5240 -0.7016  1.7920
  261MOL0     H34410   2.803   9.570  11.195 -1.4280 -0.6838  1.4421
  261MOL0     H34411   2.801   9.631  11.355  2.4292  0.7667  0.6829
  261MOL0     H34412   2.668   9.738  11.097 -2.7559 -0.6198  1.2692
  261MOL0     H34413   2.736   9.854  11.210  1.2701  0.2948 -1.6728
  261MOL0     H34414   2.363   9.807  11.396  1.8529 -1.2789  1.1285
  261MOL0     H34415   2.126   9.753  11.291 -0.3884 -2.8800 -0.0833
  261MOL0     H34416   1.866   9.545  10.781  1.9820 -2.8202 -1.9921
  261MOL0     H34417   1.668   9.396  10.793 -0.6661  1.1428 -0.6243
  261MOL0     H34418   1.636   9.108  10.818  1.0281 -0.0628  1.6877
  261MOL0     H34419   1.512   9.243  10.820  1.2578  0.6905 -0.5591
  261MOL0     H34420   1.372   9.131  10.954 -0.3947 -1.2455 -1.5167
  261MOL0     H34421   1.484   8.999  10.992 -4.6957 -2.2081  0.4513
  261MOL0     H34422   1.486   8.918  10.761  2.6229  1.2027  1.7250
  261MOL0     H34423   1.386   9.051  10.709  0.9765  2.3724  2.2751
  261MOL0     H34424   1.286   8.869  10.921 -1.8875 -0.0636 -0.5809
  261MOL0     H34425   1.214   9.018  10.854 -0.6510 -0.3846  0.1323
  261MOL0     H34426   1.284   8.755  10.706 -1.4754 -1.3833  3.7753
  261MOL0     H34427   1.216   8.899  10.621  0.0623  1.2358  0.3461
  261MOL0     H34428   1.083   8.746  10.844 -1.4493  0.1614  0.2714
  261MOL0     H34429   1.059   8.714  10.672  0.1450  0.0436  0.9950
  261MOL0     H34430   0.987   8.968  10.840  2.4934 -0.3834  0.2039
  261MOL0     H34431   0.945   8.953  10.671 -4.2065  0.3040  1.1979
  261MOL0     H34432   0.778   8.756  10.708 -2.9432 -0.1409  1.4779
  261MOL0     H34433   0.732   8.899  10.788 -0.4619 -0.0391  0.3970
  261MOL0     H34434   1.811   9.227  11.166 -1.3076  0.1834 -0.1825
  261MOL0     H34435   2.034   9.351  11.127 -1.1264 -3.0520  1.8503
  261MOL0     H34436   2.322   9.528  10.986  0.1123 -0.1643 -0.5455
  261MOL0     H34437   2.532   9.596  11.069 -1.5097 -0.1166 -2.1526
  261MOL0     H34438   4.455   9.323  10.984  1.2915 -0.3901  1.5752
  261MOL0     H34439   4.659   9.402  11.123  0.5024  0.6246 -1.5914
  261MOL0     H34440   4.880   9.586  11.416  0.1531 -0.1800 -0.1105
  261MOL0     H34441   5.101   9.622  11.514  1.6398  2.0545  0.4764
  261MOL0     H34442   5.321   9.956  11.388 -2.2893 -1.4035  1.2145
  261MOL0     H34443   5.428   9.843  11.295  0.7586 -0.1570 -0.0458
  261MOL0     H34444   5.537   9.993  11.488 -1.2348  1.0586  0.7837
  261MOL0     H34445   5.435   9.918  11.597  2.2254  1.0525  1.7840
  261MOL0     H34446   5.542   9.682  11.559  1.6580 -1.2094 -0.5806
  261MOL0     H34447   5.636   9.808  11.638 -1.1473 -0.8265  1.0301
  261MOL0     H34448   5.674   9.767  11.329 -0.1781 -1.4755 -0.0307
  261MOL0     H34449   5.765   9.866  11.447  1.0887 -1.0844  4.2941
  261MOL0     H34450   5.975   9.518  11.468  2.9149  3.3385  1.3258
  261MOL0     H34451   5.197   9.884  11.193  1.7262 -2.9615 -0.7091
  261MOL0     H34452   4.993   9.867  11.106 -1.1668  1.1622  1.0597
  262MOL0     O34453   6.790   9.436   6.611  0.0082  0.1186 -0.8454
  262MOL0     C34454   6.845   9.475   6.509  0.2404  0.1981 -0.3675
  262MOL0     O34455   6.785   9.517   6.389 -0.1244 -0.2503  0.4726
  262MOL0     C34456   6.652   9.495   6.367  0.0407  0.3197 -0.1585
  262MOL0     C34457   6.541   9.519   6.451  0.1349  1.1875 -0.1166
  262MOL0     C34458   6.412   9.469   6.424 -0.3421 -0.1426 -0.1933
  262MOL0     C34459   6.388   9.404   6.298 -0.1308 -0.8274 -0.7188
  262MOL0     O34460   6.264   9.356   6.266 -0.3094 -0.5391  0.3597
  262MOL0     C34461   6.184   9.449   6.190  1.0020 -0.1288  0.1247
  262MOL0     C34462   6.144   9.379   6.060  0.4715  0.1845  0.5796
  262MOL0     C34463   6.033   9.452   5.974  0.2051 -0.1155  0.1279
  262MOL0     C34464   5.946   9.366   5.889 -0.4292 -0.4840  0.2033
  262MOL0     C34465   5.836   9.437   5.810  0.3247 -0.3772  1.0595
  262MOL0     C34466   5.713   9.461   5.895 -0.3676 -0.6328  0.5762
  262MOL0     C34467   5.585   9.503   5.815  0.2400 -0.0380 -0.5991
  262MOL0     C34468   5.459   9.542   5.902  0.5743 -0.0693 -0.9561
  262MOL0     N34469   5.348   9.602   5.824  0.6760  0.1134  0.7356
  262MOL0     C34470   5.218   9.629   5.869 -0.3020 -0.2014 -0.0595
  262MOL0     C34471   5.149   9.671   5.757 -0.9845  0.5003 -0.0588
  262MOL0     C34472   5.003   9.724   5.761 -0.5865 -0.1255 -0.1208
  262MOL0     C34473   4.908   9.606   5.766 -0.5191 -0.3836  0.2210
  262MOL0     C34474   4.764   9.667   5.780  0.2733 -0.1038 -0.9013
  262MOL0     C34475   4.638   9.583   5.767 -1.3588 -0.2399 -0.1478
  262MOL0     O34476   4.614   9.514   5.880  0.4101  1.0996 -0.7564
  262MOL0     C34477   4.482   9.498   5.919 -0.2399 -0.2072 -0.5343
  262MOL0     C34478   4.468   9.462   6.058 -0.4438  0.2743 -0.1873
  262MOL0     C34479   4.344   9.466   6.115 -0.0631 -0.1141  0.5079
  262MOL0     C34480   4.232   9.461   6.032  0.5838 -0.6300 -0.9277
  262MOL0     C34481   4.099   9.439   6.097 -0.2898  0.0197  0.3189
  262MOL0     O34482   4.090   9.391   6.228 -0.8621 -0.2920  0.2420
  262MOL0     C34483   3.971   9.352   6.280  0.8030  0.0442 -0.0972
  262MOL0     C34484   3.918   9.426   6.389 -0.2564  0.7303  0.3168
  262MOL0     C34485   3.807   9.379   6.458 -0.2231  0.8728  0.1537
  262MOL0     C34486   3.745   9.261   6.423 -0.5080  0.3543  0.1859
  262MOL0     O34487   3.652   9.211   6.510 -0.5320  0.6954  0.0103
  262MOL0     C34488   3.522   9.195   6.457  0.1209 -0.2470 -1.0427
  262MOL0     C34489   3.418   9.268   6.541  0.9169  0.2068  0.6704
  262MOL0     C34490   3.277   9.252   6.474 -0.1799  0.0164  0.1103
  262MOL0     C34491   3.178   9.328   6.553  0.0982 -0.7341 -0.2787
  262MOL0     C34492   3.043   9.340   6.481 -0.2410  0.3499 -0.3664
  262MOL0     C34493   2.938   9.401   6.579 -0.6824 -0.0756  0.4254
  262MOL0     C34494   2.801   9.422   6.509  0.7072  0.1051  0.6463
  262MOL0     C34495   2.722   9.522   6.600 -0.1655 -0.3264 -1.1872
  262MOL0    Cl34496   2.796   9.684   6.582  0.0781  0.1924 -0.5703
  262MOL0     C34497   3.807   9.182   6.321  0.3917  0.1240  0.2203
  262MOL0     C34498   3.915   9.227   6.248  0.2763  0.0873  0.0421
  262MOL0     O34499   3.999   9.453   6.024  0.3970  0.3367  0.0748
  262MOL0     C34500   4.250   9.486   5.897  0.2049 -0.0408  0.3365
  262MOL0     C34501   4.372   9.512   5.838  0.0693  1.2774  0.2558
  262MOL0     N34502   5.227   9.657   5.648  0.5627 -0.0891  0.9432
  262MOL0     N34503   5.343   9.615   5.689  0.4554 -0.0436  0.6085
  262MOL0     C34504   6.493   9.400   6.204  0.4103  0.2565  0.1849
  262MOL0     C34505   6.623   9.437   6.243  0.2090 -0.3796  0.4103
  262MOL0     C34506   6.993   9.497   6.520  0.3998 -0.2528 -0.6795
  262MOL0     C34507   7.065   9.537   6.405  0.3642  0.0101  0.2352
  262MOL0     C34508   7.206   9.554   6.414 -0.7246 -0.7969 -0.1507
  262MOL0     C34509   7.274   9.529   6.534 -1.4340  0.3456  0.3037
  262MOL0     O34510   7.412   9.547   6.550  0.3493  0.2324  0.7750
  262MOL0     C34511   7.479   9.637   6.467  0.0287 -0.9112 -0.0671
  262MOL0     C34512   7.628   9.655   6.509  1.0043  0.6110  0.4620
  262MOL0     C34513   7.709   9.545   6.447 -0.6227  0.9398  0.8189
  262MOL0     C34514   7.854   9.533   6.484 -0.0683 -1.0102  0.7002
  262MOL0     C34515   7.915   9.667   6.490 -0.0605  0.1994  0.0965
  262MOL0     C34516   7.966   9.773   6.486  0.6078 -0.7450 -0.3674
  262MOL0     C34517   7.202   9.485   6.646  0.7461 -0.7653 -0.4787
  262MOL0     C34518   7.059   9.470   6.637 -0.6465  0.2089 -0.7232
  262MOL0     H34519   6.555   9.573   6.544 -4.2021 -2.6940  3.2907
  262MOL0     H34520   6.324   9.483   6.485  0.9414  3.5432  1.0636
  262MOL0     H34521   6.240   9.543   6.175 -2.9088  2.0887 -2.3515
  262MOL0     H34522   6.095   9.489   6.238  2.2848  0.4935  2.1147
  262MOL0     H34523   6.101   9.286   6.098 -1.4628  1.4501  1.6525
  262MOL0     H34524   6.232   9.348   6.003  1.0322  1.7122  0.5739
  262MOL0     H34525   6.077   9.525   5.905  1.5153 -1.4664 -0.5204
  262MOL0     H34526   5.973   9.514   6.042  0.6470  2.5286 -1.7269
  262MOL0     H34527   6.015   9.311   5.824  2.0286  0.3148  1.9680
  262MOL0     H34528   5.909   9.294   5.962  3.4482 -0.2691  2.6421
  262MOL0     H34529   5.796   9.379   5.726  1.5609  0.9185 -0.4992
  262MOL0     H34530   5.874   9.530   5.767  0.4477 -0.4897  0.9251
  262MOL0     H34531   5.741   9.546   5.958  1.7396  0.3588 -1.5295
  262MOL0     H34532   5.695   9.371   5.955  4.2266 -2.6522 -0.6356
  262MOL0     H34533   5.606   9.596   5.761  0.1582  2.0649  2.6834
  262MOL0     H34534   5.559   9.426   5.742 -0.6791  1.9050 -2.4461
  262MOL0     H34535   5.499   9.612   5.976 -1.8191  0.0804  0.3018
  262MOL0     H34536   5.426   9.451   5.953 -0.8457  1.8218  1.7471
  262MOL0     H34537   5.187   9.631   5.972  0.6054  0.6230  0.2217
  262MOL0     H34538   4.982   9.788   5.674  0.9098  2.4062  1.2687
  262MOL0     H34539   4.981   9.791   5.844 -1.4406  1.2814 -1.4167
  262MOL0     H34540   4.929   9.554   5.859  0.0039  1.3062  1.0988
  262MOL0     H34541   4.916   9.541   5.678  0.7680 -0.9042  0.7017
  262MOL0     H34542   4.762   9.705   5.883  1.0664 -2.2968 -0.0148
  262MOL0     H34543   4.753   9.755   5.716  3.0655  2.6105  1.9325
  262MOL0     H34544   4.642   9.514   5.683 -0.6759 -0.7924  0.3365
  262MOL0     H34545   4.559   9.654   5.739 -1.5099  0.6820  2.3485
  262MOL0     H34546   4.555   9.435   6.118 -1.9535  0.6427  2.3264
  262MOL0     H34547   4.347   9.447   6.222  0.8901 -0.5678  0.4158
  262MOL0     H34548   3.957   9.523   6.416  4.2589  0.1145 -2.9329
  262MOL0     H34549   3.776   9.445   6.539  0.5301 -0.1673  1.3244
  262MOL0     H34550   3.489   9.092   6.441  1.6705 -1.0883  0.7133
  262MOL0     H34551   3.518   9.249   6.362 -1.3008  2.0160  0.2141
  262MOL0     H34552   3.442   9.375   6.541  1.8578  0.0199  2.0349
  262MOL0     H34553   3.419   9.219   6.639  2.8698  2.6147  1.9626
  262MOL0     H34554   3.263   9.144   6.463  0.6945 -0.1711  0.6616
  262MOL0     H34555   3.266   9.292   6.373 -1.5128  0.4178  0.3953
  262MOL0     H34556   3.175   9.272   6.647  1.6927 -0.6793 -0.1582
  262MOL0     H34557   3.214   9.430   6.566  1.5409 -1.1248 -0.9214
  262MOL0     H34558   3.005   9.239   6.459 -0.5916  0.1767  0.9279
  262MOL0     H34559   3.047   9.406   6.395 -1.2931 -1.5232 -1.9422
  262MOL0     H34560   2.976   9.499   6.608 -1.7227  0.6410 -0.5295
  262MOL0     H34561   2.916   9.335   6.663 -0.7729  0.3631  0.7474
  262MOL0     H34562   2.807   9.460   6.407 -1.0595 -0.0443  0.4671
  262MOL0     H34563   2.751   9.324   6.508 -0.3631  0.5718 -2.6748
  262MOL0     H34564   2.729   9.487   6.704  1.1162  0.0762 -1.1132
  262MOL0     H34565   2.615   9.522   6.578 -0.2667  1.7791 -0.9133
  262MOL0     H34566   3.765   9.085   6.297  1.6632 -0.0963 -1.2660
  262MOL0     H34567   3.956   9.179   6.160  0.8450 -2.7503  1.7214
  262MOL0     H34568   4.156   9.489   5.842 -1.2831 -0.6777  2.6821
  262MOL0     H34569   4.366   9.520   5.730  2.2645 -2.1309 -0.2861
  262MOL0     H34570   6.479   9.358   6.104  1.7250  2.3049 -0.9310
  262MOL0     H34571   6.706   9.429   6.174  2.2259 -1.0018  2.7496
  262MOL0     H34572   7.005   9.553   6.316 -0.8351 -1.2793  0.7761
  262MOL0     H34573   7.263   9.599   6.333  1.9596  1.0423  2.5392
  262MOL0     H34574   7.429   9.734   6.477  0.1878 -0.5878 -2.0024
  262MOL0     H34575   7.481   9.611   6.360  1.4355  1.3229 -0.6447
  262MOL0     H34576   7.659   9.754   6.473  2.4184 -0.4855 -1.5721
  262MOL0     H34577   7.639   9.651   6.618  1.7734  3.5651  0.5858
  262MOL0     H34578   7.690   9.555   6.340 -1.5049 -2.9158  0.4630
  262MOL0     H34579   7.669   9.445   6.462  2.4435 -1.0986 -2.8506
  262MOL0     H34580   7.862   9.476   6.577 -2.8906 -2.5118  0.1280
  262MOL0     H34581   7.906   9.475   6.406  0.0151 -0.5088  0.3806
  262MOL0     H34582   8.021   9.864   6.472 -1.6192  1.5071  3.6880
  262MOL0     H34583   7.250   9.482   6.743 -1.1663  2.1713  0.6979
  262MOL0     H34584   7.008   9.447   6.730 -0.1525  1.2734 -0.1809
  263MOL0     O34585   9.779   6.535   1.351  0.2814  0.0477  0.0945
  263MOL0     C34586   9.851   6.631   1.380  0.5164  0.1658  1.1190
  263MOL0     O34587   9.814   6.742   1.458 -0.2656 -0.2085  0.3596
  263MOL0     C34588   9.682   6.760   1.492  0.5508 -0.3854 -0.4108
  263MOL0     C34589   9.631   6.655   1.577  0.3981 -0.1856 -0.2708
  263MOL0     C34590   9.506   6.667   1.644 -0.4664 -0.5074  0.5676
  263MOL0     C34591   9.421   6.781   1.610 -0.2412 -0.0101  0.0833
  263MOL0     O34592   9.292   6.805   1.647  0.3787  0.6700 -0.1681
  263MOL0     C34593   9.217   6.702   1.704 -0.5692 -0.7222 -0.4166
  263MOL0     C34594   9.072   6.749   1.751 -0.3376  0.5310  0.4173
  263MOL0     C34595   8.985   6.801   1.641  0.1809  0.0773 -0.4917
  263MOL0     C34596   8.847   6.863   1.686 -0.2396  0.2065 -0.1204
  263MOL0     C34597   8.754   6.767   1.764  0.1658 -0.2765  0.6763
  263MOL0     C34598   8.724   6.635   1.691  0.4851  0.0504  0.0154
  263MOL0     C34599   8.682   6.660   1.548  0.1124 -0.6833  0.6266
  263MOL0     C34600   8.592   6.540   1.491  0.0033 -0.0114  0.1378
  263MOL0     N34601   8.451   6.564   1.534 -0.1464 -0.2381  0.3904
  263MOL0     C34602   8.369   6.660   1.476  0.8814 -0.8026  0.4023
  263MOL0     C34603   8.251   6.647   1.538  0.4179 -0.4428 -0.7296
  263MOL0     C34604   8.131   6.728   1.525  0.9183 -0.3192 -0.6969
  263MOL0     C34605   8.160   6.875   1.523 -0.6650 -0.1319 -0.2554
  263MOL0     C34606   8.045   6.956   1.462  0.1619  0.0337 -0.0569
  263MOL0     C34607   7.907   6.925   1.534 -0.0517 -0.1181  0.6995
  263MOL0     O34608   7.823   7.033   1.517  0.4547 -0.4779 -0.2423
  263MOL0     C34609   7.705   7.024   1.587  0.5463  0.1248 -0.1646
  263MOL0     C34610   7.603   7.112   1.554  0.5237  0.8018 -1.1670
  263MOL0     C34611   7.489   7.132   1.637  0.5194  0.3693  0.0717
  263MOL0     C34612   7.468   7.041   1.739  0.2657 -0.3764 -0.4340
  263MOL0     C34613   7.332   7.050   1.810 -0.1080  0.0941  0.1038
  263MOL0     O34614   7.300   6.929   1.870  0.2116 -0.3250 -0.3070
  263MOL0     C34615   7.177   6.913   1.931  0.5470 -0.6376 -0.5532
  263MOL0     C34616   7.164   6.845   2.051 -0.5469  0.0117  0.0351
  263MOL0     C34617   7.045   6.832   2.119  0.2600  0.8399  0.3639
  263MOL0     C34618   6.919   6.867   2.059 -0.0788  0.7379  0.1780
  263MOL0     O34619   6.801   6.849   2.126 -0.0594 -0.4497 -0.3209
  263MOL0     C34620   6.678   6.922   2.082  0.3733  0.1800 -0.0065
  263MOL0     C34621   6.571   6.882   2.180 -0.3738  0.1446  0.1373
  263MOL0     C34622   6.427   6.926   2.132 -0.2460  0.2759 -0.0168
  263MOL0     C34623   6.320   6.893   2.231 -0.7779  0.7168 -0.6995
  263MOL0     C34624   6.183   6.889   2.179 -0.0248  0.5240 -0.2567
  263MOL0     C34625   6.080   6.851   2.288  0.3073  0.0895  0.0151
  263MOL0     C34626   5.940   6.832   2.223 -0.0759  0.7806 -0.0201
  263MOL0     C34627   5.843   6.948   2.206 -0.6079  0.4571 -0.5369
  263MOL0    Cl34628   5.765   7.016   2.357  0.2458 -0.0101 -0.3021
  263MOL0     C34629   6.926   6.920   1.928  0.1630 -0.8228  0.1264
  263MOL0     C34630   7.054   6.955   1.868 -0.4697  0.5101 -0.2051
  263MOL0     O34631   7.261   7.150   1.802 -0.4210 -0.0676  0.2861
  263MOL0     C34632   7.570   6.957   1.789  0.1325 -0.1057  0.0688
  263MOL0     C34633   7.687   6.948   1.709 -0.0474 -0.7412 -0.1841
  263MOL0     N34634   8.265   6.562   1.646  0.1454  0.1237 -0.1338
  263MOL0     N34635   8.382   6.500   1.637  0.0486  0.0813 -0.4610
  263MOL0     C34636   9.472   6.883   1.527 -0.9819  0.4666  0.3264
  263MOL0     C34637   9.601   6.872   1.469  0.1687 -0.5067 -0.3524
  263MOL0     C34638   9.985   6.637   1.317 -0.5525  0.3250  0.3063
  263MOL0     C34639  10.038   6.532   1.242  0.2547  0.2487 -0.1607
  263MOL0     C34640  10.170   6.537   1.192 -0.2103  0.2733 -0.1417
  263MOL0     C34641  10.250   6.653   1.193  0.0099 -0.8004 -0.2966
  263MOL0     O34642  10.375   6.649   1.133  0.2321 -0.0512 -0.1581
  263MOL0     C34643  10.465   6.763   1.134 -0.0941 -0.0975  0.4974
  263MOL0     C34644  10.600   6.733   1.063  0.1166 -0.0750  0.1738
  263MOL0     C34645  10.720   6.821   1.090  0.3795 -0.6084  0.4860
  263MOL0     C34646  10.851   6.766   1.046 -0.4520  0.1664 -0.2401
  263MOL0     C34647  10.853   6.742   0.900  0.5689 -0.4245 -0.9918
  263MOL0     C34648  10.866   6.722   0.779 -0.5471  0.2636 -0.0704
  263MOL0     C34649  10.201   6.762   1.269 -0.0903  0.4175  0.7115
  263MOL0     C34650  10.076   6.752   1.330  0.4542 -0.1786 -0.9741
  263MOL0     H34651   9.695   6.570   1.599  1.3584  0.9874  1.7743
  263MOL0     H34652   9.466   6.588   1.708 -0.6041 -0.5268  0.4581
  263MOL0     H34653   9.267   6.662   1.793 -1.2571  0.0601  0.3322
  263MOL0     H34654   9.195   6.623   1.631  0.0404 -1.9505  0.6798
  263MOL0     H34655   9.072   6.825   1.830 -0.7627  0.3081  0.6354
  263MOL0     H34656   9.034   6.651   1.781  3.8724 -0.9250  1.7728
  263MOL0     H34657   8.962   6.714   1.579  0.9358 -0.2699 -0.2998
  263MOL0     H34658   9.045   6.867   1.577 -1.9010  1.7735 -0.7977
  263MOL0     H34659   8.868   6.943   1.758  1.0135 -0.2145  0.0177
  263MOL0     H34660   8.794   6.910   1.603 -0.2372  2.2238  0.9785
  263MOL0     H34661   8.662   6.821   1.788  0.9494  0.7209  1.5420
  263MOL0     H34662   8.804   6.745   1.859  2.9487  0.7169 -0.4294
  263MOL0     H34663   8.638   6.581   1.732 -0.7734  0.7071 -1.6140
  263MOL0     H34664   8.810   6.568   1.698  0.5231  0.2071  1.1456
  263MOL0     H34665   8.637   6.758   1.530  2.6673  0.4250 -0.2333
  263MOL0     H34666   8.768   6.652   1.481  1.3699  0.0189  2.1012
  263MOL0     H34667   8.620   6.442   1.531 -0.4065 -1.3669 -2.6630
  263MOL0     H34668   8.603   6.541   1.382 -0.7359  0.0600  0.0589
  263MOL0     H34669   8.397   6.726   1.395  5.2630  1.3416  3.2807
  263MOL0     H34670   8.065   6.700   1.608  0.3655 -1.2178 -1.4217
  263MOL0     H34671   8.085   6.699   1.430 -0.3544 -0.4517 -0.0680
  263MOL0     H34672   8.249   6.893   1.462 -1.1391 -1.6242 -1.4698
  263MOL0     H34673   8.177   6.909   1.625  3.4765 -0.8735 -0.5119
  263MOL0     H34674   8.076   7.060   1.475  0.3813 -0.0455  0.0612
  263MOL0     H34675   8.029   6.944   1.354 -1.6099  0.3280  0.1398
  263MOL0     H34676   7.931   6.914   1.640 -1.7772 -0.9543  1.0285
  263MOL0     H34677   7.870   6.829   1.497 -2.0287  0.3793  1.2532
  263MOL0     H34678   7.613   7.163   1.459 -1.3254 -1.4564 -2.7166
  263MOL0     H34679   7.420   7.211   1.607  1.0387  0.9923  0.5067
  263MOL0     H34680   7.261   6.820   2.091  1.1689 -0.5746 -4.0098
  263MOL0     H34681   7.038   6.804   2.224 -0.5847  1.9881  0.6342
  263MOL0     H34682   6.645   6.896   1.981 -2.8891 -0.7122  1.1731
  263MOL0     H34683   6.698   7.030   2.081 -0.7966  0.4225  0.6854
  263MOL0     H34684   6.590   6.922   2.280  0.2592 -2.0141  0.9236
  263MOL0     H34685   6.563   6.773   2.187  0.5722  0.0839  0.3835
  263MOL0     H34686   6.403   6.868   2.043 -0.0833 -0.1012  0.1870
  263MOL0     H34687   6.430   7.033   2.110  0.9042 -0.0282 -1.4339
  263MOL0     H34688   6.332   6.793   2.274 -3.1580  0.9942  0.8258
  263MOL0     H34689   6.323   6.970   2.309 -0.1731  0.8613 -0.8665
  263MOL0     H34690   6.183   6.813   2.100 -0.5191  0.3545 -0.1016
  263MOL0     H34691   6.164   6.986   2.134  2.3420  0.5898 -1.2284
  263MOL0     H34692   6.074   6.937   2.356 -0.0443  1.5814 -1.7935
  263MOL0     H34693   6.117   6.774   2.355  1.2416  1.3768  1.0359
  263MOL0     H34694   5.940   6.778   2.128 -0.8709  1.9376 -0.6964
  263MOL0     H34695   5.889   6.767   2.296 -0.0744 -0.1410 -0.8142
  263MOL0     H34696   5.757   6.909   2.151 -0.1255  1.5120 -2.1271
  263MOL0     H34697   5.895   7.017   2.138  2.0373 -1.2724 -0.4395
  263MOL0     H34698   6.832   6.951   1.883 -0.2357  0.6894  1.9212
  263MOL0     H34699   7.057   6.999   1.769 -0.5336 -2.8004 -1.7910
  263MOL0     H34700   7.565   6.894   1.877  0.0273 -1.0393 -0.5891
  263MOL0     H34701   7.769   6.896   1.757  0.8573  1.2268  0.4946
  263MOL0     H34702   9.411   6.972   1.515 -3.5358 -1.2068  0.1045
  263MOL0     H34703   9.636   6.949   1.400  2.2944  0.9684  2.1995
  263MOL0     H34704   9.984   6.439   1.225  0.0362  0.2816  0.3461
  263MOL0     H34705  10.208   6.451   1.138  2.7128  2.5686 -2.0859
  263MOL0     H34706  10.488   6.782   1.240 -2.1632 -0.3129  1.0279
  263MOL0     H34707  10.419   6.854   1.095  0.4498  1.6197  3.4798
  263MOL0     H34708  10.626   6.632   1.096 -0.0499 -0.3916 -0.6543
  263MOL0     H34709  10.574   6.717   0.958 -1.0480 -0.0217  0.4420
  263MOL0     H34710  10.729   6.844   1.197 -0.4661 -0.0299  0.4415
  263MOL0     H34711  10.713   6.918   1.040  0.2904 -0.0644  1.5047
  263MOL0     H34712  10.938   6.829   1.068  0.9080 -2.4132  2.5582
  263MOL0     H34713  10.865   6.674   1.104 -0.9858  1.4263  2.0152
  263MOL0     H34714  10.868   6.712   0.672  1.5031  2.7830 -0.3577
  263MOL0     H34715  10.256   6.856   1.266  0.9976 -0.1736  1.5126
  263MOL0     H34716  10.052   6.835   1.396  2.8297  1.4300 -1.9889
  264MOL0     O34717   0.227   1.525   7.812 -0.1621 -0.8566 -0.5743
  264MOL0     C34718   0.218   1.651   7.833 -0.9283  0.4149 -0.4150
  264MOL0     O34719   0.330   1.733   7.818  0.2998 -0.4669 -0.1135
  264MOL0     C34720   0.457   1.677   7.798  0.7657  0.1276 -0.0106
  264MOL0     C34721   0.488   1.604   7.683  1.0261 -0.5599  0.0763
  264MOL0     C34722   0.614   1.554   7.664  0.3715 -0.3022 -0.1779
  264MOL0     C34723   0.716   1.580   7.761  0.3619  0.8271  0.8473
  264MOL0     O34724   0.842   1.539   7.729 -0.4305 -0.2477  0.1228
  264MOL0     C34725   0.951   1.558   7.814 -0.0924 -0.1299 -1.0728
  264MOL0     C34726   1.080   1.531   7.745 -0.3895 -0.5641 -0.0145
  264MOL0     C34727   1.082   1.409   7.650  0.2659  0.6868 -0.2140
  264MOL0     C34728   1.229   1.388   7.603  0.4979 -0.2441 -0.4463
  264MOL0     C34729   1.271   1.474   7.484  0.2170 -0.1299  1.0143
  264MOL0     C34730   1.189   1.452   7.353  0.2310  0.9082 -0.2707
  264MOL0     C34731   1.179   1.303   7.315 -0.5566 -0.0708  0.8178
  264MOL0     C34732   1.144   1.304   7.163  0.6446  0.1096  0.4777
  264MOL0     N34733   1.002   1.350   7.145  0.5112  0.3206 -0.1921
  264MOL0     C34734   0.894   1.303   7.215 -0.3161 -0.8366 -0.2592
  264MOL0     C34735   0.786   1.343   7.147  0.6297  0.0286  0.8631
  264MOL0     C34736   0.645   1.343   7.196  0.0060  0.1187  0.0442
  264MOL0     C34737   0.579   1.482   7.212  0.1048 -0.3735  0.1646
  264MOL0     C34738   0.423   1.485   7.244  0.1669 -0.8569  0.7556
  264MOL0     C34739   0.391   1.616   7.304  0.0316 -0.6703  0.3032
  264MOL0     O34740   0.270   1.613   7.375  0.2544 -0.2010 -0.5384
  264MOL0     C34741   0.187   1.724   7.384  0.2421  0.0395  0.2831
  264MOL0     C34742   0.211   1.855   7.342 -0.4691  0.4321 -0.6339
  264MOL0     C34743   0.117   1.953   7.360  0.1363 -0.3612  0.2808
  264MOL0     C34744  -0.006   1.928   7.419  0.9299  0.4310 -0.1980
  264MOL0     C34745  -0.108   2.034   7.438  0.2610 -0.3846 -0.3744
  264MOL0     O34746  -0.199   2.003   7.531  0.5322 -0.0443  0.2272
  264MOL0     C34747  -0.320   2.074   7.557  0.5575  0.9981  0.4132
  264MOL0     C34748  -0.411   1.996   7.635 -0.3024 -0.7863 -0.6007
  264MOL0     C34749  -0.532   2.042   7.679 -0.3432 -0.0439  0.1252
  264MOL0     C34750  -0.581   2.163   7.638 -0.2031  0.3276  0.3924
  264MOL0     O34751  -0.710   2.193   7.673 -0.2756  0.1795 -0.2862
  264MOL0     C34752  -0.755   2.326   7.662  0.5210 -0.0416 -0.0631
  264MOL0     C34753  -0.892   2.319   7.728  0.1736 -0.5471 -0.6023
  264MOL0     C34754  -0.993   2.238   7.642  0.1328  0.0512 -0.2473
  264MOL0     C34755  -1.128   2.257   7.708 -0.6158 -0.5163  1.2531
  264MOL0     C34756  -1.238   2.210   7.609  0.6652  0.4128  0.2356
  264MOL0     C34757  -1.382   2.188   7.686  0.4489  0.3032  0.3644
  264MOL0     C34758  -1.403   2.066   7.782 -0.2934  0.3962  0.4042
  264MOL0     C34759  -1.342   1.933   7.722 -0.0337 -0.6351  0.3971
  264MOL0    Cl34760  -1.422   1.805   7.814 -0.0314 -0.0572  0.1209
  264MOL0     C34761  -0.499   2.241   7.549  1.8906 -0.0234 -0.5853
  264MOL0     C34762  -0.367   2.199   7.516 -0.1301  0.1327  0.1651
  264MOL0     O34763  -0.106   2.142   7.372  0.5241 -0.0022 -0.3628
  264MOL0     C34764  -0.025   1.804   7.476  0.8711 -0.5690  0.4555
  264MOL0     C34765   0.069   1.702   7.462 -0.1710 -0.7363  0.0051
  264MOL0     N34766   0.823   1.409   7.032  0.6012  0.1906 -0.2863
  264MOL0     N34767   0.950   1.408   7.034 -0.7225 -0.0944  0.0363
  264MOL0     C34768   0.687   1.650   7.874  0.2990 -0.8277 -0.9512
  264MOL0     C34769   0.556   1.700   7.892 -0.8316  0.5179 -0.6358
  264MOL0     C34770   0.090   1.713   7.858 -0.4518  0.1816  0.5247
  264MOL0     C34771   0.051   1.828   7.793 -0.7549 -0.2607 -0.1135
  264MOL0     C34772  -0.071   1.891   7.819 -0.6645 -0.7337 -0.0678
  264MOL0     C34773  -0.167   1.829   7.902  0.0616  0.0410  0.4578
  264MOL0     O34774  -0.291   1.886   7.919 -0.3054  0.1977 -0.0746
  264MOL0     C34775  -0.333   1.910   8.050  0.1748 -0.1533  0.1569
  264MOL0     C34776  -0.465   1.850   8.078  0.9556  0.9253 -0.5295
  264MOL0     C34777  -0.520   1.851   8.224  0.0493 -0.6548  0.6771
  264MOL0     C34778  -0.664   1.839   8.244  0.0671  0.0422 -0.3567
  264MOL0     C34779  -0.738   1.957   8.191 -0.2985  0.6060 -0.5581
  264MOL0     C34780  -0.806   2.051   8.166  0.7044 -0.0037  0.2192
  264MOL0     C34781  -0.120   1.716   7.967  0.3876  0.1527  0.2873
  264MOL0     C34782   0.004   1.657   7.946 -0.5549 -0.3777  0.0708
  264MOL0     H34783   0.417   1.565   7.611  4.4783 -0.6786 -3.6690
  264MOL0     H34784   0.635   1.500   7.572 -0.3396  0.9344 -1.1004
  264MOL0     H34785   0.931   1.496   7.902  1.3876  2.2855  1.1072
  264MOL0     H34786   0.962   1.658   7.858  1.2205 -0.4727 -0.5726
  264MOL0     H34787   1.156   1.528   7.824 -0.5170 -0.8549  0.0969
  264MOL0     H34788   1.095   1.617   7.678  0.2532 -0.3541  0.3820
  264MOL0     H34789   1.015   1.421   7.565 -1.5714 -0.4413  0.9985
  264MOL0     H34790   1.051   1.316   7.699 -2.2295  1.3050 -0.5181
  264MOL0     H34791   1.288   1.413   7.692  1.8902 -0.4962 -1.2603
  264MOL0     H34792   1.241   1.280   7.588 -1.6262 -0.3211 -1.9942
  264MOL0     H34793   1.372   1.444   7.454  0.2764 -0.2796  1.3512
  264MOL0     H34794   1.262   1.579   7.515 -1.9444 -0.4904  1.7595
  264MOL0     H34795   1.238   1.518   7.281  0.8681  2.0223  1.1284
  264MOL0     H34796   1.087   1.486   7.370 -0.6834 -2.2587  1.6797
  264MOL0     H34797   1.277   1.254   7.323 -1.2105 -1.7047 -0.6268
  264MOL0     H34798   1.105   1.251   7.377 -1.3589 -0.2129 -0.2446
  264MOL0     H34799   1.153   1.200   7.129  1.4219  0.3076  0.0581
  264MOL0     H34800   1.214   1.369   7.109 -1.8892 -0.5013 -4.0933
  264MOL0     H34801   0.899   1.254   7.311 -0.2246  2.3270  1.4986
  264MOL0     H34802   0.640   1.297   7.295 -0.6409 -0.0091 -0.0454
  264MOL0     H34803   0.590   1.290   7.118  1.7791 -0.5117 -0.8393
  264MOL0     H34804   0.610   1.541   7.124  1.2871 -1.5560 -0.2404
  264MOL0     H34805   0.630   1.529   7.297  0.8204 -0.3245 -0.2799
  264MOL0     H34806   0.365   1.475   7.152 -1.4893  1.9908  1.3629
  264MOL0     H34807   0.401   1.402   7.312 -0.4812 -0.8810  0.5272
  264MOL0     H34808   0.395   1.688   7.222  2.7471 -0.0431  0.8919
  264MOL0     H34809   0.467   1.643   7.378  0.7320  0.1367 -0.6861
  264MOL0     H34810   0.298   1.871   7.279 -0.3233 -0.8968 -0.7899
  264MOL0     H34811   0.133   2.054   7.325 -1.7376 -0.0997  0.1001
  264MOL0     H34812  -0.379   1.894   7.656 -1.8449 -0.9645  1.1410
  264MOL0     H34813  -0.595   1.979   7.741  0.9779 -1.9596 -0.3868
  264MOL0     H34814  -0.755   2.359   7.558  1.6422  4.1199  1.0473
  264MOL0     H34815  -0.683   2.390   7.714  1.6560 -0.3669 -1.1775
  264MOL0     H34816  -0.934   2.418   7.749 -4.1325 -2.2267 -0.3520
  264MOL0     H34817  -0.868   2.275   7.825 -0.3576 -2.0963 -1.1440
  264MOL0     H34818  -0.958   2.135   7.651  1.4233  0.6125  1.9698
  264MOL0     H34819  -0.993   2.276   7.539  0.8945 -0.1089 -0.3135
  264MOL0     H34820  -1.134   2.198   7.800 -0.8463 -4.3058 -0.9659
  264MOL0     H34821  -1.142   2.363   7.732 -0.9402  0.3863 -2.3316
  264MOL0     H34822  -1.219   2.113   7.562 -2.6195  0.6471 -1.9616
  264MOL0     H34823  -1.245   2.281   7.526 -1.9386 -0.5492 -0.4662
  264MOL0     H34824  -1.465   2.180   7.616  0.5602  1.3756  0.0943
  264MOL0     H34825  -1.400   2.278   7.746  0.3871  2.3136 -2.4788
  264MOL0     H34826  -1.350   2.089   7.874 -1.6295  1.9982  0.8152
  264MOL0     H34827  -1.507   2.039   7.804 -0.2475  0.9634  1.3382
  264MOL0     H34828  -1.233   1.937   7.727 -0.0076  0.2667 -0.6554
  264MOL0     H34829  -1.378   1.929   7.619 -0.3151 -3.8468  0.4950
  264MOL0     H34830  -0.527   2.336   7.506  1.9248  0.5728  0.6591
  264MOL0     H34831  -0.315   2.278   7.462  1.4430  0.9726  2.7315
  264MOL0     H34832  -0.118   1.781   7.527  1.1728 -0.2326  1.1731
  264MOL0     H34833   0.044   1.598   7.482  2.9697 -1.6741 -0.4166
  264MOL0     H34834   0.750   1.674   7.958 -1.0075 -3.0032  0.7659
  264MOL0     H34835   0.545   1.762   7.981 -2.0361 -1.5759  0.7612
  264MOL0     H34836   0.113   1.876   7.719 -0.2761  0.2511  0.6021
  264MOL0     H34837  -0.089   1.988   7.774 -1.3029  0.2399  2.1384
  264MOL0     H34838  -0.332   2.019   8.058 -0.8183  0.0039 -1.4800
  264MOL0     H34839  -0.259   1.865   8.118 -0.8449  2.1691  3.0142
  264MOL0     H34840  -0.533   1.906   8.013  0.1799  0.8714  0.2105
  264MOL0     H34841  -0.459   1.745   8.047 -0.3567  1.2111 -1.9068
  264MOL0     H34842  -0.479   1.940   8.272  1.6469 -0.2764 -1.2345
  264MOL0     H34843  -0.481   1.768   8.283  1.2047  1.6967  3.4755
  264MOL0     H34844  -0.709   1.746   8.209 -2.0178  1.7312 -2.5741
  264MOL0     H34845  -0.679   1.847   8.352  1.3052 -0.0381 -0.1683
  264MOL0     H34846  -0.874   2.131   8.144 -0.0097 -0.7621 -0.3710
  264MOL0     H34847  -0.193   1.662   8.026 -0.9253  1.0782 -0.4234
  264MOL0     H34848   0.020   1.555   7.981  0.0795 -0.3329 -0.0768
  265MOL0     O34849   5.121   4.881   1.751 -0.2966  0.7415 -0.5869
  265MOL0     C34850   5.089   4.908   1.868  0.8557  0.2286 -0.1816
  265MOL0     O34851   4.954   4.929   1.906 -0.3259  0.1461 -0.0839
  265MOL0     C34852   4.868   4.908   1.797 -0.0374  0.2898  0.4674
  265MOL0     C34853   4.801   5.019   1.736 -0.6781 -0.6787 -0.0882
  265MOL0     C34854   4.701   5.007   1.638  0.3780 -0.0053  0.3331
  265MOL0     C34855   4.659   4.875   1.606  0.1619 -0.2035 -0.4503
  265MOL0     O34856   4.567   4.842   1.516  0.4063  0.3741  0.3835
  265MOL0     C34857   4.463   4.934   1.466  0.5322 -0.4035  0.0527
  265MOL0     C34858   4.357   4.874   1.362 -0.5560 -0.1009  0.2347
  265MOL0     C34859   4.282   4.987   1.299  0.8405  0.4169  0.2555
  265MOL0     C34860   4.174   4.940   1.192 -0.5792  0.1475 -0.7884
  265MOL0     C34861   4.058   5.038   1.184  0.5637  0.1846  0.4801
  265MOL0     C34862   3.943   4.976   1.120 -1.3215  0.5174 -0.2653
  265MOL0     C34863   3.822   5.050   1.135  0.1597  0.4076  0.4438
  265MOL0     C34864   3.710   4.973   1.064  0.3961  0.2032  0.3865
  265MOL0     N34865   3.580   5.033   1.076 -0.2420  0.3475  0.1561
  265MOL0     C34866   3.491   5.023   1.180  0.0699  0.5274 -0.0947
  265MOL0     C34867   3.391   5.110   1.148 -0.4836  1.1693 -0.3597
  265MOL0     C34868   3.268   5.131   1.238 -0.2506 -0.4183 -0.3631
  265MOL0     C34869   3.279   5.250   1.336  0.4583  0.7862  0.1386
  265MOL0     C34870   3.393   5.249   1.435  0.2174 -0.5553 -0.1667
  265MOL0     C34871   3.411   5.378   1.513 -0.3736  0.0725 -0.0346
  265MOL0     O34872   3.322   5.380   1.624  0.0693  0.3839 -0.6988
  265MOL0     C34873   3.391   5.381   1.744  0.3380  1.3770  0.6839
  265MOL0     C34874   3.345   5.472   1.839 -0.0422  0.4988  0.6804
  265MOL0     C34875   3.425   5.490   1.950 -0.0334  0.1307 -0.7611
  265MOL0     C34876   3.531   5.411   1.978 -0.3489  0.0238 -0.8665
  265MOL0     C34877   3.619   5.436   2.093 -0.4736 -0.6370 -0.5292
  265MOL0     O34878   3.615   5.563   2.146  0.0020  1.1495  0.2119
  265MOL0     C34879   3.713   5.587   2.243  0.9709 -0.2435  0.0266
  265MOL0     C34880   3.825   5.671   2.216  0.5713 -0.5263 -0.1789
  265MOL0     C34881   3.908   5.713   2.322  0.0916  0.4239  0.5236
  265MOL0     C34882   3.902   5.655   2.451  0.2423  0.4713 -0.5221
  265MOL0     O34883   3.983   5.701   2.552  0.3832 -0.0284 -0.9334
  265MOL0     C34884   4.115   5.744   2.518  0.1060 -0.0959  0.2272
  265MOL0     C34885   4.195   5.783   2.633 -0.1562 -0.2877 -0.5984
  265MOL0     C34886   4.210   5.676   2.732  0.4247  0.2128 -0.3934
  265MOL0     C34887   4.312   5.721   2.846  0.4059  0.4944  0.1395
  265MOL0     C34888   4.324   5.609   2.957  0.5567 -0.3606  1.4049
  265MOL0     C34889   4.389   5.487   2.900  0.8755  0.3973 -0.3254
  265MOL0     C34890   4.436   5.402   3.007 -0.0540  0.2272  0.2009
  265MOL0     C34891   4.525   5.278   2.981  1.5961  0.1212 -0.6428
  265MOL0    Cl34892   4.439   5.171   2.878  0.2652  0.4404  0.3392
  265MOL0     C34893   3.792   5.564   2.469 -0.4989  0.3202  0.1045
  265MOL0     C34894   3.697   5.542   2.378 -0.4084  1.0710  0.2358
  265MOL0     O34895   3.704   5.352   2.128 -0.0030 -0.1763  0.3848
  265MOL0     C34896   3.577   5.315   1.886  0.8673 -0.3371  0.3074
  265MOL0     C34897   3.500   5.299   1.771 -0.5285  0.0208  0.4595
  265MOL0     N34898   3.415   5.159   1.019  0.5422  0.3352 -0.0022
  265MOL0     N34899   3.532   5.116   0.983  0.3478 -0.0663  0.1831
  265MOL0     C34900   4.725   4.769   1.659  0.7869 -0.1063  0.9304
  265MOL0     C34901   4.823   4.777   1.751 -0.1689 -0.4178  0.0544
  265MOL0     C34902   5.196   4.912   1.970 -0.9216  0.5778 -0.3930
  265MOL0     C34903   5.321   4.864   1.934  0.2100 -0.4674  0.0422
  265MOL0     C34904   5.430   4.870   2.031  0.3000  0.0636  0.1413
  265MOL0     C34905   5.417   4.927   2.164 -0.1206  0.2355  0.9901
  265MOL0     O34906   5.522   4.950   2.250  0.5805 -0.0735 -0.4412
  265MOL0     C34907   5.654   4.971   2.203 -0.5031  0.4785 -0.1032
  265MOL0     C34908   5.671   5.106   2.133 -0.4240  0.0010  0.1183
  265MOL0     C34909   5.656   5.229   2.228  0.8375  0.9018  0.7396
  265MOL0     C34910   5.754   5.344   2.191 -0.0416  0.3413 -0.2494
  265MOL0     C34911   5.760   5.443   2.293  0.0440 -0.6688  0.1533
  265MOL0     C34912   5.768   5.533   2.369  0.2695 -0.1540 -0.2604
  265MOL0     C34913   5.289   4.981   2.186  0.1087  0.4228  0.0781
  265MOL0     C34914   5.183   4.976   2.090 -0.7101 -0.1403 -0.7392
  265MOL0     H34915   4.836   5.120   1.756  3.1953 -1.9009  0.2610
  265MOL0     H34916   4.656   5.088   1.583 -0.9540 -0.7588  0.2651
  265MOL0     H34917   4.532   5.007   1.421  1.0918  1.3306  3.3838
  265MOL0     H34918   4.405   4.965   1.553  0.4565 -1.9364  0.5705
  265MOL0     H34919   4.294   4.813   1.427 -0.4691 -0.6987 -0.2383
  265MOL0     H34920   4.401   4.812   1.283 -1.2274 -1.3515  0.8097
  265MOL0     H34921   4.345   5.057   1.243  1.5761 -2.0387 -2.2434
  265MOL0     H34922   4.239   5.040   1.384  2.6742  0.9842  0.8696
  265MOL0     H34923   4.221   4.931   1.093 -0.0821 -0.1090 -0.5329
  265MOL0     H34924   4.128   4.848   1.229 -2.7038  1.1650 -0.7437
  265MOL0     H34925   4.085   5.132   1.134  3.3525 -0.8445 -0.1438
  265MOL0     H34926   4.030   5.064   1.286  0.7911  2.4350  0.0195
  265MOL0     H34927   3.927   4.875   1.158  0.3757  1.4629  3.3959
  265MOL0     H34928   3.973   4.959   1.017 -1.3849 -2.9953  0.1873
  265MOL0     H34929   3.798   5.067   1.240  4.5043  1.7772  1.3963
  265MOL0     H34930   3.843   5.141   1.079  2.5808 -2.2483 -3.5137
  265MOL0     H34931   3.697   4.876   1.113 -3.2241 -0.4923 -1.5915
  265MOL0     H34932   3.740   4.959   0.960  1.7246  0.2381  0.7366
  265MOL0     H34933   3.502   4.958   1.267  0.9828  0.8085  0.0142
  265MOL0     H34934   3.257   5.040   1.297 -2.0483  1.4015  2.3374
  265MOL0     H34935   3.172   5.134   1.185 -0.0637 -1.5231 -0.7927
  265MOL0     H34936   3.178   5.257   1.377 -0.7153  0.5435 -2.5011
  265MOL0     H34937   3.291   5.341   1.276  2.4330  1.0296  0.8183
  265MOL0     H34938   3.377   5.169   1.507  2.7200  0.6503  1.8821
  265MOL0     H34939   3.485   5.222   1.381  0.4073 -1.4381  0.5860
  265MOL0     H34940   3.393   5.464   1.448  1.4600  2.2518  2.1368
  265MOL0     H34941   3.517   5.387   1.541 -0.4063 -0.2490  0.1919
  265MOL0     H34942   3.260   5.532   1.810  0.7838  1.7834  0.8211
  265MOL0     H34943   3.401   5.573   2.016  0.9430 -1.6350  1.9920
  265MOL0     H34944   3.844   5.710   2.117  2.3297  0.1953  0.4065
  265MOL0     H34945   3.973   5.792   2.286 -1.2630  0.5155 -2.0027
  265MOL0     H34946   4.118   5.828   2.448 -0.0411 -0.1875  0.1123
  265MOL0     H34947   4.155   5.658   2.465 -0.2454 -0.0776 -0.0697
  265MOL0     H34948   4.164   5.879   2.676 -1.7090 -0.9643 -0.1429
  265MOL0     H34949   4.295   5.803   2.594 -0.5116 -0.4068 -1.6000
  265MOL0     H34950   4.250   5.585   2.688  2.5628  0.1904  1.4315
  265MOL0     H34951   4.112   5.654   2.776  1.3873 -1.6046  0.9979
  265MOL0     H34952   4.413   5.736   2.808  1.6826  0.7833  3.3415
  265MOL0     H34953   4.272   5.814   2.889 -1.7523 -0.2346 -0.1709
  265MOL0     H34954   4.226   5.585   2.999  0.0311  0.8233  0.9111
  265MOL0     H34955   4.391   5.656   3.029  1.4936 -1.2985  1.1791
  265MOL0     H34956   4.481   5.511   2.847  0.1552  0.5498 -1.5300
  265MOL0     H34957   4.327   5.429   2.831  0.6016  0.7657 -0.3870
  265MOL0     H34958   4.496   5.461   3.076  0.9084 -1.3707  0.7944
  265MOL0     H34959   4.352   5.360   3.064  0.6105 -0.9792  0.3310
  265MOL0     H34960   4.548   5.232   3.077  1.8540  1.6729  0.0699
  265MOL0     H34961   4.619   5.308   2.934  0.9082  2.7055 -0.5376
  265MOL0     H34962   3.775   5.523   2.568 -2.5170 -1.6981 -0.9926
  265MOL0     H34963   3.615   5.475   2.404 -0.0841 -0.0337 -1.4441
  265MOL0     H34964   3.667   5.257   1.901  0.6544  0.2085  5.5581
  265MOL0     H34965   3.531   5.229   1.693  1.3919  2.1396 -0.8150
  265MOL0     H34966   4.681   4.679   1.617  1.5511 -0.3182  0.5740
  265MOL0     H34967   4.876   4.685   1.774  2.4386  0.4118 -2.1111
  265MOL0     H34968   5.335   4.829   1.832 -3.3001  0.2556 -0.8079
  265MOL0     H34969   5.527   4.829   2.005  1.3745  2.5241 -0.0194
  265MOL0     H34970   5.679   4.894   2.130  1.2457  0.4536  0.4727
  265MOL0     H34971   5.728   4.960   2.283 -0.7498  1.3292  0.2577
  265MOL0     H34972   5.767   5.119   2.082 -0.6471  3.3425  0.3448
  265MOL0     H34973   5.598   5.116   2.052 -0.1185  0.6541 -0.0784
  265MOL0     H34974   5.655   5.211   2.336 -3.8992  1.8147  1.0599
  265MOL0     H34975   5.552   5.258   2.213  0.2979  0.5459  3.3501
  265MOL0     H34976   5.847   5.291   2.169 -2.0120 -1.8412 -4.2730
  265MOL0     H34977   5.722   5.393   2.099  0.9554  3.8525  1.0904
  265MOL0     H34978   5.767   5.623   2.426  0.8233 -1.7798  2.5076
  265MOL0     H34979   5.277   5.011   2.290  0.3547 -2.7572  1.1276
  265MOL0     H34980   5.088   5.019   2.122  0.8302  2.6010  0.5654
  266MOL0     O34981   3.046   0.569   6.307  0.1704 -0.0310  1.2883
  266MOL0     C34982   3.035   0.564   6.424  0.9164 -0.2440 -0.3602
  266MOL0     O34983   2.927   0.521   6.494 -0.0962  0.3504  0.8639
  266MOL0     C34984   2.838   0.435   6.432 -0.3284 -0.0518 -0.0838
  266MOL0     C34985   2.701   0.445   6.483 -0.2652  0.1343  0.0637
  266MOL0     C34986   2.598   0.362   6.435  0.2778 -0.4159 -0.4773
  266MOL0     C34987   2.634   0.257   6.346  0.0509 -0.0500 -0.1703
  266MOL0     O34988   2.546   0.157   6.306 -0.0452 -0.0925 -0.0856
  266MOL0     C34989   2.407   0.195   6.319  0.2374  0.6186 -0.1100
  266MOL0     C34990   2.320   0.097   6.234 -0.1432 -0.0466  0.0120
  266MOL0     C34991   2.188   0.156   6.188  0.1954  0.7692 -0.4027
  266MOL0     C34992   2.096   0.063   6.107 -0.8065  0.3642  0.0743
  266MOL0     C34993   1.980   0.136   6.039 -0.2160  0.2256 -0.3594
  266MOL0     C34994   1.885   0.031   5.978  0.3720  0.4388 -0.8348
  266MOL0     C34995   1.769   0.109   5.916 -0.5327 -0.2682  0.6604
  266MOL0     C34996   1.658   0.163   6.004 -0.9480 -0.1136 -0.5637
  266MOL0     N34997   1.565   0.246   5.937 -0.5855  0.0203  0.8777
  266MOL0     C34998   1.476   0.197   5.845 -0.6013 -0.0058 -0.2127
  266MOL0     C34999   1.435   0.303   5.788 -0.3908 -0.4719 -0.0464
  266MOL0     C35000   1.334   0.297   5.675 -0.4968 -0.5083  0.3545
  266MOL0     C35001   1.200   0.328   5.736 -0.0201  0.7247 -0.2824
  266MOL0     C35002   1.087   0.354   5.637 -0.4407 -0.3333 -0.2264
  266MOL0     C35003   0.960   0.345   5.730 -0.4855 -0.8601  0.5161
  266MOL0     O35004   0.850   0.377   5.643  0.2841 -0.2685  0.3125
  266MOL0     C35005   0.722   0.350   5.689  0.0916 -0.0260 -0.2134
  266MOL0     C35006   0.685   0.332   5.823 -0.0728 -0.3486  0.0115
  266MOL0     C35007   0.552   0.310   5.855 -0.3207 -0.3274 -0.1625
  266MOL0     C35008   0.461   0.286   5.753  0.8533 -0.5784  0.2742
  266MOL0     C35009   0.318   0.268   5.784  0.6382  0.5386 -1.2797
  266MOL0     O35010   0.293   0.254   5.921  0.4326 -0.4183 -0.2271
  266MOL0     C35011   0.164   0.230   5.955 -0.3433 -0.0909  0.7024
  266MOL0     C35012   0.083   0.132   5.889  1.1202 -0.3508 -0.5755
  266MOL0     C35013  -0.052   0.112   5.921  0.0098  0.2564 -0.7725
  266MOL0     C35014  -0.114   0.203   6.004 -0.8740 -0.7429 -0.6476
  266MOL0     O35015  -0.246   0.203   5.999  0.1625  0.6339 -0.0055
  266MOL0     C35016  -0.313   0.205   6.123 -0.0455 -0.3397 -0.5061
  266MOL0     C35017  -0.456   0.157   6.112  0.4159  1.0232 -1.6715
  266MOL0     C35018  -0.467   0.021   6.057  0.6750  0.5071  0.5729
  266MOL0     C35019  -0.611  -0.025   6.048  0.0675  1.1567 -0.0386
  266MOL0     C35020  -0.616  -0.173   6.003  0.0573  0.2990 -0.4982
  266MOL0     C35021  -0.769  -0.196   5.966 -0.4307  0.3441 -0.0262
  266MOL0     C35022  -0.789  -0.344   5.943 -0.1353 -0.2430  0.7436
  266MOL0     C35023  -0.919  -0.381   5.879 -0.2975 -0.0856  0.1435
  266MOL0    Cl35024  -1.060  -0.306   5.960 -0.1540 -0.4246  0.1641
  266MOL0     C35025  -0.038   0.310   6.067  0.6170 -0.2853 -0.0912
  266MOL0     C35026   0.100   0.312   6.046 -0.1980  0.7292 -0.2619
  266MOL0     O35027   0.237   0.292   5.695  0.2656  0.5487 -0.3388
  266MOL0     C35028   0.501   0.304   5.617  0.2300  0.3901 -1.1363
  266MOL0     C35029   0.623   0.347   5.589 -0.7106  0.1971  0.1034
  266MOL0     N35030   1.485   0.419   5.844 -0.4284 -0.2779 -0.2997
  266MOL0     N35031   1.570   0.384   5.934 -1.1035  0.8411  0.5098
  266MOL0     C35032   2.764   0.238   6.304 -0.2967 -0.5771 -0.0472
  266MOL0     C35033   2.859   0.330   6.341  0.0610 -0.0164  0.6725
  266MOL0     C35034   3.147   0.608   6.504  0.2269  0.4980 -0.4215
  266MOL0     C35035   3.270   0.625   6.435 -0.2521  0.2197 -0.5528
  266MOL0     C35036   3.380   0.678   6.509 -0.0367 -0.2582 -0.3222
  266MOL0     C35037   3.379   0.718   6.646  0.4000  0.0060  0.0489
  266MOL0     O35038   3.484   0.773   6.715 -0.5078  0.0805 -0.6308
  266MOL0     C35039   3.484   0.776   6.865  0.2459  0.4898  0.3975
  266MOL0     C35040   3.623   0.823   6.909 -0.8587  0.3240  0.4698
  266MOL0     C35041   3.734   0.730   6.847 -0.3437  0.0817 -0.5077
  266MOL0     C35042   3.874   0.747   6.897 -0.5639  0.1217 -0.4247
  266MOL0     C35043   3.942   0.855   6.833 -0.7360 -1.0230  0.4342
  266MOL0     C35044   3.992   0.958   6.774 -0.4131 -0.0734 -0.8792
  266MOL0     C35045   3.256   0.684   6.717 -0.1741  0.2805  0.0444
  266MOL0     C35046   3.150   0.616   6.648  0.7974 -0.4480 -0.0222
  266MOL0     H35047   2.681   0.510   6.568  0.7256 -0.8332  1.0589
  266MOL0     H35048   2.505   0.376   6.488  0.3829 -0.3071 -0.3205
  266MOL0     H35049   2.385   0.294   6.277  2.2426  0.3596 -1.9473
  266MOL0     H35050   2.390   0.192   6.427  0.9789 -0.9280 -0.0143
  266MOL0     H35051   2.297   0.004   6.287  1.3620 -1.1589 -1.1720
  266MOL0     H35052   2.378   0.074   6.144  0.8009  1.0126  0.3378
  266MOL0     H35053   2.200   0.254   6.141 -0.6680  1.3805  0.6032
  266MOL0     H35054   2.129   0.197   6.271 -0.1547  0.2047 -0.3699
  266MOL0     H35055   2.144   0.007   6.026 -3.1873 -1.7296 -0.0169
  266MOL0     H35056   2.057  -0.012   6.176  1.2658  2.2662  3.5778
  266MOL0     H35057   2.005   0.211   5.963 -2.2786  0.1351 -1.2116
  266MOL0     H35058   1.920   0.192   6.112  0.3311  2.1795 -1.3418
  266MOL0     H35059   1.851  -0.036   6.058  1.9578 -0.6885 -1.0536
  266MOL0     H35060   1.947  -0.023   5.906  1.2649  1.7151 -1.0555
  266MOL0     H35061   1.810   0.196   5.864 -1.7358  1.6239  2.7331
  266MOL0     H35062   1.718   0.044   5.845 -1.0421  0.5957  0.2303
  266MOL0     H35063   1.701   0.228   6.081 -1.9369  0.4849 -0.4906
  266MOL0     H35064   1.607   0.078   6.050  0.0542 -0.2932  0.2572
  266MOL0     H35065   1.432   0.101   5.822 -0.4027 -0.1560  0.0278
  266MOL0     H35066   1.320   0.195   5.638 -0.0471 -0.8477  1.0831
  266MOL0     H35067   1.364   0.369   5.599  1.0867  0.4018  1.7517
  266MOL0     H35068   1.200   0.409   5.809 -1.4049 -1.6737  2.5949
  266MOL0     H35069   1.174   0.239   5.794 -2.0810  0.8587 -0.9472
  266MOL0     H35070   1.101   0.452   5.592 -1.9204  0.3547  0.7436
  266MOL0     H35071   1.087   0.283   5.553  0.7041 -1.1306  0.4169
  266MOL0     H35072   0.962   0.420   5.809 -0.8959 -2.0043  1.6399
  266MOL0     H35073   0.941   0.243   5.762 -0.6568 -1.3326 -0.9793
  266MOL0     H35074   0.751   0.362   5.904 -0.8233  1.3246  0.0660
  266MOL0     H35075   0.527   0.310   5.960 -2.0826  1.1125 -0.5316
  266MOL0     H35076   0.132   0.062   5.821  1.2302  0.2087 -1.0742
  266MOL0     H35077  -0.116   0.037   5.875 -2.8351  2.3072 -0.4259
  266MOL0     H35078  -0.306   0.305   6.165 -0.0560  0.4450 -2.2613
  266MOL0     H35079  -0.264   0.137   6.194 -0.7772  0.4907  0.8329
  266MOL0     H35080  -0.498   0.235   6.048  0.1403  2.6995  0.4265
  266MOL0     H35081  -0.495   0.163   6.214  3.3895 -0.7840 -0.2819
  266MOL0     H35082  -0.410  -0.062   6.098 -0.6755 -0.3467  0.7967
  266MOL0     H35083  -0.428   0.023   5.955 -0.2313 -1.6803  0.1346
  266MOL0     H35084  -0.671  -0.022   6.140 -0.9594 -1.0649 -0.5687
  266MOL0     H35085  -0.662   0.041   5.977 -0.5708 -0.5344 -1.2095
  266MOL0     H35086  -0.580  -0.233   6.087 -0.2980  2.6553  1.4631
  266MOL0     H35087  -0.554  -0.187   5.914  2.1233 -0.5563  1.0002
  266MOL0     H35088  -0.793  -0.146   5.871 -0.3527 -2.6632 -1.7316
  266MOL0     H35089  -0.836  -0.169   6.048 -0.9244  1.0077 -0.6306
  266MOL0     H35090  -0.703  -0.387   5.892 -0.2869  1.3570 -1.0002
  266MOL0     H35091  -0.784  -0.383   6.045 -2.1253 -1.6926  0.3667
  266MOL0     H35092  -0.924  -0.491   5.878 -0.8458 -0.0866 -1.9749
  266MOL0     H35093  -0.912  -0.359   5.772 -1.0046 -0.5842 -0.0106
  266MOL0     H35094  -0.084   0.396   6.113  0.9149  0.4729 -1.1837
  266MOL0     H35095   0.170   0.374   6.101  2.3795 -1.2281 -1.1573
  266MOL0     H35096   0.435   0.302   5.530  1.0258  0.4230 -1.7490
  266MOL0     H35097   0.650   0.368   5.486  2.5324 -2.2398  0.3104
  266MOL0     H35098   2.785   0.152   6.242 -1.0603 -2.2960  1.9545
  266MOL0     H35099   2.958   0.312   6.301  0.1691  0.6976  0.6153
  266MOL0     H35100   3.283   0.612   6.328 -0.4331  0.6057 -0.6230
  266MOL0     H35101   3.472   0.691   6.453 -0.0968  1.5597 -0.0463
  266MOL0     H35102   3.450   0.690   6.923  0.8625  1.3210  2.0657
  266MOL0     H35103   3.412   0.854   6.892 -2.2701 -1.5712  0.0594
  266MOL0     H35104   3.644   0.924   6.874 -0.5969 -0.1731 -0.9065
  266MOL0     H35105   3.630   0.822   7.018 -0.4878 -1.2534  0.4668
  266MOL0     H35106   3.745   0.744   6.739 -1.2211 -0.3291 -0.6531
  266MOL0     H35107   3.696   0.629   6.861 -0.4490  0.0530 -0.9700
  266MOL0     H35108   3.878   0.753   7.006 -0.5285 -2.7958 -0.2023
  266MOL0     H35109   3.928   0.654   6.877 -1.1060 -0.4622  0.7358
  266MOL0     H35110   4.047   1.042   6.739  1.5183 -1.0181 -0.2562
  266MOL0     H35111   3.248   0.709   6.822 -0.9944 -0.5863  0.1972
  266MOL0     H35112   3.058   0.581   6.693  1.1578 -1.0995  0.2267
  267MOL0     O35113   5.737   6.303   6.900  0.5819 -0.5186 -0.4253
  267MOL0     C35114   5.782   6.258   7.008  0.3521 -0.8150 -0.8635
  267MOL0     O35115   5.724   6.259   7.131 -0.4179 -0.4145 -0.2839
  267MOL0     C35116   5.587   6.276   7.145  0.3470 -1.0705 -0.2501
  267MOL0     C35117   5.496   6.279   7.038 -0.7109 -0.6973  0.2109
  267MOL0     C35118   5.366   6.318   7.051 -0.3553  0.4031 -0.3234
  267MOL0     C35119   5.320   6.340   7.184 -0.8661 -0.0418  0.4316
  267MOL0     O35120   5.192   6.376   7.212  0.4052  0.3322  0.3455
  267MOL0     C35121   5.087   6.359   7.117 -0.1195 -0.6255  0.5769
  267MOL0     C35122   4.957   6.384   7.190 -0.0621  0.3463  0.3178
  267MOL0     C35123   4.827   6.369   7.099 -0.0177  0.3619 -1.0818
  267MOL0     C35124   4.699   6.412   7.172  0.0648 -0.5178  0.2094
  267MOL0     C35125   4.565   6.374   7.103  0.3200 -0.3087 -0.1864
  267MOL0     C35126   4.511   6.232   7.138  0.2151 -0.4699 -0.2283
  267MOL0     C35127   4.397   6.186   7.050  0.8781  0.6814  0.1118
  267MOL0     C35128   4.346   6.050   7.070  0.1952  0.6721  0.0061
  267MOL0     N35129   4.247   6.011   6.970 -0.0216 -0.2663 -0.2417
  267MOL0     C35130   4.117   6.072   6.963  0.3301  0.1630  0.0675
  267MOL0     C35131   4.064   6.007   6.857 -0.0799 -0.0183  0.8105
  267MOL0     C35132   3.926   6.016   6.802  0.3356 -1.2174 -0.3701
  267MOL0     C35133   3.822   5.996   6.917  0.3108  0.9977 -0.2512
  267MOL0     C35134   3.686   5.968   6.867 -1.0309 -0.1528  0.0682
  267MOL0     C35135   3.614   6.081   6.796 -0.5580 -0.0171  0.6121
  267MOL0     O35136   3.518   6.015   6.723  0.4908 -0.1466 -0.2745
  267MOL0     C35137   3.410   6.078   6.667 -0.4256 -0.2591 -0.9891
  267MOL0     C35138   3.384   6.217   6.681 -0.2630 -1.0262  0.7767
  267MOL0     C35139   3.271   6.273   6.623  0.0037 -0.2748  0.6527
  267MOL0     C35140   3.169   6.189   6.569 -0.0115 -0.4836  0.2204
  267MOL0     C35141   3.039   6.243   6.540 -0.0340 -0.6345 -0.0883
  267MOL0     O35142   3.023   6.383   6.549  0.1411 -0.0786 -0.5462
  267MOL0     C35143   2.902   6.448   6.552 -0.2560 -0.3203 -0.3273
  267MOL0     C35144   2.780   6.404   6.505  0.0976 -0.7596  0.5928
  267MOL0     C35145   2.663   6.481   6.501 -0.4987  0.0808 -0.1624
  267MOL0     C35146   2.665   6.606   6.552  0.0404 -0.0802  0.9560
  267MOL0     O35147   2.545   6.675   6.558 -0.8408 -0.0254  0.2157
  267MOL0     C35148   2.534   6.812   6.590 -0.2955  0.2751 -0.7282
  267MOL0     C35149   2.392   6.841   6.605  0.0097  0.1406  0.8953
  267MOL0     C35150   2.320   6.855   6.467  0.3948  0.3665  0.5944
  267MOL0     C35151   2.174   6.902   6.479  0.0388 -0.0454 -0.7210
  267MOL0     C35152   2.113   6.922   6.338  0.1894  0.0074  0.3645
  267MOL0     C35153   1.966   6.920   6.349  0.5502  0.3348  0.9728
  267MOL0     C35154   1.897   6.962   6.218  0.0006  0.0024  0.9881
  267MOL0     C35155   1.749   6.908   6.204  0.1293  0.6123  0.0787
  267MOL0    Cl35156   1.696   6.930   6.039  0.2489 -0.1728  0.0543
  267MOL0     C35157   2.784   6.667   6.601 -0.3789 -0.2309 -0.1162
  267MOL0     C35158   2.903   6.582   6.604  0.0669  0.0284 -0.0912
  267MOL0     O35159   2.949   6.164   6.524 -0.2462  0.0683 -0.1752
  267MOL0     C35160   3.193   6.055   6.564 -0.7159 -0.3658  0.1739
  267MOL0     C35161   3.313   5.992   6.614 -0.3785  0.1216 -0.5646
  267MOL0     N35162   4.152   5.914   6.810 -0.0039 -0.1580 -0.5325
  267MOL0     N35163   4.261   5.914   6.876 -0.4764  0.2489  0.1350
  267MOL0     C35164   5.404   6.331   7.300 -0.0988 -0.2680 -0.3125
  267MOL0     C35165   5.534   6.305   7.274 -0.9280 -0.1731 -0.3156
  267MOL0     C35166   5.927   6.209   7.001 -0.6556 -0.0979 -0.7249
  267MOL0     C35167   6.000   6.173   7.121  0.0141 -0.3566 -0.0181
  267MOL0     C35168   6.130   6.119   7.107 -0.2410  0.5356  0.5432
  267MOL0     C35169   6.195   6.096   6.984  0.3737 -0.4477  0.9646
  267MOL0     O35170   6.320   6.043   6.989 -0.3903 -0.2371 -0.7390
  267MOL0     C35171   6.391   6.029   6.867 -0.3012 -0.0790  0.1593
  267MOL0     C35172   6.539   5.990   6.884  0.1473  0.0661 -0.9203
  267MOL0     C35173   6.568   5.856   6.967 -0.0738 -0.2287  0.6976
  267MOL0     C35174   6.716   5.840   6.994  0.5789  1.2458 -0.4011
  267MOL0     C35175   6.794   5.822   6.866 -0.8057  0.6911  0.1580
  267MOL0     C35176   6.851   5.834   6.761 -0.2474 -0.0671 -0.6228
  267MOL0     C35177   6.117   6.120   6.871  0.3254 -0.1296  0.0854
  267MOL0     C35178   5.979   6.169   6.876 -0.9684  0.5021  1.2575
  267MOL0     H35179   5.532   6.263   6.937  1.5015  0.2448  0.7795
  267MOL0     H35180   5.290   6.315   6.974 -0.9289  1.1600  0.2000
  267MOL0     H35181   5.091   6.257   7.077  0.2600 -0.0597 -0.9063
  267MOL0     H35182   5.083   6.432   7.036 -3.7099  0.6806  1.7466
  267MOL0     H35183   4.940   6.481   7.238 -1.9886 -0.9211  2.4424
  267MOL0     H35184   4.949   6.314   7.274 -1.1540 -0.2169 -0.2387
  267MOL0     H35185   4.813   6.262   7.082  0.7254  0.1851 -0.6651
  267MOL0     H35186   4.843   6.427   7.008 -0.6568  1.7681 -0.3229
  267MOL0     H35187   4.705   6.378   7.276  1.2299 -0.8525  0.0464
  267MOL0     H35188   4.705   6.520   7.185  1.6211 -0.5224 -0.2282
  267MOL0     H35189   4.569   6.372   6.993  0.5944 -0.0581 -0.1831
  267MOL0     H35190   4.478   6.438   7.124 -3.3700 -3.6558 -3.4649
  267MOL0     H35191   4.474   6.218   7.240 -2.4713 -1.4751 -1.2441
  267MOL0     H35192   4.596   6.167   7.115  0.6840 -0.0596  0.3361
  267MOL0     H35193   4.314   6.257   7.049 -0.3433 -0.6811  0.3607
  267MOL0     H35194   4.442   6.185   6.950 -0.5085  0.0214 -0.5270
  267MOL0     H35195   4.301   6.042   7.169 -1.2040 -3.2692 -0.7684
  267MOL0     H35196   4.427   5.977   7.066 -0.6314 -0.5522  2.9447
  267MOL0     H35197   4.069   6.150   7.021  1.2355  2.0187 -1.5558
  267MOL0     H35198   3.907   5.942   6.724 -5.2906 -0.3104 -0.2887
  267MOL0     H35199   3.909   6.112   6.752 -0.3062  0.0739  2.1365
  267MOL0     H35200   3.811   6.082   6.984 -1.8181  0.3644  0.2987
  267MOL0     H35201   3.853   5.908   6.974 -0.8640 -0.3719 -1.6456
  267MOL0     H35202   3.699   5.889   6.793 -0.9688  3.0691 -3.6581
  267MOL0     H35203   3.620   5.941   6.950 -1.8040  1.8260  0.1494
  267MOL0     H35204   3.690   6.123   6.730  2.3101 -5.8914 -0.4834
  267MOL0     H35205   3.559   6.153   6.858 -1.5262  1.7358 -2.1172
  267MOL0     H35206   3.466   6.274   6.723  0.2402 -1.3491  0.2446
  267MOL0     H35207   3.254   6.380   6.625  2.3226  0.1521  0.0819
  267MOL0     H35208   2.766   6.303   6.469 -0.4213 -1.5753  2.9121
  267MOL0     H35209   2.570   6.434   6.473 -0.1295 -0.1851 -0.9689
  267MOL0     H35210   2.587   6.871   6.516  2.1515  0.6491  1.2075
  267MOL0     H35211   2.586   6.837   6.682  2.4930 -1.0390 -1.8342
  267MOL0     H35212   2.393   6.935   6.661 -0.0223  2.1401 -2.2258
  267MOL0     H35213   2.330   6.773   6.664 -0.5890 -0.2310 -0.1486
  267MOL0     H35214   2.309   6.765   6.406 -3.5218  0.7587  0.4423
  267MOL0     H35215   2.376   6.921   6.400 -0.4070  1.7414  1.2357
  267MOL0     H35216   2.115   6.835   6.541 -0.0661  0.8611  0.1747
  267MOL0     H35217   2.179   6.998   6.530 -0.6671  0.4648 -1.5844
  267MOL0     H35218   2.150   6.843   6.271  5.1405  0.7673  1.8292
  267MOL0     H35219   2.148   7.017   6.299 -3.5351  0.2563 -3.0849
  267MOL0     H35220   1.933   6.978   6.435  1.5293  1.3354  0.7086
  267MOL0     H35221   1.934   6.819   6.375  1.3677  0.1265  1.2022
  267MOL0     H35222   1.879   7.070   6.218 -2.5155 -0.3546  0.2132
  267MOL0     H35223   1.954   6.943   6.127  0.7356 -0.8233  1.5894
  267MOL0     H35224   1.686   6.971   6.268  1.1582 -0.0196  1.7856
  267MOL0     H35225   1.726   6.812   6.252 -1.4334  1.5999  1.4440
  267MOL0     H35226   2.781   6.771   6.632 -0.5931  0.0047 -0.8965
  267MOL0     H35227   2.993   6.622   6.651 -2.1133  2.0010  2.7097
  267MOL0     H35228   3.108   5.996   6.531 -2.0664  0.5434  1.8567
  267MOL0     H35229   3.317   5.884   6.617 -4.8127 -0.1822  0.9244
  267MOL0     H35230   5.370   6.337   7.403  0.9251  2.7496 -0.0520
  267MOL0     H35231   5.601   6.301   7.359 -1.5952 -0.8651  0.2020
  267MOL0     H35232   5.948   6.162   7.215  0.4556  0.4089  0.3275
  267MOL0     H35233   6.185   6.094   7.197 -1.2650  0.3499  1.1295
  267MOL0     H35234   6.389   6.123   6.811  1.3397 -0.3431 -0.4116
  267MOL0     H35235   6.340   5.951   6.809 -1.8372 -1.1816  2.8048
  267MOL0     H35236   6.594   5.985   6.790  1.4457  1.1864 -0.2728
  267MOL0     H35237   6.579   6.074   6.942  1.6257 -0.7753 -0.6755
  267MOL0     H35238   6.523   5.765   6.927 -2.7369  0.6147  1.6287
  267MOL0     H35239   6.526   5.875   7.065 -0.5957  1.1681  0.2264
  267MOL0     H35240   6.753   5.927   7.048 -1.1925  0.2121  2.7495
  267MOL0     H35241   6.732   5.752   7.057 -0.2278  0.8370 -0.7507
  267MOL0     H35242   6.897   5.848   6.665  2.8945  1.4923  0.9986
  267MOL0     H35243   6.154   6.100   6.771  1.8874 -2.7398  1.0861
  267MOL0     H35244   5.918   6.184   6.788 -1.3674  1.2285  1.6497
  268MOL0     O35245   5.770  10.138   0.172  0.2403  0.9344 -0.2563
  268MOL0     C35246   5.853  10.218   0.139  0.3383 -0.3003 -0.6758
  268MOL0     O35247   5.827  10.334   0.063 -0.1071 -0.0806 -0.9990
  268MOL0     C35248   5.701  10.339   0.005 -0.0026 -0.1067 -0.1943
  268MOL0     C35249   5.600  10.410   0.065 -0.4505  0.7690 -0.1594
  268MOL0     C35250   5.469  10.405   0.021  0.9030  0.3751 -1.1292
  268MOL0     C35251   5.435  10.334  -0.086 -0.5712 -0.1570 -0.2822
  268MOL0     O35252   5.303  10.312  -0.108 -0.4261  0.1123 -0.1681
  268MOL0     C35253   5.261  10.296  -0.246  1.2059 -0.6895  0.0728
  268MOL0     C35254   5.105  10.302  -0.246 -0.0793 -0.2379 -0.1600
  268MOL0     C35255   5.060  10.155  -0.250  0.0220  0.3650  0.3626
  268MOL0     C35256   4.912  10.129  -0.211 -0.0893  0.2621  0.5233
  268MOL0     C35257   4.803  10.213  -0.271  0.1513  0.2618  0.2701
  268MOL0     C35258   4.788  10.187  -0.417  0.0862  0.2439 -0.5567
  268MOL0     C35259   4.675  10.261  -0.486  0.7201 -0.6274 -0.2828
  268MOL0     C35260   4.668  10.220  -0.634 -0.4053  0.1670 -0.4240
  268MOL0     N35261   4.537  10.261  -0.689  0.1509 -0.5904 -0.8227
  268MOL0     C35262   4.498  10.390  -0.718  0.0424 -0.8869  0.0254
  268MOL0     C35263   4.380  10.379  -0.783 -0.0205  0.7202  0.2724
  268MOL0     C35264   4.318  10.492  -0.865 -0.0679 -0.6713 -0.1078
  268MOL0     C35265   4.347  10.477  -1.016 -0.7269 -0.0519 -0.2323
  268MOL0     C35266   4.295  10.578  -1.115 -0.0006 -0.3504 -0.0810
  268MOL0     C35267   4.142  10.591  -1.131  0.0608 -0.2280  1.0047
  268MOL0     O35268   4.076  10.468  -1.169 -0.2919 -0.0101  0.4478
  268MOL0     C35269   3.942  10.468  -1.148 -0.5490  0.4014 -0.7371
  268MOL0     C35270   3.886  10.371  -1.058  0.9642 -0.1925  0.9028
  268MOL0     C35271   3.746  10.370  -1.030 -1.6836  0.3130 -0.8276
  268MOL0     C35272   3.663  10.469  -1.078  0.5792 -0.2388 -0.7284
  268MOL0     C35273   3.515  10.463  -1.046 -0.1523  0.3510  0.4583
  268MOL0     O35274   3.441  10.563  -1.104 -0.7237 -0.2087 -0.5941
  268MOL0     C35275   3.313  10.571  -1.068 -0.0587 -0.2477 -0.3291
  268MOL0     C35276   3.216  10.489  -1.106  0.3167  0.4563  0.1740
  268MOL0     C35277   3.081  10.516  -1.080 -0.4373 -0.4423  0.1872
  268MOL0     C35278   3.038  10.632  -1.014  0.0907  0.9323 -0.7543
  268MOL0     O35279   2.908  10.664  -0.987  0.7662  0.1819 -0.4041
  268MOL0     C35280   2.806  10.602  -1.076 -0.2024  0.9819 -0.2685
  268MOL0     C35281   2.672  10.683  -1.066 -0.9984 -0.2698  0.4757
  268MOL0     C35282   2.563  10.632  -1.154  0.1633  0.0706 -0.5661
  268MOL0     C35283   2.426  10.690  -1.108  0.4159  0.2932 -0.6957
  268MOL0     C35284   2.325  10.597  -1.165  0.7132 -0.5275 -0.5585
  268MOL0     C35285   2.184  10.646  -1.110  0.3495  0.3591 -0.3274
  268MOL0     C35286   2.065  10.575  -1.182  0.1250 -0.2864 -0.2959
  268MOL0     C35287   2.062  10.434  -1.139 -0.6123 -0.3639 -0.4847
  268MOL0    Cl35288   1.902  10.364  -1.175 -0.0579  0.1878 -0.3774
  268MOL0     C35289   3.144  10.707  -0.959 -0.1277 -0.1559  0.6974
  268MOL0     C35290   3.282  10.679  -0.989  0.4706 -0.7813  0.3082
  268MOL0     O35291   3.473  10.381  -0.961 -0.4672 -0.1845 -0.2264
  268MOL0     C35292   3.717  10.576  -1.148 -0.0896 -0.2956  1.1602
  268MOL0     C35293   3.859  10.575  -1.177  0.1453 -0.9097 -0.3918
  268MOL0     N35294   4.347  10.242  -0.790  0.1140  0.2970 -0.0681
  268MOL0     N35295   4.440  10.169  -0.734 -0.5509 -0.3305 -0.8150
  268MOL0     C35296   5.538  10.271  -0.166  0.1520 -0.7734 -0.3728
  268MOL0     C35297   5.662  10.270  -0.112 -0.9965 -0.0776  0.0236
  268MOL0     C35298   5.988  10.197   0.188  0.0990  0.2643  0.7632
  268MOL0     C35299   6.046  10.072   0.224 -0.0881 -0.8089  0.5312
  268MOL0     C35300   6.172  10.066   0.272 -0.2229 -0.0956 -0.6119
  268MOL0     C35301   6.251  10.174   0.291 -0.4064 -0.1835  0.0626
  268MOL0     O35302   6.370  10.176   0.363  0.6380 -0.1042  0.1499
  268MOL0     C35303   6.477  10.098   0.302  0.1910  0.3637  0.1185
  268MOL0     C35304   6.570  10.190   0.231  0.2274 -0.1644 -1.1476
  268MOL0     C35305   6.599  10.313   0.315  0.7922 -0.4090  0.6450
  268MOL0     C35306   6.701  10.408   0.270  0.3523  0.1479  0.4912
  268MOL0     C35307   6.840  10.378   0.312 -0.1470  0.0371  0.9099
  268MOL0     C35308   6.948  10.342   0.346 -0.2304  1.1385 -0.2551
  268MOL0     C35309   6.207  10.289   0.233 -0.2720 -0.5365  0.2921
  268MOL0     C35310   6.078  10.302   0.183 -0.2924  0.0693 -0.2379
  268MOL0     H35311   5.623  10.443   0.166 -0.1066 -0.3325  0.1394
  268MOL0     H35312   5.388  10.442   0.083  1.2863  0.3979 -0.6365
  268MOL0     H35313   5.298  10.208  -0.300 -0.7087 -0.0220 -2.4737
  268MOL0     H35314   5.300  10.380  -0.304 -1.8916 -0.4225 -1.8137
  268MOL0     H35315   5.065  10.351  -0.336  0.9082  2.2554  0.6705
  268MOL0     H35316   5.063  10.359  -0.163  2.4619  1.3850  0.1124
  268MOL0     H35317   5.121  10.080  -0.198  0.1369 -0.0457 -0.3477
  268MOL0     H35318   5.062  10.126  -0.356 -3.9049  2.6717 -0.5529
  268MOL0     H35319   4.888  10.023  -0.227  3.2666 -0.7942  1.6025
  268MOL0     H35320   4.906  10.154  -0.105  1.4642  0.0704  0.6836
  268MOL0     H35321   4.824  10.319  -0.251  0.5191 -0.0592  1.6897
  268MOL0     H35322   4.704  10.209  -0.226 -2.2380  3.1782 -4.0142
  268MOL0     H35323   4.759  10.082  -0.429 -0.6171  0.1444  1.6441
  268MOL0     H35324   4.881  10.205  -0.471 -0.5977 -1.0945 -2.2792
  268MOL0     H35325   4.578  10.234  -0.443 -0.9057  3.6732 -0.7547
  268MOL0     H35326   4.701  10.367  -0.473 -3.4192  0.6379 -0.7025
  268MOL0     H35327   4.683  10.112  -0.639  2.1936  0.4389  0.1944
  268MOL0     H35328   4.750  10.270  -0.686 -0.2092  0.4459  0.1391
  268MOL0     H35329   4.552  10.479  -0.684 -1.6737 -0.7807  2.7782
  268MOL0     H35330   4.354  10.590  -0.831  4.9896 -2.3388  0.2685
  268MOL0     H35331   4.213  10.489  -0.835 -0.8013 -0.8790 -2.5305
  268MOL0     H35332   4.299  10.382  -1.043 -1.6819  1.4280 -4.4400
  268MOL0     H35333   4.456  10.479  -1.031 -0.6783  0.8512  0.1661
  268MOL0     H35334   4.332  10.678  -1.094 -0.9755 -0.0088  0.0809
  268MOL0     H35335   4.348  10.547  -1.206  1.4058  3.3558 -0.7091
  268MOL0     H35336   4.117  10.650  -1.220 -0.7037 -0.7603  0.8621
  268MOL0     H35337   4.108  10.637  -1.038  1.0331  0.6560  0.9455
  268MOL0     H35338   3.963  10.305  -1.019  2.1707  0.1515 -0.7987
  268MOL0     H35339   3.710  10.287  -0.970  0.9172 -0.9385 -0.8258
  268MOL0     H35340   3.237  10.401  -1.165  0.5883  0.0819  0.8165
  268MOL0     H35341   3.011  10.446  -1.125  1.2928 -1.1903 -1.4666
  268MOL0     H35342   2.785  10.500  -1.045  1.7097  0.4486 -0.5880
  268MOL0     H35343   2.842  10.599  -1.179  2.5682 -0.9013  0.6478
  268MOL0     H35344   2.686  10.788  -1.095  0.7818  0.0294  2.2216
  268MOL0     H35345   2.649  10.683  -0.959 -0.7998 -0.5392  0.5181
  268MOL0     H35346   2.568  10.523  -1.145  0.6088  0.2232  1.5067
  268MOL0     H35347   2.589  10.654  -1.258  2.8604  0.3602  0.0915
  268MOL0     H35348   2.408  10.690  -1.000 -1.2687 -0.4152 -0.9564
  268MOL0     H35349   2.417  10.793  -1.146  0.5332  0.6014  0.0881
  268MOL0     H35350   2.339  10.494  -1.134 -1.3870 -0.5538  0.5109
  268MOL0     H35351   2.331  10.601  -1.275 -1.5380  0.2390 -0.7258
  268MOL0     H35352   2.183  10.753  -1.132 -1.9770  0.6031  0.7028
  268MOL0     H35353   2.178  10.633  -1.001  2.7116  0.3517 -0.1537
  268MOL0     H35354   1.971  10.625  -1.158  0.0121 -0.3777 -0.5520
  268MOL0     H35355   2.083  10.572  -1.290  3.1766 -1.4001  0.1470
  268MOL0     H35356   2.083  10.428  -1.031 -3.7150 -1.0439  0.2043
  268MOL0     H35357   2.143  10.375  -1.182 -0.3160 -0.1429 -0.2394
  268MOL0     H35358   3.119  10.790  -0.893 -2.1889 -1.1558  1.2669
  268MOL0     H35359   3.365  10.740  -0.954  0.6234 -0.7846 -0.0412
  268MOL0     H35360   3.645  10.646  -1.190  0.6769  0.2210  0.6906
  268MOL0     H35361   3.878  10.663  -1.236 -0.7338 -0.7420 -0.4372
  268MOL0     H35362   5.514  10.211  -0.254  1.5008  0.4672 -1.6259
  268MOL0     H35363   5.738  10.213  -0.163  0.7518  0.2493  2.1328
  268MOL0     H35364   5.981   9.985   0.217 -0.2561 -0.5622 -2.1593
  268MOL0     H35365   6.195   9.966   0.309  3.0934  0.4004 -1.0172
  268MOL0     H35366   6.449  10.026   0.225 -1.5235  2.2681 -1.1359
  268MOL0     H35367   6.525  10.045   0.385 -0.2415 -0.8360 -0.3732
  268MOL0     H35368   6.663  10.138   0.206  1.0053  0.7147 -0.1974
  268MOL0     H35369   6.528  10.219   0.134  0.7163 -2.2296 -2.0268
  268MOL0     H35370   6.615  10.277   0.418 -0.7874  0.2189  1.1438
  268MOL0     H35371   6.510  10.375   0.327  1.6632  1.1851 -0.7616
  268MOL0     H35372   6.688  10.422   0.163  1.9906  0.6980  0.3418
  268MOL0     H35373   6.677  10.513   0.290  0.0749  0.7169 -2.4390
  268MOL0     H35374   7.038  10.295   0.379 -1.4032 -1.7485 -0.8158
  268MOL0     H35375   6.272  10.376   0.236  0.0419 -0.7800  2.4736
  268MOL0     H35376   6.050  10.403   0.156 -0.7331 -0.0722 -0.3213
  269MOL0     O35377   4.764   4.040   1.046  0.4735 -0.0789  0.1568
  269MOL0     C35378   4.833   4.008   0.953  0.2124  0.6333  0.4446
  269MOL0     O35379   4.794   3.937   0.840  0.3255 -0.2472  0.2707
  269MOL0     C35380   4.664   3.929   0.795 -0.1052  0.3027 -0.7781
  269MOL0     C35381   4.642   3.842   0.690 -0.0031  0.3634  0.9377
  269MOL0     C35382   4.515   3.829   0.627  0.3308 -0.1963  0.0981
  269MOL0     C35383   4.408   3.898   0.680  0.1202  0.4320  0.4534
  269MOL0     O35384   4.284   3.893   0.632 -0.2271  0.2652  0.3007
  269MOL0     C35385   4.250   3.845   0.501  0.0573  0.6333 -0.8060
  269MOL0     C35386   4.103   3.809   0.481 -0.1623  0.0974 -0.2681
  269MOL0     C35387   4.014   3.932   0.520 -0.0383 -0.8655  0.1640
  269MOL0     C35388   3.870   3.900   0.482  0.2202 -0.0269  0.3006
  269MOL0     C35389   3.775   4.019   0.489  0.0054  0.9441 -0.1910
  269MOL0     C35390   3.745   4.080   0.624  0.9986 -1.2300  0.2830
  269MOL0     C35391   3.627   4.174   0.640  0.5989 -0.7511  0.2959
  269MOL0     C35392   3.635   4.248   0.776  0.1477 -0.3507 -0.1495
  269MOL0     N35393   3.504   4.320   0.784 -0.4765 -0.2429 -0.0398
  269MOL0     C35394   3.393   4.262   0.835  0.3773  0.8530 -0.1595
  269MOL0     C35395   3.293   4.351   0.830  0.2268 -0.0328 -0.6442
  269MOL0     C35396   3.147   4.325   0.873 -0.1761 -0.5350  0.5460
  269MOL0     C35397   3.115   4.285   1.020 -0.4416 -0.1665 -0.2427
  269MOL0     C35398   3.036   4.401   1.083 -0.0001 -0.5573 -0.0350
  269MOL0     C35399   3.034   4.367   1.229 -0.1226  0.0650 -0.0609
  269MOL0     O35400   2.958   4.244   1.254  0.0738 -0.2410  0.4605
  269MOL0     C35401   2.833   4.236   1.306  0.3630 -0.2740  0.4742
  269MOL0     C35402   2.799   4.110   1.364  0.3014 -0.3210  0.4677
  269MOL0     C35403   2.666   4.090   1.405 -0.2388 -0.3449  0.2252
  269MOL0     C35404   2.574   4.194   1.397 -0.0624 -0.6106 -0.7779
  269MOL0     C35405   2.435   4.174   1.438  0.2463 -0.1579  0.0316
  269MOL0     O35406   2.344   4.275   1.410 -0.3234 -0.4972  0.2713
  269MOL0     C35407   2.211   4.266   1.452  0.2761  1.5971  0.9192
  269MOL0     C35408   2.140   4.147   1.439  0.7285  0.4182  0.4007
  269MOL0     C35409   2.000   4.147   1.463  0.6378  0.5428 -1.1642
  269MOL0     C35410   1.940   4.265   1.508  0.0499  0.3350 -0.1371
  269MOL0     O35411   1.800   4.278   1.526 -0.4234  0.5275 -0.3876
  269MOL0     C35412   1.717   4.175   1.468  0.2951  0.0357 -0.6294
  269MOL0     C35413   1.567   4.214   1.481 -0.9515  0.0373 -0.6142
  269MOL0     C35414   1.484   4.118   1.396  0.3797  0.4074  0.4283
  269MOL0     C35415   1.334   4.122   1.429  0.5436  0.4556  0.7565
  269MOL0     C35416   1.233   4.039   1.347 -0.2364 -0.1199 -0.0455
  269MOL0     C35417   1.293   3.901   1.314  0.6476  0.1020 -0.1534
  269MOL0     C35418   1.179   3.797   1.283  0.4815  0.5891 -1.0170
  269MOL0     C35419   1.074   3.824   1.171  0.1654  0.3988 -0.8291
  269MOL0    Cl35420   0.960   3.685   1.161 -0.1161  0.2680 -0.0666
  269MOL0     C35421   2.018   4.383   1.538  0.2385  0.6351  0.4864
  269MOL0     C35422   2.151   4.388   1.496  0.0972  0.1264  0.2042
  269MOL0     O35423   2.403   4.062   1.481 -0.4847 -0.3320 -0.0708
  269MOL0     C35424   2.603   4.317   1.340 -0.8096 -1.0223  1.1177
  269MOL0     C35425   2.733   4.337   1.286 -0.5139 -0.2695  0.0036
  269MOL0     N35426   3.343   4.466   0.771  0.0605  0.3762  1.3204
  269MOL0     N35427   3.468   4.447   0.739  0.3390  0.2603 -0.0807
  269MOL0     C35428   4.425   3.978   0.787 -0.7342 -0.3567  0.1430
  269MOL0     C35429   4.552   4.001   0.844 -0.2536 -0.2978 -0.1163
  269MOL0     C35430   4.976   4.029   0.982 -0.7542  0.0985  0.8978
  269MOL0     C35431   5.076   3.974   0.905 -0.4257  1.4574  0.6058
  269MOL0     C35432   5.211   3.995   0.931 -0.6834 -0.2021 -0.0377
  269MOL0     C35433   5.255   4.077   1.036  0.0877 -0.1233  0.1097
  269MOL0     O35434   5.394   4.084   1.051 -0.4478 -0.4518 -0.7247
  269MOL0     C35435   5.439   4.136   1.177 -0.5201  0.9963  0.7856
  269MOL0     C35436   5.592   4.119   1.188 -1.0225 -0.9531 -0.4659
  269MOL0     C35437   5.671   4.189   1.081  0.0922 -0.8604  0.3321
  269MOL0     C35438   5.819   4.207   1.108 -0.3116  0.0781  1.0835
  269MOL0     C35439   5.881   4.308   1.010  0.5284  0.7388 -0.5762
  269MOL0     C35440   5.920   4.394   0.936  0.3120 -0.5746  0.3614
  269MOL0     C35441   5.160   4.159   1.100 -0.9614  0.8506 -0.1040
  269MOL0     C35442   5.022   4.132   1.072 -0.2700 -0.0774 -0.1644
  269MOL0     H35443   4.719   3.769   0.664 -0.5593 -0.6215  1.9511
  269MOL0     H35444   4.510   3.768   0.538 -0.8330 -0.3905  0.2796
  269MOL0     H35445   4.311   3.758   0.477 -0.3645  0.5688 -1.7102
  269MOL0     H35446   4.282   3.921   0.428  0.0134  0.1153 -1.3752
  269MOL0     H35447   4.088   3.725   0.549 -1.9691 -1.7583 -2.7702
  269MOL0     H35448   4.101   3.782   0.375  3.1625  0.8041 -0.6218
  269MOL0     H35449   4.049   4.021   0.467  1.2445 -0.5259  1.5221
  269MOL0     H35450   4.038   3.957   0.624 -0.7338  3.2084 -0.4777
  269MOL0     H35451   3.873   3.868   0.378 -0.3769  1.8063 -0.3158
  269MOL0     H35452   3.836   3.822   0.551  3.0160 -0.9661  0.7534
  269MOL0     H35453   3.684   3.970   0.450  1.7201 -1.9405 -0.8803
  269MOL0     H35454   3.805   4.090   0.412  0.0394  0.5340 -0.5666
  269MOL0     H35455   3.836   4.128   0.662 -1.2194  0.9840  3.2148
  269MOL0     H35456   3.731   3.988   0.681  1.4611 -1.4614  0.0373
  269MOL0     H35457   3.615   4.246   0.558 -2.7460  0.5704  1.7770
  269MOL0     H35458   3.535   4.115   0.634 -0.6037  1.0826 -0.2440
  269MOL0     H35459   3.716   4.321   0.777  0.2606 -0.4661 -0.5915
  269MOL0     H35460   3.646   4.170   0.852  2.6976 -1.6756 -1.7149
  269MOL0     H35461   3.388   4.165   0.882 -0.2074  0.6696 -0.6047
  269MOL0     H35462   3.119   4.239   0.811 -2.2974  2.8185 -3.6442
  269MOL0     H35463   3.086   4.409   0.837  1.9932  0.5607 -0.7376
  269MOL0     H35464   3.208   4.271   1.076  1.7594 -1.1121 -3.7914
  269MOL0     H35465   3.054   4.195   1.027 -2.1891  0.8824 -1.1880
  269MOL0     H35466   3.082   4.498   1.063  0.7888 -1.1703 -1.3255
  269MOL0     H35467   2.933   4.395   1.046 -0.3674 -0.7882  0.9866
  269MOL0     H35468   3.000   4.446   1.296  0.1512  1.8963 -1.9865
  269MOL0     H35469   3.134   4.353   1.269 -1.1949  0.0832  2.8753
  269MOL0     H35470   2.878   4.035   1.373  1.3206  0.5898 -0.4684
  269MOL0     H35471   2.626   3.998   1.447 -0.1584 -0.3875  0.2084
  269MOL0     H35472   2.170   4.052   1.395  0.6665  1.4309 -1.9883
  269MOL0     H35473   1.928   4.067   1.444  0.7340  0.3310 -0.6703
  269MOL0     H35474   1.735   4.079   1.518 -0.4468 -0.0555 -0.5291
  269MOL0     H35475   1.751   4.162   1.365  0.9292 -2.0808 -0.2073
  269MOL0     H35476   1.546   4.313   1.440  0.6522 -0.4533 -2.7974
  269MOL0     H35477   1.534   4.207   1.585 -1.5640  2.5972 -0.5856
  269MOL0     H35478   1.511   4.017   1.428 -0.4906  0.3774  1.1135
  269MOL0     H35479   1.509   4.133   1.291  0.2277  0.6271  0.4232
  269MOL0     H35480   1.327   4.090   1.533  1.3017  0.8676  0.9456
  269MOL0     H35481   1.291   4.223   1.423 -2.6744 -0.8832 -1.4211
  269MOL0     H35482   1.216   4.088   1.251 -1.4349  1.5107  0.9642
  269MOL0     H35483   1.136   4.028   1.395 -1.3453 -1.9067 -2.4792
  269MOL0     H35484   1.337   3.859   1.405 -0.5733  1.7647  1.2810
  269MOL0     H35485   1.361   3.894   1.229  1.1231  0.0449  0.2254
  269MOL0     H35486   1.213   3.693   1.281 -3.3572 -0.8125 -0.5647
  269MOL0     H35487   1.118   3.792   1.374  1.7414 -1.2197 -0.1933
  269MOL0     H35488   1.128   3.826   1.076 -0.0265 -5.1927 -1.3699
  269MOL0     H35489   1.016   3.913   1.198 -1.3817 -1.6777  3.6104
  269MOL0     H35490   1.976   4.477   1.574  4.0712  2.3930  0.8396
  269MOL0     H35491   2.219   4.473   1.499 -0.7682  0.8876 -1.0011
  269MOL0     H35492   2.536   4.401   1.338 -0.8726 -1.0177 -2.0558
  269MOL0     H35493   2.754   4.426   1.227 -1.1106 -0.2352 -0.1634
  269MOL0     H35494   4.341   4.037   0.824 -0.8425  0.1563 -0.8657
  269MOL0     H35495   4.552   4.071   0.927 -0.2375  0.2303 -0.5577
  269MOL0     H35496   5.041   3.906   0.829 -0.3689  1.4503  0.5866
  269MOL0     H35497   5.284   3.952   0.864  0.7449  1.6770  0.2403
  269MOL0     H35498   5.387   4.088   1.260 -3.5997  0.1959 -1.4256
  269MOL0     H35499   5.411   4.242   1.175 -2.7840  0.5084  2.7359
  269MOL0     H35500   5.626   4.163   1.282  1.4333 -0.5617 -1.4471
  269MOL0     H35501   5.622   4.015   1.203 -0.2379 -0.6008  0.5538
  269MOL0     H35502   5.632   4.291   1.075  0.6119 -0.4072  3.3259
  269MOL0     H35503   5.652   4.137   0.986  0.1376  0.0420 -0.1897
  269MOL0     H35504   5.826   4.243   1.211  2.1194 -1.3895  1.5248
  269MOL0     H35505   5.847   4.101   1.100 -0.8734 -0.0930  1.3502
  269MOL0     H35506   5.935   4.480   0.874  2.3941 -0.4378  0.9764
  269MOL0     H35507   5.188   4.236   1.171 -0.6983  0.7218 -0.0687
  269MOL0     H35508   4.948   4.196   1.118 -0.5069 -2.1813  2.6924
  270MOL0     O35509   1.338  10.112   1.879  0.3814 -0.4668  0.4671
  270MOL0     C35510   1.386   9.998   1.880 -0.5825 -0.2319 -0.4490
  270MOL0     O35511   1.515   9.970   1.852 -0.6428 -0.5075 -0.0582
  270MOL0     C35512   1.608  10.070   1.864 -0.1716  0.6196 -0.3210
  270MOL0     C35513   1.696  10.095   1.762 -0.5556  0.4026  0.0128
  270MOL0     C35514   1.787  10.206   1.761 -0.1860  0.9839 -0.1022
  270MOL0     C35515   1.781  10.292   1.868 -0.2808  0.2837 -0.0693
  270MOL0     O35516   1.867  10.401   1.853 -0.2603  0.2950  0.1529
  270MOL0     C35517   1.896  10.480   1.968 -0.2341  0.5329 -0.1903
  270MOL0     C35518   2.028  10.554   1.948 -0.2686 -0.2887  0.5431
  270MOL0     C35519   2.142  10.449   1.932  0.2257 -0.1492  0.1516
  270MOL0     C35520   2.269  10.506   1.883 -0.3056 -0.6946  0.1363
  270MOL0     C35521   2.254  10.572   1.743  0.1540 -0.8602  0.3516
  270MOL0     C35522   2.209  10.475   1.639  0.4056  0.5707  0.1138
  270MOL0     C35523   2.269  10.500   1.500  0.5946 -0.2182  0.1181
  270MOL0     C35524   2.421  10.459   1.497  0.4376 -0.7195  0.4105
  270MOL0     N35525   2.440  10.312   1.482 -0.0463 -0.5589  0.3713
  270MOL0     C35526   2.442  10.265   1.357 -0.5655  0.7637 -0.4343
  270MOL0     C35527   2.470  10.136   1.381 -0.0905  0.0702  0.4860
  270MOL0     C35528   2.486  10.035   1.264 -0.3003 -1.2314 -0.5954
  270MOL0     C35529   2.357  10.040   1.179  0.1608 -0.2984  0.0511
  270MOL0     C35530   2.375   9.950   1.058  0.9293  0.1578 -0.4286
  270MOL0     C35531   2.250   9.934   0.980 -0.9994 -0.5130 -0.3673
  270MOL0     O35532   2.205  10.058   0.944  0.2120 -0.5012  0.6676
  270MOL0     C35533   2.098  10.058   0.851  1.4433 -0.0449 -0.0505
  270MOL0     C35534   2.058  10.173   0.782 -0.4139  0.6401  0.6482
  270MOL0     C35535   1.943  10.188   0.710  0.1548  0.7053 -0.8032
  270MOL0     C35536   1.865  10.074   0.695  0.2236 -0.2508  0.0132
  270MOL0     C35537   1.734  10.079   0.625 -0.4343  0.3307 -0.2432
  270MOL0     O35538   1.715   9.959   0.561 -0.5296  0.3007 -0.1077
  270MOL0     C35539   1.592   9.941   0.502  0.1407  0.6845 -0.2635
  270MOL0     C35540   1.471  10.001   0.541  0.3014 -0.3304  0.7301
  270MOL0     C35541   1.351   9.975   0.474 -0.3591 -0.7568 -0.6332
  270MOL0     C35542   1.347   9.878   0.373 -0.2185 -0.2488 -0.3170
  270MOL0     O35543   1.228   9.846   0.314  0.7794 -0.1803 -0.3455
  270MOL0     C35544   1.196   9.705   0.295  0.0835 -0.2495  0.3799
  270MOL0     C35545   1.051   9.693   0.276 -0.4016  0.3455 -0.4276
  270MOL0     C35546   0.984   9.693   0.414 -0.6916  0.1126  0.7830
  270MOL0     C35547   0.835   9.726   0.399  0.2976 -0.3137  0.1702
  270MOL0     C35548   0.754   9.685   0.526  0.6933 -0.0159 -0.0910
  270MOL0     C35549   0.612   9.733   0.525  0.1930 -0.4410  0.1990
  270MOL0     C35550   0.527   9.644   0.616 -0.2484  1.3671  0.5877
  270MOL0     C35551   0.372   9.681   0.617 -0.6064 -0.2533 -0.5618
  270MOL0    Cl35552   0.287   9.635   0.769 -0.0197  0.1336  0.2557
  270MOL0     C35553   1.463   9.807   0.338  0.4559  0.4707  0.2370
  270MOL0     C35554   1.579   9.840   0.405 -0.2916 -0.9876  0.1119
  270MOL0     O35555   1.671  10.184   0.605  0.5970 -0.7758  0.0107
  270MOL0     C35556   1.902   9.944   0.748  0.4337 -0.3322  0.3513
  270MOL0     C35557   2.019   9.938   0.830 -0.1978 -0.2825  0.1120
  270MOL0     N35558   2.472  10.109   1.514  0.2336  0.2535  0.4050
  270MOL0     N35559   2.457  10.217   1.575 -0.7698 -0.3945  0.5766
  270MOL0     C35560   1.705  10.254   1.981  0.2535 -0.4217  0.0712
  270MOL0     C35561   1.615  10.150   1.976  0.2256 -0.0319  0.0984
  270MOL0     C35562   1.303   9.890   1.948 -0.4739 -0.6424 -1.4398
  270MOL0     C35563   1.358   9.769   1.984 -0.2986  0.6892  0.4357
  270MOL0     C35564   1.282   9.666   2.043  0.4055  0.6379 -0.0505
  270MOL0     C35565   1.153   9.689   2.075  0.4580 -0.2892 -0.5308
  270MOL0     O35566   1.089   9.585   2.133  0.2996  0.0639 -0.2130
  270MOL0     C35567   0.946   9.612   2.169 -0.0239 -0.6928  0.3697
  270MOL0     C35568   0.891   9.487   2.228  0.1699 -0.6865 -0.7387
  270MOL0     C35569   0.947   9.448   2.360  0.2619  0.0635 -0.1112
  270MOL0     C35570   0.843   9.370   2.446 -0.1083  0.4516 -0.0888
  270MOL0     C35571   0.791   9.243   2.383 -0.5097 -0.4349  0.5904
  270MOL0     C35572   0.759   9.143   2.326  0.1093 -0.0950  0.0139
  270MOL0     C35573   1.093   9.813   2.040 -0.4602  0.6822 -0.7925
  270MOL0     C35574   1.173   9.913   1.985  0.2577  0.5789  0.6460
  270MOL0     H35575   1.684  10.036   1.671 -3.3911  1.1414 -0.1609
  270MOL0     H35576   1.843  10.222   1.670 -0.0096 -2.2090 -0.6483
  270MOL0     H35577   1.901  10.417   2.057  0.5346  1.9871  0.8514
  270MOL0     H35578   1.822  10.559   1.985  0.6738  1.2148  0.6624
  270MOL0     H35579   2.041  10.615   2.038 -0.6394  0.6131 -0.0058
  270MOL0     H35580   2.013  10.632   1.872  1.4835  1.4825  1.9286
  270MOL0     H35581   2.111  10.370   1.863  1.1058  0.0212 -0.4671
  270MOL0     H35582   2.159  10.397   2.027 -3.0863 -0.5900  0.6230
  270MOL0     H35583   2.305  10.584   1.951  0.3885  1.6811 -2.7380
  270MOL0     H35584   2.345  10.427   1.878  1.4016  0.9392 -1.0911
  270MOL0     H35585   2.350  10.613   1.713  0.4130 -3.0098 -2.0561
  270MOL0     H35586   2.189  10.660   1.740 -0.4732 -1.3360 -0.9175
  270MOL0     H35587   2.100  10.479   1.622  0.7294  1.2705 -2.2216
  270MOL0     H35588   2.233  10.375   1.673 -0.1731  0.9828  1.8217
  270MOL0     H35589   2.213  10.444   1.424 -1.4980 -0.6870  1.8890
  270MOL0     H35590   2.254  10.606   1.476  2.6768  0.0919  0.0596
  270MOL0     H35591   2.467  10.481   1.594  0.8448 -3.4748  0.9065
  270MOL0     H35592   2.477  10.512   1.419  0.1826 -1.1195 -0.0459
  270MOL0     H35593   2.431  10.317   1.262  1.9494  0.9258 -0.6924
  270MOL0     H35594   2.482   9.935   1.309 -0.1740 -0.8417  0.3015
  270MOL0     H35595   2.580  10.042   1.210 -0.5818 -1.1380 -1.0759
  270MOL0     H35596   2.339  10.142   1.144  2.5070 -0.0860 -0.7152
  270MOL0     H35597   2.271  10.018   1.242  0.0038  0.1833  0.0094
  270MOL0     H35598   2.453   9.979   0.986 -0.8006  0.5749 -2.2142
  270MOL0     H35599   2.410   9.853   1.094  1.0952 -1.0298 -3.4943
  270MOL0     H35600   2.170   9.883   1.034 -1.3643 -0.4789 -0.8708
  270MOL0     H35601   2.269   9.870   0.893  1.6529 -0.5890  0.1808
  270MOL0     H35602   2.128  10.255   0.791  2.2582 -0.7833 -4.1734
  270MOL0     H35603   1.903  10.277   0.662 -0.5732 -0.0305 -1.5784
  270MOL0     H35604   1.470  10.071   0.624 -3.0251  0.0585  0.4733
  270MOL0     H35605   1.258  10.023   0.501 -1.0686 -0.5970 -3.1383
  270MOL0     H35606   1.226   9.637   0.375  0.3925 -0.6716 -0.0885
  270MOL0     H35607   1.246   9.668   0.205  0.2485 -0.5840  0.6087
  270MOL0     H35608   1.032   9.594   0.233  1.4136  0.1478 -0.8172
  270MOL0     H35609   1.013   9.773   0.212  3.2303  2.2019 -0.5177
  270MOL0     H35610   1.027   9.775   0.473 -0.7277  1.8256 -1.4419
  270MOL0     H35611   1.002   9.596   0.460 -1.4270  0.1741  1.2058
  270MOL0     H35612   0.820   9.830   0.371  1.5181  0.0513  0.8045
  270MOL0     H35613   0.781   9.681   0.315 -3.0878 -0.7138  2.3596
  270MOL0     H35614   0.806   9.719   0.616  0.2834  1.1665 -0.2915
  270MOL0     H35615   0.758   9.575   0.522 -1.7352 -0.2288  1.3071
  270MOL0     H35616   0.578   9.721   0.422  0.8649  0.0002 -0.0837
  270MOL0     H35617   0.611   9.841   0.545  0.5199  0.2251 -2.8215
  270MOL0     H35618   0.530   9.540   0.584 -0.6061  0.1359  4.0898
  270MOL0     H35619   0.573   9.634   0.715  1.9132  0.2465 -0.4687
  270MOL0     H35620   0.316   9.648   0.529 -0.8102 -0.9308 -0.1832
  270MOL0     H35621   0.363   9.790   0.614 -3.3390 -0.3891 -0.0307
  270MOL0     H35622   1.453   9.730   0.262  0.8999  1.7661 -1.1736
  270MOL0     H35623   1.668   9.793   0.364  0.7894 -0.6818  2.0335
  270MOL0     H35624   1.827   9.867   0.742 -1.5776  1.4876  0.7188
  270MOL0     H35625   2.033   9.846   0.886 -0.2651 -1.2686 -1.4371
  270MOL0     H35626   1.703  10.318   2.069 -0.3397  0.1622 -0.3583
  270MOL0     H35627   1.563  10.123   2.068  0.0259  2.0550  0.6438
  270MOL0     H35628   1.460   9.745   1.955 -1.3583 -1.5507 -1.8269
  270MOL0     H35629   1.330   9.575   2.076 -0.8632 -0.5440 -1.3352
  270MOL0     H35630   0.882   9.627   2.082 -0.3520 -0.6348  0.6181
  270MOL0     H35631   0.935   9.702   2.231  1.9432 -0.1342 -0.0243
  270MOL0     H35632   0.782   9.487   2.234  0.1421 -0.8827 -1.2125
  270MOL0     H35633   0.916   9.403   2.162 -0.6961  1.1250 -3.5943
  270MOL0     H35634   0.976   9.537   2.417 -0.0490  0.3176 -0.3464
  270MOL0     H35635   1.040   9.393   2.347  0.2937  0.3667 -1.2265
  270MOL0     H35636   0.891   9.341   2.540 -1.9819 -0.5422  0.6178
  270MOL0     H35637   0.767   9.441   2.481  2.3142  1.8542  2.7486
  270MOL0     H35638   0.718   9.055   2.279  1.1391 -0.6311  0.0884
  270MOL0     H35639   0.985   9.826   2.043 -0.4916  1.8247 -3.5508
  270MOL0     H35640   1.126  10.001   1.943  1.6222  0.0303 -2.2234
  271MOL0     O35641   4.866  10.703  10.975 -0.4287 -0.1701 -0.1306
  271MOL0     C35642   4.784  10.700  10.883 -0.1927 -0.2832 -0.3727
  271MOL0     O35643   4.652  10.713  10.895  0.2146  0.1826 -0.0922
  271MOL0     C35644   4.605  10.729  11.023  0.2791 -0.3279  0.4755
  271MOL0     C35645   4.501  10.824  11.036  0.7068 -0.7297  0.0745
  271MOL0     C35646   4.430  10.841  11.156 -0.4911 -0.6608 -0.1843
  271MOL0     C35647   4.465  10.767  11.266  0.1904 -0.7686  0.6616
  271MOL0     O35648   4.391  10.766  11.387  0.1201 -0.5064 -0.6817
  271MOL0     C35649   4.271  10.842  11.393 -0.0176 -0.1366 -0.1128
  271MOL0     C35650   4.151  10.786  11.324  0.4005  1.6127  0.5683
  271MOL0     C35651   4.031  10.864  11.368  0.4599 -0.2796 -0.2092
  271MOL0     C35652   3.907  10.824  11.294  1.1267  0.5918 -0.0594
  271MOL0     C35653   3.781  10.894  11.352  0.7316  0.1299  0.0597
  271MOL0     C35654   3.658  10.833  11.284  0.4354 -0.4472  1.1932
  271MOL0     C35655   3.529  10.886  11.339  0.6957  0.0198 -0.4915
  271MOL0     C35656   3.408  10.819  11.284 -0.3728 -0.0643 -0.3655
  271MOL0     N35657   3.279  10.850  11.337 -0.6550 -0.8449  0.0762
  271MOL0     C35658   3.234  10.951  11.420  0.3523 -0.1545  0.6672
  271MOL0     C35659   3.100  10.937  11.420  0.1371 -0.1410 -1.0518
  271MOL0     C35660   3.003  11.032  11.479  0.0833 -0.2540  0.5427
  271MOL0     C35661   3.001  11.171  11.404 -0.2345 -0.2940 -0.3067
  271MOL0     C35662   2.911  11.284  11.465  0.9404 -0.1514 -0.1272
  271MOL0     C35663   2.759  11.260  11.460 -0.2482 -0.1969  0.0500
  271MOL0     O35664   2.688  11.317  11.573 -0.3827  0.3124  0.0272
  271MOL0     C35665   2.577  11.263  11.634 -0.1848 -0.5026  0.8299
  271MOL0     C35666   2.506  11.160  11.578  0.0200  1.0214  0.2641
  271MOL0     C35667   2.383  11.118  11.641 -0.2982  1.4742 -0.0183
  271MOL0     C35668   2.338  11.165  11.759  0.8781  0.4041  0.4896
  271MOL0     C35669   2.207  11.121  11.806 -1.0523  0.2281 -0.6479
  271MOL0     O35670   2.147  11.020  11.739 -0.4725  0.2192  0.4583
  271MOL0     C35671   2.017  10.977  11.763  0.2181 -0.4168 -0.3534
  271MOL0     C35672   1.997  10.844  11.803 -0.5073  0.3227 -0.1108
  271MOL0     C35673   1.872  10.792  11.827  0.0670  0.1436 -0.3519
  271MOL0     C35674   1.762  10.872  11.795 -0.0770 -0.4890 -0.3996
  271MOL0     O35675   1.638  10.821  11.803 -0.2220  0.1188 -1.0912
  271MOL0     C35676   1.594  10.753  11.687  0.4890  0.3225  0.2325
  271MOL0     C35677   1.441  10.759  11.686 -0.3454  0.0828 -0.7188
  271MOL0     C35678   1.383  10.900  11.674 -0.5914  0.5782 -0.4004
  271MOL0     C35679   1.236  10.883  11.639  0.4519 -0.1171 -0.5131
  271MOL0     C35680   1.159  11.020  11.650 -0.8094 -0.1661 -0.5751
  271MOL0     C35681   1.050  11.034  11.543  0.1392 -0.2185 -0.7491
  271MOL0     C35682   0.986  11.181  11.565  0.3056  0.5350 -0.3331
  271MOL0     C35683   0.924  11.217  11.437  0.4501 -0.3421 -0.1442
  271MOL0    Cl35684   0.790  11.104  11.385 -0.3947 -0.2663 -0.2042
  271MOL0     C35685   1.777  11.002  11.743  0.3705  0.0317 -0.5346
  271MOL0     C35686   1.905  11.063  11.738  0.4798 -0.3053 -0.1701
  271MOL0     O35687   2.153  11.190  11.892  0.1394 -0.0327  0.0497
  271MOL0     C35688   2.404  11.274  11.815 -0.2849 -0.1394  0.2474
  271MOL0     C35689   2.520  11.322  11.750  0.3118  0.3152  0.3675
  271MOL0     N35690   3.066  10.840  11.329 -0.1361 -0.4700 -0.5219
  271MOL0     N35691   3.175  10.792  11.274  0.6462 -0.3027 -0.4910
  271MOL0     C35692   4.577  10.686  11.256  0.0508 -0.0632  0.5706
  271MOL0     C35693   4.651  10.671  11.139 -0.3538 -0.6486  0.0238
  271MOL0     C35694   4.834  10.656  10.751  0.9065  0.0615  0.0279
  271MOL0     C35695   4.959  10.615  10.719  0.4065  0.6952  0.0608
  271MOL0     C35696   4.996  10.576  10.587  0.8649  0.4938 -0.1395
  271MOL0     C35697   4.912  10.592  10.482  0.1966 -0.5172 -1.0329
  271MOL0     O35698   4.965  10.569  10.362  0.0054 -0.4820  0.7051
  271MOL0     C35699   4.890  10.610  10.245  0.1633  0.5386 -0.0105
  271MOL0     C35700   4.959  10.542  10.120  0.1044  0.2478  0.6876
  271MOL0     C35701   4.910  10.588   9.988  0.5333 -0.3634 -0.0423
  271MOL0     C35702   4.776  10.534   9.952 -0.2154  0.2056  0.7276
  271MOL0     C35703   4.739  10.575   9.819  0.7143 -0.6053  0.1727
  271MOL0     C35704   4.695  10.578   9.704  0.2356  0.4642 -0.3734
  271MOL0     C35705   4.784  10.656  10.513 -0.0498  0.0761 -0.2460
  271MOL0     C35706   4.751  10.685  10.638  0.0519 -0.0287  0.0592
  271MOL0     H35707   4.481  10.877  10.944  0.8154 -3.0916 -1.3846
  271MOL0     H35708   4.347  10.910  11.160 -1.3902 -1.7746  1.5150
  271MOL0     H35709   4.286  10.942  11.351  2.7141  0.7180  2.5197
  271MOL0     H35710   4.243  10.854  11.498 -0.6637  0.2442 -0.3256
  271MOL0     H35711   4.134  10.679  11.333 -0.0897  1.4295 -1.8827
  271MOL0     H35712   4.162  10.792  11.216  1.1694 -3.0730  0.2101
  271MOL0     H35713   4.033  10.971  11.347 -0.3279  0.2729  2.2387
  271MOL0     H35714   4.023  10.850  11.476 -1.9699  0.8807 -0.1694
  271MOL0     H35715   3.907  10.844  11.186 -0.2716  1.0323 -0.0052
  271MOL0     H35716   3.894  10.718  11.314  0.3039  0.6467 -0.2463
  271MOL0     H35717   3.795  11.003  11.349  1.7759  0.0296  0.5847
  271MOL0     H35718   3.769  10.877  11.459 -2.6539 -2.0284 -0.5139
  271MOL0     H35719   3.663  10.724  11.289  0.3586 -0.4814  0.5850
  271MOL0     H35720   3.661  10.858  11.177 -0.6934 -1.3466  0.9291
  271MOL0     H35721   3.537  10.868  11.447  1.2678 -2.0060 -0.8224
  271MOL0     H35722   3.524  10.995  11.331  3.8327  0.6118  2.5022
  271MOL0     H35723   3.427  10.712  11.291 -4.8404 -1.2617 -2.6374
  271MOL0     H35724   3.416  10.840  11.177 -1.0611  1.2927 -0.1772
  271MOL0     H35725   3.292  11.035  11.457  0.9160  0.8293 -2.2219
  271MOL0     H35726   3.026  11.052  11.584 -2.1718 -2.1254  1.4778
  271MOL0     H35727   2.908  10.978  11.475  0.9707 -1.7983 -1.0763
  271MOL0     H35728   2.967  11.151  11.302 -1.1867 -0.4398  0.0291
  271MOL0     H35729   3.101  11.213  11.402 -0.5637  0.4771 -1.9556
  271MOL0     H35730   2.944  11.297  11.569 -0.7481 -0.8496  0.5313
  271MOL0     H35731   2.940  11.372  11.407  0.6777  0.0375  0.0239
  271MOL0     H35732   2.740  11.152  11.457 -0.0102 -0.3301  2.0087
  271MOL0     H35733   2.721  11.312  11.372 -2.0256  2.0223  2.0095
  271MOL0     H35734   2.538  11.124  11.480  0.0727 -1.1212  1.0309
  271MOL0     H35735   2.339  11.032  11.591  0.5167  0.4273  1.0073
  271MOL0     H35736   2.077  10.772  11.820 -0.7182  0.2926  0.7789
  271MOL0     H35737   1.862  10.691  11.867 -1.6269 -0.5896 -2.4500
  271MOL0     H35738   1.625  10.648  11.685  0.3713  0.3000 -1.0886
  271MOL0     H35739   1.633  10.804  11.598  1.2536  0.9911  0.9365
  271MOL0     H35740   1.404  10.706  11.775 -1.4152  1.2592 -0.4397
  271MOL0     H35741   1.403  10.697  11.604 -0.9667 -1.3055  0.5681
  271MOL0     H35742   1.437  10.966  11.606  1.4859 -0.7059 -0.1069
  271MOL0     H35743   1.396  10.935  11.777  0.9237  0.3411 -0.4846
  271MOL0     H35744   1.242  10.852  11.534  1.3023  0.0902 -0.5331
  271MOL0     H35745   1.188  10.808  11.703  0.0587  2.1792  2.0978
  271MOL0     H35746   1.237  11.096  11.645 -0.5313 -0.1835  2.1633
  271MOL0     H35747   1.122  11.032  11.752  0.7050  0.4177 -0.0733
  271MOL0     H35748   0.981  10.950  11.555 -0.2101 -0.0252 -1.3338
  271MOL0     H35749   1.096  11.030  11.444 -0.6761  1.5222 -1.2346
  271MOL0     H35750   0.905  11.189  11.638 -2.4286  0.2694 -3.1067
  271MOL0     H35751   1.062  11.255  11.591  0.0411  0.3996  0.9061
  271MOL0     H35752   0.992  11.207  11.351  0.1594 -1.7972 -0.2292
  271MOL0     H35753   0.892  11.321  11.447  0.3290 -0.3170 -0.7421
  271MOL0     H35754   1.691  11.063  11.717  0.4794 -0.3929 -1.9740
  271MOL0     H35755   1.923  11.161  11.694  1.5448  0.5018  1.9150
  271MOL0     H35756   2.375  11.322  11.908  3.0350  0.7675  0.9236
  271MOL0     H35757   2.568  11.411  11.791 -0.7283 -0.1467  2.7547
  271MOL0     H35758   4.599  10.609  11.330  1.0854 -0.4883 -0.1520
  271MOL0     H35759   4.742  10.613  11.142 -0.7633 -1.2387  1.6904
  271MOL0     H35760   5.033  10.595  10.796 -1.4329  0.6052  1.9243
  271MOL0     H35761   5.100  10.550  10.569  0.7847 -0.2017  0.3652
  271MOL0     H35762   4.883  10.719  10.240 -2.3282  0.5229  1.5589
  271MOL0     H35763   4.788  10.572  10.238  1.3372 -2.6352 -1.6290
  271MOL0     H35764   5.063  10.575  10.113  0.2453 -0.4874 -2.8786
  271MOL0     H35765   4.951  10.433  10.123 -0.5574  0.3139  3.3432
  271MOL0     H35766   4.990  10.561   9.918 -1.3032 -0.4472 -2.2097
  271MOL0     H35767   4.897  10.697   9.992  2.9508 -0.0273  0.2191
  271MOL0     H35768   4.781  10.426   9.938  0.0892  0.3271 -0.1859
  271MOL0     H35769   4.695  10.554  10.022 -1.4179 -1.0616 -0.2643
  271MOL0     H35770   4.637  10.587   9.614  0.6216  2.9424 -0.4558
  271MOL0     H35771   4.724  10.687  10.428 -1.3779 -0.2464  0.5455
  271MOL0     H35772   4.656  10.735  10.655 -0.9941 -2.1919  0.9781
  272MOL0     O35773   2.907   0.107   0.926 -1.0439 -0.0566 -0.3389
  272MOL0     C35774   2.955   0.217   0.896  0.4903  0.6067  0.4417
  272MOL0     O35775   2.881   0.317   0.845  0.4704  0.3436  0.2307
  272MOL0     C35776   2.748   0.336   0.871 -0.5864  0.1247  0.3607
  272MOL0     C35777   2.682   0.282   0.983 -0.3488 -0.6260 -0.5793
  272MOL0     C35778   2.547   0.302   1.004  0.2133 -0.0295  0.6378
  272MOL0     C35779   2.473   0.361   0.905 -0.0307 -0.2161  0.5177
  272MOL0     O35780   2.335   0.367   0.903 -0.0387 -0.6834 -0.3363
  272MOL0     C35781   2.266   0.305   1.012  0.2589 -0.5813 -0.0667
  272MOL0     C35782   2.118   0.324   0.994 -0.2241  0.5151 -0.1887
  272MOL0     C35783   2.065   0.299   0.851 -0.7950 -0.2131  0.4587
  272MOL0     C35784   1.918   0.320   0.863  0.2106  0.2622 -0.4335
  272MOL0     C35785   1.846   0.329   0.731 -0.7127 -0.0977 -0.0915
  272MOL0     C35786   1.831   0.201   0.655  0.0920  0.1599  0.7394
  272MOL0     C35787   1.746   0.216   0.520  0.0716 -0.3203 -0.2700
  272MOL0     C35788   1.630   0.311   0.521  0.5014  0.2650  0.9296
  272MOL0     N35789   1.561   0.295   0.390 -0.3181 -0.5422 -0.5538
  272MOL0     C35790   1.448   0.226   0.369 -0.3513  0.3999  0.5876
  272MOL0     C35791   1.430   0.233   0.236  0.1989  0.0652 -0.6320
  272MOL0     C35792   1.314   0.169   0.162  0.0874 -0.3650  0.4204
  272MOL0     C35793   1.192   0.259   0.158  0.4236 -0.3693 -0.2794
  272MOL0     C35794   1.209   0.367   0.047  0.1888  0.1724  0.0887
  272MOL0     C35795   1.100   0.469   0.071 -0.1797  0.1784  0.2315
  272MOL0     O35796   0.977   0.403   0.025 -1.0501  0.3607 -0.4254
  272MOL0     C35797   0.866   0.479  -0.010 -0.2540  0.3682 -0.0952
  272MOL0     C35798   0.792   0.435  -0.119 -0.0504 -0.5022 -0.0918
  272MOL0     C35799   0.680   0.500  -0.169  1.1791  0.6498 -0.4311
  272MOL0     C35800   0.641   0.628  -0.112 -0.8923  0.2144 -0.5562
  272MOL0     C35801   0.518   0.702  -0.139  0.7755  0.1743 -0.3913
  272MOL0     O35802   0.484   0.813  -0.071 -0.6158 -0.0063 -0.0320
  272MOL0     C35803   0.375   0.900  -0.095 -0.6583  0.5301  0.5635
  272MOL0     C35804   0.243   0.851  -0.111 -0.9258 -0.9921 -0.6068
  272MOL0     C35805   0.141   0.945  -0.123  0.3583  0.7021 -0.6108
  272MOL0     C35806   0.168   1.079  -0.126  0.4829 -0.8447  0.0727
  272MOL0     O35807   0.071   1.181  -0.140  0.5935  0.7360 -0.3640
  272MOL0     C35808  -0.071   1.139  -0.132  0.4398  0.3495  1.3830
  272MOL0     C35809  -0.162   1.262  -0.173  0.2693  0.0465 -0.7818
  272MOL0     C35810  -0.174   1.267  -0.329 -0.4315  0.5595  0.1034
  272MOL0     C35811  -0.166   1.392  -0.396 -0.6130 -0.4452 -0.6152
  272MOL0     C35812  -0.296   1.465  -0.396  0.2438 -1.1406  0.2436
  272MOL0     C35813  -0.404   1.431  -0.499 -1.0647  1.0130  0.1220
  272MOL0     C35814  -0.520   1.532  -0.512  0.1841  0.0199  0.2550
  272MOL0     C35815  -0.472   1.651  -0.600  0.5303  0.8073 -0.1231
  272MOL0    Cl35816  -0.435   1.594  -0.766  0.0192 -0.1343  0.1408
  272MOL0     C35817   0.297   1.125  -0.112 -0.4101  0.1375  0.5426
  272MOL0     C35818   0.406   1.038  -0.106  0.4733  0.3717  0.3254
  272MOL0     O35819   0.449   0.657  -0.231  0.7207 -0.5162 -0.3317
  272MOL0     C35820   0.735   0.682  -0.016  0.0919  0.8494  0.1638
  272MOL0     C35821   0.845   0.611   0.033  1.0764  0.0157 -0.3331
  272MOL0     N35822   1.531   0.312   0.177  0.3825  0.2475  0.4343
  272MOL0     N35823   1.601   0.351   0.275 -0.0648  0.6636  0.5165
  272MOL0     C35824   2.531   0.402   0.782 -0.0141  1.3584 -0.5170
  272MOL0     C35825   2.674   0.391   0.767 -0.2000 -0.1945 -0.1810
  272MOL0     C35826   3.099   0.224   0.893 -0.0603  0.0916 -0.1677
  272MOL0     C35827   3.173   0.112   0.925 -0.3437 -0.7261 -0.1363
  272MOL0     C35828   3.317   0.123   0.919 -0.3537 -0.9222  0.5289
  272MOL0     C35829   3.379   0.244   0.894  0.2496 -0.1907  0.8435
  272MOL0     O35830   3.512   0.280   0.889  0.3863  0.2879 -0.1529
  272MOL0     C35831   3.605   0.171   0.889 -0.0988  0.1049 -0.4781
  272MOL0     C35832   3.741   0.233   0.898  0.2759 -0.5716  0.2142
  272MOL0     C35833   3.850   0.132   0.842  0.2336  0.4200 -0.1896
  272MOL0     C35834   3.988   0.202   0.828 -0.3185 -0.2931  0.6073
  272MOL0     C35835   4.079   0.114   0.743 -0.6051  0.3912  0.1522
  272MOL0     C35836   4.158   0.048   0.675  0.0332 -1.0575  0.5960
  272MOL0     C35837   3.293   0.352   0.861 -0.2449 -0.5084 -0.0773
  272MOL0     C35838   3.157   0.346   0.855 -0.4050 -0.0586 -1.3349
  272MOL0     H35839   2.740   0.237   1.063 -2.0446  0.4048  1.3167
  272MOL0     H35840   2.499   0.256   1.090 -2.1082 -1.0136 -1.0898
  272MOL0     H35841   2.287   0.352   1.109 -0.2538 -0.0450 -0.2130
  272MOL0     H35842   2.285   0.198   1.026  0.2321 -0.4990  0.6867
  272MOL0     H35843   2.086   0.426   1.017 -2.6272  0.0447 -1.0922
  272MOL0     H35844   2.065   0.261   1.066 -2.6873 -0.2690 -2.5182
  272MOL0     H35845   2.107   0.209   0.804  3.0749  1.4545  0.4093
  272MOL0     H35846   2.114   0.379   0.795 -1.6063  0.5974  0.8848
  272MOL0     H35847   1.875   0.236   0.919  0.7076 -0.6172 -1.3255
  272MOL0     H35848   1.897   0.412   0.919 -0.1538 -1.5285  2.5968
  272MOL0     H35849   1.906   0.396   0.668  0.2779  0.8130  1.7321
  272MOL0     H35850   1.745   0.369   0.747 -0.1245  0.9568  1.1535
  272MOL0     H35851   1.779   0.129   0.718  0.3265 -0.7038 -0.0347
  272MOL0     H35852   1.929   0.155   0.638 -0.6131 -0.7540 -1.1608
  272MOL0     H35853   1.818   0.249   0.444  4.6997  0.0613  3.7935
  272MOL0     H35854   1.711   0.117   0.489  1.6367 -0.6691 -0.9989
  272MOL0     H35855   1.651   0.417   0.533 -0.8125  0.4958  1.3975
  272MOL0     H35856   1.570   0.286   0.609  1.4958  0.1323  1.5841
  272MOL0     H35857   1.385   0.171   0.439 -3.9977  1.4066 -1.6631
  272MOL0     H35858   1.282   0.074   0.205  1.3933 -1.2484 -0.4672
  272MOL0     H35859   1.339   0.148   0.058  0.4356 -0.6577  0.5642
  272MOL0     H35860   1.162   0.304   0.253 -0.1880 -2.4306  0.5557
  272MOL0     H35861   1.111   0.189   0.135 -0.5661  0.3541  0.9061
  272MOL0     H35862   1.310   0.409   0.054  1.7388 -2.4550 -3.5103
  272MOL0     H35863   1.194   0.317  -0.049 -0.9842 -1.4601  1.0661
  272MOL0     H35864   1.126   0.567   0.028  1.8370  0.5612  2.1363
  272MOL0     H35865   1.077   0.491   0.176 -0.6946 -0.2582  0.2145
  272MOL0     H35866   0.819   0.341  -0.166  0.7794 -0.1709 -0.2789
  272MOL0     H35867   0.613   0.456  -0.242 -1.4845 -1.7587  3.0983
  272MOL0     H35868   0.228   0.746  -0.090  0.8629 -1.0122  0.8656
  272MOL0     H35869   0.039   0.911  -0.134 -0.5880  3.1633 -0.2408
  272MOL0     H35870  -0.089   1.098  -0.033 -1.1360 -3.6035 -0.3455
  272MOL0     H35871  -0.099   1.056  -0.198 -0.6908  0.5946  1.5473
  272MOL0     H35872  -0.110   1.353  -0.142 -1.4817  0.8713 -0.1493
  272MOL0     H35873  -0.262   1.246  -0.132  0.9220 -0.2945  0.7506
  272MOL0     H35874  -0.268   1.213  -0.345 -0.5486 -0.3889  3.2652
  272MOL0     H35875  -0.083   1.218  -0.364 -0.1327  1.2964 -0.1637
  272MOL0     H35876  -0.090   1.454  -0.349 -1.3370  0.3772 -0.5015
  272MOL0     H35877  -0.150   1.367  -0.501  0.2847 -1.4581 -0.2658
  272MOL0     H35878  -0.281   1.573  -0.402 -2.1172 -0.8370 -1.3247
  272MOL0     H35879  -0.333   1.455  -0.293  1.5267 -1.5707  0.7004
  272MOL0     H35880  -0.455   1.339  -0.467 -0.7672  0.3673 -1.1692
  272MOL0     H35881  -0.361   1.405  -0.596  0.5673  0.1853  1.0255
  272MOL0     H35882  -0.610   1.488  -0.556  0.5790  0.9118 -1.5309
  272MOL0     H35883  -0.550   1.578  -0.418 -3.2041  0.7173 -1.0065
  272MOL0     H35884  -0.384   1.695  -0.554  2.5394 -3.0605  0.0805
  272MOL0     H35885  -0.551   1.726  -0.613 -0.3017 -0.3711 -2.4909
  272MOL0     H35886   0.311   1.232  -0.119 -0.7212  0.3301  2.3909
  272MOL0     H35887   0.509   1.071  -0.095  1.0276 -0.5704 -1.5904
  272MOL0     H35888   0.726   0.785   0.018 -6.1371  0.6246  0.3603
  272MOL0     H35889   0.904   0.657   0.111  0.6203 -0.8096  0.5181
  272MOL0     H35890   2.467   0.439   0.704 -3.1522  1.2738  1.8181
  272MOL0     H35891   2.731   0.432   0.683  1.0750  1.4778  1.4121
  272MOL0     H35892   3.129   0.014   0.945  0.5992 -1.1299  0.0028
  272MOL0     H35893   3.369   0.040   0.966  0.8716 -0.7767 -0.5161
  272MOL0     H35894   3.600   0.125   0.790 -2.5742 -0.4394 -0.1645
  272MOL0     H35895   3.587   0.101   0.970  0.7052  0.7447  0.2800
  272MOL0     H35896   3.748   0.329   0.846  1.9185 -1.6897 -1.8118
  272MOL0     H35897   3.758   0.247   1.005 -0.3196  0.0307  0.2356
  272MOL0     H35898   3.825   0.101   0.740 -3.2382  1.1998  0.2887
  272MOL0     H35899   3.854   0.048   0.912  3.2824  2.1932  2.0251
  272MOL0     H35900   3.972   0.299   0.780 -2.4232 -1.5191 -1.3390
  272MOL0     H35901   4.033   0.202   0.928  1.7767 -1.8374 -0.2507
  272MOL0     H35902   4.229  -0.005   0.615 -1.3464 -1.2257 -0.9446
  272MOL0     H35903   3.333   0.446   0.825  0.0220 -0.4941  0.2488
  272MOL0     H35904   3.094   0.431   0.829 -1.8688 -0.0684  1.7225
  273MOL0     O35905   8.845   5.309   6.804 -0.1789  0.2548  0.6794
  273MOL0     C35906   8.897   5.368   6.897  0.0770 -0.0583  0.0284
  273MOL0     O35907   8.830   5.446   6.990  0.4746 -0.2990 -0.1302
  273MOL0     C35908   8.697   5.446   6.989  0.0563 -0.0348 -0.1440
  273MOL0     C35909   8.624   5.332   7.018 -0.2464 -0.8160  0.2753
  273MOL0     C35910   8.485   5.328   7.017  0.0365 -0.2730 -0.7610
  273MOL0     C35911   8.420   5.449   6.989  0.5130 -0.0015 -0.4577
  273MOL0     O35912   8.286   5.465   6.999 -0.3729 -0.2738 -0.3934
  273MOL0     C35913   8.203   5.355   7.045 -0.3097  0.1386  0.5008
  273MOL0     C35914   8.070   5.410   7.042  1.1687  0.1912  0.2531
  273MOL0     C35915   7.977   5.319   7.109 -1.0667  0.1494 -0.0557
  273MOL0     C35916   7.843   5.383   7.138  0.0963 -0.2969  0.8561
  273MOL0     C35917   7.744   5.285   7.197  0.1887 -0.4466 -0.0499
  273MOL0     C35918   7.681   5.181   7.100 -0.2440  0.0349 -0.0960
  273MOL0     C35919   7.572   5.095   7.167 -0.0183 -0.1045  0.4628
  273MOL0     C35920   7.458   5.183   7.228  0.5850 -0.2631  0.3116
  273MOL0     N35921   7.397   5.276   7.131  0.6466 -0.0324 -0.7085
  273MOL0     C35922   7.296   5.244   7.049  0.4474  0.0273  1.3256
  273MOL0     C35923   7.269   5.363   6.988  0.1429  0.6696  0.2171
  273MOL0     C35924   7.167   5.389   6.887  0.4388  0.0378 -0.7296
  273MOL0     C35925   7.052   5.467   6.940  1.1353 -0.7190 -0.3868
  273MOL0     C35926   6.971   5.399   7.050 -0.9249  0.3158  0.1550
  273MOL0     C35927   6.842   5.469   7.077 -0.4463 -0.3212 -0.6099
  273MOL0     O35928   6.757   5.461   6.961  0.4288  0.0541 -0.9486
  273MOL0     C35929   6.625   5.502   6.990 -0.4466 -0.2628 -0.3773
  273MOL0     C35930   6.540   5.492   6.882  0.4534 -0.2552 -0.1973
  273MOL0     C35931   6.405   5.520   6.884  0.1012 -0.4403  0.5806
  273MOL0     C35932   6.344   5.555   7.009 -0.0803  0.1694  0.2174
  273MOL0     C35933   6.198   5.579   7.026 -0.2521 -1.2913 -0.7551
  273MOL0     O35934   6.140   5.580   7.150  0.0874  0.4413 -0.1148
  273MOL0     C35935   6.003   5.623   7.159 -1.1843 -0.3739 -0.0260
  273MOL0     C35936   5.918   5.547   7.236  0.2848  0.4522 -1.0610
  273MOL0     C35937   5.783   5.579   7.247  0.1386 -0.0886  0.0399
  273MOL0     C35938   5.721   5.688   7.179 -0.0039 -0.1851  0.0356
  273MOL0     O35939   5.585   5.716   7.199 -1.0343 -0.6783  0.1101
  273MOL0     C35940   5.505   5.757   7.080 -0.5701 -0.2256  0.2905
  273MOL0     C35941   5.369   5.687   7.090 -0.3056 -0.2421  0.2080
  273MOL0     C35942   5.290   5.726   7.222  0.2086  0.5560 -0.3491
  273MOL0     C35943   5.185   5.831   7.196  0.1222  1.0651 -0.4797
  273MOL0     C35944   5.146   5.900   7.322  0.4030  0.9133 -0.6814
  273MOL0     C35945   5.054   6.023   7.303 -1.0434 -0.0671  0.0245
  273MOL0     C35946   4.925   5.986   7.244 -0.3003  0.2859 -0.2349
  273MOL0     C35947   4.830   5.893   7.324  0.0475  0.3110  0.2456
  273MOL0    Cl35948   4.676   5.875   7.234  0.1965  0.1300  0.3287
  273MOL0     C35949   5.811   5.763   7.101  0.0950 -0.1266  1.0677
  273MOL0     C35950   5.947   5.733   7.092 -0.2957 -0.5736 -0.2763
  273MOL0     O35951   6.135   5.595   6.923 -0.6616 -0.2337  0.4885
  273MOL0     C35952   6.431   5.559   7.120  0.4320 -0.1574  0.6860
  273MOL0     C35953   6.566   5.536   7.118  0.3023  0.0488  0.1510
  273MOL0     N35954   7.369   5.454   7.023  0.4917 -0.2849  0.4333
  273MOL0     N35955   7.437   5.402   7.110 -0.2164 -0.0796  0.1323
  273MOL0     C35956   8.489   5.565   6.950  0.0553  0.0145  0.3547
  273MOL0     C35957   8.627   5.562   6.953  0.4086 -1.4757  0.0625
  273MOL0     C35958   9.045   5.368   6.895  0.4147  0.0719 -0.1442
  273MOL0     C35959   9.128   5.299   6.799  0.0969 -0.0977 -0.2295
  273MOL0     C35960   9.274   5.328   6.797  0.6799 -0.3652  0.3531
  273MOL0     C35961   9.343   5.403   6.888  0.6539 -0.3437  0.2891
  273MOL0     O35962   9.483   5.406   6.885 -0.4465 -0.2420  0.3349
  273MOL0     C35963   9.552   5.467   6.991 -0.1573  0.4105  0.0603
  273MOL0     C35964   9.700   5.502   6.957 -0.2039 -0.7097  0.9843
  273MOL0     C35965   9.782   5.530   7.077  0.3150 -0.5158  0.3839
  273MOL0     C35966   9.914   5.603   7.044  0.6811  0.3510  0.2484
  273MOL0     C35967  10.006   5.510   6.980 -0.2471 -0.2780 -0.1000
  273MOL0     C35968  10.074   5.412   6.950 -0.2903  0.7440 -0.4659
  273MOL0     C35969   9.256   5.469   6.979 -0.1020 -0.2834  0.7834
  273MOL0     C35970   9.111   5.449   6.983 -0.4909 -0.7020  0.9344
  273MOL0     H35971   8.677   5.238   7.026  0.6600 -0.2971  0.4316
  273MOL0     H35972   8.435   5.233   7.035 -0.4501  0.3592  1.5466
  273MOL0     H35973   8.234   5.332   7.148  0.2771 -0.0893  0.2732
  273MOL0     H35974   8.212   5.268   6.979  2.9537  0.9487 -0.2572
  273MOL0     H35975   8.031   5.435   6.944  1.8260 -0.3967 -0.1756
  273MOL0     H35976   8.071   5.502   7.102  0.7102 -0.6350  1.5760
  273MOL0     H35977   8.023   5.282   7.201  0.8380  1.1354 -0.5745
  273MOL0     H35978   7.960   5.231   7.046  2.6638 -0.6264 -0.1735
  273MOL0     H35979   7.867   5.460   7.212  0.9877  1.0325 -0.7569
  273MOL0     H35980   7.798   5.430   7.050  1.4612 -0.1180  0.2296
  273MOL0     H35981   7.665   5.351   7.234  2.1628  0.9578  1.8858
  273MOL0     H35982   7.786   5.245   7.289 -1.8080  0.0748  1.1473
  273MOL0     H35983   7.759   5.110   7.073  0.3049 -0.0642  1.6394
  273MOL0     H35984   7.644   5.239   7.014  2.0969  1.2756 -0.3360
  273MOL0     H35985   7.526   5.026   7.096 -1.3943  0.3428  0.8996
  273MOL0     H35986   7.624   5.037   7.244  1.2506  0.9609  0.4599
  273MOL0     H35987   7.497   5.240   7.312 -1.1463  1.7277 -0.1306
  273MOL0     H35988   7.381   5.117   7.269  0.2181  1.6666  2.9811
  273MOL0     H35989   7.243   5.150   7.034  1.4342 -0.3718  0.2196
  273MOL0     H35990   7.127   5.296   6.845 -0.3840  0.9006 -1.9374
  273MOL0     H35991   7.206   5.441   6.799 -1.7979 -0.8442 -2.3434
  273MOL0     H35992   6.986   5.497   6.858 -1.1619 -1.8392  0.9605
  273MOL0     H35993   7.084   5.559   6.992 -1.2809 -0.1243  0.1474
  273MOL0     H35994   6.943   5.296   7.027  1.0405 -0.8579  2.5097
  273MOL0     H35995   7.035   5.386   7.138 -0.6567 -1.9077 -0.3095
  273MOL0     H35996   6.858   5.575   7.097 -1.5268 -0.0713 -1.0075
  273MOL0     H35997   6.788   5.430   7.163 -0.2290 -0.9276 -0.7431
  273MOL0     H35998   6.595   5.455   6.796  2.0562  1.1561  0.1592
  273MOL0     H35999   6.343   5.501   6.798  1.7103 -1.4843 -0.3990
  273MOL0     H36000   5.957   5.463   7.293  0.2336  0.7587 -0.5684
  273MOL0     H36001   5.720   5.516   7.309 -0.1531 -1.6907 -1.7666
  273MOL0     H36002   5.563   5.732   6.991  1.7035  0.8846  1.3856
  273MOL0     H36003   5.500   5.866   7.086  2.7235  0.0306  0.0570
  273MOL0     H36004   5.381   5.578   7.084  0.8062 -0.1370  0.4544
  273MOL0     H36005   5.317   5.715   6.998  4.1600 -0.2779 -2.6155
  273MOL0     H36006   5.359   5.749   7.304  1.5425  0.9381 -1.5228
  273MOL0     H36007   5.230   5.639   7.249 -0.5699  1.3539  0.5510
  273MOL0     H36008   5.218   5.910   7.128  2.5981  0.1519 -0.4646
  273MOL0     H36009   5.103   5.785   7.140 -0.2980  1.2212  0.0055
  273MOL0     H36010   5.237   5.938   7.370  0.7280  1.1617 -1.4753
  273MOL0     H36011   5.105   5.821   7.386  2.4548  2.9423  3.5428
  273MOL0     H36012   5.116   6.096   7.250 -0.2897  0.7090  1.8892
  273MOL0     H36013   5.043   6.068   7.402 -0.6206  3.8948 -1.5397
  273MOL0     H36014   4.873   6.078   7.215  0.1778  0.9876  1.0579
  273MOL0     H36015   4.939   5.929   7.152 -1.9434 -0.2127 -0.2001
  273MOL0     H36016   4.807   5.936   7.422 -0.4562  0.3158  0.1286
  273MOL0     H36017   4.871   5.792   7.330  0.2102  0.3132 -0.6655
  273MOL0     H36018   5.765   5.840   7.041 -1.1067 -2.5931 -1.3770
  273MOL0     H36019   6.005   5.800   7.030  0.0284 -1.4207 -0.9098
  273MOL0     H36020   6.392   5.574   7.220  1.6418 -3.1301  1.7149
  273MOL0     H36021   6.623   5.546   7.210  2.0782  0.9690 -0.9943
  273MOL0     H36022   8.440   5.655   6.914 -0.9658 -0.9903 -0.8926
  273MOL0     H36023   8.685   5.644   6.913  0.6957 -1.8580 -0.3095
  273MOL0     H36024   9.100   5.224   6.725  2.7417 -1.3342 -0.0975
  273MOL0     H36025   9.328   5.276   6.719 -2.0735 -0.1272 -1.8552
  273MOL0     H36026   9.552   5.391   7.070 -1.8276  1.3266  0.9835
  273MOL0     H36027   9.508   5.562   7.021 -2.0721 -0.1731 -0.7425
  273MOL0     H36028   9.754   5.433   6.891 -0.4302 -1.0475  1.1480
  273MOL0     H36029   9.691   5.596   6.901  0.4962 -1.9353 -1.3257
  273MOL0     H36030   9.789   5.437   7.134 -0.7028 -2.1017 -1.9421
  273MOL0     H36031   9.728   5.596   7.145  1.1817 -0.0087  0.6000
  273MOL0     H36032   9.895   5.695   6.988 -0.5598  0.5818  1.0267
  273MOL0     H36033   9.963   5.637   7.135  0.5220  0.6491  0.2238
  273MOL0     H36034  10.136   5.331   6.918  0.2554  0.5938  0.9029
  273MOL0     H36035   9.301   5.528   7.058  1.6028  1.3742 -1.2706
  273MOL0     H36036   9.048   5.490   7.061  1.9621 -0.3251  2.8403
  274MOL0     O36037   0.415   0.124   2.916 -0.3924 -0.4053  0.8796
  274MOL0     C36038   0.464   0.131   3.028  0.1913  0.3258 -0.4088
  274MOL0     O36039   0.467   0.033   3.121  0.2173 -0.2003 -0.3868
  274MOL0     C36040   0.440  -0.091   3.078  0.6009  0.4348  1.0434
  274MOL0     C36041   0.543  -0.177   3.047 -0.1531  0.0465  0.8735
  274MOL0     C36042   0.516  -0.313   3.019  0.6921 -0.3433  0.3369
  274MOL0     C36043   0.382  -0.354   2.991 -1.0902  0.6205  0.0042
  274MOL0     O36044   0.369  -0.486   2.959 -0.0772  0.2699  0.0041
  274MOL0     C36045   0.436  -0.579   3.051  0.1921  0.7097 -0.0791
  274MOL0     C36046   0.387  -0.719   3.034  0.6492 -0.3058 -0.3043
  274MOL0     C36047   0.239  -0.722   3.085  0.3445  0.3230  0.2555
  274MOL0     C36048   0.229  -0.702   3.237 -0.3271  0.0760 -0.1063
  274MOL0     C36049   0.081  -0.681   3.270  0.2317 -0.4222 -0.0779
  274MOL0     C36050  -0.030  -0.758   3.200  0.2165  0.6961  0.0699
  274MOL0     C36051  -0.164  -0.703   3.240 -0.1186  0.2867 -0.1387
  274MOL0     C36052  -0.279  -0.780   3.174 -0.5580  0.5777 -0.1272
  274MOL0     N36053  -0.404  -0.717   3.215  0.1786  0.5450  0.7822
  274MOL0     C36054  -0.482  -0.770   3.312 -0.0638 -0.0131 -0.5269
  274MOL0     C36055  -0.581  -0.685   3.336  0.2796  0.3370 -0.4914
  274MOL0     C36056  -0.678  -0.684   3.450 -0.6017  0.1656 -0.8541
  274MOL0     C36057  -0.765  -0.814   3.457  0.2486  0.3088  0.4446
  274MOL0     C36058  -0.842  -0.811   3.595 -0.0723 -0.7729 -0.1570
  274MOL0     C36059  -0.967  -0.715   3.607 -0.4741  1.0939 -0.5465
  274MOL0     O36060  -1.073  -0.772   3.535  0.1854  0.2803 -0.4494
  274MOL0     C36061  -1.189  -0.703   3.534  0.4730  0.6637 -0.3092
  274MOL0     C36062  -1.212  -0.574   3.585  0.5256 -0.4011 -0.8747
  274MOL0     C36063  -1.342  -0.523   3.602  0.4190  0.2615  0.8143
  274MOL0     C36064  -1.457  -0.592   3.565  0.2947  0.0366 -0.3902
  274MOL0     C36065  -1.595  -0.533   3.585  0.4240  0.9883  0.5599
  274MOL0     O36066  -1.703  -0.591   3.520  0.2429  0.0013  0.0921
  274MOL0     C36067  -1.837  -0.558   3.520 -0.2000  0.2041  0.2302
  274MOL0     C36068  -1.908  -0.590   3.406  0.4435  0.5525  0.5347
  274MOL0     C36069  -2.039  -0.566   3.385  0.1658  0.0849  0.3132
  274MOL0     C36070  -2.105  -0.490   3.485  0.9781 -0.5967 -0.2949
  274MOL0     O36071  -2.236  -0.440   3.479  0.3401 -0.7033  0.5235
  274MOL0     C36072  -2.311  -0.464   3.357 -0.3950 -0.2638  0.2360
  274MOL0     C36073  -2.454  -0.435   3.383 -0.5439  0.3501  0.5337
  274MOL0     C36074  -2.499  -0.315   3.470 -0.6046  0.1749 -0.2783
  274MOL0     C36075  -2.421  -0.179   3.438  0.3672  0.2071  0.2288
  274MOL0     C36076  -2.462  -0.049   3.504  0.9922  0.2421 -0.0919
  274MOL0     C36077  -2.599   0.004   3.447 -0.0367  0.5197 -0.2497
  274MOL0     C36078  -2.659   0.128   3.520  0.2201  0.3786 -0.0253
  274MOL0     C36079  -2.799   0.160   3.463  0.3245  0.4228  0.0496
  274MOL0    Cl36080  -2.896   0.024   3.490  0.1020 -0.2372 -0.1930
  274MOL0     C36081  -2.039  -0.456   3.603 -0.3931  0.1394  0.0253
  274MOL0     C36082  -1.905  -0.490   3.620 -0.1870 -1.2217  0.8443
  274MOL0     O36083  -1.597  -0.431   3.655 -0.3595  0.0608 -0.0110
  274MOL0     C36084  -1.429  -0.713   3.500  0.7023  0.5592 -1.2324
  274MOL0     C36085  -1.299  -0.772   3.476  0.4134  0.6379 -0.1603
  274MOL0     N36086  -0.555  -0.582   3.249 -0.1282 -0.3434 -0.5183
  274MOL0     N36087  -0.444  -0.593   3.187  0.3177 -0.3960 -0.3654
  274MOL0     C36088   0.277  -0.262   2.999 -0.6148  0.1582 -0.6014
  274MOL0     C36089   0.310  -0.133   3.045 -0.0951  0.0039 -0.1932
  274MOL0     C36090   0.508   0.270   3.076  0.1377  0.6195  0.1122
  274MOL0     C36091   0.597   0.280   3.183 -0.1250 -0.6548  0.0193
  274MOL0     C36092   0.651   0.410   3.220  0.1670  0.6006  0.3468
  274MOL0     C36093   0.632   0.521   3.140 -0.0961 -0.7723 -0.9274
  274MOL0     O36094   0.706   0.633   3.182 -0.0825 -0.1614 -0.4657
  274MOL0     C36095   0.657   0.757   3.132 -0.0524 -1.2604 -0.3113
  274MOL0     C36096   0.718   0.871   3.207  1.4593 -0.3509  0.5235
  274MOL0     C36097   0.678   0.868   3.353 -0.5969 -0.5172  0.0368
  274MOL0     C36098   0.735   0.997   3.420 -0.4104 -1.1341 -0.4261
  274MOL0     C36099   0.882   0.999   3.420  0.4061  0.4723 -0.0454
  274MOL0     C36100   1.003   1.013   3.433 -0.2941  0.6936 -0.1133
  274MOL0     C36101   0.536   0.514   3.039  0.5900  0.0396  0.1159
  274MOL0     C36102   0.478   0.389   3.008 -0.6371  0.1866  0.0866
  274MOL0     H36103   0.641  -0.131   3.046 -0.6201  1.3373 -3.0897
  274MOL0     H36104   0.603  -0.360   2.974  1.9257  1.0058  1.2446
  274MOL0     H36105   0.431  -0.541   3.153 -0.4526  1.5666 -0.4169
  274MOL0     H36106   0.544  -0.574   3.034  0.4390  2.4354  1.7318
  274MOL0     H36107   0.438  -0.793   3.096 -0.8902 -0.3720  0.9392
  274MOL0     H36108   0.392  -0.753   2.930  1.1608 -0.3463 -0.2672
  274MOL0     H36109   0.185  -0.815   3.065  0.6480 -0.2182  1.8287
  274MOL0     H36110   0.188  -0.637   3.037  1.6564  1.2841  0.5078
  274MOL0     H36111   0.260  -0.794   3.288  1.3407  0.6944  0.0732
  274MOL0     H36112   0.283  -0.620   3.285 -0.8989  1.5039 -1.7951
  274MOL0     H36113   0.064  -0.574   3.257 -1.5910 -0.6140  0.5042
  274MOL0     H36114   0.060  -0.697   3.376 -0.6841  1.1122 -0.0036
  274MOL0     H36115  -0.029  -0.866   3.220 -0.2273  0.0577 -2.8572
  274MOL0     H36116  -0.023  -0.749   3.091 -1.8083  0.8921 -0.0741
  274MOL0     H36117  -0.168  -0.704   3.349  1.4238 -1.5320 -0.0321
  274MOL0     H36118  -0.168  -0.601   3.202 -0.4645  0.6254  0.7755
  274MOL0     H36119  -0.280  -0.888   3.192  0.6255  0.1698 -2.2633
  274MOL0     H36120  -0.276  -0.761   3.067 -0.6767 -0.1395 -0.2592
  274MOL0     H36121  -0.462  -0.861   3.367 -0.1202  0.7868  0.8698
  274MOL0     H36122  -0.752  -0.604   3.453 -1.8534 -0.9836  0.8310
  274MOL0     H36123  -0.609  -0.677   3.535 -0.4547 -0.4303 -0.9143
  274MOL0     H36124  -0.699  -0.900   3.443  0.4513  0.6349 -0.6920
  274MOL0     H36125  -0.839  -0.825   3.378  0.9004 -1.2802  0.0124
  274MOL0     H36126  -0.880  -0.910   3.620 -0.7769 -0.3826  0.3509
  274MOL0     H36127  -0.768  -0.787   3.671 -0.8277 -1.4890  0.8309
  274MOL0     H36128  -0.946  -0.621   3.555  0.6251  1.1708  0.0168
  274MOL0     H36129  -0.988  -0.699   3.714  2.7309 -0.1548  0.3796
  274MOL0     H36130  -1.135  -0.510   3.628  2.2484 -1.3371 -2.3994
  274MOL0     H36131  -1.351  -0.423   3.643  1.9358  0.7816 -0.0463
  274MOL0     H36132  -1.863  -0.639   3.320  0.2846  0.8626  0.2744
  274MOL0     H36133  -2.085  -0.587   3.289 -0.2377  0.4384  0.4258
  274MOL0     H36134  -2.301  -0.570   3.334  1.2571 -0.4582  1.6158
  274MOL0     H36135  -2.264  -0.407   3.277  0.7468  1.5529  2.0902
  274MOL0     H36136  -2.494  -0.528   3.425 -1.2492 -0.0480 -0.9238
  274MOL0     H36137  -2.514  -0.432   3.291 -1.2777 -1.2289  0.9314
  274MOL0     H36138  -2.477  -0.345   3.573 -0.6210 -0.8122 -0.5475
  274MOL0     H36139  -2.607  -0.300   3.458 -0.4134  1.8145 -0.1510
  274MOL0     H36140  -2.315  -0.201   3.450  0.3955 -0.0001 -0.3836
  274MOL0     H36141  -2.438  -0.159   3.332  1.0545  2.9037  0.5482
  274MOL0     H36142  -2.381   0.023   3.488  1.1522 -0.3948 -2.6491
  274MOL0     H36143  -2.483  -0.072   3.608 -4.3265  1.8290 -0.4907
  274MOL0     H36144  -2.671  -0.078   3.450  0.5621 -0.0106  2.8763
  274MOL0     H36145  -2.582   0.025   3.341  0.6684 -2.5927 -0.8512
  274MOL0     H36146  -2.673   0.104   3.626  1.8419 -0.2628  0.0722
  274MOL0     H36147  -2.596   0.217   3.520 -1.0267  1.2891 -1.0047
  274MOL0     H36148  -2.805   0.179   3.356  2.4858 -0.3962 -0.2678
  274MOL0     H36149  -2.840   0.243   3.522 -1.1228 -0.6016  0.5508
  274MOL0     H36150  -2.085  -0.388   3.674 -1.3625  1.3697 -1.7195
  274MOL0     H36151  -1.853  -0.456   3.709 -1.3412 -0.7506  1.3450
  274MOL0     H36152  -1.517  -0.773   3.478  1.0389 -0.0439 -0.9509
  274MOL0     H36153  -1.302  -0.867   3.424  1.8351  0.4925 -0.0170
  274MOL0     H36154   0.177  -0.288   2.968 -0.1741 -0.1376 -1.8374
  274MOL0     H36155   0.221  -0.071   3.052  0.7002  1.1055  0.6888
  274MOL0     H36156   0.627   0.193   3.240  1.4133 -0.5154 -0.5220
  274MOL0     H36157   0.714   0.406   3.309 -0.9806 -3.1849  1.2149
  274MOL0     H36158   0.548   0.757   3.138 -0.0010 -0.2619  1.0004
  274MOL0     H36159   0.680   0.775   3.026  4.5719  0.4655  0.7200
  274MOL0     H36160   0.826   0.868   3.187  1.2907  1.1658 -0.9132
  274MOL0     H36161   0.676   0.966   3.172  0.6053 -0.6045  0.8448
  274MOL0     H36162   0.716   0.774   3.394  1.7212 -0.1359 -1.0578
  274MOL0     H36163   0.570   0.875   3.371 -0.3456 -1.0554  1.9189
  274MOL0     H36164   0.695   1.092   3.384 -0.3403 -0.8843  0.1420
  274MOL0     H36165   0.705   1.002   3.525 -3.2558  1.2164 -1.2211
  274MOL0     H36166   1.105   1.043   3.444  0.0003 -0.0017 -0.7622
  274MOL0     H36167   0.505   0.601   2.982 -1.4657 -0.3779  0.5437
  274MOL0     H36168   0.402   0.384   2.931 -0.8140 -0.1909  0.2817
  275MOL0     O36169   9.894   4.943   4.782  0.2367 -0.1469  0.0247
  275MOL0     C36170   9.999   4.969   4.720 -0.2942 -0.8723  0.0238
  275MOL0     O36171  10.019   4.980   4.582 -0.1709  0.4368  0.0404
  275MOL0     C36172   9.920   4.965   4.494  0.9895  0.1017 -1.1011
  275MOL0     C36173   9.779   4.929   4.514  0.1673  0.3311  1.1582
  275MOL0     C36174   9.687   4.934   4.416  0.4573  0.5678  0.4780
  275MOL0     C36175   9.721   4.986   4.291 -0.4266  0.7347 -0.0777
  275MOL0     O36176   9.636   4.995   4.181  1.0403 -0.2612 -0.2131
  275MOL0     C36177   9.505   4.948   4.192  0.6649 -0.1797 -0.0246
  275MOL0     C36178   9.488   4.802   4.156  0.4115  0.2776 -0.0224
  275MOL0     C36179   9.335   4.763   4.154 -0.6038 -0.2465 -0.9910
  275MOL0     C36180   9.290   4.738   4.300  0.2164 -0.2149 -0.3255
  275MOL0     C36181   9.135   4.732   4.308 -0.1373 -0.0139 -0.5859
  275MOL0     C36182   9.078   4.705   4.446 -0.3769  0.4437  0.1906
  275MOL0     C36183   8.925   4.708   4.442  0.2334 -0.4016 -0.5211
  275MOL0     C36184   8.868   4.660   4.575 -0.1669  0.3889 -0.8508
  275MOL0     N36185   8.731   4.629   4.548  0.3751 -0.3495  0.4311
  275MOL0     C36186   8.633   4.718   4.499 -0.2254  0.2120  0.1992
  275MOL0     C36187   8.530   4.640   4.474  0.6055 -0.1139  0.3673
  275MOL0     C36188   8.408   4.703   4.410 -0.0555 -0.2669  0.0837
  275MOL0     C36189   8.282   4.684   4.492  0.4088 -0.1666 -0.0558
  275MOL0     C36190   8.183   4.782   4.467 -0.2581  0.5091  0.3716
  275MOL0     C36191   8.058   4.760   4.554  0.0767 -0.6146  0.0309
  275MOL0     O36192   7.951   4.843   4.502  1.2203  0.4806  0.3095
  275MOL0     C36193   7.842   4.843   4.585  0.1467 -0.9476  0.6106
  275MOL0     C36194   7.797   4.740   4.675  0.2013  0.0942 -0.0442
  275MOL0     C36195   7.670   4.747   4.729  0.5566 -0.2238  0.7175
  275MOL0     C36196   7.584   4.857   4.705 -0.0788  0.1646 -0.0998
  275MOL0     C36197   7.446   4.870   4.762  0.0045 -0.3248  0.1268
  275MOL0     O36198   7.398   4.988   4.758 -0.5800 -0.4505  0.3186
  275MOL0     C36199   7.279   5.036   4.807 -0.4316  0.2526  0.3640
  275MOL0     C36200   7.281   5.168   4.853  0.5022  0.0926 -0.5544
  275MOL0     C36201   7.165   5.217   4.911  0.2602 -0.0586  0.1637
  275MOL0     C36202   7.041   5.147   4.908  0.4661 -0.3620  0.5763
  275MOL0     O36203   6.922   5.187   4.967  0.2155  0.6803 -0.2142
  275MOL0     C36204   6.920   5.303   5.060 -0.1368  0.4403  0.9511
  275MOL0     C36205   6.777   5.307   5.121  0.2941 -0.0301  0.1801
  275MOL0     C36206   6.661   5.287   5.024  0.2079 -0.3706 -0.4314
  275MOL0     C36207   6.519   5.284   5.102 -0.4689 -0.1704 -0.1240
  275MOL0     C36208   6.398   5.261   5.007  0.0700 -0.6793  0.2935
  275MOL0     C36209   6.371   5.365   4.899  0.4421 -1.0206  0.1975
  275MOL0     C36210   6.218   5.375   4.870 -0.2276 -0.2156  0.1456
  275MOL0     C36211   6.171   5.455   4.748 -0.2597 -0.1179  0.1326
  275MOL0    Cl36212   5.991   5.440   4.744  0.0240 -0.0934 -0.3625
  275MOL0     C36213   7.045   5.015   4.866  0.0877 -0.9933 -0.3448
  275MOL0     C36214   7.160   4.951   4.811  0.2029  0.0383 -0.5315
  275MOL0     O36215   7.393   4.778   4.818  0.8678  0.0737  0.1699
  275MOL0     C36216   7.621   4.946   4.610  0.0851 -0.6356  0.6850
  275MOL0     C36217   7.749   4.940   4.553  0.3644  0.1157 -0.4495
  275MOL0     N36218   8.560   4.511   4.502 -0.2587 -1.3319 -0.2183
  275MOL0     N36219   8.675   4.506   4.554  0.5311  0.5476  0.6395
  275MOL0     C36220   9.862   5.019   4.269  0.1109  0.1903 -0.1981
  275MOL0     C36221   9.953   5.015   4.366 -0.4596 -0.3197  0.8113
  275MOL0     C36222  10.120   4.976   4.808 -0.0764  0.2226  0.5077
  275MOL0     C36223  10.248   4.994   4.749  0.3971  0.1501  0.0720
  275MOL0     C36224  10.361   5.006   4.825  0.2814  0.0669 -0.6133
  275MOL0     C36225  10.359   4.971   4.964 -0.2057 -0.7128  0.5850
  275MOL0     O36226  10.473   4.966   5.036 -0.1226  0.2888 -0.1627
  275MOL0     C36227  10.602   5.007   4.984 -0.4113 -0.2359 -0.5157
  275MOL0     C36228  10.721   4.954   5.069 -0.1356 -0.0501 -0.2464
  275MOL0     C36229  10.857   4.978   5.002 -0.4003  0.4448 -0.3854
  275MOL0     C36230  10.963   4.893   5.078 -0.6671 -0.7379 -0.3653
  275MOL0     C36231  11.102   4.925   5.030  0.5744 -0.1522  0.0042
  275MOL0     C36232  11.200   4.967   4.975 -0.8014 -0.5831 -0.2328
  275MOL0     C36233  10.235   4.950   5.025 -0.8939 -0.5357  0.5091
  275MOL0     C36234  10.122   4.956   4.949  0.0277  0.1717  0.2383
  275MOL0     H36235   9.741   4.893   4.609 -1.2501 -1.3336  0.0242
  275MOL0     H36236   9.583   4.911   4.438  0.5783  0.4638  0.9433
  275MOL0     H36237   9.456   5.009   4.115  0.5424 -1.0185 -0.6269
  275MOL0     H36238   9.468   4.976   4.291 -0.2716  1.4675 -0.7969
  275MOL0     H36239   9.547   4.739   4.224  1.2998 -0.6160 -1.5585
  275MOL0     H36240   9.530   4.783   4.056 -1.1491  0.9296 -0.8245
  275MOL0     H36241   9.322   4.681   4.083 -0.2162  1.1675 -2.7706
  275MOL0     H36242   9.279   4.849   4.117 -1.2430  0.5315  1.5732
  275MOL0     H36243   9.342   4.650   4.339 -0.4750  0.2008  1.6511
  275MOL0     H36244   9.321   4.823   4.362  0.3101 -0.0806 -0.5566
  275MOL0     H36245   9.108   4.639   4.257  0.7655 -0.7309  0.1986
  275MOL0     H36246   9.095   4.824   4.264  2.4581  0.5369 -2.0474
  275MOL0     H36247   9.120   4.779   4.515  2.5004 -1.0274  0.1707
  275MOL0     H36248   9.122   4.610   4.479  2.1548  1.5106  0.1155
  275MOL0     H36249   8.887   4.808   4.419  2.3987  0.2467 -1.6371
  275MOL0     H36250   8.891   4.641   4.362 -1.2637 -1.7067  1.1315
  275MOL0     H36251   8.869   4.733   4.656 -0.4257 -1.9365  1.3653
  275MOL0     H36252   8.910   4.566   4.612 -0.8129  0.0849 -0.8792
  275MOL0     H36253   8.641   4.826   4.486  1.9859  0.2754  1.6462
  275MOL0     H36254   8.392   4.656   4.313 -0.2985  1.8724 -0.9682
  275MOL0     H36255   8.437   4.808   4.398  0.6315 -0.3813  0.6727
  275MOL0     H36256   8.310   4.676   4.598  1.7961 -1.0363 -0.4540
  275MOL0     H36257   8.242   4.583   4.473  1.6578 -1.2190  2.4338
  275MOL0     H36258   8.230   4.879   4.485  1.9076  0.0141 -1.9628
  275MOL0     H36259   8.145   4.760   4.366  0.6309  1.2185 -0.1399
  275MOL0     H36260   8.086   4.779   4.658 -1.5486  0.8293  0.2437
  275MOL0     H36261   8.029   4.655   4.537 -3.5034  0.5441 -2.0787
  275MOL0     H36262   7.860   4.659   4.710 -1.1130  0.0274  2.4102
  275MOL0     H36263   7.620   4.678   4.796 -1.3410  1.4176  1.0992
  275MOL0     H36264   7.368   5.231   4.845  2.4343 -1.9593  2.3331
  275MOL0     H36265   7.162   5.319   4.949 -0.9339 -0.2985  0.7472
  275MOL0     H36266   6.943   5.393   5.003 -0.3425 -0.4958 -0.6816
  275MOL0     H36267   6.999   5.284   5.133  4.0622 -1.8756 -3.5704
  275MOL0     H36268   6.776   5.409   5.162  1.4456 -0.1566  0.5552
  275MOL0     H36269   6.766   5.240   5.207  3.7862 -0.4243  0.4544
  275MOL0     H36270   6.676   5.187   4.981  0.8017 -0.2433 -0.5270
  275MOL0     H36271   6.672   5.361   4.945 -1.2652  2.4905  1.8272
  275MOL0     H36272   6.521   5.209   5.182  6.0987 -0.3085  0.1430
  275MOL0     H36273   6.514   5.387   5.138 -0.6699  0.0199 -0.6875
  275MOL0     H36274   6.313   5.256   5.076 -0.4669  0.3395 -0.2649
  275MOL0     H36275   6.405   5.164   4.955  2.1552 -0.1806 -0.4360
  275MOL0     H36276   6.434   5.346   4.812 -0.2647  1.3531 -0.9142
  275MOL0     H36277   6.390   5.463   4.944  2.0161 -0.9049 -0.6328
  275MOL0     H36278   6.183   5.272   4.861  2.1158 -0.9996 -0.9213
  275MOL0     H36279   6.169   5.410   4.961  2.8610 -0.4006  2.0126
  275MOL0     H36280   6.214   5.413   4.656  0.2711  0.1784  0.2379
  275MOL0     H36281   6.205   5.557   4.766  0.6398 -0.4636  0.4754
  275MOL0     H36282   6.948   4.967   4.882 -1.9657  2.1742 -2.2432
  275MOL0     H36283   7.161   4.850   4.772 -0.2351  0.4461 -1.6634
  275MOL0     H36284   7.555   5.027   4.581  1.4304  0.3492  0.3358
  275MOL0     H36285   7.767   5.019   4.480 -1.1187 -0.1690 -1.1619
  275MOL0     H36286   9.884   5.040   4.165 -1.5048  0.7521 -0.4494
  275MOL0     H36287  10.054   5.053   4.354 -1.1580  1.4282  0.1050
  275MOL0     H36288  10.259   5.008   4.642  4.5513 -0.2408  0.3116
  275MOL0     H36289  10.443   5.032   4.759  0.3108 -2.0805 -1.4802
  275MOL0     H36290  10.610   5.114   4.963  1.2357 -0.2834 -0.2242
  275MOL0     H36291  10.606   4.953   4.889  1.9331 -0.9077 -0.1007
  275MOL0     H36292  10.725   5.013   5.161 -1.7607  0.4697 -0.4814
  275MOL0     H36293  10.707   4.849   5.097  1.2752 -0.3211 -0.5111
  275MOL0     H36294  10.886   5.083   5.010  1.1120 -0.0686  2.0288
  275MOL0     H36295  10.856   4.937   4.900 -1.3120  0.9864 -0.5988
  275MOL0     H36296  10.963   4.913   5.185  4.5473 -0.1018 -0.2699
  275MOL0     H36297  10.961   4.783   5.072  1.4877 -1.2007  3.9009
  275MOL0     H36298  11.292   5.008   4.939 -1.2142  0.7194  0.1358
  275MOL0     H36299  10.226   4.926   5.130 -0.1272 -0.3267  0.6267
  275MOL0     H36300  10.028   4.967   5.003 -0.0421  0.8977 -0.0122
  276MOL0     O36301   7.857   3.822   5.430  0.3753  0.0726 -0.1268
  276MOL0     C36302   7.917   3.779   5.333 -0.0337 -0.3921 -0.1897
  276MOL0     O36303   7.886   3.654   5.272  0.0869 -0.1520 -0.1819
  276MOL0     C36304   7.782   3.577   5.318  0.2230  1.3697 -0.2788
  276MOL0     C36305   7.650   3.617   5.334 -0.4415  0.5368 -0.5250
  276MOL0     C36306   7.544   3.529   5.377 -0.0635 -0.7280  0.9063
  276MOL0     C36307   7.577   3.394   5.400 -0.5112  0.6953  0.6718
  276MOL0     O36308   7.474   3.309   5.434  0.0071 -0.5513  0.0884
  276MOL0     C36309   7.492   3.268   5.572  0.3902  0.1457 -0.0492
  276MOL0     C36310   7.426   3.369   5.670 -0.6968 -0.0422 -0.4379
  276MOL0     C36311   7.271   3.385   5.652  0.7746 -0.2372 -0.1366
  276MOL0     C36312   7.191   3.271   5.719 -0.5712  0.0762  0.4023
  276MOL0     C36313   7.035   3.289   5.713 -0.8389 -0.2292 -0.6383
  276MOL0     C36314   6.968   3.178   5.788  0.0996 -0.1012  0.4448
  276MOL0     C36315   6.814   3.187   5.778 -0.0523  0.6363  0.3356
  276MOL0     C36316   6.750   3.214   5.910 -0.2105  0.0533 -0.0204
  276MOL0     N36317   6.608   3.214   5.886 -0.1304 -0.9549 -0.4497
  276MOL0     C36318   6.516   3.117   5.902 -0.6093  0.3480 -0.4029
  276MOL0     C36319   6.393   3.180   5.897 -0.1406  0.6487  0.1332
  276MOL0     C36320   6.262   3.111   5.931 -0.5992 -0.1573 -0.0823
  276MOL0     C36321   6.234   3.142   6.082 -0.1551 -0.3345 -0.1196
  276MOL0     C36322   6.104   3.085   6.128 -0.6096  0.8753  0.0716
  276MOL0     C36323   6.073   3.111   6.271  0.4724 -0.3511 -0.5728
  276MOL0     O36324   5.966   3.028   6.316  1.3506 -0.3943 -0.0241
  276MOL0     C36325   5.832   3.057   6.275 -0.4956  0.0836  1.5729
  276MOL0     C36326   5.780   3.169   6.202 -0.7606 -0.4210 -0.5445
  276MOL0     C36327   5.646   3.194   6.184 -0.1552  0.1851  0.3477
  276MOL0     C36328   5.556   3.085   6.224 -0.6329  0.1655 -0.1528
  276MOL0     C36329   5.408   3.093   6.203  0.8292  1.3241  0.2869
  276MOL0     O36330   5.338   2.971   6.226 -0.7914  0.0536  0.3058
  276MOL0     C36331   5.204   2.964   6.206  0.8214  0.1559 -0.1072
  276MOL0     C36332   5.137   2.866   6.285  0.3423  0.2061  0.6882
  276MOL0     C36333   5.001   2.835   6.269 -0.5179  0.7051 -0.1683
  276MOL0     C36334   4.925   2.894   6.170 -0.3552 -0.0012  0.7729
  276MOL0     O36335   4.796   2.847   6.152  0.1347  0.7075 -0.0778
  276MOL0     C36336   4.732   2.885   6.034  0.5693 -0.2188  0.4208
  276MOL0     C36337   4.605   2.805   6.015  0.1014  0.4598  0.5596
  276MOL0     C36338   4.538   2.805   5.877  0.0723  0.3148 -0.2728
  276MOL0     C36339   4.394   2.747   5.890 -0.1284 -0.0638 -0.0706
  276MOL0     C36340   4.291   2.850   5.933  0.5431 -1.1392  0.5481
  276MOL0     C36341   4.243   2.938   5.812  0.7864 -0.1626 -0.7265
  276MOL0     C36342   4.120   3.006   5.866 -0.1441 -0.1475  0.4665
  276MOL0     C36343   4.051   3.074   5.750  0.2864 -0.4386 -0.0432
  276MOL0    Cl36344   3.984   2.958   5.626 -0.3444  0.2022 -0.8355
  276MOL0     C36345   4.992   2.997   6.100 -0.0421 -0.8744 -0.4205
  276MOL0     C36346   5.128   3.032   6.111  0.3593  0.0645  0.2679
  276MOL0     O36347   5.362   3.202   6.170  0.5196  0.3028 -0.4555
  276MOL0     C36348   5.610   2.968   6.282  0.0634  0.6961  0.3917
  276MOL0     C36349   5.744   2.954   6.301  0.1634 -0.6126  0.1222
  276MOL0     N36350   6.413   3.315   5.872  0.9119  0.8777 -0.0518
  276MOL0     N36351   6.539   3.336   5.887 -0.2823  0.0014  0.7270
  276MOL0     C36352   7.715   3.350   5.390  0.3167 -0.7225  0.1322
  276MOL0     C36353   7.814   3.440   5.348  0.2382 -0.9324  0.2523
  276MOL0     C36354   8.041   3.856   5.289  1.1489 -0.1339 -0.1933
  276MOL0     C36355   8.058   3.990   5.316 -0.2155 -0.1117 -0.6856
  276MOL0     C36356   8.173   4.057   5.277 -0.1580 -0.0330  0.3933
  276MOL0     C36357   8.270   4.003   5.199  0.5325  0.5504 -0.4721
  276MOL0     O36358   8.376   4.082   5.175 -0.2307 -0.6273 -0.5098
  276MOL0     C36359   8.479   4.029   5.095 -0.7008 -0.3265 -0.2182
  276MOL0     C36360   8.577   3.952   5.183 -0.8280 -0.5011  0.1843
  276MOL0     C36361   8.668   4.033   5.271  0.1435  0.7338 -0.7008
  276MOL0     C36362   8.779   4.112   5.196 -0.2886 -0.0488 -1.1878
  276MOL0     C36363   8.913   4.081   5.248 -0.5646  0.1718 -0.2322
  276MOL0     C36364   9.032   4.067   5.271  0.1547 -0.1704 -0.4011
  276MOL0     C36365   8.249   3.866   5.156 -0.3710 -0.1180  0.9588
  276MOL0     C36366   8.136   3.792   5.208  0.0928  0.5951 -0.6330
  276MOL0     H36367   7.624   3.721   5.314 -0.6599  0.8424  1.1806
  276MOL0     H36368   7.444   3.568   5.390 -0.5256 -0.1977 -3.1717
  276MOL0     H36369   7.594   3.259   5.610 -0.0836 -0.3930  1.1562
  276MOL0     H36370   7.444   3.170   5.575  0.0522  0.2488 -1.4458
  276MOL0     H36371   7.479   3.464   5.655  1.6283 -0.9840  1.2593
  276MOL0     H36372   7.442   3.332   5.771  2.7681 -0.2168 -0.9403
  276MOL0     H36373   7.244   3.391   5.546 -1.5277  0.9702  0.4492
  276MOL0     H36374   7.250   3.481   5.700 -0.5668  0.4902 -2.0317
  276MOL0     H36375   7.216   3.174   5.675 -3.1294 -0.3507 -0.2889
  276MOL0     H36376   7.226   3.254   5.821 -0.5772 -0.7274  0.2728
  276MOL0     H36377   6.997   3.290   5.610 -0.1966 -0.8902 -0.8943
  276MOL0     H36378   7.011   3.387   5.755  0.5466 -0.2809  0.3329
  276MOL0     H36379   7.001   3.177   5.893 -1.6144  0.4798  1.0232
  276MOL0     H36380   6.985   3.080   5.744 -1.5735  0.4616 -1.6568
  276MOL0     H36381   6.788   3.273   5.715 -0.7877 -0.5181 -0.9836
  276MOL0     H36382   6.775   3.101   5.724 -0.5121  1.4517 -0.6676
  276MOL0     H36383   6.786   3.300   5.966  0.1715 -1.1049  1.5954
  276MOL0     H36384   6.766   3.127   5.975  0.6455 -2.4455 -3.2761
  276MOL0     H36385   6.536   3.010   5.913 -1.3637 -0.3256 -4.0946
  276MOL0     H36386   6.264   3.003   5.915 -0.7909  0.0916 -1.9579
  276MOL0     H36387   6.180   3.142   5.866 -1.8612 -4.0498 -0.5561
  276MOL0     H36388   6.231   3.251   6.090  0.3820 -0.2934 -0.4289
  276MOL0     H36389   6.320   3.110   6.142 -1.8753 -1.8618  1.6585
  276MOL0     H36390   6.032   3.136   6.064  0.0914  0.9484 -0.6670
  276MOL0     H36391   6.105   2.977   6.111 -0.1719  1.1214 -1.6137
  276MOL0     H36392   6.057   3.218   6.287 -1.9900 -0.8236  0.6828
  276MOL0     H36393   6.161   3.083   6.330  0.4438 -0.4182 -0.5614
  276MOL0     H36394   5.853   3.247   6.186  0.0906 -1.2535 -0.8280
  276MOL0     H36395   5.600   3.286   6.149 -0.2328 -0.0017 -0.0487
  276MOL0     H36396   5.202   2.803   6.344  2.2725  0.2993 -1.2286
  276MOL0     H36397   4.964   2.751   6.328 -2.2805  1.7787  0.3282
  276MOL0     H36398   4.787   2.867   5.941 -0.0352  0.2846 -0.0443
  276MOL0     H36399   4.708   2.991   6.043  1.0111 -0.1375  0.6284
  276MOL0     H36400   4.529   2.846   6.082 -1.1015 -1.3936  0.3991
  276MOL0     H36401   4.613   2.699   6.041 -0.9679  0.4491  0.9139
  276MOL0     H36402   4.601   2.757   5.801 -1.0078 -2.1837  0.3052
  276MOL0     H36403   4.522   2.909   5.847 -0.7968  0.2245 -0.1206
  276MOL0     H36404   4.361   2.688   5.805 -1.6985 -1.7034  1.5927
  276MOL0     H36405   4.395   2.679   5.976  2.3562  1.1565  0.9879
  276MOL0     H36406   4.338   2.920   6.002  0.2098  0.3888 -0.7110
  276MOL0     H36407   4.210   2.804   5.992 -1.0683  1.5080  0.5706
  276MOL0     H36408   4.226   2.867   5.731 -0.8672 -0.9393  0.2415
  276MOL0     H36409   4.322   3.006   5.778  0.8058  0.7839  1.1192
  276MOL0     H36410   4.045   2.937   5.904  0.1086 -0.3506  0.5958
  276MOL0     H36411   4.149   3.083   5.938 -1.1914  1.1371 -0.4126
  276MOL0     H36412   4.123   3.144   5.706 -1.1307  0.6568 -0.7024
  276MOL0     H36413   3.974   3.137   5.795  0.7311  0.3726 -0.3870
  276MOL0     H36414   4.944   3.055   6.022  0.0992 -1.3041 -0.8305
  276MOL0     H36415   5.174   3.112   6.055 -0.0881  0.1723  0.0532
  276MOL0     H36416   5.545   2.896   6.331 -1.0867  1.8095  0.5304
  276MOL0     H36417   5.777   2.874   6.366  0.4719  0.3935  1.2364
  276MOL0     H36418   7.743   3.246   5.407 -0.5433 -0.3859  4.8519
  276MOL0     H36419   7.916   3.404   5.340  0.5786  0.3269 -2.3257
  276MOL0     H36420   7.988   4.038   5.383 -0.2602 -3.4679  1.9311
  276MOL0     H36421   8.204   4.157   5.302 -1.9375  0.7494 -0.3395
  276MOL0     H36422   8.537   4.111   5.054 -0.5703  0.2789  1.1078
  276MOL0     H36423   8.446   3.970   5.009 -1.4466 -0.5622  0.2121
  276MOL0     H36424   8.538   3.873   5.247  3.6266 -1.2590  2.3596
  276MOL0     H36425   8.637   3.891   5.115 -0.4448  0.6667 -0.5569
  276MOL0     H36426   8.721   3.962   5.336 -0.7339  1.4970  0.9225
  276MOL0     H36427   8.618   4.111   5.330  0.6611  1.0687 -0.6997
  276MOL0     H36428   8.790   4.080   5.092 -0.6402 -2.5619 -0.5246
  276MOL0     H36429   8.774   4.220   5.213  3.7169  0.0674  0.4595
  276MOL0     H36430   9.139   4.076   5.273  0.1128  0.5019  1.6087
  276MOL0     H36431   8.311   3.824   5.077 -0.2577  1.4724  0.1795
  276MOL0     H36432   8.114   3.688   5.183  0.5367  0.2620  0.3205
  277MOL0     O36433   9.135   8.668   6.196  0.0204 -0.0401  0.6588
  277MOL0     C36434   9.137   8.727   6.083  0.6076  0.2527 -0.6511
  277MOL0     O36435   9.039   8.754   6.000  0.0889  0.4149 -0.5397
  277MOL0     C36436   8.909   8.729   6.031 -0.6552 -0.3696 -0.0646
  277MOL0     C36437   8.826   8.669   5.936  0.6333 -0.4991 -0.5481
  277MOL0     C36438   8.694   8.641   5.962  0.2273 -0.1933 -0.4602
  277MOL0     C36439   8.629   8.678   6.081  0.7273 -0.0858  0.9655
  277MOL0     O36440   8.498   8.634   6.100  0.1906 -0.1144 -0.4965
  277MOL0     C36441   8.428   8.699   6.203 -0.6613 -0.3560  0.1997
  277MOL0     C36442   8.283   8.658   6.211  0.2976  0.2589  0.2885
  277MOL0     C36443   8.264   8.513   6.244 -0.3141 -0.4187  0.6713
  277MOL0     C36444   8.120   8.483   6.300 -0.6360 -0.1259 -0.1057
  277MOL0     C36445   8.026   8.471   6.188  0.1561  0.0099  0.8153
  277MOL0     C36446   7.884   8.451   6.244  0.5508 -0.3977  0.7351
  277MOL0     C36447   7.856   8.307   6.273  0.8958  0.5534 -0.8304
  277MOL0     C36448   7.712   8.280   6.342  0.9682  1.0150  0.4465
  277MOL0     N36449   7.599   8.263   6.233  0.6961  0.4106 -0.6095
  277MOL0     C36450   7.580   8.137   6.180 -0.1432  0.3049 -0.3835
  277MOL0     C36451   7.464   8.141   6.123  0.5342 -0.2374  0.3650
  277MOL0     C36452   7.410   8.033   6.039 -0.0904  0.1166  0.1272
  277MOL0     C36453   7.262   8.003   6.068 -0.1448 -0.4232  0.1971
  277MOL0     C36454   7.245   7.958   6.210 -0.4255 -0.6418  0.1393
  277MOL0     C36455   7.108   7.907   6.224  0.6780 -1.5388  0.0828
  277MOL0     O36456   7.016   8.023   6.203 -0.0082 -0.2517 -0.1543
  277MOL0     C36457   6.891   8.017   6.254  0.2075 -0.0615  0.0826
  277MOL0     C36458   6.829   7.906   6.305 -0.2293 -0.0783  0.9007
  277MOL0     C36459   6.702   7.910   6.376 -0.2976 -0.0967  0.6366
  277MOL0     C36460   6.623   8.023   6.384  0.5834  0.1836  0.3679
  277MOL0     C36461   6.488   8.021   6.454 -0.3418 -0.9232  0.0134
  277MOL0     O36462   6.421   8.141   6.461 -0.0990  0.3803 -0.9532
  277MOL0     C36463   6.308   8.142   6.546  0.1651 -0.6579 -0.0478
  277MOL0     C36464   6.313   8.109   6.679 -0.2889  0.0157 -0.2824
  277MOL0     C36465   6.201   8.112   6.753 -0.6214  0.3430  0.1322
  277MOL0     C36466   6.075   8.150   6.698 -0.1148  0.0377 -0.1747
  277MOL0     O36467   5.963   8.161   6.772  0.7664  0.3478  0.0616
  277MOL0     C36468   5.973   8.194   6.909  0.1137  0.2084 -0.1336
  277MOL0     C36469   5.847   8.261   6.966  0.0805  0.1059  0.1102
  277MOL0     C36470   5.730   8.161   6.965 -0.3556 -0.2161  0.3983
  277MOL0     C36471   5.604   8.233   7.013  0.1732 -1.0928 -0.5419
  277MOL0     C36472   5.482   8.141   7.018 -0.4846  0.0746  0.6224
  277MOL0     C36473   5.354   8.208   6.968  0.0986 -0.4411 -0.2867
  277MOL0     C36474   5.314   8.331   7.055  0.8584 -0.3971  0.5169
  277MOL0     C36475   5.195   8.405   6.997  0.6320 -0.3448  0.0805
  277MOL0    Cl36476   5.257   8.497   6.851  0.4460 -0.1184 -0.0452
  277MOL0     C36477   6.067   8.170   6.567  0.2793 -1.3713  0.5662
  277MOL0     C36478   6.184   8.169   6.486  0.7128 -0.1067 -0.5461
  277MOL0     O36479   6.446   7.918   6.497 -1.1477 -0.5956  0.0541
  277MOL0     C36480   6.681   8.137   6.327 -0.0360  0.0050  0.7291
  277MOL0     C36481   6.813   8.136   6.274 -0.0134 -0.4544  0.2941
  277MOL0     N36482   7.408   8.268   6.156  0.4592  0.1734 -0.3267
  277MOL0     N36483   7.487   8.333   6.226  0.2542  0.2366  0.2407
  277MOL0     C36484   8.705   8.768   6.165  0.4299 -0.0706 -0.4382
  277MOL0     C36485   8.843   8.784   6.145 -0.1142  0.3717  0.4753
  277MOL0     C36486   9.272   8.771   6.032  0.1446  0.8802  0.5857
  277MOL0     C36487   9.283   8.813   5.899  0.0217  0.7826  0.0501
  277MOL0     C36488   9.407   8.835   5.846  0.4687 -1.0729 -0.3987
  277MOL0     C36489   9.524   8.821   5.925 -0.3255 -0.2673  0.4617
  277MOL0     O36490   9.641   8.848   5.867  0.5062  0.1388  0.9998
  277MOL0     C36491   9.722   8.726   5.854  0.2754  0.1383  0.1030
  277MOL0     C36492   9.854   8.769   5.792 -0.1409  0.1443  0.4620
  277MOL0     C36493   9.922   8.637   5.738 -0.5497  0.4304  0.0526
  277MOL0     C36494  10.065   8.666   5.682  0.0984  0.4594  0.2172
  277MOL0     C36495  10.065   8.742   5.555 -0.6131 -0.1263 -0.0073
  277MOL0     C36496  10.038   8.802   5.455 -0.5564 -0.5252  0.6221
  277MOL0     C36497   9.518   8.772   6.056 -0.5851  0.1293 -0.9946
  277MOL0     C36498   9.391   8.754   6.110  0.8219  0.6303 -0.1187
  277MOL0     H36499   8.861   8.620   5.845 -3.0763  0.0042 -2.4319
  277MOL0     H36500   8.647   8.574   5.890 -2.6993  0.3459  0.7839
  277MOL0     H36501   8.424   8.804   6.174 -0.6187 -1.4677 -4.7088
  277MOL0     H36502   8.480   8.676   6.297 -0.9830 -1.9067  0.0224
  277MOL0     H36503   8.242   8.655   6.110  1.5641 -1.3815 -0.2181
  277MOL0     H36504   8.222   8.720   6.278  0.1510 -1.3146  1.6598
  277MOL0     H36505   8.341   8.476   6.312  1.0136 -0.0493 -0.5776
  277MOL0     H36506   8.278   8.468   6.145  1.4506  1.4888 -0.0226
  277MOL0     H36507   8.122   8.406   6.377  3.9311 -1.7053 -1.5046
  277MOL0     H36508   8.086   8.574   6.350  1.8504  1.4802 -1.1698
  277MOL0     H36509   8.053   8.381   6.130  1.7833 -0.0311  1.5845
  277MOL0     H36510   8.023   8.566   6.133  2.9977 -0.0617  0.3611
  277MOL0     H36511   7.802   8.477   6.177  1.4613 -1.0672 -0.6960
  277MOL0     H36512   7.873   8.512   6.334 -1.5886 -2.6855  2.1545
  277MOL0     H36513   7.860   8.248   6.181  1.1045 -0.8118  0.0149
  277MOL0     H36514   7.936   8.283   6.345 -0.0738 -0.3907 -0.0334
  277MOL0     H36515   7.685   8.370   6.397  0.8779  1.2459  0.0289
  277MOL0     H36516   7.702   8.194   6.410 -0.0100  1.0642  0.3832
  277MOL0     H36517   7.649   8.054   6.171 -0.0632  0.4369 -1.0599
  277MOL0     H36518   7.472   7.946   6.063 -0.9355  0.4000  3.7883
  277MOL0     H36519   7.420   8.059   5.933  1.4065  1.7163  0.6278
  277MOL0     H36520   7.233   7.926   5.996 -0.8701  1.6944 -1.9332
  277MOL0     H36521   7.208   8.097   6.051 -2.5986 -1.8097 -0.2148
  277MOL0     H36522   7.322   7.883   6.230 -1.5981 -1.3145  2.4069
  277MOL0     H36523   7.263   8.035   6.285  0.5385 -0.0717 -0.6491
  277MOL0     H36524   7.092   7.855   6.319 -2.5073 -2.6453 -0.9251
  277MOL0     H36525   7.082   7.833   6.147 -0.7384 -1.1845  0.1951
  277MOL0     H36526   6.879   7.811   6.291 -0.4629  0.0116 -0.7392
  277MOL0     H36527   6.663   7.820   6.422 -0.2708 -1.4558 -1.8414
  277MOL0     H36528   6.408   8.082   6.724 -0.1842  2.5229  1.1372
  277MOL0     H36529   6.207   8.076   6.856 -0.5158 -1.2293 -0.3996
  277MOL0     H36530   6.051   8.266   6.936  2.5840 -2.6140  0.8620
  277MOL0     H36531   5.994   8.110   6.977  2.0701  0.7090 -0.0383
  277MOL0     H36532   5.829   8.357   6.916 -0.2871  1.1834  2.1873
  277MOL0     H36533   5.868   8.284   7.071 -1.0691  0.3763  0.2956
  277MOL0     H36534   5.753   8.073   7.025  1.3403 -0.7005 -0.8831
  277MOL0     H36535   5.719   8.122   6.863  2.4156 -0.2386  0.0224
  277MOL0     H36536   5.628   8.270   7.113  2.3844 -0.5796 -1.1971
  277MOL0     H36537   5.587   8.319   6.949  0.6388  0.2708  1.0998
  277MOL0     H36538   5.461   8.096   7.116 -0.3261 -0.7200  0.3049
  277MOL0     H36539   5.508   8.054   6.957  0.8734  1.6099 -1.1012
  277MOL0     H36540   5.275   8.134   6.958 -2.2422  1.9630 -0.7235
  277MOL0     H36541   5.380   8.232   6.865 -2.3447 -1.6180 -1.2319
  277MOL0     H36542   5.288   8.293   7.155  0.0877 -4.1105 -0.9394
  277MOL0     H36543   5.400   8.398   7.065  1.2273 -0.7350 -0.3053
  277MOL0     H36544   5.161   8.477   7.072  0.4893 -1.7701  1.4405
  277MOL0     H36545   5.114   8.340   6.965 -0.8888  1.1732  0.6680
  277MOL0     H36546   5.973   8.187   6.515  0.0311 -2.4574  0.6228
  277MOL0     H36547   6.191   8.190   6.380 -1.1080  1.0903 -0.4713
  277MOL0     H36548   6.623   8.229   6.328 -0.2755 -0.0479 -1.9135
  277MOL0     H36549   6.855   8.232   6.245 -2.2583  0.5531  0.1832
  277MOL0     H36550   8.658   8.816   6.250 -1.4817 -0.8013 -1.0156
  277MOL0     H36551   8.901   8.842   6.216  0.6984 -2.5123  2.3309
  277MOL0     H36552   9.204   8.825   5.825  1.1173  0.7754 -1.1484
  277MOL0     H36553   9.417   8.873   5.744  1.6499  0.2481  0.1796
  277MOL0     H36554   9.664   8.656   5.793  1.5062  0.4928 -1.5463
  277MOL0     H36555   9.741   8.686   5.954  0.9349  1.9236  0.7246
  277MOL0     H36556   9.838   8.846   5.716  0.9153  0.1821  0.2689
  277MOL0     H36557   9.913   8.802   5.878 -1.0163  0.2477  1.0351
  277MOL0     H36558   9.850   8.595   5.667 -2.0835  2.8887  0.0295
  277MOL0     H36559   9.932   8.562   5.816  2.0638  0.0423 -0.5648
  277MOL0     H36560  10.134   8.706   5.757  1.7788 -3.0159  0.7342
  277MOL0     H36561  10.109   8.569   5.657  0.5933  1.1430 -1.7363
  277MOL0     H36562  10.006   8.857   5.369  0.7778 -0.0743  0.3786
  277MOL0     H36563   9.604   8.750   6.119 -0.6903  0.7291 -0.6360
  277MOL0     H36564   9.379   8.726   6.215 -0.5355 -1.0666 -0.6818
  278MOL0     O36565  11.177  10.376   2.804  0.3937  0.2517  0.6790
  278MOL0     C36566  11.257  10.440   2.729 -0.5655 -0.8873 -0.2533
  278MOL0     O36567  11.255  10.577   2.715  0.6037 -0.4173  0.4297
  278MOL0     C36568  11.160  10.644   2.780 -0.3508  0.5317  0.5984
  278MOL0     C36569  11.025  10.654   2.737 -0.5585 -0.3708  0.0876
  278MOL0     C36570  10.937  10.725   2.809  0.1305 -0.4665  0.4171
  278MOL0     C36571  10.970  10.784   2.934 -0.1859 -0.3018  0.8189
  278MOL0     O36572  10.881  10.870   2.997 -0.1274 -0.1408  0.0728
  278MOL0     C36573  10.750  10.891   2.950  0.1548 -0.3948 -0.3817
  278MOL0     C36574  10.673  10.968   3.061  0.9060 -0.4562 -0.0674
  278MOL0     C36575  10.526  11.017   3.018  0.1325  0.5393 -0.1127
  278MOL0     C36576  10.438  11.064   3.141  0.2971  0.6694 -1.5802
  278MOL0     C36577  10.303  11.131   3.092 -0.8824 -0.7103 -0.3676
  278MOL0     C36578  10.204  11.031   3.036 -0.0311  0.5491  0.1738
  278MOL0     C36579  10.083  11.107   2.983 -0.4189 -0.1208 -0.3645
  278MOL0     C36580   9.955  11.031   2.966  0.0531 -0.0588  0.2516
  278MOL0     N36581   9.848  11.113   2.907  0.6594  0.1765  0.1978
  278MOL0     C36582   9.858  11.166   2.779  0.8556  0.0256  0.0936
  278MOL0     C36583   9.761  11.263   2.769 -0.0739  0.2129  0.1841
  278MOL0     C36584   9.739  11.339   2.648  0.9439  0.5456 -0.4738
  278MOL0     C36585   9.668  11.247   2.552 -0.3845 -0.3934  0.0579
  278MOL0     C36586   9.604  11.320   2.434  0.0332 -1.0061 -0.0929
  278MOL0     C36587   9.490  11.425   2.460 -0.8858  0.6318  0.0425
  278MOL0     O36588   9.563  11.541   2.496  0.9929  0.2660 -0.3779
  278MOL0     C36589   9.501  11.655   2.457 -0.5081 -0.3866 -0.5572
  278MOL0     C36590   9.389  11.700   2.523 -0.6687  0.0551 -0.5828
  278MOL0     C36591   9.326  11.817   2.483  0.1536 -0.7550 -0.0411
  278MOL0     C36592   9.375  11.899   2.380 -0.7703 -0.5798 -0.3153
  278MOL0     C36593   9.308  12.026   2.341  0.3528 -0.3805  0.3098
  278MOL0     O36594   9.172  12.029   2.369  0.5576 -0.6508  0.5125
  278MOL0     C36595   9.083  12.133   2.331  0.0708  1.0516  0.0561
  278MOL0     C36596   8.961  12.109   2.269  0.1287 -0.8838 -0.0111
  278MOL0     C36597   8.872  12.211   2.243  0.6734 -0.4326  0.0580
  278MOL0     C36598   8.904  12.343   2.255  0.4199  0.1633 -0.1683
  278MOL0     O36599   8.804  12.436   2.213  0.2469 -0.1256  0.2361
  278MOL0     C36600   8.834  12.576   2.218  0.2627  0.5186  0.4093
  278MOL0     C36601   8.728  12.658   2.141  0.1560 -0.1622  0.3012
  278MOL0     C36602   8.622  12.706   2.241 -0.0482  0.6149 -0.3609
  278MOL0     C36603   8.521  12.796   2.175 -0.4624 -0.3934  0.0350
  278MOL0     C36604   8.429  12.871   2.273  0.6957 -0.6102 -0.5280
  278MOL0     C36605   8.308  12.785   2.325  0.1968  0.3570 -0.1953
  278MOL0     C36606   8.209  12.863   2.412  0.3879  0.0878 -0.5244
  278MOL0     C36607   8.272  12.970   2.506  0.1929  0.9048  0.0112
  278MOL0    Cl36608   8.150  13.029   2.620  0.4006 -0.1240  0.1557
  278MOL0     C36609   9.030  12.373   2.318  0.1064  0.2129  0.3768
  278MOL0     C36610   9.111  12.268   2.360 -0.0331  0.0005 -0.3015
  278MOL0     O36611   9.370  12.101   2.268 -0.4347  0.2003 -0.5383
  278MOL0     C36612   9.492  11.857   2.315  0.4640  0.7065  0.7790
  278MOL0     C36613   9.549  11.736   2.353 -0.0692 -0.3155  0.0610
  278MOL0     N36614   9.686  11.255   2.889  0.2603  0.3451  0.2927
  278MOL0     N36615   9.730  11.166   2.967 -0.8617 -0.0187 -0.0282
  278MOL0     C36616  11.100  10.777   2.973  0.5062 -0.3803 -0.0941
  278MOL0     C36617  11.192  10.708   2.898  0.2147  0.0413  1.3662
  278MOL0     C36618  11.351  10.373   2.641  0.2812  0.8698  0.4376
  278MOL0     C36619  11.420  10.456   2.546  0.0827 -0.0136  0.0193
  278MOL0     C36620  11.499  10.395   2.455 -0.4268 -0.1126 -0.5990
  278MOL0     C36621  11.521  10.254   2.453  0.0826 -0.4972  0.2890
  278MOL0     O36622  11.606  10.187   2.357  0.4679 -0.0612 -0.0453
  278MOL0     C36623  11.637  10.246   2.229  0.0233 -0.6933  0.3242
  278MOL0     C36624  11.763  10.331   2.220 -0.3399  0.0012  0.5887
  278MOL0     C36625  11.750  10.424   2.099 -0.4033 -0.3962  0.0036
  278MOL0     C36626  11.881  10.501   2.068  0.7241 -0.2908  0.3549
  278MOL0     C36627  11.937  10.558   2.190  0.1809 -1.1607  0.3466
  278MOL0     C36628  11.986  10.611   2.289  0.1742 -0.3999  0.4566
  278MOL0     C36629  11.456  10.178   2.546  0.6949  0.9718  0.4700
  278MOL0     C36630  11.370  10.231   2.639  0.1922  0.2320  0.0303
  278MOL0     H36631  11.002  10.613   2.639  3.2519  0.0647 -1.1723
  278MOL0     H36632  10.838  10.741   2.769  0.1177 -0.2882  0.5182
  278MOL0     H36633  10.709  10.792   2.927 -1.8381  0.2231  0.3524
  278MOL0     H36634  10.748  10.952   2.859 -2.0633 -1.1243 -0.8680
  278MOL0     H36635  10.731  11.057   3.087  2.8974 -1.9544  0.9549
  278MOL0     H36636  10.672  10.908   3.153 -1.2212  0.8592  0.8479
  278MOL0     H36637  10.481  10.935   2.962 -0.6791  2.0142 -1.7399
  278MOL0     H36638  10.535  11.103   2.951 -1.0002  1.1653  0.4983
  278MOL0     H36639  10.422  10.987   3.217  3.3260  2.6666  1.3655
  278MOL0     H36640  10.500  11.141   3.187 -0.1514  0.4914 -0.6556
  278MOL0     H36641  10.320  11.196   3.006  2.9858 -0.5609  0.3556
  278MOL0     H36642  10.258  11.193   3.171  1.9338  1.8786 -0.6176
  278MOL0     H36643  10.186  10.956   3.114  1.7453 -0.1952 -0.0772
  278MOL0     H36644  10.255  10.981   2.953 -2.1503 -0.7550 -0.4114
  278MOL0     H36645  10.066  11.182   3.061  2.5241  1.0798 -0.7460
  278MOL0     H36646  10.120  11.160   2.895  0.9055  0.5741  0.5639
  278MOL0     H36647   9.921  10.981   3.058 -0.7764  2.7814  1.5828
  278MOL0     H36648   9.967  10.945   2.900 -0.1176 -0.1693  0.3634
  278MOL0     H36649   9.931  11.144   2.701 -1.5531 -1.9365 -1.8032
  278MOL0     H36650   9.833  11.373   2.603  0.7683 -0.4509 -1.6302
  278MOL0     H36651   9.681  11.427   2.677 -3.0520 -2.6795  2.3798
  278MOL0     H36652   9.587  11.194   2.602 -1.0485  2.1914  1.9668
  278MOL0     H36653   9.742  11.176   2.513 -2.3223 -1.8895 -1.0454
  278MOL0     H36654   9.681  11.365   2.370 -1.4300  3.0693  0.7360
  278MOL0     H36655   9.559  11.244   2.370 -2.4247  0.2978 -0.0283
  278MOL0     H36656   9.422  11.399   2.541 -0.8612  0.7294  0.0932
  278MOL0     H36657   9.426  11.433   2.371 -0.0918  0.7711 -0.5197
  278MOL0     H36658   9.354  11.652   2.614 -1.7638  4.9781  1.9701
  278MOL0     H36659   9.238  11.855   2.533  1.4240  3.6151 -0.7021
  278MOL0     H36660   8.921  12.012   2.241 -0.6418 -0.7935  0.7732
  278MOL0     H36661   8.774  12.190   2.201  0.3883  1.4664 -0.3239
  278MOL0     H36662   8.931  12.602   2.176  0.0262 -1.1264 -1.2898
  278MOL0     H36663   8.828  12.616   2.320 -0.1805  0.0085  0.5863
  278MOL0     H36664   8.685  12.596   2.062 -1.8647 -0.6560  1.7066
  278MOL0     H36665   8.775  12.751   2.107 -0.6361  0.8145  1.7634
  278MOL0     H36666   8.664  12.748   2.333  0.8903  0.3634 -0.6623
  278MOL0     H36667   8.570  12.613   2.266 -1.2358  1.1727 -0.6949
  278MOL0     H36668   8.576  12.876   2.123  0.5337  1.0028  2.9931
  278MOL0     H36669   8.468  12.750   2.092 -0.0504  1.0640 -1.0909
  278MOL0     H36670   8.380  12.953   2.220  2.8298  1.6903  0.8626
  278MOL0     H36671   8.493  12.920   2.347  0.2273  2.1952 -1.8737
  278MOL0     H36672   8.340  12.709   2.396 -0.9236  2.9413  3.3477
  278MOL0     H36673   8.253  12.742   2.241 -1.7565 -0.6952  1.5423
  278MOL0     H36674   8.153  12.923   2.340  1.9245  2.2718 -0.0095
  278MOL0     H36675   8.146  12.789   2.463  0.7731  0.3293  0.3252
  278MOL0     H36676   8.308  13.057   2.450  0.3111  1.6075  1.1573
  278MOL0     H36677   8.357  12.925   2.559  0.2028  0.7712 -0.1162
  278MOL0     H36678   9.052  12.478   2.335 -1.4773  0.2807  2.2417
  278MOL0     H36679   9.204  12.276   2.416  0.9607 -0.4141 -1.8129
  278MOL0     H36680   9.532  11.911   2.230  1.1940  1.5116  1.6073
  278MOL0     H36681   9.647  11.711   2.312  1.3846 -1.5656  3.8602
  278MOL0     H36682  11.128  10.828   3.065  0.2670 -2.9059  1.4760
  278MOL0     H36683  11.297  10.700   2.927  1.0133  0.7914 -1.0848
  278MOL0     H36684  11.395  10.561   2.534 -1.8633 -0.4831 -0.5808
  278MOL0     H36685  11.553  10.457   2.385 -0.5342  0.0655 -0.5239
  278MOL0     H36686  11.552  10.306   2.192 -1.1087 -3.0896 -1.1803
  278MOL0     H36687  11.648  10.162   2.160 -2.8464 -1.7515  1.0064
  278MOL0     H36688  11.767  10.394   2.310 -1.2421 -1.0710  1.4066
  278MOL0     H36689  11.849  10.263   2.220 -1.3665 -1.3353  1.5840
  278MOL0     H36690  11.676  10.502   2.116  1.7899  1.5078  1.5759
  278MOL0     H36691  11.725  10.359   2.015  5.5112 -1.1202 -1.6771
  278MOL0     H36692  11.955  10.424   2.043 -0.4709 -1.1016 -0.8705
  278MOL0     H36693  11.857  10.567   1.984 -0.9124 -0.2432  0.8202
  278MOL0     H36694  12.034  10.649   2.377  2.3732  1.7566 -1.5341
  278MOL0     H36695  11.465  10.070   2.538 -0.0685  0.8527  1.0858
  278MOL0     H36696  11.327  10.166   2.715 -2.0221  0.5517 -0.8623
  279MOL0     O36697   2.077   3.844   0.501 -0.2577  0.3114 -0.3269
  279MOL0     C36698   2.105   3.802   0.386 -0.8831 -0.5692  0.2369
  279MOL0     O36699   2.029   3.742   0.297  0.2323  0.1890  0.7658
  279MOL0     C36700   1.892   3.708   0.308 -0.4255  0.2310  0.5492
  279MOL0     C36701   1.836   3.655   0.422 -0.0084 -0.0475  0.5018
  279MOL0     C36702   1.698   3.626   0.419 -0.5000  0.4961  0.0664
  279MOL0     C36703   1.623   3.647   0.300 -0.3461 -0.5678 -0.5180
  279MOL0     O36704   1.483   3.615   0.292  0.7340 -0.5146  0.6432
  279MOL0     C36705   1.415   3.554   0.408 -0.3409 -1.1437  1.3265
  279MOL0     C36706   1.265   3.514   0.382  0.0321  0.9075 -0.0112
  279MOL0     C36707   1.169   3.638   0.353 -0.8253  0.5613 -0.3739
  279MOL0     C36708   1.030   3.589   0.315 -0.6240 -0.4439  0.2016
  279MOL0     C36709   0.929   3.700   0.302  0.2856 -0.0591 -0.6547
  279MOL0     C36710   0.794   3.631   0.295  0.5845  0.0335  0.0420
  279MOL0     C36711   0.677   3.722   0.291  0.7085 -0.1636  0.1530
  279MOL0     C36712   0.680   3.822   0.175 -0.4335 -0.0544  0.3404
  279MOL0     N36713   0.558   3.905   0.174 -0.0576  0.5068 -0.6081
  279MOL0     C36714   0.431   3.865   0.132 -0.5912  1.0951  0.4784
  279MOL0     C36715   0.357   3.976   0.138 -0.0786 -0.7790 -0.4156
  279MOL0     C36716   0.218   3.987   0.086  0.4397  0.1390 -0.2009
  279MOL0     C36717   0.119   4.058   0.182  0.5329  0.1262 -0.0066
  279MOL0     C36718  -0.026   4.084   0.114 -0.0779  0.4597 -0.5147
  279MOL0     C36719  -0.113   4.163   0.211  0.1564  0.5551  0.3427
  279MOL0     O36720  -0.243   4.150   0.156 -0.5364  0.5326 -0.6279
  279MOL0     C36721  -0.355   4.179   0.230  0.2731 -0.5392  0.0194
  279MOL0     C36722  -0.479   4.149   0.177  0.8164  0.6223  0.1741
  279MOL0     C36723  -0.604   4.169   0.239 -0.0320 -0.6826  0.7712
  279MOL0     C36724  -0.600   4.208   0.370  0.4524  0.0721 -0.5854
  279MOL0     C36725  -0.729   4.222   0.441 -0.4481 -0.0907  0.3032
  279MOL0     O36726  -0.839   4.177   0.377  0.3481 -0.8527  0.3960
  279MOL0     C36727  -0.964   4.170   0.429 -0.4836  0.2833 -0.4302
  279MOL0     C36728  -1.018   4.263   0.516 -0.6096 -0.4076  0.5255
  279MOL0     C36729  -1.139   4.239   0.587 -0.1962  0.2874 -0.0521
  279MOL0     C36730  -1.203   4.116   0.559 -0.5642  0.6863 -0.0124
  279MOL0     O36731  -1.321   4.067   0.614  0.3280  0.4239  0.0659
  279MOL0     C36732  -1.383   4.139   0.725 -0.3493 -0.0630 -0.5168
  279MOL0     C36733  -1.455   4.053   0.835 -0.2186  0.4898  0.3560
  279MOL0     C36734  -1.364   3.938   0.866 -0.3344 -0.4575 -0.9204
  279MOL0     C36735  -1.416   3.854   0.981  0.5403  0.3838  0.1560
  279MOL0     C36736  -1.321   3.742   1.009 -0.2874 -0.1292 -0.4472
  279MOL0     C36737  -1.380   3.650   1.111  0.4891  0.2963 -0.2679
  279MOL0     C36738  -1.303   3.531   1.168 -0.2122  0.3812  0.2769
  279MOL0     C36739  -1.379   3.451   1.274  0.2544  0.2875 -0.8565
  279MOL0    Cl36740  -1.507   3.362   1.196 -0.0944 -0.0395  0.2011
  279MOL0     C36741  -1.158   4.029   0.462 -1.0041 -0.2240 -0.0831
  279MOL0     C36742  -1.037   4.056   0.399  0.0075  0.0160  0.7947
  279MOL0     O36743  -0.720   4.258   0.559 -0.0436 -0.0430  0.0330
  279MOL0     C36744  -0.481   4.249   0.423 -0.1752 -0.2272 -0.3373
  279MOL0     C36745  -0.360   4.243   0.356  0.3208 -0.3972 -0.9269
  279MOL0     N36746   0.435   4.079   0.184 -0.2186 -0.5589  0.5693
  279MOL0     N36747   0.555   4.034   0.209 -0.3206 -0.2232  0.1026
  279MOL0     C36748   1.684   3.706   0.188 -0.8986  0.3646  0.6972
  279MOL0     C36749   1.821   3.742   0.190 -0.2886  0.4407  0.7064
  279MOL0     C36750   2.250   3.798   0.348  0.6080  0.2474 -0.1089
  279MOL0     C36751   2.343   3.875   0.423  0.3194 -0.1408 -0.9821
  279MOL0     C36752   2.474   3.876   0.391 -0.4156 -0.5559  0.4066
  279MOL0     C36753   2.518   3.799   0.281 -0.2049 -0.4343  0.1780
  279MOL0     O36754   2.649   3.787   0.235  0.4901 -0.0127  0.5400
  279MOL0     C36755   2.750   3.839   0.315 -0.1985 -0.6077 -0.6633
  279MOL0     C36756   2.891   3.817   0.250  0.3512  0.6175 -0.1401
  279MOL0     C36757   3.016   3.889   0.300  0.1486 -0.6145  0.0040
  279MOL0     C36758   3.125   3.842   0.204 -0.3388  0.2233 -0.2172
  279MOL0     C36759   3.266   3.890   0.235  1.2917  0.2655  0.4648
  279MOL0     C36760   3.376   3.932   0.249  0.1773  1.3921  0.1540
  279MOL0     C36761   2.428   3.725   0.203 -0.5012  0.2443  0.0174
  279MOL0     C36762   2.297   3.720   0.237 -0.2828 -0.0285  0.0458
  279MOL0     H36763   1.885   3.639   0.517  0.9714  3.0299  0.6189
  279MOL0     H36764   1.652   3.572   0.502 -0.5244 -0.8632 -0.7917
  279MOL0     H36765   1.411   3.634   0.482 -0.3684  1.0530 -0.9308
  279MOL0     H36766   1.473   3.469   0.446  3.3805  0.1561 -0.8882
  279MOL0     H36767   1.228   3.474   0.477 -2.1650  2.0328 -0.3377
  279MOL0     H36768   1.268   3.440   0.302 -0.4955  0.4409  0.3929
  279MOL0     H36769   1.213   3.700   0.274  0.8432  2.2194  1.6989
  279MOL0     H36770   1.171   3.715   0.431  3.6351  1.8800 -1.4916
  279MOL0     H36771   1.039   3.547   0.215  2.0989  1.1300 -0.3009
  279MOL0     H36772   1.000   3.514   0.390  2.7567 -1.4221  0.7647
  279MOL0     H36773   0.944   3.754   0.208  0.2447 -1.6542 -1.6224
  279MOL0     H36774   0.941   3.758   0.393 -0.9415 -1.2554  0.3184
  279MOL0     H36775   0.798   3.572   0.386  1.4070  2.1922  1.4949
  279MOL0     H36776   0.796   3.568   0.206  0.1109 -1.3681  1.0017
  279MOL0     H36777   0.583   3.668   0.277  2.1467 -2.4817 -1.1733
  279MOL0     H36778   0.671   3.778   0.385 -1.2614 -1.8728  1.1057
  279MOL0     H36779   0.698   3.783   0.075 -1.1255 -0.5963  0.4252
  279MOL0     H36780   0.762   3.893   0.190  0.1613 -0.7861  0.6389
  279MOL0     H36781   0.391   3.765   0.116 -0.1868  1.1958 -1.4823
  279MOL0     H36782   0.178   3.888   0.060 -2.0046  0.9860  0.0963
  279MOL0     H36783   0.230   4.050  -0.002  2.2150 -0.1530 -0.1956
  279MOL0     H36784   0.153   4.160   0.200  0.4563  0.1019  0.2728
  279MOL0     H36785   0.109   3.995   0.271 -1.9954 -1.3809 -1.2317
  279MOL0     H36786  -0.018   4.149   0.027 -1.3962  0.7794 -0.4196
  279MOL0     H36787  -0.066   3.983   0.101  2.8181 -0.7404 -0.9504
  279MOL0     H36788  -0.083   4.269   0.207 -1.4153  1.0665  1.1607
  279MOL0     H36789  -0.108   4.117   0.310 -0.9520 -0.3641 -0.0039
  279MOL0     H36790  -0.472   4.114   0.075  0.6045  0.8615  0.0764
  279MOL0     H36791  -0.693   4.141   0.184 -0.8368 -1.5780  2.4767
  279MOL0     H36792  -0.976   4.361   0.535 -0.6369 -0.1635 -0.6147
  279MOL0     H36793  -1.183   4.313   0.653 -1.2515  1.4900 -1.9852
  279MOL0     H36794  -1.456   4.210   0.683 -0.4509  0.1854  0.0613
  279MOL0     H36795  -1.312   4.202   0.779  1.2149 -1.0265 -1.3965
  279MOL0     H36796  -1.552   4.019   0.798 -0.5011  1.4612  0.1888
  279MOL0     H36797  -1.474   4.115   0.923  0.4965  0.9371  0.2066
  279MOL0     H36798  -1.266   3.973   0.901 -0.7200 -1.0235  0.8006
  279MOL0     H36799  -1.351   3.876   0.777 -0.1559 -0.7058 -0.7216
  279MOL0     H36800  -1.423   3.922   1.066  0.0127 -1.4257  1.6223
  279MOL0     H36801  -1.520   3.829   0.959 -0.0507  2.5615  0.1580
  279MOL0     H36802  -1.231   3.797   1.037 -0.2797  2.0720 -4.1759
  279MOL0     H36803  -1.309   3.684   0.917  0.1330 -0.0593 -0.4390
  279MOL0     H36804  -1.465   3.607   1.057  2.2814 -1.6172 -1.7130
  279MOL0     H36805  -1.405   3.711   1.198  1.1457  0.5905 -0.2863
  279MOL0     H36806  -1.259   3.467   1.091  2.3508  3.0370 -0.7008
  279MOL0     H36807  -1.223   3.583   1.223 -1.2120  0.8973  1.2938
  279MOL0     H36808  -1.413   3.517   1.354  1.8004  0.9863 -0.7304
  279MOL0     H36809  -1.311   3.381   1.322  1.2748  3.0611  2.1467
  279MOL0     H36810  -1.205   3.934   0.440  0.9172 -0.7477 -2.2402
  279MOL0     H36811  -1.008   3.987   0.319 -2.1458  1.0046 -0.9398
  279MOL0     H36812  -0.472   4.290   0.523 -2.7807  0.7254 -0.4279
  279MOL0     H36813  -0.270   4.270   0.411 -2.2859  0.1803  3.5437
  279MOL0     H36814   1.624   3.724   0.100 -1.4886 -1.5189  0.6815
  279MOL0     H36815   1.861   3.785   0.099 -1.9391  1.1991  0.3105
  279MOL0     H36816   2.327   3.920   0.520  3.4984 -3.1443  1.1736
  279MOL0     H36817   2.550   3.926   0.450 -1.4598  3.6396 -1.4607
  279MOL0     H36818   2.744   3.780   0.407  0.4008 -1.4222 -1.1308
  279MOL0     H36819   2.726   3.944   0.333 -0.5610 -0.6051 -1.1339
  279MOL0     H36820   2.914   3.711   0.268  1.6350  1.4600  4.1695
  279MOL0     H36821   2.875   3.828   0.142 -2.0780 -0.6216  0.0078
  279MOL0     H36822   3.036   3.863   0.404 -0.4940  0.7915  0.5023
  279MOL0     H36823   3.015   3.998   0.296  2.1741 -0.6064 -1.4311
  279MOL0     H36824   3.140   3.735   0.192  1.4486  0.7362 -4.6990
  279MOL0     H36825   3.112   3.880   0.102  0.6788 -1.7311 -1.1232
  279MOL0     H36826   3.465   3.990   0.259  0.0086  1.4630  1.3756
  279MOL0     H36827   2.465   3.659   0.125 -1.3335  1.0427 -1.0883
  279MOL0     H36828   2.241   3.650   0.176  0.3309 -1.0049  0.5826
  280MOL0     O36829   4.999   5.031   0.550  0.2014  0.2078 -0.2019
  280MOL0     C36830   5.100   4.964   0.578  0.0303  0.3169 -0.1829
  280MOL0     O36831   5.106   4.833   0.575  0.1047 -0.0893 -0.0411
  280MOL0     C36832   4.990   4.772   0.537 -0.1048  0.3529 -0.0772
  280MOL0     C36833   4.980   4.696   0.418 -0.3914 -0.5120 -0.3135
  280MOL0     C36834   4.860   4.628   0.382 -0.2714  0.6318 -0.8982
  280MOL0     C36835   4.747   4.644   0.460 -0.9048 -0.3224 -0.2958
  280MOL0     O36836   4.623   4.597   0.419  0.4830 -0.2399  0.0886
  280MOL0     C36837   4.588   4.634   0.281  0.3526  0.1129 -0.3608
  280MOL0     C36838   4.440   4.596   0.260 -0.1851 -0.1835  0.0294
  280MOL0     C36839   4.411   4.568   0.112  0.1743  0.0348 -0.7128
  280MOL0     C36840   4.264   4.555   0.084 -0.2140  0.5325 -0.1082
  280MOL0     C36841   4.241   4.519  -0.065  0.3731  0.8696 -0.2094
  280MOL0     C36842   4.089   4.505  -0.100 -0.6069  0.4016  0.2293
  280MOL0     C36843   4.070   4.388  -0.202  0.4821  0.3327 -0.2684
  280MOL0     C36844   4.076   4.244  -0.143  0.2416 -0.0005 -0.2521
  280MOL0     N36845   4.028   4.143  -0.234 -0.2185  0.1082  0.1217
  280MOL0     C36846   3.923   4.145  -0.325 -2.2280 -0.2897  0.6117
  280MOL0     C36847   3.911   4.019  -0.381 -0.3991  0.7149 -0.0321
  280MOL0     C36848   3.815   3.968  -0.484  0.7735  0.5297  0.7571
  280MOL0     C36849   3.789   3.816  -0.486  0.5476  0.1128 -0.1793
  280MOL0     C36850   3.705   3.771  -0.605 -0.2247  0.1343  0.4525
  280MOL0     C36851   3.562   3.719  -0.580  0.7918 -0.1135 -0.1345
  280MOL0     O36852   3.496   3.809  -0.487 -0.4309 -0.6619  0.1170
  280MOL0     C36853   3.381   3.773  -0.423  0.5286 -0.7855  0.1621
  280MOL0     C36854   3.345   3.844  -0.304  0.7379 -0.4396  0.6863
  280MOL0     C36855   3.224   3.819  -0.235 -0.1166  1.0241  0.4799
  280MOL0     C36856   3.131   3.721  -0.276 -0.2104  0.7649 -0.9425
  280MOL0     C36857   3.006   3.705  -0.208 -0.5957 -0.2769  0.5143
  280MOL0     O36858   2.913   3.622  -0.268 -0.3702  0.4982  0.2135
  280MOL0     C36859   2.779   3.622  -0.221  0.1677 -0.3246  0.0538
  280MOL0     C36860   2.703   3.736  -0.192 -0.3231  0.3517  0.5397
  280MOL0     C36861   2.563   3.731  -0.168  1.4837 -0.1393  0.2613
  280MOL0     C36862   2.493   3.607  -0.174  0.2709  0.3197 -0.5160
  280MOL0     O36863   2.357   3.606  -0.154  0.3322  0.0731 -0.4961
  280MOL0     C36864   2.285   3.492  -0.202 -0.0114  0.0193 -0.1535
  280MOL0     C36865   2.134   3.530  -0.191 -0.0469  0.1091 -0.6326
  280MOL0     C36866   2.038   3.416  -0.216 -0.0831 -0.7411 -0.0518
  280MOL0     C36867   2.047   3.301  -0.120  0.1320  0.0846  0.3652
  280MOL0     C36868   1.974   3.322   0.014  1.3051  0.4650 -0.6522
  280MOL0     C36869   1.821   3.349  -0.007  0.2524 -0.2740  0.4070
  280MOL0     C36870   1.751   3.336   0.123 -0.4536  0.6347 -0.3825
  280MOL0     C36871   1.603   3.377   0.121  0.0051 -1.0273  0.0638
  280MOL0    Cl36872   1.503   3.269   0.021 -0.4513  0.2755 -0.1620
  280MOL0     C36873   2.568   3.492  -0.204 -0.5591  0.1318  0.2551
  280MOL0     C36874   2.710   3.500  -0.227  0.9295  0.1668  0.1678
  280MOL0     O36875   2.998   3.749  -0.093  0.1599 -0.0470  0.1579
  280MOL0     C36876   3.174   3.642  -0.383  0.2267  0.0015 -0.3700
  280MOL0     C36877   3.290   3.670  -0.461 -1.2122  0.0984  0.2116
  280MOL0     N36878   4.017   3.944  -0.325  0.3416  0.1160  0.1829
  280MOL0     N36879   4.082   4.023  -0.240 -0.3120  0.8531 -0.2000
  280MOL0     C36880   4.753   4.714   0.580  0.4441  0.2638 -0.5177
  280MOL0     C36881   4.876   4.772   0.623  0.4020 -0.2214 -0.3045
  280MOL0     C36882   5.210   5.040   0.630 -0.5264  0.6675 -0.5179
  280MOL0     C36883   5.333   4.978   0.671 -0.1600  0.7991  0.7877
  280MOL0     C36884   5.441   5.050   0.713  0.3418  0.3257  0.1079
  280MOL0     C36885   5.433   5.192   0.716  0.1261  0.0698 -0.5920
  280MOL0     O36886   5.548   5.257   0.755  0.4295 -0.1669  0.4066
  280MOL0     C36887   5.541   5.400   0.769 -1.1637 -0.3817  0.1278
  280MOL0     C36888   5.669   5.444   0.836 -0.5972 -0.4185 -0.8190
  280MOL0     C36889   5.792   5.404   0.754 -0.0898 -0.5132 -0.0428
  280MOL0     C36890   5.925   5.449   0.823  0.2907  0.8018  0.2735
  280MOL0     C36891   5.924   5.589   0.861 -0.7709 -0.0934 -0.4859
  280MOL0     C36892   5.923   5.701   0.904  0.4347  0.1395  0.0528
  280MOL0     C36893   5.311   5.255   0.682 -0.2739  0.2536  1.2702
  280MOL0     C36894   5.198   5.184   0.639 -0.3294  0.3696  0.3168
  280MOL0     H36895   5.064   4.682   0.351 -0.0781 -0.8930  0.1547
  280MOL0     H36896   4.835   4.571   0.294 -3.1144  0.6770 -0.2167
  280MOL0     H36897   4.648   4.569   0.216  0.2115 -1.9216  1.4039
  280MOL0     H36898   4.616   4.736   0.255 -0.4533  0.4011 -0.1094
  280MOL0     H36899   4.373   4.674   0.297  0.4688  0.9976 -1.1780
  280MOL0     H36900   4.429   4.500   0.310 -0.7081  1.6280  3.7086
  280MOL0     H36901   4.470   4.478   0.090  1.0280 -0.0159  1.5395
  280MOL0     H36902   4.452   4.655   0.060  1.5566  2.6383  4.1774
  280MOL0     H36903   4.226   4.480   0.153 -1.4337  0.6806 -0.5946
  280MOL0     H36904   4.206   4.647   0.099  1.3237  2.4844 -4.3291
  280MOL0     H36905   4.310   4.440  -0.095 -0.9446  0.1989 -1.5944
  280MOL0     H36906   4.270   4.608  -0.122  0.0116  2.1379  1.4827
  280MOL0     H36907   4.048   4.599  -0.138  0.0204  0.6136  0.0670
  280MOL0     H36908   4.048   4.474  -0.004  3.7644 -3.9139  1.1265
  280MOL0     H36909   3.973   4.409  -0.248  0.5771  1.7422  0.1432
  280MOL0     H36910   4.144   4.404  -0.281 -2.4370  0.1702 -3.2748
  280MOL0     H36911   4.011   4.246  -0.054 -0.0004 -0.0486 -0.4279
  280MOL0     H36912   4.174   4.224  -0.099 -0.1496  3.2371  2.5748
  280MOL0     H36913   3.877   4.237  -0.361  1.0495  1.5979  0.7854
  280MOL0     H36914   3.855   4.007  -0.578  0.4837 -0.9103  0.0076
  280MOL0     H36915   3.713   4.006  -0.473  0.5117 -0.1555  0.7694
  280MOL0     H36916   3.741   3.781  -0.394  1.6662 -3.1333 -0.7043
  280MOL0     H36917   3.889   3.773  -0.500 -0.2984 -1.3311 -2.2790
  280MOL0     H36918   3.692   3.862  -0.665 -0.6853 -0.0884  0.2046
  280MOL0     H36919   3.768   3.698  -0.656 -0.8099  0.6583 -1.0777
  280MOL0     H36920   3.561   3.618  -0.538 -2.2908  1.0544  3.0560
  280MOL0     H36921   3.513   3.711  -0.678  0.8398 -1.8061 -0.0426
  280MOL0     H36922   3.416   3.919  -0.269  0.2899  0.6019 -0.5438
  280MOL0     H36923   3.193   3.888  -0.158  0.4866  2.0175 -0.1474
  280MOL0     H36924   2.750   3.834  -0.190 -1.5512  0.9504  1.1692
  280MOL0     H36925   2.499   3.819  -0.164  0.7150 -0.4686 -2.7066
  280MOL0     H36926   2.316   3.403  -0.146  0.7488  0.1789 -0.3046
  280MOL0     H36927   2.320   3.481  -0.305  5.1032  1.8964  1.0590
  280MOL0     H36928   2.104   3.623  -0.242 -1.0822 -0.4306 -1.0455
  280MOL0     H36929   2.113   3.550  -0.085 -2.5469 -1.7577 -0.6778
  280MOL0     H36930   2.062   3.374  -0.314  2.3390 -0.6878  0.4562
  280MOL0     H36931   1.936   3.455  -0.215  0.3287  0.3898 -0.4571
  280MOL0     H36932   2.013   3.212  -0.174  1.2591 -0.4419  0.4853
  280MOL0     H36933   2.152   3.280  -0.095 -0.1634  0.0243  1.6622
  280MOL0     H36934   2.015   3.413   0.060 -0.0657  1.8159 -1.9930
  280MOL0     H36935   2.004   3.239   0.079  2.2437  0.8743 -0.5385
  280MOL0     H36936   1.779   3.270  -0.070 -2.2103 -1.0129  2.7923
  280MOL0     H36937   1.798   3.448  -0.046 -2.1190 -1.0717 -0.3559
  280MOL0     H36938   1.751   3.233   0.161 -1.0305  0.7627 -0.0226
  280MOL0     H36939   1.808   3.396   0.194  0.2689 -0.6875  0.1879
  280MOL0     H36940   1.592   3.480   0.088 -0.9218 -0.5617  1.7019
  280MOL0     H36941   1.573   3.377   0.226  3.0757 -0.6010  1.0491
  280MOL0     H36942   2.515   3.398  -0.203  1.6108 -1.1704  1.4302
  280MOL0     H36943   2.765   3.408  -0.244 -1.2815 -1.3155  0.5995
  280MOL0     H36944   3.098   3.577  -0.424  1.3408 -2.2716  0.9867
  280MOL0     H36945   3.305   3.611  -0.551 -1.6092 -2.5162  1.7600
  280MOL0     H36946   4.664   4.720   0.641  1.4613 -0.2652  1.0948
  280MOL0     H36947   4.896   4.824   0.717  1.0403 -0.8162 -0.0990
  280MOL0     H36948   5.350   4.871   0.668 -0.6753  0.7285  0.0398
  280MOL0     H36949   5.539   5.021   0.749  0.2524 -2.0838 -1.3825
  280MOL0     H36950   5.461   5.432   0.836  1.6295  0.9662  3.0783
  280MOL0     H36951   5.535   5.460   0.677 -0.3249  0.8020  0.8229
  280MOL0     H36952   5.666   5.554   0.842 -1.1693 -0.4558 -0.3630
  280MOL0     H36953   5.680   5.413   0.940  1.5867  3.4427  0.3055
  280MOL0     H36954   5.779   5.446   0.654 -1.3463  1.9215  1.0497
  280MOL0     H36955   5.793   5.295   0.746  1.7363 -0.6082  0.9615
  280MOL0     H36956   5.949   5.385   0.908  0.8512  3.6079  2.3814
  280MOL0     H36957   5.999   5.419   0.748  0.0341  2.3689 -0.6521
  280MOL0     H36958   5.923   5.800   0.943 -0.9002 -0.6337  2.1816
  280MOL0     H36959   5.305   5.363   0.675  1.2376  0.2963  0.2664
  280MOL0     H36960   5.107   5.232   0.604  0.3002  0.5092 -1.1688
  281MOL0     O36961   9.436   1.330   9.926 -0.3674  0.4079  0.1742
  281MOL0     C36962   9.470   1.231   9.866 -0.1611 -0.0567  0.6742
  281MOL0     O36963   9.390   1.118   9.843 -0.2154  0.3585 -0.6952
  281MOL0     C36964   9.262   1.113   9.896 -0.5509  0.0707 -0.0546
  281MOL0     C36965   9.165   1.110   9.799  0.0714  0.2883 -0.0327
  281MOL0     C36966   9.032   1.095   9.846 -0.7937 -0.0504  0.2949
  281MOL0     C36967   9.005   1.083   9.982 -0.8141 -0.1891  0.1113
  281MOL0     O36968   8.878   1.076  10.034  0.3149  0.1662 -0.4468
  281MOL0     C36969   8.761   1.059   9.951  0.2265 -0.2945  0.2630
  281MOL0     C36970   8.630   1.078  10.030  0.0420 -0.9700  0.9078
  281MOL0     C36971   8.589   0.965  10.125 -0.3553  0.3997  0.3622
  281MOL0     C36972   8.448   0.972  10.187 -1.4614  0.2251  0.2319
  281MOL0     C36973   8.413   0.829  10.230  0.2331 -0.1413  0.1172
  281MOL0     C36974   8.274   0.829  10.291 -0.5890 -0.4928 -0.8076
  281MOL0     C36975   8.236   0.684  10.333 -0.7555  0.3731 -0.0929
  281MOL0     C36976   8.097   0.656  10.406  0.6071  0.7510 -0.0082
  281MOL0     N36977   8.091   0.508  10.429 -0.3207 -0.5302 -0.1109
  281MOL0     C36978   7.995   0.433  10.358  0.5802 -0.5709 -0.1800
  281MOL0     C36979   8.000   0.312  10.414  0.6454  0.5311  0.2388
  281MOL0     C36980   7.911   0.203  10.367  0.5537 -0.2121 -1.5000
  281MOL0     C36981   7.921   0.073  10.451  0.0392 -0.2465 -0.5082
  281MOL0     C36982   7.835  -0.035  10.391  0.2841  0.2312  0.1767
  281MOL0     C36983   7.692  -0.020  10.426 -0.2838 -0.1273 -0.2122
  281MOL0     O36984   7.623  -0.127  10.362 -0.0906  0.5586  0.3033
  281MOL0     C36985   7.497  -0.163  10.408 -0.6473 -0.7658 -0.0545
  281MOL0     C36986   7.463  -0.296  10.421  0.0731 -0.0989  0.2198
  281MOL0     C36987   7.341  -0.343  10.473 -0.8408 -0.0191  0.1491
  281MOL0     C36988   7.241  -0.248  10.516 -0.1016  1.2899 -0.1207
  281MOL0     C36989   7.118  -0.285  10.583  0.6977 -0.1209  0.2317
  281MOL0     O36990   7.027  -0.182  10.599  0.4279  0.3437  0.0530
  281MOL0     C36991   6.897  -0.208  10.646  0.2208 -0.1237  0.1062
  281MOL0     C36992   6.790  -0.182  10.548 -0.2002  0.1353  1.0683
  281MOL0     C36993   6.655  -0.210  10.580  0.1984  0.6758  1.2130
  281MOL0     C36994   6.621  -0.266  10.702  0.0343  0.0171  0.7172
  281MOL0     O36995   6.488  -0.280  10.727  0.3688  0.2601 -0.1431
  281MOL0     C36996   6.449  -0.391  10.817  0.0719 -0.0609  0.1867
  281MOL0     C36997   6.296  -0.379  10.846 -0.2015  0.4170  0.0855
  281MOL0     C36998   6.213  -0.402  10.713 -0.2801  0.1160 -0.1689
  281MOL0     C36999   6.064  -0.389  10.742  0.1811  0.2459 -0.3661
  281MOL0     C37000   5.993  -0.359  10.614  0.1647 -0.2849  0.5680
  281MOL0     C37001   5.838  -0.370  10.626 -0.1017  0.0160  0.1783
  281MOL0     C37002   5.768  -0.382  10.486  0.1883  0.8172  0.1083
  281MOL0     C37003   5.770  -0.519  10.420  0.5646  0.0345  0.3432
  281MOL0    Cl37004   5.667  -0.513  10.266 -0.0783  0.1171  0.2329
  281MOL0     C37005   6.729  -0.290  10.791  0.0575  0.0724 -0.2063
  281MOL0     C37006   6.857  -0.255  10.766 -0.2810 -0.0373 -0.2873
  281MOL0     O37007   7.100  -0.399  10.613 -0.8695 -0.6376  0.5374
  281MOL0     C37008   7.274  -0.110  10.505 -0.3908 -0.6208  0.5512
  281MOL0     C37009   7.398  -0.065  10.449  0.1808 -0.4828 -0.7934
  281MOL0     N37010   8.098   0.318  10.509  0.2498 -0.5227 -0.4390
  281MOL0     N37011   8.148   0.435  10.518 -0.4981  0.8430 -0.5387
  281MOL0     C37012   9.106   1.099  10.070 -0.4065  0.3352  0.2188
  281MOL0     C37013   9.246   1.113  10.032  0.4784 -0.6149  0.2174
  281MOL0     C37014   9.615   1.213   9.843  0.1830 -0.9496  0.2050
  281MOL0     C37015   9.683   1.094   9.845 -0.3291 -0.0239  0.1077
  281MOL0     C37016   9.823   1.091   9.835  0.2328 -0.4977  0.9699
  281MOL0     C37017   9.899   1.208   9.814  0.3002  0.0920 -0.7627
  281MOL0     O37018  10.037   1.198   9.781 -0.1685 -0.0245 -0.0989
  281MOL0     C37019  10.121   1.313   9.769  0.1630  0.2643  0.5266
  281MOL0     C37020  10.270   1.276   9.769  0.5112  0.2512 -0.0675
  281MOL0     C37021  10.358   1.402   9.753  1.0195  0.5413  0.7327
  281MOL0     C37022  10.379   1.446   9.609  0.2885  0.6345 -0.8924
  281MOL0     C37023  10.453   1.571   9.610 -0.4424 -0.2788  0.9008
  281MOL0     C37024  10.505   1.683   9.609  0.1792  0.3342  0.4852
  281MOL0     C37025   9.831   1.330   9.815  0.6012  0.0650 -0.0027
  281MOL0     C37026   9.690   1.329   9.832  0.0478  0.2716  0.0838
  281MOL0     H37027   9.187   1.105   9.693  1.7447 -2.4476  0.3547
  281MOL0     H37028   8.955   1.084   9.770 -1.8558 -0.1431  1.3573
  281MOL0     H37029   8.743   0.959   9.909 -3.2298 -0.1029  1.0001
  281MOL0     H37030   8.771   1.126   9.866  0.4618 -2.0756 -1.1764
  281MOL0     H37031   8.546   1.091   9.962  0.7965  0.0617  0.1478
  281MOL0     H37032   8.638   1.169  10.090  0.5142  1.5660 -2.7175
  281MOL0     H37033   8.662   0.951  10.204 -0.0213 -0.9842 -0.1656
  281MOL0     H37034   8.594   0.873  10.065  1.9445  0.5690  0.2214
  281MOL0     H37035   8.443   1.046  10.268  3.3539  1.3805 -0.1940
  281MOL0     H37036   8.383   1.009  10.108  1.6724  0.8324 -2.2742
  281MOL0     H37037   8.488   0.791  10.300  0.0045 -0.3002  0.2768
  281MOL0     H37038   8.410   0.756  10.148  1.0778  2.6368 -2.5895
  281MOL0     H37039   8.195   0.863  10.223 -3.9100  0.6096  3.1561
  281MOL0     H37040   8.281   0.886  10.385 -1.1710 -2.0429  0.2195
  281MOL0     H37041   8.247   0.622  10.244 -1.3374 -2.4725  1.6970
  281MOL0     H37042   8.307   0.646  10.407 -0.0214  0.5233 -0.7083
  281MOL0     H37043   8.014   0.695  10.347  0.0516 -1.0223 -0.4453
  281MOL0     H37044   8.090   0.713  10.499 -2.9858  1.5174 -0.6195
  281MOL0     H37045   7.924   0.471  10.285 -0.0036 -3.0106 -0.9745
  281MOL0     H37046   7.925   0.189  10.260 -1.3790 -1.4659 -1.6355
  281MOL0     H37047   7.809   0.243  10.376 -0.2250 -2.2837 -0.3590
  281MOL0     H37048   7.878   0.086  10.551 -0.2383 -0.0136 -0.6560
  281MOL0     H37049   8.023   0.035  10.458 -0.5325 -1.8496 -0.6153
  281MOL0     H37050   7.850  -0.046  10.283  0.7215 -0.7863  0.3303
  281MOL0     H37051   7.873  -0.127  10.437  0.8365  0.2803 -0.1679
  281MOL0     H37052   7.658   0.081  10.399  0.3721  0.2448  0.3161
  281MOL0     H37053   7.677  -0.027  10.534 -2.0719  1.9025 -0.2674
  281MOL0     H37054   7.540  -0.369  10.396  0.3194  0.1617  0.2063
  281MOL0     H37055   7.325  -0.450  10.489  0.3543  0.1237  2.8829
  281MOL0     H37056   6.821  -0.158  10.447 -1.8212 -0.0921  0.4751
  281MOL0     H37057   6.580  -0.192  10.504 -0.0860 -2.5227  0.5863
  281MOL0     H37058   6.502  -0.384  10.912  1.4979  0.4415 -0.6140
  281MOL0     H37059   6.478  -0.483  10.765  1.6561  0.1747  0.5889
  281MOL0     H37060   6.270  -0.290  10.903  2.1952  2.1892 -1.4165
  281MOL0     H37061   6.274  -0.461  10.915  0.7727 -0.1511 -0.2663
  281MOL0     H37062   6.239  -0.497  10.665 -0.3608  0.4023 -0.7917
  281MOL0     H37063   6.238  -0.315  10.651 -1.4605  2.3979  2.3459
  281MOL0     H37064   6.031  -0.484  10.786  0.4739  1.3210  2.3593
  281MOL0     H37065   6.050  -0.316  10.821 -0.2871 -0.9025  0.6480
  281MOL0     H37066   6.031  -0.420  10.531  4.2090  0.7507  1.4460
  281MOL0     H37067   6.033  -0.262  10.584 -1.4662  0.2964  0.2110
  281MOL0     H37068   5.794  -0.287  10.681 -1.1624 -1.5117  1.7389
  281MOL0     H37069   5.814  -0.458  10.686  0.7389 -0.6276 -0.4015
  281MOL0     H37070   5.664  -0.356  10.508  0.1920  1.9509 -1.0694
  281MOL0     H37071   5.803  -0.312  10.409 -0.9946  0.2613 -0.9766
  281MOL0     H37072   5.740  -0.601  10.485 -1.1847 -1.0497 -1.6709
  281MOL0     H37073   5.873  -0.538  10.389  1.3518  0.7322  2.4035
  281MOL0     H37074   6.702  -0.337  10.885  2.4191  0.8791  0.9442
  281MOL0     H37075   6.938  -0.262  10.839  0.1797  1.4322 -0.6387
  281MOL0     H37076   7.203  -0.033  10.532 -0.7125  0.6801 -3.3515
  281MOL0     H37077   7.405   0.042  10.464  1.4884 -0.6530 -0.0479
  281MOL0     H37078   9.084   1.092  10.177 -0.8016 -0.0915  0.1180
  281MOL0     H37079   9.324   1.121  10.107 -0.8442 -1.5923  1.7768
  281MOL0     H37080   9.623   1.005   9.834 -1.0671  0.3850  0.7407
  281MOL0     H37081   9.872   0.995   9.821 -1.7403 -1.2350 -1.6392
  281MOL0     H37082  10.108   1.381   9.853  0.5771 -0.8115  1.4783
  281MOL0     H37083  10.096   1.377   9.684  0.5368 -2.3701 -1.7084
  281MOL0     H37084  10.285   1.224   9.864  1.2792 -1.4969 -1.1097
  281MOL0     H37085  10.290   1.197   9.697 -0.3676  0.2691 -0.3407
  281MOL0     H37086  10.456   1.366   9.788  0.5364 -0.9269  0.6579
  281MOL0     H37087  10.313   1.486   9.806 -0.9823  2.2957 -3.3712
  281MOL0     H37088  10.429   1.369   9.550  1.2463  1.2058 -0.8434
  281MOL0     H37089  10.280   1.454   9.564 -0.5789  2.1596  1.1315
  281MOL0     H37090  10.556   1.775   9.586  1.4017 -0.7493 -1.4098
  281MOL0     H37091   9.884   1.422   9.791 -0.0937 -0.3166 -3.7430
  281MOL0     H37092   9.649   1.430   9.830 -2.6874 -0.7340 -2.2379
  282MOL0     O37093   1.634  10.830   8.064  0.4788  0.8091  0.9332
  282MOL0     C37094   1.662  10.722   8.010 -0.0738  0.4268 -0.1053
  282MOL0     O37095   1.574  10.631   7.964 -0.8024 -0.3692 -0.0860
  282MOL0     C37096   1.437  10.637   7.978 -0.1570 -0.2590  0.9211
  282MOL0     C37097   1.354  10.576   7.880 -0.1730 -0.2006  0.1734
  282MOL0     C37098   1.220  10.585   7.886  0.4004  0.2468 -0.6161
  282MOL0     C37099   1.160  10.644   7.996  0.4042 -0.8148 -0.0258
  282MOL0     O37100   1.020  10.651   7.992 -0.3710  0.7573  0.5816
  282MOL0     C37101   0.956  10.654   8.118  0.0020  0.3235 -0.1311
  282MOL0     C37102   0.837  10.558   8.122  0.2449  0.1518 -0.6616
  282MOL0     C37103   0.717  10.616   8.043 -0.0523  0.4448 -0.2507
  282MOL0     C37104   0.593  10.533   8.072  0.4158  0.4146 -0.5955
  282MOL0     C37105   0.458  10.576   8.004 -0.1988  0.2914  0.4384
  282MOL0     C37106   0.389  10.710   8.066 -0.2787  0.2237 -0.1711
  282MOL0     C37107   0.302  10.668   8.188  0.0074  0.3083  0.5958
  282MOL0     C37108   0.213  10.783   8.241 -0.0364  0.0835 -0.5770
  282MOL0     N37109   0.099  10.825   8.161  0.1346 -0.2186  0.4513
  282MOL0     C37110   0.032  10.745   8.077 -0.0274  0.2201 -1.3832
  282MOL0     C37111  -0.068  10.821   8.020  0.2890  0.7866 -0.2910
  282MOL0     C37112  -0.157  10.776   7.913  0.9458 -0.7546 -0.8645
  282MOL0     C37113  -0.307  10.820   7.939 -0.2562 -0.1590  0.0241
  282MOL0     C37114  -0.405  10.710   7.882  0.7763 -0.6299  0.4600
  282MOL0     C37115  -0.551  10.739   7.920  0.0957 -0.4440  0.3582
  282MOL0     O37116  -0.636  10.627   7.930 -0.4998  0.5916 -0.7693
  282MOL0     C37117  -0.765  10.636   7.979  0.1922 -1.0590 -0.0916
  282MOL0     C37118  -0.846  10.511   7.982 -0.6024 -0.4104 -1.1736
  282MOL0     C37119  -0.974  10.516   8.031 -0.0124  0.2919 -0.2736
  282MOL0     C37120  -1.034  10.632   8.067  0.4167  0.2171 -0.2843
  282MOL0     C37121  -1.161  10.632   8.132  0.4378  0.6697 -0.4998
  282MOL0     O37122  -1.211  10.507   8.153  0.0150 -0.1504  0.1303
  282MOL0     C37123  -1.335  10.494   8.210  0.3170  0.0599 -0.7556
  282MOL0     C37124  -1.352  10.405   8.321  0.4091  1.1065 -0.5391
  282MOL0     C37125  -1.480  10.383   8.381  0.2874 -0.2723  0.0259
  282MOL0     C37126  -1.589  10.451   8.329  0.5406  0.0677  0.0474
  282MOL0     O37127  -1.717  10.441   8.382 -0.2651 -0.6774 -0.1380
  282MOL0     C37128  -1.721  10.464   8.524 -0.8236  0.3779 -0.8702
  282MOL0     C37129  -1.788  10.349   8.610 -0.3317  0.3866  0.1709
  282MOL0     C37130  -1.927  10.317   8.578  0.4330  0.1562 -0.2813
  282MOL0     C37131  -1.981  10.187   8.651  0.0009 -0.0400 -0.5323
  282MOL0     C37132  -2.133  10.175   8.639 -0.2444 -0.0972 -0.0713
  282MOL0     C37133  -2.204  10.072   8.728  0.2956 -0.3904  0.6401
  282MOL0     C37134  -2.150   9.935   8.693 -0.5222  0.1819  0.2076
  282MOL0     C37135  -2.172   9.878   8.554 -0.1901 -0.4167 -0.1519
  282MOL0    Cl37136  -2.118   9.706   8.562  0.3446 -0.2162  0.0871
  282MOL0     C37137  -1.574  10.531   8.216 -0.8025 -0.3445 -0.0878
  282MOL0     C37138  -1.447  10.560   8.160 -0.5751  0.5531  0.1448
  282MOL0     O37139  -1.210  10.743   8.160 -0.1015  0.0807  0.1328
  282MOL0     C37140  -0.962  10.751   8.042 -0.2279 -1.1520 -0.5474
  282MOL0     C37141  -0.834  10.758   7.996 -0.1145  0.6091 -0.8287
  282MOL0     N37142  -0.064  10.943   8.083 -0.5673 -0.7998  0.4971
  282MOL0     N37143   0.034  10.940   8.165 -0.5502 -0.1938 -0.8597
  282MOL0     C37144   1.244  10.696   8.097  0.6437  0.4553  0.2067
  282MOL0     C37145   1.382  10.688   8.090  0.1798 -1.0334 -0.4332
  282MOL0     C37146   1.809  10.685   8.004 -0.2570 -0.4182  0.0641
  282MOL0     C37147   1.853  10.565   7.956  0.1735 -0.1103  1.4716
  282MOL0     C37148   1.984  10.543   7.937  0.1298  0.3174 -0.0747
  282MOL0     C37149   2.081  10.639   7.975 -0.4708 -0.0368 -0.2602
  282MOL0     O37150   2.211  10.606   7.950 -0.2608 -0.3489  0.2685
  282MOL0     C37151   2.300  10.709   7.903  0.5356 -0.3717  0.7036
  282MOL0     C37152   2.262  10.762   7.764  0.0832  0.3665 -0.4973
  282MOL0     C37153   2.379  10.843   7.700 -0.4739  0.4177 -0.0138
  282MOL0     C37154   2.452  10.766   7.591 -1.1738  0.1721  0.1090
  282MOL0     C37155   2.362  10.715   7.484  0.5840 -0.9186  0.2360
  282MOL0     C37156   2.295  10.673   7.392 -0.4725  0.1993  0.4249
  282MOL0     C37157   2.040  10.762   8.033  0.2814 -0.2875  0.5676
  282MOL0     C37158   1.903  10.787   8.040 -0.4067  0.4179 -0.4114
  282MOL0     H37159   1.394  10.530   7.790 -0.8251  2.8600 -1.8095
  282MOL0     H37160   1.157  10.535   7.813 -0.0584  0.3542 -0.2987
  282MOL0     H37161   0.930  10.757   8.143 -3.4021 -0.8301  1.7913
  282MOL0     H37162   1.019  10.621   8.202 -1.7918  1.7637  1.8959
  282MOL0     H37163   0.812  10.539   8.227 -0.3223 -0.8301 -0.9536
  282MOL0     H37164   0.866  10.455   8.096 -3.5602 -1.5960  1.2350
  282MOL0     H37165   0.741  10.617   7.936 -1.3360  1.9424 -0.5676
  282MOL0     H37166   0.705  10.722   8.070  3.9565  1.0491 -0.2061
  282MOL0     H37167   0.612  10.430   8.041  1.0818 -0.2523  1.7454
  282MOL0     H37168   0.572  10.529   8.180 -0.0155 -1.7457 -0.7164
  282MOL0     H37169   0.392  10.491   8.025  0.9970 -0.5737  0.7987
  282MOL0     H37170   0.472  10.589   7.896 -1.0355  2.7184  0.5538
  282MOL0     H37171   0.320  10.751   7.992 -1.2478  1.6889  1.4662
  282MOL0     H37172   0.468  10.781   8.094  0.4651 -0.7647  0.3438
  282MOL0     H37173   0.233  10.588   8.157  1.0729  0.1208 -1.4332
  282MOL0     H37174   0.360  10.617   8.266 -0.8316  1.9896  2.3966
  282MOL0     H37175   0.282  10.865   8.262  0.7593 -0.4989 -0.8489
  282MOL0     H37176   0.177  10.740   8.335 -0.7085 -1.8694 -1.6646
  282MOL0     H37177   0.056  10.645   8.043 -1.0180 -0.7754  0.6789
  282MOL0     H37178  -0.147  10.667   7.905 -4.6782 -1.5871 -0.9907
  282MOL0     H37179  -0.119  10.821   7.821  1.6436 -0.0994 -0.2617
  282MOL0     H37180  -0.335  10.918   7.898 -1.2106 -0.9238 -1.2328
  282MOL0     H37181  -0.331  10.823   8.046 -0.4345 -0.9649  0.0151
  282MOL0     H37182  -0.400  10.701   7.773 -0.0147  1.2345  0.2284
  282MOL0     H37183  -0.367  10.614   7.918  1.5916  0.4181  2.5290
  282MOL0     H37184  -0.585  10.810   7.844  0.6513 -1.8250 -1.2496
  282MOL0     H37185  -0.547  10.788   8.018  3.2218  0.0637  0.0706
  282MOL0     H37186  -0.797  10.416   7.963 -1.4543 -1.2055  0.4254
  282MOL0     H37187  -1.014  10.416   8.047 -1.2284  0.6813 -0.8253
  282MOL0     H37188  -1.277  10.339   8.364 -2.1268 -1.1894  0.6549
  282MOL0     H37189  -1.500  10.307   8.456  2.9293 -1.3799 -0.2692
  282MOL0     H37190  -1.768  10.562   8.534 -1.3841  0.1105 -0.8381
  282MOL0     H37191  -1.620  10.474   8.566 -0.1574 -4.1105 -0.9505
  282MOL0     H37192  -1.779  10.363   8.718 -0.8278 -0.9366  0.4086
  282MOL0     H37193  -1.726  10.264   8.581  2.0570  2.6588 -1.8203
  282MOL0     H37194  -1.926  10.299   8.470  1.1591 -2.1824  0.0568
  282MOL0     H37195  -1.992  10.399   8.610 -1.5476 -0.9456 -1.2538
  282MOL0     H37196  -1.935  10.105   8.596 -3.6884 -0.1032 -4.0228
  282MOL0     H37197  -1.960  10.191   8.758 -1.3481 -1.6411 -0.1687
  282MOL0     H37198  -2.156  10.159   8.533  1.1246  1.4278 -0.6357
  282MOL0     H37199  -2.167  10.276   8.662  0.2534  0.0173  0.1767
  282MOL0     H37200  -2.310  10.065   8.704  0.4076 -2.7487  0.6219
  282MOL0     H37201  -2.206  10.076   8.837  1.4071 -4.3742  0.9613
  282MOL0     H37202  -2.042   9.926   8.709 -0.7027 -0.5044  1.1446
  282MOL0     H37203  -2.198   9.870   8.767 -1.1537 -0.8781 -1.0877
  282MOL0     H37204  -2.113   9.931   8.479 -0.5699  1.6845  0.9640
  282MOL0     H37205  -2.279   9.871   8.531 -0.1095 -0.0773 -0.6465
  282MOL0     H37206  -1.659  10.576   8.167  0.3572 -0.5616 -2.4624
  282MOL0     H37207  -1.449  10.631   8.078 -0.9982 -1.1546 -1.3888
  282MOL0     H37208  -1.004  10.848   8.065  0.2066 -1.8596  4.3073
  282MOL0     H37209  -0.779  10.851   7.988 -0.7083  0.9044 -1.5062
  282MOL0     H37210   1.196  10.740   8.183 -2.7002 -3.4310  0.5965
  282MOL0     H37211   1.425  10.721   8.185 -2.8826  0.9649  0.3928
  282MOL0     H37212   1.787  10.488   7.917  1.6637 -0.7918  0.1422
  282MOL0     H37213   2.012  10.451   7.887 -0.0489 -0.7112  1.6315
  282MOL0     H37214   2.403  10.673   7.910  0.4655 -0.9775 -1.0130
  282MOL0     H37215   2.299  10.793   7.973  2.4983 -0.8345  1.3289
  282MOL0     H37216   2.235  10.668   7.715 -0.3773 -1.4879  2.9834
  282MOL0     H37217   2.175  10.827   7.780 -0.4363 -0.8324  2.0864
  282MOL0     H37218   2.437  10.872   7.788 -1.4399  0.2604  0.6908
  282MOL0     H37219   2.337  10.932   7.650 -0.9245 -0.4113 -1.1662
  282MOL0     H37220   2.522  10.834   7.541  0.3277 -0.9834  0.5351
  282MOL0     H37221   2.513  10.684   7.631 -0.8783  0.7894  0.9521
  282MOL0     H37222   2.241  10.645   7.304 -0.5851  0.5874  0.3719
  282MOL0     H37223   2.106  10.840   8.070  0.7099 -0.6660  0.6040
  282MOL0     H37224   1.864  10.879   8.081 -2.2981 -1.0792  1.4113
  283MOL0     O37225  10.688   1.185   0.666 -0.1897 -0.0027 -0.0747
  283MOL0     C37226  10.619   1.084   0.650 -0.4705  0.1214  0.5787
  283MOL0     O37227  10.630   0.960   0.703  0.2553  0.3462 -0.0132
  283MOL0     C37228  10.741   0.925   0.774  0.9095  0.0669 -0.0613
  283MOL0     C37229  10.857   0.872   0.710  0.2423  0.0515  0.5205
  283MOL0     C37230  10.969   0.840   0.784 -0.0374 -0.2048 -1.3514
  283MOL0     C37231  10.975   0.865   0.923 -0.1036  0.6251  0.2238
  283MOL0     O37232  11.094   0.829   0.990  0.1567 -0.3843  0.1104
  283MOL0     C37233  11.103   0.789   1.124 -0.2391 -0.5907 -0.3611
  283MOL0     C37234  11.086   0.639   1.134  0.1122  0.6329 -0.5806
  283MOL0     C37235  10.954   0.591   1.069  0.1495  0.0093 -0.0316
  283MOL0     C37236  10.913   0.448   1.107  0.6390  0.1495  0.1233
  283MOL0     C37237  10.803   0.391   1.011  0.4402 -0.3784  0.4078
  283MOL0     C37238  10.737   0.268   1.061 -0.6576 -0.8075  0.3091
  283MOL0     C37239  10.644   0.191   0.965  0.0105 -0.1672 -0.3078
  283MOL0     C37240  10.644   0.041   0.991  0.8413  0.3629 -0.8335
  283MOL0     N37241  10.597   0.011   1.129  0.5892 -0.0150 -0.0281
  283MOL0     C37242  10.477   0.044   1.178  0.9480  0.0359  0.9083
  283MOL0     C37243  10.475  -0.002   1.302 -0.9574  0.5664 -0.4227
  283MOL0     C37244  10.346  -0.013   1.376  0.6037 -0.4749 -0.3000
  283MOL0     C37245  10.308  -0.164   1.392 -0.3200 -0.6689  0.1545
  283MOL0     C37246  10.237  -0.214   1.264  0.1297  0.1403 -0.0890
  283MOL0     C37247  10.222  -0.369   1.275 -1.0426 -0.4310  0.5590
  283MOL0     O37248  10.159  -0.417   1.162  0.1830 -0.2264 -0.4312
  283MOL0     C37249  10.024  -0.427   1.151 -0.9377  0.4318  0.6882
  283MOL0     C37250   9.981  -0.494   1.039  0.3057  0.3554  0.1491
  283MOL0     C37251   9.841  -0.527   1.034 -0.3089 -0.0488 -0.1815
  283MOL0     C37252   9.743  -0.480   1.129  0.0934  0.1526  0.2584
  283MOL0     C37253   9.602  -0.505   1.118 -0.1167  0.2698 -0.6681
  283MOL0     O37254   9.505  -0.419   1.157 -0.8084 -0.5595  1.3450
  283MOL0     C37255   9.384  -0.458   1.107  1.2935 -0.0068  0.2212
  283MOL0     C37256   9.312  -0.548   1.185 -0.1320  1.1366 -0.5244
  283MOL0     C37257   9.179  -0.583   1.150  0.0449  0.3920  0.4483
  283MOL0     C37258   9.128  -0.533   1.034 -0.0512 -0.2866  1.4483
  283MOL0     O37259   9.005  -0.578   0.991  0.0739 -0.2309  0.2201
  283MOL0     C37260   9.000  -0.607   0.854 -0.1573  0.3422  0.7660
  283MOL0     C37261   8.879  -0.691   0.835 -0.0681  0.7155  0.2576
  283MOL0     C37262   8.842  -0.696   0.695  0.8481 -0.2205 -1.0681
  283MOL0     C37263   8.693  -0.731   0.683  0.7587  0.6130  0.1954
  283MOL0     C37264   8.654  -0.712   0.535  0.0308 -0.3037 -0.1124
  283MOL0     C37265   8.512  -0.756   0.513  0.4549 -0.7574  0.7097
  283MOL0     C37266   8.527  -0.906   0.470  0.6218  0.2254  0.5830
  283MOL0     C37267   8.385  -0.950   0.431  0.3147  0.6651 -0.0149
  283MOL0    Cl37268   8.362  -1.118   0.365 -0.5330 -0.0500 -0.5963
  283MOL0     C37269   9.203  -0.459   0.945 -0.6259  0.0164 -0.5775
  283MOL0     C37270   9.338  -0.420   0.981  0.0958  0.6355 -1.1126
  283MOL0     O37271   9.579  -0.598   1.043 -0.3541  0.2162 -0.1037
  283MOL0     C37272   9.793  -0.410   1.236  0.1070  1.4923 -0.4095
  283MOL0     C37273   9.930  -0.379   1.243  0.1037  0.2121  0.1264
  283MOL0     N37274  10.604  -0.039   1.334  0.3524 -0.0190 -0.3173
  283MOL0     N37275  10.681  -0.022   1.233  0.2455  0.0202 -0.5043
  283MOL0     C37276  10.860   0.911   0.988 -0.5316 -0.6156  0.5336
  283MOL0     C37277  10.743   0.943   0.911  0.5251  0.3738 -0.8556
  283MOL0     C37278  10.503   1.103   0.559 -0.4648  0.6812 -0.3579
  283MOL0     C37279  10.412   0.995   0.543  0.3156  0.6078 -0.1884
  283MOL0     C37280  10.309   1.012   0.456 -0.1836 -0.0850 -0.2593
  283MOL0     C37281  10.282   1.134   0.385 -0.5291  0.5125 -0.2414
  283MOL0     O37282  10.182   1.135   0.285 -0.8414 -0.1402 -0.1853
  283MOL0     C37283  10.146   1.267   0.234  0.4275 -0.0913  0.3597
  283MOL0     C37284  10.250   1.301   0.118  0.1264  0.8162  0.1811
  283MOL0     C37285  10.216   1.418   0.034 -0.4141 -0.5461  0.4975
  283MOL0     C37286  10.335   1.473  -0.055 -0.2724 -0.2747  0.1354
  283MOL0     C37287  10.392   1.369  -0.143  0.3581 -0.1577 -0.3858
  283MOL0     C37288  10.439   1.279  -0.207 -0.4242 -0.0637 -0.0953
  283MOL0     C37289  10.373   1.240   0.412  0.1638 -0.4974  0.4173
  283MOL0     C37290  10.479   1.226   0.499  0.7407  0.0896 -0.1725
  283MOL0     H37291  10.862   0.869   0.602  0.2196  1.7623  0.4571
  283MOL0     H37292  11.068   0.820   0.745  0.9668 -0.6245  1.1788
  283MOL0     H37293  11.031   0.838   1.189 -0.1734 -0.6930 -0.2104
  283MOL0     H37294  11.202   0.823   1.157 -0.3404 -2.6641  2.3921
  283MOL0     H37295  11.097   0.610   1.239 -2.1281 -1.4997 -0.8426
  283MOL0     H37296  11.164   0.589   1.076 -3.0446 -3.0563 -2.0867
  283MOL0     H37297  10.957   0.588   0.959  4.2597 -2.5439 -0.0603
  283MOL0     H37298  10.876   0.659   1.103 -0.5226 -1.7751  2.2054
  283MOL0     H37299  11.006   0.392   1.091  0.5357 -0.5962  1.8792
  283MOL0     H37300  10.884   0.439   1.212 -0.8272  0.4714 -0.2323
  283MOL0     H37301  10.851   0.362   0.917  0.4996  0.8979  0.0170
  283MOL0     H37302  10.730   0.471   0.994  1.2879  0.5318  0.9606
  283MOL0     H37303  10.692   0.290   1.158 -1.2030 -0.7960  0.0588
  283MOL0     H37304  10.823   0.205   1.085  0.0583  0.6749  1.7996
  283MOL0     H37305  10.540   0.222   0.971 -1.0216 -3.3623  0.2359
  283MOL0     H37306  10.682   0.205   0.863  0.8485 -2.4598 -0.3797
  283MOL0     H37307  10.744  -0.004   0.987  1.1718  0.9941 -0.1182
  283MOL0     H37308  10.582  -0.020   0.925 -1.7233 -0.7816  2.3813
  283MOL0     H37309  10.392   0.082   1.122  2.0502  1.1671 -0.0762
  283MOL0     H37310  10.268   0.026   1.311  0.1902  0.9199  0.9793
  283MOL0     H37311  10.350   0.038   1.472  4.1763 -1.6930  0.3391
  283MOL0     H37312  10.245  -0.162   1.481  2.2957  2.4386  2.1535
  283MOL0     H37313  10.399  -0.222   1.411  0.7483  0.2434 -1.8973
  283MOL0     H37314  10.143  -0.159   1.269  0.7979  1.2787  4.3076
  283MOL0     H37315  10.291  -0.185   1.173  1.4499 -3.1531 -0.5288
  283MOL0     H37316  10.160  -0.397   1.361 -0.0583  0.6182  1.6473
  283MOL0     H37317  10.320  -0.415   1.282 -1.2976 -1.0270  0.2926
  283MOL0     H37318  10.050  -0.518   0.959 -0.9827  1.3273 -1.3220
  283MOL0     H37319   9.809  -0.574   0.942  1.4427 -0.9177 -0.3975
  283MOL0     H37320   9.358  -0.585   1.276 -1.5063  2.5311  0.7921
  283MOL0     H37321   9.110  -0.637   1.213  0.3799 -0.3507  0.1838
  283MOL0     H37322   9.084  -0.662   0.811 -1.0105  0.1311 -0.6877
  283MOL0     H37323   8.991  -0.508   0.808  0.1459 -0.1089 -0.2853
  283MOL0     H37324   8.794  -0.657   0.895 -0.2287  2.0199 -0.6535
  283MOL0     H37325   8.906  -0.790   0.872  0.4926  0.1863 -1.4899
  283MOL0     H37326   8.896  -0.779   0.648 -0.2050 -3.1459  2.4145
  283MOL0     H37327   8.864  -0.603   0.642 -0.2335  0.8883  0.3494
  283MOL0     H37328   8.667  -0.828   0.726  2.8024 -0.1916 -0.2551
  283MOL0     H37329   8.626  -0.660   0.733 -2.5622 -0.3694 -2.5017
  283MOL0     H37330   8.723  -0.757   0.463  0.7319  1.5037 -0.6440
  283MOL0     H37331   8.661  -0.605   0.512 -2.0498 -0.2640 -0.7419
  283MOL0     H37332   8.485  -0.695   0.426 -0.9938  1.0985  2.3682
  283MOL0     H37333   8.444  -0.743   0.597 -0.9499  0.0410 -0.4896
  283MOL0     H37334   8.589  -0.911   0.380  0.7154 -1.7159  0.7099
  283MOL0     H37335   8.572  -0.970   0.547  0.5146  0.4034  0.7942
  283MOL0     H37336   8.359  -0.873   0.357 -2.7558  1.0728  1.3127
  283MOL0     H37337   8.317  -0.936   0.516 -0.4146  0.3491 -0.5292
  283MOL0     H37338   9.170  -0.410   0.854  0.6449 -0.8789 -1.5614
  283MOL0     H37339   9.394  -0.346   0.925 -0.1979  1.3382 -0.5022
  283MOL0     H37340   9.719  -0.391   1.313  2.0493  0.3635  1.8554
  283MOL0     H37341   9.966  -0.329   1.332 -1.8466 -2.9844  2.9227
  283MOL0     H37342  10.864   0.918   1.096  1.5712  0.5294  0.4225
  283MOL0     H37343  10.651   0.974   0.958  0.5115 -0.9966  0.0866
  283MOL0     H37344  10.425   0.900   0.593  0.3856 -0.5530 -2.3006
  283MOL0     H37345  10.247   0.930   0.422 -0.2450 -0.3338  0.4438
  283MOL0     H37346  10.152   1.341   0.314 -0.8054 -0.3675  0.7203
  283MOL0     H37347  10.043   1.266   0.200 -0.2829 -2.9033  2.2377
  283MOL0     H37348  10.353   1.318   0.152 -0.4761  1.1782  1.9470
  283MOL0     H37349  10.248   1.212   0.055  1.1361  1.0416 -0.1782
  283MOL0     H37350  10.181   1.497   0.102 -0.4642 -0.6905  0.6383
  283MOL0     H37351  10.137   1.387  -0.035  0.3118  1.0532 -1.1350
  283MOL0     H37352  10.304   1.559  -0.115  1.4942 -0.3501 -0.9796
  283MOL0     H37353  10.415   1.514   0.007 -0.7041  1.1208 -0.2034
  283MOL0     H37354  10.475   1.192  -0.258 -3.4962 -1.3280 -0.2837
  283MOL0     H37355  10.368   1.332   0.355  0.2232  0.0167  1.2170
  283MOL0     H37356  10.542   1.310   0.523 -0.8764  0.9483  1.2852
  284MOL0     O37357   6.079   0.965  10.424  0.3352 -0.2064  0.3486
  284MOL0     C37358   6.084   0.885  10.516  0.8195  0.1298 -0.5583
  284MOL0     O37359   5.978   0.800  10.561 -0.8803 -0.7648  0.0615
  284MOL0     C37360   5.865   0.805  10.484  0.2631  0.2165  0.0583
  284MOL0     C37361   5.797   0.688  10.489 -0.4509  0.1538  0.0061
  284MOL0     C37362   5.680   0.672  10.423  0.3414 -0.2522  0.6022
  284MOL0     C37363   5.624   0.781  10.346  0.0669  0.6753 -0.7760
  284MOL0     O37364   5.505   0.775  10.276  0.0297  0.6370 -0.0032
  284MOL0     C37365   5.427   0.653  10.268 -0.1882 -0.1933 -0.3379
  284MOL0     C37366   5.320   0.681  10.165  0.7459  0.5664 -0.4000
  284MOL0     C37367   5.196   0.594  10.155 -0.4497 -0.8159 -0.4491
  284MOL0     C37368   5.078   0.651  10.075  0.7081 -0.0769 -1.1079
  284MOL0     C37369   4.956   0.555  10.079 -0.3036 -0.0083  0.0977
  284MOL0     C37370   4.832   0.611  10.022  0.0241 -0.2162  0.1841
  284MOL0     C37371   4.736   0.500   9.980 -0.4054  0.1389  0.3969
  284MOL0     C37372   4.608   0.554   9.924  0.2808 -0.3559 -0.1059
  284MOL0     N37373   4.518   0.444   9.874 -0.2473 -0.1490 -0.0253
  284MOL0     C37374   4.552   0.324   9.822 -0.8655 -0.1167 -0.4476
  284MOL0     C37375   4.436   0.282   9.769 -0.2009 -0.2762  1.1293
  284MOL0     C37376   4.423   0.160   9.689 -0.6696  0.0078 -0.0811
  284MOL0     C37377   4.403   0.036   9.769  1.1286  0.1410 -0.5861
  284MOL0     C37378   4.292   0.044   9.875  0.6089 -0.5099  0.1207
  284MOL0     C37379   4.161   0.076   9.806 -0.2184 -0.3761 -0.0272
  284MOL0     O37380   4.047   0.044   9.883  0.1135  0.4918  0.4549
  284MOL0     C37381   3.924   0.063   9.821  0.3414 -0.1115 -0.0102
  284MOL0     C37382   3.894   0.088   9.686  0.1449  0.6816  0.5169
  284MOL0     C37383   3.759   0.111   9.646 -0.6655 -0.1204  0.1500
  284MOL0     C37384   3.659   0.096   9.734  0.4243  0.6905 -0.0989
  284MOL0     C37385   3.511   0.102   9.695  0.6880 -0.3480 -0.2555
  284MOL0     O37386   3.482   0.080   9.558 -0.1299  0.4785 -0.1830
  284MOL0     C37387   3.350   0.081   9.523  0.1669  0.6303  0.4932
  284MOL0     C37388   3.275  -0.032   9.504 -0.6451  0.1069  0.5142
  284MOL0     C37389   3.137  -0.025   9.467 -0.2276 -0.2467 -0.6047
  284MOL0     C37390   3.073   0.103   9.455 -0.0754  0.0786  0.2500
  284MOL0     O37391   2.939   0.122   9.446 -0.0807  0.0641 -0.1034
  284MOL0     C37392   2.860   0.007   9.410 -0.8653 -0.1449  0.3436
  284MOL0     C37393   2.719   0.053   9.393 -0.2718  0.6228 -0.4523
  284MOL0     C37394   2.652   0.104   9.514 -0.0699  0.4890  0.2297
  284MOL0     C37395   2.507   0.141   9.486  0.2759 -0.4111  0.1637
  284MOL0     C37396   2.442   0.203   9.611 -0.5333 -0.0035 -0.2544
  284MOL0     C37397   2.291   0.191   9.605 -0.2204  0.1765 -0.5651
  284MOL0     C37398   2.216   0.208   9.739 -0.7457  0.1017  0.2021
  284MOL0     C37399   2.068   0.212   9.726 -0.4747  0.0274  0.2132
  284MOL0    Cl37400   2.000   0.046   9.719  0.2826 -0.0073 -0.2645
  284MOL0     C37401   3.151   0.216   9.476  0.5796  0.1444 -0.5384
  284MOL0     C37402   3.288   0.205   9.499 -0.6207 -0.0390 -0.9529
  284MOL0     O37403   3.431   0.118   9.788 -0.1058  0.3070 -0.1779
  284MOL0     C37404   3.687   0.075   9.873 -0.0120  0.3011 -0.3032
  284MOL0     C37405   3.817   0.060   9.912  0.3068 -0.3010  0.4911
  284MOL0     N37406   4.331   0.371   9.802 -0.1487  0.0689  0.8522
  284MOL0     N37407   4.385   0.461   9.871 -0.4946 -0.4367  0.5065
  284MOL0     C37408   5.699   0.897  10.341  0.3282  0.7477  0.2851
  284MOL0     C37409   5.812   0.913  10.416  0.0426 -0.4997 -0.8613
  284MOL0     C37410   6.214   0.883  10.589 -0.1897 -0.6134 -0.4532
  284MOL0     C37411   6.303   0.989  10.586  0.3586 -0.3130  0.3837
  284MOL0     C37412   6.415   0.998  10.676  0.1103 -0.2941  0.2211
  284MOL0     C37413   6.433   0.906  10.780  0.5708 -0.5600  0.5272
  284MOL0     O37414   6.525   0.921  10.877 -0.4811 -0.6584 -0.4071
  284MOL0     C37415   6.629   1.015  10.862 -0.5964 -1.0550 -0.3451
  284MOL0     C37416   6.750   0.978  10.944  0.5667 -0.0861  0.1817
  284MOL0     C37417   6.774   1.032  11.081  0.3807 -0.6566 -0.3582
  284MOL0     C37418   6.914   0.991  11.138  0.4058 -0.2352 -0.2028
  284MOL0     C37419   6.945   1.063  11.257  0.4308 -0.2041 -0.8132
  284MOL0     C37420   6.984   1.150  11.337  0.3282  0.1456 -0.1958
  284MOL0     C37421   6.346   0.801  10.788  0.4522  0.3475 -0.2696
  284MOL0     C37422   6.239   0.795  10.702  0.3808  0.9198  0.6020
  284MOL0     H37423   5.846   0.613  10.550  0.7613  0.2162 -0.8490
  284MOL0     H37424   5.627   0.578  10.438 -0.1409 -0.0088  0.4531
  284MOL0     H37425   5.385   0.621  10.364  0.1077  0.8808  0.1634
  284MOL0     H37426   5.489   0.572  10.226  2.1806  1.2090  0.2456
  284MOL0     H37427   5.366   0.703  10.068  1.7008  0.2138 -0.0390
  284MOL0     H37428   5.279   0.779  10.192 -1.6667 -0.5390  0.1696
  284MOL0     H37429   5.169   0.583  10.261  2.0801  1.7048  0.6106
  284MOL0     H37430   5.218   0.494  10.116 -0.0279 -0.8951 -0.0273
  284MOL0     H37431   5.049   0.749  10.116  0.9544 -1.4842  2.9014
  284MOL0     H37432   5.094   0.661   9.967  0.7226  0.5182 -1.0538
  284MOL0     H37433   4.951   0.518  10.182  1.1997 -0.9845 -0.1565
  284MOL0     H37434   4.988   0.469  10.020 -1.2712  0.1967 -0.7640
  284MOL0     H37435   4.852   0.679   9.939 -1.5363  0.2975  0.2038
  284MOL0     H37436   4.789   0.666  10.106 -0.1926 -2.5208  1.6756
  284MOL0     H37437   4.781   0.436   9.903 -1.3056 -0.7409  0.5767
  284MOL0     H37438   4.702   0.440  10.065 -2.7397 -0.1305 -0.6676
  284MOL0     H37439   4.620   0.617   9.835 -0.2392  0.4045  0.3414
  284MOL0     H37440   4.559   0.614  10.002 -0.5503  0.0102 -0.8924
  284MOL0     H37441   4.643   0.264   9.820 -0.5631  0.2280  1.1713
  284MOL0     H37442   4.518   0.148   9.636 -1.3271 -2.5386 -0.8363
  284MOL0     H37443   4.353   0.164   9.605  0.4408 -0.5795 -1.0582
  284MOL0     H37444   4.493   0.014   9.828  1.0250  0.2478 -0.3881
  284MOL0     H37445   4.381  -0.051   9.707  1.5200 -0.5048  0.1657
  284MOL0     H37446   4.283  -0.050   9.931 -1.1556  0.1436  1.0054
  284MOL0     H37447   4.311   0.119   9.952  1.5683  1.6631 -2.1109
  284MOL0     H37448   4.157   0.025   9.709 -0.1638 -2.5197  1.0393
  284MOL0     H37449   4.158   0.185   9.799  2.5299 -0.2900 -0.8836
  284MOL0     H37450   3.966   0.088   9.605  0.0326 -0.1631  0.4063
  284MOL0     H37451   3.746   0.140   9.542  0.6827 -0.2997 -0.0884
  284MOL0     H37452   3.324  -0.127   9.521 -0.7923 -0.4303 -1.7775
  284MOL0     H37453   3.086  -0.120   9.463  1.5048 -1.3459  1.2968
  284MOL0     H37454   2.849  -0.066   9.490 -2.5256 -0.8730 -0.5029
  284MOL0     H37455   2.894  -0.035   9.315 -3.1765 -0.7239 -0.2810
  284MOL0     H37456   2.656  -0.030   9.361 -2.3430  1.4119  1.3800
  284MOL0     H37457   2.713   0.134   9.320 -0.0449  1.9572  0.9543
  284MOL0     H37458   2.707   0.193   9.544 -0.0247  0.6619 -0.3523
  284MOL0     H37459   2.672   0.033   9.595  1.9109  2.1004  1.2394
  284MOL0     H37460   2.500   0.206   9.399 -0.6322 -2.1402 -1.1019
  284MOL0     H37461   2.456   0.047   9.461 -2.7250  1.4037 -0.9915
  284MOL0     H37462   2.473   0.307   9.624  1.3712 -0.7684  2.2537
  284MOL0     H37463   2.469   0.157   9.707  0.5335  1.0599 -0.0164
  284MOL0     H37464   2.270   0.090   9.569  0.6434 -0.9841  1.9451
  284MOL0     H37465   2.254   0.277   9.548  0.7566  3.0030  2.6467
  284MOL0     H37466   2.246   0.127   9.806 -2.6945 -0.8777 -0.0192
  284MOL0     H37467   2.248   0.304   9.780 -2.6311 -0.1990  2.6819
  284MOL0     H37468   2.039   0.267   9.636  3.7579  2.2135 -0.0448
  284MOL0     H37469   2.014   0.262   9.807 -0.2481  1.1591 -0.3133
  284MOL0     H37470   3.091   0.306   9.467 -2.2383 -1.7091 -1.2707
  284MOL0     H37471   3.349   0.292   9.521 -0.6575 -0.3436  0.4473
  284MOL0     H37472   3.615   0.083   9.953  0.1677 -0.4986 -0.0538
  284MOL0     H37473   3.842   0.048  10.017  1.9375 -1.7067 -0.0005
  284MOL0     H37474   5.654   0.967  10.271  0.1154  0.1105 -0.2290
  284MOL0     H37475   5.862   1.009  10.423  0.3304 -0.6872 -0.2644
  284MOL0     H37476   6.275   1.068  10.517  0.5316 -0.2116  0.4265
  284MOL0     H37477   6.475   1.088  10.667 -0.1367 -0.2674 -1.4745
  284MOL0     H37478   6.588   1.110  10.897 -0.0888 -0.1462 -2.0848
  284MOL0     H37479   6.659   1.035  10.759  1.4219  0.6230  0.5000
  284MOL0     H37480   6.745   0.869  10.947  1.9704 -0.1534  0.8084
  284MOL0     H37481   6.837   1.008  10.886  0.4128 -3.9986 -2.4755
  284MOL0     H37482   6.702   0.986  11.148  0.4311 -0.8504 -0.4370
  284MOL0     H37483   6.768   1.141  11.082  2.3906 -0.5155  0.9127
  284MOL0     H37484   6.922   0.889  11.178  0.2552  0.6744  2.3473
  284MOL0     H37485   6.993   1.006  11.064 -1.8100  0.1767 -2.6132
  284MOL0     H37486   7.022   1.214  11.414  0.2414 -2.1031  1.8560
  284MOL0     H37487   6.346   0.731  10.870  1.1549  0.3668 -0.2419
  284MOL0     H37488   6.165   0.719  10.727  0.4732  0.5008 -0.3432
  285MOL0     O37489   1.297   5.079   1.096 -0.6604 -0.0300 -0.0161
  285MOL0     C37490   1.331   5.197   1.099  0.3258  0.4021 -0.4757
  285MOL0     O37491   1.248   5.300   1.104  0.6806  0.7176 -0.8178
  285MOL0     C37492   1.114   5.275   1.104 -0.1113  0.4073  0.0232
  285MOL0     C37493   1.043   5.240   0.986  0.2606  0.1601  0.0556
  285MOL0     C37494   0.903   5.222   1.003 -0.4959 -0.3326  0.1512
  285MOL0     C37495   0.833   5.243   1.122 -0.2361  0.4486  0.5436
  285MOL0     O37496   0.703   5.227   1.156  0.3196  0.5923  0.7277
  285MOL0     C37497   0.614   5.161   1.060 -0.0894 -0.6662  0.3855
  285MOL0     C37498   0.542   5.270   0.981 -0.0106 -0.2627  0.4123
  285MOL0     C37499   0.449   5.207   0.871  0.4531  0.7535 -0.3325
  285MOL0     C37500   0.359   5.308   0.799 -0.0058  0.1172  0.9407
  285MOL0     C37501   0.273   5.262   0.678  0.2713  0.0459 -0.3930
  285MOL0     C37502   0.362   5.190   0.580  0.2666 -0.8803 -0.5297
  285MOL0     C37503   0.288   5.160   0.450  0.4556  0.8730  1.0264
  285MOL0     C37504   0.386   5.111   0.335 -0.0516 -0.1311  0.3059
  285MOL0     N37505   0.299   5.064   0.223 -0.1014 -0.8183  0.1495
  285MOL0     C37506   0.193   5.127   0.164 -0.5894 -0.2235  0.2845
  285MOL0     C37507   0.155   5.038   0.064  0.4171 -0.5689  0.1290
  285MOL0     C37508   0.055   5.067  -0.041 -0.2384 -0.7211  0.6521
  285MOL0     C37509  -0.083   5.113   0.023 -0.4712  0.2518 -0.3963
  285MOL0     C37510  -0.147   5.010   0.123 -0.5911  0.0926 -0.5042
  285MOL0     C37511  -0.296   5.030   0.140  0.5302  0.1309 -0.6068
  285MOL0     O37512  -0.319   5.142   0.225  0.4962  0.4742 -0.1887
  285MOL0     C37513  -0.452   5.163   0.264  1.3613 -0.1784 -0.6244
  285MOL0     C37514  -0.562   5.085   0.220 -0.0233  0.4847  0.3502
  285MOL0     C37515  -0.691   5.117   0.257 -0.6059  0.3034  0.0187
  285MOL0     C37516  -0.709   5.232   0.340  0.0541  0.5554 -0.4373
  285MOL0     C37517  -0.850   5.268   0.370 -0.5215 -0.1008  0.4015
  285MOL0     O37518  -0.939   5.206   0.291 -0.3500 -0.1281 -0.0737
  285MOL0     C37519  -1.076   5.219   0.310 -0.4345 -0.4622  0.8636
  285MOL0     C37520  -1.143   5.338   0.277 -1.1809  0.3124  0.0007
  285MOL0     C37521  -1.278   5.342   0.289  0.3475  0.7853  0.1206
  285MOL0     C37522  -1.360   5.228   0.320 -0.6751  0.0535  0.1292
  285MOL0     O37523  -1.501   5.221   0.325 -0.3750 -0.6631  0.5178
  285MOL0     C37524  -1.553   5.250   0.194  0.1334  0.1063 -0.3800
  285MOL0     C37525  -1.694   5.247   0.213  0.9091 -0.8537 -0.0478
  285MOL0     C37526  -1.775   5.357   0.285 -0.6492 -0.2839 -0.0474
  285MOL0     C37527  -1.915   5.316   0.324  0.4005  0.3002 -0.2123
  285MOL0     C37528  -1.933   5.296   0.473 -0.2564 -0.3967  0.6109
  285MOL0     C37529  -2.046   5.195   0.516 -0.0437  0.4198  0.0090
  285MOL0     C37530  -2.180   5.230   0.466 -0.5110  0.3591  0.7113
  285MOL0     C37531  -2.255   5.353   0.494 -0.6679 -0.3061 -0.7057
  285MOL0    Cl37532  -2.360   5.397   0.357 -0.4048  0.1057  0.3235
  285MOL0     C37533  -1.299   5.106   0.339 -0.1581  0.7009  0.3871
  285MOL0     C37534  -1.158   5.106   0.339  0.4538  0.1838 -0.0094
  285MOL0     O37535  -0.881   5.352   0.456 -0.5218  0.2515 -0.1365
  285MOL0     C37536  -0.603   5.303   0.392  0.6684  0.4299 -0.0809
  285MOL0     C37537  -0.478   5.267   0.355 -0.4490 -0.0274  0.1816
  285MOL0     N37538   0.233   4.930   0.070 -0.7906  0.7643 -0.3037
  285MOL0     N37539   0.320   4.942   0.167 -0.5181 -0.3087  0.5224
  285MOL0     C37540   0.908   5.293   1.230  0.5148 -0.3342 -0.0018
  285MOL0     C37541   1.041   5.301   1.223 -0.2775  0.2628 -0.7405
  285MOL0     C37542   1.468   5.236   1.087 -0.8510  0.0328  1.3631
  285MOL0     C37543   1.570   5.137   1.094 -0.0957  0.0691  0.2715
  285MOL0     C37544   1.702   5.164   1.066 -0.1392  0.4461 -0.0682
  285MOL0     C37545   1.743   5.296   1.056 -0.0098 -0.4003  0.6156
  285MOL0     O37546   1.886   5.310   1.033 -0.2069 -0.0994  0.0781
  285MOL0     C37547   1.950   5.428   1.065 -0.3109  0.2884  0.2704
  285MOL0     C37548   1.972   5.452   1.210 -0.6092 -0.6474  0.1938
  285MOL0     C37549   2.088   5.368   1.266  0.6590  0.2198  0.5117
  285MOL0     C37550   2.074   5.360   1.415  0.1428  0.2153  0.5733
  285MOL0     C37551   2.087   5.480   1.497 -0.5691  0.1947 -0.0592
  285MOL0     C37552   2.103   5.585   1.562 -0.1928  0.0364 -0.4912
  285MOL0     C37553   1.644   5.394   1.064  0.9020  0.5815 -0.3948
  285MOL0     C37554   1.504   5.369   1.071 -0.2325 -0.0036 -0.4452
  285MOL0     H37555   1.094   5.227   0.891  3.2557  4.4255  0.7861
  285MOL0     H37556   0.835   5.183   0.928 -0.8602  1.9825 -0.8234
  285MOL0     H37557   0.541   5.094   1.107 -0.4557 -0.0465  0.7222
  285MOL0     H37558   0.671   5.096   0.994 -0.3056 -0.9424  0.4686
  285MOL0     H37559   0.618   5.338   0.942 -0.3665  0.2158  0.5444
  285MOL0     H37560   0.483   5.337   1.044  0.0852  0.0434  0.1800
  285MOL0     H37561   0.397   5.120   0.913 -1.6664  0.1854 -3.6969
  285MOL0     H37562   0.516   5.164   0.795  0.5862 -1.2706  0.8550
  285MOL0     H37563   0.296   5.355   0.876  2.5163  1.1288  2.5160
  285MOL0     H37564   0.423   5.387   0.759  3.3974 -2.7098  0.3148
  285MOL0     H37565   0.222   5.351   0.639 -0.3665 -0.8940 -1.8022
  285MOL0     H37566   0.187   5.201   0.708 -0.5831  1.1577 -0.5353
  285MOL0     H37567   0.386   5.093   0.625 -0.4595 -0.9367 -0.2512
  285MOL0     H37568   0.451   5.252   0.572  0.0100 -0.6450 -1.9926
  285MOL0     H37569   0.214   5.082   0.468  2.6860 -1.9141 -1.0003
  285MOL0     H37570   0.230   5.248   0.420 -3.5183 -1.8752 -0.1035
  285MOL0     H37571   0.453   5.029   0.361 -0.8875 -1.2699 -1.0028
  285MOL0     H37572   0.452   5.195   0.314 -1.1511  1.0066  1.1931
  285MOL0     H37573   0.146   5.224   0.180 -0.8017 -0.0243 -1.4033
  285MOL0     H37574   0.021   4.982  -0.101 -2.3226  3.0591 -4.1994
  285MOL0     H37575   0.080   5.140  -0.118 -1.5359 -0.7210  0.2082
  285MOL0     H37576  -0.153   5.124  -0.060 -1.2577 -0.1605  0.2088
  285MOL0     H37577  -0.069   5.210   0.071  1.6932 -0.3909  0.4006
  285MOL0     H37578  -0.124   4.910   0.085 -1.5513 -0.0415 -0.7568
  285MOL0     H37579  -0.108   5.025   0.225 -0.4327 -2.0574 -0.2090
  285MOL0     H37580  -0.335   4.939   0.186 -0.4350  1.1579  0.6746
  285MOL0     H37581  -0.343   5.033   0.041 -1.2872 -2.2802  0.0787
  285MOL0     H37582  -0.556   5.003   0.148 -1.3952  0.2317  0.4977
  285MOL0     H37583  -0.774   5.052   0.230 -0.0479 -1.0340  1.3350
  285MOL0     H37584  -1.085   5.422   0.241 -2.1877  0.4116 -1.4918
  285MOL0     H37585  -1.328   5.430   0.251 -0.2662  0.8848  1.1373
  285MOL0     H37586  -1.514   5.179   0.121  1.8599  0.4984  0.1076
  285MOL0     H37587  -1.527   5.352   0.162 -2.8068  1.1032  0.0914
  285MOL0     H37588  -1.722   5.147   0.248 -4.0508  0.5886  0.8677
  285MOL0     H37589  -1.729   5.249   0.109 -0.0917 -0.4161  0.2899
  285MOL0     H37590  -1.776   5.446   0.223 -1.5545  0.3869  0.8853
  285MOL0     H37591  -1.719   5.384   0.375 -0.8458  0.7700 -0.2397
  285MOL0     H37592  -1.987   5.388   0.285 -2.6135 -1.6696  1.3324
  285MOL0     H37593  -1.929   5.220   0.273  0.9209 -0.8086  1.6322
  285MOL0     H37594  -1.944   5.390   0.527 -2.0139  0.0091 -0.3690
  285MOL0     H37595  -1.846   5.259   0.529  0.9499  1.6265  0.1883
  285MOL0     H37596  -2.056   5.179   0.624 -1.5990  2.7544  0.2811
  285MOL0     H37597  -2.019   5.098   0.471 -0.4355  0.1852  0.2723
  285MOL0     H37598  -2.169   5.226   0.357 -0.2490  1.6211  0.6792
  285MOL0     H37599  -2.244   5.142   0.479  0.2028  0.0024  2.0060
  285MOL0     H37600  -2.192   5.442   0.509 -1.6309  0.0251  2.0396
  285MOL0     H37601  -2.314   5.343   0.586  0.2134 -3.6233 -0.3694
  285MOL0     H37602  -1.354   5.016   0.366 -0.8465  0.9535 -0.1616
  285MOL0     H37603  -1.120   5.007   0.362 -1.8142 -1.1230 -1.6065
  285MOL0     H37604  -0.627   5.390   0.452 -2.4395 -0.0755 -0.4480
  285MOL0     H37605  -0.388   5.320   0.386 -1.6200  1.4646  1.1881
  285MOL0     H37606   0.857   5.307   1.325 -1.9886 -0.6413 -1.2035
  285MOL0     H37607   1.100   5.341   1.305  0.1788 -2.8109  0.5478
  285MOL0     H37608   1.550   5.031   1.106 -3.2691  0.3008 -1.7793
  285MOL0     H37609   1.786   5.095   1.061  0.5865  0.8722  3.2944
  285MOL0     H37610   1.898   5.515   1.022  0.1348  0.7149  0.5792
  285MOL0     H37611   2.049   5.436   1.020 -0.2842  1.5658  0.5009
  285MOL0     H37612   1.988   5.555   1.243 -3.3544 -0.3663  0.8796
  285MOL0     H37613   1.877   5.427   1.259 -2.2097 -0.3231 -2.5412
  285MOL0     H37614   2.189   5.401   1.240  0.4089 -0.9813 -2.3034
  285MOL0     H37615   2.078   5.268   1.225  0.2183  0.7676 -0.7650
  285MOL0     H37616   1.979   5.312   1.441  0.0501  0.0481 -0.0798
  285MOL0     H37617   2.152   5.288   1.439  1.4370  0.8427 -1.5107
  285MOL0     H37618   2.131   5.666   1.626 -4.7756  2.8777 -1.5951
  285MOL0     H37619   1.675   5.497   1.049 -1.4900  1.7055  1.6490
  285MOL0     H37620   1.427   5.445   1.064 -1.1161 -0.1636  4.3882
  286MOL0     O37621   8.283   5.307   1.933  0.0635 -0.1561 -0.1982
  286MOL0     C37622   8.259   5.190   1.897  0.4948 -0.0595 -0.3177
  286MOL0     O37623   8.137   5.139   1.884  0.1642  0.1153  0.1102
  286MOL0     C37624   8.018   5.208   1.910 -0.1173  0.6105 -0.6004
  286MOL0     C37625   7.902   5.154   1.857 -0.3530  0.0316 -0.3961
  286MOL0     C37626   7.776   5.218   1.876 -0.8606 -0.2972 -0.1013
  286MOL0     C37627   7.766   5.327   1.965  0.8641 -0.0122  0.3050
  286MOL0     O37628   7.649   5.389   2.008  0.1940 -0.2359  0.6292
  286MOL0     C37629   7.524   5.326   1.961 -0.3385 -0.4416  0.2665
  286MOL0     C37630   7.407   5.409   2.016  0.3702  0.5444 -0.1150
  286MOL0     C37631   7.271   5.360   1.972 -0.7235  0.0710 -0.0064
  286MOL0     C37632   7.249   5.395   1.825  0.0765 -0.4537  0.1048
  286MOL0     C37633   7.096   5.383   1.797  0.6493  0.5462  0.5470
  286MOL0     C37634   7.089   5.392   1.650 -0.1634  0.3249  0.0570
  286MOL0     C37635   6.945   5.369   1.593  0.1815  0.2461 -0.2533
  286MOL0     C37636   6.952   5.391   1.447  0.0491  0.4568 -0.2597
  286MOL0     N37637   6.830   5.359   1.381 -0.2189 -0.3760 -0.3979
  286MOL0     C37638   6.746   5.262   1.410 -0.1966 -0.0643  0.2047
  286MOL0     C37639   6.646   5.279   1.324 -0.1295 -0.0914 -0.2639
  286MOL0     C37640   6.517   5.202   1.301  0.5045 -0.6226 -0.5039
  286MOL0     C37641   6.538   5.066   1.239 -0.8806  0.9128 -0.3599
  286MOL0     C37642   6.616   4.969   1.337  0.3508  0.6067  0.3171
  286MOL0     C37643   6.632   4.834   1.269 -0.1599  0.5923  0.1998
  286MOL0     O37644   6.508   4.755   1.292 -0.5460  0.0288  0.7137
  286MOL0     C37645   6.475   4.659   1.196  0.0792  0.3480  0.5970
  286MOL0     C37646   6.574   4.588   1.124 -0.4922 -0.2190  0.0530
  286MOL0     C37647   6.532   4.498   1.028 -0.5718  1.0666 -1.0112
  286MOL0     C37648   6.399   4.482   0.997 -0.0913 -0.0661 -0.2427
  286MOL0     C37649   6.364   4.384   0.897 -0.0764  0.0115 -0.4254
  286MOL0     O37650   6.230   4.339   0.891 -0.2477  0.0155  0.0674
  286MOL0     C37651   6.203   4.258   0.783  1.0343  0.1912 -0.2510
  286MOL0     C37652   6.225   4.302   0.651 -0.5093  0.4627  0.1778
  286MOL0     C37653   6.181   4.225   0.545  0.4248  1.0036  0.5501
  286MOL0     C37654   6.098   4.118   0.562  0.0866 -0.3898  0.0199
  286MOL0     O37655   6.052   4.059   0.451  0.2010 -0.6795 -0.1359
  286MOL0     C37656   5.944   3.961   0.472  0.4283  1.2954 -0.1473
  286MOL0     C37657   5.896   3.920   0.334  0.6023 -0.7936 -0.9806
  286MOL0     C37658   6.011   3.863   0.252 -0.2793 -0.1685 -0.1627
  286MOL0     C37659   5.953   3.799   0.123  0.3019  0.2188 -0.0684
  286MOL0     C37660   5.882   3.903   0.031 -0.2008  0.1799  0.3837
  286MOL0     C37661   5.957   4.019  -0.029  0.2568  0.0368  0.4122
  286MOL0     C37662   6.083   3.976  -0.103  0.2735  0.0050 -0.1205
  286MOL0     C37663   6.168   4.096  -0.136  1.1631 -0.4354  0.1141
  286MOL0    Cl37664   6.081   4.215  -0.232  0.2828  0.0784  0.2320
  286MOL0     C37665   6.069   4.080   0.692  0.1138  0.0397 -0.0643
  286MOL0     C37666   6.118   4.154   0.802 -0.0160 -0.1571 -0.5952
  286MOL0     O37667   6.459   4.331   0.836  0.9059  0.0239 -0.5789
  286MOL0     C37668   6.304   4.544   1.072 -0.4660 -0.5335 -0.4157
  286MOL0     C37669   6.344   4.630   1.177  0.3585 -0.0759 -0.5022
  286MOL0     N37670   6.665   5.393   1.247 -0.7595  0.1991  0.3084
  286MOL0     N37671   6.774   5.447   1.292  1.0891  1.1091 -0.7859
  286MOL0     C37672   7.884   5.366   2.034  0.1371 -0.0285  0.3741
  286MOL0     C37673   8.004   5.313   2.004 -0.0442  0.1506  0.0899
  286MOL0     C37674   8.385   5.107   1.885 -0.1547  0.1204  0.5408
  286MOL0     C37675   8.515   5.165   1.877  0.9010 -0.4728  0.3687
  286MOL0     C37676   8.625   5.094   1.837  0.8120  0.4800  0.7845
  286MOL0     C37677   8.618   4.962   1.804  0.3454 -0.3868 -0.3264
  286MOL0     O37678   8.732   4.898   1.763 -0.2806 -0.0075  0.2956
  286MOL0     C37679   8.721   4.767   1.705 -0.3747 -0.7873 -0.4643
  286MOL0     C37680   8.841   4.754   1.616  0.5585 -1.0358 -0.3969
  286MOL0     C37681   8.836   4.865   1.518 -0.1538 -0.5203 -0.1703
  286MOL0     C37682   8.917   4.847   1.392 -0.2086 -0.1207  0.0855
  286MOL0     C37683   8.910   4.968   1.301  0.5048  0.3207 -0.5842
  286MOL0     C37684   8.922   5.061   1.230 -0.2528 -0.1196  0.2153
  286MOL0     C37685   8.498   4.900   1.821  0.3206 -0.2659  0.8692
  286MOL0     C37686   8.381   4.973   1.861 -0.1364  1.2194 -0.2986
  286MOL0     H37687   7.916   5.079   1.780  1.6062  1.4899 -1.5800
  286MOL0     H37688   7.691   5.178   1.822 -0.6542 -1.9557  0.7438
  286MOL0     H37689   7.511   5.228   2.007  0.5701 -0.3351  0.7820
  286MOL0     H37690   7.513   5.311   1.853  0.1630  1.2617 -0.0593
  286MOL0     H37691   7.424   5.510   1.978  2.6279 -0.1224 -1.1064
  286MOL0     H37692   7.422   5.407   2.124 -2.0236 -0.2335  0.2422
  286MOL0     H37693   7.189   5.410   2.025 -1.7377 -1.1386 -0.3811
  286MOL0     H37694   7.247   5.255   1.987 -1.5105 -0.0070 -1.5662
  286MOL0     H37695   7.286   5.494   1.798  0.3164 -0.0173  1.8921
  286MOL0     H37696   7.303   5.316   1.771  0.0751  0.5079 -1.3574
  286MOL0     H37697   7.025   5.459   1.831  2.1308  1.8325  0.8777
  286MOL0     H37698   7.079   5.286   1.843 -0.3636  1.0153  1.1852
  286MOL0     H37699   7.161   5.324   1.604  1.2901  0.3930  2.1106
  286MOL0     H37700   7.124   5.492   1.624  1.1330 -0.5535 -1.8573
  286MOL0     H37701   6.918   5.265   1.612 -1.5938  0.8771  0.8701
  286MOL0     H37702   6.870   5.436   1.635 -1.8581 -0.9586 -1.8111
  286MOL0     H37703   7.031   5.337   1.394  1.1520 -0.0792  1.8094
  286MOL0     H37704   6.964   5.498   1.428  1.2657  0.1237 -1.4533
  286MOL0     H37705   6.751   5.179   1.480 -0.5329 -2.4895 -2.4733
  286MOL0     H37706   6.463   5.267   1.232  1.3413  2.3901  1.4442
  286MOL0     H37707   6.459   5.199   1.394  0.1226  2.0051 -0.5792
  286MOL0     H37708   6.590   5.086   1.144 -0.6481 -3.1503 -1.3081
  286MOL0     H37709   6.440   5.026   1.210 -0.1680 -0.0552 -1.5879
  286MOL0     H37710   6.719   5.007   1.337  0.3847  0.6365 -1.5949
  286MOL0     H37711   6.573   4.958   1.437 -0.3741 -1.6617 -0.1863
  286MOL0     H37712   6.718   4.787   1.318 -0.6106 -1.0466 -0.4915
  286MOL0     H37713   6.652   4.858   1.164 -0.8131  1.0641  0.1795
  286MOL0     H37714   6.679   4.598   1.148 -0.2226 -0.7414 -0.8757
  286MOL0     H37715   6.610   4.459   0.964  1.3883  4.4407 -0.9358
  286MOL0     H37716   6.283   4.393   0.640  1.7435 -0.8658  0.2773
  286MOL0     H37717   6.183   4.259   0.442 -0.8947  2.2288  0.9065
  286MOL0     H37718   5.865   4.011   0.530  2.5969  1.4783  2.9062
  286MOL0     H37719   5.979   3.876   0.531 -1.2372  1.7415  1.5831
  286MOL0     H37720   5.847   4.004   0.283  3.0394 -0.7377 -3.4936
  286MOL0     H37721   5.817   3.846   0.353 -0.3746  0.8165  1.7818
  286MOL0     H37722   6.075   3.794   0.308  1.4274  0.4540 -1.2608
  286MOL0     H37723   6.073   3.948   0.223 -1.1496  0.7697  0.6482
  286MOL0     H37724   6.031   3.747   0.066  0.7502  1.9280 -1.1006
  286MOL0     H37725   5.875   3.725   0.143 -0.4580  0.5414 -1.6193
  286MOL0     H37726   5.789   3.935   0.079 -0.3896 -1.7592  1.4086
  286MOL0     H37727   5.857   3.846  -0.060  1.8214  0.1431 -0.2026
  286MOL0     H37728   5.986   4.091   0.048  1.0952 -1.5350  1.6412
  286MOL0     H37729   5.893   4.073  -0.100  1.4925 -0.3567 -1.0358
  286MOL0     H37730   6.144   3.904  -0.048  2.4633 -0.7865 -3.2777
  286MOL0     H37731   6.047   3.934  -0.197 -1.3461  0.6630  0.1669
  286MOL0     H37732   6.259   4.071  -0.191  2.3104  1.7808  0.8574
  286MOL0     H37733   6.207   4.144  -0.045 -0.1836  2.0128 -0.5068
  286MOL0     H37734   6.004   3.996   0.717 -1.8287  2.1978  2.7695
  286MOL0     H37735   6.091   4.115   0.899  0.2371  0.6246 -0.2052
  286MOL0     H37736   6.197   4.528   1.063 -0.6133 -0.6342  1.3282
  286MOL0     H37737   6.267   4.684   1.231 -0.2813 -1.5904  0.1767
  286MOL0     H37738   7.868   5.437   2.115 -0.4412  0.0869  0.1606
  286MOL0     H37739   8.092   5.350   2.056 -1.2172  1.5479  1.1553
  286MOL0     H37740   8.538   5.267   1.905  2.4105 -1.1201  1.6444
  286MOL0     H37741   8.721   5.144   1.843  1.5128 -0.3719 -1.8151
  286MOL0     H37742   8.635   4.756   1.639 -1.4733  0.1223  0.7604
  286MOL0     H37743   8.718   4.692   1.785 -0.6635 -2.1102 -1.6639
  286MOL0     H37744   8.932   4.763   1.675 -0.0608  2.1467  0.2692
  286MOL0     H37745   8.853   4.663   1.557 -0.9328 -1.4420 -0.1255
  286MOL0     H37746   8.858   4.958   1.572 -1.5723 -1.1558  1.5915
  286MOL0     H37747   8.731   4.878   1.490 -0.1755 -1.1804 -0.4189
  286MOL0     H37748   9.018   4.831   1.429  0.4696  1.3807 -1.0022
  286MOL0     H37749   8.872   4.760   1.343 -0.4662  0.8116 -1.4074
  286MOL0     H37750   8.944   5.144   1.165  1.9872  1.6792  3.0349
  286MOL0     H37751   8.489   4.793   1.809  1.6464 -0.1538 -2.3173
  286MOL0     H37752   8.287   4.919   1.863 -0.3059  1.5297  1.0124
  287MOL0     O37753   4.370  10.834   9.882 -0.4983 -0.0925  0.0900
  287MOL0     C37754   4.454  10.864   9.787  0.2766 -0.5488  0.3751
  287MOL0     O37755   4.417  10.874   9.657 -0.4923  0.0934  0.0158
  287MOL0     C37756   4.289  10.841   9.618 -0.0817  0.3008  0.3504
  287MOL0     C37757   4.275  10.717   9.545  0.2902 -0.0206  0.3738
  287MOL0     C37758   4.156  10.684   9.481 -0.3235 -0.3342  0.4175
  287MOL0     C37759   4.045  10.766   9.506 -0.5882 -0.7506  0.7712
  287MOL0     O37760   3.924  10.733   9.441 -0.0957 -0.1703 -1.4420
  287MOL0     C37761   3.902  10.602   9.406  0.2004 -0.2739  0.5507
  287MOL0     C37762   3.743  10.596   9.384  0.5877 -0.0762 -0.0730
  287MOL0     C37763   3.690  10.460   9.321 -0.1505 -0.3288  0.4478
  287MOL0     C37764   3.542  10.491   9.305  0.0937  0.8747  0.9842
  287MOL0     C37765   3.481  10.382   9.208 -0.2005 -0.3289 -0.0243
  287MOL0     C37766   3.338  10.402   9.178  0.0068  0.5617 -0.1305
  287MOL0     C37767   3.251  10.274   9.166 -0.0863 -0.2111  0.1179
  287MOL0     C37768   3.257  10.211   9.027  0.4812 -0.6278 -0.9734
  287MOL0     N37769   3.145  10.121   9.010 -0.2832 -1.2694  0.8020
  287MOL0     C37770   3.022  10.152   8.958 -0.2761 -0.4174  0.2788
  287MOL0     C37771   2.959  10.036   8.954 -0.7303  0.9433 -0.0185
  287MOL0     C37772   2.820  10.000   8.906 -0.4516 -0.5258 -0.3159
  287MOL0     C37773   2.715  10.066   9.000  0.0437  0.2246 -0.6156
  287MOL0     C37774   2.577  10.064   8.922 -0.6860 -0.1854  0.1815
  287MOL0     C37775   2.459  10.098   9.012 -0.0322  0.1620  0.0883
  287MOL0     O37776   2.447  10.245   9.032 -0.2331  0.4184  0.0437
  287MOL0     C37777   2.330  10.303   9.070  0.1892  0.5763 -0.2055
  287MOL0     C37778   2.204  10.231   9.094 -1.0026  0.5353  0.3010
  287MOL0     C37779   2.092  10.296   9.152 -0.0535  0.1329 -0.2645
  287MOL0     C37780   2.098  10.434   9.182 -0.5694  1.5485  0.5861
  287MOL0     C37781   1.984  10.509   9.245  0.2371 -0.2371 -0.1417
  287MOL0     O37782   2.001  10.636   9.285 -0.0421  0.3974  1.1054
  287MOL0     C37783   1.882  10.707   9.279 -0.4239  1.0958  0.0331
  287MOL0     C37784   1.793  10.693   9.385  0.5357 -0.4893 -0.8596
  287MOL0     C37785   1.682  10.783   9.386 -1.1900  0.1768 -0.2795
  287MOL0     C37786   1.655  10.874   9.289  0.1827  0.2179  0.0787
  287MOL0     O37787   1.531  10.932   9.296 -0.1724  0.8545 -0.0809
  287MOL0     C37788   1.440  10.899   9.190 -0.4920 -0.2434 -0.3733
  287MOL0     C37789   1.294  10.901   9.227 -0.2522  0.0318 -0.1927
  287MOL0     C37790   1.204  10.843   9.110  0.2554 -0.3482  0.4808
  287MOL0     C37791   1.056  10.833   9.159 -0.3038  0.4274 -0.0939
  287MOL0     C37792   0.983  10.748   9.058 -0.0643  0.5606  0.2032
  287MOL0     C37793   0.816  10.743   9.084  0.5454  0.1531  0.0938
  287MOL0     C37794   0.803  10.709   9.237  0.5596  0.6158 -0.2098
  287MOL0     C37795   0.664  10.649   9.261  0.8824 -0.0512 -0.6193
  287MOL0    Cl37796   0.648  10.564   9.423  0.1457 -0.2065  0.3124
  287MOL0     C37797   1.742  10.870   9.176  0.2740 -1.2568  0.2759
  287MOL0     C37798   1.855  10.790   9.174 -0.0080  0.1037 -0.5371
  287MOL0     O37799   1.879  10.444   9.259 -0.1041 -0.8391 -0.1012
  287MOL0     C37800   2.217  10.505   9.156  0.6672  0.0611  0.4033
  287MOL0     C37801   2.332  10.439   9.101  0.0319 -0.3683  0.6813
  287MOL0     N37802   3.035   9.940   9.004 -0.5708 -0.3593  0.0382
  287MOL0     N37803   3.144   9.993   9.040 -0.4735  0.0693 -0.2386
  287MOL0     C37804   4.060  10.892   9.567  0.1133  0.5434 -0.4232
  287MOL0     C37805   4.181  10.929   9.624  0.3021  0.2672 -0.1855
  287MOL0     C37806   4.592  10.888   9.822 -0.0765 -0.1594 -0.7663
  287MOL0     C37807   4.638  10.893   9.957  0.6665 -0.2547  0.1603
  287MOL0     C37808   4.775  10.930   9.994 -0.0074 -0.3215  0.0786
  287MOL0     C37809   4.867  10.942   9.891  0.1542  0.6144  0.4862
  287MOL0     O37810   5.005  10.958   9.906 -0.9946  0.4445 -0.3032
  287MOL0     C37811   5.064  10.938  10.039  0.0646  0.1090  0.1889
  287MOL0     C37812   5.220  10.893  10.044  0.2217  0.2676  0.2665
  287MOL0     C37813   5.274  10.885  10.188 -0.1155  1.0957  0.1324
  287MOL0     C37814   5.270  11.019  10.262 -0.6612  0.1978  0.1496
  287MOL0     C37815   5.403  11.054  10.317  0.3279 -0.6341 -0.2581
  287MOL0     C37816   5.507  11.091  10.364 -0.9388 -0.4711  0.6884
  287MOL0     C37817   4.824  10.931   9.758 -0.1165 -1.0179 -0.2729
  287MOL0     C37818   4.691  10.913   9.726 -0.0758  0.9807 -0.5097
  287MOL0     H37819   4.363  10.655   9.538 -0.8364 -1.8417  1.5037
  287MOL0     H37820   4.147  10.599   9.414  0.1677  1.1473 -1.6581
  287MOL0     H37821   3.933  10.522   9.474 -1.3998 -0.5166  1.0356
  287MOL0     H37822   3.957  10.591   9.312  1.7094  3.2196  0.8761
  287MOL0     H37823   3.719  10.676   9.314 -0.2002  0.0439  0.3341
  287MOL0     H37824   3.691  10.621   9.477  0.8366 -0.9668  0.3127
  287MOL0     H37825   3.717  10.381   9.392  1.7729  0.2921  0.4829
  287MOL0     H37826   3.736  10.432   9.225  1.8631 -0.8400  1.4994
  287MOL0     H37827   3.495  10.481   9.404  1.4465 -0.1397  1.5515
  287MOL0     H37828   3.519  10.590   9.264 -1.8683 -0.4861 -1.4804
  287MOL0     H37829   3.487  10.279   9.244 -2.5848 -1.7291 -3.2179
  287MOL0     H37830   3.526  10.380   9.109 -1.6240 -2.7803 -0.7056
  287MOL0     H37831   3.326  10.475   9.098 -0.0352  2.7952  1.7920
  287MOL0     H37832   3.302  10.462   9.263  1.7928  0.6402  0.6225
  287MOL0     H37833   3.278  10.201   9.243 -1.7501 -0.8846  0.1037
  287MOL0     H37834   3.151  10.310   9.192  0.0775  1.5431 -1.4661
  287MOL0     H37835   3.355  10.163   9.016 -0.5214 -2.8718 -0.6987
  287MOL0     H37836   3.235  10.291   8.955  1.8450 -0.6628 -1.4538
  287MOL0     H37837   2.991  10.247   8.916  3.8272  1.4243  0.9455
  287MOL0     H37838   2.808   9.891   8.902 -0.8712 -0.4676 -0.7049
  287MOL0     H37839   2.812  10.043   8.806  0.7511 -1.6476 -0.9341
  287MOL0     H37840   2.749  10.168   9.020  0.1125  1.0874 -4.3752
  287MOL0     H37841   2.706  10.013   9.095  1.4491  1.9891  0.5711
  287MOL0     H37842   2.573  10.131   8.835 -2.0088  0.8558  0.9936
  287MOL0     H37843   2.552   9.964   8.886 -0.2049 -0.3490  0.2931
  287MOL0     H37844   2.480  10.048   9.107 -0.8571 -0.1710  0.1030
  287MOL0     H37845   2.367  10.067   8.962  0.8528 -1.9671 -0.3322
  287MOL0     H37846   2.203  10.124   9.081 -0.0796  0.8519 -3.7584
  287MOL0     H37847   2.003  10.238   9.172  1.3431 -1.5791  1.3506
  287MOL0     H37848   1.801  10.618   9.463 -1.2331  3.0365  3.0706
  287MOL0     H37849   1.615  10.763   9.469  0.3480 -2.1602  0.5024
  287MOL0     H37850   1.469  10.800   9.155 -0.2194 -1.0232  1.9033
  287MOL0     H37851   1.458  10.965   9.105 -0.3498 -1.4666 -1.3267
  287MOL0     H37852   1.259  11.003   9.245  2.2847  1.3578 -2.1827
  287MOL0     H37853   1.285  10.840   9.318  1.9177 -1.1136 -0.7029
  287MOL0     H37854   1.243  10.746   9.078 -1.4383 -0.6688 -0.7224
  287MOL0     H37855   1.221  10.906   9.022 -0.9290 -0.2858  0.2871
  287MOL0     H37856   1.056  10.795   9.261  3.4391  0.4525  0.0409
  287MOL0     H37857   1.016  10.935   9.156 -3.0533 -0.5942 -2.0884
  287MOL0     H37858   1.010  10.642   9.066 -0.6152  0.5025  1.6129
  287MOL0     H37859   0.986  10.788   8.956  2.5139  2.9487  1.0857
  287MOL0     H37860   0.779  10.674   9.009  1.4651  2.5852 -2.7801
  287MOL0     H37861   0.765  10.837   9.060  0.1593 -0.2857 -0.8271
  287MOL0     H37862   0.878  10.645   9.284  0.9562  0.7184 -0.6980
  287MOL0     H37863   0.802  10.800   9.298 -1.4535 -1.2524  2.7958
  287MOL0     H37864   0.647  10.582   9.176  1.5240  1.3902 -1.9270
  287MOL0     H37865   0.597  10.735   9.256  0.4375 -0.3792 -0.3360
  287MOL0     H37866   1.731  10.936   9.091  1.8090  0.6829  1.4885
  287MOL0     H37867   1.939  10.808   9.108  0.9198 -0.6782  0.4111
  287MOL0     H37868   2.232  10.610   9.181  0.0192  0.0505  0.8523
  287MOL0     H37869   2.420  10.499   9.078  0.4500 -1.5616 -0.9813
  287MOL0     H37870   3.974  10.959   9.570 -0.1577  0.1668  1.3195
  287MOL0     H37871   4.190  11.032   9.657 -0.7192 -0.0506  1.1693
  287MOL0     H37872   4.561  10.870  10.030 -1.2675 -2.8382 -2.4569
  287MOL0     H37873   4.805  10.944  10.097  3.3460  2.7045 -1.0872
  287MOL0     H37874   5.005  10.863  10.091 -1.0735  1.2641  0.6068
  287MOL0     H37875   5.068  11.034  10.091  0.8663  0.0107  0.3271
  287MOL0     H37876   5.207  10.800   9.988  1.4203  1.6921 -2.5681
  287MOL0     H37877   5.287  10.957   9.985  2.2445 -1.8262  0.1209
  287MOL0     H37878   5.375  10.846  10.176  1.5964  3.6297  3.9803
  287MOL0     H37879   5.218  10.819  10.255 -0.8980  2.6499  1.0902
  287MOL0     H37880   5.247  11.095  10.187 -1.2107 -0.8920 -0.8191
  287MOL0     H37881   5.189  11.018  10.336 -2.8349  1.7772 -2.0014
  287MOL0     H37882   5.605  11.125  10.390 -0.8602 -1.5593  1.8894
  287MOL0     H37883   4.891  10.948   9.674  1.5306 -1.2955  0.9452
  287MOL0     H37884   4.663  10.912   9.621  0.6465  1.6894 -0.7188
  288MOL0     O37885   9.662   9.450   2.109  0.1600  0.0270  1.0356
  288MOL0     C37886   9.639   9.513   2.209 -0.0161  0.1083  0.5303
  288MOL0     O37887   9.723   9.597   2.276 -0.4985 -0.3648  0.1764
  288MOL0     C37888   9.858   9.609   2.261 -0.1232  0.0461  0.0427
  288MOL0     C37889   9.942   9.528   2.182 -0.3595  0.8976  0.3625
  288MOL0     C37890  10.082   9.537   2.171 -0.7716  0.0467 -0.0548
  288MOL0     C37891  10.138   9.647   2.240  0.3424  0.9092 -0.1194
  288MOL0     O37892  10.268   9.696   2.224 -0.0915  0.2160  0.4125
  288MOL0     C37893  10.323   9.686   2.088  0.6183  0.3271  0.0974
  288MOL0     C37894  10.286   9.810   1.996  0.2743  0.3653 -0.1139
  288MOL0     C37895  10.135   9.848   1.983  0.4449 -0.0603 -0.9402
  288MOL0     C37896  10.059   9.740   1.911 -0.3671 -0.6748 -1.0293
  288MOL0     C37897   9.912   9.780   1.928 -0.1104  0.3501 -0.1223
  288MOL0     C37898   9.825   9.701   1.831  0.0424  0.4083  1.3526
  288MOL0     C37899   9.681   9.700   1.856  0.4441  0.2088 -0.7510
  288MOL0     C37900   9.603   9.829   1.838 -1.0893 -0.0599 -0.3965
  288MOL0     N37901   9.465   9.803   1.853 -0.2002 -0.1218  0.1247
  288MOL0     C37902   9.392   9.745   1.952  0.1986 -0.1281 -0.7006
  288MOL0     C37903   9.262   9.750   1.918 -0.3603 -0.3909 -0.3922
  288MOL0     C37904   9.154   9.713   2.006  0.7911  0.7823  0.0105
  288MOL0     C37905   9.022   9.768   1.955 -0.2656  0.5770  0.4465
  288MOL0     C37906   8.913   9.778   2.058 -0.3706 -0.1728  0.8255
  288MOL0     C37907   8.796   9.858   2.002  0.6083  0.0417  0.8409
  288MOL0     O37908   8.714   9.754   1.936 -0.4716 -0.0286 -0.4088
  288MOL0     C37909   8.590   9.798   1.890 -0.6866  0.3518 -0.9401
  288MOL0     C37910   8.538   9.926   1.907  0.7056  0.2998  0.3215
  288MOL0     C37911   8.418   9.956   1.846 -0.7247 -0.5150  0.6414
  288MOL0     C37912   8.344   9.866   1.772  0.4449  0.2027 -0.3109
  288MOL0     C37913   8.212   9.909   1.730  0.0776  0.4033  0.4905
  288MOL0     O37914   8.195  10.048   1.718  0.4916 -0.0189 -0.3483
  288MOL0     C37915   8.072  10.099   1.673 -0.1717  0.2781 -0.5207
  288MOL0     C37916   7.946  10.052   1.734  0.3523  0.1864  0.2218
  288MOL0     C37917   7.826  10.088   1.685  0.7740  0.2001 -0.1133
  288MOL0     C37918   7.819  10.163   1.566  0.5337  0.3111 -0.0675
  288MOL0     O37919   7.699  10.202   1.507 -0.5837 -0.5458 -0.0900
  288MOL0     C37920   7.573  10.182   1.580 -0.7269 -0.2292  0.0354
  288MOL0     C37921   7.557  10.289   1.698 -0.8254 -0.5877 -0.7126
  288MOL0     C37922   7.524  10.423   1.639  0.4269  0.0008  0.5526
  288MOL0     C37923   7.466  10.514   1.759 -0.2953 -0.7609  0.5374
  288MOL0     C37924   7.389  10.630   1.716  0.0262 -0.1159  0.0073
  288MOL0     C37925   7.462  10.734   1.634 -0.1120  0.2894 -0.9016
  288MOL0     C37926   7.363  10.841   1.570  0.2879 -0.6295 -0.8439
  288MOL0     C37927   7.430  10.927   1.470  0.4376  0.8065  0.3348
  288MOL0    Cl37928   7.407  10.853   1.304 -0.6142 -0.1515 -0.0007
  288MOL0     C37929   7.932  10.186   1.499 -0.3591  0.1972 -0.0850
  288MOL0     C37930   8.065  10.159   1.550  0.3525 -0.0831  0.0603
  288MOL0     O37931   8.140   9.821   1.689 -0.0516  0.4031  0.1436
  288MOL0     C37932   8.403   9.736   1.759  0.1691  0.6769 -0.1709
  288MOL0     C37933   8.526   9.704   1.815 -0.8571 -0.4590  0.3670
  288MOL0     N37934   9.260   9.808   1.793  0.7265  0.2117  0.7148
  288MOL0     N37935   9.380   9.833   1.754  0.0565  0.1211 -0.3133
  288MOL0     C37936  10.052   9.727   2.334 -0.2238 -0.3622 -0.2477
  288MOL0     C37937   9.921   9.703   2.341  0.2660  0.3375  0.6752
  288MOL0     C37938   9.505   9.519   2.255  0.1710 -0.2244  0.4157
  288MOL0     C37939   9.470   9.597   2.367 -0.3021  0.2012 -0.2377
  288MOL0     C37940   9.338   9.607   2.410  0.3938  0.0481  0.4144
  288MOL0     C37941   9.229   9.552   2.332  0.2954  0.2159 -0.1836
  288MOL0     O37942   9.101   9.557   2.373  0.0683  0.0917  0.2226
  288MOL0     C37943   9.056   9.651   2.465  0.0215  0.1108 -0.5102
  288MOL0     C37944   9.031   9.567   2.593 -0.4842 -0.1414 -0.1252
  288MOL0     C37945   9.003   9.652   2.717 -0.0983  0.4394  0.0329
  288MOL0     C37946   9.002   9.552   2.834 -0.2559  1.0946 -0.4052
  288MOL0     C37947   8.910   9.432   2.821 -0.6804 -0.9798 -0.1494
  288MOL0     C37948   8.828   9.346   2.813 -0.1953 -0.7341  0.7222
  288MOL0     C37949   9.265   9.480   2.220  0.3548  0.0944 -0.9060
  288MOL0     C37950   9.400   9.465   2.184  0.6507  0.4060  0.2928
  288MOL0     H37951   9.898   9.447   2.125  1.2400  0.9726 -1.0731
  288MOL0     H37952  10.150   9.478   2.110 -1.6692  0.3050 -1.3518
  288MOL0     H37953  10.295   9.591   2.043 -1.7618  0.6062  0.8135
  288MOL0     H37954  10.432   9.685   2.079  0.6854 -2.1333  0.6339
  288MOL0     H37955  10.328   9.799   1.896  2.7725  2.1362  0.6562
  288MOL0     H37956  10.336   9.892   2.048 -1.1969  0.6694  0.8996
  288MOL0     H37957  10.123   9.946   1.936 -0.1888  0.0071 -0.6489
  288MOL0     H37958  10.093   9.868   2.082  1.9701 -3.7914  0.6427
  288MOL0     H37959  10.077   9.763   1.806 -0.3169  2.1468 -0.4759
  288MOL0     H37960  10.087   9.639   1.943  0.2598  0.2401  1.5999
  288MOL0     H37961   9.886   9.884   1.906 -0.6729  0.5591  1.4171
  288MOL0     H37962   9.889   9.752   2.031  3.0063  0.0037  0.5731
  288MOL0     H37963   9.850   9.595   1.830  0.4152  0.4216 -1.9137
  288MOL0     H37964   9.842   9.735   1.729 -1.1987  0.7099  1.2326
  288MOL0     H37965   9.638   9.625   1.790  1.9435 -0.7207 -0.7219
  288MOL0     H37966   9.664   9.668   1.959 -1.4172  1.7350 -0.5194
  288MOL0     H37967   9.624   9.866   1.737 -1.8283  2.2209  0.2175
  288MOL0     H37968   9.623   9.911   1.908 -0.6483 -0.3408 -0.1850
  288MOL0     H37969   9.432   9.713   2.048  1.0444 -0.5057 -1.1670
  288MOL0     H37970   9.179   9.746   2.107 -3.4235  2.6055  0.6571
  288MOL0     H37971   9.138   9.605   2.008  1.6264  0.6505  1.9499
  288MOL0     H37972   8.991   9.704   1.872 -0.8589  2.2905 -0.7037
  288MOL0     H37973   9.039   9.870   1.922 -3.8384  1.7729  1.8638
  288MOL0     H37974   8.883   9.681   2.099  4.6880 -1.1284  2.9464
  288MOL0     H37975   8.963   9.829   2.141  1.5445 -2.0973  0.9411
  288MOL0     H37976   8.835   9.926   1.926 -0.3897 -0.6268 -0.3086
  288MOL0     H37977   8.743   9.911   2.082 -1.0168 -0.3874  0.0982
  288MOL0     H37978   8.588   9.999   1.970 -1.3921 -0.8372  3.5054
  288MOL0     H37979   8.390  10.061   1.850  1.8337  0.2349  0.7675
  288MOL0     H37980   7.951   9.996   1.827 -2.0197  0.0923  0.3466
  288MOL0     H37981   7.740  10.056   1.742  0.5501  2.6930  1.0492
  288MOL0     H37982   7.575  10.079   1.616 -2.3849 -0.2396  0.1814
  288MOL0     H37983   7.487  10.185   1.513 -1.2901  0.0407  0.7571
  288MOL0     H37984   7.638  10.286   1.771 -4.6080 -0.7487  3.9436
  288MOL0     H37985   7.474  10.258   1.761 -0.8164 -0.0881 -0.4534
  288MOL0     H37986   7.461  10.420   1.549 -1.0220  1.0789  1.4800
  288MOL0     H37987   7.615  10.471   1.601  0.0993  0.6079  0.5174
  288MOL0     H37988   7.400  10.457   1.825 -0.9029  0.6312  1.1550
  288MOL0     H37989   7.546  10.545   1.827 -0.4158 -1.2141  0.8924
  288MOL0     H37990   7.349  10.692   1.797  0.0776 -0.1531  0.0609
  288MOL0     H37991   7.300  10.590   1.666 -0.6418  0.8411  0.3800
  288MOL0     H37992   7.517  10.680   1.556 -0.3441 -3.0916  1.0923
  288MOL0     H37993   7.545  10.777   1.690  0.1424 -0.5418 -0.6166
  288MOL0     H37994   7.274  10.794   1.527 -2.3059  1.0822  2.1690
  288MOL0     H37995   7.309  10.899   1.646 -2.4988 -0.4241 -2.8350
  288MOL0     H37996   7.536  10.941   1.492  0.3612  2.3371 -0.1488
  288MOL0     H37997   7.379  11.024   1.468 -0.9635  0.0889 -1.4987
  288MOL0     H37998   7.918  10.245   1.409 -2.0510  0.4539  0.3095
  288MOL0     H37999   8.158  10.176   1.496  1.0047  1.4799  1.5961
  288MOL0     H38000   8.348   9.656   1.710 -1.7605  0.8717  1.5456
  288MOL0     H38001   8.559   9.604   1.790  0.3311 -0.3179  1.3027
  288MOL0     H38002  10.102   9.794   2.404 -0.4542  1.1008 -1.4395
  288MOL0     H38003   9.849   9.748   2.408 -1.6652  0.5972 -1.4698
  288MOL0     H38004   9.541   9.657   2.423 -1.5972  1.3984  0.1994
  288MOL0     H38005   9.319   9.668   2.498  0.1003  0.7640 -0.1304
  288MOL0     H38006   8.959   9.692   2.435 -0.6492 -2.4215 -2.0648
  288MOL0     H38007   9.128   9.734   2.464  0.1954 -0.0254  0.1615
  288MOL0     H38008   8.941   9.505   2.580  0.3118 -1.2597 -0.4083
  288MOL0     H38009   9.111   9.494   2.610 -0.8660 -0.5166  0.0823
  288MOL0     H38010   8.911   9.707   2.695 -0.2614 -0.1974 -0.9377
  288MOL0     H38011   9.078   9.729   2.733 -1.7442  1.9153  0.9965
  288MOL0     H38012   9.105   9.523   2.858 -0.7104 -0.5015 -0.2584
  288MOL0     H38013   8.967   9.602   2.924  1.5143 -1.3309  1.7940
  288MOL0     H38014   8.750   9.274   2.828 -1.8816  1.4043  2.9152
  288MOL0     H38015   9.186   9.435   2.161 -0.1433  2.3750 -2.0586
  288MOL0     H38016   9.413   9.399   2.098  1.4341 -0.5932  1.1553
  289MOL0     O38017   9.433   7.594   7.498  0.2126 -0.1097 -0.0030
  289MOL0     C38018   9.505   7.496   7.485  0.3867  0.1251  0.1230
  289MOL0     O38019   9.469   7.366   7.509 -0.5087 -0.8806 -0.2898
  289MOL0     C38020   9.336   7.322   7.528  0.7510  0.1167  0.5215
  289MOL0     C38021   9.319   7.187   7.496  0.5284 -0.2824 -0.1722
  289MOL0     C38022   9.207   7.120   7.531 -0.2576 -0.2574  0.3953
  289MOL0     C38023   9.098   7.181   7.592  0.5383  0.3286 -0.7309
  289MOL0     O38024   8.969   7.121   7.598  1.1146 -0.1326 -0.2089
  289MOL0     C38025   8.943   7.011   7.507  0.1450  1.1674 -0.1190
  289MOL0     C38026   8.795   6.982   7.512  0.1716  1.2163  0.2228
  289MOL0     C38027   8.747   6.917   7.642  0.3896 -0.4888 -0.1926
  289MOL0     C38028   8.601   6.882   7.639 -0.1082  0.8153  0.4201
  289MOL0     C38029   8.539   6.829   7.771 -0.3445 -0.7410  0.4281
  289MOL0     C38030   8.507   6.943   7.870 -0.5575 -0.7581  0.3509
  289MOL0     C38031   8.423   6.882   7.980  0.8556 -1.3056  0.7062
  289MOL0     C38032   8.452   6.950   8.111 -0.7072  0.5106  0.0954
  289MOL0     N38033   8.354   6.915   8.209  0.9276  0.4087 -0.1961
  289MOL0     C38034   8.233   6.976   8.222 -0.1900  0.4279  0.1736
  289MOL0     C38035   8.176   6.919   8.334 -0.4221  0.0619  0.5404
  289MOL0     C38036   8.065   6.979   8.407 -1.2182  0.2586 -0.2904
  289MOL0     C38037   7.927   6.956   8.341  0.3017 -0.4926 -0.0269
  289MOL0     C38038   7.854   6.814   8.364  0.4843 -0.1801 -0.5479
  289MOL0     C38039   7.709   6.799   8.322 -0.3215 -0.4603 -0.1373
  289MOL0     O38040   7.636   6.912   8.365  0.5078 -0.3493  0.0862
  289MOL0     C38041   7.501   6.907   8.361  0.3057 -0.3062  0.4472
  289MOL0     C38042   7.451   7.024   8.414  0.3971 -0.6813  0.7966
  289MOL0     C38043   7.312   7.039   8.428  0.4363 -0.6966 -0.1846
  289MOL0     C38044   7.227   6.937   8.372 -0.8930 -0.2302 -0.6388
  289MOL0     C38045   7.080   6.954   8.395 -0.6458  0.0063 -0.1530
  289MOL0     O38046   7.043   7.071   8.458  0.4780 -0.3930  0.4834
  289MOL0     C38047   6.917   7.091   8.513 -0.3396 -0.0094  0.0299
  289MOL0     C38048   6.841   6.986   8.564  0.4685  0.1993  0.6694
  289MOL0     C38049   6.720   7.014   8.618  0.3315 -0.6437 -0.7344
  289MOL0     C38050   6.667   7.147   8.629  0.0418 -0.2929 -0.0157
  289MOL0     O38051   6.537   7.174   8.672 -1.5685 -0.7190  0.7681
  289MOL0     C38052   6.521   7.267   8.785 -0.3401 -0.1542  0.0278
  289MOL0     C38053   6.388   7.228   8.851 -0.1506  0.1851  0.3911
  289MOL0     C38054   6.362   7.086   8.911 -0.3064  0.0785  0.1523
  289MOL0     C38055   6.218   7.063   8.940  0.0357  0.1266 -0.2313
  289MOL0     C38056   6.204   6.925   9.000  0.7413  0.1982 -0.1599
  289MOL0     C38057   6.254   6.908   9.138  0.3789  0.7893 -0.3048
  289MOL0     C38058   6.209   7.010   9.248  0.1429 -0.3655 -0.1432
  289MOL0     C38059   6.165   6.957   9.379  0.5447 -1.1485 -0.6255
  289MOL0    Cl38060   6.027   6.842   9.348 -0.0373 -0.1319  0.1304
  289MOL0     C38061   6.740   7.252   8.582  0.6893  0.4615 -0.4215
  289MOL0     C38062   6.865   7.223   8.531  1.0204  0.4574 -0.1457
  289MOL0     O38063   7.001   6.882   8.332  0.1201 -0.3224  0.3456
  289MOL0     C38064   7.280   6.819   8.320 -0.0561  0.2281  0.3375
  289MOL0     C38065   7.422   6.804   8.314  0.6203  0.8702  0.1394
  289MOL0     N38066   8.253   6.820   8.379 -0.2506  0.4986  0.0674
  289MOL0     N38067   8.360   6.813   8.306 -0.4418  0.2015 -0.5851
  289MOL0     C38068   9.106   7.322   7.623 -0.1206  0.6459 -0.0179
  289MOL0     C38069   9.229   7.385   7.605 -0.5967 -0.6258  0.9672
  289MOL0     C38070   9.639   7.527   7.436 -0.4326 -0.4382  0.3213
  289MOL0     C38071   9.706   7.424   7.378 -0.2928  0.3775  0.2402
  289MOL0     C38072   9.829   7.443   7.314  0.0154 -0.2928  0.0529
  289MOL0     C38073   9.895   7.570   7.316 -0.2852  0.2153 -0.6862
  289MOL0     O38074  10.028   7.588   7.273  0.4791  0.2430  0.3053
  289MOL0     C38075  10.089   7.488   7.194 -0.0320 -0.3730 -0.7367
  289MOL0     C38076  10.037   7.467   7.049  0.7989 -0.0531 -0.4736
  289MOL0     C38077  10.138   7.479   6.946 -0.2798 -0.4275  0.9242
  289MOL0     C38078  10.080   7.512   6.809  0.1922  0.1265 -0.3668
  289MOL0     C38079   9.964   7.432   6.765 -0.7467 -0.0805 -0.0404
  289MOL0     C38080   9.871   7.365   6.724  0.6681  0.6024 -0.5014
  289MOL0     C38081   9.822   7.678   7.370  0.0346  0.2581 -0.4945
  289MOL0     C38082   9.696   7.659   7.424  0.3774 -0.6313  0.2256
  289MOL0     H38083   9.393   7.128   7.442 -0.2870  0.4075 -2.1360
  289MOL0     H38084   9.213   7.018   7.494  3.6711 -1.1669  2.9534
  289MOL0     H38085   9.001   6.927   7.546 -0.0551  0.7189 -0.7515
  289MOL0     H38086   8.971   7.021   7.402 -0.7431  0.6138 -0.4269
  289MOL0     H38087   8.781   6.910   7.432 -2.2178  2.5109 -0.6269
  289MOL0     H38088   8.740   7.073   7.486  0.5320  1.8000  1.4077
  289MOL0     H38089   8.763   6.985   7.726 -2.2082  0.9656 -0.7656
  289MOL0     H38090   8.801   6.822   7.645 -0.8616 -1.1971  0.6128
  289MOL0     H38091   8.547   6.970   7.605 -2.1377 -0.5586 -0.1353
  289MOL0     H38092   8.581   6.802   7.566 -1.2322 -0.6333  2.2141
  289MOL0     H38093   8.611   6.759   7.815 -0.6602 -1.2799  0.0990
  289MOL0     H38094   8.446   6.776   7.748 -0.8179  0.4397 -0.4820
  289MOL0     H38095   8.449   7.026   7.828  1.7397  0.8149  0.1207
  289MOL0     H38096   8.606   6.965   7.911 -0.0200 -0.2527 -1.1699
  289MOL0     H38097   8.320   6.904   7.951  1.3797  2.2297  1.0787
  289MOL0     H38098   8.420   6.773   7.989 -2.4086 -1.3375  0.5168
  289MOL0     H38099   8.443   7.058   8.105  0.7932  0.6744  0.3068
  289MOL0     H38100   8.548   6.918   8.155 -1.0141 -0.0802  0.3475
  289MOL0     H38101   8.198   7.052   8.153  1.7201 -0.2897 -1.6794
  289MOL0     H38102   8.097   7.083   8.417  3.4359 -1.0084  0.6427
  289MOL0     H38103   8.063   6.932   8.506  1.7970 -2.3670 -1.2881
  289MOL0     H38104   7.947   6.959   8.234 -1.9979 -4.1025 -0.7267
  289MOL0     H38105   7.858   7.032   8.378 -1.3233 -1.7282 -0.4078
  289MOL0     H38106   7.910   6.730   8.322 -0.7179 -0.5558 -1.4649
  289MOL0     H38107   7.843   6.805   8.472 -0.7146  0.0929 -0.6310
  289MOL0     H38108   7.659   6.714   8.369  0.4618 -0.1403  1.3437
  289MOL0     H38109   7.695   6.786   8.214  1.4048  0.1145 -0.4568
  289MOL0     H38110   7.515   7.106   8.443 -0.4467  0.1571  0.3381
  289MOL0     H38111   7.273   7.117   8.493 -1.2226 -2.4609  1.0699
  289MOL0     H38112   6.881   6.886   8.552  1.8147  0.7907 -0.0755
  289MOL0     H38113   6.651   6.937   8.650  3.5195 -3.2239  0.4993
  289MOL0     H38114   6.517   7.371   8.753 -1.8436 -0.3057 -0.3206
  289MOL0     H38115   6.601   7.253   8.859 -1.5598 -1.1767  1.2246
  289MOL0     H38116   6.316   7.242   8.771  1.4059  3.2591 -0.6654
  289MOL0     H38117   6.368   7.307   8.924  2.2710  1.3366 -0.0936
  289MOL0     H38118   6.418   7.078   9.005 -1.6141  0.5722  1.0123
  289MOL0     H38119   6.399   7.006   8.846 -1.5135  0.5363 -1.1438
  289MOL0     H38120   6.186   7.134   9.017 -0.1425 -0.1501 -0.0491
  289MOL0     H38121   6.159   7.076   8.849 -0.2279  0.3232 -0.0338
  289MOL0     H38122   6.240   6.854   8.924 -0.6275 -0.3356 -0.3556
  289MOL0     H38123   6.096   6.908   9.006  0.5743  1.4288  0.6236
  289MOL0     H38124   6.363   6.914   9.143  0.6003 -2.0869  4.2427
  289MOL0     H38125   6.230   6.802   9.155  1.2325  0.9033  1.9090
  289MOL0     H38126   6.289   7.081   9.273 -0.8281  0.7591 -0.1569
  289MOL0     H38127   6.131   7.074   9.206 -1.7413 -0.3366  3.1556
  289MOL0     H38128   6.129   7.040   9.440  3.3608  0.6852 -1.2897
  289MOL0     H38129   6.242   6.898   9.429  0.2204 -1.4755 -0.5067
  289MOL0     H38130   6.709   7.356   8.585  1.4066  0.6703  2.4004
  289MOL0     H38131   6.911   7.310   8.485  2.5828 -0.4676 -0.4318
  289MOL0     H38132   7.221   6.744   8.269  1.9914 -0.9179 -0.4781
  289MOL0     H38133   7.461   6.711   8.273  0.9662  1.0243  0.1205
  289MOL0     H38134   9.017   7.375   7.654 -0.8126  0.9121 -2.2720
  289MOL0     H38135   9.234   7.490   7.631 -0.6175  0.1124 -1.6483
  289MOL0     H38136   9.671   7.322   7.390  0.6486  0.2341  2.3108
  289MOL0     H38137   9.869   7.353   7.267 -0.7467 -0.6856  0.1421
  289MOL0     H38138  10.093   7.392   7.247  2.9305  0.5587  0.9313
  289MOL0     H38139  10.193   7.517   7.180 -0.4127  0.9899 -0.8951
  289MOL0     H38140   9.989   7.368   7.055 -0.4345  0.5834  0.7882
  289MOL0     H38141   9.951   7.532   7.030  1.6850  0.8364 -1.5789
  289MOL0     H38142  10.198   7.388   6.949  0.2203 -0.1831 -0.6579
  289MOL0     H38143  10.213   7.559   6.955 -0.3278  0.2911 -3.2362
  289MOL0     H38144  10.053   7.617   6.793  0.2271 -0.0351 -1.6308
  289MOL0     H38145  10.166   7.488   6.746  0.3398 -0.6598  0.1267
  289MOL0     H38146   9.798   7.303   6.676  0.1078  1.7153 -1.1245
  289MOL0     H38147   9.855   7.782   7.372 -1.0866  0.6126  0.6357
  289MOL0     H38148   9.648   7.745   7.469 -3.5944 -2.7206  0.3827
  290MOL0     O38149   1.529   8.670   0.588 -0.0558 -0.0066  0.3968
  290MOL0     C38150   1.602   8.598   0.655 -0.5857  0.4852 -0.0921
  290MOL0     O38151   1.561   8.502   0.737  0.1893  1.0253 -0.0840
  290MOL0     C38152   1.429   8.474   0.770 -0.0107  0.3743  0.4899
  290MOL0     C38153   1.321   8.564   0.745  0.5640  0.1770 -0.8799
  290MOL0     C38154   1.192   8.522   0.772  0.9697  0.7750  0.8790
  290MOL0     C38155   1.165   8.397   0.833 -0.6746 -0.8915  0.0889
  290MOL0     O38156   1.032   8.377   0.878 -0.1803 -0.3807  0.2586
  290MOL0     C38157   1.008   8.282   0.983 -0.1858  0.6546  0.0804
  290MOL0     C38158   0.867   8.301   1.053 -0.1414  1.1127 -0.0686
  290MOL0     C38159   0.752   8.345   0.958 -0.6506 -0.0920  0.5387
  290MOL0     C38160   0.632   8.403   1.036 -0.5410  0.0229 -0.2545
  290MOL0     C38161   0.568   8.308   1.133 -0.0276 -0.3776 -1.1211
  290MOL0     C38162   0.436   8.357   1.184 -0.5585  0.1918 -0.4571
  290MOL0     C38163   0.389   8.294   1.318  0.5827  0.2783  0.5357
  290MOL0     C38164   0.259   8.372   1.360 -0.4380  0.7897  0.1783
  290MOL0     N38165   0.192   8.310   1.472 -0.1444 -0.2728 -0.2130
  290MOL0     C38166   0.069   8.238   1.466 -0.5172 -1.2463  1.3848
  290MOL0     C38167   0.059   8.205   1.591  0.3549 -0.3191 -0.2131
  290MOL0     C38168  -0.056   8.110   1.622 -0.2205 -0.2451  0.2812
  290MOL0     C38169  -0.146   8.144   1.737  0.2556  0.6638  0.5350
  290MOL0     C38170  -0.230   8.267   1.714  0.2692 -0.2935 -0.0020
  290MOL0     C38171  -0.311   8.297   1.838 -0.7917  0.9124 -0.6923
  290MOL0     O38172  -0.380   8.419   1.802  0.0981 -1.0635 -0.4250
  290MOL0     C38173  -0.461   8.468   1.901  0.0245 -0.9198 -0.5801
  290MOL0     C38174  -0.487   8.409   2.026 -0.1588 -0.4041  0.2785
  290MOL0     C38175  -0.581   8.466   2.117 -0.1583 -0.1401  0.3134
  290MOL0     C38176  -0.640   8.588   2.086 -0.5525  1.0861  0.2821
  290MOL0     C38177  -0.739   8.646   2.180  0.2700 -0.9336  0.1109
  290MOL0     O38178  -0.771   8.576   2.295 -0.0775 -0.0862  0.0688
  290MOL0     C38179  -0.878   8.613   2.373  0.5109 -0.5097 -0.2455
  290MOL0     C38180  -1.012   8.576   2.335  0.2697  0.5128  0.5707
  290MOL0     C38181  -1.123   8.617   2.407  0.2088  0.1642 -0.7856
  290MOL0     C38182  -1.106   8.688   2.522 -0.4458  0.5704  0.2061
  290MOL0     O38183  -1.201   8.735   2.606 -0.3912 -0.0445 -0.0960
  290MOL0     C38184  -1.338   8.707   2.569  0.4199  0.5907  0.0562
  290MOL0     C38185  -1.413   8.696   2.698  0.1713 -0.4337 -0.2037
  290MOL0     C38186  -1.564   8.660   2.683 -0.5318 -0.1436  0.4368
  290MOL0     C38187  -1.639   8.674   2.809  0.1327  0.2723  0.7734
  290MOL0     C38188  -1.781   8.637   2.785 -0.3599  0.1586  0.0427
  290MOL0     C38189  -1.852   8.654   2.916  0.0220 -0.0996  1.3025
  290MOL0     C38190  -2.005   8.620   2.891  0.1219 -0.0211  0.0640
  290MOL0     C38191  -2.081   8.668   3.015  0.2881 -0.1414  0.0511
  290MOL0    Cl38192  -2.060   8.853   3.030 -0.0465  0.0583  0.3638
  290MOL0     C38193  -0.976   8.729   2.562 -0.2337  0.3204  0.2675
  290MOL0     C38194  -0.863   8.692   2.489 -0.6654  0.3889 -0.6359
  290MOL0     O38195  -0.796   8.745   2.146  0.3549 -0.7132  0.1741
  290MOL0     C38196  -0.610   8.647   1.958 -0.7427  0.3361  0.8943
  290MOL0     C38197  -0.531   8.583   1.868  0.1328  0.7438 -0.2054
  290MOL0     N38198   0.155   8.266   1.672 -0.6261  0.4628  0.1526
  290MOL0     N38199   0.236   8.331   1.602  0.1353 -0.4467  0.3987
  290MOL0     C38200   1.273   8.302   0.846 -0.4083  0.2673  0.4794
  290MOL0     C38201   1.398   8.345   0.805  0.0330  0.2335  0.6357
  290MOL0     C38202   1.748   8.621   0.647  0.4667  0.0959 -0.1974
  290MOL0     C38203   1.842   8.532   0.685 -0.2915  0.2580 -0.6222
  290MOL0     C38204   1.985   8.558   0.674  0.6774  0.4963  0.3454
  290MOL0     C38205   2.026   8.677   0.622  0.5282  0.1948 -0.4347
  290MOL0     O38206   2.154   8.721   0.602  0.1891 -0.0100 -0.5446
  290MOL0     C38207   2.265   8.635   0.638 -0.6916 -0.2588 -0.2621
  290MOL0     C38208   2.403   8.687   0.601 -0.3294  0.5867  0.3117
  290MOL0     C38209   2.523   8.619   0.661  0.0047  0.6406  0.5986
  290MOL0     C38210   2.659   8.690   0.624  0.6532 -0.6881 -0.2969
  290MOL0     C38211   2.692   8.656   0.487 -0.6793  0.1416 -0.8123
  290MOL0     C38212   2.711   8.605   0.382  0.4715  0.4619 -0.0118
  290MOL0     C38213   1.933   8.771   0.577 -0.2317 -1.0506 -0.2860
  290MOL0     C38214   1.798   8.748   0.602  0.6577  0.3762 -0.3041
  290MOL0     H38215   1.345   8.665   0.715  5.2441 -0.4503  0.0121
  290MOL0     H38216   1.114   8.594   0.746  1.1681  1.9544  3.2505
  290MOL0     H38217   1.088   8.289   1.058 -1.4094  0.8532  1.4031
  290MOL0     H38218   1.015   8.179   0.945  2.0142  0.2265  1.4491
  290MOL0     H38219   0.889   8.379   1.127  0.4261  0.5017  0.4231
  290MOL0     H38220   0.843   8.213   1.113 -1.0802  1.1952 -0.3135
  290MOL0     H38221   0.715   8.262   0.897  0.0215 -2.1808  2.7912
  290MOL0     H38222   0.792   8.420   0.889 -2.4592  1.7506  1.4111
  290MOL0     H38223   0.682   8.483   1.091  1.3413 -2.1842  1.4399
  290MOL0     H38224   0.559   8.441   0.964  1.1393  3.7163 -0.2351
  290MOL0     H38225   0.634   8.311   1.220 -1.2998  1.7396 -0.1607
  290MOL0     H38226   0.552   8.206   1.098  3.7406 -1.0139 -1.3744
  290MOL0     H38227   0.361   8.341   1.106 -1.0357 -0.1354  0.0572
  290MOL0     H38228   0.428   8.466   1.195 -0.7662  0.0068  1.7165
  290MOL0     H38229   0.353   8.192   1.301 -1.5359  1.1624 -0.6504
  290MOL0     H38230   0.466   8.309   1.394  1.2377  2.3499 -0.4622
  290MOL0     H38231   0.193   8.371   1.273 -1.0858 -0.1758  0.6658
  290MOL0     H38232   0.284   8.475   1.387  1.2830 -0.1580  2.5069
  290MOL0     H38233   0.008   8.213   1.380 -1.5621  2.9191  0.6463
  290MOL0     H38234  -0.019   8.011   1.651 -0.2458 -0.3402 -0.0034
  290MOL0     H38235  -0.124   8.093   1.538 -0.4773  1.7016  0.0337
  290MOL0     H38236  -0.090   8.161   1.830  0.8415 -4.7357  1.5464
  290MOL0     H38237  -0.216   8.060   1.745  0.1122  0.8406  1.2035
  290MOL0     H38238  -0.169   8.353   1.683 -2.4844  1.3917 -1.1319
  290MOL0     H38239  -0.299   8.254   1.630  1.3071  0.1359 -0.9536
  290MOL0     H38240  -0.238   8.310   1.919  1.5398  1.6888 -2.7566
  290MOL0     H38241  -0.380   8.224   1.880  2.3150 -1.1731  1.2399
  290MOL0     H38242  -0.412   8.339   2.059 -0.5969 -0.5313  1.0323
  290MOL0     H38243  -0.605   8.425   2.215 -0.3357  4.1410  2.2791
  290MOL0     H38244  -1.034   8.529   2.240  1.8313 -1.2107  0.9982
  290MOL0     H38245  -1.219   8.589   2.365 -0.2972  1.5858 -0.6077
  290MOL0     H38246  -1.344   8.613   2.513  0.9122  1.7494 -2.0659
  290MOL0     H38247  -1.374   8.783   2.499 -0.4711 -0.3493 -0.5466
  290MOL0     H38248  -1.402   8.788   2.757  3.3616 -0.4120 -0.6162
  290MOL0     H38249  -1.368   8.617   2.759  1.8875  0.1152 -0.6855
  290MOL0     H38250  -1.559   8.556   2.648 -2.1115  0.0820 -0.5379
  290MOL0     H38251  -1.614   8.717   2.603 -0.9970 -1.2518 -0.0797
  290MOL0     H38252  -1.597   8.607   2.884  0.1381 -1.7733 -0.9561
  290MOL0     H38253  -1.633   8.777   2.847 -0.0199 -0.1971  2.1168
  290MOL0     H38254  -1.776   8.530   2.763 -0.6009  0.2533 -0.4944
  290MOL0     H38255  -1.826   8.691   2.702  1.3149 -1.2592 -1.8835
  290MOL0     H38256  -1.834   8.744   2.975  1.8042  0.5702 -0.1917
  290MOL0     H38257  -1.802   8.584   2.984  4.2103 -0.4478 -1.7377
  290MOL0     H38258  -2.042   8.665   2.799  0.2662 -1.2110 -0.5867
  290MOL0     H38259  -2.021   8.512   2.889 -1.3280 -0.3744  6.4701
  290MOL0     H38260  -2.051   8.636   3.115 -2.0820  0.6928  1.1001
  290MOL0     H38261  -2.185   8.636   3.005 -1.3013  3.4058  2.9099
  290MOL0     H38262  -0.953   8.794   2.646  1.0119  2.6727 -1.7809
  290MOL0     H38263  -0.762   8.714   2.520 -0.0444  0.1144 -2.3754
  290MOL0     H38264  -0.656   8.737   1.919  0.6541  0.9427  0.5791
  290MOL0     H38265  -0.508   8.618   1.768  1.7876  0.4737  0.0362
  290MOL0     H38266   1.265   8.199   0.881  3.2754 -1.5066 -3.0560
  290MOL0     H38267   1.469   8.267   0.784  0.0821  1.1572 -3.3825
  290MOL0     H38268   1.812   8.435   0.724 -3.3551  2.5427  3.4040
  290MOL0     H38269   2.047   8.472   0.699  0.6604 -0.0327 -1.3193
  290MOL0     H38270   2.262   8.534   0.596  1.5575 -1.2862  1.8299
  290MOL0     H38271   2.256   8.612   0.744  3.6372 -1.0220  0.1402
  290MOL0     H38272   2.409   8.678   0.492  0.2458 -2.4516  0.5086
  290MOL0     H38273   2.411   8.794   0.624 -0.4772  0.1013  2.8510
  290MOL0     H38274   2.538   8.517   0.625  0.4767  0.6660  0.7193
  290MOL0     H38275   2.512   8.614   0.769 -0.5363  0.7086  0.5507
  290MOL0     H38276   2.647   8.798   0.639 -3.1691 -1.0654  0.3917
  290MOL0     H38277   2.735   8.659   0.696 -0.1237  1.7012  1.6884
  290MOL0     H38278   2.732   8.538   0.300  4.3751  0.5240  0.7489
  290MOL0     H38279   1.951   8.872   0.543 -3.5920 -0.6487 -1.2546
  290MOL0     H38280   1.718   8.814   0.567 -1.2343 -1.3493  0.5511
  291MOL0     O38281   2.673   2.529   5.944  0.5932 -0.6688 -0.4538
  291MOL0     C38282   2.756   2.452   5.986 -0.3254 -0.3362 -0.4475
  291MOL0     O38283   2.727   2.335   6.050  0.7281 -0.2522  0.0860
  291MOL0     C38284   2.595   2.299   6.061  0.2767  0.3763 -0.7984
  291MOL0     C38285   2.531   2.290   6.181 -0.2212  0.3952 -0.4011
  291MOL0     C38286   2.395   2.256   6.192 -0.2278 -0.9550  0.2069
  291MOL0     C38287   2.323   2.220   6.079  1.2894 -0.0497  0.2608
  291MOL0     O38288   2.197   2.163   6.096 -0.5571 -0.1862 -0.4381
  291MOL0     C38289   2.127   2.136   5.982  0.9046 -0.7595  0.6628
  291MOL0     C38290   1.982   2.099   6.024  0.2758 -1.3288 -0.5745
  291MOL0     C38291   1.890   2.062   5.918 -0.4712 -0.1509 -0.1671
  291MOL0     C38292   1.919   1.922   5.868  0.2990  0.3801 -0.8442
  291MOL0     C38293   1.875   1.893   5.732  0.6084  0.8760 -0.2262
  291MOL0     C38294   1.726   1.924   5.718 -0.1259 -0.8556 -1.2705
  291MOL0     C38295   1.692   1.911   5.567  0.1952  0.1387  0.2461
  291MOL0     C38296   1.546   1.946   5.544 -0.4360  0.6822  0.1952
  291MOL0     N38297   1.453   1.844   5.595  0.2283  0.1610  0.0900
  291MOL0     C38298   1.401   1.843   5.719  0.3874 -0.2382  0.9174
  291MOL0     C38299   1.325   1.730   5.730  0.1195  0.2811 -0.3321
  291MOL0     C38300   1.240   1.690   5.845 -0.3016 -0.1028 -0.7269
  291MOL0     C38301   1.090   1.737   5.818 -0.0294  0.1089 -0.5724
  291MOL0     C38302   1.045   1.830   5.934 -0.1447 -0.4607 -0.2924
  291MOL0     C38303   0.891   1.816   5.941 -0.1633 -0.0903 -0.3484
  291MOL0     O38304   0.856   1.873   6.070  0.7011  0.1719 -0.2838
  291MOL0     C38305   0.733   1.927   6.093 -0.0756 -0.3914  0.6067
  291MOL0     C38306   0.616   1.858   6.074  0.0539 -0.3738  0.3828
  291MOL0     C38307   0.489   1.919   6.085 -0.0399  0.0717  0.8936
  291MOL0     C38308   0.470   2.048   6.130  0.4934 -0.8897  1.4356
  291MOL0     C38309   0.331   2.110   6.152 -0.1855 -0.6843 -0.4694
  291MOL0     O38310   0.321   2.240   6.188  0.1941 -0.2624 -0.4135
  291MOL0     C38311   0.210   2.307   6.152  0.1936 -0.1443  0.1589
  291MOL0     C38312   0.099   2.317   6.242 -0.0914  0.9305  0.9795
  291MOL0     C38313  -0.013   2.394   6.209  0.4942  0.3899 -0.2409
  291MOL0     C38314  -0.013   2.457   6.085  0.3392 -0.6377 -0.8488
  291MOL0     O38315  -0.123   2.540   6.058  0.4530  0.0002  0.3098
  291MOL0     C38316  -0.153   2.600   5.934  0.5534 -0.4817 -0.0438
  291MOL0     C38317  -0.261   2.709   5.963 -0.2187  0.7131 -0.2303
  291MOL0     C38318  -0.375   2.686   6.081 -0.3125  0.3148  0.5673
  291MOL0     C38319  -0.456   2.555   6.044 -0.7684  0.6977  0.1474
  291MOL0     C38320  -0.570   2.529   6.136 -0.5298  0.4236 -0.1803
  291MOL0     C38321  -0.538   2.514   6.284  0.3892 -0.6429  0.5406
  291MOL0     C38322  -0.411   2.441   6.331 -0.0066  0.7126 -0.8793
  291MOL0     C38323  -0.364   2.500   6.463  0.1928  0.5130 -0.1368
  291MOL0    Cl38324  -0.486   2.461   6.590 -0.0071 -0.1509  0.2516
  291MOL0     C38325   0.093   2.448   5.997  0.2548 -0.1220  0.2878
  291MOL0     C38326   0.206   2.372   6.029 -0.2266 -0.7503  0.2999
  291MOL0     O38327   0.228   2.042   6.136 -0.0397 -0.7560  0.7248
  291MOL0     C38328   0.589   2.121   6.144  0.7636  0.3062 -0.3955
  291MOL0     C38329   0.716   2.059   6.139  0.0015 -0.8967  0.3035
  291MOL0     N38330   1.332   1.663   5.610  0.1835  0.3274  0.4853
  291MOL0     N38331   1.415   1.728   5.530 -0.0787  0.3077 -0.3045
  291MOL0     C38332   2.390   2.215   5.952  0.0482  0.6369  0.2928
  291MOL0     C38333   2.524   2.258   5.946  0.0820 -0.2510  0.6811
  291MOL0     C38334   2.897   2.497   5.982  0.5128  0.5426 -0.1100
  291MOL0     C38335   2.935   2.609   5.906  0.1683 -0.4676 -0.1032
  291MOL0     C38336   3.061   2.639   5.885 -0.1256  0.5038 -0.0551
  291MOL0     C38337   3.165   2.561   5.930  0.6704 -0.8111  0.0966
  291MOL0     O38338   3.290   2.593   5.885  0.2033 -0.0774 -0.1790
  291MOL0     C38339   3.406   2.542   5.943 -0.7089  0.8236  0.6126
  291MOL0     C38340   3.521   2.608   5.873  0.0970 -0.3437 -0.2129
  291MOL0     C38341   3.658   2.593   5.938  0.2707 -0.2664  0.0901
  291MOL0     C38342   3.746   2.692   5.861 -0.4147  0.2074 -0.2795
  291MOL0     C38343   3.884   2.661   5.908  0.0729  0.4387 -0.7527
  291MOL0     C38344   3.990   2.608   5.940 -0.2509 -0.0712 -0.0115
  291MOL0     C38345   3.135   2.457   6.024  0.4013  0.9797 -0.8141
  291MOL0     C38346   2.998   2.425   6.047  0.5853 -0.2586 -0.6123
  291MOL0     H38347   2.577   2.329   6.272 -1.1448  0.6543 -0.0231
  291MOL0     H38348   2.349   2.248   6.290  0.4296  1.2930  0.7527
  291MOL0     H38349   2.165   2.046   5.934  0.0316 -1.3240  1.0137
  291MOL0     H38350   2.117   2.215   5.907 -1.2949 -0.7702  0.8759
  291MOL0     H38351   1.945   2.189   6.072  0.3983 -0.9129 -1.2469
  291MOL0     H38352   1.988   2.017   6.097 -0.4770 -2.0613 -1.3234
  291MOL0     H38353   1.891   2.138   5.840  1.1889  0.8368  0.7512
  291MOL0     H38354   1.789   2.067   5.958 -0.1231 -1.1971  0.9051
  291MOL0     H38355   2.023   1.891   5.881  0.1441 -0.1470 -0.8310
  291MOL0     H38356   1.874   1.853   5.940 -2.3162  0.8507 -1.9161
  291MOL0     H38357   1.893   1.788   5.707 -2.0331  0.6108 -1.3292
  291MOL0     H38358   1.933   1.953   5.661  1.5273  0.5577  0.2387
  291MOL0     H38359   1.699   2.025   5.751 -1.8836 -1.1232 -1.7712
  291MOL0     H38360   1.672   1.850   5.777  2.0682 -0.5848  1.2282
  291MOL0     H38361   1.753   1.977   5.505 -0.9422 -0.5943 -1.7261
  291MOL0     H38362   1.717   1.810   5.534  0.1954  0.7326 -1.6714
  291MOL0     H38363   1.525   1.969   5.439  2.0020  0.2181 -0.4686
  291MOL0     H38364   1.532   2.044   5.591 -1.7979 -0.1890  1.6912
  291MOL0     H38365   1.409   1.914   5.800 -2.0726  1.2110  0.0177
  291MOL0     H38366   1.286   1.735   5.934 -0.1777 -0.9117 -0.3674
  291MOL0     H38367   1.237   1.581   5.851  0.1443 -0.1176 -0.6735
  291MOL0     H38368   1.031   1.646   5.804 -0.2612  0.0710  0.5488
  291MOL0     H38369   1.073   1.791   5.724 -0.2400  0.8085 -0.1375
  291MOL0     H38370   1.093   1.800   6.027  3.8428  1.3681 -1.5178
  291MOL0     H38371   1.073   1.933   5.909  4.2208 -1.2107  0.7371
  291MOL0     H38372   0.851   1.714   5.949 -2.1453  0.6877  0.2346
  291MOL0     H38373   0.851   1.878   5.860 -3.5424  0.3052  1.4375
  291MOL0     H38374   0.624   1.756   6.037 -0.2177 -0.2984  0.1085
  291MOL0     H38375   0.402   1.855   6.083  0.5394 -0.8549  3.0536
  291MOL0     H38376   0.099   2.266   6.338 -0.5448  0.8728  0.9487
  291MOL0     H38377  -0.101   2.396   6.273 -0.4829 -1.3442 -1.4273
  291MOL0     H38378  -0.174   2.523   5.860  1.4952 -1.3984  0.6168
  291MOL0     H38379  -0.073   2.667   5.901 -1.7938  1.7403 -1.5802
  291MOL0     H38380  -0.301   2.735   5.864  2.0864 -1.2886 -1.7962
  291MOL0     H38381  -0.201   2.793   6.000 -0.3034  0.5500  0.2815
  291MOL0     H38382  -0.443   2.772   6.085 -0.8856  0.1693 -2.9894
  291MOL0     H38383  -0.323   2.667   6.176  2.6069  0.2045 -0.9328
  291MOL0     H38384  -0.499   2.570   5.944 -0.3426 -2.6738 -0.6391
  291MOL0     H38385  -0.402   2.460   6.038 -2.6266 -0.3417 -0.8207
  291MOL0     H38386  -0.620   2.435   6.108  0.3882 -0.6294  1.5208
  291MOL0     H38387  -0.646   2.608   6.137 -1.6562 -0.5880  1.9421
  291MOL0     H38388  -0.625   2.475   6.337  0.0355  1.7803  1.9227
  291MOL0     H38389  -0.528   2.615   6.325  0.8101 -0.5203  0.1477
  291MOL0     H38390  -0.417   2.332   6.338  1.2040  0.7051  0.4007
  291MOL0     H38391  -0.333   2.465   6.259  0.0605  1.1177 -0.6723
  291MOL0     H38392  -0.369   2.609   6.455 -0.0242  0.5348  0.2342
  291MOL0     H38393  -0.265   2.460   6.487  0.0489 -0.8030 -1.6179
  291MOL0     H38394   0.091   2.508   5.907  0.1001  1.9835  1.6165
  291MOL0     H38395   0.283   2.360   5.953 -0.4212 -3.2566  0.4015
  291MOL0     H38396   0.589   2.228   6.166  0.8289  0.5043 -1.3102
  291MOL0     H38397   0.804   2.121   6.151  1.1789 -2.4333 -0.1105
  291MOL0     H38398   2.351   2.172   5.860 -0.9772  1.8579  0.1424
  291MOL0     H38399   2.572   2.260   5.849 -0.9439  0.3343  0.1639
  291MOL0     H38400   2.864   2.670   5.850  0.4722 -0.6444 -0.6936
  291MOL0     H38401   3.092   2.727   5.830  1.7308  0.5518  1.0025
  291MOL0     H38402   3.424   2.436   5.928  3.6464  1.2423  1.5814
  291MOL0     H38403   3.418   2.569   6.049  3.0185  0.1818  0.5054
  291MOL0     H38404   3.525   2.570   5.771 -3.4521 -4.5738  0.9144
  291MOL0     H38405   3.491   2.713   5.868  1.5500  0.0287 -2.9387
  291MOL0     H38406   3.702   2.494   5.927  0.6480 -0.1989  0.9210
  291MOL0     H38407   3.660   2.623   6.043  0.0043 -0.6348  0.2016
  291MOL0     H38408   3.740   2.685   5.752  1.3696  0.7804 -0.4423
  291MOL0     H38409   3.729   2.797   5.885 -1.5752 -0.3815  1.7702
  291MOL0     H38410   4.081   2.565   5.976 -0.1794  1.3020  1.5983
  291MOL0     H38411   3.216   2.401   6.068  0.0349  1.9922  1.3171
  291MOL0     H38412   2.970   2.348   6.118 -0.2976 -1.0592 -1.7898
  292MOL0     O38413   8.743   1.394  10.075  0.3914  0.2841  0.0403
  292MOL0     C38414   8.763   1.433   9.961 -0.2461 -0.0245 -0.4373
  292MOL0     O38415   8.664   1.459   9.859 -0.7576 -0.3833 -0.9549
  292MOL0     C38416   8.527   1.441   9.880 -0.0770  0.0231  0.0934
  292MOL0     C38417   8.469   1.378   9.988  0.5603  0.0485  0.8405
  292MOL0     C38418   8.324   1.362   9.990 -0.3147 -0.4882 -0.7845
  292MOL0     C38419   8.245   1.424   9.895  0.1546 -0.0222  0.2440
  292MOL0     O38420   8.116   1.421   9.932 -0.3386  0.2379  0.2783
  292MOL0     C38421   8.020   1.495   9.863 -0.2587 -0.5628  0.5504
  292MOL0     C38422   7.874   1.485   9.916 -0.4211 -1.0130  0.0197
  292MOL0     C38423   7.766   1.581   9.849  0.1036  0.0757 -0.2305
  292MOL0     C38424   7.774   1.560   9.694 -0.7829  0.2247 -0.4324
  292MOL0     C38425   7.652   1.600   9.628 -0.4335 -0.8281 -0.2422
  292MOL0     C38426   7.528   1.515   9.652 -0.1867 -1.2564 -0.6643
  292MOL0     C38427   7.397   1.584   9.604 -0.4822  0.6954  0.8652
  292MOL0     C38428   7.283   1.491   9.628  0.9896 -0.2897  0.4993
  292MOL0     N38429   7.164   1.558   9.578  0.0674  0.4673  0.3908
  292MOL0     C38430   7.089   1.653   9.637  0.3980  0.7675 -0.4133
  292MOL0     C38431   6.995   1.693   9.557 -0.0597  0.5741 -0.0763
  292MOL0     C38432   6.888   1.802   9.582  1.1285 -0.5322 -0.5912
  292MOL0     C38433   6.747   1.730   9.598  0.7018 -0.2408 -0.0479
  292MOL0     C38434   6.634   1.835   9.586 -0.1406  0.9967 -0.4711
  292MOL0     C38435   6.498   1.806   9.626  0.9082 -0.3156  0.0467
  292MOL0     O38436   6.422   1.930   9.612  0.0778  0.0827 -0.3665
  292MOL0     C38437   6.288   1.929   9.629 -0.2950 -0.6398 -1.0787
  292MOL0     C38438   6.216   1.812   9.632  0.5600 -0.2026  0.1825
  292MOL0     C38439   6.076   1.815   9.627 -0.2011 -0.7048  0.2627
  292MOL0     C38440   6.011   1.939   9.635  0.7409  0.7014 -0.5403
  292MOL0     C38441   5.861   1.938   9.659  0.1406 -0.0943 -0.5167
  292MOL0     O38442   5.817   1.838   9.736 -0.1553  0.2642 -0.1419
  292MOL0     C38443   5.678   1.819   9.729  1.0723 -0.3976  0.2502
  292MOL0     C38444   5.608   1.772   9.616  0.9146 -0.1802  0.4995
  292MOL0     C38445   5.468   1.749   9.618 -0.8448  0.5053 -0.2200
  292MOL0     C38446   5.394   1.761   9.737 -0.2331 -0.3538  0.3147
  292MOL0     O38447   5.261   1.737   9.719 -0.1211 -0.2268 -0.4786
  292MOL0     C38448   5.176   1.736   9.843 -0.6309  0.4267  0.2751
  292MOL0     C38449   5.032   1.740   9.793 -0.4620  0.7519 -0.1130
  292MOL0     C38450   4.950   1.719   9.918 -0.2230  0.1439  0.1357
  292MOL0     C38451   4.805   1.775   9.902  0.6512 -0.7114  1.3431
  292MOL0     C38452   4.711   1.745  10.023 -0.2785 -0.2284  0.6824
  292MOL0     C38453   4.754   1.791  10.162  0.1214 -0.0205 -0.2637
  292MOL0     C38454   4.645   1.759  10.268  0.5771 -0.0107  0.3056
  292MOL0     C38455   4.605   1.872  10.362  0.1407  0.1950  0.0737
  292MOL0    Cl38456   4.728   1.947  10.464  0.6521  0.1324  0.4527
  292MOL0     C38457   5.468   1.810   9.858 -1.5758 -0.6506  0.9491
  292MOL0     C38458   5.608   1.835   9.852  0.8720 -0.4396 -0.1746
  292MOL0     O38459   5.793   2.037   9.617 -0.7817 -0.1925 -0.1609
  292MOL0     C38460   6.080   2.057   9.642  0.3180 -0.0522 -0.3008
  292MOL0     C38461   6.219   2.050   9.633  0.0013  0.3124  0.6543
  292MOL0     N38462   7.019   1.639   9.435  0.8539  0.4803  0.3489
  292MOL0     N38463   7.117   1.556   9.451  0.0359  0.8454  0.7411
  292MOL0     C38464   8.302   1.478   9.781  0.8144 -0.5495  0.1212
  292MOL0     C38465   8.442   1.494   9.772  0.3011  0.4193 -0.1879
  292MOL0     C38466   8.900   1.479   9.933 -0.1330 -0.2892  0.3993
  292MOL0     C38467   9.013   1.428   9.997  0.1274 -0.1433  0.5470
  292MOL0     C38468   9.137   1.475   9.963 -1.0040  1.0606  0.8143
  292MOL0     C38469   9.151   1.563   9.850 -0.4705  0.0548 -0.0568
  292MOL0     O38470   9.278   1.587   9.801 -0.6628  0.2132 -0.3606
  292MOL0     C38471   9.296   1.549   9.668 -0.1990  0.4540 -0.2088
  292MOL0     C38472   9.444   1.559   9.630  0.6051  0.4316  0.0951
  292MOL0     C38473   9.493   1.696   9.585 -0.7657 -0.6098 -0.0844
  292MOL0     C38474   9.648   1.719   9.607  0.3645  0.6430 -0.4269
  292MOL0     C38475   9.726   1.601   9.569 -0.4477  0.4170  0.3677
  292MOL0     C38476   9.799   1.504   9.541 -0.4246  0.1064 -0.4250
  292MOL0     C38477   9.039   1.611   9.786  0.1024  0.6683  0.0652
  292MOL0     C38478   8.918   1.578   9.831  0.8318 -0.2645 -0.6141
  292MOL0     H38479   8.521   1.339  10.075  0.7280  1.0045  1.1830
  292MOL0     H38480   8.277   1.315  10.076 -1.7663 -0.3625 -1.4828
  292MOL0     H38481   8.030   1.460   9.760  2.3612  1.1169  0.1353
  292MOL0     H38482   8.044   1.601   9.866 -0.4090 -0.4970 -0.2707
  292MOL0     H38483   7.879   1.505  10.023  1.8635  2.0819 -0.5375
  292MOL0     H38484   7.845   1.380   9.906 -0.3294 -0.9461 -1.1464
  292MOL0     H38485   7.785   1.688   9.864 -2.7538  0.4867  1.1730
  292MOL0     H38486   7.665   1.561   9.888  0.8143 -1.8769  0.7180
  292MOL0     H38487   7.854   1.629   9.666 -0.4199  1.1853  2.6401
  292MOL0     H38488   7.802   1.457   9.667 -1.3963 -0.0725  0.0461
  292MOL0     H38489   7.674   1.595   9.521  1.2811  0.6862 -0.0258
  292MOL0     H38490   7.631   1.706   9.651  0.7410 -0.4038 -1.0369
  292MOL0     H38491   7.517   1.482   9.756 -1.5858 -1.8370 -0.9791
  292MOL0     H38492   7.533   1.419   9.601 -1.9677 -1.9612  0.3858
  292MOL0     H38493   7.380   1.679   9.655  1.7423  1.1469  0.9018
  292MOL0     H38494   7.403   1.601   9.496  1.7336  1.2603  1.0248
  292MOL0     H38495   7.274   1.468   9.735 -1.9860  0.5726  0.5302
  292MOL0     H38496   7.299   1.401   9.568 -1.2978 -1.2495  1.1919
  292MOL0     H38497   7.114   1.682   9.739 -1.4895 -1.0314  0.6537
  292MOL0     H38498   6.880   1.866   9.493  0.6090 -1.3560 -1.1474
  292MOL0     H38499   6.912   1.864   9.669  1.0428  1.1472 -1.7091
  292MOL0     H38500   6.740   1.675   9.692 -3.4442 -1.4347 -0.8428
  292MOL0     H38501   6.727   1.667   9.511 -1.0357  0.2843 -0.0689
  292MOL0     H38502   6.665   1.912   9.658  0.6784 -1.2215  1.6749
  292MOL0     H38503   6.635   1.870   9.483  1.3576 -1.9420 -1.5513
  292MOL0     H38504   6.492   1.753   9.722  2.7960 -1.4295 -0.4063
  292MOL0     H38505   6.462   1.738   9.548 -1.9099  1.5036 -0.3766
  292MOL0     H38506   6.267   1.716   9.625  0.9187  0.1014 -2.4841
  292MOL0     H38507   6.021   1.722   9.622 -1.1375 -0.1061 -1.2183
  292MOL0     H38508   5.658   1.755   9.521 -1.7966  0.4871 -1.1702
  292MOL0     H38509   5.416   1.712   9.531 -0.0826 -0.5009 -0.2581
  292MOL0     H38510   5.192   1.829   9.898 -2.9272  1.9255 -1.3691
  292MOL0     H38511   5.201   1.649   9.903  2.2352  0.7033 -0.3685
  292MOL0     H38512   5.007   1.662   9.720  1.2759 -0.6378  0.7143
  292MOL0     H38513   5.007   1.838   9.752 -0.0003  0.7653 -0.3756
  292MOL0     H38514   4.999   1.776   9.998  1.0395  1.9609 -1.8223
  292MOL0     H38515   4.938   1.612   9.939 -0.0577 -0.2117 -1.4822
  292MOL0     H38516   4.827   1.881   9.890  1.2878 -1.1157 -2.1064
  292MOL0     H38517   4.762   1.737   9.809  1.7125  2.2134 -0.4464
  292MOL0     H38518   4.702   1.637  10.033 -1.6705 -0.0295  2.0189
  292MOL0     H38519   4.615   1.792   9.996 -0.3639 -0.1616  1.0995
  292MOL0     H38520   4.770   1.898  10.149 -0.7231  0.0901 -0.4433
  292MOL0     H38521   4.853   1.754  10.191  0.5187  0.8857 -0.4509
  292MOL0     H38522   4.556   1.725  10.215 -0.7395  2.2735  0.9254
  292MOL0     H38523   4.681   1.683  10.338  1.2167 -0.3460 -0.3759
  292MOL0     H38524   4.531   1.819  10.423 -2.5767  0.5493 -2.6381
  292MOL0     H38525   4.538   1.943  10.312 -1.9186 -1.3160  0.5464
  292MOL0     H38526   5.425   1.824   9.957  0.8270 -1.8249  2.2435
  292MOL0     H38527   5.656   1.891   9.931  1.2109 -1.6318  0.4932
  292MOL0     H38528   6.025   2.151   9.645 -0.0659 -0.2678 -0.4685
  292MOL0     H38529   6.282   2.137   9.619  0.7568 -0.3558 -0.3056
  292MOL0     H38530   8.233   1.493   9.699  1.1946  0.6191  0.0004
  292MOL0     H38531   8.478   1.547   9.684  0.9286 -0.5817 -0.5543
  292MOL0     H38532   9.005   1.346  10.068  1.6675 -1.7067 -1.0008
  292MOL0     H38533   9.222   1.427  10.009 -0.1777 -0.1432 -1.7506
  292MOL0     H38534   9.234   1.606   9.598  1.3353  1.3738 -0.8731
  292MOL0     H38535   9.273   1.443   9.650  1.3021  0.0998 -0.1754
  292MOL0     H38536   9.508   1.519   9.710  0.5315 -0.8694 -0.4679
  292MOL0     H38537   9.470   1.492   9.548 -1.4459 -0.6960  0.3017
  292MOL0     H38538   9.443   1.777   9.639  0.4255  1.6333 -2.1526
  292MOL0     H38539   9.469   1.712   9.480 -2.6750  2.6226  0.7041
  292MOL0     H38540   9.673   1.811   9.554  3.6935  0.8913  1.3072
  292MOL0     H38541   9.673   1.733   9.713  1.2699 -2.9796 -0.0309
  292MOL0     H38542   9.868   1.423   9.530  2.9237  2.1727  2.8077
  292MOL0     H38543   9.050   1.686   9.709 -0.2476  1.3702  0.6801
  292MOL0     H38544   8.829   1.618   9.784 -0.0052 -0.2402  0.9158
  293MOL0     O38545   2.024   6.162   8.513 -0.1019 -0.3897 -0.5260
  293MOL0     C38546   2.076   6.273   8.543 -0.7076  0.4212  0.4043
  293MOL0     O38547   2.018   6.395   8.533 -0.2596  0.1886  0.9183
  293MOL0     C38548   1.900   6.419   8.471  0.0294  0.0221 -0.5572
  293MOL0     C38549   1.827   6.529   8.523  0.2075  0.2716 -0.8133
  293MOL0     C38550   1.693   6.555   8.478  0.0527  0.5646  0.0714
  293MOL0     C38551   1.643   6.482   8.379  0.3368 -0.4929  0.1261
  293MOL0     O38552   1.508   6.504   8.335  0.2015 -0.5747 -0.4385
  293MOL0     C38553   1.452   6.446   8.216  0.3669  0.0135 -0.6430
  293MOL0     C38554   1.327   6.522   8.176 -0.0474 -1.0364  0.5443
  293MOL0     C38555   1.298   6.494   8.032 -0.6022  0.2369  0.1260
  293MOL0     C38556   1.248   6.352   8.021 -0.4295 -0.2294  1.0121
  293MOL0     C38557   1.204   6.311   7.880 -0.3561 -0.4306 -0.0444
  293MOL0     C38558   1.075   6.393   7.838 -0.3199 -0.1810 -0.9205
  293MOL0     C38559   1.109   6.511   7.743  0.1476  0.5940  0.0151
  293MOL0     C38560   1.143   6.469   7.598  0.0165 -0.6578  0.5657
  293MOL0     N38561   1.059   6.366   7.528 -0.2232 -0.4875  0.0288
  293MOL0     C38562   1.079   6.236   7.538  0.1882 -1.1549 -0.0132
  293MOL0     C38563   1.009   6.178   7.437  0.4777  0.5963 -0.7425
  293MOL0     C38564   0.964   6.038   7.419 -0.5782  0.3506  0.4474
  293MOL0     C38565   1.078   5.959   7.363 -0.5204  0.3445  1.1225
  293MOL0     C38566   1.039   5.813   7.361  0.4723  0.4566  0.1844
  293MOL0     C38567   1.165   5.724   7.334  0.0831 -0.5443  0.4079
  293MOL0     O38568   1.126   5.586   7.345 -0.2669  0.0569  0.0798
  293MOL0     C38569   1.229   5.497   7.322  0.1266  0.1272 -0.1877
  293MOL0     C38570   1.246   5.401   7.424  1.2295 -0.4917  0.6913
  293MOL0     C38571   1.349   5.313   7.426  0.1153 -0.7126 -0.0147
  293MOL0     C38572   1.443   5.308   7.322 -0.5953 -0.1020 -0.0554
  293MOL0     C38573   1.556   5.219   7.317  0.3185 -0.0121 -0.1183
  293MOL0     O38574   1.630   5.216   7.204  0.6212  0.3445 -0.1258
  293MOL0     C38575   1.746   5.140   7.206  0.6554  0.2330 -0.6328
  293MOL0     C38576   1.843   5.122   7.314 -0.3932  0.1240 -0.8058
  293MOL0     C38577   1.963   5.051   7.301 -0.3873  0.0442  0.6134
  293MOL0     C38578   2.001   5.000   7.174 -0.3078 -0.5886  0.4224
  293MOL0     O38579   2.113   4.931   7.149 -0.1494  0.5334  0.2415
  293MOL0     C38580   2.216   4.910   7.257 -0.4706  0.0936  0.0537
  293MOL0     C38581   2.308   4.817   7.180  1.0737  0.1725 -0.0384
  293MOL0     C38582   2.436   4.803   7.266  0.2679  0.1630 -0.0293
  293MOL0     C38583   2.406   4.752   7.406 -0.3935  0.3647 -0.8476
  293MOL0     C38584   2.535   4.712   7.482  0.3100 -0.1161  0.0271
  293MOL0     C38585   2.616   4.834   7.525  0.2913 -0.0845 -0.0802
  293MOL0     C38586   2.753   4.808   7.595 -0.3297  0.7255  0.4689
  293MOL0     C38587   2.838   4.941   7.619  0.1350 -0.0882 -0.0505
  293MOL0    Cl38588   2.881   5.003   7.448  0.3302  0.6644  0.2943
  293MOL0     C38589   1.913   5.029   7.070  0.8306  0.0709 -0.4430
  293MOL0     C38590   1.792   5.092   7.082 -0.3027 -0.2308 -0.9425
  293MOL0     O38591   1.580   5.155   7.417 -0.0541  0.8081  0.1172
  293MOL0     C38592   1.433   5.404   7.224  0.1427 -0.6356 -0.2134
  293MOL0     C38593   1.319   5.494   7.221  0.4981  0.0792  0.3520
  293MOL0     N38594   0.957   6.280   7.361  0.1649 -0.4008 -0.0511
  293MOL0     N38595   0.981   6.389   7.418 -0.3183 -0.0594 -0.6525
  293MOL0     C38596   1.718   6.378   8.326  0.3515  0.3452 -0.1326
  293MOL0     C38597   1.842   6.340   8.372  0.2605 -0.9602  0.2060
  293MOL0     C38598   2.202   6.264   8.612  0.3269 -1.0430  0.0012
  293MOL0     C38599   2.277   6.143   8.613 -0.0392  0.9664 -0.7627
  293MOL0     C38600   2.408   6.140   8.663 -0.0503 -0.5173 -0.3503
  293MOL0     C38601   2.456   6.240   8.739  0.2548 -0.1148  0.4625
  293MOL0     O38602   2.580   6.218   8.799  0.4933 -0.3344  0.7118
  293MOL0     C38603   2.671   6.332   8.809  0.5697  0.2911  0.3077
  293MOL0     C38604   2.804   6.278   8.871  0.0473  0.0659 -0.1635
  293MOL0     C38605   2.869   6.362   8.983 -0.5651 -0.2074 -0.1254
  293MOL0     C38606   3.005   6.297   9.016  0.6713 -0.2189  0.4140
  293MOL0     C38607   3.044   6.299   9.157 -0.8305  0.0396  0.5014
  293MOL0     C38608   3.092   6.300   9.267 -0.1699 -0.2484  0.4859
  293MOL0     C38609   2.386   6.361   8.738  0.2042 -0.4667 -0.5811
  293MOL0     C38610   2.261   6.375   8.675 -0.6572 -0.3950 -0.8155
  293MOL0     H38611   1.873   6.588   8.602 -0.9876  0.5693 -0.3066
  293MOL0     H38612   1.632   6.636   8.516 -1.8023 -0.3328 -0.8765
  293MOL0     H38613   1.419   6.346   8.244  1.1420 -0.3954 -1.1649
  293MOL0     H38614   1.526   6.448   8.135 -1.2762  0.1099 -2.2198
  293MOL0     H38615   1.359   6.625   8.192  2.1088 -1.2836 -1.6070
  293MOL0     H38616   1.242   6.504   8.242  1.2310 -0.0883  2.5496
  293MOL0     H38617   1.392   6.512   7.980  0.1002  1.9382  1.8370
  293MOL0     H38618   1.222   6.562   7.993  0.0037  0.1294 -1.3088
  293MOL0     H38619   1.331   6.284   8.043  1.6077  1.1982 -1.7057
  293MOL0     H38620   1.164   6.332   8.088 -1.4102 -1.0377 -0.4136
  293MOL0     H38621   1.173   6.206   7.879  2.2039 -1.2894  1.7490
  293MOL0     H38622   1.283   6.314   7.805 -0.4743 -1.9593 -0.2646
  293MOL0     H38623   1.020   6.425   7.926 -0.6467 -0.9563 -0.8336
  293MOL0     H38624   1.010   6.319   7.790 -0.2125 -1.0827  0.2680
  293MOL0     H38625   1.026   6.583   7.751 -0.8359 -0.4531 -0.4398
  293MOL0     H38626   1.191   6.570   7.785  0.5851 -0.3750  0.5562
  293MOL0     H38627   1.243   6.425   7.593 -0.2303 -1.1234 -1.3669
  293MOL0     H38628   1.147   6.564   7.544  1.3699  0.3520  2.3309
  293MOL0     H38629   1.141   6.185   7.610  0.5324  1.9773  2.0944
  293MOL0     H38630   0.867   6.042   7.370 -1.5710  0.2746  2.3427
  293MOL0     H38631   0.941   6.000   7.519  0.1792  1.1415  0.9373
  293MOL0     H38632   1.163   5.977   7.429 -1.1042  0.5360  1.8369
  293MOL0     H38633   1.102   5.996   7.262  1.7966 -0.9120  1.1364
  293MOL0     H38634   1.003   5.787   7.461  0.8399  3.4602  1.2077
  293MOL0     H38635   0.960   5.794   7.287 -0.4814 -2.2769  1.7548
  293MOL0     H38636   1.255   5.747   7.391  1.9356  2.2366 -3.2305
  293MOL0     H38637   1.188   5.754   7.231 -3.9742  1.1625 -0.1979
  293MOL0     H38638   1.167   5.393   7.498  0.4718 -0.1839 -0.0702
  293MOL0     H38639   1.357   5.244   7.510 -0.1073 -0.0462  0.5581
  293MOL0     H38640   1.816   5.173   7.406 -3.9062 -1.0647 -1.0092
  293MOL0     H38641   2.033   5.033   7.381  2.2981  0.9705 -1.3678
  293MOL0     H38642   2.164   4.864   7.341 -0.9305  0.0962 -0.2272
  293MOL0     H38643   2.268   5.000   7.291 -0.4348  0.8519 -1.8626
  293MOL0     H38644   2.332   4.862   7.083 -0.7348  1.4479  0.0678
  293MOL0     H38645   2.245   4.728   7.185  1.1728  0.0849 -0.3411
  293MOL0     H38646   2.488   4.899   7.274  0.2915  0.2281 -0.8407
  293MOL0     H38647   2.502   4.730   7.219  2.4137  1.0845  1.4159
  293MOL0     H38648   2.360   4.833   7.463 -0.9856 -1.7924  1.9568
  293MOL0     H38649   2.343   4.663   7.401  2.8167 -2.1903  0.1570
  293MOL0     H38650   2.607   4.645   7.433 -1.1333 -2.2370  0.6919
  293MOL0     H38651   2.502   4.659   7.572 -1.6710 -0.6277 -0.9521
  293MOL0     H38652   2.557   4.902   7.587 -1.0105  0.6029 -2.0043
  293MOL0     H38653   2.645   4.880   7.431  4.7413 -2.6001 -0.2340
  293MOL0     H38654   2.732   4.749   7.685 -2.9906 -4.7552 -3.1352
  293MOL0     H38655   2.805   4.735   7.533  1.1079  1.0063  1.2958
  293MOL0     H38656   2.915   4.912   7.691  0.4504 -2.2980 -1.1892
  293MOL0     H38657   2.774   5.016   7.667 -0.2410 -1.0715  1.0388
  293MOL0     H38658   1.937   5.001   6.968  0.3244  0.4270 -0.6658
  293MOL0     H38659   1.728   5.110   6.996  0.8218  0.4029 -1.6767
  293MOL0     H38660   1.502   5.423   7.143 -0.9574  1.0201 -0.8035
  293MOL0     H38661   1.325   5.562   7.137  1.1476  1.4590  1.4701
  293MOL0     H38662   1.681   6.305   8.255 -1.8804 -0.8504  2.0855
  293MOL0     H38663   1.891   6.260   8.318  0.2773  0.3435 -1.8300
  293MOL0     H38664   2.231   6.063   8.556 -1.4207  1.9495 -1.0668
  293MOL0     H38665   2.461   6.046   8.653  1.3711  0.3867 -1.8442
  293MOL0     H38666   2.640   6.413   8.876 -0.9476 -0.8597  1.0527
  293MOL0     H38667   2.689   6.379   8.712  1.3929 -0.7656 -0.0642
  293MOL0     H38668   2.776   6.178   8.906  0.2005 -0.2681 -0.9638
  293MOL0     H38669   2.869   6.273   8.783 -0.7329  2.5568 -0.9526
  293MOL0     H38670   2.795   6.362   9.064  0.4549 -2.0403  0.8691
  293MOL0     H38671   2.890   6.462   8.946  1.1396 -0.7243 -0.6613
  293MOL0     H38672   3.005   6.188   9.002  0.2285 -0.4773  2.2785
  293MOL0     H38673   3.085   6.338   8.953  1.6532  1.8079  2.8202
  293MOL0     H38674   3.147   6.320   9.357  1.1141  2.5112 -0.7863
  293MOL0     H38675   2.426   6.440   8.800 -1.6565  0.8652 -0.9761
  293MOL0     H38676   2.223   6.476   8.680 -0.2890 -0.2243 -1.3979
  294MOL0     O38677   5.545   8.374   7.741  0.5359 -0.0920 -0.1229
  294MOL0     C38678   5.567   8.385   7.863  0.2557  1.3171 -0.7278
  294MOL0     O38679   5.475   8.416   7.954 -0.5048 -0.1158 -0.1203
  294MOL0     C38680   5.346   8.430   7.907 -0.2390  0.1151 -0.4460
  294MOL0     C38681   5.295   8.541   7.841  0.4441 -0.0869  0.1875
  294MOL0     C38682   5.163   8.557   7.790 -0.2985  0.1448 -0.0457
  294MOL0     C38683   5.073   8.448   7.802  0.1407  0.2576 -0.1752
  294MOL0     O38684   4.945   8.448   7.749 -0.1239 -0.1684 -0.3051
  294MOL0     C38685   4.901   8.541   7.648 -0.3053  0.5556  0.4894
  294MOL0     C38686   4.772   8.507   7.589  0.0595 -0.0040 -0.5363
  294MOL0     C38687   4.657   8.547   7.684  0.3937  0.6237  0.0222
  294MOL0     C38688   4.515   8.504   7.636 -0.1280 -0.0256  0.6010
  294MOL0     C38689   4.410   8.571   7.723 -0.0388  0.6518  0.6951
  294MOL0     C38690   4.289   8.535   7.642  0.6437 -0.6780  0.0781
  294MOL0     C38691   4.168   8.570   7.721 -0.3960 -0.1911 -0.2192
  294MOL0     C38692   4.033   8.524   7.649  0.3452 -0.3323 -0.7022
  294MOL0     N38693   3.909   8.576   7.719  0.5779  0.0620  0.2602
  294MOL0     C38694   3.829   8.516   7.815 -0.5538 -0.3778 -0.5658
  294MOL0     C38695   3.726   8.608   7.825  0.2680 -0.0441  0.5399
  294MOL0     C38696   3.608   8.614   7.915 -0.3248  0.2773  0.7361
  294MOL0     C38697   3.644   8.689   8.041  0.4916 -0.1302 -0.1631
  294MOL0     C38698   3.529   8.708   8.136  0.1269  0.3566 -0.8277
  294MOL0     C38699   3.559   8.800   8.251 -0.0741 -0.3236 -0.0035
  294MOL0     O38700   3.471   8.785   8.360  0.1807 -0.2045 -0.2360
  294MOL0     C38701   3.342   8.832   8.342 -0.1477  0.2189  0.0504
  294MOL0     C38702   3.246   8.794   8.440 -0.2768  0.8136 -0.2688
  294MOL0     C38703   3.113   8.819   8.429  0.0149  0.3352 -0.0191
  294MOL0     C38704   3.074   8.914   8.325 -0.0929  1.2377 -0.1457
  294MOL0     C38705   2.936   8.943   8.308 -0.2900 -0.4839 -0.6675
  294MOL0     O38706   2.851   8.853   8.363  0.6693 -0.8436  0.0116
  294MOL0     C38707   2.713   8.888   8.341  0.5442 -0.2912 -0.9082
  294MOL0     C38708   2.634   8.916   8.453  0.2692 -0.6772 -0.0871
  294MOL0     C38709   2.494   8.927   8.436 -1.4506  0.0062 -0.1891
  294MOL0     C38710   2.432   8.895   8.323  0.5956 -0.8261 -1.1010
  294MOL0     O38711   2.301   8.936   8.313  0.2050 -0.4384  0.1698
  294MOL0     C38712   2.226   8.864   8.221  0.5914 -0.2778 -0.4134
  294MOL0     C38713   2.070   8.858   8.244 -1.0053  0.3837 -0.0725
  294MOL0     C38714   2.004   8.990   8.215 -0.3284 -0.1974 -0.5047
  294MOL0     C38715   1.848   8.977   8.235 -0.6778  0.0196  0.3146
  294MOL0     C38716   1.784   8.890   8.126  0.3597 -0.2921  0.3452
  294MOL0     C38717   1.627   8.914   8.120 -1.5471 -0.1484 -0.0930
  294MOL0     C38718   1.563   8.834   8.001 -1.0591  1.1173 -0.1294
  294MOL0     C38719   1.605   8.889   7.865  0.0572 -0.0178 -0.2988
  294MOL0    Cl38720   1.461   8.852   7.767  0.1799  0.2035 -0.5054
  294MOL0     C38721   2.511   8.875   8.210 -0.7920 -0.2319  1.0207
  294MOL0     C38722   2.649   8.875   8.219 -0.5486 -0.4794  0.1478
  294MOL0     O38723   2.902   9.040   8.234 -0.5382  0.6684 -0.2620
  294MOL0     C38724   3.168   8.969   8.232 -0.2923  0.2197 -0.4935
  294MOL0     C38725   3.300   8.925   8.245  0.2011 -0.3355 -0.1480
  294MOL0     N38726   3.741   8.713   7.733  0.3388 -0.5650  0.0157
  294MOL0     N38727   3.853   8.695   7.671 -1.0160 -0.8052 -0.1242
  294MOL0     C38728   5.118   8.336   7.869  0.0180 -0.1588 -1.1252
  294MOL0     C38729   5.253   8.327   7.920  0.0000 -0.3572  0.0572
  294MOL0     C38730   5.715   8.367   7.902 -1.0348  0.5751 -0.0117
  294MOL0     C38731   5.797   8.299   7.812 -0.3011 -0.3586  0.1244
  294MOL0     C38732   5.931   8.298   7.832  0.5411  0.3394  0.0181
  294MOL0     C38733   5.987   8.328   7.957  0.2574 -0.2553 -0.2437
  294MOL0     O38734   6.123   8.311   7.973  0.2628  0.6159 -0.3340
  294MOL0     C38735   6.178   8.332   8.100  0.2562 -0.1258 -0.3636
  294MOL0     C38736   6.301   8.254   8.104 -0.6597 -0.5472 -0.7261
  294MOL0     C38737   6.389   8.278   7.975 -0.1491 -0.1445  0.7295
  294MOL0     C38738   6.525   8.204   7.965  0.8698 -0.0589 -0.0854
  294MOL0     C38739   6.614   8.283   8.048 -0.3079 -1.3250  0.4420
  294MOL0     C38740   6.687   8.356   8.113  0.2673  0.1793 -0.7921
  294MOL0     C38741   5.903   8.383   8.053 -0.1057  0.0229 -0.5255
  294MOL0     C38742   5.780   8.417   8.020 -0.0322  0.4430 -0.2232
  294MOL0     H38743   5.355   8.628   7.818 -1.2766  0.9385 -0.6519
  294MOL0     H38744   5.130   8.655   7.758 -1.0692 -0.1868 -0.2840
  294MOL0     H38745   4.967   8.541   7.561 -0.6096  1.6065  0.2445
  294MOL0     H38746   4.910   8.642   7.687  0.3867  0.9049 -0.5286
  294MOL0     H38747   4.759   8.399   7.572 -0.2153  0.1068 -1.0594
  294MOL0     H38748   4.743   8.562   7.498 -0.0939 -0.0152 -0.4952
  294MOL0     H38749   4.663   8.656   7.691 -0.7308  0.6647  0.6645
  294MOL0     H38750   4.675   8.494   7.778 -4.5096 -1.0406  0.3017
  294MOL0     H38751   4.512   8.528   7.529  0.2772  4.2569  1.3554
  294MOL0     H38752   4.504   8.396   7.645  1.1991 -0.6275 -3.2074
  294MOL0     H38753   4.426   8.678   7.734  0.7183  0.5487  0.6733
  294MOL0     H38754   4.411   8.527   7.824 -0.6188  1.2789  0.9777
  294MOL0     H38755   4.295   8.426   7.632  0.5578 -0.8502  1.6342
  294MOL0     H38756   4.293   8.595   7.551  0.0207  0.4536  0.7792
  294MOL0     H38757   4.183   8.525   7.819  0.0510  1.2546  0.4057
  294MOL0     H38758   4.183   8.674   7.753  0.3470 -0.6010  0.8105
  294MOL0     H38759   4.031   8.417   7.630 -0.9045 -0.1713 -1.6388
  294MOL0     H38760   4.029   8.566   7.548  0.2954 -0.1266 -0.6164
  294MOL0     H38761   3.845   8.428   7.876 -1.9404  0.4112  1.0028
  294MOL0     H38762   3.586   8.508   7.932  0.1501 -0.0760 -0.6851
  294MOL0     H38763   3.522   8.654   7.861  2.1863  1.7598 -2.5267
  294MOL0     H38764   3.677   8.787   8.007  0.5765  0.3557  1.2306
  294MOL0     H38765   3.728   8.640   8.092 -0.8376  0.8056  3.2431
  294MOL0     H38766   3.445   8.747   8.078 -1.4489  0.2289  1.2253
  294MOL0     H38767   3.492   8.613   8.177 -0.0423  1.1570  0.9861
  294MOL0     H38768   3.562   8.904   8.218  2.1686 -0.0313  0.8988
  294MOL0     H38769   3.660   8.770   8.282  0.1204 -0.5013 -0.8022
  294MOL0     H38770   3.286   8.732   8.519  2.2591  1.2705 -1.0932
  294MOL0     H38771   3.046   8.782   8.507  0.5171 -1.3497 -0.3307
  294MOL0     H38772   2.669   8.910   8.555  1.5219 -0.2134 -0.4725
  294MOL0     H38773   2.449   8.969   8.525 -1.4851 -0.7969  0.1876
  294MOL0     H38774   2.264   8.761   8.227  0.4892 -0.2465  1.4221
  294MOL0     H38775   2.243   8.911   8.124  2.6504  0.8743  0.4303
  294MOL0     H38776   2.057   8.824   8.347  0.2159  0.0617 -0.0103
  294MOL0     H38777   2.023   8.782   8.180  0.5379 -0.7442  0.0793
  294MOL0     H38778   2.026   9.024   8.113 -1.2405 -0.7267 -0.8856
  294MOL0     H38779   2.042   9.066   8.284 -0.8080  0.8311 -1.3499
  294MOL0     H38780   1.829   8.932   8.332  1.1007 -1.9236 -0.1781
  294MOL0     H38781   1.814   9.081   8.243 -0.6269  0.2095 -1.4717
  294MOL0     H38782   1.803   8.784   8.147  1.3310 -1.3791 -4.5941
  294MOL0     H38783   1.826   8.921   8.030  1.0000  5.5350  2.1444
  294MOL0     H38784   1.595   9.019   8.114 -2.5364 -0.4704 -0.9119
  294MOL0     H38785   1.579   8.875   8.210 -0.5727  2.8500  1.8876
  294MOL0     H38786   1.595   8.730   7.997 -0.6990  1.1663  1.1197
  294MOL0     H38787   1.455   8.827   8.019 -0.7068 -0.4166  1.6428
  294MOL0     H38788   1.703   8.849   7.838  1.4868  1.3838  2.3918
  294MOL0     H38789   1.616   8.998   7.867  1.5354 -0.1490  1.0773
  294MOL0     H38790   2.466   8.856   8.113 -0.1666  0.7871  0.5254
  294MOL0     H38791   2.711   8.845   8.135  1.1609 -2.4068  1.9951
  294MOL0     H38792   3.136   9.048   8.165 -0.0057  1.4413  0.7611
  294MOL0     H38793   3.361   8.978   8.173  0.3584  0.8446  0.8088
  294MOL0     H38794   5.054   8.255   7.902 -1.9025  0.6298 -2.7224
  294MOL0     H38795   5.274   8.241   7.983 -4.4484 -2.7952 -1.3255
  294MOL0     H38796   5.763   8.260   7.717  2.7639 -1.4559 -0.6400
  294MOL0     H38797   5.991   8.254   7.753  0.3360 -0.2100  0.1607
  294MOL0     H38798   6.126   8.303   8.191  0.3549  2.3918  0.5875
  294MOL0     H38799   6.193   8.438   8.123  1.7160 -0.4242  0.2285
  294MOL0     H38800   6.347   8.303   8.190 -3.7172  1.9176 -0.3013
  294MOL0     H38801   6.279   8.151   8.134 -0.7799  0.4738  3.1928
  294MOL0     H38802   6.414   8.383   7.958  1.5458 -0.7333 -0.6934
  294MOL0     H38803   6.324   8.245   7.893 -0.3695  2.7828 -0.3990
  294MOL0     H38804   6.530   8.104   8.008 -0.8107  1.2089  3.4225
  294MOL0     H38805   6.557   8.208   7.860 -1.2107 -2.2438 -0.8909
  294MOL0     H38806   6.740   8.426   8.174  0.7707 -1.3712  0.6252
  294MOL0     H38807   5.936   8.402   8.154 -2.7860  2.9728 -0.0225
  294MOL0     H38808   5.715   8.465   8.092  1.3738  0.2475  1.2223
  295MOL0     O38809   9.518   0.253   8.308  0.0918  0.1936  0.0717
  295MOL0     C38810   9.538   0.348   8.387  0.4781 -0.4879  0.1662
  295MOL0     O38811   9.458   0.461   8.407  0.2917  0.8558  0.2189
  295MOL0     C38812   9.336   0.458   8.335 -0.0293  0.4668  0.0508
  295MOL0     C38813   9.314   0.443   8.195  0.5352 -0.4788  0.6645
  295MOL0     C38814   9.190   0.462   8.142 -0.2175  0.4504 -0.1535
  295MOL0     C38815   9.082   0.506   8.224 -0.1379  0.4707 -0.2993
  295MOL0     O38816   8.952   0.528   8.188  0.4575  0.1724 -0.1327
  295MOL0     C38817   8.916   0.554   8.052 -0.1266 -0.3153  0.7076
  295MOL0     C38818   8.771   0.584   8.030 -0.1203  0.1247  0.2933
  295MOL0     C38819   8.731   0.594   7.880 -0.3568  0.1720  0.3540
  295MOL0     C38820   8.579   0.585   7.872  0.3065  0.0793 -0.1568
  295MOL0     C38821   8.529   0.674   7.761 -0.1782  0.4450  1.4420
  295MOL0     C38822   8.392   0.633   7.716  0.2505 -0.2400 -0.9924
  295MOL0     C38823   8.362   0.700   7.591 -0.8706 -1.0337  0.0136
  295MOL0     C38824   8.233   0.637   7.531 -0.9798 -0.1513 -0.0085
  295MOL0     N38825   8.194   0.709   7.411  0.1797  0.5940  0.5235
  295MOL0     C38826   8.287   0.735   7.308  1.1049 -0.2961 -0.0654
  295MOL0     C38827   8.212   0.812   7.218  0.4820 -0.0393 -0.7671
  295MOL0     C38828   8.247   0.858   7.082 -0.6337  0.1997  0.0703
  295MOL0     C38829   8.199   1.003   7.064  0.1307  0.5047  0.2325
  295MOL0     C38830   8.255   1.064   6.932  0.0148  0.0317 -0.5352
  295MOL0     C38831   8.205   1.208   6.898  0.6322  0.9485  0.1435
  295MOL0     O38832   8.247   1.280   6.785  0.3077 -0.0705  0.4422
  295MOL0     C38833   8.377   1.312   6.767  0.6264 -0.4176  0.1640
  295MOL0     C38834   8.473   1.301   6.859 -0.7426 -1.1509  0.3572
  295MOL0     C38835   8.611   1.322   6.822  0.2064 -0.3262 -0.8411
  295MOL0     C38836   8.650   1.347   6.693  0.8114  0.1828  0.1119
  295MOL0     C38837   8.786   1.343   6.646  0.1555 -0.1635  0.3286
  295MOL0     O38838   8.827   1.420   6.535 -0.1347 -0.1828 -0.6810
  295MOL0     C38839   8.946   1.405   6.475 -0.3787 -0.6428 -0.6515
  295MOL0     C38840   9.009   1.287   6.458  0.6754  0.8262  0.2487
  295MOL0     C38841   9.120   1.285   6.380 -0.4347  0.0913 -0.0175
  295MOL0     C38842   9.180   1.402   6.327 -0.4775  0.2935 -0.3225
  295MOL0     O38843   9.281   1.385   6.236 -0.2593 -0.1466  0.2620
  295MOL0     C38844   9.379   1.492   6.220 -0.5091  0.2228  0.1609
  295MOL0     C38845   9.512   1.434   6.164 -0.3012 -0.0730 -0.0197
  295MOL0     C38846   9.579   1.352   6.275 -0.2805 -0.2884 -0.6476
  295MOL0     C38847   9.726   1.343   6.254 -0.0914  0.6465  0.2203
  295MOL0     C38848   9.788   1.234   6.338 -0.2341  0.1003 -0.8027
  295MOL0     C38849   9.944   1.206   6.292 -0.7748  0.3751 -0.3438
  295MOL0     C38850  10.015   1.116   6.394  0.2781 -0.1285  0.7091
  295MOL0     C38851  10.167   1.114   6.406  0.0497 -0.3904  0.1504
  295MOL0    Cl38852  10.224   1.075   6.243  0.5750  0.7272 -0.3266
  295MOL0     C38853   9.121   1.526   6.355 -0.7386  0.1733  0.8347
  295MOL0     C38854   9.008   1.527   6.429  0.1512  0.7140 -0.0796
  295MOL0     O38855   8.858   1.281   6.717 -0.3664 -0.5359 -0.3544
  295MOL0     C38856   8.545   1.379   6.606 -0.6567  0.0333 -0.0463
  295MOL0     C38857   8.415   1.359   6.638  0.7626  0.2249 -0.4323
  295MOL0     N38858   8.083   0.816   7.261  0.6062  0.1048 -0.1378
  295MOL0     N38859   8.071   0.756   7.376  0.6306  0.4789  0.4810
  295MOL0     C38860   9.111   0.535   8.356 -0.1202  0.4945  0.2485
  295MOL0     C38861   9.235   0.521   8.412  0.2686  0.6656 -0.0617
  295MOL0     C38862   9.665   0.349   8.466  0.1161  0.1630 -0.3109
  295MOL0     C38863   9.691   0.451   8.559  0.2646 -0.0073  0.2385
  295MOL0     C38864   9.810   0.456   8.631 -0.2124 -0.1043 -0.1753
  295MOL0     C38865   9.902   0.353   8.622  0.2748 -0.9333 -0.2844
  295MOL0     O38866  10.009   0.340   8.701 -0.1180  0.0081 -0.6059
  295MOL0     C38867  10.042   0.449   8.799 -0.3618 -0.3226 -0.2276
  295MOL0     C38868  10.168   0.410   8.874  0.3514  0.0610  0.6162
  295MOL0     C38869  10.132   0.306   8.980 -1.0559  1.1130 -0.0805
  295MOL0     C38870  10.243   0.222   9.029 -0.8048  0.5285 -0.3401
  295MOL0     C38871  10.337   0.306   9.099 -0.3539 -0.2314  0.3823
  295MOL0     C38872  10.426   0.368   9.149  0.6834  0.4138 -0.0088
  295MOL0     C38873   9.867   0.242   8.539  0.0399  0.4326 -0.3007
  295MOL0     C38874   9.761   0.246   8.453 -0.1008 -0.0589  0.0872
  295MOL0     H38875   9.392   0.420   8.123  1.9927 -1.0903  2.3714
  295MOL0     H38876   9.179   0.449   8.034 -1.9219  2.5133 -0.2985
  295MOL0     H38877   8.942   0.462   7.998 -1.2550 -0.5235  0.4999
  295MOL0     H38878   8.970   0.642   8.016 -0.1777 -1.0262 -1.2550
  295MOL0     H38879   8.754   0.684   8.073  0.4491  1.0013 -1.4111
  295MOL0     H38880   8.706   0.512   8.081 -1.9511 -1.1402 -3.4706
  295MOL0     H38881   8.779   0.513   7.824  0.8555  2.8008 -2.6855
  295MOL0     H38882   8.769   0.684   7.830 -0.4884 -0.9586 -1.9013
  295MOL0     H38883   8.543   0.484   7.850  0.8045 -0.2654  0.5612
  295MOL0     H38884   8.531   0.610   7.967  1.7637 -1.2884  0.9879
  295MOL0     H38885   8.605   0.669   7.682 -0.6217  1.7999  0.9076
  295MOL0     H38886   8.540   0.782   7.773  2.4213  0.2622  1.4434
  295MOL0     H38887   8.321   0.675   7.788  2.2031  2.7217 -0.6380
  295MOL0     H38888   8.381   0.526   7.694  0.8979 -0.6711  0.6002
  295MOL0     H38889   8.341   0.804   7.617 -1.2743 -1.7308  2.8799
  295MOL0     H38890   8.442   0.685   7.518  0.9049  0.0543  1.6207
  295MOL0     H38891   8.154   0.623   7.606  0.3171  1.1815  1.7102
  295MOL0     H38892   8.264   0.539   7.492  1.0235  1.6702 -3.5174
  295MOL0     H38893   8.388   0.695   7.304  0.7405 -1.2054 -0.3218
  295MOL0     H38894   8.200   0.791   7.011 -1.4720 -2.1508  2.6614
  295MOL0     H38895   8.354   0.854   7.060 -0.9982 -0.7200 -1.6904
  295MOL0     H38896   8.213   1.073   7.147 -5.5084  1.4527  0.7923
  295MOL0     H38897   8.090   0.999   7.048  0.0410 -0.0118  0.9474
  295MOL0     H38898   8.364   1.060   6.926 -0.0289 -1.3461 -0.7597
  295MOL0     H38899   8.217   1.004   6.849  0.6616  1.2282 -1.7347
  295MOL0     H38900   8.228   1.268   6.987 -2.3077 -1.1851  2.5743
  295MOL0     H38901   8.096   1.208   6.887  0.7404 -2.2639 -2.1956
  295MOL0     H38902   8.455   1.265   6.960  0.5223 -1.2465  0.5641
  295MOL0     H38903   8.688   1.304   6.896 -1.2919  0.1004  0.8622
  295MOL0     H38904   8.966   1.194   6.492  0.5146  0.3630 -1.1384
  295MOL0     H38905   9.172   1.198   6.341  0.3357  2.3233 -4.6228
  295MOL0     H38906   9.402   1.541   6.315  0.6377  1.5610 -0.7585
  295MOL0     H38907   9.335   1.564   6.150  3.0387  1.1816 -1.3046
  295MOL0     H38908   9.574   1.522   6.147 -0.7943  0.3063  0.0940
  295MOL0     H38909   9.491   1.371   6.077 -2.4000 -0.3899  0.6431
  295MOL0     H38910   9.536   1.251   6.276 -2.7482  0.6974  0.5446
  295MOL0     H38911   9.570   1.392   6.376  0.8201  0.1374 -0.7095
  295MOL0     H38912   9.747   1.317   6.149  0.9544  2.0893  0.0518
  295MOL0     H38913   9.767   1.442   6.274  1.1208  0.8383 -2.6344
  295MOL0     H38914   9.730   1.142   6.324 -0.2705  0.2209 -1.4903
  295MOL0     H38915   9.775   1.274   6.439  1.0724  2.6178 -1.5483
  295MOL0     H38916  10.008   1.294   6.284  2.4940 -1.9330 -1.5394
  295MOL0     H38917   9.947   1.168   6.189  1.3636  3.1324 -1.4305
  295MOL0     H38918   9.976   1.139   6.494 -1.5806 -3.5759  0.9365
  295MOL0     H38919   9.981   1.012   6.383  1.7593 -0.5104 -0.6940
  295MOL0     H38920  10.199   1.048   6.487 -1.4304  0.2794  1.3190
  295MOL0     H38921  10.209   1.215   6.419  0.3507 -0.5088  0.1156
  295MOL0     H38922   9.152   1.616   6.303 -0.9911  1.0163  2.1256
  295MOL0     H38923   8.956   1.618   6.456 -1.1252 -0.1637  0.5514
  295MOL0     H38924   8.575   1.397   6.503 -1.5335  1.9327 -0.0036
  295MOL0     H38925   8.334   1.370   6.566 -0.3479 -1.5374  0.4572
  295MOL0     H38926   9.028   0.567   8.418 -0.6971  0.7474 -0.6518
  295MOL0     H38927   9.252   0.534   8.518  0.0825 -1.8805  0.3397
  295MOL0     H38928   9.628   0.539   8.569  0.1373  0.4583 -3.4880
  295MOL0     H38929   9.833   0.532   8.704  2.3228 -1.8390  0.9584
  295MOL0     H38930   9.958   0.468   8.867  1.1655 -1.6633  2.1516
  295MOL0     H38931  10.077   0.534   8.739  0.4581  0.8113  1.7669
  295MOL0     H38932  10.238   0.365   8.804  0.0241 -0.8881  0.8873
  295MOL0     H38933  10.218   0.495   8.921 -1.6418  1.5066  0.2900
  295MOL0     H38934  10.061   0.233   8.941  0.0236 -0.4246  0.7614
  295MOL0     H38935  10.090   0.352   9.070  0.7914 -2.1759  2.7007
  295MOL0     H38936  10.209   0.139   9.092  0.0147 -0.5715 -1.2971
  295MOL0     H38937  10.303   0.179   8.948  1.6078  1.3532  0.8977
  295MOL0     H38938  10.513   0.425   9.177  0.8288  0.4353 -0.5096
  295MOL0     H38939   9.941   0.163   8.533  0.5163  0.8001  0.5397
  295MOL0     H38940   9.739   0.173   8.376 -0.9868  2.3872 -2.1017
  296MOL0     O38941  10.158   5.468   0.788  0.6094  0.1659 -0.2092
  296MOL0     C38942  10.215   5.560   0.736 -0.4433 -0.2286 -0.0606
  296MOL0     O38943  10.166   5.678   0.680  0.0644  0.3394 -0.2548
  296MOL0     C38944  10.036   5.690   0.668 -0.5470  0.4001  0.4255
  296MOL0     C38945   9.961   5.787   0.736 -0.5745  0.2670 -0.3860
  296MOL0     C38946   9.822   5.789   0.726  0.0401 -1.5539 -0.0345
  296MOL0     C38947   9.751   5.699   0.644  0.3635 -0.5917 -0.0756
  296MOL0     O38948   9.621   5.718   0.628  0.0341  0.2067 -0.0253
  296MOL0     C38949   9.546   5.650   0.526  1.1194  0.2266 -0.3340
  296MOL0     C38950   9.406   5.718   0.540  0.1796 -0.2300  0.8632
  296MOL0     C38951   9.323   5.682   0.418  0.2629  0.0850  0.3774
  296MOL0     C38952   9.177   5.733   0.438 -0.3665  0.1044 -0.1149
  296MOL0     C38953   9.104   5.723   0.310 -0.1372 -0.5223 -0.1129
  296MOL0     C38954   8.983   5.817   0.305  0.0873  0.4368 -0.3238
  296MOL0     C38955   8.942   5.854   0.154 -0.6549 -0.1206 -0.6729
  296MOL0     C38956   8.860   5.749   0.074 -0.1967  1.0094 -0.0960
  296MOL0     N38957   8.842   5.777  -0.070  0.4245 -0.8541  0.3613
  296MOL0     C38958   8.789   5.893  -0.119 -0.7837 -0.9355 -0.1895
  296MOL0     C38959   8.811   5.888  -0.250  0.2991 -0.1778 -0.1322
  296MOL0     C38960   8.755   5.984  -0.353 -0.8566 -0.4124  0.5519
  296MOL0     C38961   8.605   5.992  -0.367  1.0296 -0.7222  0.2602
  296MOL0     C38962   8.569   6.032  -0.511 -0.0073 -0.5834  0.9031
  296MOL0     C38963   8.421   6.058  -0.526 -0.3303  0.0541  0.0638
  296MOL0     O38964   8.384   6.178  -0.462 -0.1834 -0.3757 -0.6421
  296MOL0     C38965   8.250   6.206  -0.477  0.0747  1.2983 -0.3685
  296MOL0     C38966   8.204   6.311  -0.406 -1.2764  0.4607  0.0238
  296MOL0     C38967   8.078   6.356  -0.395  1.1092  0.1450 -0.3340
  296MOL0     C38968   7.974   6.272  -0.458  0.1503 -0.1531  0.6118
  296MOL0     C38969   7.831   6.316  -0.450 -0.3919 -0.2687  0.3534
  296MOL0     O38970   7.754   6.245  -0.531  0.4240  0.3669 -0.2683
  296MOL0     C38971   7.615   6.271  -0.533  0.6090  0.8496  0.0834
  296MOL0     C38972   7.547   6.397  -0.531 -0.3656 -0.5056 -0.6349
  296MOL0     C38973   7.415   6.407  -0.533  1.2518 -0.6553  0.8610
  296MOL0     C38974   7.328   6.292  -0.543 -0.0357  0.5470  1.0170
  296MOL0     O38975   7.195   6.295  -0.557 -0.2037 -0.1076 -0.0167
  296MOL0     C38976   7.131   6.254  -0.438 -0.4950  0.2159 -0.1443
  296MOL0     C38977   6.991   6.322  -0.420 -0.9719  0.4023 -0.6395
  296MOL0     C38978   6.909   6.243  -0.322  0.1519 -0.0785 -0.7529
  296MOL0     C38979   6.783   6.311  -0.282  0.0186 -0.0328 -0.1288
  296MOL0     C38980   6.681   6.215  -0.213 -0.6397  0.1611 -0.2882
  296MOL0     C38981   6.543   6.270  -0.186 -0.1575  0.4296  0.1179
  296MOL0     C38982   6.472   6.167  -0.097  0.1476  0.0056 -0.8717
  296MOL0     C38983   6.328   6.208  -0.086  0.2138  0.2579  0.3529
  296MOL0    Cl38984   6.319   6.346   0.028 -0.0835 -0.1686 -0.3790
  296MOL0     C38985   7.395   6.158  -0.538  0.6574  0.4170 -0.2413
  296MOL0     C38986   7.534   6.156  -0.537 -1.0733 -0.0457 -0.3713
  296MOL0     O38987   7.793   6.399  -0.374 -0.5267 -0.2482 -0.6934
  296MOL0     C38988   8.018   6.155  -0.530  0.0430  0.0615  0.5034
  296MOL0     C38989   8.150   6.113  -0.535  0.5226  0.2503 -0.5893
  296MOL0     N38990   8.888   5.780  -0.275 -1.0586  0.1482  0.5467
  296MOL0     N38991   8.910   5.711  -0.168 -0.5264 -0.1649 -0.6431
  296MOL0     C38992   9.829   5.601   0.574  0.5234 -0.2245  0.2312
  296MOL0     C38993   9.964   5.596   0.588 -0.5160 -0.5203  0.5269
  296MOL0     C38994  10.362   5.543   0.729 -0.1423 -0.0130  0.6099
  296MOL0     C38995  10.432   5.434   0.787  0.0376  0.1208  0.0322
  296MOL0     C38996  10.570   5.433   0.787 -0.0117 -0.1070  0.2755
  296MOL0     C38997  10.643   5.521   0.708 -0.2842 -0.1056 -0.0890
  296MOL0     O38998  10.779   5.508   0.693  0.9365 -0.2937 -0.9575
  296MOL0     C38999  10.850   5.623   0.722  0.4493 -0.8795  0.4960
  296MOL0     C39000  10.998   5.595   0.729 -0.5159 -0.2723  0.0431
  296MOL0     C39001  11.049   5.558   0.593 -0.6644  0.4329 -0.0692
  296MOL0     C39002  11.202   5.560   0.589 -0.3593  0.1289  0.4906
  296MOL0     C39003  11.257   5.697   0.578  0.0725 -0.1719 -0.1760
  296MOL0     C39004  11.284   5.812   0.582 -0.2304  0.0802 -0.0802
  296MOL0     C39005  10.571   5.617   0.634 -0.1117 -0.8516  0.6069
  296MOL0     C39006  10.431   5.637   0.649 -1.0438  0.1089 -0.4382
  296MOL0     H39007  10.004   5.850   0.813  1.6197 -1.6479  0.0337
  296MOL0     H39008   9.759   5.855   0.785  0.1586 -1.1587 -0.3392
  296MOL0     H39009   9.543   5.544   0.550  1.3984  0.8816  3.0472
  296MOL0     H39010   9.593   5.663   0.427  0.1266 -1.5448 -1.0789
  296MOL0     H39011   9.424   5.825   0.529 -0.7149 -0.3396 -2.5197
  296MOL0     H39012   9.350   5.680   0.626 -1.8796 -1.2164 -0.8313
  296MOL0     H39013   9.322   5.573   0.418  2.6611 -0.1899 -4.0535
  296MOL0     H39014   9.377   5.724   0.332 -0.4850 -1.9758 -1.1817
  296MOL0     H39015   9.129   5.667   0.511  1.3491 -1.0880 -0.0258
  296MOL0     H39016   9.174   5.836   0.475  2.0576  0.5209 -0.9363
  296MOL0     H39017   9.075   5.618   0.299  2.1338 -1.4994  2.2147
  296MOL0     H39018   9.177   5.744   0.231  0.3891 -1.0928  0.2074
  296MOL0     H39019   9.007   5.910   0.357 -0.3622  1.8082 -2.4458
  296MOL0     H39020   8.894   5.771   0.350  1.9565 -2.6602  0.5311
  296MOL0     H39021   8.893   5.951   0.148  0.8563  0.8379  1.3374
  296MOL0     H39022   9.034   5.867   0.098 -0.3478  0.8556  0.0449
  296MOL0     H39023   8.762   5.732   0.119  0.4132 -2.2185  0.2890
  296MOL0     H39024   8.905   5.649   0.073 -2.0116  0.0715 -3.1180
  296MOL0     H39025   8.739   5.972  -0.063  1.2345 -1.1099  2.0232
  296MOL0     H39026   8.805   5.953  -0.445  1.5744 -2.3387  2.3899
  296MOL0     H39027   8.792   6.084  -0.328  3.4980 -1.8479  0.6405
  296MOL0     H39028   8.579   6.078  -0.304 -0.9793  0.4143 -1.9764
  296MOL0     H39029   8.557   5.900  -0.332 -2.0390  0.7814  0.3770
  296MOL0     H39030   8.638   6.113  -0.536 -1.7364  0.4220 -0.8541
  296MOL0     H39031   8.594   5.942  -0.568  1.9798  0.9726 -0.8308
  296MOL0     H39032   8.365   5.978  -0.478 -0.4989 -0.2444 -0.6175
  296MOL0     H39033   8.390   6.060  -0.631  0.0904 -2.9043 -0.2025
  296MOL0     H39034   8.280   6.371  -0.357  2.8330 -4.2403  0.2093
  296MOL0     H39035   8.059   6.451  -0.346 -2.1673 -0.5041 -0.1529
  296MOL0     H39036   7.599   6.493  -0.537 -2.2079  0.5782 -0.0428
  296MOL0     H39037   7.377   6.508  -0.535  0.6823 -0.8690  0.3336
  296MOL0     H39038   7.192   6.286  -0.353  4.2112  0.3188 -3.1987
  296MOL0     H39039   7.129   6.145  -0.444  1.1705  0.0889  0.8934
  296MOL0     H39040   6.936   6.314  -0.514 -0.1893  1.4735 -1.2145
  296MOL0     H39041   7.002   6.422  -0.376 -0.0435 -2.0275  5.8885
  296MOL0     H39042   6.963   6.237  -0.227  4.8174  1.3971 -2.9932
  296MOL0     H39043   6.896   6.142  -0.361  2.6810 -0.1156 -1.7134
  296MOL0     H39044   6.803   6.398  -0.218  2.6246  0.1391 -1.0322
  296MOL0     H39045   6.732   6.348  -0.371 -0.8598 -0.5366  0.1560
  296MOL0     H39046   6.726   6.195  -0.116  0.2703  2.1912 -0.2578
  296MOL0     H39047   6.669   6.113  -0.253 -1.4650  0.2524 -0.2991
  296MOL0     H39048   6.483   6.284  -0.277 -1.6481 -0.0845  0.9745
  296MOL0     H39049   6.552   6.365  -0.133  1.6358 -1.3434  3.2425
  296MOL0     H39050   6.478   6.063  -0.131 -1.6788 -0.8831  1.2689
  296MOL0     H39051   6.517   6.167   0.003 -4.4591  1.9069  1.5328
  296MOL0     H39052   6.264   6.124  -0.058  0.8362 -0.2468  0.2731
  296MOL0     H39053   6.289   6.244  -0.181 -2.1402 -0.6339  0.9091
  296MOL0     H39054   7.340   6.065  -0.548 -0.1315  0.9046 -0.6010
  296MOL0     H39055   7.579   6.058  -0.551  0.2540  0.3835  0.6903
  296MOL0     H39056   7.949   6.099  -0.591  0.9969 -0.5638 -0.0183
  296MOL0     H39057   8.161   6.022  -0.593 -1.4682  0.5439 -1.4934
  296MOL0     H39058   9.781   5.546   0.494 -0.7017  0.1091  0.7070
  296MOL0     H39059  10.024   5.522   0.538 -1.4425 -1.3427  0.5997
  296MOL0     H39060  10.379   5.352   0.835 -1.5675  1.0827 -0.0319
  296MOL0     H39061  10.624   5.362   0.849  1.8692  0.4204 -0.6631
  296MOL0     H39062  10.814   5.653   0.821 -2.9251 -3.1115  0.1371
  296MOL0     H39063  10.842   5.710   0.657  1.7019 -0.3535  1.0087
  296MOL0     H39064  11.057   5.679   0.767 -0.2499 -0.6058  0.3654
  296MOL0     H39065  11.023   5.511   0.794  1.6705  0.0876 -0.2455
  296MOL0     H39066  11.011   5.624   0.515  1.1531  1.6580  0.0216
  296MOL0     H39067  11.021   5.454   0.574  1.5931 -0.0602 -0.9754
  296MOL0     H39068  11.230   5.506   0.679 -0.1062  0.0726  0.3793
  296MOL0     H39069  11.247   5.504   0.506 -0.0670 -1.4438  1.6538
  296MOL0     H39070  11.315   5.913   0.598 -0.1762 -0.2919  2.6957
  296MOL0     H39071  10.628   5.678   0.565 -0.1512 -2.0724 -0.5309
  296MOL0     H39072  10.381   5.708   0.583 -0.9113  0.8625  0.2630
  297MOL0     O39073   2.098   0.736   8.497  0.3320  0.6853 -0.3021
  297MOL0     C39074   2.182   0.647   8.477  0.4604 -0.5640  1.1646
  297MOL0     O39075   2.162   0.515   8.500 -0.6303  0.2548 -1.0881
  297MOL0     C39076   2.038   0.462   8.524 -1.0072 -0.5161 -0.6933
  297MOL0     C39077   1.919   0.519   8.464  0.4826  0.2638  0.5550
  297MOL0     C39078   1.795   0.487   8.504  1.1230  0.6035 -0.0724
  297MOL0     C39079   1.786   0.394   8.607  0.2446  1.1226 -0.2066
  297MOL0     O39080   1.664   0.345   8.641 -0.4882  0.5807 -0.5239
  297MOL0     C39081   1.575   0.443   8.695  0.5147  0.2461  0.0169
  297MOL0     C39082   1.438   0.382   8.727 -0.4246  0.1190  0.4927
  297MOL0     C39083   1.445   0.278   8.844 -0.3251 -0.2838  0.0874
  297MOL0     C39084   1.302   0.237   8.865 -0.0961 -0.5513 -0.3169
  297MOL0     C39085   1.269   0.194   9.012 -0.5819  0.6758  0.4237
  297MOL0     C39086   1.123   0.144   9.043  0.1957 -0.1532  0.6561
  297MOL0     C39087   1.087   0.018   8.955 -0.3116 -0.5702 -0.3312
  297MOL0     C39088   0.950  -0.046   8.987 -0.5933  0.5167 -0.1841
  297MOL0     N39089   0.835   0.043   8.944 -0.5411  0.2745  0.1756
  297MOL0     C39090   0.767   0.022   8.828  0.0156 -0.3297 -0.3363
  297MOL0     C39091   0.658   0.113   8.822  0.0544 -0.1739 -0.1805
  297MOL0     C39092   0.563   0.139   8.711  0.3521 -0.7177  0.3799
  297MOL0     C39093   0.433   0.190   8.766  0.8387 -0.5168 -0.2782
  297MOL0     C39094   0.352   0.276   8.666 -0.6191  1.1380  0.3813
  297MOL0     C39095   0.218   0.304   8.715 -0.5126 -0.0450 -0.1755
  297MOL0     O39096   0.209   0.371   8.840  0.6566 -0.6242  0.3015
  297MOL0     C39097   0.084   0.421   8.893 -0.2967 -1.0438 -0.2358
  297MOL0     C39098  -0.035   0.377   8.829  0.1080  0.2042 -0.4439
  297MOL0     C39099  -0.162   0.405   8.883  0.4324  0.5292  0.6013
  297MOL0     C39100  -0.173   0.477   9.006  0.0858 -0.7017 -0.0261
  297MOL0     C39101  -0.303   0.493   9.072 -0.5673 -1.1329  0.4410
  297MOL0     O39102  -0.306   0.595   9.160 -0.4267 -0.1216 -0.2367
  297MOL0     C39103  -0.427   0.621   9.219  0.8735 -0.6636  0.3110
  297MOL0     C39104  -0.469   0.549   9.330 -0.1770 -0.1729 -0.0911
  297MOL0     C39105  -0.593   0.583   9.382  0.7096  0.4838 -0.4787
  297MOL0     C39106  -0.669   0.687   9.334 -0.2473  0.0110  0.8769
  297MOL0     O39107  -0.797   0.719   9.379  0.9655 -0.3561  0.3930
  297MOL0     C39108  -0.865   0.641   9.484  0.8809  0.1215 -0.6434
  297MOL0     C39109  -0.907   0.496   9.438 -0.2161 -0.5865 -0.6500
  297MOL0     C39110  -0.994   0.440   9.547  0.3297  0.2920  0.0615
  297MOL0     C39111  -1.143   0.462   9.523 -1.0846  0.0567 -0.1796
  297MOL0     C39112  -1.214   0.406   9.653 -0.5446  0.0952  0.2666
  297MOL0     C39113  -1.365   0.398   9.636 -0.3523 -0.4903 -0.1952
  297MOL0     C39114  -1.437   0.377   9.764 -0.1620  0.2507  0.1398
  297MOL0     C39115  -1.589   0.381   9.754 -0.4731  0.4104  0.5904
  297MOL0    Cl39116  -1.677   0.350   9.901  0.3348  0.0200 -0.3480
  297MOL0     C39117  -0.623   0.761   9.218  0.3070 -0.0784  0.0743
  297MOL0     C39118  -0.496   0.732   9.172 -0.3958  1.1965 -0.2066
  297MOL0     O39119  -0.403   0.440   9.027  0.7313  0.2137 -0.4420
  297MOL0     C39120  -0.055   0.539   9.061 -0.2843  0.4983  0.1464
  297MOL0     C39121   0.069   0.506   9.008  0.0606  0.0894  0.6445
  297MOL0     N39122   0.682   0.193   8.936 -0.0556 -0.3803  0.2010
  297MOL0     N39123   0.780   0.148   9.003 -0.3276 -0.8795 -0.5145
  297MOL0     C39124   1.898   0.325   8.658 -0.2129  0.0985  0.3349
  297MOL0     C39125   2.026   0.361   8.621  0.4120  0.5894  0.2643
  297MOL0     C39126   2.322   0.689   8.433 -0.1018  0.2362 -0.2090
  297MOL0     C39127   2.355   0.822   8.400 -0.0783  1.0722 -0.3268
  297MOL0     C39128   2.482   0.856   8.356 -0.8466 -0.0744 -0.0544
  297MOL0     C39129   2.589   0.759   8.352  0.8932 -0.0178 -0.4565
  297MOL0     O39130   2.723   0.781   8.333 -0.4771  0.4822 -0.3665
  297MOL0     C39131   2.751   0.910   8.264 -0.6208 -0.1454  0.4905
  297MOL0     C39132   2.896   0.905   8.190  0.7084 -0.5248 -0.6500
  297MOL0     C39133   3.009   0.892   8.294  0.7209 -0.1006  0.7120
  297MOL0     C39134   3.120   0.803   8.245  0.4302 -0.4811 -0.2713
  297MOL0     C39135   3.065   0.666   8.241  0.4195 -0.3709 -0.1152
  297MOL0     C39136   3.004   0.566   8.253 -0.2270  0.3724 -0.0540
  297MOL0     C39137   2.553   0.629   8.382 -0.5216 -0.2131 -0.6565
  297MOL0     C39138   2.426   0.597   8.427  0.3401  0.7047  0.8511
  297MOL0     H39139   1.914   0.593   8.385 -3.6075  0.1813  0.5228
  297MOL0     H39140   1.710   0.541   8.463  0.8866  2.0150  2.1240
  297MOL0     H39141   1.560   0.514   8.613 -1.2209 -1.0491 -0.8421
  297MOL0     H39142   1.615   0.495   8.783  0.9336  3.5179 -1.9611
  297MOL0     H39143   1.393   0.338   8.638  2.2826 -1.3678 -0.2613
  297MOL0     H39144   1.380   0.469   8.760 -1.0433  0.1501 -0.6239
  297MOL0     H39145   1.483   0.328   8.934 -3.0496  1.9152  0.1882
  297MOL0     H39146   1.507   0.194   8.814 -3.0443 -2.6844  0.7310
  297MOL0     H39147   1.236   0.322   8.848 -0.3588 -0.3814  1.3362
  297MOL0     H39148   1.277   0.165   8.787  0.8220 -1.0655 -0.1487
  297MOL0     H39149   1.288   0.285   9.069 -1.2079  0.8159  0.4158
  297MOL0     H39150   1.333   0.113   9.051 -0.8957  0.4024  0.3727
  297MOL0     H39151   1.054   0.227   9.026 -2.3173 -1.8093  2.0335
  297MOL0     H39152   1.097   0.125   9.148 -1.8069  1.9398  0.6166
  297MOL0     H39153   1.094   0.037   8.847 -1.3192 -0.5858 -0.4137
  297MOL0     H39154   1.162  -0.058   8.975 -1.0357 -0.4690  3.5649
  297MOL0     H39155   0.946  -0.061   9.095  1.4683 -0.5294 -0.1928
  297MOL0     H39156   0.943  -0.137   8.925  1.6801 -0.7950  1.3512
  297MOL0     H39157   0.781  -0.052   8.750 -0.9221  0.7991 -1.6271
  297MOL0     H39158   0.543   0.055   8.645 -1.2523 -0.1507  0.0982
  297MOL0     H39159   0.605   0.214   8.643  0.9740  0.0116  1.5388
  297MOL0     H39160   0.449   0.248   8.857 -0.0215 -1.8273  0.7587
  297MOL0     H39161   0.385   0.097   8.801  2.0135 -0.1822  2.5308
  297MOL0     H39162   0.407   0.368   8.645  0.1735  0.1464 -2.3672
  297MOL0     H39163   0.333   0.233   8.567 -0.8786  2.4866 -0.1696
  297MOL0     H39164   0.171   0.205   8.725  3.5932 -2.2276 -0.2208
  297MOL0     H39165   0.166   0.367   8.642  1.7147  0.4061 -1.4739
  297MOL0     H39166  -0.034   0.316   8.739 -0.6990  1.8640 -1.6384
  297MOL0     H39167  -0.255   0.365   8.843  1.1051  0.1195 -0.6177
  297MOL0     H39168  -0.407   0.466   9.362  2.1250  1.7559  0.7135
  297MOL0     H39169  -0.619   0.514   9.463  4.1746 -0.1778  0.2433
  297MOL0     H39170  -0.949   0.701   9.518  0.9788  0.0543 -0.2821
  297MOL0     H39171  -0.800   0.635   9.572 -0.1964  0.8558  0.2219
  297MOL0     H39172  -0.819   0.431   9.435 -1.1996 -1.8989 -1.7181
  297MOL0     H39173  -0.960   0.509   9.344 -0.0929  1.9011 -0.4560
  297MOL0     H39174  -0.963   0.483   9.642 -0.2545  1.1089 -0.1113
  297MOL0     H39175  -0.968   0.334   9.556  2.8494  0.7789 -0.7653
  297MOL0     H39176  -1.161   0.568   9.503  1.3470  0.8297  1.4024
  297MOL0     H39177  -1.184   0.397   9.445 -0.6857  2.3517 -2.4205
  297MOL0     H39178  -1.187   0.464   9.742 -1.6489 -0.4133  0.9537
  297MOL0     H39179  -1.179   0.306   9.681  1.8174  0.5338 -0.8958
  297MOL0     H39180  -1.400   0.320   9.567 -1.4183 -0.1941 -0.0100
  297MOL0     H39181  -1.384   0.498   9.596  0.9053  0.2286  0.9401
  297MOL0     H39182  -1.415   0.281   9.811 -0.6469  0.5954  1.0891
  297MOL0     H39183  -1.396   0.452   9.832 -0.0468  1.0857 -0.8322
  297MOL0     H39184  -1.628   0.317   9.674 -2.3849  1.0821  0.9312
  297MOL0     H39185  -1.617   0.481   9.720 -0.2382  0.1266 -0.4749
  297MOL0     H39186  -0.673   0.846   9.173  1.1317 -0.4772 -1.7154
  297MOL0     H39187  -0.446   0.797   9.101  1.4654  0.5727  0.4832
  297MOL0     H39188  -0.045   0.601   9.150  1.9403 -0.9980  1.0348
  297MOL0     H39189   0.160   0.543   9.055 -0.1632  0.8435  0.5063
  297MOL0     H39190   1.876   0.242   8.724 -2.2234  0.8288  0.6447
  297MOL0     H39191   2.100   0.293   8.661 -1.2801 -1.6270 -0.1920
  297MOL0     H39192   2.279   0.901   8.400 -0.0056  1.1426 -0.1501
  297MOL0     H39193   2.507   0.957   8.324 -0.2866 -0.4998 -1.0084
  297MOL0     H39194   2.750   0.991   8.338  2.6689 -0.2561  0.8083
  297MOL0     H39195   2.679   0.934   8.186  1.4084 -1.1577 -1.8132
  297MOL0     H39196   2.897   0.825   8.115  0.6204 -0.7416 -0.4211
  297MOL0     H39197   2.903   1.001   8.138 -0.5386 -1.0792 -1.9391
  297MOL0     H39198   2.971   0.850   8.388  2.6765 -1.3798  0.9803
  297MOL0     H39199   3.053   0.992   8.302  1.3974  0.1229 -3.6614
  297MOL0     H39200   3.153   0.852   8.153 -1.3457  3.3184  0.8772
  297MOL0     H39201   3.206   0.818   8.311 -0.0389  2.1749 -0.1438
  297MOL0     H39202   2.957   0.470   8.259 -0.1624  0.3653  0.3695
  297MOL0     H39203   2.636   0.559   8.376  1.5619  1.9795  0.5914
  297MOL0     H39204   2.406   0.492   8.442 -0.1326  0.7825  0.7801
  298MOL0     O39205   0.559   9.005   1.966  0.2682 -0.1092 -0.0224
  298MOL0     C39206   0.641   8.937   1.902 -1.0974 -0.0664 -1.4141
  298MOL0     O39207   0.671   8.809   1.924 -0.4014  0.1033  0.2847
  298MOL0     C39208   0.625   8.758   2.044  0.6682 -0.4827 -0.0929
  298MOL0     C39209   0.510   8.698   2.058 -0.5747  0.1566  0.4638
  298MOL0     C39210   0.475   8.631   2.178  0.2927  0.3344  0.1711
  298MOL0     C39211   0.567   8.629   2.282 -0.7517  0.0645 -0.2120
  298MOL0     O39212   0.544   8.576   2.405  0.8952  0.0919  0.2182
  298MOL0     C39213   0.408   8.561   2.434  0.3607 -0.5868 -0.6484
  298MOL0     C39214   0.374   8.515   2.577  0.0478 -0.0169  0.0396
  298MOL0     C39215   0.223   8.496   2.601 -0.5688  0.1736 -0.0699
  298MOL0     C39216   0.202   8.457   2.751  0.0798  0.3029  0.2169
  298MOL0     C39217   0.052   8.427   2.783 -0.1454 -0.4446  0.0021
  298MOL0     C39218  -0.036   8.550   2.779  1.0918  0.3419 -0.6547
  298MOL0     C39219  -0.175   8.501   2.830 -0.6771 -0.0160 -0.4055
  298MOL0     C39220  -0.271   8.611   2.810  0.0325  0.0629 -0.4621
  298MOL0     N39221  -0.405   8.583   2.879 -0.4976  0.5625 -0.0820
  298MOL0     C39222  -0.528   8.553   2.821  0.1504  0.6013  0.3047
  298MOL0     C39223  -0.621   8.543   2.917 -0.9694  0.0672 -0.0442
  298MOL0     C39224  -0.777   8.535   2.895 -1.0101 -0.6143 -0.0156
  298MOL0     C39225  -0.847   8.532   3.031  0.7132 -0.1331  0.0230
  298MOL0     C39226  -0.995   8.487   3.007  0.0897  0.2480 -0.2896
  298MOL0     C39227  -1.082   8.538   3.122  0.8209  0.6219 -0.4302
  298MOL0     O39228  -1.213   8.489   3.099  0.8376 -0.3586 -0.7668
  298MOL0     C39229  -1.324   8.536   3.159 -0.8671 -0.1127  0.4908
  298MOL0     C39230  -1.436   8.466   3.121  0.0335  0.2131 -0.7377
  298MOL0     C39231  -1.559   8.499   3.188  0.2402 -0.4617 -0.2923
  298MOL0     C39232  -1.574   8.613   3.269  0.5270 -0.3987  0.4691
  298MOL0     C39233  -1.714   8.642   3.331  0.4823 -0.0877  0.3252
  298MOL0     O39234  -1.716   8.730   3.434 -0.0857 -0.3928  0.3091
  298MOL0     C39235  -1.829   8.748   3.503 -0.3871  1.1302  0.6402
  298MOL0     C39236  -1.847   8.694   3.628  0.0337 -0.8414 -0.1677
  298MOL0     C39237  -1.971   8.708   3.690 -0.2715 -0.0789 -0.3740
  298MOL0     C39238  -2.084   8.780   3.635 -0.5427  0.5731 -0.1092
  298MOL0     O39239  -2.209   8.786   3.682  0.7524  0.2232  0.5564
  298MOL0     C39240  -2.260   8.702   3.787 -0.0496 -0.8285  0.4497
  298MOL0     C39241  -2.400   8.735   3.830  0.0438  0.0795 -0.0713
  298MOL0     C39242  -2.503   8.670   3.723  0.3368 -0.6771  0.3523
  298MOL0     C39243  -2.656   8.708   3.749 -0.2221  0.0810 -0.0028
  298MOL0     C39244  -2.761   8.636   3.674 -0.5983  0.3232  0.1788
  298MOL0     C39245  -2.743   8.632   3.519  0.6096  0.1801 -0.4489
  298MOL0     C39246  -2.853   8.568   3.435 -0.6869 -0.4099 -0.8568
  298MOL0     C39247  -2.835   8.594   3.286  0.6287  0.0775 -0.9266
  298MOL0    Cl39248  -2.829   8.779   3.266 -0.4630 -0.0401 -0.1792
  298MOL0     C39249  -2.051   8.836   3.510  0.4814  0.1651 -0.4021
  298MOL0     C39250  -1.928   8.826   3.443 -0.7687  0.2467  0.1628
  298MOL0     O39251  -1.813   8.580   3.286  0.4593 -0.0733  0.5635
  298MOL0     C39252  -1.462   8.688   3.300 -0.9207 -0.1330  1.8779
  298MOL0     C39253  -1.334   8.641   3.248  0.4578 -0.3852 -0.2160
  298MOL0     N39254  -0.549   8.550   3.035 -0.1222  0.0463  0.0015
  298MOL0     N39255  -0.423   8.582   3.011  0.3060  0.0522 -0.1264
  298MOL0     C39256   0.693   8.696   2.276 -0.5996  0.8257  0.0206
  298MOL0     C39257   0.719   8.761   2.154  0.6763 -0.2425  0.4688
  298MOL0     C39258   0.716   9.004   1.791 -0.4949  0.5305 -0.1676
  298MOL0     C39259   0.699   9.138   1.744  0.2855  0.5365  0.3170
  298MOL0     C39260   0.750   9.173   1.620  0.8280  0.4295  0.9836
  298MOL0     C39261   0.843   9.091   1.549  1.1057  0.3724  0.5174
  298MOL0     O39262   0.900   9.126   1.428  0.1080  0.4666  0.3135
  298MOL0     C39263   0.828   9.185   1.319  1.1712  0.2621 -0.0532
  298MOL0     C39264   0.710   9.090   1.275  0.4818  0.0352  0.2573
  298MOL0     C39265   0.748   8.964   1.187 -0.2271 -0.4443 -0.1890
  298MOL0     C39266   0.873   8.874   1.239  0.0418 -0.0948 -0.3639
  298MOL0     C39267   0.905   8.778   1.126 -0.2578  0.1682 -0.3742
  298MOL0     C39268   0.904   8.720   1.018  0.2852  0.7468  0.4056
  298MOL0     C39269   0.886   8.971   1.605  0.0131  0.3775  1.0220
  298MOL0     C39270   0.816   8.926   1.717  0.1274 -0.0915  0.6395
  298MOL0     H39271   0.438   8.705   1.978  1.8056  0.6554 -1.7729
  298MOL0     H39272   0.376   8.586   2.183  1.3017 -2.0576 -0.0185
  298MOL0     H39273   0.354   8.491   2.370 -3.3979  3.1015 -1.8503
  298MOL0     H39274   0.368   8.662   2.428 -1.1493 -1.0958  0.3689
  298MOL0     H39275   0.408   8.592   2.647 -1.0819 -0.0320  0.6370
  298MOL0     H39276   0.422   8.420   2.598 -2.2951 -1.6215 -1.3205
  298MOL0     H39277   0.198   8.411   2.537  2.2777  0.2741 -1.4714
  298MOL0     H39278   0.167   8.585   2.572 -0.6444  0.5046  1.0184
  298MOL0     H39279   0.250   8.360   2.765  0.5045  0.4353 -0.2903
  298MOL0     H39280   0.246   8.527   2.823  0.9296  1.6219 -1.5290
  298MOL0     H39281   0.049   8.382   2.882 -0.4475  1.2983  0.8255
  298MOL0     H39282   0.010   8.355   2.712  1.9429 -0.2973 -1.4751
  298MOL0     H39283  -0.049   8.594   2.680  0.9174  0.2462 -0.6730
  298MOL0     H39284   0.000   8.626   2.849 -0.3826  0.4081  0.0662
  298MOL0     H39285  -0.204   8.410   2.775 -1.8313 -0.2730  0.5788
  298MOL0     H39286  -0.160   8.477   2.935 -1.0730 -1.5155 -0.6633
  298MOL0     H39287  -0.287   8.616   2.702  1.0454  2.4494 -0.5729
  298MOL0     H39288  -0.237   8.706   2.851 -2.5419  0.3562  1.2158
  298MOL0     H39289  -0.555   8.540   2.717  2.6162 -0.4248 -0.2803
  298MOL0     H39290  -0.798   8.446   2.836  0.7645 -1.1603  0.1109
  298MOL0     H39291  -0.800   8.624   2.834 -2.1719  1.0409  2.6662
  298MOL0     H39292  -0.847   8.631   3.078 -1.5059 -1.6155  3.5991
  298MOL0     H39293  -0.800   8.463   3.102 -1.2022 -1.3609  0.1671
  298MOL0     H39294  -1.028   8.530   2.912  0.0442 -1.7202 -1.2143
  298MOL0     H39295  -1.014   8.379   3.002 -3.3713  0.5694  1.9350
  298MOL0     H39296  -1.077   8.646   3.138  0.8062  0.5665 -0.0512
  298MOL0     H39297  -1.044   8.497   3.215  2.6861 -0.3165 -1.5541
  298MOL0     H39298  -1.437   8.376   3.060  3.1978 -1.4417  1.3859
  298MOL0     H39299  -1.638   8.428   3.164  1.0115 -2.1589  1.8149
  298MOL0     H39300  -1.764   8.637   3.669 -1.3508 -0.7727  2.9802
  298MOL0     H39301  -1.981   8.656   3.785 -0.8801  0.6645 -0.0233
  298MOL0     H39302  -2.197   8.707   3.876  0.5296  2.0623 -0.0004
  298MOL0     H39303  -2.259   8.599   3.750 -1.1847 -0.6566 -0.1220
  298MOL0     H39304  -2.412   8.844   3.833  0.9051  0.2482 -1.6543
  298MOL0     H39305  -2.422   8.694   3.929 -1.5166 -1.0523 -0.8541
  298MOL0     H39306  -2.497   8.561   3.723 -0.2942 -0.7355  2.0696
  298MOL0     H39307  -2.485   8.702   3.620  0.7893 -1.1088  0.2939
  298MOL0     H39308  -2.688   8.692   3.853 -0.1138 -2.4683 -0.3127
  298MOL0     H39309  -2.670   8.815   3.733 -2.0555 -0.2753 -1.0524
  298MOL0     H39310  -2.860   8.678   3.691 -1.2946 -0.6161 -1.3155
  298MOL0     H39311  -2.762   8.531   3.706 -2.6548  1.3433  4.1003
  298MOL0     H39312  -2.648   8.586   3.491  0.5377  0.5248 -1.3018
  298MOL0     H39313  -2.735   8.738   3.493  0.8533  0.9637  2.4339
  298MOL0     H39314  -2.857   8.460   3.453  2.5946 -0.6742 -1.0871
  298MOL0     H39315  -2.942   8.621   3.469  0.4123  0.6229  0.5069
  298MOL0     H39316  -2.922   8.562   3.229 -0.7183  0.8449  0.6218
  298MOL0     H39317  -2.740   8.549   3.256  0.4486 -0.8604 -0.1446
  298MOL0     H39318  -2.121   8.903   3.461  1.1299  1.7664  0.7731
  298MOL0     H39319  -1.914   8.877   3.348  0.8822  3.5815  2.0361
  298MOL0     H39320  -1.447   8.768   3.372  0.1142  2.6135 -1.1488
  298MOL0     H39321  -1.245   8.691   3.285  1.2516  0.9597 -3.5234
  298MOL0     H39322   0.760   8.693   2.362  0.4561 -0.1664 -0.8091
  298MOL0     H39323   0.811   8.817   2.140  0.6949 -0.4070 -0.0798
  298MOL0     H39324   0.632   9.200   1.803 -2.5602 -3.0900  1.2602
  298MOL0     H39325   0.741   9.277   1.588  2.4441  0.2713 -0.0921
  298MOL0     H39326   0.898   9.201   1.237  1.4471 -0.1819  0.0907
  298MOL0     H39327   0.798   9.281   1.364  2.2734 -0.9188  3.5851
  298MOL0     H39328   0.649   9.065   1.363 -0.8644  1.6800 -0.1595
  298MOL0     H39329   0.650   9.152   1.207  1.0144 -0.5023 -0.7249
  298MOL0     H39330   0.779   9.005   1.090  2.7405  1.9473  1.5958
  298MOL0     H39331   0.664   8.894   1.183 -0.4480 -0.2830  1.1657
  298MOL0     H39332   0.959   8.932   1.274  0.2541 -1.1575  0.9935
  298MOL0     H39333   0.831   8.824   1.328  0.2036 -2.9772 -1.7713
  298MOL0     H39334   0.911   8.658   0.931  0.2392 -1.2444  1.7478
  298MOL0     H39335   0.964   8.916   1.554 -0.4897 -0.2564  0.9238
  298MOL0     H39336   0.860   8.831   1.745  1.0637  0.0566 -0.3035
  299MOL0     O39337   4.126   4.162   5.392 -0.4294 -0.3447 -0.5603
  299MOL0     C39338   4.152   4.149   5.277  0.1563  0.4835 -0.8006
  299MOL0     O39339   4.056   4.155   5.182 -0.1267  0.4118 -0.0084
  299MOL0     C39340   3.928   4.171   5.226 -0.0600 -0.1540 -0.5684
  299MOL0     C39341   3.847   4.266   5.155  0.0305  0.5884  0.0599
  299MOL0     C39342   3.717   4.296   5.197  0.3138  0.2017 -0.4056
  299MOL0     C39343   3.655   4.210   5.295  0.4044 -0.0064  0.1077
  299MOL0     O39344   3.525   4.219   5.337 -0.1255  0.6081  0.1165
  299MOL0     C39345   3.445   4.258   5.225  1.1502 -0.4048  0.3919
  299MOL0     C39346   3.301   4.231   5.266  0.3097  0.3127 -0.4030
  299MOL0     C39347   3.249   4.089   5.260 -0.0537  0.0290  1.0716
  299MOL0     C39348   3.137   4.054   5.355  0.6724 -0.2853  0.2013
  299MOL0     C39349   3.171   4.071   5.506 -0.0833 -0.1797  0.2989
  299MOL0     C39350   3.040   4.051   5.586  0.6992 -0.4170 -0.1872
  299MOL0     C39351   3.071   4.041   5.745  0.0783  0.2790  0.6947
  299MOL0     C39352   2.948   3.992   5.826  0.0664 -0.5117  0.0905
  299MOL0     N39353   2.934   3.848   5.800 -0.4576  0.1104 -0.8629
  299MOL0     C39354   3.019   3.749   5.844 -0.2595  0.1461 -1.0530
  299MOL0     C39355   2.971   3.631   5.784  0.9518 -1.4794 -0.4385
  299MOL0     C39356   3.029   3.494   5.823  1.0490 -0.0302  0.3356
  299MOL0     C39357   2.968   3.439   5.953 -0.2218  0.2324  1.4086
  299MOL0     C39358   2.820   3.396   5.969  0.2343 -0.6730  0.3913
  299MOL0     C39359   2.759   3.329   5.842  0.1125  0.2234 -0.1869
  299MOL0     O39360   2.624   3.294   5.847  0.1362  0.3244  0.3070
  299MOL0     C39361   2.535   3.396   5.868  0.2785  0.3788  0.2966
  299MOL0     C39362   2.406   3.372   5.916 -0.6223 -0.1155  0.4824
  299MOL0     C39363   2.320   3.467   5.971  0.2293 -0.1379  0.0049
  299MOL0     C39364   2.346   3.603   5.967  0.4996 -0.6936 -0.0716
  299MOL0     C39365   2.254   3.695   6.030  0.1675 -0.9966 -0.1665
  299MOL0     O39366   2.125   3.646   6.051  0.5715  0.4907  0.4054
  299MOL0     C39367   2.040   3.723   6.123  0.7825 -0.4799  0.3869
  299MOL0     C39368   2.001   3.679   6.246  0.0810 -0.0065 -0.0788
  299MOL0     C39369   1.934   3.762   6.334  0.3740  0.4876  0.3947
  299MOL0     C39370   1.894   3.886   6.295  0.2633 -0.4691  0.1784
  299MOL0     O39371   1.816   3.943   6.389 -0.3664  0.2813  0.3121
  299MOL0     C39372   1.733   4.050   6.347  0.2388 -0.2833 -0.8764
  299MOL0     C39373   1.613   4.009   6.258 -0.3430  0.6417 -0.5296
  299MOL0     C39374   1.530   3.896   6.325 -0.1056  0.1617 -0.5107
  299MOL0     C39375   1.416   3.836   6.242  0.2055 -0.6844 -0.2227
  299MOL0     C39376   1.314   3.947   6.211  0.9903 -0.3285 -1.0368
  299MOL0     C39377   1.210   3.881   6.122 -0.0697 -1.0851  0.3796
  299MOL0     C39378   1.101   3.988   6.092 -0.0611  0.1857  0.3233
  299MOL0     C39379   0.988   3.933   6.017  0.7299 -0.3946 -0.0678
  299MOL0    Cl39380   0.891   3.824   6.119 -0.3187  0.2325 -0.0098
  299MOL0     C39381   1.921   3.931   6.161 -0.4584 -1.1627  0.0820
  299MOL0     C39382   2.003   3.851   6.074  0.3231 -0.3444 -0.2745
  299MOL0     O39383   2.287   3.814   6.051 -0.6521 -0.0414  0.4940
  299MOL0     C39384   2.466   3.637   5.913  0.4568 -0.0865 -0.8297
  299MOL0     C39385   2.564   3.539   5.869 -0.7129 -0.2130 -0.4465
  299MOL0     N39386   2.860   3.663   5.708  0.0413  0.1294 -0.7160
  299MOL0     N39387   2.837   3.790   5.729 -0.6692  0.6534  0.1376
  299MOL0     C39388   3.732   4.111   5.354  0.5824  0.6899  0.4466
  299MOL0     C39389   3.868   4.092   5.322  0.1421  0.1226  0.5142
  299MOL0     C39390   4.291   4.110   5.237  0.6336 -0.3796  0.5144
  299MOL0     C39391   4.384   4.067   5.333 -0.0928  1.0215 -0.2442
  299MOL0     C39392   4.514   4.036   5.298  0.3388 -0.4345 -0.0220
  299MOL0     C39393   4.551   4.042   5.157 -0.5181 -0.1992 -0.2435
  299MOL0     O39394   4.665   3.996   5.102  0.2020 -0.4150 -0.4032
  299MOL0     C39395   4.773   3.964   5.188 -0.0860 -0.0796  0.5795
  299MOL0     C39396   4.880   3.908   5.097  0.2619 -0.0275  0.1099
  299MOL0     C39397   5.003   3.871   5.164 -0.4807  0.1362 -0.1819
  299MOL0     C39398   5.083   3.770   5.078  0.1595  0.2967 -0.4585
  299MOL0     C39399   5.167   3.837   4.978 -0.8015 -0.5297  0.5128
  299MOL0     C39400   5.226   3.892   4.886 -0.0587 -1.3760 -0.2208
  299MOL0     C39401   4.459   4.087   5.056  0.0852  0.0777 -0.2342
  299MOL0     C39402   4.331   4.114   5.101  0.0013 -0.4306 -0.0098
  299MOL0     H39403   3.896   4.305   5.067 -1.1516 -2.2248 -1.9837
  299MOL0     H39404   3.666   4.379   5.148 -0.6086 -0.8270 -1.2664
  299MOL0     H39405   3.467   4.194   5.139  0.7010  1.8838 -1.5403
  299MOL0     H39406   3.452   4.365   5.202 -2.2494 -0.6450 -2.6216
  299MOL0     H39407   3.240   4.296   5.202  0.1378 -0.9367 -1.5375
  299MOL0     H39408   3.285   4.274   5.366  0.4855 -1.5506  0.4648
  299MOL0     H39409   3.340   4.034   5.284 -0.9571 -2.9245 -1.5411
  299MOL0     H39410   3.217   4.082   5.155 -1.3912  0.4400  1.4317
  299MOL0     H39411   3.051   4.118   5.336  1.0679  0.6260  1.3571
  299MOL0     H39412   3.101   3.952   5.339  0.4733 -0.7451  3.0067
  299MOL0     H39413   3.204   4.174   5.524  0.9043 -0.1358 -1.5265
  299MOL0     H39414   3.243   3.995   5.537  0.0544  0.3341  1.2746
  299MOL0     H39415   2.986   3.961   5.555 -1.1073  0.2990  0.7302
  299MOL0     H39416   2.974   4.137   5.575 -0.1988 -1.0844 -0.1584
  299MOL0     H39417   3.156   3.974   5.761 -1.2978 -1.5866  0.4976
  299MOL0     H39418   3.102   4.144   5.768  2.3529 -0.0012 -0.7609
  299MOL0     H39419   2.854   4.044   5.804  0.2168 -0.2103  0.1541
  299MOL0     H39420   2.971   4.001   5.932  2.4355  0.8037 -0.4659
  299MOL0     H39421   3.102   3.753   5.914 -1.8991 -0.8353  1.0787
  299MOL0     H39422   3.136   3.500   5.844  1.0245 -1.7032  1.0804
  299MOL0     H39423   3.001   3.430   5.738 -2.3150  0.3234  1.0421
  299MOL0     H39424   2.985   3.513   6.032 -1.9236  2.0022  0.1981
  299MOL0     H39425   3.040   3.360   5.978 -1.0334 -0.5903  1.2129
  299MOL0     H39426   2.806   3.323   6.049 -1.4322  0.2459  0.9878
  299MOL0     H39427   2.756   3.480   5.999  0.8164  0.2792 -0.9265
  299MOL0     H39428   2.824   3.243   5.819 -1.6232 -1.4952  1.0386
  299MOL0     H39429   2.778   3.393   5.755 -3.9642  1.0051 -0.6746
  299MOL0     H39430   2.379   3.267   5.926  1.6158 -0.5150  3.7191
  299MOL0     H39431   2.232   3.434   6.025  0.8848  1.3223  2.1154
  299MOL0     H39432   2.030   3.581   6.282  1.2446  0.9224  1.6648
  299MOL0     H39433   1.898   3.716   6.425 -0.5859  0.6561  0.1068
  299MOL0     H39434   1.794   4.128   6.301 -1.1813  1.9916  0.9001
  299MOL0     H39435   1.703   4.098   6.441  1.4435  2.9635 -2.0484
  299MOL0     H39436   1.652   3.976   6.162 -0.5760  2.0094 -1.1101
  299MOL0     H39437   1.559   4.104   6.249  0.8693  1.7304  2.3524
  299MOL0     H39438   1.486   3.942   6.414 -2.1902 -0.1663 -1.3258
  299MOL0     H39439   1.610   3.826   6.351  1.5530  2.0809 -0.1501
  299MOL0     H39440   1.467   3.808   6.149  1.9123  1.2058  0.0654
  299MOL0     H39441   1.375   3.745   6.286  3.1416 -2.3762 -0.7307
  299MOL0     H39442   1.359   4.037   6.169 -0.6054  0.0485 -2.0631
  299MOL0     H39443   1.262   3.983   6.300  0.6121  2.0381 -2.1301
  299MOL0     H39444   1.162   3.796   6.172 -4.5556  0.1078 -1.4416
  299MOL0     H39445   1.253   3.843   6.029 -1.9145 -1.4056 -0.3964
  299MOL0     H39446   1.061   4.025   6.187 -0.6164 -0.4254  0.3353
  299MOL0     H39447   1.145   4.076   6.045 -1.0192  1.2016  1.2637
  299MOL0     H39448   1.024   3.879   5.929  2.8937 -1.0552  1.1546
  299MOL0     H39449   0.921   4.010   5.978  0.1773 -1.9997 -2.5501
  299MOL0     H39450   1.881   4.027   6.128  0.0629 -1.1941 -0.6736
  299MOL0     H39451   2.022   3.884   5.972 -1.0570 -0.1086 -0.4673
  299MOL0     H39452   2.493   3.742   5.903 -0.2138 -0.0422 -2.7071
  299MOL0     H39453   2.662   3.570   5.834 -0.4174 -0.7372 -0.0926
  299MOL0     H39454   3.679   4.059   5.434 -2.8834  1.9405 -0.8584
  299MOL0     H39455   3.911   4.009   5.377 -1.0558 -1.8261 -1.3219
  299MOL0     H39456   4.351   4.058   5.436 -2.6554 -0.5392 -1.1275
  299MOL0     H39457   4.578   3.999   5.377  1.8177  0.6666 -0.6583
  299MOL0     H39458   4.727   3.890   5.254 -3.6522  1.3232 -0.0869
  299MOL0     H39459   4.812   4.050   5.244  2.7107 -0.2106 -1.0014
  299MOL0     H39460   4.841   3.814   5.057  0.1336 -0.1872  0.5938
  299MOL0     H39461   4.892   3.972   5.009 -2.3422  0.7438  0.2222
  299MOL0     H39462   4.967   3.814   5.250  0.6684 -3.5745 -1.9420
  299MOL0     H39463   5.061   3.957   5.199  0.4452  0.8218 -3.1090
  299MOL0     H39464   5.147   3.713   5.146 -2.0871 -0.8376  0.8206
  299MOL0     H39465   5.030   3.685   5.035  1.9059 -0.7103 -0.7454
  299MOL0     H39466   5.283   3.934   4.805 -0.0940 -0.1792  0.3536
  299MOL0     H39467   4.482   4.091   4.950 -0.9899  1.9405 -0.4491
  299MOL0     H39468   4.252   4.132   5.029  1.8254 -4.3848 -3.3524
  300MOL0     O39469   4.380   7.324  10.870 -0.2352  1.2192 -0.8995
  300MOL0     C39470   4.387   7.328  10.994  0.0539 -0.0566  0.9127
  300MOL0     O39471   4.278   7.361  11.079 -0.3015 -0.4804  0.0379
  300MOL0     C39472   4.143   7.350  11.042 -0.2954  0.0492  0.3139
  300MOL0     C39473   4.056   7.394  11.144 -0.0847  0.4954  0.3509
  300MOL0     C39474   3.915   7.409  11.123  0.9211  0.2541 -0.2969
  300MOL0     C39475   3.866   7.353  11.001 -0.0712  0.6500 -1.2236
  300MOL0     O39476   3.727   7.344  10.993 -0.4057 -0.0584  0.2952
  300MOL0     C39477   3.679   7.476  10.992 -0.5176  0.3296  0.6402
  300MOL0     C39478   3.567   7.470  10.897 -0.1827  0.3942 -0.6323
  300MOL0     C39479   3.476   7.595  10.907  0.1765  0.0962 -1.0254
  300MOL0     C39480   3.370   7.579  10.790 -1.1768  0.0994  0.0321
  300MOL0     C39481   3.283   7.456  10.804  0.7007  0.3427  0.6205
  300MOL0     C39482   3.182   7.467  10.927 -0.5453  0.3826  0.7506
  300MOL0     C39483   3.092   7.586  10.913  0.3723  0.2185 -0.0315
  300MOL0     C39484   2.967   7.564  10.987 -0.3743 -0.3250 -0.3073
  300MOL0     N39485   2.988   7.517  11.121  1.0132 -0.1280 -0.1232
  300MOL0     C39486   2.935   7.390  11.161 -0.2785  0.2296  0.1784
  300MOL0     C39487   2.977   7.379  11.287  0.0546  0.6591  0.8462
  300MOL0     C39488   2.967   7.256  11.379  0.3433 -0.8710  0.7307
  300MOL0     C39489   3.001   7.119  11.316  0.4839 -0.0769  0.2768
  300MOL0     C39490   2.883   7.059  11.229 -0.7141 -0.6508  0.6576
  300MOL0     C39491   2.791   6.961  11.310  0.2298 -0.4359  0.3575
  300MOL0     O39492   2.711   7.053  11.393  0.0312  0.2050  0.3403
  300MOL0     C39493   2.600   7.001  11.456 -0.1820 -0.1795 -0.1440
  300MOL0     C39494   2.575   6.860  11.464  0.0955 -0.4571  0.0449
  300MOL0     C39495   2.460   6.820  11.534 -0.2492  0.1429  0.4345
  300MOL0     C39496   2.386   6.915  11.606  0.2802 -0.0911  0.4189
  300MOL0     C39497   2.279   6.861  11.693  0.4872  0.1111  0.2862
  300MOL0     O39498   2.208   6.959  11.757 -0.2515  0.0266 -0.2660
  300MOL0     C39499   2.085   6.932  11.803  0.3766  0.0958 -0.4543
  300MOL0     C39500   2.064   6.970  11.937 -0.1385  0.6219  0.3491
  300MOL0     C39501   1.936   6.955  11.989 -0.3543 -0.4598 -0.5291
  300MOL0     C39502   1.821   6.926  11.913 -0.1501 -0.7813 -0.2280
  300MOL0     O39503   1.690   6.939  11.966  0.1398  0.7071 -0.2827
  300MOL0     C39504   1.591   6.869  11.891 -0.2582 -0.7103 -0.3663
  300MOL0     C39505   1.465   6.872  11.980 -0.0110  0.4732  0.9126
  300MOL0     C39506   1.391   7.002  11.968 -0.3654  0.0594 -0.0543
  300MOL0     C39507   1.261   6.997  12.050  0.3431  0.4984  0.2869
  300MOL0     C39508   1.166   7.102  12.014  0.2320  0.6148 -0.4205
  300MOL0     C39509   1.049   7.115  12.107 -0.0240 -0.2603 -0.1889
  300MOL0     C39510   0.936   7.209  12.047  0.0321 -0.2319 -0.7653
  300MOL0     C39511   0.825   7.242  12.140  0.2200  0.1521  0.3161
  300MOL0    Cl39512   0.753   7.107  12.232  0.1013 -0.1594 -0.0174
  300MOL0     C39513   1.847   6.884  11.782  0.6358  0.2961 -0.0748
  300MOL0     C39514   1.978   6.882  11.731  0.4840  0.1433 -0.9884
  300MOL0     O39515   2.248   6.739  11.689  0.8519 -0.6157 -0.1413
  300MOL0     C39516   2.408   7.050  11.592 -1.4913 -0.5220 -0.8550
  300MOL0     C39517   2.514   7.094  11.512  0.5524  1.0851 -0.0169
  300MOL0     N39518   3.034   7.503  11.321  0.2321 -0.6199  0.0007
  300MOL0     N39519   3.037   7.587  11.224  0.4865 -0.4519  0.0960
  300MOL0     C39520   3.947   7.310  10.895 -0.5133 -0.1966 -0.4216
  300MOL0     C39521   4.086   7.311  10.921  0.3215 -0.5122  0.3938
  300MOL0     C39522   4.520   7.334  11.060 -0.6978  0.5878 -0.3571
  300MOL0     C39523   4.526   7.358  11.200 -0.3651  0.3549  0.2371
  300MOL0     C39524   4.653   7.388  11.264  0.5765  0.0082 -0.1748
  300MOL0     C39525   4.770   7.351  11.201 -0.5237  0.3847 -0.0674
  300MOL0     O39526   4.886   7.354  11.275  0.2257 -0.0992  0.8715
  300MOL0     C39527   5.001   7.311  11.203  0.0534 -0.3541  0.4102
  300MOL0     C39528   5.101   7.255  11.314  0.0903  0.2527  0.0866
  300MOL0     C39529   5.189   7.366  11.382  0.2667 -0.3395 -0.4034
  300MOL0     C39530   5.103   7.474  11.446  0.5562  0.1729 -0.7024
  300MOL0     C39531   5.172   7.584  11.514  0.0664  0.3018  0.2147
  300MOL0     C39532   5.246   7.671  11.560 -0.7934  0.1070  1.1256
  300MOL0     C39533   4.761   7.323  11.065  0.5392  0.9222  1.2994
  300MOL0     C39534   4.639   7.314  10.992 -0.0900 -0.0825 -0.2768
  300MOL0     H39535   4.090   7.438  11.238 -1.9497  2.2903  0.2589
  300MOL0     H39536   3.859   7.439  11.211  1.6657 -0.2009  0.3564
  300MOL0     H39537   3.748   7.559  10.978  0.4865 -0.2456  1.9726
  300MOL0     H39538   3.632   7.488  11.090 -0.2758 -1.8224  1.0800
  300MOL0     H39539   3.512   7.378  10.916 -0.1474  0.5305  0.1545
  300MOL0     H39540   3.600   7.457  10.793  0.6363 -0.1939 -0.3144
  300MOL0     H39541   3.538   7.685  10.897  0.2891  0.3898  1.6085
  300MOL0     H39542   3.427   7.592  11.005  0.3496  1.2249 -0.8866
  300MOL0     H39543   3.305   7.667  10.788  0.9892  1.9153  2.3097
  300MOL0     H39544   3.424   7.575  10.695 -1.4023  1.3331 -0.1566
  300MOL0     H39545   3.341   7.364  10.797  0.7979  0.4400  0.1076
  300MOL0     H39546   3.218   7.456  10.716  0.3841 -0.0871  0.8507
  300MOL0     H39547   3.239   7.472  11.020 -1.7084 -1.7251  1.6426
  300MOL0     H39548   3.128   7.372  10.936 -1.2690  0.6745 -0.2694
  300MOL0     H39549   3.144   7.673  10.954 -4.0091  2.1801  1.9702
  300MOL0     H39550   3.070   7.615  10.810  0.2521  1.3663  0.3089
  300MOL0     H39551   2.898   7.490  10.944 -0.0885 -0.3363 -0.7609
  300MOL0     H39552   2.905   7.653  10.977  1.6926  1.0867 -1.1348
  300MOL0     H39553   2.908   7.302  11.103  0.7369  0.6808 -1.0343
  300MOL0     H39554   2.869   7.256  11.428 -0.5047  1.2735 -0.8265
  300MOL0     H39555   3.043   7.274  11.455  0.6420 -0.8057  0.4172
  300MOL0     H39556   3.033   7.042  11.387  2.7015 -1.9416 -2.4810
  300MOL0     H39557   3.091   7.138  11.257  1.0903 -2.0848  0.4817
  300MOL0     H39558   2.822   7.141  11.188 -0.1725 -0.1862  0.7684
  300MOL0     H39559   2.937   7.006  11.150 -0.8292  1.5669 -1.0193
  300MOL0     H39560   2.847   6.887  11.368  0.6181 -0.0220  0.5160
  300MOL0     H39561   2.722   6.910  11.242  0.0457 -0.6653  0.7126
  300MOL0     H39562   2.644   6.788  11.421  1.7431  1.9696 -1.6048
  300MOL0     H39563   2.451   6.712  11.530  0.9490  0.0258  0.3307
  300MOL0     H39564   2.147   6.990  12.003  0.7582 -0.9698 -0.2546
  300MOL0     H39565   1.922   6.987  12.092 -0.1170  4.1325 -1.7004
  300MOL0     H39566   1.629   6.768  11.870 -1.1134 -0.5390 -3.2563
  300MOL0     H39567   1.571   6.918  11.795 -1.3595 -1.7450 -0.6880
  300MOL0     H39568   1.483   6.836  12.081 -2.5819 -2.9018  0.3708
  300MOL0     H39569   1.398   6.791  11.948 -1.4296  1.9971 -0.0901
  300MOL0     H39570   1.370   7.024  11.862  0.0951  0.1637 -0.1236
  300MOL0     H39571   1.464   7.076  11.999 -0.7771  0.6915 -0.5512
  300MOL0     H39572   1.218   6.898  12.031  2.1536 -0.2749  0.0524
  300MOL0     H39573   1.283   6.993  12.157 -0.7036 -1.3363  0.4828
  300MOL0     H39574   1.126   7.072  11.916 -2.5097 -0.2929  0.8838
  300MOL0     H39575   1.223   7.194  11.996 -0.0684  0.7146 -0.8919
  300MOL0     H39576   1.077   7.152  12.206  2.3822 -2.0799 -0.0821
  300MOL0     H39577   1.011   7.014  12.121 -1.3140  0.5045  2.5125
  300MOL0     H39578   0.970   7.306  12.009  1.4658 -0.0678  0.8050
  300MOL0     H39579   0.892   7.146  11.970 -0.1343 -0.4238 -0.5166
  300MOL0     H39580   0.749   7.297  12.084  1.7263 -0.0684 -2.1083
  300MOL0     H39581   0.862   7.313  12.215  2.0390 -1.7861  1.3664
  300MOL0     H39582   1.762   6.862  11.718 -0.8569  1.2636  1.4847
  300MOL0     H39583   1.978   6.836  11.632  1.2058 -0.6296 -0.6374
  300MOL0     H39584   2.333   7.121  11.626  0.5339  1.2935  0.1476
  300MOL0     H39585   2.529   7.201  11.504  0.5219  1.2345  1.6337
  300MOL0     H39586   3.923   7.265  10.799  2.4857 -0.8820 -0.9763
  300MOL0     H39587   4.143   7.285  10.832 -2.4184  0.8411 -1.9176
  300MOL0     H39588   4.438   7.374  11.261  0.8106  2.3781  1.5527
  300MOL0     H39589   4.654   7.429  11.365 -0.3733 -1.0585  0.2941
  300MOL0     H39590   5.055   7.395  11.158  0.3472  0.1108  1.5945
  300MOL0     H39591   4.983   7.227  11.134 -0.5390 -1.1022  1.4505
  300MOL0     H39592   5.038   7.197  11.383 -0.0136 -1.5412 -1.4233
  300MOL0     H39593   5.177   7.189  11.271  3.8200  2.3095  2.9360
  300MOL0     H39594   5.249   7.408  11.302 -0.7866  0.1822 -0.9341
  300MOL0     H39595   5.247   7.322  11.464 -0.5359 -0.8638 -0.1103
  300MOL0     H39596   5.057   7.524  11.361  0.9225 -2.4563 -2.5805
  300MOL0     H39597   5.027   7.435  11.514 -0.7220  3.7168  0.1101
  300MOL0     H39598   5.312   7.750  11.588 -2.5315  2.1499 -0.2618
  300MOL0     H39599   4.845   7.296  11.001  0.2592 -0.1961  1.3778
  300MOL0     H39600   4.640   7.289  10.886 -0.2814 -2.1271  0.1637
  301MOL0     O39601   8.738   8.888   4.466 -0.4640 -0.5698 -0.2716
  301MOL0     C39602   8.793   8.837   4.558 -0.5010 -0.2828 -0.2574
  301MOL0     O39603   8.751   8.822   4.687 -0.0557  0.2737 -0.2841
  301MOL0     C39604   8.628   8.860   4.734  0.4526 -0.4386  0.0699
  301MOL0     C39605   8.516   8.859   4.653  0.0446  0.3421 -0.0629
  301MOL0     C39606   8.389   8.886   4.708  0.1454 -0.1179 -0.5742
  301MOL0     C39607   8.370   8.903   4.840  1.4308 -0.6228 -1.1776
  301MOL0     O39608   8.247   8.912   4.900 -0.0413 -0.3311  0.3454
  301MOL0     C39609   8.193   9.049   4.904 -0.2729  0.2745  0.3680
  301MOL0     C39610   8.052   9.057   4.969  0.4171  0.1810 -0.2077
  301MOL0     C39611   7.943   8.967   4.894 -1.0844 -0.3867  0.2108
  301MOL0     C39612   7.812   8.935   4.968 -0.7928 -0.6142  0.8101
  301MOL0     C39613   7.694   8.902   4.878  0.0695 -0.0031 -0.3746
  301MOL0     C39614   7.562   8.869   4.959 -0.3605 -1.1014 -0.6633
  301MOL0     C39615   7.429   8.845   4.881 -0.6975 -0.0535  0.3570
  301MOL0     C39616   7.309   8.830   4.971  0.1363  0.4135 -0.2574
  301MOL0     N39617   7.197   8.768   4.905 -0.0309  0.0520  0.2322
  301MOL0     C39618   7.158   8.807   4.781  1.4374 -0.1991 -0.0331
  301MOL0     C39619   7.048   8.729   4.755  0.3961  0.8463 -0.4620
  301MOL0     C39620   6.963   8.726   4.632  1.1447  0.1332  0.0016
  301MOL0     C39621   6.823   8.647   4.647  0.0949 -0.1850 -0.0737
  301MOL0     C39622   6.747   8.632   4.508 -1.0714 -0.0620 -0.1889
  301MOL0     C39623   6.613   8.575   4.525 -0.5285  0.0495  0.2259
  301MOL0     O39624   6.545   8.580   4.394 -0.3819  0.0304 -0.2001
  301MOL0     C39625   6.531   8.461   4.329 -0.1235 -0.2161  0.3654
  301MOL0     C39626   6.433   8.477   4.228 -0.7324 -0.5310 -0.4677
  301MOL0     C39627   6.410   8.377   4.134  0.0495 -0.2843  0.5630
  301MOL0     C39628   6.471   8.247   4.148 -0.6960 -0.2460 -0.5017
  301MOL0     C39629   6.451   8.130   4.057 -0.1878 -0.5558 -0.4960
  301MOL0     O39630   6.373   8.166   3.952 -0.1445 -0.6274  0.1986
  301MOL0     C39631   6.333   8.073   3.859  0.1702 -0.7406 -0.1121
  301MOL0     C39632   6.193   8.048   3.856  0.0082 -0.1992 -0.4983
  301MOL0     C39633   6.140   7.957   3.765 -0.8936  0.1888 -0.6679
  301MOL0     C39634   6.219   7.875   3.690 -0.3859  0.6620 -0.1106
  301MOL0     O39635   6.156   7.777   3.623 -0.2043  1.0525 -0.0773
  301MOL0     C39636   6.218   7.718   3.509 -0.3262  0.1371 -0.6101
  301MOL0     C39637   6.116   7.654   3.420  0.2846  1.0975 -0.4631
  301MOL0     C39638   6.180   7.613   3.283  0.3025 -0.1669 -0.1257
  301MOL0     C39639   6.305   7.527   3.282 -0.2156 -0.3645  0.0770
  301MOL0     C39640   6.339   7.488   3.140  0.0729  0.4441 -0.3745
  301MOL0     C39641   6.482   7.433   3.134  0.5222 -0.4561  0.4090
  301MOL0     C39642   6.523   7.400   2.991 -0.1742 -0.0557 -0.0317
  301MOL0     C39643   6.658   7.342   2.993  0.9865 -0.2953 -0.3400
  301MOL0    Cl39644   6.775   7.474   2.997 -0.2180  0.0025  0.4210
  301MOL0     C39645   6.354   7.893   3.696 -0.6866 -0.5834 -1.0647
  301MOL0     C39646   6.415   7.990   3.779 -0.3175 -0.3311  0.6637
  301MOL0     O39647   6.491   8.016   4.086  0.0301 -0.4532  0.0744
  301MOL0     C39648   6.567   8.235   4.253 -0.2519  0.5904 -1.3885
  301MOL0     C39649   6.605   8.343   4.339 -0.4664  0.5199 -0.3768
  301MOL0     N39650   7.046   8.631   4.860 -0.0265  0.2707 -0.4643
  301MOL0     N39651   7.130   8.658   4.950 -0.0486 -0.0685  0.2927
  301MOL0     C39652   8.482   8.908   4.923 -0.3107  1.2727  0.0834
  301MOL0     C39653   8.611   8.878   4.872 -0.4443  0.3588  0.6609
  301MOL0     C39654   8.930   8.776   4.524 -0.4443 -0.2179 -0.0198
  301MOL0     C39655   8.981   8.760   4.393 -0.0200 -0.8662  0.0194
  301MOL0     C39656   9.106   8.707   4.367 -1.0464  0.1499  0.7140
  301MOL0     C39657   9.190   8.665   4.471 -0.1587  0.7172 -0.3687
  301MOL0     O39658   9.306   8.602   4.434 -0.6171 -0.7202 -0.6430
  301MOL0     C39659   9.407   8.601   4.533  0.2219  0.8590 -0.8642
  301MOL0     C39660   9.527   8.522   4.484 -0.1273 -0.2547 -0.9703
  301MOL0     C39661   9.509   8.368   4.482 -0.1497 -1.0402 -0.1008
  301MOL0     C39662   9.628   8.290   4.428  0.0508  0.6886  0.6288
  301MOL0     C39663   9.752   8.295   4.521  0.2165 -0.0378 -0.1744
  301MOL0     C39664   9.862   8.301   4.577  0.3054 -0.6620  0.6542
  301MOL0     C39665   9.146   8.684   4.599  0.7305  0.2717  0.5033
  301MOL0     C39666   9.021   8.745   4.626  0.2257 -1.3318 -0.0280
  301MOL0     H39667   8.498   8.823   4.552 -0.0401 -1.3373  0.5074
  301MOL0     H39668   8.299   8.880   4.648 -1.1517 -0.5908  1.3319
  301MOL0     H39669   8.196   9.091   4.802 -1.1587  0.0789  0.2592
  301MOL0     H39670   8.259   9.114   4.962  0.6626  0.5112 -0.9048
  301MOL0     H39671   8.024   9.163   4.971  1.6611  0.6005 -2.1152
  301MOL0     H39672   8.050   9.020   5.072 -1.3582  0.6551 -0.0398
  301MOL0     H39673   7.995   8.876   4.864  0.5911  0.8987 -0.9430
  301MOL0     H39674   7.909   9.025   4.808  0.9141  1.3191  0.4665
  301MOL0     H39675   7.832   8.858   5.043 -2.3579  0.1396  2.0598
  301MOL0     H39676   7.781   9.027   5.018 -2.6016 -0.1951 -0.9181
  301MOL0     H39677   7.726   8.814   4.821  4.4267 -0.3741  2.1958
  301MOL0     H39678   7.680   8.989   4.814 -0.5015  0.5383  0.4662
  301MOL0     H39679   7.538   8.956   5.021 -1.9334 -0.9072 -1.4745
  301MOL0     H39680   7.586   8.782   5.020  0.3993 -1.1260 -0.9930
  301MOL0     H39681   7.409   8.919   4.804  0.2479  1.1835  1.2520
  301MOL0     H39682   7.454   8.748   4.839 -2.3631 -0.6124  0.5602
  301MOL0     H39683   7.281   8.929   5.007 -0.3866 -0.3550  1.5434
  301MOL0     H39684   7.340   8.766   5.054  0.3920  2.5970  1.4046
  301MOL0     H39685   7.191   8.897   4.730  0.8460  0.6679  1.0784
  301MOL0     H39686   7.026   8.678   4.558  2.0698  0.1610  0.7557
  301MOL0     H39687   6.938   8.827   4.598 -0.3956  0.0418  0.7572
  301MOL0     H39688   6.754   8.710   4.704  0.6873 -0.2776  0.7478
  301MOL0     H39689   6.845   8.550   4.691 -2.6209 -1.6991 -1.7359
  301MOL0     H39690   6.745   8.723   4.447 -0.7536 -1.0174 -1.6610
  301MOL0     H39691   6.814   8.563   4.456  1.0121  0.7654  1.2718
  301MOL0     H39692   6.558   8.632   4.601 -0.2369 -1.8463  1.9504
  301MOL0     H39693   6.618   8.473   4.565 -0.7630 -0.1317 -0.2011
  301MOL0     H39694   6.385   8.574   4.218 -3.1140 -1.5351  0.5404
  301MOL0     H39695   6.339   8.401   4.056  1.1895 -0.2909 -0.4949
  301MOL0     H39696   6.128   8.119   3.907  1.3983  1.3870 -0.8499
  301MOL0     H39697   6.034   7.948   3.747 -0.9322 -0.8643 -0.0448
  301MOL0     H39698   6.283   7.636   3.538  1.9777  0.4423 -4.2186
  301MOL0     H39699   6.270   7.790   3.445 -0.7765  2.0546  1.0628
  301MOL0     H39700   6.026   7.714   3.403 -1.1586 -0.4718  1.2920
  301MOL0     H39701   6.090   7.564   3.476  1.8485  0.7648 -0.2208
  301MOL0     H39702   6.209   7.699   3.221 -2.7120  0.4428 -0.8559
  301MOL0     H39703   6.103   7.567   3.221  1.7296 -0.2819 -1.9122
  301MOL0     H39704   6.377   7.595   3.327 -0.2563 -0.7886  0.7937
  301MOL0     H39705   6.295   7.435   3.341 -0.3941 -1.2214 -1.2403
  301MOL0     H39706   6.331   7.567   3.065 -2.7923 -1.0952 -1.8373
  301MOL0     H39707   6.274   7.407   3.104  0.8742 -0.0859 -0.6450
  301MOL0     H39708   6.502   7.347   3.199  1.0917  0.6568  1.7373
  301MOL0     H39709   6.552   7.509   3.168  1.4185 -0.2239 -1.7397
  301MOL0     H39710   6.456   7.326   2.946 -0.4890 -0.9200  1.7753
  301MOL0     H39711   6.519   7.494   2.934  0.1793 -0.4337 -0.6987
  301MOL0     H39712   6.682   7.277   2.908  1.1664 -2.3603  1.2185
  301MOL0     H39713   6.667   7.287   3.087 -1.5822  0.8266  0.6679
  301MOL0     H39714   6.417   7.818   3.649  1.4314 -0.0384  0.7454
  301MOL0     H39715   6.522   8.008   3.781 -0.2050 -0.9917  0.8158
  301MOL0     H39716   6.629   8.146   4.264  0.7748  1.3854 -0.4886
  301MOL0     H39717   6.695   8.334   4.399 -0.0154 -2.3650 -1.3179
  301MOL0     H39718   8.469   8.916   5.030  1.8935 -1.0195  0.6270
  301MOL0     H39719   8.695   8.846   4.934 -0.5359  0.6912  0.9627
  301MOL0     H39720   8.913   8.771   4.308 -1.9989 -0.9975  1.5085
  301MOL0     H39721   9.137   8.678   4.267 -0.7385 -0.8251  1.0778
  301MOL0     H39722   9.369   8.561   4.627  0.4788  2.1318 -0.1931
  301MOL0     H39723   9.440   8.703   4.557 -0.3344  0.5372  1.5409
  301MOL0     H39724   9.566   8.557   4.387  1.4295  1.3927  0.1848
  301MOL0     H39725   9.609   8.547   4.551 -1.3790  1.6569 -0.0658
  301MOL0     H39726   9.433   8.358   4.404 -0.9217  2.4719  0.0645
  301MOL0     H39727   9.478   8.324   4.577 -0.9200 -2.0418 -0.7983
  301MOL0     H39728   9.602   8.184   4.428  2.4520  0.0136  2.4058
  301MOL0     H39729   9.650   8.315   4.323 -1.3843 -0.2559  0.0818
  301MOL0     H39730   9.956   8.304   4.629 -0.2474  1.8965  1.6620
  301MOL0     H39731   9.208   8.652   4.682  2.7496 -0.4253 -1.1972
  301MOL0     H39732   9.003   8.743   4.733 -0.0429 -4.3379 -0.0230
  302MOL0     O39733  10.380   6.551  10.934  0.1392 -1.1489  0.3452
  302MOL0     C39734  10.429   6.662  10.900 -0.5946 -0.9383 -0.2241
  302MOL0     O39735  10.363   6.770  10.864 -0.1849 -0.0147 -0.2985
  302MOL0     C39736  10.223   6.776  10.875 -0.0955  0.5465 -0.2627
  302MOL0     C39737  10.158   6.757  10.993 -0.1818  0.4288 -0.8116
  302MOL0     C39738  10.023   6.777  11.002  0.1577 -0.2021 -0.4010
  302MOL0     C39739   9.945   6.817  10.896  0.0001  0.5675  0.0391
  302MOL0     O39740   9.810   6.825  10.906 -0.5735  0.7803 -0.3395
  302MOL0     C39741   9.738   6.929  10.835  0.4899  0.1708 -0.3002
  302MOL0     C39742   9.587   6.926  10.861 -0.1450 -0.3409 -0.4930
  302MOL0     C39743   9.511   6.807  10.800 -0.1139  0.2920  0.5909
  302MOL0     C39744   9.374   6.802  10.870 -0.1844  0.6355  0.3200
  302MOL0     C39745   9.294   6.675  10.820 -0.4372 -0.1289  0.0375
  302MOL0     C39746   9.294   6.648  10.664  0.2224  0.7951 -0.0340
  302MOL0     C39747   9.206   6.538  10.602  0.4515  0.2421  0.5285
  302MOL0     C39748   9.249   6.389  10.640 -0.6239 -0.7941  0.2540
  302MOL0     N39749   9.143   6.285  10.611  0.0856 -1.1791 -0.0736
  302MOL0     C39750   9.154   6.170  10.538 -0.7964 -1.1464 -0.2452
  302MOL0     C39751   9.035   6.108  10.541  0.1329  0.3489  0.1572
  302MOL0     C39752   8.987   5.988  10.467 -0.2921 -0.1247  0.0289
  302MOL0     C39753   8.975   6.021  10.318  0.4527 -0.7281 -0.4351
  302MOL0     C39754   8.917   5.907  10.234 -0.6256 -0.4990 -0.2402
  302MOL0     C39755   8.786   5.861  10.290  0.0458  0.2789 -0.3657
  302MOL0     O39756   8.693   5.970  10.300 -0.3199  0.2270  0.2313
  302MOL0     C39757   8.562   5.933  10.331 -0.0444  0.2685 -0.2546
  302MOL0     C39758   8.473   6.033  10.311  0.6959  0.0852 -0.0231
  302MOL0     C39759   8.329   6.007  10.318  0.0034 -0.2102  0.4924
  302MOL0     C39760   8.286   5.879  10.348 -0.0932  0.2435  0.4058
  302MOL0     C39761   8.144   5.833  10.352  0.7766 -0.1297 -1.2880
  302MOL0     O39762   8.043   5.931  10.339 -0.6498 -0.2193  0.4980
  302MOL0     C39763   7.913   5.907  10.305 -0.2153  0.0877  0.3938
  302MOL0     C39764   7.823   5.999  10.355 -0.1354  0.1658  0.3367
  302MOL0     C39765   7.686   5.983  10.335  0.3989 -0.6812  0.1182
  302MOL0     C39766   7.632   5.872  10.262 -0.5394  0.3585 -0.6142
  302MOL0     O39767   7.497   5.862  10.232  0.3272 -1.0164 -0.1803
  302MOL0     C39768   7.420   5.920  10.336 -0.2585  0.1040 -0.2313
  302MOL0     C39769   7.284   5.844  10.327 -0.1449 -0.0588  0.5555
  302MOL0     C39770   7.200   5.875  10.446  1.1383  0.0469  0.1295
  302MOL0     C39771   7.064   5.821  10.439  0.3101 -0.5229  0.6727
  302MOL0     C39772   6.990   5.841  10.574  0.5863 -0.2572 -0.0015
  302MOL0     C39773   6.850   5.770  10.557 -0.0398 -0.2176 -0.2699
  302MOL0     C39774   6.795   5.730  10.693 -0.7678  0.0427 -0.1795
  302MOL0     C39775   6.659   5.662  10.672 -0.7813 -0.3968  0.2463
  302MOL0    Cl39776   6.543   5.786  10.599  0.0751 -0.5828  0.2429
  302MOL0     C39777   7.724   5.781  10.207  0.4356 -0.1331  0.2711
  302MOL0     C39778   7.868   5.796  10.228 -0.2403  0.2047  0.2390
  302MOL0     O39779   8.115   5.712  10.362 -1.0299  0.0915  0.0893
  302MOL0     C39780   8.385   5.769  10.371 -0.7264  0.6905  0.3912
  302MOL0     C39781   8.518   5.804  10.352 -0.6148  0.3500 -0.3404
  302MOL0     N39782   8.949   6.183  10.622 -0.4098 -0.8486 -0.4048
  302MOL0     N39783   9.019   6.288  10.659 -0.4516 -0.0645  0.0951
  302MOL0     C39784  10.012   6.836  10.776  0.8783  0.0483 -0.3343
  302MOL0     C39785  10.152   6.807  10.766 -0.0746 -0.5676  0.0165
  302MOL0     C39786  10.576   6.662  10.887  0.2435 -0.5545 -0.1290
  302MOL0     C39787  10.642   6.785  10.858  0.8065 -0.1559 -0.0885
  302MOL0     C39788  10.777   6.778  10.839 -0.0776  0.8940  0.1931
  302MOL0     C39789  10.862   6.663  10.846  0.4988 -0.2538 -0.5642
  302MOL0     O39790  11.000   6.648  10.835  0.4273  0.2386 -1.0831
  302MOL0     C39791  11.088   6.674  10.940 -0.5523 -0.6429 -0.5082
  302MOL0     C39792  11.228   6.607  10.902  0.6821 -0.6302  0.0517
  302MOL0     C39793  11.252   6.458  10.937  1.2747  0.4983 -0.1676
  302MOL0     C39794  11.347   6.374  10.855 -0.8837 -0.1319  0.0617
  302MOL0     C39795  11.482   6.414  10.885 -1.2608 -0.3789  0.2066
  302MOL0     C39796  11.587   6.477  10.906 -0.6904  0.6700 -0.3190
  302MOL0     C39797  10.785   6.551  10.870  0.0363 -0.5332  0.4291
  302MOL0     C39798  10.648   6.543  10.891  0.4533 -0.4525  0.2433
  302MOL0     H39799  10.221   6.727  11.077 -1.4140 -1.4068 -0.4951
  302MOL0     H39800   9.969   6.766  11.096  2.1252  1.4467  0.9998
  302MOL0     H39801   9.751   6.917  10.727 -2.5512  1.2964 -0.9054
  302MOL0     H39802   9.785   7.025  10.857 -1.6899  0.9804  1.1999
  302MOL0     H39803   9.546   7.019  10.821 -0.7258 -0.6817 -0.6901
  302MOL0     H39804   9.582   6.928  10.970 -0.0458  0.8842 -0.4955
  302MOL0     H39805   9.574   6.718  10.806  2.2429  1.5066 -2.7684
  302MOL0     H39806   9.499   6.824  10.693  1.8311  1.0040  0.4301
  302MOL0     H39807   9.394   6.799  10.978 -0.4897 -1.4821  0.3486
  302MOL0     H39808   9.315   6.894  10.858 -1.9583 -0.3776  0.8564
  302MOL0     H39809   9.193   6.671  10.863  0.4321  0.1031  2.2001
  302MOL0     H39810   9.339   6.584  10.860  0.4101  1.0601  1.8964
  302MOL0     H39811   9.394   6.618  10.632  0.4444 -2.8911  3.2576
  302MOL0     H39812   9.264   6.741  10.615 -0.9796  1.3078  1.5953
  302MOL0     H39813   9.107   6.535  10.648  1.0100  1.6914  1.9420
  302MOL0     H39814   9.200   6.545  10.493 -2.2766  3.8776  0.7101
  302MOL0     H39815   9.286   6.385  10.743 -0.3893  1.4309  0.3109
  302MOL0     H39816   9.333   6.361  10.575 -1.1855 -1.4970 -0.1708
  302MOL0     H39817   9.244   6.143  10.484  2.0619 -0.4155  3.6699
  302MOL0     H39818   8.899   5.950  10.520  1.6459 -1.2667  2.6293
  302MOL0     H39819   9.061   5.908  10.473  1.3526  1.4330  2.4675
  302MOL0     H39820   9.066   6.068  10.282  1.1107 -1.7874 -0.2113
  302MOL0     H39821   8.902   6.102  10.310  0.6146 -0.5028  0.2725
  302MOL0     H39822   8.921   5.952  10.135  0.3135 -1.3627 -0.6097
  302MOL0     H39823   8.987   5.825  10.252  0.5718  0.7542  1.0865
  302MOL0     H39824   8.799   5.811  10.386 -0.5452 -1.6667 -1.2404
  302MOL0     H39825   8.743   5.781  10.230 -0.5670  0.4573 -0.1726
  302MOL0     H39826   8.509   6.130  10.279  0.8429  0.4863  1.3047
  302MOL0     H39827   8.258   6.089  10.316 -0.4312 -0.5890 -1.3461
  302MOL0     H39828   7.846   6.092  10.406 -1.1592  0.9155 -0.5122
  302MOL0     H39829   7.626   6.066  10.371  0.7063  0.5745 -2.0689
  302MOL0     H39830   7.408   6.028  10.322 -0.0518  0.3007  0.9629
  302MOL0     H39831   7.461   5.907  10.437  1.9946  1.3759 -0.8958
  302MOL0     H39832   7.312   5.738  10.335  0.1131 -0.0311 -0.0103
  302MOL0     H39833   7.230   5.867  10.235  0.4244 -1.4444 -0.1619
  302MOL0     H39834   7.193   5.983  10.461 -0.4446  0.0834 -0.6386
  302MOL0     H39835   7.250   5.832  10.533 -2.1310 -0.8591  1.7376
  302MOL0     H39836   7.016   5.872  10.355 -2.5227 -0.2085  2.3552
  302MOL0     H39837   7.059   5.716  10.409 -1.8276 -0.3024  0.0759
  302MOL0     H39838   6.983   5.946  10.603  2.5247  0.2730 -1.2313
  302MOL0     H39839   7.041   5.782  10.650 -1.7010 -1.6557  0.5330
  302MOL0     H39840   6.867   5.680  10.498  4.9234 -0.5023  1.1742
  302MOL0     H39841   6.783   5.841  10.508  2.9933  2.8729 -0.3325
  302MOL0     H39842   6.865   5.664  10.745  3.9052  3.9137 -0.8464
  302MOL0     H39843   6.781   5.821  10.751  0.8564 -1.6378  3.0903
  302MOL0     H39844   6.628   5.637  10.774 -2.6081  0.0904 -0.1512
  302MOL0     H39845   6.663   5.570  10.612  2.4974  0.7920 -1.6347
  302MOL0     H39846   7.690   5.702  10.141  3.0322 -1.0802 -0.0548
  302MOL0     H39847   7.927   5.715  10.186  0.2997 -0.9439  3.0375
  302MOL0     H39848   8.364   5.666  10.395  2.2240 -0.2601 -0.6545
  302MOL0     H39849   8.592   5.725  10.353  2.2281  2.8446 -0.6428
  302MOL0     H39850   9.957   6.873  10.690  2.5375  2.1086 -0.5990
  302MOL0     H39851  10.207   6.823  10.674 -1.7269  2.1140 -0.6174
  302MOL0     H39852  10.599   6.884  10.852  0.4344 -0.4021 -2.5738
  302MOL0     H39853  10.826   6.872  10.814  1.1012 -0.2721 -2.1871
  302MOL0     H39854  11.050   6.631  11.033 -0.6550 -2.1936 -1.2386
  302MOL0     H39855  11.100   6.781  10.958  0.4967 -0.8172 -0.1077
  302MOL0     H39856  11.242   6.633  10.797  1.8938  1.3748  0.6465
  302MOL0     H39857  11.303   6.662  10.961 -1.3500  1.6950  0.6575
  302MOL0     H39858  11.153   6.415  10.925  0.0593  1.5476  4.3387
  302MOL0     H39859  11.271   6.446  11.044  0.8143 -1.6979 -0.2932
  302MOL0     H39860  11.338   6.268  10.880  0.8012 -0.9922 -2.5157
  302MOL0     H39861  11.328   6.381  10.748 -2.0286 -1.7344  0.1217
  302MOL0     H39862  11.683   6.513  10.939 -0.3929  1.6529 -2.1127
  302MOL0     H39863  10.842   6.459  10.877 -2.9828 -2.4626  2.0564
  302MOL0     H39864  10.598   6.448  10.902  3.1166 -1.7976  1.8822
  303MOL0     O39865   7.406   5.703   3.731  0.1402  0.1864  0.6712
  303MOL0     C39866   7.377   5.597   3.778  0.5453  0.1986 -0.1134
  303MOL0     O39867   7.270   5.517   3.738  0.2899  0.0520  0.3334
  303MOL0     C39868   7.168   5.565   3.655 -0.4624 -0.0290 -0.1818
  303MOL0     C39869   7.184   5.665   3.550  0.3152  0.8006  0.6112
  303MOL0     C39870   7.071   5.718   3.483 -0.2804 -0.2161 -0.0532
  303MOL0     C39871   6.946   5.679   3.518 -0.2688 -0.0049 -0.9492
  303MOL0     O39872   6.823   5.734   3.474 -0.0470 -0.2371 -0.3864
  303MOL0     C39873   6.831   5.851   3.402 -0.1473 -0.1356  0.3457
  303MOL0     C39874   6.693   5.889   3.342 -0.0073 -0.2306 -0.8399
  303MOL0     C39875   6.607   5.984   3.420 -0.1597  0.3635  0.0922
  303MOL0     C39876   6.485   6.022   3.329  0.4817  0.1629 -0.7667
  303MOL0     C39877   6.386   6.101   3.414  0.1012  0.1041  0.3336
  303MOL0     C39878   6.253   6.114   3.342 -0.3404 -0.1472  0.8077
  303MOL0     C39879   6.147   6.194   3.424  0.4398 -0.4787  0.1416
  303MOL0     C39880   6.031   6.248   3.333 -0.8315  0.4459 -0.3075
  303MOL0     N39881   5.921   6.302   3.411  0.2427  0.3462  0.2385
  303MOL0     C39882   5.837   6.220   3.490 -0.2316 -0.4120  0.3207
  303MOL0     C39883   5.734   6.295   3.527 -0.6908  0.5367 -0.3757
  303MOL0     C39884   5.621   6.244   3.598 -0.5564 -0.6419 -0.0032
  303MOL0     C39885   5.481   6.249   3.531 -0.7583  0.2690  0.0884
  303MOL0     C39886   5.362   6.216   3.618  0.0288 -0.0855 -0.2964
  303MOL0     C39887   5.231   6.264   3.559 -0.0543 -0.2409  0.3953
  303MOL0     O39888   5.211   6.168   3.451 -0.4671  0.0170 -0.4409
  303MOL0     C39889   5.116   6.069   3.474 -0.4868 -0.1156 -0.8102
  303MOL0     C39890   5.076   5.994   3.365  0.4680 -0.3258  0.9763
  303MOL0     C39891   4.987   5.890   3.374  0.1201  0.3558 -0.1210
  303MOL0     C39892   4.936   5.852   3.496 -0.0897 -0.0089 -0.5215
  303MOL0     C39893   4.851   5.727   3.506  0.3433 -0.6850  0.0839
  303MOL0     O39894   4.772   5.702   3.390 -0.7946  0.3826  0.3173
  303MOL0     C39895   4.671   5.606   3.392 -1.0267  1.0142  0.3155
  303MOL0     C39896   4.690   5.486   3.462  0.0685  0.4604  0.2031
  303MOL0     C39897   4.589   5.387   3.476 -0.4056 -0.6577  0.7518
  303MOL0     C39898   4.466   5.406   3.411  0.0632  0.5502  0.8051
  303MOL0     O39899   4.366   5.311   3.408 -0.6642  0.1135 -0.5762
  303MOL0     C39900   4.400   5.171   3.419 -0.0865 -0.6359  0.4886
  303MOL0     C39901   4.273   5.085   3.396  0.1197 -1.0976  0.3094
  303MOL0     C39902   4.258   5.072   3.239  0.1531 -0.8793 -0.7254
  303MOL0     C39903   4.153   4.968   3.198  0.5265 -0.3852  0.6223
  303MOL0     C39904   4.162   4.945   3.048 -0.1730 -0.1572 -0.5937
  303MOL0     C39905   4.053   4.857   3.002  0.0610  0.2730 -0.1083
  303MOL0     C39906   4.057   4.796   2.862 -0.6409 -0.3588 -0.1650
  303MOL0     C39907   3.927   4.709   2.827 -0.7991 -0.0642  0.4049
  303MOL0    Cl39908   3.802   4.835   2.788 -0.1013 -0.0916  0.7998
  303MOL0     C39909   4.450   5.526   3.337 -0.2915 -0.3816  0.1879
  303MOL0     C39910   4.548   5.625   3.325 -0.4438 -0.5547  0.5393
  303MOL0     O39911   4.862   5.657   3.609  0.0973  0.3592 -0.6566
  303MOL0     C39912   4.982   5.925   3.612  0.3295  0.8405 -0.5752
  303MOL0     C39913   5.066   6.034   3.603 -0.4728  1.3424  0.2798
  303MOL0     N39914   5.747   6.420   3.471  0.0525 -0.6463 -0.2914
  303MOL0     N39915   5.856   6.426   3.400  0.7759  0.2642 -0.7585
  303MOL0     C39916   6.932   5.568   3.604 -0.3157  0.9290 -0.2633
  303MOL0     C39917   7.043   5.513   3.672  0.4302 -0.9185 -0.1316
  303MOL0     C39918   7.471   5.542   3.877 -0.2087  0.2291  0.6842
  303MOL0     C39919   7.583   5.616   3.919 -0.2185 -0.0521  0.3249
  303MOL0     C39920   7.679   5.564   4.010  0.2119 -0.4299  0.2705
  303MOL0     C39921   7.674   5.428   4.043 -0.1419  0.4079 -0.0013
  303MOL0     O39922   7.771   5.379   4.124  0.3133  1.1267 -0.6114
  303MOL0     C39923   7.849   5.270   4.058 -0.6533  0.0690 -1.2825
  303MOL0     C39924   7.948   5.200   4.152 -0.2624 -0.4775  0.2287
  303MOL0     C39925   8.013   5.073   4.099 -0.2454 -0.7570  0.3285
  303MOL0     C39926   8.115   5.009   4.198  0.3805 -0.2032 -0.6579
  303MOL0     C39927   8.233   4.972   4.135  0.2329  0.1080  0.2342
  303MOL0     C39928   8.339   4.947   4.083 -1.0819 -1.4441  0.0737
  303MOL0     C39929   7.561   5.354   4.008  0.1223  0.4406  0.7268
  303MOL0     C39930   7.458   5.417   3.931 -0.3107  0.0932 -0.0033
  303MOL0     H39931   7.286   5.689   3.522  0.3205  2.1220  1.5939
  303MOL0     H39932   7.083   5.804   3.418 -1.9920  2.0080  2.3831
  303MOL0     H39933   6.898   5.858   3.316 -2.8827 -0.6986 -1.9770
  303MOL0     H39934   6.859   5.934   3.468 -0.7619  0.9891 -0.7561
  303MOL0     H39935   6.645   5.793   3.320  2.9536 -2.3122  1.0096
  303MOL0     H39936   6.715   5.944   3.250  0.9920  0.6270 -0.1142
  303MOL0     H39937   6.663   6.074   3.448 -0.7549  0.8601 -0.2943
  303MOL0     H39938   6.578   5.932   3.512  1.9918  1.4855  1.4902
  303MOL0     H39939   6.522   6.079   3.243  1.7714  0.9572  0.2787
  303MOL0     H39940   6.439   5.930   3.291  2.1024 -0.8167 -0.4654
  303MOL0     H39941   6.427   6.201   3.426 -0.0020  0.0120  1.5384
  303MOL0     H39942   6.375   6.062   3.515 -0.2259  1.5953  0.8965
  303MOL0     H39943   6.217   6.011   3.334  0.6202 -0.4119 -0.3926
  303MOL0     H39944   6.267   6.165   3.246  2.1962 -1.4930  0.3765
  303MOL0     H39945   6.114   6.115   3.492 -2.0923 -0.1301 -0.6063
  303MOL0     H39946   6.195   6.276   3.479 -0.5810  0.4468 -0.3201
  303MOL0     H39947   5.999   6.163   3.272  2.2954 -2.6616  2.0122
  303MOL0     H39948   6.078   6.320   3.265 -0.8465  0.0098 -0.7842
  303MOL0     H39949   5.859   6.115   3.508  2.1015 -0.3627 -1.6990
  303MOL0     H39950   5.606   6.298   3.692 -1.6369  0.1008 -0.5913
  303MOL0     H39951   5.648   6.141   3.626 -2.1172 -0.9865  0.3204
  303MOL0     H39952   5.469   6.180   3.447  0.7624  0.4191 -0.2882
  303MOL0     H39953   5.473   6.354   3.500 -1.8800 -0.2635 -1.5322
  303MOL0     H39954   5.354   6.109   3.642  3.0452 -0.2422  0.3415
  303MOL0     H39955   5.374   6.271   3.711 -0.9787  0.3032 -0.3894
  303MOL0     H39956   5.234   6.365   3.517 -3.5832 -0.6604 -1.1704
  303MOL0     H39957   5.150   6.261   3.632 -0.3852  1.5999  0.1506
  303MOL0     H39958   5.123   6.018   3.270  1.3722 -1.1529  1.1975
  303MOL0     H39959   4.955   5.845   3.280 -0.2019 -0.7606  0.4996
  303MOL0     H39960   4.790   5.457   3.491  0.3291  0.0578 -1.0118
  303MOL0     H39961   4.613   5.291   3.520  0.1610 -1.9510 -2.1958
  303MOL0     H39962   4.424   5.147   3.523 -0.2737 -1.8387  0.2638
  303MOL0     H39963   4.485   5.143   3.355 -0.3947 -0.1065 -0.1648
  303MOL0     H39964   4.193   5.132   3.454  2.4946 -0.6482  3.4276
  303MOL0     H39965   4.299   4.989   3.442  1.7065  0.2105  2.3120
  303MOL0     H39966   4.354   5.045   3.194  0.6958  0.3786 -0.3743
  303MOL0     H39967   4.237   5.173   3.203 -0.1661  0.2652  2.3697
  303MOL0     H39968   4.179   4.874   3.247 -0.4889 -2.0337 -1.7776
  303MOL0     H39969   4.049   4.998   3.212  0.7823  2.8519 -2.8436
  303MOL0     H39970   4.262   4.910   3.022  0.3453  2.0537 -1.8373
  303MOL0     H39971   4.156   5.040   2.994 -3.2786  0.3573  0.4286
  303MOL0     H39972   3.959   4.910   3.019 -1.9793 -3.4914  1.7162
  303MOL0     H39973   4.033   4.769   3.063  0.9324 -0.7330 -1.2248
  303MOL0     H39974   4.058   4.872   2.783 -1.1470  0.3019  0.4563
  303MOL0     H39975   4.150   4.746   2.835 -0.1783  0.6172 -0.4240
  303MOL0     H39976   3.893   4.647   2.911 -0.4007  1.1252  1.4752
  303MOL0     H39977   3.941   4.647   2.738 -2.0140  0.2106  0.0010
  303MOL0     H39978   4.364   5.531   3.271  0.9979 -0.8220 -1.5726
  303MOL0     H39979   4.542   5.705   3.252  0.3039 -2.2271 -1.4691
  303MOL0     H39980   4.939   5.887   3.704 -0.9787 -0.4751 -1.6738
  303MOL0     H39981   5.101   6.076   3.696 -0.8589 -1.3499  1.7203
  303MOL0     H39982   6.836   5.523   3.628  0.2309  0.3155  0.8588
  303MOL0     H39983   7.028   5.425   3.734 -0.8452 -0.2486  0.5323
  303MOL0     H39984   7.608   5.717   3.886 -0.4332  0.2984  1.2141
  303MOL0     H39985   7.766   5.619   4.043 -0.8000  1.5516 -0.1744
  303MOL0     H39986   7.896   5.309   3.967 -0.3041 -0.1925 -1.2160
  303MOL0     H39987   7.779   5.193   4.026 -0.0021 -0.5285 -1.2918
  303MOL0     H39988   8.028   5.268   4.181 -1.2260  0.0063  1.8786
  303MOL0     H39989   7.886   5.175   4.238 -1.4456  0.5762 -0.2897
  303MOL0     H39990   8.070   5.111   4.014 -2.9286  1.3133 -0.6942
  303MOL0     H39991   7.935   5.000   4.074  0.2911 -1.7540  1.5218
  303MOL0     H39992   8.135   5.088   4.272 -1.2122 -1.6753  1.4951
  303MOL0     H39993   8.063   4.924   4.243  2.3130 -2.2635 -2.1306
  303MOL0     H39994   8.441   4.933   4.052 -0.5796 -0.6567  1.2879
  303MOL0     H39995   7.543   5.251   4.039 -1.7729  0.6081  0.3378
  303MOL0     H39996   7.369   5.365   3.897  0.1322 -1.3277  0.9150
  304MOL0     O39997  10.088   3.588   4.850  0.5723 -0.2797 -0.3510
  304MOL0     C39998  10.104   3.657   4.752  0.6667  0.0952 -0.8394
  304MOL0     O39999  10.006   3.704   4.676  0.0982 -0.6338  0.5805
  304MOL0     C40000   9.874   3.688   4.706 -0.2284  0.1558  0.2738
  304MOL0     C40001   9.795   3.617   4.617  0.0419 -0.1262 -0.3031
  304MOL0     C40002   9.661   3.593   4.649  0.6524 -0.0878 -0.8188
  304MOL0     C40003   9.597   3.655   4.759  0.1608  0.8929  1.0743
  304MOL0     O40004   9.462   3.649   4.787 -0.4874  0.4730  0.0934
  304MOL0     C40005   9.393   3.532   4.746 -0.1577  0.4709 -0.9476
  304MOL0     C40006   9.251   3.540   4.807 -0.0973 -0.4617 -0.3118
  304MOL0     C40007   9.149   3.443   4.751 -0.4673  0.2927  0.5984
  304MOL0     C40008   9.058   3.519   4.665 -0.4680 -0.0283 -0.4339
  304MOL0     C40009   8.946   3.436   4.612  0.9318  0.2578 -0.6355
  304MOL0     C40010   8.833   3.412   4.705  0.2901  0.5359 -0.6124
  304MOL0     C40011   8.747   3.300   4.648  0.2706  0.4410 -1.0502
  304MOL0     C40012   8.638   3.273   4.752  0.1394 -0.1442  0.1685
  304MOL0     N40013   8.556   3.159   4.713  0.4267 -0.1294  0.4591
  304MOL0     C40014   8.433   3.181   4.649  0.0501 -0.0615 -0.2804
  304MOL0     C40015   8.371   3.060   4.654  0.3267 -0.8673  0.2287
  304MOL0     C40016   8.240   3.027   4.596  0.4961  0.1770  0.8412
  304MOL0     C40017   8.192   2.880   4.613 -0.2782 -0.4846 -0.5373
  304MOL0     C40018   8.045   2.885   4.565  0.4894 -0.3043 -0.8555
  304MOL0     C40019   8.030   2.899   4.419  1.2068  0.0942 -0.1060
  304MOL0     O40020   7.891   2.879   4.373  0.1710  0.1923 -0.2255
  304MOL0     C40021   7.800   2.937   4.455  0.2801  0.1251  0.9690
  304MOL0     C40022   7.773   3.068   4.454 -0.3514 -0.8058  0.1059
  304MOL0     C40023   7.664   3.126   4.515  0.2568  0.4162 -1.1593
  304MOL0     C40024   7.579   3.046   4.600 -0.6238  0.5876 -0.6590
  304MOL0     C40025   7.457   3.094   4.659 -0.4036 -0.1173  0.5072
  304MOL0     O40026   7.353   3.000   4.679  0.1414  0.5577  1.1706
  304MOL0     C40027   7.238   3.041   4.740  0.5209 -0.5106 -0.3078
  304MOL0     C40028   7.146   2.933   4.764 -0.1352  0.6068 -0.4500
  304MOL0     C40029   7.026   2.964   4.824  0.4187 -0.0556  0.6316
  304MOL0     C40030   6.979   3.092   4.855 -0.0983  0.4717 -0.9226
  304MOL0     O40031   6.849   3.116   4.896 -0.1697  0.4480  0.0442
  304MOL0     C40032   6.807   3.053   5.022  0.2749 -0.0332  1.1573
  304MOL0     C40033   6.690   2.962   4.994 -0.1236 -0.1377 -0.3218
  304MOL0     C40034   6.552   3.038   4.995 -0.2681 -0.5980 -0.2637
  304MOL0     C40035   6.433   2.939   4.984  0.3386 -0.2819  0.3466
  304MOL0     C40036   6.301   2.996   5.045  0.2068  0.1531  0.2683
  304MOL0     C40037   6.244   3.131   4.986 -0.2853  0.2508  0.4747
  304MOL0     C40038   6.106   3.150   5.042  0.7177  0.3571 -0.1772
  304MOL0     C40039   6.015   3.249   4.956  0.3930  1.0200  0.6541
  304MOL0    Cl40040   5.849   3.266   5.021  0.0849 -0.3349 -0.2262
  304MOL0     C40041   7.072   3.191   4.851  0.4428  0.5385 -0.1178
  304MOL0     C40042   7.197   3.172   4.783  0.3080 -0.7617 -0.9355
  304MOL0     O40043   7.456   3.210   4.688 -0.5889 -0.4007  0.2425
  304MOL0     C40044   7.625   2.914   4.622 -0.0235  0.4734 -0.3240
  304MOL0     C40045   7.727   2.858   4.537 -0.2646  0.3740  0.1457
  304MOL0     N40046   8.453   2.974   4.716 -0.0279  0.2379 -0.0390
  304MOL0     N40047   8.563   3.030   4.758 -0.0430 -0.1771  0.0901
  304MOL0     C40048   9.681   3.739   4.841 -1.1214 -0.4489 -0.1495
  304MOL0     C40049   9.816   3.746   4.822 -0.1364 -0.5843  0.1019
  304MOL0     C40050  10.237   3.694   4.710 -0.4317  0.8187  0.1814
  304MOL0     C40051  10.355   3.637   4.774  0.5726 -0.3626 -0.6998
  304MOL0     C40052  10.483   3.672   4.734  0.4448  0.7446 -0.9374
  304MOL0     C40053  10.502   3.781   4.644  0.2173  0.7265  0.0134
  304MOL0     O40054  10.623   3.833   4.613 -0.1479 -0.5085 -0.2523
  304MOL0     C40055  10.746   3.788   4.672 -0.0644 -0.3327  0.3638
  304MOL0     C40056  10.870   3.871   4.628  0.0068 -0.8983  0.2542
  304MOL0     C40057  10.989   3.850   4.725  1.6510 -0.4375  0.3718
  304MOL0     C40058  11.119   3.930   4.695  0.3762  0.0510 -0.1734
  304MOL0     C40059  11.094   4.073   4.707  0.3359  0.2794  0.2179
  304MOL0     C40060  11.069   4.187   4.707 -0.3194  0.2057 -0.0196
  304MOL0     C40061  10.379   3.831   4.584 -1.0207 -1.0459  0.9225
  304MOL0     C40062  10.252   3.790   4.615  0.9967 -0.4104  1.1726
  304MOL0     H40063   9.845   3.564   4.537 -0.1213  2.1032 -1.9873
  304MOL0     H40064   9.606   3.528   4.582  0.2726 -0.2135 -0.3928
  304MOL0     H40065   9.442   3.442   4.784  0.5003  0.9250 -0.6905
  304MOL0     H40066   9.394   3.525   4.637 -0.5212 -1.0656 -0.8769
  304MOL0     H40067   9.207   3.639   4.799 -3.7368 -2.0783 -2.9179
  304MOL0     H40068   9.267   3.526   4.914  1.6295  2.3177 -0.1005
  304MOL0     H40069   9.099   3.400   4.838 -0.1280 -0.5658  0.3813
  304MOL0     H40070   9.187   3.348   4.712 -2.4171 -0.6501  0.8915
  304MOL0     H40071   9.019   3.609   4.713  1.2177  0.1030  0.7853
  304MOL0     H40072   9.117   3.559   4.582 -1.5771  1.9774 -0.3382
  304MOL0     H40073   8.980   3.344   4.564  1.8481 -0.0721  0.5878
  304MOL0     H40074   8.903   3.499   4.534 -1.0976  0.7922  0.8238
  304MOL0     H40075   8.777   3.501   4.734  0.0211 -0.8393  3.8275
  304MOL0     H40076   8.876   3.384   4.801 -0.9947  0.9856  0.1230
  304MOL0     H40077   8.689   3.327   4.559 -1.9088  0.1219  0.2081
  304MOL0     H40078   8.809   3.214   4.620 -1.0840 -0.5161 -1.2286
  304MOL0     H40079   8.578   3.363   4.764  0.1712  0.2198 -2.0730
  304MOL0     H40080   8.683   3.274   4.852 -0.1621  0.3950  0.3025
  304MOL0     H40081   8.391   3.274   4.610 -0.5604 -0.9497 -1.8434
  304MOL0     H40082   8.242   3.048   4.489  1.6888 -1.8204  0.4170
  304MOL0     H40083   8.168   3.095   4.644 -1.4540 -0.3545 -1.1527
  304MOL0     H40084   8.201   2.857   4.719 -1.8796  2.8743  0.4870
  304MOL0     H40085   8.252   2.811   4.554  1.6587 -0.0900  0.8593
  304MOL0     H40086   8.011   2.784   4.588 -0.3639 -0.0378 -0.9314
  304MOL0     H40087   7.993   2.957   4.628  0.3106 -1.0004 -0.1906
  304MOL0     H40088   8.080   2.819   4.364  1.3484  0.0198  0.1315
  304MOL0     H40089   8.050   3.002   4.387 -1.9656  0.7410 -0.3681
  304MOL0     H40090   7.825   3.136   4.388  0.4878 -1.2067  0.3375
  304MOL0     H40091   7.643   3.231   4.498  1.2776  0.5823 -1.4595
  304MOL0     H40092   7.156   2.826   4.748  0.5192 -0.0746  3.5396
  304MOL0     H40093   6.955   2.882   4.826  1.3063 -0.8537  0.4529
  304MOL0     H40094   6.782   3.142   5.081  1.7251  1.9654 -1.0369
  304MOL0     H40095   6.891   2.991   5.056  0.8182 -0.5436 -0.9433
  304MOL0     H40096   6.689   2.891   5.077 -0.5080  0.1854 -0.0499
  304MOL0     H40097   6.709   2.901   4.905  1.1113 -1.5048  0.8148
  304MOL0     H40098   6.549   3.112   4.915 -0.6723 -0.1818  0.1337
  304MOL0     H40099   6.528   3.094   5.086 -1.8968  0.4723 -1.2971
  304MOL0     H40100   6.418   2.899   4.883  1.1242  0.4205 -0.0599
  304MOL0     H40101   6.465   2.851   5.042 -2.4259 -1.9019 -0.4114
  304MOL0     H40102   6.309   3.015   5.153 -0.6957  1.3324  0.1459
  304MOL0     H40103   6.218   2.927   5.029 -2.0158  2.5582  0.6440
  304MOL0     H40104   6.247   3.120   4.877 -0.2472 -2.1018  0.6633
  304MOL0     H40105   6.309   3.210   5.024 -1.8195  2.1935 -0.7514
  304MOL0     H40106   6.051   3.057   5.056  0.7110  0.6890  2.7288
  304MOL0     H40107   6.118   3.189   5.144  0.9888  1.6106 -0.6724
  304MOL0     H40108   6.012   3.215   4.852 -0.1287  0.1827  0.9339
  304MOL0     H40109   6.061   3.348   4.964  1.3184  0.4401  3.7783
  304MOL0     H40110   7.050   3.294   4.877 -0.0226 -0.0741  2.1841
  304MOL0     H40111   7.252   3.266   4.781 -0.4101 -0.2161  1.4395
  304MOL0     H40112   7.569   2.859   4.697  0.0364  5.3668  3.8970
  304MOL0     H40113   7.745   2.752   4.519 -2.1772  0.1669 -0.8703
  304MOL0     H40114   9.626   3.790   4.919 -2.1189 -0.9179 -0.5267
  304MOL0     H40115   9.873   3.808   4.891  0.1277 -0.7078 -0.0064
  304MOL0     H40116  10.333   3.564   4.851 -0.7771 -0.4987 -1.1747
  304MOL0     H40117  10.566   3.614   4.773 -1.5876 -1.7238 -0.0694
  304MOL0     H40118  10.755   3.681   4.654 -3.8689 -0.9713  1.2923
  304MOL0     H40119  10.732   3.790   4.780 -1.9044  0.5362  0.1619
  304MOL0     H40120  10.908   3.838   4.531  2.7977  0.6909  0.7099
  304MOL0     H40121  10.850   3.978   4.618 -3.2161 -1.5572 -2.3678
  304MOL0     H40122  11.021   3.746   4.738  1.0949 -0.2989  3.9438
  304MOL0     H40123  10.962   3.887   4.824  0.3240 -1.2540  0.3341
  304MOL0     H40124  11.191   3.915   4.777  1.3836 -2.1423 -1.3721
  304MOL0     H40125  11.170   3.900   4.603  0.0402 -0.8493 -0.0750
  304MOL0     H40126  11.045   4.290   4.692  1.4347  0.8083  1.0514
  304MOL0     H40127  10.382   3.916   4.517  0.7076 -0.3143  1.8654
  304MOL0     H40128  10.172   3.846   4.569  0.5015 -1.2176  1.0204
  305MOL0     O40129   2.106   0.527   9.568 -0.0156  0.7405 -0.2382
  305MOL0     C40130   2.108   0.533   9.448  1.2842 -0.6592 -0.2716
  305MOL0     O40131   2.004   0.563   9.369 -0.3994  0.3196 -0.3650
  305MOL0     C40132   1.872   0.584   9.411 -0.7216  0.0588  0.2554
  305MOL0     C40133   1.794   0.676   9.344  0.2135  0.5886 -0.8434
  305MOL0     C40134   1.660   0.701   9.388 -0.2457  0.4987 -0.2618
  305MOL0     C40135   1.601   0.636   9.499  0.0788  0.9800 -0.2860
  305MOL0     O40136   1.477   0.679   9.538 -0.2886  0.2732 -0.2705
  305MOL0     C40137   1.427   0.655   9.667  0.3639  1.1148  0.1343
  305MOL0     C40138   1.282   0.705   9.682 -0.8352 -1.0789 -0.4338
  305MOL0     C40139   1.201   0.627   9.785 -0.6241 -0.6475 -0.8138
  305MOL0     C40140   1.056   0.656   9.755  0.0017  0.1960  0.0740
  305MOL0     C40141   0.965   0.590   9.861  0.2327 -0.1698 -0.4178
  305MOL0     C40142   0.829   0.552   9.799  0.2854 -0.2835 -0.3193
  305MOL0     C40143   0.722   0.502   9.899  0.1337  0.1154 -0.2794
  305MOL0     C40144   0.579   0.480   9.849  0.0776  0.0735  0.5569
  305MOL0     N40145   0.467   0.544   9.922 -0.2026 -0.2179  0.2736
  305MOL0     C40146   0.407   0.508  10.042 -0.0450  0.8907  0.1810
  305MOL0     C40147   0.284   0.572  10.042  0.1496 -0.2743 -0.3125
  305MOL0     C40148   0.184   0.567  10.141  0.3181  0.3254 -0.5935
  305MOL0     C40149   0.111   0.432  10.121  0.4992  0.8471  0.1528
  305MOL0     C40150  -0.049   0.450  10.160  0.7733 -0.2246  0.2001
  305MOL0     C40151  -0.086   0.498  10.298 -0.3247 -0.2141  0.3565
  305MOL0     O40152  -0.233   0.498  10.293 -0.1948  0.4855 -0.2908
  305MOL0     C40153  -0.308   0.510  10.411 -0.3958 -0.2388  1.2855
  305MOL0     C40154  -0.435   0.462  10.384 -0.0718  0.5966  0.4297
  305MOL0     C40155  -0.537   0.453  10.483 -0.1152  0.2482 -0.5164
  305MOL0     C40156  -0.510   0.491  10.612  0.0349 -0.7938 -1.2490
  305MOL0     C40157  -0.614   0.480  10.722 -0.6716 -0.7612  0.8082
  305MOL0     O40158  -0.735   0.436  10.678 -0.0372  0.5700 -0.0916
  305MOL0     C40159  -0.829   0.419  10.778  0.0945 -0.0748 -0.0420
  305MOL0     C40160  -0.882   0.298  10.811 -0.5020  1.4335  0.5934
  305MOL0     C40161  -0.986   0.286  10.910 -0.6375  0.7681  0.4291
  305MOL0     C40162  -1.037   0.397  10.982  0.6200 -0.5198  1.0247
  305MOL0     O40163  -1.149   0.388  11.063 -0.6711 -0.4061 -0.4798
  305MOL0     C40164  -1.180   0.508  11.133 -0.0338 -0.7483  0.0353
  305MOL0     C40165  -1.313   0.493  11.215 -0.4807  0.4234  0.7221
  305MOL0     C40166  -1.437   0.438  11.140 -0.2670  0.1736 -0.6220
  305MOL0     C40167  -1.525   0.376  11.253  0.1234 -1.1166  0.2566
  305MOL0     C40168  -1.674   0.412  11.240  1.1847 -0.3054 -0.1196
  305MOL0     C40169  -1.706   0.561  11.265 -0.1188 -0.9119 -0.3555
  305MOL0     C40170  -1.861   0.590  11.263 -0.3205  0.2889  0.0734
  305MOL0     C40171  -1.889   0.738  11.297  1.1953 -1.7454 -0.6731
  305MOL0    Cl40172  -2.067   0.740  11.335 -0.1408  0.0297  0.2648
  305MOL0     C40173  -0.973   0.522  10.942  0.6676 -0.1535 -0.2661
  305MOL0     C40174  -0.877   0.527  10.842  0.6000 -1.0027 -0.1293
  305MOL0     O40175  -0.584   0.499  10.839 -0.0594 -0.4137  0.4339
  305MOL0     C40176  -0.384   0.550  10.640 -0.5582 -0.8419 -1.0810
  305MOL0     C40177  -0.284   0.558  10.539  0.1390  0.0745  0.0834
  305MOL0     N40178   0.276   0.649   9.928  0.1514  0.0062 -0.6863
  305MOL0     N40179   0.383   0.633   9.860 -0.3360  1.0057 -0.0579
  305MOL0     C40180   1.683   0.551   9.574 -0.0458 -0.0911  0.2583
  305MOL0     C40181   1.817   0.527   9.533 -0.0525  0.1774  0.6976
  305MOL0     C40182   2.237   0.509   9.384  0.1505  0.5503 -0.1668
  305MOL0     C40183   2.238   0.466   9.253  0.3574  0.2675  0.6671
  305MOL0     C40184   2.357   0.437   9.182  0.1180 -0.6185  0.6821
  305MOL0     C40185   2.477   0.460   9.242 -0.3214 -0.2431 -0.0289
  305MOL0     O40186   2.589   0.446   9.153  0.3397  0.1231 -0.3384
  305MOL0     C40187   2.706   0.512   9.196 -0.6086  0.1573 -0.4010
  305MOL0     C40188   2.829   0.443   9.140  0.8881 -0.2160  0.1100
  305MOL0     C40189   2.950   0.534   9.142 -0.5317  0.9446  0.3576
  305MOL0     C40190   3.080   0.442   9.164  0.1455  0.1360  1.0056
  305MOL0     C40191   3.199   0.529   9.158 -0.4937 -1.5814  0.4296
  305MOL0     C40192   3.288   0.615   9.158 -0.1836 -0.3127  0.1990
  305MOL0     C40193   2.481   0.499   9.379  0.4291  0.2392  0.2304
  305MOL0     C40194   2.357   0.518   9.448 -0.0990  0.0350 -0.2138
  305MOL0     H40195   1.839   0.739   9.268  3.1889 -0.2624  0.1018
  305MOL0     H40196   1.601   0.783   9.348  0.5178  1.2475  0.1295
  305MOL0     H40197   1.492   0.699   9.742  0.6338 -1.2313  1.3653
  305MOL0     H40198   1.413   0.547   9.677  0.5125  1.0795 -0.0395
  305MOL0     H40199   1.233   0.704   9.584 -0.8654 -3.0519 -0.4302
  305MOL0     H40200   1.275   0.813   9.701 -0.0852 -0.6288 -2.4830
  305MOL0     H40201   1.242   0.637   9.885 -0.0200 -2.8830 -0.7885
  305MOL0     H40202   1.211   0.522   9.756  0.6092 -0.8916  0.4486
  305MOL0     H40203   1.040   0.764   9.749  0.9670  0.5291  2.5027
  305MOL0     H40204   1.030   0.609   9.660 -2.8430  0.9693  0.3803
  305MOL0     H40205   0.939   0.658   9.943  1.5738  1.4469 -1.3016
  305MOL0     H40206   1.019   0.503   9.900  0.7862 -0.6823 -2.2461
  305MOL0     H40207   0.848   0.481   9.718  1.0449  0.4208 -0.7885
  305MOL0     H40208   0.788   0.644   9.755 -0.5103  0.7717  2.4087
  305MOL0     H40209   0.756   0.414   9.954  0.1104 -0.3345 -0.9656
  305MOL0     H40210   0.726   0.581   9.975  1.0927  0.4556 -0.6739
  305MOL0     H40211   0.555   0.374   9.851  0.8241 -0.1515 -0.8825
  305MOL0     H40212   0.569   0.512   9.745  1.6042  3.2697  1.2684
  305MOL0     H40213   0.442   0.435  10.115  3.3068  1.0564 -1.0973
  305MOL0     H40214   0.108   0.646  10.138  0.0776  0.0838 -0.8762
  305MOL0     H40215   0.229   0.561  10.241 -0.1539 -0.4788 -0.4298
  305MOL0     H40216   0.151   0.354  10.187 -0.8730  0.0783  0.1107
  305MOL0     H40217   0.127   0.399  10.018  0.8982 -1.0086  0.7767
  305MOL0     H40218  -0.090   0.518  10.085 -0.4186  1.0450  1.9194
  305MOL0     H40219  -0.104   0.356  10.149 -1.3748  0.7017  2.1308
  305MOL0     H40220  -0.054   0.599  10.325 -1.2139 -0.3729  2.1706
  305MOL0     H40221  -0.055   0.434  10.381 -1.7940  0.7541  1.7279
  305MOL0     H40222  -0.464   0.440  10.282 -2.8972  0.5363  1.1600
  305MOL0     H40223  -0.629   0.400  10.463  2.0377 -3.2720 -1.9683
  305MOL0     H40224  -0.862   0.205  10.758  1.5318  0.5999  2.6434
  305MOL0     H40225  -1.013   0.185  10.940 -1.6515  0.7506 -0.5106
  305MOL0     H40226  -1.211   0.580  11.057  0.5990 -1.6801 -1.1188
  305MOL0     H40227  -1.108   0.546  11.206 -2.3995 -1.8318  3.2154
  305MOL0     H40228  -1.338   0.591  11.255 -0.3853  0.7800 -0.0823
  305MOL0     H40229  -1.284   0.424  11.295  1.4557 -0.5169 -0.6980
  305MOL0     H40230  -1.405   0.362  11.068 -0.9240  0.0220 -0.7641
  305MOL0     H40231  -1.484   0.518  11.083  2.0598  2.6123  0.6551
  305MOL0     H40232  -1.518   0.268  11.236 -0.7401 -1.4549  1.8966
  305MOL0     H40233  -1.489   0.397  11.354  2.1854  2.3594 -1.0287
  305MOL0     H40234  -1.732   0.351  11.309 -1.0701  0.0064 -1.6340
  305MOL0     H40235  -1.708   0.390  11.138  1.3816  0.8464 -0.4471
  305MOL0     H40236  -1.656   0.630  11.196 -0.5784  0.4211  0.6338
  305MOL0     H40237  -1.672   0.576  11.367 -0.0924  0.1311 -0.5099
  305MOL0     H40238  -1.890   0.563  11.161  0.7721  0.3020 -0.2584
  305MOL0     H40239  -1.904   0.520  11.335 -1.5389  2.0528  1.1164
  305MOL0     H40240  -1.857   0.804  11.216 -0.5809 -2.0930 -1.7044
  305MOL0     H40241  -1.828   0.758  11.386 -1.1162  0.4531  0.5574
  305MOL0     H40242  -1.005   0.616  10.985 -0.6764 -1.1998  1.1632
  305MOL0     H40243  -0.841   0.626  10.815  1.1280 -0.3915  2.5549
  305MOL0     H40244  -0.364   0.590  10.739  0.1517 -0.3249 -1.4229
  305MOL0     H40245  -0.185   0.590  10.572  0.1137 -0.9679  1.2551
  305MOL0     H40246   1.646   0.502   9.664 -0.6009 -1.8024 -0.8575
  305MOL0     H40247   1.865   0.450   9.593  1.2335 -0.5173 -1.1507
  305MOL0     H40248   2.144   0.455   9.200  0.2029 -0.5570  1.0992
  305MOL0     H40249   2.358   0.412   9.076 -1.1274  0.9636  0.2760
  305MOL0     H40250   2.716   0.518   9.304  1.4257  1.7237 -0.6062
  305MOL0     H40251   2.710   0.617   9.164  5.4770  0.1288 -0.9621
  305MOL0     H40252   2.846   0.351   9.196  0.4940 -0.2405  0.1935
  305MOL0     H40253   2.807   0.405   9.040 -1.3351 -1.8525  1.1460
  305MOL0     H40254   2.941   0.600   9.230  0.4372  0.9816  0.4417
  305MOL0     H40255   2.950   0.589   9.047  1.1158  0.2577 -0.0659
  305MOL0     H40256   3.074   0.394   9.262 -0.6813 -1.0548  0.3998
  305MOL0     H40257   3.090   0.361   9.090  1.5772  2.4148 -1.4900
  305MOL0     H40258   3.364   0.690   9.157 -0.4393 -0.0540 -0.8919
  305MOL0     H40259   2.569   0.511   9.441 -0.8087  0.3981  2.0387
  305MOL0     H40260   2.359   0.545   9.553  1.0134 -1.9125  0.3135
  306MOL0     O40261   2.770  10.352   0.591  0.0450  0.0510 -0.8117
  306MOL0     C40262   2.866  10.321   0.529 -0.6108 -0.4085  0.1277
  306MOL0     O40263   2.886  10.344   0.390 -0.8637 -0.1655 -0.0591
  306MOL0     C40264   2.771  10.366   0.317  0.0713 -0.2155 -0.6380
  306MOL0     C40265   2.666  10.276   0.315  0.5228 -0.0324 -0.8010
  306MOL0     C40266   2.558  10.303   0.221 -0.4416  0.1343  0.3884
  306MOL0     C40267   2.571  10.411   0.134  1.0423  0.2241 -0.3127
  306MOL0     O40268   2.470  10.455   0.054  0.0503 -0.2541  0.4162
  306MOL0     C40269   2.369  10.356   0.023 -0.3114 -0.1758 -0.8033
  306MOL0     C40270   2.277  10.416  -0.081 -0.0583  0.4209  0.7048
  306MOL0     C40271   2.159  10.325  -0.112 -0.4670  0.6974  0.5125
  306MOL0     C40272   2.088  10.372  -0.240 -0.5615 -0.2101 -0.0067
  306MOL0     C40273   1.960  10.306  -0.281  0.1548  0.0538  0.1603
  306MOL0     C40274   1.901  10.361  -0.408  0.1231 -0.3722  0.3435
  306MOL0     C40275   1.746  10.343  -0.404 -0.9540 -0.9045  0.1838
  306MOL0     C40276   1.705  10.196  -0.409 -0.3819 -0.2364  0.2901
  306MOL0     N40277   1.563  10.194  -0.418 -0.1912  0.1369 -0.0186
  306MOL0     C40278   1.485  10.107  -0.348  0.7488  0.8022 -0.4047
  306MOL0     C40279   1.363  10.125  -0.383  0.6270 -0.8072  0.0112
  306MOL0     C40280   1.243  10.071  -0.305 -0.4495 -0.5225 -0.1222
  306MOL0     C40281   1.149  10.171  -0.242 -0.0995  0.2102 -0.5244
  306MOL0     C40282   1.209  10.253  -0.131  0.4877  0.8902  0.1425
  306MOL0     C40283   1.098  10.295  -0.039  0.6023 -0.5424 -0.3911
  306MOL0     O40284   1.051  10.191   0.048  0.0432 -0.6505 -0.2235
  306MOL0     C40285   0.934  10.215   0.118 -0.2566  0.5923 -0.3473
  306MOL0     C40286   0.934  10.144   0.240 -0.1906 -0.4386  0.3562
  306MOL0     C40287   0.831  10.157   0.333  0.1285  0.3340  0.5418
  306MOL0     C40288   0.714  10.231   0.300 -0.0919 -0.9002  0.0354
  306MOL0     C40289   0.600  10.242   0.393  0.4755 -0.8382  0.2903
  306MOL0     O40290   0.486  10.317   0.346 -0.0421 -0.0793  0.2460
  306MOL0     C40291   0.385  10.336   0.438  0.0411 -0.0287  0.3365
  306MOL0     C40292   0.249  10.293   0.419 -0.5565 -0.5299 -0.2875
  306MOL0     C40293   0.152  10.342   0.504 -0.0113 -0.4300 -0.1688
  306MOL0     C40294   0.174  10.433   0.606  0.3582 -0.5016 -0.6638
  306MOL0     O40295   0.079  10.486   0.694  0.3565  0.7229 -0.0582
  306MOL0     C40296  -0.055  10.498   0.651 -0.8148  0.6847  0.2527
  306MOL0     C40297  -0.144  10.575   0.755  0.8297  0.2414 -0.5762
  306MOL0     C40298  -0.081  10.711   0.807 -0.4368  0.6987  0.6750
  306MOL0     C40299  -0.176  10.784   0.894 -0.1906  0.1599 -0.6865
  306MOL0     C40300  -0.103  10.907   0.948  1.4593 -0.7004 -0.2720
  306MOL0     C40301  -0.206  10.992   1.019 -0.5832  0.3782  0.0861
  306MOL0     C40302  -0.139  11.117   1.104  0.7488  0.6577 -0.2513
  306MOL0     C40303  -0.058  11.209   1.015  0.4807  0.3910 -0.1994
  306MOL0    Cl40304  -0.177  11.274   0.890  0.0862 -0.5435  0.1732
  306MOL0     C40305   0.312  10.465   0.626 -0.1222 -0.0643  0.3623
  306MOL0     C40306   0.412  10.422   0.541 -0.2925 -0.7763  0.0754
  306MOL0     O40307   0.614  10.194   0.504 -0.1815  0.0865  0.0882
  306MOL0     C40308   0.718  10.297   0.173  0.0181  0.7347 -0.2162
  306MOL0     C40309   0.827  10.297   0.089 -0.8309 -0.1111  0.3468
  306MOL0     N40310   1.367  10.227  -0.481 -0.3937 -0.2564  0.0826
  306MOL0     N40311   1.488  10.266  -0.506  0.0933  0.4595  0.6859
  306MOL0     C40312   2.670  10.506   0.139 -0.2293  0.8737  0.0036
  306MOL0     C40313   2.774  10.485   0.236 -1.1997  0.3265  0.4387
  306MOL0     C40314   2.986  10.274   0.593  0.6814  0.0257 -0.1220
  306MOL0     C40315   3.115  10.301   0.540  0.5013 -0.2161 -0.3634
  306MOL0     C40316   3.228  10.239   0.591  0.2223  0.0628  0.0743
  306MOL0     C40317   3.219  10.157   0.699 -0.2408  0.6674  0.0131
  306MOL0     O40318   3.330  10.107   0.763  0.9451  0.8605  0.1837
  306MOL0     C40319   3.464  10.143   0.715 -0.1377 -0.1745  0.4341
  306MOL0     C40320   3.555  10.112   0.828 -0.5735  0.0739  0.2262
  306MOL0     C40321   3.699  10.111   0.782  0.0234  0.1387  0.6801
  306MOL0     C40322   3.797  10.073   0.889  0.5323 -0.0530  0.2841
  306MOL0     C40323   3.935  10.067   0.838  0.0741  0.0713 -0.6942
  306MOL0     C40324   4.053  10.073   0.797  0.4997  0.4946 -0.0616
  306MOL0     C40325   3.102  10.136   0.758  0.7863 -0.1871  0.0892
  306MOL0     C40326   2.987  10.190   0.703 -0.3053  1.3425  0.1876
  306MOL0     H40327   2.656  10.191   0.381 -3.4486  0.5859 -0.3836
  306MOL0     H40328   2.469  10.241   0.229  1.4666 -2.9751 -0.5960
  306MOL0     H40329   2.316  10.347   0.119  4.8616 -2.0645  2.2797
  306MOL0     H40330   2.417  10.262  -0.004  0.8839  0.1707  0.0461
  306MOL0     H40331   2.340  10.424  -0.170 -0.4097  1.8748  0.5621
  306MOL0     H40332   2.233  10.510  -0.046 -4.6226 -0.1399 -2.7004
  306MOL0     H40333   2.088  10.321  -0.028 -1.8582 -1.9417 -0.6795
  306MOL0     H40334   2.191  10.221  -0.121 -0.3698  0.6442  1.3744
  306MOL0     H40335   2.073  10.479  -0.222  0.1256 -0.3510  1.5651
  306MOL0     H40336   2.164  10.355  -0.317  0.3974  1.4380  0.5473
  306MOL0     H40337   1.889  10.304  -0.197 -0.6045  1.2252 -0.4155
  306MOL0     H40338   1.987  10.203  -0.304  2.4028  0.9002 -1.2437
  306MOL0     H40339   1.944  10.310  -0.495  1.4121  0.1309  0.6606
  306MOL0     H40340   1.926  10.468  -0.407 -2.5414  0.3270  1.8752
  306MOL0     H40341   1.713  10.397  -0.315 -1.1186 -1.9437  0.7788
  306MOL0     H40342   1.714  10.394  -0.496  2.6961 -1.6665 -1.6976
  306MOL0     H40343   1.732  10.146  -0.316  0.7125 -2.7894 -1.2680
  306MOL0     H40344   1.745  10.143  -0.496 -2.2279 -1.2565  0.0063
  306MOL0     H40345   1.516  10.047  -0.263  0.6339 -0.2224 -1.0757
  306MOL0     H40346   1.274  10.008  -0.221  0.2588  0.2392  0.2085
  306MOL0     H40347   1.187  10.013  -0.379 -0.5691 -0.6934  0.1007
  306MOL0     H40348   1.066  10.120  -0.191  0.7054  1.4110  2.1807
  306MOL0     H40349   1.121  10.244  -0.318 -0.3140  1.1154  0.3912
  306MOL0     H40350   1.289  10.193  -0.086  0.2389 -0.7940 -1.4848
  306MOL0     H40351   1.256  10.346  -0.166  0.5326  1.0620  0.6614
  306MOL0     H40352   1.012  10.338  -0.092 -0.8479 -1.6758  0.9546
  306MOL0     H40353   1.137  10.364   0.036 -1.9030 -2.3610  2.8299
  306MOL0     H40354   1.020  10.086   0.270 -0.4532 -1.4889 -0.8394
  306MOL0     H40355   0.846  10.099   0.424 -2.0543 -1.1934  0.0322
  306MOL0     H40356   0.227  10.240   0.327 -1.2059  1.7938 -1.5619
  306MOL0     H40357   0.052  10.307   0.485  0.5196 -1.2942 -1.5898
  306MOL0     H40358  -0.090  10.396   0.634 -0.2329 -0.0360  2.8602
  306MOL0     H40359  -0.055  10.535   0.549  0.9367 -1.8548 -0.7572
  306MOL0     H40360  -0.161  10.510   0.841  0.8799  0.1893 -0.6054
  306MOL0     H40361  -0.246  10.577   0.714  1.4268 -2.5842 -2.4832
  306MOL0     H40362  -0.062  10.759   0.711  0.2443 -0.8903 -0.0233
  306MOL0     H40363   0.014  10.705   0.860  0.4674  0.7852 -0.8828
  306MOL0     H40364  -0.267  10.812   0.841 -2.2276 -0.2801  2.2998
  306MOL0     H40365  -0.208  10.723   0.980 -1.5169  2.2612  0.3864
  306MOL0     H40366  -0.059  10.966   0.867 -1.2594 -1.0332 -2.1091
  306MOL0     H40367  -0.028  10.866   1.017  1.0493 -0.0335  0.5768
  306MOL0     H40368  -0.252  10.930   1.096 -1.8732  0.7935 -0.3154
  306MOL0     H40369  -0.285  11.035   0.956  1.0048  0.6350 -1.8245
  306MOL0     H40370  -0.226  11.171   1.141  1.3016  1.0366  0.5459
  306MOL0     H40371  -0.077  11.068   1.180 -0.1507 -3.4808 -1.9249
  306MOL0     H40372   0.029  11.168   0.964  0.2708 -0.8194  0.3756
  306MOL0     H40373  -0.010  11.289   1.071  2.8984 -2.2412  1.8061
  306MOL0     H40374   0.338  10.535   0.705  1.1601  1.7455 -1.5777
  306MOL0     H40375   0.514  10.457   0.555  0.0427 -2.1406  1.2790
  306MOL0     H40376   0.639  10.366   0.145  0.7265  3.1756  3.2002
  306MOL0     H40377   0.818  10.354  -0.003  0.1572  1.5054  1.2246
  306MOL0     H40378   2.667  10.581   0.061  0.5670 -2.4025 -3.5315
  306MOL0     H40379   2.867  10.539   0.239 -0.2254 -1.2644 -0.0176
  306MOL0     H40380   3.135  10.366   0.455  1.3774 -1.2345 -0.9541
  306MOL0     H40381   3.321  10.243   0.535  0.3339  0.1186  0.2625
  306MOL0     H40382   3.473  10.249   0.691  0.9347 -0.8836 -2.7579
  306MOL0     H40383   3.479  10.084   0.624  2.1058  0.1559  0.5195
  306MOL0     H40384   3.541  10.185   0.908 -1.8207  0.7803 -0.6183
  306MOL0     H40385   3.526  10.012   0.863 -0.3252  0.1165  0.5667
  306MOL0     H40386   3.724  10.206   0.735  1.3200 -0.0792  0.8826
  306MOL0     H40387   3.717  10.034   0.706  0.8291  0.6605  0.3330
  306MOL0     H40388   3.789  10.161   0.955  1.0760  0.3386 -0.1648
  306MOL0     H40389   3.765   9.982   0.940  1.3568 -0.8446 -0.5899
  306MOL0     H40390   4.153  10.089   0.764  1.7873  0.0175  3.1912
  306MOL0     H40391   3.095  10.088   0.856 -1.3563 -0.3298 -0.0861
  306MOL0     H40392   2.892  10.151   0.737  0.5275 -0.7968  0.2240
  307MOL0     O40393   4.377   3.084   3.304  0.0034  0.0673 -0.1276
  307MOL0     C40394   4.290   2.991   3.310 -0.4556 -0.2700 -0.8459
  307MOL0     O40395   4.156   2.999   3.304  0.4080 -0.0255  0.7609
  307MOL0     C40396   4.107   3.122   3.264  0.9774  0.1924  0.1207
  307MOL0     C40397   4.107   3.151   3.129 -0.1679 -0.0683  0.1474
  307MOL0     C40398   4.025   3.262   3.083 -0.1105 -0.0940  0.1786
  307MOL0     C40399   3.954   3.337   3.175  0.2149  0.5200  0.0159
  307MOL0     O40400   3.863   3.440   3.144 -0.0503 -0.4154  0.0884
  307MOL0     C40401   3.895   3.523   3.030  0.1576 -0.0258 -0.4678
  307MOL0     C40402   3.756   3.572   2.970 -0.1501  0.3814  0.6198
  307MOL0     C40403   3.695   3.696   3.041  0.5789 -0.9626 -0.4239
  307MOL0     C40404   3.760   3.827   3.000  0.1162  0.7313 -0.5556
  307MOL0     C40405   3.688   3.939   3.077  0.7675  0.2966 -0.0420
  307MOL0     C40406   3.690   3.933   3.225  0.2379  0.4949 -0.7183
  307MOL0     C40407   3.666   4.058   3.299 -0.4774  0.4066  0.1635
  307MOL0     C40408   3.634   4.030   3.448  0.3582 -0.1375 -0.6113
  307MOL0     N40409   3.639   4.154   3.526  0.0258  0.1837 -0.0910
  307MOL0     C40410   3.539   4.251   3.514 -0.0561  0.4349 -0.3265
  307MOL0     C40411   3.597   4.359   3.566  0.1857  0.7176 -0.0088
  307MOL0     C40412   3.544   4.494   3.582  1.0549 -0.2226  0.3411
  307MOL0     C40413   3.487   4.520   3.727 -0.2143  0.4239  0.3712
  307MOL0     C40414   3.366   4.428   3.748  0.1192  0.4462  0.1034
  307MOL0     C40415   3.296   4.468   3.882  0.1949 -0.5079 -0.9050
  307MOL0     O40416   3.184   4.381   3.899 -0.7797  0.2147 -0.2309
  307MOL0     C40417   3.049   4.413   3.924 -0.7486  0.2505  0.2212
  307MOL0     C40418   3.000   4.540   3.908 -0.1655 -0.4636  0.6486
  307MOL0     C40419   2.874   4.581   3.937  0.0813 -0.3626  0.3971
  307MOL0     C40420   2.788   4.489   3.990  0.0589  0.7771 -0.2387
  307MOL0     C40421   2.649   4.522   4.017  1.1705 -0.7501 -0.6138
  307MOL0     O40422   2.588   4.460   4.129  0.0803 -1.1405  0.0298
  307MOL0     C40423   2.453   4.433   4.114 -0.1454 -0.5437 -0.8146
  307MOL0     C40424   2.423   4.291   4.099  0.3737  0.9100 -0.4953
  307MOL0     C40425   2.291   4.251   4.108  0.7395 -0.4662 -0.0655
  307MOL0     C40426   2.193   4.349   4.108 -0.1645 -0.4760  0.6037
  307MOL0     O40427   2.061   4.321   4.085  0.1625 -0.2557  0.3230
  307MOL0     C40428   2.018   4.181   4.078 -0.8933 -0.3910  0.3629
  307MOL0     C40429   1.871   4.168   4.044 -0.5214  0.1006  0.4803
  307MOL0     C40430   1.782   4.189   4.171 -0.2940 -0.0619 -0.1528
  307MOL0     C40431   1.640   4.175   4.132 -0.8487  0.3450  0.8747
  307MOL0     C40432   1.552   4.196   4.251  0.0438  0.8670  0.4473
  307MOL0     C40433   1.552   4.092   4.364  0.1446 -1.1196  0.1311
  307MOL0     C40434   1.467   4.147   4.480 -0.2680 -0.5738  0.2505
  307MOL0     C40435   1.309   4.163   4.443 -0.8416  0.3130  0.5216
  307MOL0    Cl40436   1.233   3.999   4.419  0.0450  0.1041 -0.4060
  307MOL0     C40437   2.222   4.489   4.112  0.1118 -0.1200  0.0921
  307MOL0     C40438   2.353   4.530   4.122 -0.1614 -0.3670  0.0691
  307MOL0     O40439   2.592   4.598   3.938 -0.0109 -0.4035 -0.2568
  307MOL0     C40440   2.830   4.353   4.001  0.5383 -0.1978 -0.3717
  307MOL0     C40441   2.962   4.321   3.971  0.3733 -0.8905  1.2122
  307MOL0     N40442   3.721   4.324   3.617  0.3036  0.1672  0.0605
  307MOL0     N40443   3.746   4.199   3.595 -0.0471 -0.3124 -0.0712
  307MOL0     C40444   3.963   3.311   3.309  0.5840 -0.5450  0.4654
  307MOL0     C40445   4.034   3.203   3.351 -0.2870  0.6483 -0.3656
  307MOL0     C40446   4.341   2.849   3.325  0.0927 -1.0489  0.7547
  307MOL0     C40447   4.464   2.806   3.271  0.4757 -0.7900  0.1960
  307MOL0     C40448   4.509   2.677   3.295  0.7064 -1.7007  0.2256
  307MOL0     C40449   4.432   2.586   3.372  1.1466 -0.1618  0.3926
  307MOL0     O40450   4.477   2.463   3.405  0.3134  0.1059 -0.5590
  307MOL0     C40451   4.380   2.362   3.443 -0.1859  0.1987  0.6188
  307MOL0     C40452   4.438   2.224   3.469  0.2638 -0.1139 -1.0649
  307MOL0     C40453   4.570   2.239   3.548 -0.2022  0.2255 -0.0827
  307MOL0     C40454   4.611   2.108   3.605 -0.1941 -0.3498 -0.3149
  307MOL0     C40455   4.725   2.109   3.708  0.9123 -0.5282 -0.3247
  307MOL0     C40456   4.812   2.089   3.792 -1.0028  0.0765 -1.0292
  307MOL0     C40457   4.308   2.633   3.419  0.1901 -0.3242  0.4475
  307MOL0     C40458   4.266   2.763   3.401  0.4739  0.3394  0.4920
  307MOL0     H40459   4.168   3.086   3.067  0.4327  0.8840 -0.2683
  307MOL0     H40460   4.025   3.286   2.977  2.2949  1.7764  0.5082
  307MOL0     H40461   3.960   3.469   2.960 -1.9474 -0.9483 -1.7828
  307MOL0     H40462   3.962   3.597   3.075 -0.0459 -1.0380  1.6095
  307MOL0     H40463   3.684   3.490   2.963  1.4435 -0.9633 -3.7251
  307MOL0     H40464   3.772   3.612   2.869 -2.5258  0.7583  0.3510
  307MOL0     H40465   3.718   3.685   3.147  1.4394 -0.6306 -0.5593
  307MOL0     H40466   3.589   3.697   3.018  1.1494 -0.8443 -3.4840
  307MOL0     H40467   3.865   3.815   3.026  0.4245  1.0895 -1.6023
  307MOL0     H40468   3.774   3.838   2.892  3.0665  0.4552 -0.2781
  307MOL0     H40469   3.581   3.938   3.055  0.5706  0.4874  0.8935
  307MOL0     H40470   3.721   4.037   3.040 -3.3368  3.0729  2.7758
  307MOL0     H40471   3.788   3.897   3.257  0.7387  1.8672 -0.6443
  307MOL0     H40472   3.619   3.857   3.260  1.2266 -0.1908 -0.1555
  307MOL0     H40473   3.753   4.124   3.305  1.4673 -2.0102  0.0474
  307MOL0     H40474   3.580   4.106   3.252 -0.6207  2.7270  2.5608
  307MOL0     H40475   3.711   3.960   3.482 -0.1857 -0.7123 -0.5434
  307MOL0     H40476   3.537   3.980   3.451 -0.1817  0.8235 -1.5708
  307MOL0     H40477   3.439   4.245   3.472  1.0745  0.9747 -3.3959
  307MOL0     H40478   3.455   4.506   3.519 -0.7459 -0.6424  2.6608
  307MOL0     H40479   3.630   4.560   3.563  2.1862 -0.9820  2.5145
  307MOL0     H40480   3.461   4.624   3.745  0.0229  0.5147  0.1868
  307MOL0     H40481   3.571   4.494   3.792  0.2493 -2.1577 -1.1158
  307MOL0     H40482   3.291   4.438   3.669  0.5950  2.5075 -0.1344
  307MOL0     H40483   3.406   4.327   3.743 -1.3349 -0.1306 -0.6038
  307MOL0     H40484   3.272   4.575   3.888  2.5242  0.0022  0.9240
  307MOL0     H40485   3.356   4.437   3.968 -0.9662 -4.0046 -1.2055
  307MOL0     H40486   3.062   4.618   3.864  1.8043 -2.7594 -0.9180
  307MOL0     H40487   2.862   4.688   3.923  3.8286  0.2284  0.6810
  307MOL0     H40488   2.502   4.217   4.095  0.2592  0.7362  0.4146
  307MOL0     H40489   2.262   4.147   4.102  0.9912 -0.6238  1.2904
  307MOL0     H40490   2.034   4.126   4.172 -2.1029 -1.1290  0.1634
  307MOL0     H40491   2.066   4.122   3.999 -1.3872 -1.1395  0.6045
  307MOL0     H40492   1.843   4.069   4.009  1.7252 -1.3872  2.5669
  307MOL0     H40493   1.835   4.240   3.970 -3.5632  0.0999  1.8017
  307MOL0     H40494   1.794   4.287   4.218 -2.3598  0.7980 -1.3026
  307MOL0     H40495   1.798   4.106   4.240 -0.8313  0.0234  0.0834
  307MOL0     H40496   1.606   4.246   4.055 -2.1345  0.0851  1.1668
  307MOL0     H40497   1.629   4.074   4.090 -2.0159  0.6497  0.3867
  307MOL0     H40498   1.453   4.198   4.204 -1.2404  1.5918  3.0160
  307MOL0     H40499   1.578   4.289   4.302  2.0873 -0.3476  1.7408
  307MOL0     H40500   1.653   4.074   4.401  0.5566  0.7092 -0.0134
  307MOL0     H40501   1.516   3.995   4.328 -1.5717 -0.2508 -0.5986
  307MOL0     H40502   1.466   4.083   4.569 -2.2295 -2.8739 -1.2999
  307MOL0     H40503   1.517   4.233   4.525 -1.0664 -0.8911  1.8153
  307MOL0     H40504   1.303   4.217   4.348 -2.5169 -3.3060 -1.6521
  307MOL0     H40505   1.259   4.226   4.516 -1.2915 -0.1346  0.6075
  307MOL0     H40506   2.147   4.567   4.105  1.8275  1.4571 -3.1812
  307MOL0     H40507   2.382   4.634   4.125  1.1118 -0.7066  0.2392
  307MOL0     H40508   2.765   4.274   4.037  1.1448 -1.1849 -1.3927
  307MOL0     H40509   2.996   4.219   3.973  3.3163  0.0146  1.9529
  307MOL0     H40510   3.903   3.373   3.374 -0.2867 -0.8675 -0.0116
  307MOL0     H40511   4.042   3.186   3.458  1.2555  2.4211 -0.1555
  307MOL0     H40512   4.518   2.889   3.227 -3.4690  1.4189 -0.9756
  307MOL0     H40513   4.609   2.643   3.267  2.5525  3.8635 -1.2694
  307MOL0     H40514   4.298   2.358   3.370 -0.3961 -0.6065  0.8933
  307MOL0     H40515   4.355   2.393   3.545  1.2175 -1.0122  1.3689
  307MOL0     H40516   4.362   2.169   3.525  0.7469 -1.3456 -1.5897
  307MOL0     H40517   4.458   2.172   3.376  0.1611 -0.5208 -0.8612
  307MOL0     H40518   4.562   2.321   3.620  1.5828 -0.0224  0.4628
  307MOL0     H40519   4.658   2.258   3.485  1.0872  2.7645  2.2610
  307MOL0     H40520   4.525   2.057   3.650 -1.8667  0.8447 -2.0385
  307MOL0     H40521   4.645   2.049   3.519  0.5390  1.4382 -1.3120
  307MOL0     H40522   4.887   2.095   3.868  0.0662 -1.6661 -1.8807
  307MOL0     H40523   4.236   2.570   3.470  0.2105  1.0104  2.2102
  307MOL0     H40524   4.168   2.781   3.443 -0.1218 -0.0480 -0.6996
  308MOL0     O40525   8.329   3.689   0.256 -0.0422 -0.1011  0.3921
  308MOL0     C40526   8.239   3.735   0.189  0.0932  0.1809  0.5001
  308MOL0     O40527   8.235   3.746   0.046  0.0223  0.5379 -0.7426
  308MOL0     C40528   8.336   3.702  -0.041  0.4591 -0.2165 -0.3190
  308MOL0     C40529   8.305   3.692  -0.177 -0.2473  0.0938 -0.8086
  308MOL0     C40530   8.404   3.659  -0.264 -0.3224 -0.5965  0.1590
  308MOL0     C40531   8.539   3.649  -0.233 -0.3553 -0.2630  0.1401
  308MOL0     O40532   8.639   3.617  -0.315 -0.0307 -0.0756  0.1127
  308MOL0     C40533   8.619   3.630  -0.453 -0.1474 -0.2009  0.2259
  308MOL0     C40534   8.754   3.622  -0.526 -0.4113 -0.3388 -0.0802
  308MOL0     C40535   8.850   3.735  -0.484 -0.2475 -0.3641 -0.0934
  308MOL0     C40536   8.977   3.725  -0.565  1.1535  0.7010  0.1200
  308MOL0     C40537   9.074   3.833  -0.520  0.6360 -0.5212 -0.3434
  308MOL0     C40538   9.211   3.828  -0.603  0.4881  0.1301 -0.9970
  308MOL0     C40539   9.195   3.855  -0.757 -0.6653  0.0372 -0.4409
  308MOL0     C40540   9.292   3.792  -0.854  1.1292 -0.3920  0.5134
  308MOL0     N40541   9.266   3.857  -0.987  0.5603  0.7445 -0.0264
  308MOL0     C40542   9.145   3.863  -1.051 -0.4002 -1.0264  0.1087
  308MOL0     C40543   9.164   3.948  -1.156 -0.5708 -0.0475  0.3747
  308MOL0     C40544   9.058   3.974  -1.260  1.1388  0.2260  0.3350
  308MOL0     C40545   9.023   4.122  -1.282  0.3525 -0.4934 -0.2415
  308MOL0     C40546   8.957   4.189  -1.174 -0.2587 -0.4081 -1.0498
  308MOL0     C40547   8.902   4.320  -1.238 -0.1637 -0.3972 -0.1506
  308MOL0     O40548   8.849   4.423  -1.152  0.3478  0.3247 -0.4598
  308MOL0     C40549   8.729   4.395  -1.088  0.2958 -0.1138 -0.4347
  308MOL0     C40550   8.638   4.299  -1.115  0.1555  0.2781 -0.8406
  308MOL0     C40551   8.526   4.268  -1.031  0.3523 -0.4416  0.3367
  308MOL0     C40552   8.514   4.340  -0.915 -0.9627  0.0722  0.1125
  308MOL0     C40553   8.397   4.318  -0.823 -0.0617 -0.4163 -0.3335
  308MOL0     O40554   8.399   4.391  -0.707  0.0489 -0.4034  0.5008
  308MOL0     C40555   8.295   4.401  -0.623 -0.2906 -0.9196  0.5382
  308MOL0     C40556   8.326   4.404  -0.482 -0.4776 -0.2605  0.6036
  308MOL0     C40557   8.216   4.423  -0.389 -0.4045 -0.0861  0.7510
  308MOL0     C40558   8.083   4.450  -0.437 -0.5854 -0.1265  1.0538
  308MOL0     O40559   7.979   4.472  -0.353  0.3036  0.2741 -0.5677
  308MOL0     C40560   8.012   4.487  -0.212 -0.2985  0.5133 -0.9230
  308MOL0     C40561   7.888   4.505  -0.124 -0.1137  0.3648 -0.2834
  308MOL0     C40562   7.802   4.626  -0.174 -0.4004  0.5856 -0.2557
  308MOL0     C40563   7.657   4.608  -0.130 -0.3115  0.6682  0.1627
  308MOL0     C40564   7.581   4.732  -0.158 -0.1119  0.2740 -0.2712
  308MOL0     C40565   7.430   4.734  -0.108 -0.5377  0.0587 -0.6054
  308MOL0     C40566   7.429   4.753   0.045  0.2149  0.1936 -0.4420
  308MOL0     C40567   7.288   4.776   0.105 -0.0467 -0.3732  0.6371
  308MOL0    Cl40568   7.276   4.769   0.291  0.0515  0.3773 -0.0939
  308MOL0     C40569   8.060   4.430  -0.573  0.2678  0.0360 -0.2416
  308MOL0     C40570   8.164   4.416  -0.668  0.9903 -0.2161 -0.4992
  308MOL0     O40571   8.313   4.235  -0.855 -0.6665  0.5271  0.1804
  308MOL0     C40572   8.608   4.439  -0.881  0.4664  0.0086  0.0810
  308MOL0     C40573   8.711   4.466  -0.968 -0.7398 -0.3819 -0.1270
  308MOL0     N40574   9.283   4.004  -1.146  0.4776  0.2612  0.5199
  308MOL0     N40575   9.353   3.947  -1.054  0.4445  1.1580 -0.3786
  308MOL0     C40576   8.572   3.665  -0.099  0.4524 -0.1452  0.0218
  308MOL0     C40577   8.472   3.688  -0.001 -0.4465  0.3917 -0.5472
  308MOL0     C40578   8.123   3.797   0.255 -0.1391 -0.0059 -1.5951
  308MOL0     C40579   8.134   3.837   0.394  0.6283  0.2566  0.9592
  308MOL0     C40580   8.032   3.917   0.452  0.4622 -0.1422 -0.3807
  308MOL0     C40581   7.908   3.950   0.379 -0.8513 -0.0174  0.1671
  308MOL0     O40582   7.803   4.017   0.432  0.3299 -0.1318  0.4253
  308MOL0     C40583   7.691   3.922   0.462 -0.1610 -0.6670  0.4096
  308MOL0     C40584   7.554   3.941   0.393  0.6374 -0.1925 -0.1437
  308MOL0     C40585   7.477   4.073   0.433  0.1365  0.2049 -0.1046
  308MOL0     C40586   7.462   4.103   0.583  0.2463  0.7401 -1.0919
  308MOL0     C40587   7.395   3.988   0.643  0.4128 -0.1414  0.7737
  308MOL0     C40588   7.347   3.885   0.687 -0.2780 -0.7646  0.1878
  308MOL0     C40589   7.900   3.911   0.248  0.4471 -0.1769 -1.5392
  308MOL0     C40590   8.008   3.835   0.188 -0.2329  0.5436  0.3648
  308MOL0     H40591   8.201   3.719  -0.197 -0.9900 -2.3848 -0.5648
  308MOL0     H40592   8.376   3.653  -0.369  0.3360 -0.0893 -0.0503
  308MOL0     H40593   8.567   3.720  -0.487 -0.9629 -0.7139  0.0973
  308MOL0     H40594   8.561   3.542  -0.481  1.6946 -2.2860  2.5259
  308MOL0     H40595   8.727   3.637  -0.632  0.2595  0.3292 -0.1660
  308MOL0     H40596   8.798   3.524  -0.506  1.2008  0.1225 -1.1446
  308MOL0     H40597   8.879   3.709  -0.381  0.4251 -2.7320 -0.8080
  308MOL0     H40598   8.806   3.833  -0.501 -1.3639 -0.9365 -0.5583
  308MOL0     H40599   9.031   3.631  -0.551 -0.3577 -0.2180  0.0159
  308MOL0     H40600   8.958   3.744  -0.671  0.6714 -1.0490 -0.1430
  308MOL0     H40601   9.090   3.824  -0.413 -1.8719 -2.4570 -0.0617
  308MOL0     H40602   9.024   3.930  -0.533 -0.8459 -1.2678 -0.3832
  308MOL0     H40603   9.260   3.732  -0.590 -0.7367 -0.4619 -0.5687
  308MOL0     H40604   9.274   3.907  -0.561 -0.8545  0.4284  0.6054
  308MOL0     H40605   9.094   3.821  -0.782 -0.9738  0.7555 -0.1934
  308MOL0     H40606   9.214   3.962  -0.768  1.6862 -0.3798 -1.1682
  308MOL0     H40607   9.286   3.684  -0.844 -0.8872 -0.2955  0.6899
  308MOL0     H40608   9.390   3.829  -0.820  0.2636  1.5991  1.0062
  308MOL0     H40609   9.050   3.816  -1.032 -0.1265 -1.4649  0.4279
  308MOL0     H40610   8.971   3.915  -1.228  0.1056  1.1268 -0.6979
  308MOL0     H40611   9.091   3.936  -1.357  0.9352  1.6901 -0.3326
  308MOL0     H40612   8.960   4.133  -1.371 -2.7992 -1.0880  1.7525
  308MOL0     H40613   9.115   4.179  -1.299  1.1341 -0.9399  2.1593
  308MOL0     H40614   8.875   4.128  -1.134  0.5032 -0.6476  0.2219
  308MOL0     H40615   9.025   4.197  -1.089 -2.6245 -3.0864  1.3454
  308MOL0     H40616   8.833   4.297  -1.319 -0.7486  0.0077  0.2233
  308MOL0     H40617   8.994   4.367  -1.273  1.0472 -2.3214  0.3282
  308MOL0     H40618   8.659   4.239  -1.202 -1.7527 -0.0470 -1.1381
  308MOL0     H40619   8.448   4.196  -1.052  1.2586 -0.8598 -1.9591
  308MOL0     H40620   8.423   4.396  -0.434 -0.2850 -4.0876 -0.1676
  308MOL0     H40621   8.238   4.406  -0.285  1.5472  2.5820  0.8914
  308MOL0     H40622   8.084   4.565  -0.186 -0.1198 -0.7750  3.1735
  308MOL0     H40623   8.056   4.391  -0.183  1.0606  0.8384 -1.8061
  308MOL0     H40624   7.928   4.521  -0.024  0.8184  3.2924 -1.0493
  308MOL0     H40625   7.829   4.412  -0.130 -0.1871  0.2522  1.7045
  308MOL0     H40626   7.814   4.633  -0.283 -0.3981  0.7921 -0.2422
  308MOL0     H40627   7.843   4.718  -0.131 -0.5362  0.3749  0.3314
  308MOL0     H40628   7.627   4.518  -0.183  3.3842 -0.0970 -0.9251
  308MOL0     H40629   7.654   4.602  -0.020 -1.7670  0.5864  0.1237
  308MOL0     H40630   7.582   4.743  -0.267 -0.7699  0.4878 -0.2586
  308MOL0     H40631   7.632   4.812  -0.103  0.0979 -0.0496  0.0167
  308MOL0     H40632   7.390   4.638  -0.144  0.5900 -0.5310 -0.3497
  308MOL0     H40633   7.383   4.818  -0.160 -0.3347 -1.0963 -2.7639
  308MOL0     H40634   7.472   4.663   0.090  0.3621  0.8147  0.7166
  308MOL0     H40635   7.478   4.847   0.075 -3.3873  2.1820 -0.1922
  308MOL0     H40636   7.224   4.698   0.061  2.2207 -1.7985 -0.3232
  308MOL0     H40637   7.261   4.878   0.077 -0.7625 -0.7860 -0.2496
  308MOL0     H40638   7.956   4.430  -0.605  0.3367 -1.6110 -0.5259
  308MOL0     H40639   8.131   4.411  -0.771 -0.7919  1.6758 -0.0853
  308MOL0     H40640   8.595   4.504  -0.795  1.4946 -1.2093  1.2020
  308MOL0     H40641   8.783   4.542  -0.939  0.3355 -1.0170 -1.0788
  308MOL0     H40642   8.678   3.663  -0.079  0.5330 -1.3105 -0.4545
  308MOL0     H40643   8.505   3.689   0.102 -1.4637 -0.4891 -0.1867
  308MOL0     H40644   8.207   3.809   0.469  0.1797  0.2365  1.3963
  308MOL0     H40645   8.039   3.955   0.554  0.5030 -2.5495  0.5607
  308MOL0     H40646   7.683   3.928   0.571  0.1973 -1.1791  0.4688
  308MOL0     H40647   7.715   3.818   0.436 -1.1600 -1.3053  1.9036
  308MOL0     H40648   7.563   3.938   0.284 -0.8548  0.0192 -0.2999
  308MOL0     H40649   7.496   3.853   0.423 -1.9099  1.2985 -0.4435
  308MOL0     H40650   7.376   4.069   0.392  0.0685  0.6247  0.0128
  308MOL0     H40651   7.532   4.160   0.395  0.4942  0.1420  0.2641
  308MOL0     H40652   7.566   4.113   0.619  0.4486 -1.4755 -0.8968
  308MOL0     H40653   7.407   4.197   0.595  1.3745  1.1920  1.2621
  308MOL0     H40654   7.323   3.784   0.715 -1.2983 -0.2438  1.3336
  308MOL0     H40655   7.815   3.940   0.187 -0.2389  0.8429 -0.1403
  308MOL0     H40656   8.000   3.816   0.082  2.7231 -0.7820  0.2681
  309MOL0     O40657   5.806  11.104   2.985 -0.4324 -0.2052  0.5452
  309MOL0     C40658   5.812  11.001   3.044  0.7355 -1.1592 -1.1975
  309MOL0     O40659   5.860  10.988   3.173 -0.3571 -0.2895  0.1512
  309MOL0     C40660   5.929  11.100   3.215  0.4279 -0.6685  0.1532
  309MOL0     C40661   6.069  11.105   3.198  0.0816 -0.9191  0.1135
  309MOL0     C40662   6.126  11.227   3.237 -0.6435  0.6777  1.1838
  309MOL0     C40663   6.057  11.328   3.300  0.8313 -1.1504 -0.0683
  309MOL0     O40664   6.138  11.443   3.331 -1.3995 -0.0029  0.0374
  309MOL0     C40665   6.094  11.512   3.453 -0.0405  0.1049  1.4962
  309MOL0     C40666   6.178  11.630   3.484  0.2276  0.3315  0.0537
  309MOL0     C40667   6.325  11.586   3.505 -0.2898  0.6354 -0.2956
  309MOL0     C40668   6.422  11.689   3.556 -0.3209 -0.0453  0.3852
  309MOL0     C40669   6.568  11.633   3.576  0.1904  0.6943  0.8653
  309MOL0     C40670   6.635  11.611   3.433 -0.3969  0.0397 -0.5366
  309MOL0     C40671   6.774  11.548   3.460  0.1958  0.5747  0.4477
  309MOL0     C40672   6.858  11.528   3.331  0.0868 -0.7348  0.4863
  309MOL0     N40673   6.984  11.455   3.360  0.3310  0.3771  0.5356
  309MOL0     C40674   7.073  11.484   3.466 -0.2947  0.3932  0.0776
  309MOL0     C40675   7.179  11.404   3.449 -0.2075 -0.3227  0.0032
  309MOL0     C40676   7.299  11.405   3.538 -0.4143  0.9741  0.1545
  309MOL0     C40677   7.354  11.259   3.540 -0.5390  0.7170 -0.9752
  309MOL0     C40678   7.336  11.198   3.685 -0.5342  0.1862  0.1457
  309MOL0     C40679   7.447  11.217   3.777  0.0028 -0.1600  0.1333
  309MOL0     O40680   7.384  11.169   3.898 -0.5743  0.2787  0.7672
  309MOL0     C40681   7.456  11.178   4.012 -0.2131 -0.2823 -0.2466
  309MOL0     C40682   7.596  11.206   4.024 -0.5419 -0.2532  0.2115
  309MOL0     C40683   7.652  11.211   4.150 -0.3581 -0.3889  0.8815
  309MOL0     C40684   7.583  11.161   4.260  0.4584  0.3126 -0.1925
  309MOL0     C40685   7.659  11.132   4.381  0.3862 -0.7018 -0.4592
  309MOL0     O40686   7.582  11.071   4.471  0.0049 -0.0017 -0.6440
  309MOL0     C40687   7.633  11.047   4.598 -0.3577  0.2527  0.3557
  309MOL0     C40688   7.591  11.129   4.706 -0.2690  0.0399 -0.6053
  309MOL0     C40689   7.625  11.102   4.837 -0.2056 -0.2295 -0.1718
  309MOL0     C40690   7.721  11.002   4.861  0.1274  0.0622 -0.5722
  309MOL0     O40691   7.746  10.968   4.990 -0.2944 -0.5689 -0.0921
  309MOL0     C40692   7.853  10.879   5.021 -0.9277  0.1391 -0.4370
  309MOL0     C40693   7.902  10.879   5.172  0.5951  0.0647  0.2927
  309MOL0     C40694   7.970  11.013   5.217  0.2506 -1.1610  0.0541
  309MOL0     C40695   8.116  11.026   5.157 -0.5958  0.9268  0.5268
  309MOL0     C40696   8.224  11.123   5.221 -0.2520 -0.0907  0.2777
  309MOL0     C40697   8.167  11.268   5.219 -0.2626 -0.2909 -0.6162
  309MOL0     C40698   8.280  11.370   5.218 -0.4825 -0.7493  0.3012
  309MOL0     C40699   8.224  11.513   5.244  0.4145 -0.0810  1.0381
  309MOL0    Cl40700   8.351  11.628   5.200  0.2155 -0.5023 -0.0222
  309MOL0     C40701   7.772  10.927   4.755 -0.4536 -0.1849  0.1010
  309MOL0     C40702   7.734  10.950   4.626  0.5706 -0.3482  0.6220
  309MOL0     O40703   7.777  11.173   4.398 -0.3587  0.7224  0.5042
  309MOL0     C40704   7.455  11.125   4.243 -0.5274 -0.2559  0.2630
  309MOL0     C40705   7.387  11.136   4.120 -0.1027  0.1860 -0.7861
  309MOL0     N40706   7.154  11.327   3.339  0.0387 -0.3854  0.1680
  309MOL0     N40707   7.048  11.364   3.282 -0.1662  0.1436  0.5739
  309MOL0     C40708   5.919  11.323   3.321 -0.2504  0.6317 -0.3187
  309MOL0     C40709   5.859  11.202   3.278 -0.6675 -0.7114 -0.8463
  309MOL0     C40710   5.751  10.876   2.986 -0.5536 -0.7745 -0.9813
  309MOL0     C40711   5.702  10.864   2.853 -0.4983  0.0886 -0.8857
  309MOL0     C40712   5.627  10.753   2.819  0.1116  0.4306  0.2070
  309MOL0     C40713   5.609  10.648   2.905  0.2918  0.2619 -0.7487
  309MOL0     O40714   5.529  10.536   2.878  0.0087 -0.0299 -0.0099
  309MOL0     C40715   5.450  10.541   2.762  0.7608  0.5437  0.1199
  309MOL0     C40716   5.366  10.420   2.750  0.6243  0.3926  0.4740
  309MOL0     C40717   5.252  10.431   2.648  0.2244  0.1705 -0.9951
  309MOL0     C40718   5.295  10.432   2.505  0.6121 -0.5632 -0.1798
  309MOL0     C40719   5.183  10.426   2.404 -0.7687  0.7295 -0.5345
  309MOL0     C40720   5.100  10.418   2.321 -0.4848  0.4746  0.3595
  309MOL0     C40721   5.668  10.652   3.033 -0.8688  0.1560  0.2779
  309MOL0     C40722   5.742  10.765   3.072  0.7445  0.7949  0.7865
  309MOL0     H40723   6.113  11.023   3.142  0.6643 -0.2991 -0.3441
  309MOL0     H40724   6.230  11.246   3.215 -1.2346  1.1132 -1.6656
  309MOL0     H40725   6.064  11.455   3.541 -3.4621 -0.5378  0.0795
  309MOL0     H40726   5.996  11.561   3.445 -0.6465 -1.3356 -1.3525
  309MOL0     H40727   6.140  11.672   3.578 -0.7169 -0.0365 -0.1557
  309MOL0     H40728   6.176  11.703   3.403 -1.6301  1.8819  1.3899
  309MOL0     H40729   6.350  11.564   3.401 -0.0239  0.3356 -0.1704
  309MOL0     H40730   6.318  11.495   3.565  1.2036  0.7359  0.0719
  309MOL0     H40731   6.409  11.777   3.494 -1.2056 -0.2451  0.2833
  309MOL0     H40732   6.381  11.725   3.651  1.0237 -0.3447  1.1101
  309MOL0     H40733   6.555  11.534   3.622 -1.0259 -1.1100 -2.9478
  309MOL0     H40734   6.631  11.693   3.641  1.7593 -1.7832  1.7801
  309MOL0     H40735   6.641  11.704   3.376  0.2325 -0.4937 -1.3914
  309MOL0     H40736   6.577  11.540   3.372  1.2144 -0.3824 -1.6587
  309MOL0     H40737   6.833  11.615   3.523 -0.2279  0.2787  1.1803
  309MOL0     H40738   6.759  11.459   3.522 -2.6969 -0.6666 -1.7977
  309MOL0     H40739   6.881  11.621   3.279 -3.0773 -1.2831 -2.2349
  309MOL0     H40740   6.798  11.473   3.257 -0.6989 -0.2781  0.7848
  309MOL0     H40741   7.053  11.557   3.544  2.5104  0.7868  0.5522
  309MOL0     H40742   7.268  11.443   3.636 -1.5687 -1.4047  0.7703
  309MOL0     H40743   7.380  11.469   3.501  0.4312  0.2966  0.7740
  309MOL0     H40744   7.462  11.260   3.522 -0.1839  1.1346  0.9414
  309MOL0     H40745   7.305  11.188   3.472 -0.0395 -0.0137 -0.5938
  309MOL0     H40746   7.239  11.220   3.731 -1.0444 -2.1303  0.2974
  309MOL0     H40747   7.317  11.090   3.680  0.4829  0.0479 -1.6444
  309MOL0     H40748   7.472  11.324   3.779  0.0151 -0.1556 -0.1260
  309MOL0     H40749   7.533  11.158   3.746  2.0395  2.7160 -0.1644
  309MOL0     H40750   7.654  11.215   3.933  1.7448 -0.7624  1.5429
  309MOL0     H40751   7.757  11.238   4.159 -0.5007  0.3729  0.3065
  309MOL0     H40752   7.516  11.202   4.676  0.2381 -0.1948 -2.6035
  309MOL0     H40753   7.578  11.149   4.923 -2.3549 -0.6784 -1.0298
  309MOL0     H40754   7.948  10.896   4.970  1.1734  0.2808  3.1684
  309MOL0     H40755   7.812  10.780   4.996  1.1644 -0.9637  0.2575
  309MOL0     H40756   7.978  10.802   5.190  2.3779  1.6941 -0.0159
  309MOL0     H40757   7.822  10.856   5.243  2.1531 -1.7724  1.5404
  309MOL0     H40758   7.971  11.020   5.326  0.6678 -2.5167  0.1510
  309MOL0     H40759   7.918  11.098   5.171  1.7972  0.1449  0.6111
  309MOL0     H40760   8.159  10.926   5.153  0.3726  1.3635 -2.1869
  309MOL0     H40761   8.096  11.054   5.053  3.1366 -3.1491 -1.6254
  309MOL0     H40762   8.318  11.122   5.166  1.2241  1.7804  2.5918
  309MOL0     H40763   8.258  11.092   5.320 -1.3175  0.6904  0.9026
  309MOL0     H40764   8.108  11.281   5.310  1.0087  0.7532  0.1000
  309MOL0     H40765   8.104  11.281   5.131  1.3427 -1.1970 -1.9503
  309MOL0     H40766   8.348  11.341   5.299 -1.0130  0.3138  1.1537
  309MOL0     H40767   8.335  11.367   5.124 -0.3813  1.9567  0.2111
  309MOL0     H40768   8.182  11.533   5.343 -1.6483  2.3147 -0.2196
  309MOL0     H40769   8.138  11.525   5.178  1.0013 -0.6591  0.1475
  309MOL0     H40770   7.850  10.851   4.764 -0.7734 -0.5702 -0.3504
  309MOL0     H40771   7.787  10.906   4.542  0.8507  0.5154  0.3353
  309MOL0     H40772   7.401  11.086   4.329 -0.3090  1.0023  1.0094
  309MOL0     H40773   7.288  11.094   4.108  0.8355 -2.4072 -0.1480
  309MOL0     H40774   5.869  11.395   3.384 -0.9206 -0.0691 -0.0323
  309MOL0     H40775   5.753  11.181   3.274 -1.2345  1.7945 -0.7453
  309MOL0     H40776   5.714  10.936   2.773 -0.4018  1.1729  0.0677
  309MOL0     H40777   5.590  10.749   2.717  1.0498 -0.3311 -0.1248
  309MOL0     H40778   5.511  10.548   2.671  3.1445  0.4750  1.6351
  309MOL0     H40779   5.384  10.628   2.768 -0.1386 -0.2127  2.4080
  309MOL0     H40780   5.429  10.342   2.707 -1.3455 -1.5419  0.9283
  309MOL0     H40781   5.339  10.386   2.851  1.1809 -1.2238  0.1136
  309MOL0     H40782   5.192  10.521   2.667  0.6167  0.5977 -1.7635
  309MOL0     H40783   5.182  10.350   2.671 -0.4495  1.1724  0.6832
  309MOL0     H40784   5.344  10.526   2.476 -2.4268  0.8220 -1.2918
  309MOL0     H40785   5.371  10.355   2.495  0.0022 -1.2204  0.1960
  309MOL0     H40786   5.028  10.410   2.242 -0.1094 -0.6040  0.1072
  309MOL0     H40787   5.649  10.575   3.107 -2.5139 -1.0286 -1.2827
  309MOL0     H40788   5.775  10.766   3.175 -2.4075 -0.7292  1.9347
  310MOL0     O40789   9.800   8.296   4.972  0.4452 -0.4099  0.2180
  310MOL0     C40790   9.732   8.198   5.009 -0.2828  0.7466  0.3822
  310MOL0     O40791   9.596   8.193   5.029  0.3423  0.0888 -0.3070
  310MOL0     C40792   9.511   8.304   5.019  0.5731 -0.1860 -0.1982
  310MOL0     C40793   9.540   8.411   4.934 -0.2520  0.1438  0.2855
  310MOL0     C40794   9.448   8.508   4.910 -0.1702 -0.8575 -0.7125
  310MOL0     C40795   9.342   8.535   4.992 -0.2742 -0.5051 -0.1554
  310MOL0     O40796   9.268   8.653   4.977  1.3653  0.6239  1.1650
  310MOL0     C40797   9.165   8.680   5.072  0.6051 -0.6999  0.3775
  310MOL0     C40798   9.100   8.819   5.049 -0.2329 -0.0896  0.5622
  310MOL0     C40799   8.974   8.846   5.128 -0.3381 -0.2804 -0.7320
  310MOL0     C40800   8.913   8.981   5.096  0.0943 -0.2453 -0.2286
  310MOL0     C40801   8.785   9.009   5.169 -0.4735  0.1631  0.2704
  310MOL0     C40802   8.730   9.147   5.123 -0.6336 -1.5889 -0.5065
  310MOL0     C40803   8.597   9.192   5.186  0.0554  0.4772  0.0179
  310MOL0     C40804   8.514   9.309   5.126  0.5839  0.2302  0.3330
  310MOL0     N40805   8.569   9.441   5.153 -0.6555 -0.5351 -0.2288
  310MOL0     C40806   8.671   9.509   5.086 -0.3653  0.4927  0.2805
  310MOL0     C40807   8.704   9.611   5.159 -0.2688 -0.7922 -1.0890
  310MOL0     C40808   8.795   9.725   5.126  0.8123 -0.2159 -0.2329
  310MOL0     C40809   8.922   9.679   5.055  0.0505  0.5838 -0.6749
  310MOL0     C40810   8.980   9.792   4.980  0.0554  0.1187  0.3122
  310MOL0     C40811   9.113   9.761   4.926 -0.0680 -0.3069 -0.7227
  310MOL0     O40812   9.118   9.669   4.810  0.0866 -0.1361 -0.3110
  310MOL0     C40813   9.236   9.644   4.745 -0.0157  0.0045  0.1133
  310MOL0     C40814   9.226   9.548   4.643  0.8629  0.2423  0.7506
  310MOL0     C40815   9.340   9.496   4.581 -0.3470  0.5174  0.7281
  310MOL0     C40816   9.466   9.543   4.615  0.1764 -0.1983 -0.1102
  310MOL0     C40817   9.592   9.491   4.560 -0.0575 -0.1930  0.1502
  310MOL0     O40818   9.595   9.378   4.479 -0.0973  0.3022  0.1995
  310MOL0     C40819   9.716   9.337   4.428  0.2770  0.6965 -0.4402
  310MOL0     C40820   9.742   9.346   4.292 -0.6254 -0.0361  0.8725
  310MOL0     C40821   9.868   9.314   4.238  0.4013  0.4995 -0.2665
  310MOL0     C40822   9.970   9.261   4.316 -0.6283 -0.3983  0.1712
  310MOL0     O40823  10.093   9.238   4.267  0.4090  0.2905  0.1314
  310MOL0     C40824  10.215   9.243   4.352  0.6543  0.3561 -0.1611
  310MOL0     C40825  10.336   9.227   4.258  0.2980 -0.7305  0.4279
  310MOL0     C40826  10.472   9.228   4.331  0.0502  0.1017 -0.2067
  310MOL0     C40827  10.584   9.188   4.228 -0.2071  0.3193 -0.1079
  310MOL0     C40828  10.686   9.097   4.299 -0.2852 -0.0841  0.2877
  310MOL0     C40829  10.781   9.051   4.190  0.4161  0.0601  0.0490
  310MOL0     C40830  10.905   8.973   4.242 -0.1464 -0.2824  0.6546
  310MOL0     C40831  10.958   8.880   4.137 -0.2621 -0.1575  0.3249
  310MOL0    Cl40832  11.001   8.976   3.990 -0.0396  0.0283 -0.0722
  310MOL0     C40833   9.938   9.240   4.458  1.2071  0.0538 -0.7966
  310MOL0     C40834   9.816   9.278   4.509  0.3434  0.2996 -0.1318
  310MOL0     O40835   9.695   9.554   4.589  0.1909  0.9668  0.0500
  310MOL0     C40836   9.474   9.639   4.720 -0.5558  0.9121 -0.6806
  310MOL0     C40837   9.361   9.684   4.792 -0.1425 -0.3863  0.0474
  310MOL0     N40838   8.621   9.610   5.261  0.3412 -0.6358  0.1896
  310MOL0     N40839   8.542   9.506   5.264  0.2587 -0.2020  0.1486
  310MOL0     C40840   9.307   8.436   5.089 -0.4168  0.1064 -0.8373
  310MOL0     C40841   9.399   8.319   5.096  0.6390  0.1014 -0.2707
  310MOL0     C40842   9.810   8.077   5.019 -0.6334 -0.6360 -0.4212
  310MOL0     C40843   9.762   7.957   5.058  0.0250  0.4707 -0.3093
  310MOL0     C40844   9.842   7.842   5.056 -0.5195 -0.5429 -0.3773
  310MOL0     C40845   9.973   7.838   5.006 -0.3672  0.5646  0.3072
  310MOL0     O40846  10.048   7.722   5.011  0.3458 -0.5475  0.2515
  310MOL0     C40847  10.189   7.740   4.993 -0.2721  0.7090  0.0794
  310MOL0     C40848  10.250   7.634   5.084  0.5043  0.1328  0.8531
  310MOL0     C40849  10.391   7.596   5.034 -0.5097 -0.1207  1.3157
  310MOL0     C40850  10.463   7.517   5.138 -0.1469 -0.2184 -0.8355
  310MOL0     C40851  10.608   7.512   5.109  0.5026  0.1290  0.5575
  310MOL0     C40852  10.727   7.508   5.088 -0.3468 -0.2221 -0.2113
  310MOL0     C40853  10.016   7.954   4.942  0.6700 -0.6750  0.2181
  310MOL0     C40854   9.943   8.067   4.953  0.4407  0.2953 -0.4497
  310MOL0     H40855   9.623   8.412   4.864 -1.0812 -0.7354 -0.7583
  310MOL0     H40856   9.466   8.587   4.838  1.3597 -2.7748 -2.5807
  310MOL0     H40857   9.203   8.676   5.174 -1.7328  3.3204  1.6316
  310MOL0     H40858   9.088   8.601   5.068  1.5389 -1.6575  0.7734
  310MOL0     H40859   9.070   8.824   4.944  2.5458  1.7646 -0.2599
  310MOL0     H40860   9.182   8.888   5.070  0.4686 -0.2109 -1.4998
  310MOL0     H40861   9.006   8.827   5.231  0.9141 -1.4327 -1.3086
  310MOL0     H40862   8.909   8.763   5.098  0.0683 -0.4797 -1.0694
  310MOL0     H40863   8.989   9.057   5.119 -1.8535  1.1284  2.2065
  310MOL0     H40864   8.869   8.991   4.996 -1.3907  2.4575  0.5915
  310MOL0     H40865   8.799   9.020   5.277  1.5373 -1.7918  0.2854
  310MOL0     H40866   8.716   8.926   5.157  2.4123 -2.6843  1.6483
  310MOL0     H40867   8.708   9.141   5.016 -0.8313  1.5153 -0.7220
  310MOL0     H40868   8.806   9.224   5.135 -2.2545 -0.2392  2.0142
  310MOL0     H40869   8.525   9.110   5.186 -1.7656  1.7685 -4.3914
  310MOL0     H40870   8.633   9.222   5.285  2.0193 -1.4301 -0.0456
  310MOL0     H40871   8.409   9.307   5.156 -0.6955 -0.1546 -3.6600
  310MOL0     H40872   8.501   9.295   5.019 -0.3102  0.9156  0.3402
  310MOL0     H40873   8.715   9.487   4.989 -3.7477  0.0593 -1.2971
  310MOL0     H40874   8.808   9.794   5.210 -0.8147 -0.0447 -0.0879
  310MOL0     H40875   8.739   9.786   5.054 -2.1271  0.0000  2.0389
  310MOL0     H40876   8.891   9.603   4.983  0.9929 -0.9502  0.4752
  310MOL0     H40877   8.992   9.635   5.126 -0.3244  2.0911  0.6841
  310MOL0     H40878   8.911   9.814   4.898 -0.5213 -1.0856  0.4512
  310MOL0     H40879   8.991   9.883   5.040  1.7225 -0.3219  0.7186
  310MOL0     H40880   9.179   9.717   5.001 -0.6507  0.4723  0.2641
  310MOL0     H40881   9.162   9.854   4.895  2.6903 -1.9597 -1.6999
  310MOL0     H40882   9.134   9.497   4.618  2.1195 -2.1544  0.7270
  310MOL0     H40883   9.329   9.413   4.512  1.6119  0.6112  0.2398
  310MOL0     H40884   9.666   9.392   4.230  0.1220 -1.2889 -1.0638
  310MOL0     H40885   9.877   9.330   4.131 -1.1394 -0.9335 -0.6623
  310MOL0     H40886  10.213   9.169   4.432  0.9579 -0.1966 -0.6589
  310MOL0     H40887  10.232   9.343   4.395 -0.3118  1.1980 -1.6485
  310MOL0     H40888  10.333   9.314   4.192 -2.2057 -0.9220  0.2005
  310MOL0     H40889  10.320   9.136   4.199  0.0680  0.0044 -0.6776
  310MOL0     H40890  10.464   9.155   4.412 -0.3734  2.2887  1.8141
  310MOL0     H40891  10.500   9.322   4.379 -1.7899 -0.4665  2.1598
  310MOL0     H40892  10.542   9.132   4.144  0.3092 -0.7745  0.3502
  310MOL0     H40893  10.632   9.280   4.193  0.2010 -0.1860 -0.8791
  310MOL0     H40894  10.633   9.010   4.338 -3.3932  1.8337  0.7664
  310MOL0     H40895  10.733   9.149   4.384 -0.5736  0.4206  0.1463
  310MOL0     H40896  10.819   9.140   4.140  1.0371 -0.1850  0.0722
  310MOL0     H40897  10.718   8.990   4.125  0.0113  0.0290  0.4670
  310MOL0     H40898  10.978   9.038   4.291  3.0229 -3.7335  0.9290
  310MOL0     H40899  10.871   8.909   4.323  0.6464  1.6744  2.6147
  310MOL0     H40900  10.884   8.804   4.111 -1.0604  0.3960  0.9136
  310MOL0     H40901  11.041   8.823   4.178  1.9025  1.3239 -1.7095
  310MOL0     H40902  10.012   9.198   4.524  1.1955 -1.8478 -1.9295
  310MOL0     H40903   9.793   9.259   4.613 -2.6781  2.6316 -0.2162
  310MOL0     H40904   9.570   9.670   4.760 -0.4928 -0.1414  0.0165
  310MOL0     H40905   9.381   9.748   4.878  4.2826  0.7055 -1.5205
  310MOL0     H40906   9.228   8.436   5.163  1.5251  0.5454  1.3843
  310MOL0     H40907   9.375   8.244   5.172  1.6130 -0.5730 -0.6128
  310MOL0     H40908   9.664   7.947   5.103 -0.0997  4.6422  0.8016
  310MOL0     H40909   9.802   7.752   5.104 -1.9911 -0.6733 -1.7658
  310MOL0     H40910  10.227   7.839   5.022  1.6689 -0.2407  0.9902
  310MOL0     H40911  10.217   7.720   4.889 -0.7510 -5.2433  0.7733
  310MOL0     H40912  10.256   7.677   5.184  1.2913  0.3269  0.7326
  310MOL0     H40913  10.180   7.550   5.085 -0.5305  0.9650  0.3538
  310MOL0     H40914  10.439   7.689   5.001 -0.0540 -1.3266 -1.7314
  310MOL0     H40915  10.382   7.540   4.941 -0.3746  1.4115  0.3419
  310MOL0     H40916  10.445   7.566   5.234  0.4966 -0.7536 -0.4314
  310MOL0     H40917  10.427   7.413   5.141  2.0892 -1.0291  0.6931
  310MOL0     H40918  10.833   7.521   5.078  0.5050 -5.0721 -0.0135
  310MOL0     H40919  10.109   7.955   4.887  0.0517  1.2265 -0.8713
  310MOL0     H40920   9.990   8.140   4.887  1.2768 -0.0776 -0.2827
  311MOL0     O40921   2.505   2.689  10.763 -0.1018 -0.3356  0.0409
  311MOL0     C40922   2.457   2.588  10.806  0.7674  1.7642  0.8179
  311MOL0     O40923   2.525   2.474  10.850  0.1402 -0.8662  0.4606
  311MOL0     C40924   2.657   2.475  10.854 -0.1935 -0.1282  0.4169
  311MOL0     C40925   2.720   2.370  10.782 -0.8559  0.8207  0.8630
  311MOL0     C40926   2.863   2.349  10.783  0.5124 -0.3436 -0.2343
  311MOL0     C40927   2.944   2.449  10.847 -0.1475 -0.7403  1.4752
  311MOL0     O40928   3.082   2.444  10.852 -0.1882  0.1514  0.6654
  311MOL0     C40929   3.138   2.308  10.852  0.4798  0.4701  0.3252
  311MOL0     C40930   3.275   2.314  10.926  0.1394  0.3671  0.1630
  311MOL0     C40931   3.368   2.416  10.859 -0.7827 -0.1565 -0.5546
  311MOL0     C40932   3.499   2.442  10.942  0.6500  0.0953  0.4716
  311MOL0     C40933   3.582   2.313  10.975 -0.3704 -0.2868 -0.1834
  311MOL0     C40934   3.723   2.334  11.023 -0.5139  0.0309 -0.0298
  311MOL0     C40935   3.778   2.204  11.076  0.4949 -0.4859  0.3161
  311MOL0     C40936   3.922   2.217  11.111  0.0136  0.7028 -0.6622
  311MOL0     N40937   3.977   2.105  11.190  0.5516  0.9241  0.8947
  311MOL0     C40938   3.973   2.078  11.321  0.9692 -0.7881 -0.8238
  311MOL0     C40939   4.043   1.966  11.338  0.3258 -0.4619  0.3206
  311MOL0     C40940   4.075   1.892  11.462  1.1432 -0.0419 -0.3087
  311MOL0     C40941   3.946   1.874  11.552  1.0318  0.6261 -0.2930
  311MOL0     C40942   3.983   1.800  11.686  0.3444 -0.2244  0.0033
  311MOL0     C40943   3.858   1.804  11.775  0.4003  0.7068  0.3502
  311MOL0     O40944   3.883   1.715  11.881 -0.7843 -0.1724 -0.3026
  311MOL0     C40945   3.776   1.667  11.954  0.7479 -0.2844 -0.8220
  311MOL0     C40946   3.789   1.544  12.007 -0.1379  0.8985  0.5627
  311MOL0     C40947   3.696   1.476  12.080 -0.6329  0.2920  0.4505
  311MOL0     C40948   3.574   1.548  12.099 -0.3888 -0.3115  0.3325
  311MOL0     C40949   3.473   1.486  12.187 -0.3764 -0.7460 -0.5385
  311MOL0     O40950   3.513   1.389  12.279 -0.2532 -0.4349  0.4271
  311MOL0     C40951   3.413   1.358  12.367  0.5817 -0.4974 -0.4035
  311MOL0     C40952   3.348   1.231  12.364  0.1889 -0.0332  0.0887
  311MOL0     C40953   3.236   1.211  12.447 -0.3731  0.5910 -0.1053
  311MOL0     C40954   3.189   1.299  12.537  0.8800 -0.4821 -0.6348
  311MOL0     O40955   3.084   1.250  12.619 -0.2298  0.7363 -0.3410
  311MOL0     C40956   2.975   1.342  12.645  0.0904 -0.0229  0.2763
  311MOL0     C40957   2.849   1.286  12.569 -0.5391  0.0868  0.3572
  311MOL0     C40958   2.723   1.323  12.646  0.3260  0.5425  0.7439
  311MOL0     C40959   2.583   1.326  12.562 -0.8430  0.5972  0.2057
  311MOL0     C40960   2.455   1.346  12.638  0.5252 -0.1264 -0.1718
  311MOL0     C40961   2.456   1.470  12.723  0.3778  0.2645 -0.5547
  311MOL0     C40962   2.318   1.499  12.788  0.0382 -1.0086 -0.5938
  311MOL0     C40963   2.305   1.441  12.929 -0.1873  0.2281  0.5418
  311MOL0    Cl40964   2.136   1.404  12.967  0.0420 -0.0602  0.4673
  311MOL0     C40965   3.259   1.418  12.554  0.4750 -0.1259  0.3067
  311MOL0     C40966   3.368   1.441  12.470  1.1613 -0.4741 -0.3822
  311MOL0     O40967   3.358   1.528  12.179 -0.0873 -0.5501 -0.1467
  311MOL0     C40968   3.556   1.675  12.050 -0.0634 -0.2568  0.2622
  311MOL0     C40969   3.654   1.728  11.963  0.1528  0.8397 -0.1626
  311MOL0     N40970   4.102   1.936  11.212  0.3652 -0.0384  0.6342
  311MOL0     N40971   4.059   2.011  11.117  0.0165 -0.4439  0.4050
  311MOL0     C40972   2.878   2.560  10.895  0.3694 -0.5447  0.0694
  311MOL0     C40973   2.738   2.575  10.898 -0.0571 -0.9099 -0.0489
  311MOL0     C40974   2.312   2.581  10.815 -0.7730  0.5122  0.1433
  311MOL0     C40975   2.252   2.460  10.860 -0.0467 -0.6295  0.6477
  311MOL0     C40976   2.109   2.452  10.862 -1.5508  0.1671 -0.5234
  311MOL0     C40977   2.029   2.554  10.832  0.5122 -1.2799 -0.1856
  311MOL0     O40978   1.897   2.540  10.852  0.0036 -0.0053  0.3364
  311MOL0     C40979   1.855   2.547  10.984  0.0283  0.2548  0.0623
  311MOL0     C40980   1.698   2.565  10.983  0.2246 -0.4058  0.3122
  311MOL0     C40981   1.635   2.463  10.890  0.0434  0.5292 -0.2513
  311MOL0     C40982   1.495   2.413  10.924  0.8046 -0.6462 -0.6608
  311MOL0     C40983   1.408   2.533  10.935  0.1660  0.2668 -0.5255
  311MOL0     C40984   1.338   2.632  10.948 -0.7802 -0.2216 -0.4529
  311MOL0     C40985   2.096   2.667  10.777  0.3153  0.1390 -0.4294
  311MOL0     C40986   2.234   2.679  10.770  1.0096 -0.2272 -0.0273
  311MOL0     H40987   2.658   2.298  10.730 -0.2335  1.4769 -0.8710
  311MOL0     H40988   2.893   2.252  10.746 -0.1767 -0.1374 -1.3606
  311MOL0     H40989   3.155   2.276  10.749  1.8661 -0.2988  0.7689
  311MOL0     H40990   3.069   2.235  10.896  2.5094 -2.5515 -1.1317
  311MOL0     H40991   3.324   2.217  10.911 -0.0451  0.3710 -0.5122
  311MOL0     H40992   3.261   2.331  11.033  0.0404  0.8427  0.0746
  311MOL0     H40993   3.317   2.513  10.851 -0.0993  0.1348 -1.4959
  311MOL0     H40994   3.399   2.391  10.758 -2.8554 -3.8505 -0.4350
  311MOL0     H40995   3.557   2.505  10.874 -1.6772 -0.9628 -2.7827
  311MOL0     H40996   3.482   2.497  11.034  0.5764  1.2764 -0.2302
  311MOL0     H40997   3.591   2.236  10.899  2.7442 -0.4533  0.2361
  311MOL0     H40998   3.529   2.270  11.061  1.1758  0.2692  1.0943
  311MOL0     H40999   3.733   2.417  11.092  0.1030 -0.3411  0.3383
  311MOL0     H41000   3.795   2.355  10.943  1.5618 -1.0506  1.4521
  311MOL0     H41001   3.719   2.169  11.162  1.0155 -0.4522  0.6961
  311MOL0     H41002   3.781   2.132  10.994  2.5412  1.0599 -1.0640
  311MOL0     H41003   3.937   2.294  11.188  0.3413 -0.5309  0.5550
  311MOL0     H41004   3.973   2.243  11.018  0.1451  0.6596 -0.6022
  311MOL0     H41005   3.902   2.120  11.392  2.2464 -2.0731  1.3646
  311MOL0     H41006   4.157   1.931  11.522  0.7562 -0.1795  0.3246
  311MOL0     H41007   4.099   1.789  11.435  2.3683 -0.1986  1.2447
  311MOL0     H41008   3.863   1.821  11.505 -1.9193  2.5442  2.3361
  311MOL0     H41009   3.915   1.973  11.586 -0.5150 -0.6381  2.2960
  311MOL0     H41010   3.997   1.694  11.662  0.0724 -0.1193 -0.6306
  311MOL0     H41011   4.071   1.842  11.736  0.3517  1.0347 -1.0202
  311MOL0     H41012   3.773   1.771  11.715 -1.3155  3.8349  0.8367
  311MOL0     H41013   3.835   1.908  11.799 -2.4132  0.6960 -1.7989
  311MOL0     H41014   3.882   1.494  11.980 -1.0202 -0.7533  0.4948
  311MOL0     H41015   3.719   1.379  12.124 -3.0298 -1.1792 -1.3055
  311MOL0     H41016   3.385   1.144  12.310  2.6508 -0.3195  2.0461
  311MOL0     H41017   3.183   1.116  12.443 -1.2278  1.1089 -1.1369
  311MOL0     H41018   2.998   1.443  12.611  2.3058  0.1781  2.1285
  311MOL0     H41019   2.951   1.351  12.751 -2.1764  1.8356 -0.3251
  311MOL0     H41020   2.870   1.179  12.558  3.6422  0.8333 -0.5787
  311MOL0     H41021   2.845   1.340  12.474 -2.5821 -0.4864  0.0651
  311MOL0     H41022   2.741   1.420  12.693  0.1692  0.7725  0.3312
  311MOL0     H41023   2.708   1.250  12.726  2.5406  0.2657  0.9793
  311MOL0     H41024   2.592   1.402  12.485 -1.7099 -1.3804 -1.9831
  311MOL0     H41025   2.573   1.240  12.494  0.2015 -0.6762  1.5771
  311MOL0     H41026   2.449   1.251  12.692  3.6361 -1.6896 -2.3124
  311MOL0     H41027   2.376   1.352  12.562  0.6246  0.5707 -0.2290
  311MOL0     H41028   2.465   1.557  12.656 -0.7605 -0.4754 -1.7217
  311MOL0     H41029   2.531   1.462  12.802 -0.3575  0.0223  0.1331
  311MOL0     H41030   2.314   1.608  12.795  1.2482 -1.0664  3.0972
  311MOL0     H41031   2.238   1.454  12.729 -0.1388 -3.4083  1.3049
  311MOL0     H41032   2.352   1.499  13.009  0.9167 -1.4767  1.2033
  311MOL0     H41033   2.354   1.343  12.923 -1.5070 -0.3575 -3.4721
  311MOL0     H41034   3.234   1.496  12.625 -0.7228 -0.0963 -0.1237
  311MOL0     H41035   3.412   1.540  12.480 -0.7613  0.3853 -0.0003
  311MOL0     H41036   3.467   1.737  12.055  1.1515  1.6082 -0.1096
  311MOL0     H41037   3.639   1.819  11.907  0.9458  1.0511 -0.0473
  311MOL0     H41038   2.936   2.644  10.932 -0.4165 -0.9554  2.4050
  311MOL0     H41039   2.706   2.665  10.949  3.1494  0.4038 -0.1615
  311MOL0     H41040   2.306   2.373  10.894 -0.2829 -1.0664 -0.0616
  311MOL0     H41041   2.062   2.359  10.892  0.1395 -0.7045 -0.4530
  311MOL0     H41042   1.901   2.634  11.033  0.4844 -0.2715  0.5957
  311MOL0     H41043   1.885   2.458  11.040 -1.5294 -0.4031 -0.0989
  311MOL0     H41044   1.665   2.558  11.087  1.2596  1.8669  0.8630
  311MOL0     H41045   1.663   2.662  10.947 -1.2175 -0.3413  1.7664
  311MOL0     H41046   1.703   2.379  10.873 -1.6419 -0.5396 -2.2167
  311MOL0     H41047   1.623   2.523  10.799 -1.2597  0.5742 -0.0739
  311MOL0     H41048   1.441   2.345  10.857 -2.5638  0.7458  0.4441
  311MOL0     H41049   1.488   2.360  11.019 -0.7144 -2.9093 -1.9259
  311MOL0     H41050   1.261   2.706  10.952  1.0827  1.8282 -1.0914
  311MOL0     H41051   2.041   2.753  10.739  1.2157  2.4928  3.0730
  311MOL0     H41052   2.271   2.772  10.729  2.9973 -1.3344 -0.9124
  312MOL0     O41053   2.900   1.108   2.467 -0.0878  0.1053  0.4146
  312MOL0     C41054   2.962   1.212   2.472  0.3338  0.0064 -0.6649
  312MOL0     O41055   2.919   1.332   2.523 -0.0821 -0.4078 -0.1897
  312MOL0     C41056   2.789   1.359   2.561 -0.9664  0.0731  0.4441
  312MOL0     C41057   2.773   1.462   2.658 -0.1705  1.1223  0.0622
  312MOL0     C41058   2.649   1.503   2.712 -0.7641  0.2161 -0.3435
  312MOL0     C41059   2.537   1.433   2.665 -0.0130 -0.3754  0.0056
  312MOL0     O41060   2.417   1.466   2.710 -0.2821 -1.1290 -0.3003
  312MOL0     C41061   2.302   1.387   2.700 -0.7211 -0.3127 -0.4375
  312MOL0     C41062   2.193   1.440   2.792 -0.1656 -0.2377 -0.2245
  312MOL0     C41063   2.063   1.354   2.806 -0.3677 -0.1177 -0.1346
  312MOL0     C41064   1.977   1.409   2.919  0.2460  0.1517 -0.5870
  312MOL0     C41065   1.836   1.347   2.924  0.0028  0.1628 -0.6508
  312MOL0     C41066   1.754   1.406   3.048 -0.1404  0.4996 -0.5974
  312MOL0     C41067   1.618   1.342   3.058  0.3903 -0.4896  0.3953
  312MOL0     C41068   1.522   1.399   3.163  0.3809  0.4678 -0.5800
  312MOL0     N41069   1.391   1.331   3.168 -0.2518  0.1484 -0.1461
  312MOL0     C41070   1.279   1.380   3.112  0.0405  0.0727 -0.0185
  312MOL0     C41071   1.186   1.288   3.138 -0.1928  0.0385  0.1777
  312MOL0     C41072   1.045   1.308   3.077  0.3987  0.0166 -0.5271
  312MOL0     C41073   0.988   1.172   3.043  0.5793  1.0121  0.5240
  312MOL0     C41074   1.062   1.111   2.921 -0.5395  0.5072 -1.1674
  312MOL0     C41075   1.018   0.966   2.893 -0.0619  0.1656  0.0429
  312MOL0     O41076   0.891   0.953   2.829 -0.3399 -0.1386 -0.1852
  312MOL0     C41077   0.837   0.831   2.809 -0.3224  0.2381  0.5883
  312MOL0     C41078   0.891   0.711   2.850 -0.2573  0.7350  0.3724
  312MOL0     C41079   0.826   0.586   2.824  0.1739  0.1922 -0.2422
  312MOL0     C41080   0.706   0.588   2.747 -0.1028  0.5374 -0.9335
  312MOL0     C41081   0.651   0.458   2.699  0.1396  0.4165 -0.4318
  312MOL0     O41082   0.569   0.472   2.593  0.5485  0.1372  0.4623
  312MOL0     C41083   0.560   0.367   2.502  0.3323  0.0909  0.3946
  312MOL0     C41084   0.517   0.237   2.541 -0.4633  0.8035 -0.1022
  312MOL0     C41085   0.502   0.138   2.440 -0.6490 -0.8682  0.0102
  312MOL0     C41086   0.512   0.171   2.302 -0.3474  1.0058  1.4285
  312MOL0     O41087   0.485   0.078   2.201 -0.4581  0.2210 -0.0378
  312MOL0     C41088   0.345   0.047   2.190  0.0216 -0.1819  0.4008
  312MOL0     C41089   0.335  -0.016   2.052 -0.9888  0.0655  0.8423
  312MOL0     C41090   0.191  -0.078   2.040  0.0886  0.0023  0.0350
  312MOL0     C41091   0.167  -0.122   1.889  0.1632  0.8152  0.4875
  312MOL0     C41092   0.019  -0.119   1.851 -0.2743 -0.4554  0.2272
  312MOL0     C41093  -0.066  -0.202   1.955 -0.4896 -0.2096  0.1326
  312MOL0     C41094  -0.212  -0.244   1.906  0.1399  0.0210  0.3971
  312MOL0     C41095  -0.307  -0.129   1.921 -0.0327 -0.3834  0.4723
  312MOL0    Cl41096  -0.288  -0.013   1.785 -0.2880  0.3656 -0.1117
  312MOL0     C41097   0.532   0.298   2.263 -0.1911  0.3670  0.1528
  312MOL0     C41098   0.553   0.394   2.365  0.2176 -0.1446  0.0030
  312MOL0     O41099   0.701   0.357   2.742 -0.6297  0.1746  0.3517
  312MOL0     C41100   0.653   0.709   2.711  0.4002 -0.0850 -0.5326
  312MOL0     C41101   0.714   0.829   2.742  0.0032 -0.1592  0.2206
  312MOL0     N41102   1.236   1.181   3.217  0.5459  0.7948  0.3074
  312MOL0     N41103   1.364   1.213   3.235 -0.4762 -0.2069 -0.1810
  312MOL0     C41104   2.551   1.334   2.575  0.2139  0.2849 -0.0653
  312MOL0     C41105   2.675   1.297   2.518 -0.4106  0.7648  0.7055
  312MOL0     C41106   3.110   1.198   2.438 -0.1961 -0.4738 -0.7181
  312MOL0     C41107   3.163   1.074   2.416 -1.0399  0.7621  0.8756
  312MOL0     C41108   3.296   1.070   2.369 -0.0854 -0.5362 -0.7815
  312MOL0     C41109   3.377   1.186   2.355  0.4606  0.3442 -0.7420
  312MOL0     O41110   3.511   1.184   2.313  0.0768  0.3542  0.3318
  312MOL0     C41111   3.572   1.057   2.278  0.2510  1.1728 -0.7749
  312MOL0     C41112   3.726   1.076   2.260 -0.5769 -0.1138  0.5679
  312MOL0     C41113   3.765   1.165   2.140  0.3186  0.2248 -0.8304
  312MOL0     C41114   3.919   1.153   2.115  1.4607 -1.0448 -0.1799
  312MOL0     C41115   3.983   1.226   2.218 -0.3314 -0.2183  0.2549
  312MOL0     C41116   4.053   1.274   2.306 -0.6343  0.1021  0.2177
  312MOL0     C41117   3.319   1.312   2.385 -0.2301  0.3875 -0.4102
  312MOL0     C41118   3.188   1.315   2.420  0.8272 -0.3209  0.1707
  312MOL0     H41119   2.858   1.520   2.691  0.4676 -0.2155  0.8500
  312MOL0     H41120   2.652   1.576   2.792 -1.5748 -1.4052  1.2417
  312MOL0     H41121   2.334   1.288   2.734 -1.7746 -1.2177 -2.0030
  312MOL0     H41122   2.274   1.382   2.595  1.5220 -0.5535 -1.0928
  312MOL0     H41123   2.171   1.543   2.764  1.0011  0.0346 -0.1869
  312MOL0     H41124   2.246   1.440   2.887 -1.3372 -3.1393  0.5358
  312MOL0     H41125   2.093   1.251   2.827  1.6306  0.6790  1.2838
  312MOL0     H41126   2.005   1.347   2.714 -1.2655 -2.2509  0.5395
  312MOL0     H41127   2.044   1.388   3.002 -0.1865  1.5641  0.1503
  312MOL0     H41128   1.963   1.518   2.919  2.2222  0.4677  1.7827
  312MOL0     H41129   1.847   1.239   2.939  0.3767  0.4700  1.5300
  312MOL0     H41130   1.771   1.373   2.840 -0.7501  0.8140  0.1262
  312MOL0     H41131   1.739   1.514   3.047 -1.5920  0.4165  2.2674
  312MOL0     H41132   1.815   1.375   3.134  1.9367 -0.1901 -2.2422
  312MOL0     H41133   1.577   1.371   2.961  1.2978  0.9012  0.3953
  312MOL0     H41134   1.628   1.234   3.062  0.0032 -0.7711 -3.1619
  312MOL0     H41135   1.517   1.506   3.138 -0.4081  1.4359  3.1505
  312MOL0     H41136   1.555   1.389   3.266 -0.9688 -0.1034 -0.1770
  312MOL0     H41137   1.274   1.466   3.047 -1.2474 -0.7196 -1.0104
  312MOL0     H41138   1.042   1.378   2.993 -3.8918  0.5677 -0.1454
  312MOL0     H41139   0.978   1.354   3.149 -0.4048 -1.5917 -0.1939
  312MOL0     H41140   0.884   1.174   3.010  0.5988  1.6926  0.4877
  312MOL0     H41141   0.995   1.109   3.133  0.5068  0.3964  0.1007
  312MOL0     H41142   1.039   1.182   2.841 -2.6436  2.6514  1.1597
  312MOL0     H41143   1.171   1.104   2.935 -0.9699  0.0122  3.6451
  312MOL0     H41144   1.019   0.915   2.990  0.7062 -1.0282 -0.5702
  312MOL0     H41145   1.087   0.910   2.829 -1.7369 -0.9526 -0.8628
  312MOL0     H41146   0.979   0.717   2.913  0.5075 -1.8303 -0.3140
  312MOL0     H41147   0.872   0.490   2.847 -2.6229 -2.0218 -2.9757
  312MOL0     H41148   0.509   0.210   2.646  2.6072 -1.7204 -0.3654
  312MOL0     H41149   0.496   0.035   2.475  0.8819 -0.8724  0.3171
  312MOL0     H41150   0.282   0.137   2.195  2.2020  1.7912 -3.0054
  312MOL0     H41151   0.305  -0.024   2.262 -0.7392  0.1742  0.3447
  312MOL0     H41152   0.403  -0.101   2.036 -2.4046 -0.6953 -1.7239
  312MOL0     H41153   0.357   0.051   1.968 -0.8011 -3.0398 -1.8234
  312MOL0     H41154   0.120   0.001   2.066 -0.4426 -0.2546 -0.6004
  312MOL0     H41155   0.182  -0.162   2.110 -2.2321 -2.0151 -2.4608
  312MOL0     H41156   0.219  -0.060   1.815  0.3315 -0.7071 -0.7208
  312MOL0     H41157   0.204  -0.225   1.885  1.2111  1.0324  2.8649
  312MOL0     H41158   0.002  -0.159   1.751  0.2687 -0.6083  0.1917
  312MOL0     H41159  -0.007  -0.012   1.850  1.6898  0.0632 -0.2280
  312MOL0     H41160  -0.058  -0.147   2.049  2.3076  1.5048 -0.9760
  312MOL0     H41161  -0.007  -0.293   1.968 -0.0939  0.0076 -0.1195
  312MOL0     H41162  -0.215  -0.282   1.804 -0.0643  0.9336  0.0555
  312MOL0     H41163  -0.233  -0.330   1.971  0.4717 -0.7928 -0.5544
  312MOL0     H41164  -0.305  -0.087   2.022 -0.6492  0.8628 -0.0131
  312MOL0     H41165  -0.410  -0.159   1.903 -0.1148  0.2642 -0.1746
  312MOL0     H41166   0.540   0.319   2.157 -0.5572 -2.4294 -0.4951
  312MOL0     H41167   0.565   0.498   2.336  1.5961 -0.5147 -0.8432
  312MOL0     H41168   0.558   0.723   2.660 -1.9930  1.7252  3.7795
  312MOL0     H41169   0.665   0.917   2.703 -1.7756 -0.7429  1.0218
  312MOL0     H41170   2.462   1.290   2.531  1.4625 -2.0273 -0.4122
  312MOL0     H41171   2.676   1.210   2.453 -2.5682  2.0803 -1.2636
  312MOL0     H41172   3.108   0.981   2.425 -0.1429  0.3292  2.2592
  312MOL0     H41173   3.338   0.971   2.350 -0.9984 -1.2375  0.7224
  312MOL0     H41174   3.533   1.016   2.184  2.9133 -0.7336 -1.1551
  312MOL0     H41175   3.548   0.984   2.355 -0.5601  2.7709  0.5611
  312MOL0     H41176   3.771   1.121   2.349  1.2487 -1.0123  0.1478
  312MOL0     H41177   3.773   0.978   2.248  1.3847  0.0159  5.0236
  312MOL0     H41178   3.737   1.266   2.175  0.3552 -0.5306  1.5684
  312MOL0     H41179   3.712   1.140   2.048 -3.3636  0.2185  1.1167
  312MOL0     H41180   3.964   1.054   2.119  0.1434 -1.6384  0.7261
  312MOL0     H41181   3.955   1.205   2.026  2.6069  0.5571  1.1549
  312MOL0     H41182   4.110   1.308   2.391 -1.0097  1.3872 -0.0267
  312MOL0     H41183   3.386   1.395   2.362  0.9942 -0.5995 -0.5099
  312MOL0     H41184   3.146   1.415   2.423  2.6599  0.5075 -0.3794
  313MOL0     O41185   4.354   5.225   7.398 -0.0340 -0.2525  0.1106
  313MOL0     C41186   4.349   5.203   7.516  0.6506  0.0293 -0.8546
  313MOL0     O41187   4.240   5.206   7.600 -0.9797 -0.5769  0.3965
  313MOL0     C41188   4.110   5.217   7.570 -0.2903  0.1703 -0.1428
  313MOL0     C41189   4.059   5.257   7.440 -0.0984 -0.0106 -0.9170
  313MOL0     C41190   3.922   5.267   7.426 -0.8869 -1.1657 -0.0430
  313MOL0     C41191   3.832   5.248   7.527 -0.1181 -0.4793  0.3750
  313MOL0     O41192   3.696   5.259   7.496  1.2351 -0.1427  0.2759
  313MOL0     C41193   3.607   5.264   7.615 -0.7705  0.4728  0.8604
  313MOL0     C41194   3.471   5.312   7.583  0.4408  0.2678  0.8587
  313MOL0     C41195   3.407   5.229   7.475  0.2610 -0.2738 -0.7583
  313MOL0     C41196   3.273   5.275   7.444 -0.0871  0.5184  0.2833
  313MOL0     C41197   3.186   5.174   7.370  1.1866  0.9378  0.3928
  313MOL0     C41198   3.233   5.116   7.233 -0.2167 -0.4939 -0.4741
  313MOL0     C41199   3.259   5.228   7.123  0.1018  0.7628 -0.0527
  313MOL0     C41200   3.205   5.195   6.978 -0.5153  0.4770 -0.0868
  313MOL0     N41201   3.066   5.199   6.959 -0.4218 -0.1299  0.2551
  313MOL0     C41202   2.964   5.101   6.975  0.4693 -0.0605 -0.6998
  313MOL0     C41203   2.844   5.161   6.971  0.1388  0.0649  0.7249
  313MOL0     C41204   2.722   5.079   7.014 -0.4563 -0.2430  0.4150
  313MOL0     C41205   2.603   5.176   7.054  0.2515 -0.1089  0.1962
  313MOL0     C41206   2.623   5.233   7.190  0.3801 -0.5291  0.0244
  313MOL0     C41207   2.522   5.340   7.226  0.4866  0.3985 -0.2991
  313MOL0     O41208   2.391   5.279   7.222 -0.4128  0.3255 -0.2458
  313MOL0     C41209   2.279   5.366   7.221  0.2818 -0.3819  0.0672
  313MOL0     C41210   2.289   5.505   7.216 -0.0464 -0.2811  0.6506
  313MOL0     C41211   2.179   5.593   7.219  0.7260 -0.3134  0.0640
  313MOL0     C41212   2.045   5.548   7.218  0.3623  0.5628  0.2058
  313MOL0     C41213   1.924   5.638   7.202 -0.1314  0.5682  0.8554
  313MOL0     O41214   1.797   5.581   7.212 -0.1517  0.1147 -0.0518
  313MOL0     C41215   1.695   5.670   7.206 -0.9039  1.2521  0.1855
  313MOL0     C41216   1.618   5.688   7.321 -0.5946 -0.4849  0.7331
  313MOL0     C41217   1.516   5.789   7.311 -0.9890 -0.9686 -0.3171
  313MOL0     C41218   1.490   5.860   7.194 -0.3210  0.3445  0.3152
  313MOL0     O41219   1.380   5.944   7.206  0.4730 -0.0063 -0.7864
  313MOL0     C41220   1.402   6.075   7.142  0.1451  0.4847 -0.4310
  313MOL0     C41221   1.287   6.174   7.160  0.6508  0.1975 -0.1316
  313MOL0     C41222   1.321   6.301   7.100 -0.4764 -0.0137 -0.2118
  313MOL0     C41223   1.212   6.413   7.119  0.4396 -0.0161 -0.4311
  313MOL0     C41224   1.097   6.406   7.012 -0.7402  0.6591  0.7073
  313MOL0     C41225   0.996   6.518   7.035  0.3249 -0.7130  0.1558
  313MOL0     C41226   0.891   6.515   6.927  0.0621 -0.3032  0.5574
  313MOL0     C41227   0.809   6.639   6.928  0.8952 -0.5760 -0.0547
  313MOL0    Cl41228   0.693   6.624   7.066  0.3284  0.4683  0.1980
  313MOL0     C41229   1.563   5.833   7.082  0.5094 -0.8138  0.4561
  313MOL0     C41230   1.675   5.746   7.091  0.2140  0.1497  0.0862
  313MOL0     O41231   1.949   5.759   7.188 -0.4138  0.3459 -0.5615
  313MOL0     C41232   2.037   5.406   7.227  0.6813 -0.2704  1.0313
  313MOL0     C41233   2.145   5.314   7.221 -0.3340 -0.0777 -0.1923
  313MOL0     N41234   2.872   5.296   6.968  0.0317  0.5548  0.5934
  313MOL0     N41235   2.997   5.323   6.964 -0.9560 -0.1294 -0.0224
  313MOL0     C41236   3.879   5.199   7.649  0.1991  0.6843 -0.9253
  313MOL0     C41237   4.021   5.189   7.668  0.4760 -1.1371  0.0740
  313MOL0     C41238   4.482   5.172   7.577  0.3241 -0.0616  0.7588
  313MOL0     C41239   4.503   5.142   7.710  0.3842  0.0965 -0.3376
  313MOL0     C41240   4.627   5.125   7.769 -0.4385  0.3553 -0.2333
  313MOL0     C41241   4.739   5.137   7.683 -0.2663 -0.4052  0.1578
  313MOL0     O41242   4.861   5.096   7.733  0.4173 -0.1972 -0.5487
  313MOL0     C41243   4.981   5.096   7.658  0.1632 -0.0440  0.6344
  313MOL0     C41244   5.086   5.062   7.758 -0.2559 -0.8351 -0.9739
  313MOL0     C41245   5.231   5.070   7.713  0.6636 -0.0681 -0.0552
  313MOL0     C41246   5.327   5.029   7.826 -0.3773  0.3828 -0.1139
  313MOL0     C41247   5.468   5.012   7.782 -1.0405  0.0513 -0.7060
  313MOL0     C41248   5.580   5.001   7.733 -0.7089  0.4187 -0.2631
  313MOL0     C41249   4.722   5.180   7.551 -0.3882 -0.1790 -0.2447
  313MOL0     C41250   4.597   5.196   7.498  0.3199  0.7503 -0.0285
  313MOL0     H41251   4.124   5.272   7.354  0.0329 -1.4930 -1.1137
  313MOL0     H41252   3.887   5.294   7.327 -0.1987  0.7648  0.2127
  313MOL0     H41253   3.657   5.331   7.685 -2.9427 -0.8482  3.8785
  313MOL0     H41254   3.602   5.165   7.661 -1.1575 -0.2568 -0.6708
  313MOL0     H41255   3.474   5.415   7.545 -1.8935 -0.2660 -0.9751
  313MOL0     H41256   3.421   5.309   7.680 -0.9331  1.5309  0.2287
  313MOL0     H41257   3.388   5.126   7.506  0.2413 -0.2083 -0.5501
  313MOL0     H41258   3.470   5.233   7.386  1.0106  1.6964 -0.1908
  313MOL0     H41259   3.218   5.289   7.537  1.1547 -1.6422  1.4026
  313MOL0     H41260   3.292   5.362   7.380  0.8588 -2.3364 -3.7046
  313MOL0     H41261   3.083   5.208   7.358  0.1584 -2.1059 -0.4409
  313MOL0     H41262   3.181   5.084   7.433 -2.2450 -0.9445 -2.2677
  313MOL0     H41263   3.153   5.045   7.208 -0.9352 -0.7308  2.1901
  313MOL0     H41264   3.327   5.065   7.257 -0.0425 -1.1629 -2.3864
  313MOL0     H41265   3.223   5.327   7.152 -3.8165 -0.1788 -1.0967
  313MOL0     H41266   3.367   5.238   7.113  0.1810  0.5225  0.4977
  313MOL0     H41267   3.241   5.098   6.943  1.7380  1.2939 -0.1582
  313MOL0     H41268   3.248   5.267   6.908  1.2178 -2.7584 -2.5936
  313MOL0     H41269   2.979   4.995   6.991  0.5219 -0.2237 -1.7162
  313MOL0     H41270   2.756   5.026   7.103  1.2586 -1.7341 -1.0534
  313MOL0     H41271   2.689   5.012   6.934  1.5262  1.2517 -1.8190
  313MOL0     H41272   2.511   5.119   7.041  0.3697 -0.0090 -1.3025
  313MOL0     H41273   2.587   5.261   6.986  1.4933  0.0329  0.0552
  313MOL0     H41274   2.639   5.156   7.267 -2.3452  1.0484  2.3991
  313MOL0     H41275   2.716   5.289   7.181 -0.0710  0.2894  0.3875
  313MOL0     H41276   2.523   5.419   7.151  0.0027  1.7798  1.0954
  313MOL0     H41277   2.550   5.382   7.323  2.3903 -0.8501 -0.2454
  313MOL0     H41278   2.384   5.556   7.203 -0.0200 -0.0151  1.7275
  313MOL0     H41279   2.206   5.698   7.217  2.1311 -0.6351  0.7712
  313MOL0     H41280   1.652   5.646   7.415  0.6398  2.2719  1.6238
  313MOL0     H41281   1.451   5.815   7.394  0.6697 -1.5842  1.2590
  313MOL0     H41282   1.412   6.060   7.034  0.5147 -0.2919 -0.2868
  313MOL0     H41283   1.492   6.118   7.187 -0.3843 -0.3991  1.5963
  313MOL0     H41284   1.257   6.195   7.263  1.3479  0.6932 -0.0215
  313MOL0     H41285   1.199   6.140   7.104  1.9813  0.8356 -2.7529
  313MOL0     H41286   1.329   6.287   6.992 -0.2816 -0.3566 -0.1522
  313MOL0     H41287   1.412   6.345   7.143 -0.2942  1.4160 -1.9446
  313MOL0     H41288   1.163   6.412   7.217  0.2151  2.3092 -0.4553
  313MOL0     H41289   1.265   6.509   7.110  1.1675 -0.3781 -0.0578
  313MOL0     H41290   1.039   6.314   7.023 -0.6372  0.5880  0.6642
  313MOL0     H41291   1.139   6.409   6.911  0.5176  2.8052  1.2386
  313MOL0     H41292   1.051   6.613   7.040  1.2692 -1.2662  0.3811
  313MOL0     H41293   0.954   6.500   7.135  1.0247 -1.2565  0.3554
  313MOL0     H41294   0.939   6.503   6.829 -0.2502 -0.0153  0.3693
  313MOL0     H41295   0.831   6.425   6.943  1.8119 -2.1918 -2.3303
  313MOL0     H41296   0.742   6.644   6.841 -0.2942 -0.3875  0.8579
  313MOL0     H41297   0.871   6.729   6.933 -0.0727  0.3264 -2.6065
  313MOL0     H41298   1.532   5.888   6.993  0.0424 -0.4797  0.8227
  313MOL0     H41299   1.742   5.722   7.009  3.1172 -2.3702  2.9321
  313MOL0     H41300   1.943   5.353   7.227  0.5761 -0.1523 -0.8876
  313MOL0     H41301   2.140   5.206   7.226  2.1788 -0.3677 -2.1812
  313MOL0     H41302   3.817   5.163   7.731  0.0966  0.5947 -1.0418
  313MOL0     H41303   4.057   5.138   7.757 -0.0063 -2.3613 -0.4086
  313MOL0     H41304   4.412   5.129   7.768  1.6575 -2.4952  1.2498
  313MOL0     H41305   4.639   5.099   7.873 -1.5817  3.4530  0.7910
  313MOL0     H41306   5.007   5.195   7.620  0.2242  1.2276  3.7057
  313MOL0     H41307   4.982   5.021   7.578 -2.1201  0.1063  0.4136
  313MOL0     H41308   5.077   5.133   7.841 -2.3710 -0.6422 -1.3218
  313MOL0     H41309   5.065   4.964   7.804 -1.7588  0.0509  0.3105
  313MOL0     H41310   5.260   5.169   7.677 -1.8420  1.0913  0.9014
  313MOL0     H41311   5.251   5.009   7.624 -0.0347  0.0645 -0.3115
  313MOL0     H41312   5.325   5.097   7.911 -0.4623  1.0609 -0.6520
  313MOL0     H41313   5.294   4.932   7.865  1.8495 -0.1127  0.6647
  313MOL0     H41314   5.678   5.000   7.691 -0.4511  1.6589  0.2735
  313MOL0     H41315   4.819   5.194   7.506 -0.3766  0.5879  0.0037
  313MOL0     H41316   4.581   5.225   7.395 -1.7774  1.2524  0.3890
  314MOL0     O41317  10.173   3.130   9.213  0.5304 -0.2012  0.9732
  314MOL0     C41318  10.122   3.232   9.158  0.5566  0.4392  0.2519
  314MOL0     O41319   9.986   3.249   9.148  0.0881 -0.4180  0.1208
  314MOL0     C41320   9.913   3.135   9.176 -0.4815  0.5734  1.1604
  314MOL0     C41321   9.862   3.066   9.067 -0.4695 -0.9001 -0.4812
  314MOL0     C41322   9.795   2.947   9.092 -0.5949  0.2853 -0.2260
  314MOL0     C41323   9.771   2.901   9.225  0.6709 -0.8918  0.3166
  314MOL0     O41324   9.701   2.779   9.243 -0.5351 -0.3504 -0.4460
  314MOL0     C41325   9.663   2.750   9.379 -0.1481  0.3455  0.3487
  314MOL0     C41326   9.559   2.637   9.374 -0.0696 -0.4029  0.2466
  314MOL0     C41327   9.515   2.603   9.513  0.6457  1.2273 -0.6122
  314MOL0     C41328   9.446   2.460   9.523 -0.2871  0.3391 -1.1111
  314MOL0     C41329   9.427   2.421   9.664 -0.2758  0.0484 -0.8230
  314MOL0     C41330   9.377   2.282   9.696  0.1816  0.5781  1.2269
  314MOL0     C41331   9.364   2.273   9.838 -0.1914  0.8815 -0.7329
  314MOL0     C41332   9.328   2.132   9.877  0.0180  0.3477  0.0826
  314MOL0     N41333   9.198   2.084   9.822  0.6640  0.4462  0.1901
  314MOL0     C41334   9.069   2.089   9.871 -0.4944 -0.2488  0.1972
  314MOL0     C41335   9.005   2.000   9.788 -0.7752  0.5567 -0.1489
  314MOL0     C41336   8.864   1.953   9.819  0.1368 -0.8988 -0.3384
  314MOL0     C41337   8.783   1.960   9.695 -0.3447  0.0986 -0.0747
  314MOL0     C41338   8.639   1.967   9.741 -0.3342  0.5425 -1.6449
  314MOL0     C41339   8.557   1.964   9.618 -0.2929 -0.0772 -0.5079
  314MOL0     O41340   8.449   1.873   9.639  0.8005  0.1957  0.3322
  314MOL0     C41341   8.330   1.913   9.704  0.1102 -0.2091  0.2260
  314MOL0     C41342   8.327   2.024   9.793  0.5151  0.3276  0.8103
  314MOL0     C41343   8.218   2.050   9.868  0.6285 -0.2728 -0.5231
  314MOL0     C41344   8.103   1.966   9.851 -0.1026 -0.7849  0.6856
  314MOL0     C41345   7.976   2.005   9.920 -0.6724  0.1527 -1.1093
  314MOL0     O41346   7.983   2.063  10.040  0.1951 -0.3731 -0.3265
  314MOL0     C41347   7.869   2.103  10.103  0.2652  0.1981 -1.0869
  314MOL0     C41348   7.764   2.176  10.039  0.1960 -0.1548  0.1457
  314MOL0     C41349   7.653   2.208  10.119 -0.4681  0.2967  0.8619
  314MOL0     C41350   7.636   2.163  10.254  0.5779  0.0282  0.9381
  314MOL0     O41351   7.509   2.167  10.313 -0.9279  0.1240 -0.1474
  314MOL0     C41352   7.511   2.114  10.443  0.4517  0.0038 -0.5738
  314MOL0     C41353   7.358   2.107  10.484  0.5235 -0.5383  0.3427
  314MOL0     C41354   7.279   1.997  10.409  0.1773  0.0602  0.1276
  314MOL0     C41355   7.126   1.993  10.446 -0.2996 -0.4319 -0.3974
  314MOL0     C41356   7.057   2.104  10.375  0.0525 -0.3805  0.1582
  314MOL0     C41357   6.907   2.087  10.375 -0.1955 -0.0480  0.1522
  314MOL0     C41358   6.828   2.186  10.292  0.0471 -0.2937  0.1487
  314MOL0     C41359   6.684   2.141  10.290  0.2144  0.3435 -1.0296
  314MOL0    Cl41360   6.594   2.275  10.213 -0.2921 -0.7962  0.1547
  314MOL0     C41361   7.751   2.102  10.314  0.8004  0.1399  0.5825
  314MOL0     C41362   7.861   2.072  10.241 -0.5906  0.0576 -0.0242
  314MOL0     O41363   7.879   1.961   9.866 -0.3084  0.0272 -0.0771
  314MOL0     C41364   8.112   1.862   9.764  0.3497 -0.1730  0.5024
  314MOL0     C41365   8.226   1.833   9.693  0.3936 -0.2736 -0.4832
  314MOL0     N41366   9.093   1.945   9.694  0.5431  0.2664  0.1876
  314MOL0     N41367   9.206   1.997   9.716  0.6462 -0.4288 -0.5924
  314MOL0     C41368   9.811   2.984   9.331 -0.0939  0.1392 -0.2546
  314MOL0     C41369   9.881   3.100   9.310  0.3137 -0.6361 -0.0173
  314MOL0     C41370  10.225   3.323   9.112 -0.9419 -0.8175  0.3479
  314MOL0     C41371  10.187   3.422   9.026  0.0433  0.0424 -0.1490
  314MOL0     C41372  10.275   3.525   8.987  0.8730 -0.7386  0.3446
  314MOL0     C41373  10.407   3.522   9.020 -0.5623 -1.5636  0.5541
  314MOL0     O41374  10.504   3.613   8.972  0.3740 -0.3230 -0.2770
  314MOL0     C41375  10.488   3.699   8.857  0.1094  0.4798  0.4209
  314MOL0     C41376  10.524   3.617   8.736  0.6420 -0.6857 -0.1563
  314MOL0     C41377  10.676   3.616   8.708 -0.1828 -0.1100 -0.2216
  314MOL0     C41378  10.777   3.721   8.769  0.6577  0.0383  0.1061
  314MOL0     C41379  10.912   3.703   8.716 -0.2345 -0.2985 -0.7475
  314MOL0     C41380  11.022   3.684   8.689 -0.6067  0.1251  0.2880
  314MOL0     C41381  10.452   3.415   9.100 -0.4371  0.2206 -0.0335
  314MOL0     C41382  10.362   3.319   9.148  0.0460  0.1479 -0.5153
  314MOL0     H41383   9.886   3.101   8.967 -1.2266  1.0055 -0.0406
  314MOL0     H41384   9.757   2.889   9.009  1.1552 -1.9217  0.4264
  314MOL0     H41385   9.627   2.835   9.439  1.7191  0.9849  0.6475
  314MOL0     H41386   9.748   2.709   9.434 -1.2532 -1.9623  0.4552
  314MOL0     H41387   9.613   2.558   9.321  1.5988  0.8779 -0.0352
  314MOL0     H41388   9.475   2.661   9.308  3.0263  0.7008 -3.7036
  314MOL0     H41389   9.444   2.678   9.547  0.2344  0.5185  0.1402
  314MOL0     H41390   9.599   2.604   9.583  0.5181  0.1881 -0.4187
  314MOL0     H41391   9.349   2.465   9.474 -1.6015 -0.6621  1.2360
  314MOL0     H41392   9.502   2.387   9.464 -0.0742 -0.3103 -0.1276
  314MOL0     H41393   9.352   2.490   9.705  0.1301 -0.5760  1.0762
  314MOL0     H41394   9.521   2.431   9.718 -0.1847 -1.3831 -0.6755
  314MOL0     H41395   9.452   2.210   9.661 -1.0244  0.3373 -1.0319
  314MOL0     H41396   9.287   2.257   9.640 -0.0352  1.3294  1.2372
  314MOL0     H41397   9.458   2.287   9.892 -2.2754  0.8299  3.2641
  314MOL0     H41398   9.285   2.341   9.872  0.2913  1.0332  0.1159
  314MOL0     H41399   9.325   2.118   9.985 -0.5648 -1.8096 -0.1653
  314MOL0     H41400   9.417   2.076   9.846  0.8779  0.7077  1.7675
  314MOL0     H41401   9.039   2.131   9.966 -1.0917 -4.1355  1.9406
  314MOL0     H41402   8.818   2.016   9.895 -0.9446  0.8802 -2.3589
  314MOL0     H41403   8.857   1.853   9.863 -2.3013 -1.9237 -2.8172
  314MOL0     H41404   8.799   1.867   9.640  0.2792  0.6930 -0.9291
  314MOL0     H41405   8.809   2.051   9.640  0.1290  1.0026  1.5761
  314MOL0     H41406   8.602   1.882   9.800  0.3206  1.0626 -0.4486
  314MOL0     H41407   8.630   2.056   9.804  2.2063 -1.1764  1.4800
  314MOL0     H41408   8.611   1.925   9.531  0.5194 -1.7976  0.7076
  314MOL0     H41409   8.533   2.069   9.597  4.6030  1.5882  0.8400
  314MOL0     H41410   8.420   2.078   9.800  1.4058 -1.1658  0.9275
  314MOL0     H41411   8.237   2.125   9.945  0.7769 -0.3621 -0.4722
  314MOL0     H41412   7.767   2.208   9.935 -0.1210 -2.2474 -0.5439
  314MOL0     H41413   7.575   2.258  10.063 -0.3346  1.5265  1.7282
  314MOL0     H41414   7.570   2.178  10.510  0.2023  0.4708 -0.7940
  314MOL0     H41415   7.555   2.015  10.450  1.8807  0.5904 -0.9336
  314MOL0     H41416   7.312   2.204  10.463 -1.6571 -1.5091  0.3413
  314MOL0     H41417   7.353   2.077  10.589  0.0033 -1.2076  0.1316
  314MOL0     H41418   7.319   1.900  10.441 -0.0944  0.6360  2.3433
  314MOL0     H41419   7.293   2.015  10.302  0.2946 -1.7923 -0.2081
  314MOL0     H41420   7.086   1.897  10.412 -0.2770  0.1083 -2.0618
  314MOL0     H41421   7.120   2.007  10.554 -0.8687 -0.2884 -0.4495
  314MOL0     H41422   7.084   2.112  10.269 -0.9401  0.1756 -0.0558
  314MOL0     H41423   7.082   2.205  10.410 -3.2302  0.8169 -0.6531
  314MOL0     H41424   6.882   2.102  10.481  2.0124 -0.9541  0.8628
  314MOL0     H41425   6.879   1.984  10.353  1.6396 -0.2518 -1.4284
  314MOL0     H41426   6.835   2.291  10.323  1.4111 -0.6377  1.0858
  314MOL0     H41427   6.862   2.185  10.188 -0.8751  0.1831 -0.1717
  314MOL0     H41428   6.642   2.121  10.389  0.6818 -1.3116 -1.1497
  314MOL0     H41429   6.670   2.049  10.233  2.0453 -1.4336  1.2052
  314MOL0     H41430   7.754   2.072  10.419  1.1441  1.4796  0.9667
  314MOL0     H41431   7.945   2.040  10.301 -2.6957 -1.2079  2.4640
  314MOL0     H41432   8.025   1.798   9.753 -0.3790  0.5997  1.4831
  314MOL0     H41433   8.225   1.741   9.636 -1.8169 -0.4151 -0.2685
  314MOL0     H41434   9.794   2.960   9.436  3.0253 -0.3505  0.2530
  314MOL0     H41435   9.923   3.162   9.389  0.6832  0.0865 -0.7656
  314MOL0     H41436  10.089   3.430   8.981 -0.6206  3.2061  1.5909
  314MOL0     H41437  10.224   3.599   8.927  0.1345 -2.4324 -1.1912
  314MOL0     H41438  10.542   3.793   8.865  0.1283  0.8858 -2.9610
  314MOL0     H41439  10.383   3.727   8.845  0.7687  2.2038 -2.1569
  314MOL0     H41440  10.480   3.520   8.759 -0.1466 -0.2072  0.3989
  314MOL0     H41441  10.465   3.656   8.652  0.0083 -1.4362 -0.0648
  314MOL0     H41442  10.697   3.605   8.602  0.3170  0.3260 -0.1726
  314MOL0     H41443  10.699   3.520   8.755  0.9644  0.4096  0.3078
  314MOL0     H41444  10.750   3.819   8.728  0.3983 -0.1396 -0.1530
  314MOL0     H41445  10.776   3.720   8.879 -1.1786  2.7363  0.2057
  314MOL0     H41446  11.127   3.671   8.670 -1.1007 -0.4752 -2.4865
  314MOL0     H41447  10.555   3.403   9.132 -0.2302 -0.8639 -1.0278
  314MOL0     H41448  10.408   3.240   9.208  1.1540  1.1026 -0.0507
  315MOL0     O41449   4.970   1.998   1.604  0.6830  0.9244  0.2496
  315MOL0     C41450   5.031   1.888   1.623 -0.6200  0.6830 -0.1551
  315MOL0     O41451   4.978   1.767   1.667  1.0256  0.4563 -0.1999
  315MOL0     C41452   4.843   1.758   1.669  0.1189 -0.1892 -0.4772
  315MOL0     C41453   4.763   1.778   1.557 -0.0054 -0.0070 -1.1861
  315MOL0     C41454   4.623   1.772   1.568  0.1365  0.4620  0.2203
  315MOL0     C41455   4.566   1.709   1.680 -0.4880 -0.4296 -1.1482
  315MOL0     O41456   4.431   1.674   1.695  0.0833 -0.2942 -0.3528
  315MOL0     C41457   4.344   1.716   1.591 -0.8180  0.1359 -0.4577
  315MOL0     C41458   4.206   1.700   1.639  0.0724 -0.5712  1.1816
  315MOL0     C41459   4.113   1.713   1.512  0.1901 -0.3395  0.0709
  315MOL0     C41460   4.116   1.854   1.458 -0.0932 -0.2062  0.2646
  315MOL0     C41461   4.107   1.976   1.546 -0.4510 -0.5493  0.4614
  315MOL0     C41462   4.105   2.092   1.444 -0.2450 -0.9816  0.0912
  315MOL0     C41463   4.127   2.217   1.530  0.6589 -0.5953  0.8975
  315MOL0     C41464   4.153   2.344   1.442  0.7138 -1.5891  0.1422
  315MOL0     N41465   4.026   2.395   1.381  0.4810 -0.1654 -0.2376
  315MOL0     C41466   3.937   2.478   1.443  0.6800  0.1587  0.1349
  315MOL0     C41467   3.834   2.480   1.349 -0.5551 -0.4858 -0.3129
  315MOL0     C41468   3.700   2.551   1.348  0.2034  0.2617 -0.3440
  315MOL0     C41469   3.593   2.447   1.377 -0.0093  0.0704 -0.7881
  315MOL0     C41470   3.453   2.500   1.367  2.0975 -0.1746  1.4001
  315MOL0     C41471   3.357   2.384   1.379 -0.0755  0.5642  1.2513
  315MOL0     O41472   3.217   2.427   1.365 -0.1021  0.3794  0.4566
  315MOL0     C41473   3.109   2.339   1.368 -0.3960  0.5724  0.2286
  315MOL0     C41474   2.985   2.383   1.418 -0.7542 -0.0875 -0.2656
  315MOL0     C41475   2.876   2.301   1.436  0.2067  0.5136  0.1624
  315MOL0     C41476   2.883   2.171   1.393  0.2856 -0.0023  0.6510
  315MOL0     C41477   2.763   2.081   1.416  0.1067  0.0591  0.1249
  315MOL0     O41478   2.653   2.132   1.467  0.0627  0.0431  0.1036
  315MOL0     C41479   2.533   2.070   1.488  0.0959  0.3929  0.0394
  315MOL0     C41480   2.442   2.133   1.579 -0.0929 -0.3454 -0.0473
  315MOL0     C41481   2.309   2.087   1.596  0.2698 -0.3499 -0.7157
  315MOL0     C41482   2.262   1.984   1.517  0.1740  0.3416  0.1673
  315MOL0     O41483   2.127   1.965   1.505  0.1624  1.0766 -0.5435
  315MOL0     C41484   2.080   1.875   1.605  0.6647 -0.1408  0.1667
  315MOL0     C41485   1.941   1.829   1.554 -0.2955  0.2786  1.0058
  315MOL0     C41486   1.874   1.725   1.645 -0.3717 -0.4738 -0.1467
  315MOL0     C41487   1.762   1.650   1.567 -0.8803  0.0142  0.6181
  315MOL0     C41488   1.683   1.562   1.657  0.4069  0.0637  0.5494
  315MOL0     C41489   1.610   1.638   1.769 -0.0728 -0.3904 -0.3994
  315MOL0     C41490   1.517   1.539   1.835 -0.4018 -0.0550 -1.1452
  315MOL0     C41491   1.429   1.609   1.938 -0.0545 -0.1857 -1.0132
  315MOL0    Cl41492   1.312   1.721   1.856  0.2184 -0.0114 -0.6894
  315MOL0     C41493   2.349   1.921   1.424  0.0929  0.3850  0.1299
  315MOL0     C41494   2.485   1.960   1.411  0.5450 -0.0674 -0.3704
  315MOL0     O41495   2.779   1.962   1.391 -0.1182 -0.3366  0.2447
  315MOL0     C41496   3.005   2.115   1.340 -0.1489  0.2123  0.5131
  315MOL0     C41497   3.113   2.202   1.322 -1.1361 -0.7367 -0.1729
  315MOL0     N41498   3.869   2.402   1.242  0.2972  0.2804  0.4016
  315MOL0     N41499   3.986   2.357   1.256  0.1166  0.1514  0.1732
  315MOL0     C41500   4.646   1.680   1.793 -1.1991 -0.0735 -0.0510
  315MOL0     C41501   4.785   1.710   1.788 -0.2307  0.1765 -0.4943
  315MOL0     C41502   5.175   1.896   1.610 -0.5827 -0.2612 -0.3174
  315MOL0     C41503   5.247   1.783   1.568 -0.4815  1.0665 -0.4087
  315MOL0     C41504   5.386   1.784   1.566  0.2751 -0.7998 -0.1364
  315MOL0     C41505   5.458   1.902   1.595 -0.0630  0.1520  0.1488
  315MOL0     O41506   5.598   1.910   1.590  0.4122  0.4968  0.0062
  315MOL0     C41507   5.669   1.787   1.560  0.2823 -0.8133 -0.3921
  315MOL0     C41508   5.822   1.805   1.581 -0.7241 -0.5612 -0.8240
  315MOL0     C41509   5.853   1.894   1.699  0.0592  0.6917 -0.5258
  315MOL0     C41510   6.000   1.923   1.700 -0.9557  0.0069  0.7791
  315MOL0     C41511   6.028   2.031   1.800 -0.5233 -0.0730  0.2474
  315MOL0     C41512   6.045   2.134   1.866 -0.8446 -0.9559  0.4904
  315MOL0     C41513   5.390   2.015   1.631 -0.5418  0.5733  0.5587
  315MOL0     C41514   5.252   2.011   1.631 -0.3139 -0.5689  0.0250
  315MOL0     H41515   4.797   1.806   1.458 -0.8829 -1.8516 -2.0481
  315MOL0     H41516   4.569   1.794   1.477  2.1275  0.2138 -1.0623
  315MOL0     H41517   4.360   1.649   1.506  0.7839  1.2120 -1.0318
  315MOL0     H41518   4.361   1.821   1.567  4.2208 -0.2511  0.3678
  315MOL0     H41519   4.190   1.777   1.714 -2.1823  0.8269 -0.6024
  315MOL0     H41520   4.189   1.602   1.683  0.3464 -1.0128  0.3342
  315MOL0     H41521   4.008   1.691   1.534  0.4573 -0.0636  1.8391
  315MOL0     H41522   4.154   1.649   1.434  1.1859 -0.8592  1.0014
  315MOL0     H41523   4.205   1.874   1.398 -0.5411  2.4507  0.3288
  315MOL0     H41524   4.031   1.852   1.390  0.6830  1.1615 -0.7966
  315MOL0     H41525   4.200   1.982   1.604 -0.4703 -3.3325  0.9062
  315MOL0     H41526   4.019   1.974   1.611 -1.1214 -2.2819 -0.4511
  315MOL0     H41527   4.004   2.096   1.402 -1.2104 -0.5612  2.2893
  315MOL0     H41528   4.187   2.090   1.372  0.6249 -1.4382  1.0625
  315MOL0     H41529   4.035   2.233   1.587  0.1471 -1.5216  0.3585
  315MOL0     H41530   4.212   2.189   1.594  1.1931 -0.9542  0.0424
  315MOL0     H41531   4.237   2.322   1.376  1.3168 -3.4532  1.4670
  315MOL0     H41532   4.177   2.424   1.512 -1.9838 -0.2315 -0.3221
  315MOL0     H41533   3.940   2.515   1.545 -0.5428  2.1958 -0.5126
  315MOL0     H41534   3.670   2.596   1.253  0.0851  1.8987  0.4319
  315MOL0     H41535   3.695   2.624   1.430 -0.6235 -2.1798  1.9104
  315MOL0     H41536   3.611   2.406   1.477 -1.0597 -1.7158 -1.2930
  315MOL0     H41537   3.599   2.372   1.298 -0.1192 -0.2691 -0.4799
  315MOL0     H41538   3.429   2.586   1.431  0.3734  0.4425  0.0244
  315MOL0     H41539   3.438   2.545   1.268  1.2959  1.1559  2.0876
  315MOL0     H41540   3.373   2.341   1.478  0.8124  0.4945  1.0868
  315MOL0     H41541   3.374   2.314   1.296 -2.0088  1.2930  0.1654
  315MOL0     H41542   2.983   2.483   1.461 -0.2056 -0.7823  1.4486
  315MOL0     H41543   2.781   2.336   1.475  0.2158  0.5521  0.1496
  315MOL0     H41544   2.469   2.223   1.633 -2.5064  1.0924 -1.0197
  315MOL0     H41545   2.230   2.124   1.662  0.2372 -2.2936  0.4236
  315MOL0     H41546   2.058   1.928   1.698 -1.2673 -0.6397  0.0385
  315MOL0     H41547   2.145   1.789   1.626  0.2403 -0.7066 -0.7517
  315MOL0     H41548   1.945   1.797   1.450  0.8326  1.8865  0.5162
  315MOL0     H41549   1.871   1.913   1.547  0.0611  0.4142 -1.7176
  315MOL0     H41550   1.838   1.775   1.736  0.4210  0.2639 -0.2259
  315MOL0     H41551   1.953   1.655   1.674 -0.5185  0.1405  1.8806
  315MOL0     H41552   1.699   1.720   1.512  0.6357  1.0149  0.0939
  315MOL0     H41553   1.813   1.583   1.498  1.1119  2.8946 -0.9255
  315MOL0     H41554   1.740   1.480   1.702 -1.7274 -1.4028  0.7367
  315MOL0     H41555   1.609   1.511   1.595 -0.6359  0.6889  1.2461
  315MOL0     H41556   1.546   1.719   1.733 -0.7682 -0.1724  1.2380
  315MOL0     H41557   1.689   1.672   1.837 -1.6446  0.0316  1.2867
  315MOL0     H41558   1.456   1.488   1.760 -0.4625  1.2302 -2.0023
  315MOL0     H41559   1.578   1.463   1.884 -2.1441 -1.1722 -0.6117
  315MOL0     H41560   1.489   1.664   2.011 -1.3635  0.9644 -0.7586
  315MOL0     H41561   1.367   1.534   1.988 -0.2133  0.5288 -0.1113
  315MOL0     H41562   2.313   1.838   1.363  0.0492  0.0755  0.5674
  315MOL0     H41563   2.552   1.899   1.351  0.6159  2.8213 -3.5749
  315MOL0     H41564   3.020   2.014   1.302  2.3814 -0.3197  2.6800
  315MOL0     H41565   3.215   2.177   1.295 -0.1452 -0.6871  3.1230
  315MOL0     H41566   4.593   1.648   1.883 -1.2519  0.3680  0.0770
  315MOL0     H41567   4.846   1.689   1.875  1.9637  0.6303 -1.8560
  315MOL0     H41568   5.195   1.691   1.544 -0.7221  0.8906  0.7660
  315MOL0     H41569   5.426   1.691   1.525  1.4876  0.6147 -2.3713
  315MOL0     H41570   5.660   1.753   1.456  0.1804  3.7786 -2.1354
  315MOL0     H41571   5.632   1.708   1.626 -0.6781 -1.9260 -2.1679
  315MOL0     H41572   5.864   1.704   1.582 -1.7138 -1.2958 -5.8044
  315MOL0     H41573   5.866   1.846   1.490  0.2795  0.3995  0.0734
  315MOL0     H41574   5.810   1.858   1.794  1.2110  1.4800  0.3248
  315MOL0     H41575   5.805   1.991   1.687  0.1528  0.5867 -1.8361
  315MOL0     H41576   6.055   1.833   1.729  3.2800  1.3669 -2.0729
  315MOL0     H41577   6.043   1.956   1.605  0.8538 -3.2679  0.2937
  315MOL0     H41578   6.073   2.228   1.908 -2.2137 -1.7111  3.2679
  315MOL0     H41579   5.448   2.106   1.647  0.1037 -0.2694  3.6665
  315MOL0     H41580   5.204   2.101   1.667 -1.1696 -1.9152  2.4983
  316MOL0     O41581   9.191   4.383   5.727 -0.8001 -0.2358  0.7092
  316MOL0     C41582   9.293   4.381   5.793  0.0600 -0.3513 -0.2353
  316MOL0     O41583   9.313   4.311   5.910 -0.3215  0.3261  0.1848
  316MOL0     C41584   9.230   4.208   5.956 -0.4362  0.5249  0.5331
  316MOL0     C41585   9.293   4.119   6.048  0.0968 -0.4534  0.1946
  316MOL0     C41586   9.209   4.026   6.112 -0.9039 -0.8221  0.4245
  316MOL0     C41587   9.075   4.002   6.089 -0.4176  0.0120 -0.3406
  316MOL0     O41588   9.020   3.900   6.158  0.5268 -0.5733  0.4826
  316MOL0     C41589   8.878   3.888   6.160  0.0523  1.1067  0.2205
  316MOL0     C41590   8.836   3.782   6.261  0.1199 -0.4930 -0.0864
  316MOL0     C41591   8.690   3.765   6.254  0.2073 -0.3407 -0.0373
  316MOL0     C41592   8.652   3.658   6.355 -0.2546  0.7634 -0.6195
  316MOL0     C41593   8.507   3.607   6.338 -1.2797  0.1750 -0.3236
  316MOL0     C41594   8.473   3.508   6.449 -0.2429  0.5942 -0.6831
  316MOL0     C41595   8.337   3.447   6.421  0.7448  0.3104 -0.1202
  316MOL0     C41596   8.283   3.358   6.539 -0.6192  0.0667  0.5565
  316MOL0     N41597   8.146   3.330   6.519  0.2661 -0.2198 -0.7425
  316MOL0     C41598   8.041   3.420   6.563  0.1954 -0.0437  1.0381
  316MOL0     C41599   7.926   3.352   6.523 -0.9862  0.6178  0.7527
  316MOL0     C41600   7.793   3.408   6.532  0.3897 -0.0203 -0.2517
  316MOL0     C41601   7.685   3.298   6.557  0.8231  0.8293 -0.0630
  316MOL0     C41602   7.711   3.198   6.669  0.3710  0.3495 -0.0510
  316MOL0     C41603   7.597   3.096   6.692 -0.0389  0.6645  0.6925
  316MOL0     O41604   7.497   3.179   6.745  0.4432 -0.2480 -0.3500
  316MOL0     C41605   7.371   3.140   6.773  0.1720  0.4180  0.1961
  316MOL0     C41606   7.326   3.007   6.751 -0.4582 -0.1809 -0.2840
  316MOL0     C41607   7.187   2.974   6.767 -0.1971 -0.4250  0.0695
  316MOL0     C41608   7.096   3.073   6.804  0.5202  0.6357 -0.3452
  316MOL0     C41609   6.951   3.026   6.811 -0.1779 -1.0457  0.0445
  316MOL0     O41610   6.907   2.898   6.774 -0.4190 -0.2230 -0.0522
  316MOL0     C41611   6.769   2.880   6.776  0.7435  0.0557  1.0961
  316MOL0     C41612   6.679   2.928   6.877  0.3706 -0.0121  0.5300
  316MOL0     C41613   6.549   2.898   6.864  0.4198 -0.1734  0.2909
  316MOL0     C41614   6.500   2.819   6.755  0.2031 -0.0557  0.5513
  316MOL0     O41615   6.370   2.787   6.752  0.4906 -0.3158  0.9439
  316MOL0     C41616   6.304   2.733   6.869  0.0509 -0.3143 -0.3240
  316MOL0     C41617   6.155   2.763   6.857 -0.3537  0.5437 -0.5229
  316MOL0     C41618   6.127   2.916   6.877 -0.5516  0.3502 -0.1440
  316MOL0     C41619   5.974   2.934   6.900 -0.2573 -0.6054 -1.0830
  316MOL0     C41620   5.896   2.940   6.762 -0.5834 -0.6895 -0.2660
  316MOL0     C41621   5.741   2.941   6.784  0.8902  0.2976  0.4484
  316MOL0     C41622   5.649   2.934   6.663  0.5101  0.2186  0.0403
  316MOL0     C41623   5.508   2.934   6.711  0.6012  0.3767 -0.3580
  316MOL0    Cl41624   5.390   2.900   6.571  0.2453  0.0242  0.2181
  316MOL0     C41625   6.585   2.769   6.663 -0.2410  0.7100 -0.2848
  316MOL0     C41626   6.721   2.787   6.682  0.7896  0.9252  0.1697
  316MOL0     O41627   6.881   3.119   6.841 -0.5528 -0.2743 -0.4757
  316MOL0     C41628   7.138   3.202   6.832 -0.7124  0.3610 -0.7306
  316MOL0     C41629   7.275   3.232   6.821 -0.0448 -0.0135  0.4727
  316MOL0     N41630   7.963   3.233   6.456  0.3290  0.1815  0.6761
  316MOL0     N41631   8.097   3.220   6.461  0.6508 -0.2372 -0.3483
  316MOL0     C41632   9.015   4.095   5.997 -0.2883  0.5410 -0.5794
  316MOL0     C41633   9.092   4.193   5.924 -0.0250  0.1868 -0.1863
  316MOL0     C41634   9.404   4.461   5.740 -0.4899 -0.5326  0.4292
  316MOL0     C41635   9.536   4.422   5.748 -0.0813 -0.2048  0.7532
  316MOL0     C41636   9.634   4.493   5.684 -0.7386 -0.7033  0.3050
  316MOL0     C41637   9.602   4.612   5.610  0.4200 -0.1583  0.1580
  316MOL0     O41638   9.696   4.692   5.545 -0.0715  0.1294 -0.2466
  316MOL0     C41639   9.829   4.642   5.536  0.4989  0.4725  1.0636
  316MOL0     C41640   9.914   4.742   5.453 -0.5642 -0.6156 -0.3171
  316MOL0     C41641  10.061   4.710   5.478  0.3011  0.1777 -0.5027
  316MOL0     C41642  10.137   4.796   5.386  0.4999 -0.5079  0.0794
  316MOL0     C41643  10.279   4.750   5.382  0.5621 -0.2244 -0.3846
  316MOL0     C41644  10.391   4.715   5.403  0.6961  0.3606  0.8074
  316MOL0     C41645   9.473   4.656   5.602  0.6798  0.2544 -0.1344
  316MOL0     C41646   9.374   4.586   5.667 -0.7154 -0.2977  0.1579
  316MOL0     H41647   9.397   4.132   6.079 -0.1342  1.0752  0.4136
  316MOL0     H41648   9.257   3.976   6.195  2.5558  1.1426 -0.1905
  316MOL0     H41649   8.852   3.856   6.059  0.2598  2.0996 -0.1674
  316MOL0     H41650   8.830   3.985   6.178 -0.0328  1.0577  0.2571
  316MOL0     H41651   8.872   3.820   6.357  1.7625  0.3433 -0.9831
  316MOL0     H41652   8.879   3.683   6.240 -0.8336 -0.9074 -0.1199
  316MOL0     H41653   8.648   3.748   6.154  0.3973 -2.7228  0.2335
  316MOL0     H41654   8.640   3.861   6.273  0.2936  0.1477 -2.0174
  316MOL0     H41655   8.720   3.573   6.351  0.6238  1.2780  1.7608
  316MOL0     H41656   8.652   3.700   6.457  0.2573 -0.1997 -0.2167
  316MOL0     H41657   8.511   3.566   6.237  0.6023 -0.2499 -0.1156
  316MOL0     H41658   8.434   3.688   6.341  1.0442  2.3739  1.5939
  316MOL0     H41659   8.468   3.567   6.541 -2.6795  0.7246 -0.8386
  316MOL0     H41660   8.541   3.422   6.461 -0.8177  0.3899  1.5494
  316MOL0     H41661   8.256   3.520   6.406 -2.0929 -2.3297  1.1574
  316MOL0     H41662   8.353   3.384   6.333  2.7253  0.4317  0.1166
  316MOL0     H41663   8.295   3.413   6.632 -2.2211  0.8317  0.3382
  316MOL0     H41664   8.337   3.263   6.535 -0.5000  0.1710 -2.1182
  316MOL0     H41665   8.037   3.523   6.598  1.1603 -0.4238  2.3406
  316MOL0     H41666   7.761   3.456   6.439 -0.4160 -1.4993 -0.7696
  316MOL0     H41667   7.785   3.485   6.609 -1.5269  0.0862 -0.5120
  316MOL0     H41668   7.667   3.241   6.465  0.6826  2.1917 -0.9034
  316MOL0     H41669   7.586   3.342   6.571 -0.0183 -0.9899  0.0894
  316MOL0     H41670   7.798   3.135   6.648 -2.0940 -3.0310 -1.0575
  316MOL0     H41671   7.732   3.264   6.753 -0.0589  0.0557  0.2944
  316MOL0     H41672   7.616   3.022   6.771 -4.0661  0.7450  1.9468
  316MOL0     H41673   7.569   3.045   6.600 -0.1269 -0.2466  1.2076
  316MOL0     H41674   7.385   2.927   6.709 -2.5987 -3.1038  1.8874
  316MOL0     H41675   7.153   2.876   6.734 -0.2818 -0.8542  1.3730
  316MOL0     H41676   6.724   2.973   6.964  1.3623 -0.9794  0.5408
  316MOL0     H41677   6.491   2.939   6.946  2.4975  2.2071  0.6842
  316MOL0     H41678   6.335   2.781   6.962  1.4795  0.8974 -1.3636
  316MOL0     H41679   6.326   2.627   6.885  0.9072  0.0502  1.0868
  316MOL0     H41680   6.094   2.700   6.922 -0.1857 -2.7014 -3.2523
  316MOL0     H41681   6.118   2.740   6.757  0.8928  1.5238 -1.2326
  316MOL0     H41682   6.156   2.959   6.781  0.7610 -2.5468 -1.1479
  316MOL0     H41683   6.180   2.951   6.966 -0.6992 -0.9054  0.4651
  316MOL0     H41684   5.943   2.846   6.957 -0.6698 -0.6142 -1.3204
  316MOL0     H41685   5.953   3.029   6.951 -1.5914 -0.5428 -1.7058
  316MOL0     H41686   5.932   2.874   6.682  4.0908 -0.1939  1.1309
  316MOL0     H41687   5.919   3.037   6.717 -1.5101 -0.6662 -0.7030
  316MOL0     H41688   5.719   3.031   6.842 -1.2363  0.0101  0.1759
  316MOL0     H41689   5.713   2.845   6.829  0.0215  0.0466 -0.5788
  316MOL0     H41690   5.656   3.035   6.619 -1.6074  0.5502  0.3549
  316MOL0     H41691   5.667   2.849   6.597 -1.6184  0.4730 -0.9582
  316MOL0     H41692   5.486   3.033   6.752 -1.1591 -0.5479  1.0759
  316MOL0     H41693   5.504   2.863   6.793  1.6442  1.8184  1.0064
  316MOL0     H41694   6.550   2.704   6.583 -3.7792  1.0247  0.8457
  316MOL0     H41695   6.791   2.728   6.623 -1.1723 -0.9332 -0.4319
  316MOL0     H41696   7.069   3.280   6.860  2.6883  3.4412 -0.1792
  316MOL0     H41697   7.309   3.334   6.838  0.6730 -0.4728  2.0143
  316MOL0     H41698   8.907   4.087   5.990 -0.2211 -0.6392 -0.6298
  316MOL0     H41699   9.035   4.250   5.852 -0.4696 -1.0092 -0.8079
  316MOL0     H41700   9.560   4.336   5.810 -1.7144 -0.3937  1.1606
  316MOL0     H41701   9.732   4.447   5.697 -0.8161 -0.7636  0.6954
  316MOL0     H41702   9.846   4.544   5.490  0.9603  0.8988  0.3006
  316MOL0     H41703   9.866   4.625   5.638  1.6594 -0.3147  0.5362
  316MOL0     H41704   9.898   4.728   5.346 -0.9663 -0.6919 -0.2492
  316MOL0     H41705   9.894   4.845   5.485  0.5205 -0.0686 -1.3440
  316MOL0     H41706  10.087   4.605   5.457  0.2850  0.1239 -0.2546
  316MOL0     H41707  10.092   4.719   5.582 -0.4941 -1.2749 -0.1048
  316MOL0     H41708  10.097   4.795   5.284  0.8402  2.2792 -0.1671
  316MOL0     H41709  10.137   4.902   5.414 -2.8641  0.6167 -3.2803
  316MOL0     H41710  10.496   4.699   5.419  1.1125  0.9489 -1.1040
  316MOL0     H41711   9.454   4.751   5.553  3.4064  1.2153  0.4821
  316MOL0     H41712   9.272   4.623   5.666 -0.6232  0.2277 -3.7943
  317MOL0     O41713   9.795   8.559  10.894 -0.6142  0.3560 -0.0895
  317MOL0     C41714   9.885   8.481  10.916  0.6628 -0.1426 -0.0995
  317MOL0     O41715   9.867   8.350  10.938  0.4769 -0.3448 -0.3391
  317MOL0     C41716   9.738   8.307  10.940  0.2634  0.3402  0.0519
  317MOL0     C41717   9.677   8.286  11.062 -0.1337  0.5779 -0.2847
  317MOL0     C41718   9.539   8.245  11.062 -0.4370 -0.6351  0.1647
  317MOL0     C41719   9.470   8.224  10.942  0.4525 -0.1023 -0.5970
  317MOL0     O41720   9.337   8.191  10.962 -0.0351 -0.0531 -0.3357
  317MOL0     C41721   9.266   8.147  10.842  0.8527 -0.6581 -0.3904
  317MOL0     C41722   9.153   8.051  10.886  0.4453  0.0400  0.0157
  317MOL0     C41723   9.054   8.116  10.982  0.2741 -0.3001  0.0373
  317MOL0     C41724   8.932   8.027  11.015  0.2462 -0.1539  0.0198
  317MOL0     C41725   8.831   8.109  11.103  0.7276  0.4293  0.0144
  317MOL0     C41726   8.890   8.163  11.237 -0.0506 -0.3594  0.3699
  317MOL0     C41727   8.768   8.230  11.311 -1.1482  0.0397  0.3099
  317MOL0     C41728   8.811   8.270  11.450  0.1835  0.3915  0.4815
  317MOL0     N41729   8.708   8.345  11.526 -0.2236 -0.4115 -0.2533
  317MOL0     C41730   8.570   8.336  11.518 -0.0520 -0.3462  0.9465
  317MOL0     C41731   8.529   8.425  11.611  0.3633 -0.8369 -0.3233
  317MOL0     C41732   8.392   8.448  11.658 -1.0114 -0.0287 -0.3176
  317MOL0     C41733   8.289   8.454  11.544  0.1424 -0.4457  0.1608
  317MOL0     C41734   8.162   8.498  11.611  0.9712 -0.1525  0.4264
  317MOL0     C41735   8.029   8.487  11.526  0.5414  0.5786  0.3512
  317MOL0     O41736   7.921   8.540  11.604  0.1110  1.1089  0.0344
  317MOL0     C41737   7.797   8.558  11.549 -0.4821  0.2862 -0.4131
  317MOL0     C41738   7.766   8.569  11.419  0.8377  0.7762  0.1311
  317MOL0     C41739   7.631   8.604  11.379 -0.4915  0.1481  0.1256
  317MOL0     C41740   7.519   8.600  11.473 -0.1803 -0.5117 -0.3987
  317MOL0     C41741   7.374   8.622  11.445 -0.2939 -0.2635 -0.4588
  317MOL0     O41742   7.335   8.670  11.323  0.3925  0.1297 -0.2389
  317MOL0     C41743   7.195   8.678  11.306  0.0395  0.2205  0.1660
  317MOL0     C41744   7.119   8.790  11.351  0.0981  0.2454 -0.0935
  317MOL0     C41745   6.976   8.791  11.339 -1.0122 -0.4134  0.0574
  317MOL0     C41746   6.909   8.684  11.282 -0.5156  0.2235  0.0600
  317MOL0     O41747   6.770   8.675  11.264  0.0359 -0.2324  0.9289
  317MOL0     C41748   6.683   8.786  11.289  0.5417 -0.6069  0.1786
  317MOL0     C41749   6.537   8.738  11.279 -0.1460 -0.1879 -0.0682
  317MOL0     C41750   6.490   8.705  11.132 -0.3636 -0.0312 -0.2341
  317MOL0     C41751   6.347   8.648  11.131 -0.8821  0.7005  0.7366
  317MOL0     C41752   6.294   8.639  10.988 -0.2959 -0.0227 -0.0137
  317MOL0     C41753   6.140   8.621  10.989 -0.2435  0.0839  0.2452
  317MOL0     C41754   6.088   8.651  10.842 -0.7452 -0.0332 -0.6807
  317MOL0     C41755   5.939   8.626  10.819 -0.2635 -0.1052 -0.0277
  317MOL0    Cl41756   5.901   8.459  10.840 -0.4586  0.3156  0.6110
  317MOL0     C41757   6.981   8.579  11.221 -1.2072 -0.2924 -0.4740
  317MOL0     C41758   7.121   8.586  11.233 -0.7300 -0.4197  0.1678
  317MOL0     O41759   7.297   8.603  11.541  0.3208  0.3853  0.0634
  317MOL0     C41760   7.559   8.595  11.606 -0.5478 -0.9163 -0.6883
  317MOL0     C41761   7.696   8.579  11.649  0.3697  0.1868  1.2300
  317MOL0     N41762   8.642   8.470  11.678 -0.0137 -0.3626 -0.6182
  317MOL0     N41763   8.741   8.437  11.615 -0.1758  0.3576 -0.3054
  317MOL0     C41764   9.538   8.232  10.820  0.0594  1.1008  0.0207
  317MOL0     C41765   9.674   8.271  10.824  0.1120 -0.1890 -0.2293
  317MOL0     C41766  10.016   8.538  10.924 -0.1148  0.2151  0.0407
  317MOL0     C41767  10.125   8.454  10.952  0.0742 -0.1514  0.4064
  317MOL0     C41768  10.256   8.495  10.945  0.4239 -0.1297  0.0390
  317MOL0     C41769  10.287   8.625  10.918 -0.3659 -0.0559 -0.4433
  317MOL0     O41770  10.421   8.669  10.927 -0.0923 -0.0178 -0.2495
  317MOL0     C41771  10.537   8.583  10.946  0.0141  0.3796  0.1316
  317MOL0     C41772  10.651   8.674  10.991 -0.5750  0.3756  0.3035
  317MOL0     C41773  10.778   8.587  10.991 -0.5031 -0.5578  0.5488
  317MOL0     C41774  10.899   8.640  11.079 -0.3310 -0.1002  0.3047
  317MOL0     C41775  10.952   8.772  11.035  0.1033 -0.0283  0.4343
  317MOL0     C41776  11.001   8.875  11.000  0.1512  0.3765  0.8557
  317MOL0     C41777  10.187   8.716  10.894  0.3008  0.7477 -0.3845
  317MOL0     C41778  10.049   8.673  10.898  0.1928 -0.9292 -0.4302
  317MOL0     H41779   9.731   8.313  11.153 -1.2321  0.2922  0.4687
  317MOL0     H41780   9.490   8.227  11.157  2.3538 -2.1420  1.4669
  317MOL0     H41781   9.329   8.093  10.769 -0.6669 -0.6556 -1.7567
  317MOL0     H41782   9.233   8.237  10.790  2.8099  0.0843 -0.4612
  317MOL0     H41783   9.200   7.962  10.929  1.1096  0.5939  0.4718
  317MOL0     H41784   9.099   8.017  10.798  0.2005 -1.0737  0.5859
  317MOL0     H41785   9.013   8.201  10.928 -0.5275 -1.2417 -0.8884
  317MOL0     H41786   9.117   8.140  11.068  2.7685 -1.8239 -1.2546
  317MOL0     H41787   8.891   7.990  10.920  0.4373 -0.5590  0.0948
  317MOL0     H41788   8.961   7.940  11.074  1.4003 -0.3820 -0.8476
  317MOL0     H41789   8.751   8.040  11.131  0.8592 -0.7206 -2.2549
  317MOL0     H41790   8.786   8.195  11.054  2.2421  2.1676  1.5093
  317MOL0     H41791   8.965   8.239  11.215 -1.1701  0.6965  0.1008
  317MOL0     H41792   8.938   8.083  11.293  0.4227 -1.4644 -1.5011
  317MOL0     H41793   8.739   8.326  11.267  0.2245  1.5452  2.4952
  317MOL0     H41794   8.681   8.165  11.325  0.5686 -2.1049  1.6673
  317MOL0     H41795   8.907   8.324  11.449  0.2466  0.2805  0.5224
  317MOL0     H41796   8.832   8.173  11.496 -1.1892 -0.3040 -0.3100
  317MOL0     H41797   8.507   8.271  11.459  0.7050 -0.5686  0.3719
  317MOL0     H41798   8.401   8.547  11.704  0.9428 -1.2621  2.1806
  317MOL0     H41799   8.373   8.373  11.735 -0.1168 -1.4890 -1.4643
  317MOL0     H41800   8.295   8.367  11.478  0.1208 -0.1421 -0.2440
  317MOL0     H41801   8.303   8.537  11.474 -1.9048  0.3028  0.5571
  317MOL0     H41802   8.144   8.433  11.697 -0.8070 -1.7736 -1.0802
  317MOL0     H41803   8.173   8.603  11.642 -3.5552  1.3459 -2.1041
  317MOL0     H41804   8.010   8.384  11.498  1.8852  0.6114 -0.8006
  317MOL0     H41805   8.045   8.546  11.435  0.3309  1.2544  0.7389
  317MOL0     H41806   7.843   8.571  11.342  0.6777  1.8687 -0.0247
  317MOL0     H41807   7.612   8.638  11.278 -0.2414  2.5481  0.8160
  317MOL0     H41808   7.179   8.857  11.412  0.4063 -2.3401  2.6765
  317MOL0     H41809   6.929   8.878  11.382 -2.1168 -0.3875 -1.1408
  317MOL0     H41810   6.701   8.869  11.220 -1.7827 -0.2234 -0.0315
  317MOL0     H41811   6.687   8.819  11.393 -1.7871  0.7564 -0.0959
  317MOL0     H41812   6.476   8.816  11.326  1.0371  0.6452  0.1359
  317MOL0     H41813   6.535   8.648  11.341  2.4025 -0.1143  0.2076
  317MOL0     H41814   6.556   8.630  11.087  0.9980 -0.5086  2.3891
  317MOL0     H41815   6.498   8.798  11.076 -0.3544 -1.1263 -2.1374
  317MOL0     H41816   6.348   8.547  11.173  0.3560  0.2933 -0.2043
  317MOL0     H41817   6.282   8.714  11.189 -0.7168  2.0243 -0.5257
  317MOL0     H41818   6.340   8.558  10.931 -3.3454 -1.8082 -0.1529
  317MOL0     H41819   6.320   8.732  10.936  2.6954  0.0264  1.3938
  317MOL0     H41820   6.096   8.681  11.069  0.2366  0.4667  0.2256
  317MOL0     H41821   6.117   8.517  11.013  0.6793  0.1455  1.4711
  317MOL0     H41822   6.113   8.755  10.818 -0.1685 -0.0663 -0.2352
  317MOL0     H41823   6.141   8.582  10.777  1.7681 -0.5581  1.7759
  317MOL0     H41824   5.900   8.664  10.724 -2.0825 -1.5468  0.0876
  317MOL0     H41825   5.883   8.687  10.891 -2.9463  0.6351 -2.5542
  317MOL0     H41826   6.933   8.494  11.173 -1.7198  1.5287 -3.4442
  317MOL0     H41827   7.172   8.493  11.210 -1.1442 -0.3360 -1.1898
  317MOL0     H41828   7.486   8.609  11.685 -2.9003  3.4192 -3.2393
  317MOL0     H41829   7.731   8.572  11.752 -1.5444  0.0732  1.9063
  317MOL0     H41830   9.492   8.212  10.724 -1.7885  0.2300  1.0249
  317MOL0     H41831   9.733   8.277  10.733  0.6901 -0.5120  0.1176
  317MOL0     H41832  10.110   8.349  10.974 -0.1462 -0.1659  0.1907
  317MOL0     H41833  10.330   8.415  10.947  1.2504  0.6335  0.4066
  317MOL0     H41834  10.555   8.552  10.843 -1.3970 -0.0210 -0.0145
  317MOL0     H41835  10.519   8.499  11.013  1.6422 -0.0882  0.0240
  317MOL0     H41836  10.668   8.765  10.934 -0.9117 -0.7922 -1.7569
  317MOL0     H41837  10.620   8.690  11.095  3.2172 -0.6433  1.7689
  317MOL0     H41838  10.817   8.571  10.890 -1.2547  2.0044 -0.2280
  317MOL0     H41839  10.757   8.487  11.031  0.4912 -0.4878  1.2861
  317MOL0     H41840  10.877   8.649  11.186  2.1474 -3.3443  1.2647
  317MOL0     H41841  10.978   8.564  11.079  0.8496  1.0857 -0.0659
  317MOL0     H41842  11.033   8.973  10.972 -1.1593 -0.0586 -2.6749
  317MOL0     H41843  10.213   8.819  10.869 -1.2858  0.9324 -1.4536
  317MOL0     H41844   9.971   8.748  10.891  0.4481 -0.7545 -1.5701
  318MOL0     O41845   9.820   5.772   9.276 -0.1863  0.1884 -0.2133
  318MOL0     C41846   9.901   5.772   9.185  0.9899 -0.2214  0.3002
  318MOL0     O41847   9.875   5.787   9.053 -0.0122 -0.9748  0.1039
  318MOL0     C41848   9.748   5.828   9.007 -0.0851 -0.3181  0.0390
  318MOL0     C41849   9.690   5.947   9.056 -0.7742 -0.0199  0.1261
  318MOL0     C41850   9.576   6.000   8.991  0.9181 -0.5601 -0.5764
  318MOL0     C41851   9.528   5.941   8.873 -0.8036  0.2216  1.1213
  318MOL0     O41852   9.423   6.002   8.806 -0.3895  0.7450 -0.4737
  318MOL0     C41853   9.390   5.949   8.677 -0.2632  0.5906 -0.0772
  318MOL0     C41854   9.276   5.854   8.681 -0.2972 -0.2568  0.6413
  318MOL0     C41855   9.144   5.926   8.712  0.1276 -0.1906 -0.2910
  318MOL0     C41856   9.031   5.826   8.734 -0.6495  0.1723  0.2956
  318MOL0     C41857   8.904   5.898   8.773 -0.8035 -0.2667 -0.4592
  318MOL0     C41858   8.778   5.813   8.801  0.8705  0.1177  0.0717
  318MOL0     C41859   8.732   5.730   8.670 -0.1317 -0.1522  0.2953
  318MOL0     C41860   8.646   5.612   8.715  0.3813 -0.2804 -0.5716
  318MOL0     N41861   8.500   5.649   8.716 -0.0301  0.4468  0.4514
  318MOL0     C41862   8.435   5.730   8.617 -0.3333  0.4225  0.1422
  318MOL0     C41863   8.302   5.723   8.640  0.8009  0.3040  0.2472
  318MOL0     C41864   8.199   5.785   8.551  0.4018 -0.7286  0.0650
  318MOL0     C41865   8.102   5.885   8.620  0.1752  0.4916  0.1201
  318MOL0     C41866   8.143   6.027   8.594  0.2317 -0.0056  0.3932
  318MOL0     C41867   8.279   6.061   8.663 -0.1152 -0.2251 -0.2217
  318MOL0     O41868   8.249   6.093   8.805  0.1562  0.4776 -0.2049
  318MOL0     C41869   8.359   6.116   8.881 -0.3815  0.2662  0.4610
  318MOL0     C41870   8.414   5.998   8.940 -0.7585 -0.0959 -0.6505
  318MOL0     C41871   8.536   6.010   9.013  0.3969 -0.8658 -0.4498
  318MOL0     C41872   8.594   6.136   9.030 -0.6250  0.4569  0.5738
  318MOL0     C41873   8.719   6.156   9.112  0.3091  0.5175 -0.0090
  318MOL0     O41874   8.792   6.042   9.146 -0.3965 -0.2477  0.1270
  318MOL0     C41875   8.909   6.059   9.221 -0.0826  0.5139 -0.0896
  318MOL0     C41876   9.035   6.062   9.157  0.3493 -0.3713  0.4813
  318MOL0     C41877   9.149   6.071   9.234  0.4744  0.0819  0.5016
  318MOL0     C41878   9.143   6.081   9.370 -0.1892 -0.3717 -0.5984
  318MOL0     O41879   9.249   6.096   9.459  0.0962 -0.1988  0.8844
  318MOL0     C41880   9.367   6.033   9.410  1.0026 -0.0506  0.0699
  318MOL0     C41881   9.470   6.046   9.521  0.3221  0.7723  0.3574
  318MOL0     C41882   9.606   5.982   9.479  0.0339 -0.1807  0.5701
  318MOL0     C41883   9.717   6.037   9.561 -0.6498 -0.8835 -1.0305
  318MOL0     C41884   9.840   5.949   9.548 -0.2881 -0.2055  0.1724
  318MOL0     C41885   9.945   6.003   9.636 -0.7049  0.4686  0.2776
  318MOL0     C41886  10.068   5.911   9.636  0.2223 -0.5707  1.4095
  318MOL0     C41887  10.192   5.963   9.715  0.1961 -0.2394  0.0576
  318MOL0    Cl41888  10.316   5.841   9.709 -0.2841  0.2692 -0.0233
  318MOL0     C41889   9.023   6.081   9.431  0.5398 -0.9189 -0.1381
  318MOL0     C41890   8.910   6.064   9.361  0.7274 -0.3737 -1.0113
  318MOL0     O41891   8.745   6.265   9.160  0.0794 -0.7554  0.5280
  318MOL0     C41892   8.540   6.246   8.964  0.1761 -0.4559  0.1762
  318MOL0     C41893   8.423   6.236   8.888  0.4466 -0.0777 -0.1610
  318MOL0     N41894   8.289   5.655   8.762  0.0748  0.2140  0.3058
  318MOL0     N41895   8.405   5.617   8.804 -0.5400 -0.5671  0.2491
  318MOL0     C41896   9.584   5.821   8.823 -0.8028 -0.3967 -0.7175
  318MOL0     C41897   9.691   5.767   8.897 -0.5566 -0.5380  0.4261
  318MOL0     C41898  10.036   5.744   9.229 -0.7533  1.0513 -0.0582
  318MOL0     C41899  10.144   5.752   9.130  0.3668 -0.5398 -0.7265
  318MOL0     C41900  10.278   5.716   9.158 -0.2600  0.4555  0.3714
  318MOL0     C41901  10.315   5.699   9.289  0.9380 -0.6874 -0.5567
  318MOL0     O41902  10.449   5.671   9.301  0.3573  0.0852 -0.3766
  318MOL0     C41903  10.497   5.640   9.429 -0.9706  0.3280 -0.9278
  318MOL0     C41904  10.649   5.673   9.439  0.0239  0.8092 -0.1052
  318MOL0     C41905  10.703   5.606   9.565  0.3572 -0.3364  0.0562
  318MOL0     C41906  10.855   5.615   9.585 -0.0319  0.8191  0.5163
  318MOL0     C41907  10.901   5.748   9.610  0.6027  0.5469 -0.0245
  318MOL0     C41908  10.938   5.861   9.629  0.2743 -0.0184  0.1962
  318MOL0     C41909  10.218   5.684   9.389  0.2000  0.5523 -1.0996
  318MOL0     C41910  10.076   5.698   9.359  0.8783 -1.7456  0.7461
  318MOL0     H41911   9.740   6.004   9.133 -1.3021  0.0431  0.4326
  318MOL0     H41912   9.526   6.087   9.033  2.5496 -0.7179  1.9235
  318MOL0     H41913   9.476   5.913   8.619 -1.6769 -0.2934 -1.7156
  318MOL0     H41914   9.354   6.037   8.623  0.9501  1.1908  0.0434
  318MOL0     H41915   9.290   5.768   8.747  2.7488  1.2503  2.1723
  318MOL0     H41916   9.269   5.811   8.581  5.1055 -0.9547  0.2399
  318MOL0     H41917   9.121   5.990   8.626 -0.8947 -1.4095 -0.9643
  318MOL0     H41918   9.146   5.993   8.799  0.5203 -2.3695  1.4473
  318MOL0     H41919   9.012   5.774   8.639  4.5762  0.4936 -1.2097
  318MOL0     H41920   9.051   5.758   8.817 -3.1669  0.4019  1.1645
  318MOL0     H41921   8.879   5.972   8.696 -0.7600  1.1656  0.8639
  318MOL0     H41922   8.922   5.945   8.870  0.4180 -1.6857  0.0463
  318MOL0     H41923   8.693   5.877   8.825  1.0730  1.4495 -2.4588
  318MOL0     H41924   8.801   5.755   8.891  0.4942  2.0710  1.4681
  318MOL0     H41925   8.679   5.791   8.596 -1.8373  0.0154  1.5924
  318MOL0     H41926   8.818   5.686   8.618  2.0876 -0.0977  3.6187
  318MOL0     H41927   8.668   5.569   8.813 -0.5275  1.2064  0.3263
  318MOL0     H41928   8.664   5.532   8.643 -0.7722 -0.5860 -0.5450
  318MOL0     H41929   8.482   5.771   8.528 -2.3090 -0.3785 -1.3565
  318MOL0     H41930   8.135   5.702   8.518  1.3364 -0.7829 -1.7616
  318MOL0     H41931   8.248   5.823   8.461  0.9266 -0.9152  0.2715
  318MOL0     H41932   8.098   5.869   8.728  0.9494  2.0806  0.4138
  318MOL0     H41933   8.002   5.869   8.578 -0.2749  1.5235  0.7771
  318MOL0     H41934   8.142   6.050   8.487 -2.5722  1.9317  0.7381
  318MOL0     H41935   8.066   6.091   8.639 -0.1677  0.8637 -1.4188
  318MOL0     H41936   8.325   6.150   8.621 -0.0301 -0.7866 -1.3564
  318MOL0     H41937   8.359   5.988   8.648  1.5308  1.1787  1.3028
  318MOL0     H41938   8.364   5.903   8.924 -0.2844 -0.1973 -1.6301
  318MOL0     H41939   8.589   5.932   9.066  1.1876 -1.9947 -2.7548
  318MOL0     H41940   9.041   6.059   9.049 -0.5789 -1.0098  0.4377
  318MOL0     H41941   9.244   6.065   9.182 -0.6329  2.1851 -2.0133
  318MOL0     H41942   9.415   6.088   9.328  0.2391  1.2756  0.4754
  318MOL0     H41943   9.355   5.929   9.380  0.9574  0.0717 -0.3522
  318MOL0     H41944   9.423   6.001   9.610 -4.1818  1.2850 -1.5210
  318MOL0     H41945   9.489   6.150   9.549  0.1615  0.4799  1.6641
  318MOL0     H41946   9.625   6.006   9.374 -2.5985 -1.4490 -0.2720
  318MOL0     H41947   9.613   5.873   9.488 -2.0223 -0.3492  0.4768
  318MOL0     H41948   9.725   6.143   9.533 -0.1543  0.0588  2.2020
  318MOL0     H41949   9.683   6.036   9.665 -0.2383 -1.0232 -0.8957
  318MOL0     H41950   9.877   5.947   9.445  0.0983 -1.3201  0.3197
  318MOL0     H41951   9.820   5.855   9.601  0.4968  0.5699  1.8928
  318MOL0     H41952   9.922   6.014   9.742  0.3779 -0.3054  0.6204
  318MOL0     H41953   9.965   6.104   9.600 -0.5121  0.8644  1.4776
  318MOL0     H41954  10.042   5.811   9.672  0.2778 -0.8016  0.8186
  318MOL0     H41955  10.098   5.889   9.534  0.1414  2.6172  0.5889
  318MOL0     H41956  10.163   5.987   9.818 -0.2878 -0.1207 -0.1003
  318MOL0     H41957  10.234   6.054   9.671  1.5433 -1.3721 -1.1027
  318MOL0     H41958   9.010   6.088   9.538  2.9158  0.5115  0.1226
  318MOL0     H41959   8.814   6.059   9.412  1.4478 -2.4450  0.2496
  318MOL0     H41960   8.578   6.347   8.971 -0.7358 -0.2027  2.0328
  318MOL0     H41961   8.379   6.327   8.849  1.9182  1.8087  2.2993
  318MOL0     H41962   9.556   5.765   8.735  2.1695  1.8057 -3.3118
  318MOL0     H41963   9.735   5.672   8.866 -2.1315 -1.1110 -0.1284
  318MOL0     H41964  10.112   5.768   9.027 -2.3018 -0.4182  0.0499
  318MOL0     H41965  10.352   5.715   9.079  1.0291 -0.0257  1.5270
  318MOL0     H41966  10.494   5.534   9.453  2.2857  0.2773 -0.2910
  318MOL0     H41967  10.448   5.703   9.504  0.1213  1.0825 -0.8108
  318MOL0     H41968  10.700   5.630   9.352  1.7290  0.3103  1.0968
  318MOL0     H41969  10.667   5.780   9.443 -0.5372  0.8802  1.4763
  318MOL0     H41970  10.682   5.498   9.565  1.9468 -0.6692  0.7830
  318MOL0     H41971  10.660   5.647   9.657  0.7818  2.3567 -0.8670
  318MOL0     H41972  10.904   5.550   9.659  1.5966  1.7614  0.3229
  318MOL0     H41973  10.899   5.594   9.487 -0.5309  2.0252  0.0297
  318MOL0     H41974  10.963   5.964   9.644  1.3906 -0.3440  0.6249
  318MOL0     H41975  10.242   5.653   9.491 -2.0492  1.6319 -0.1837
  318MOL0     H41976  10.005   5.686   9.440 -1.5965 -1.5954 -1.2994
  319MOL0     O41977  10.864   1.525   7.454 -0.1703  0.1950 -0.4284
  319MOL0     C41978  10.902   1.551   7.346 -0.2343  0.3629 -0.0169
  319MOL0     O41979  10.849   1.652   7.260 -0.1614 -0.4026 -0.3877
  319MOL0     C41980  10.725   1.707   7.277  0.2024  0.0144  0.1119
  319MOL0     C41981  10.672   1.744   7.400 -0.0238 -0.2316  0.5122
  319MOL0     C41982  10.536   1.792   7.412  0.4358  1.2760 -0.0807
  319MOL0     C41983  10.449   1.788   7.310 -0.1794  0.1828 -0.2166
  319MOL0     O41984  10.316   1.835   7.309 -0.0273  0.3725 -0.4437
  319MOL0     C41985  10.252   1.899   7.421 -0.0707  0.3381  0.6990
  319MOL0     C41986  10.214   1.790   7.529 -0.5038  0.1756 -0.0656
  319MOL0     C41987  10.073   1.725   7.495 -0.1081  0.0189  0.0176
  319MOL0     C41988  10.059   1.600   7.584  0.3325  0.1696 -0.9132
  319MOL0     C41989   9.934   1.515   7.563 -0.1065  0.1812  0.0892
  319MOL0     C41990   9.919   1.407   7.680  0.6252 -0.1359  0.7092
  319MOL0     C41991   9.797   1.318   7.672  0.2678 -0.1589 -0.3085
  319MOL0     C41992   9.779   1.254   7.814  0.2019 -0.4375  0.4313
  319MOL0     N41993   9.674   1.147   7.809 -1.1780  0.0652 -0.4409
  319MOL0     C41994   9.692   1.020   7.772 -0.1705 -0.5901  0.1561
  319MOL0     C41995   9.565   0.968   7.783  0.0149  0.9854  0.1030
  319MOL0     C41996   9.535   0.827   7.736 -0.1189  0.0184 -0.3705
  319MOL0     C41997   9.477   0.755   7.853 -0.3952 -0.0753  0.1563
  319MOL0     C41998   9.441   0.609   7.828  0.2957 -0.6826  0.2919
  319MOL0     C41999   9.299   0.599   7.794  0.9195  0.6867  0.2424
  319MOL0     O42000   9.260   0.463   7.754 -0.1730 -0.4441  0.2742
  319MOL0     C42001   9.140   0.441   7.689  1.1182  0.1718 -0.2526
  319MOL0     C42002   9.058   0.537   7.643  1.1601  0.4483  0.9206
  319MOL0     C42003   8.926   0.509   7.607 -0.0672 -0.1520 -0.1887
  319MOL0     C42004   8.880   0.373   7.603 -0.5328  1.0587  0.0143
  319MOL0     C42005   8.742   0.341   7.572 -0.5988  0.4237 -0.4076
  319MOL0     O42006   8.708   0.207   7.584 -0.0177 -0.3398 -0.4566
  319MOL0     C42007   8.591   0.167   7.536 -0.5099  0.6578 -0.2338
  319MOL0     C42008   8.589   0.065   7.449  0.3726  0.0330  0.1595
  319MOL0     C42009   8.462   0.004   7.410 -0.0854 -0.9337  0.4468
  319MOL0     C42010   8.349   0.072   7.447  0.3639  0.3068  0.4578
  319MOL0     O42011   8.224   0.048   7.398  0.5835 -0.0810 -0.2180
  319MOL0     C42012   8.226  -0.042   7.276  1.0323  0.7154  0.2433
  319MOL0     C42013   8.085  -0.078   7.235  0.2260 -1.3394 -0.2576
  319MOL0     C42014   8.075  -0.177   7.123  0.0090 -0.2206  0.9312
  319MOL0     C42015   7.934  -0.176   7.059 -1.1075 -0.0006 -0.3321
  319MOL0     C42016   7.923  -0.302   6.961 -0.4214 -0.7328 -0.0299
  319MOL0     C42017   7.780  -0.333   6.924 -0.0826 -0.6751 -0.1971
  319MOL0     C42018   7.722  -0.261   6.796 -0.1656  0.7703 -1.1162
  319MOL0     C42019   7.579  -0.322   6.782  0.6437  0.5408  0.2296
  319MOL0    Cl42020   7.504  -0.259   6.623  0.2442 -0.0392  0.1406
  319MOL0     C42021   8.356   0.170   7.539  0.0327 -0.1753  0.0179
  319MOL0     C42022   8.471   0.217   7.588  0.1972  0.0400  0.2473
  319MOL0     O42023   8.668   0.430   7.536 -0.1149 -0.4521  0.5598
  319MOL0     C42024   8.977   0.265   7.621  0.0304 -0.3059 -0.6702
  319MOL0     C42025   9.106   0.307   7.676  0.3960  0.3513  0.5265
  319MOL0     N42026   9.474   1.057   7.822  0.6472 -0.3271  0.1554
  319MOL0     N42027   9.544   1.165   7.838  0.5159  0.1347 -0.7382
  319MOL0     C42028  10.501   1.762   7.184  0.5485  0.0901 -0.7686
  319MOL0     C42029  10.633   1.723   7.168 -0.1277  0.0743  0.6214
  319MOL0     C42030  11.014   1.464   7.298  1.0165 -1.0792  0.2228
  319MOL0     C42031  11.047   1.346   7.355 -0.1665 -0.2219 -0.1316
  319MOL0     C42032  11.153   1.268   7.308  0.2344 -0.1741 -0.2954
  319MOL0     C42033  11.228   1.314   7.206  0.2446  0.1668  0.1323
  319MOL0     O42034  11.330   1.235   7.162 -0.6269  0.4295 -0.2593
  319MOL0     C42035  11.366   1.253   7.024 -0.6867  0.0943  0.0198
  319MOL0     C42036  11.446   1.129   6.983 -0.4728  0.2498  0.6817
  319MOL0     C42037  11.360   1.006   6.973 -0.4684 -0.2187  0.0902
  319MOL0     C42038  11.456   0.886   6.980  0.0708 -0.2824 -0.5697
  319MOL0     C42039  11.568   0.889   6.884 -0.2327 -0.3049  0.5655
  319MOL0     C42040  11.665   0.896   6.803  0.0944  0.0388 -0.0439
  319MOL0     C42041  11.195   1.430   7.142 -1.2790 -0.3603 -1.1569
  319MOL0     C42042  11.091   1.508   7.187  0.1360  0.2649  0.8330
  319MOL0     H42043  10.733   1.735   7.490 -2.1112 -0.1689  2.0166
  319MOL0     H42044  10.511   1.820   7.513  0.5275  0.6866  0.1079
  319MOL0     H42045  10.167   1.958   7.385  1.6560  2.2426 -0.5104
  319MOL0     H42046  10.326   1.964   7.467  1.4423 -1.6924  1.2612
  319MOL0     H42047  10.207   1.845   7.624  1.3951  2.6513 -1.2336
  319MOL0     H42048  10.282   1.706   7.539 -0.0803  0.4643 -0.4609
  319MOL0     H42049  10.065   1.709   7.387  2.2445  0.0503 -0.2050
  319MOL0     H42050   9.991   1.795   7.516  0.4113  0.1235  1.9049
  319MOL0     H42051  10.145   1.535   7.570  0.8415  0.5339  0.4458
  319MOL0     H42052  10.063   1.636   7.687 -0.1621 -0.5485 -0.6359
  319MOL0     H42053   9.941   1.471   7.463  2.2915 -1.2822  0.8019
  319MOL0     H42054   9.846   1.580   7.559  0.7953  1.3735 -1.6589
  319MOL0     H42055   9.911   1.461   7.775  1.6947 -1.0100  1.3155
  319MOL0     H42056  10.006   1.341   7.685  0.1254 -0.9205 -0.3613
  319MOL0     H42057   9.711   1.381   7.648  1.0166  1.4729  1.0648
  319MOL0     H42058   9.808   1.240   7.596  0.1789  0.3500 -0.8521
  319MOL0     H42059   9.734   1.316   7.892  0.2173 -0.1681  0.2257
  319MOL0     H42060   9.877   1.213   7.840  0.0476 -2.3773 -1.7137
  319MOL0     H42061   9.787   0.971   7.756 -0.3044 -0.9807  0.5555
  319MOL0     H42062   9.634   0.784   7.719  1.6015  2.2980  2.8787
  319MOL0     H42063   9.468   0.833   7.649 -0.6999 -0.0747  0.0626
  319MOL0     H42064   9.394   0.813   7.894 -0.8959 -1.3075  0.9430
  319MOL0     H42065   9.559   0.750   7.924 -0.0805 -1.6097 -0.2883
  319MOL0     H42066   9.498   0.561   7.749 -0.1324 -1.3375  0.3746
  319MOL0     H42067   9.449   0.554   7.922 -1.4099  2.1036  2.2231
  319MOL0     H42068   9.286   0.655   7.701 -0.4005 -0.2383 -0.1719
  319MOL0     H42069   9.238   0.631   7.878  1.3840  0.1796  0.7842
  319MOL0     H42070   9.090   0.640   7.643  1.2862  0.5830 -3.1424
  319MOL0     H42071   8.860   0.594   7.591 -2.5675 -1.4920  2.1504
  319MOL0     H42072   8.682   0.030   7.405  0.6892  2.4724 -1.3409
  319MOL0     H42073   8.450  -0.078   7.341 -3.2633  1.3009 -2.0037
  319MOL0     H42074   8.262  -0.141   7.305  1.4585  0.9423  0.4917
  319MOL0     H42075   8.277   0.003   7.190 -1.3223  0.2186 -1.5361
  319MOL0     H42076   8.030   0.013   7.209 -1.4244 -2.1700  0.1883
  319MOL0     H42077   8.027  -0.123   7.317 -2.9672  2.0811 -0.3466
  319MOL0     H42078   8.100  -0.278   7.157  0.0468 -1.1065 -1.5447
  319MOL0     H42079   8.145  -0.143   7.046 -0.7308 -1.2777 -0.2243
  319MOL0     H42080   7.861  -0.176   7.141 -2.2959  2.5088 -1.3007
  319MOL0     H42081   7.921  -0.084   7.002  0.8130  0.2246 -0.4746
  319MOL0     H42082   7.977  -0.384   7.009 -1.6671 -2.6042 -1.6274
  319MOL0     H42083   7.976  -0.282   6.867  0.6555  1.7818  1.0312
  319MOL0     H42084   7.713  -0.310   7.007  1.2760  2.6810  0.1409
  319MOL0     H42085   7.773  -0.441   6.912  0.6022 -0.8570  0.9210
  319MOL0     H42086   7.713  -0.156   6.827 -2.8955  0.9170 -2.0821
  319MOL0     H42087   7.787  -0.273   6.709 -1.7229 -0.7679 -2.1279
  319MOL0     H42088   7.524  -0.295   6.873  0.4636  1.4914 -0.1506
  319MOL0     H42089   7.588  -0.431   6.774 -1.8142  0.2936 -0.0388
  319MOL0     H42090   8.271   0.228   7.574 -0.7133 -0.9889 -0.4322
  319MOL0     H42091   8.477   0.300   7.658  2.4931  0.9484 -0.9096
  319MOL0     H42092   8.958   0.160   7.605  1.6748 -0.6216 -0.7812
  319MOL0     H42093   9.188   0.241   7.702  0.3682 -0.2568 -0.8250
  319MOL0     H42094  10.432   1.769   7.101  0.9128  0.0930 -1.0740
  319MOL0     H42095  10.646   1.691   7.066 -2.1335  0.3622  0.2254
  319MOL0     H42096  10.984   1.302   7.432  1.8882  1.3690  2.6971
  319MOL0     H42097  11.189   1.179   7.359 -0.1270 -0.7502 -1.0347
  319MOL0     H42098  11.428   1.342   7.011  0.6357 -0.7981  0.0048
  319MOL0     H42099  11.278   1.265   6.961 -1.1361 -0.0461  0.6138
  319MOL0     H42100  11.479   1.150   6.880 -0.6037 -2.4882  0.0077
  319MOL0     H42101  11.523   1.115   7.059 -0.3649  0.6041  0.6404
  319MOL0     H42102  11.319   0.996   6.872  0.7028 -1.5145 -0.2980
  319MOL0     H42103  11.292   1.001   7.058 -0.0142  1.6126  0.6095
  319MOL0     H42104  11.496   0.879   7.082  0.3815 -1.4682 -0.7641
  319MOL0     H42105  11.402   0.794   6.954  0.8017 -0.2701 -2.2078
  319MOL0     H42106  11.761   0.882   6.757 -0.3749  0.6103 -1.2410
  319MOL0     H42107  11.255   1.473   7.062 -3.0067  2.6889 -0.9679
  319MOL0     H42108  11.082   1.601   7.131 -1.0387 -1.5175 -2.2090
  320MOL0     O42109   0.869   2.063   3.635  0.3733 -0.0785 -0.7326
  320MOL0     C42110   0.770   2.106   3.575  0.9877 -0.1333  0.3430
  320MOL0     O42111   0.767   2.210   3.487 -0.0657  0.0531 -0.0268
  320MOL0     C42112   0.897   2.239   3.454  0.7006 -0.7470  0.8336
  320MOL0     C42113   0.967   2.335   3.527 -0.7297  0.5868 -0.6339
  320MOL0     C42114   1.099   2.365   3.495  0.2575 -0.7803  0.2137
  320MOL0     C42115   1.154   2.313   3.385 -0.0666 -0.7250 -0.0996
  320MOL0     O42116   1.279   2.353   3.350  0.5554  0.5666  0.5185
  320MOL0     C42117   1.364   2.248   3.294 -1.4957 -0.9703 -0.2807
  320MOL0     C42118   1.499   2.243   3.359 -0.4702 -0.7621 -0.1063
  320MOL0     C42119   1.595   2.357   3.336 -0.0245  0.0935 -0.7747
  320MOL0     C42120   1.719   2.354   3.442 -0.4334 -0.1348  0.1777
  320MOL0     C42121   1.810   2.235   3.409  0.8292 -0.3355 -0.0366
  320MOL0     C42122   1.939   2.255   3.482 -0.5965 -0.4512 -0.3534
  320MOL0     C42123   2.039   2.144   3.459 -0.4044  0.4848  0.1824
  320MOL0     C42124   2.089   2.129   3.311 -0.3681  0.1593 -0.1695
  320MOL0     N42125   2.215   2.051   3.299 -0.1800 -0.4314  0.4444
  320MOL0     C42126   2.335   2.121   3.293  0.2496 -0.6559 -0.2443
  320MOL0     C42127   2.430   2.023   3.310 -0.0931 -0.4452 -0.0291
  320MOL0     C42128   2.575   2.054   3.323  0.0809 -0.6583 -0.2433
  320MOL0     C42129   2.659   2.050   3.195  0.6766 -0.3361  0.5484
  320MOL0     C42130   2.738   1.918   3.176 -0.2502 -0.9059 -0.8835
  320MOL0     C42131   2.665   1.788   3.151  0.5506 -0.0435 -0.3863
  320MOL0     O42132   2.741   1.668   3.118 -0.1922  0.0761  0.2468
  320MOL0     C42133   2.680   1.551   3.090 -0.2278  0.2225  0.9212
  320MOL0     C42134   2.548   1.533   3.115  0.7678  0.5087  0.9026
  320MOL0     C42135   2.482   1.414   3.064  0.4809 -0.1267 -0.0990
  320MOL0     C42136   2.562   1.313   2.998 -0.1437  0.7798 -1.1032
  320MOL0     C42137   2.501   1.190   2.939 -0.2343 -0.0560 -1.1665
  320MOL0     O42138   2.583   1.100   2.875  0.2279  0.5508  0.2512
  320MOL0     C42139   2.533   1.009   2.780  0.3555  0.1628 -0.2815
  320MOL0     C42140   2.580   1.018   2.659 -0.1199  0.3433  0.1577
  320MOL0     C42141   2.541   0.934   2.559 -0.3498  0.0463  0.3137
  320MOL0     C42142   2.445   0.834   2.581  0.9592  0.2988 -0.1595
  320MOL0     O42143   2.400   0.735   2.496 -0.2915 -0.2736 -0.5645
  320MOL0     C42144   2.410   0.777   2.356  0.6046  0.2332  0.0851
  320MOL0     C42145   2.342   0.677   2.266  0.1206  1.5434 -0.8489
  320MOL0     C42146   2.410   0.533   2.264  0.9734  0.2312  0.2760
  320MOL0     C42147   2.319   0.449   2.188  0.2565  0.5349 -0.6386
  320MOL0     C42148   2.389   0.314   2.158 -0.0105  0.0477 -0.2604
  320MOL0     C42149   2.514   0.310   2.069  0.1154  0.1649 -0.2566
  320MOL0     C42150   2.567   0.172   2.034 -0.0307 -0.3730  0.3763
  320MOL0     C42151   2.561   0.138   1.887  1.0216  0.7632 -1.1370
  320MOL0    Cl42152   2.394   0.111   1.833 -0.4945 -0.3116  0.1054
  320MOL0     C42153   2.386   0.822   2.711 -0.1750 -0.9051  0.4892
  320MOL0     C42154   2.430   0.913   2.805  0.2235 -0.6558  0.3829
  320MOL0     O42155   2.376   1.180   2.947  0.0719  0.5445  0.4229
  320MOL0     C42156   2.695   1.335   2.977  0.5031 -0.2713 -0.6443
  320MOL0     C42157   2.754   1.456   3.030 -0.3794  0.0043  0.0427
  320MOL0     N42158   2.363   1.905   3.339 -0.3467  0.2627 -0.2716
  320MOL0     N42159   2.234   1.925   3.339 -0.2034  0.1072 -0.3851
  320MOL0     C42160   1.090   2.220   3.311  0.2605  0.2393 -0.1377
  320MOL0     C42161   0.962   2.177   3.341  0.8326 -0.4873 -0.3803
  320MOL0     C42162   0.637   2.036   3.596  0.2804 -0.2251 -0.6482
  320MOL0     C42163   0.527   2.045   3.506  1.5198 -0.2713  0.1614
  320MOL0     C42164   0.397   1.998   3.538  0.4152 -0.1798  0.4681
  320MOL0     C42165   0.382   1.928   3.658 -0.4675  0.4740  0.5516
  320MOL0     O42166   0.255   1.887   3.704 -0.4441  0.2433 -0.1228
  320MOL0     C42167   0.134   1.905   3.632  0.1454  0.4097 -0.0458
  320MOL0     C42168   0.012   1.845   3.696  0.5961 -0.2053 -0.3499
  320MOL0     C42169   0.026   1.689   3.724 -0.5114  0.7447  0.1860
  320MOL0     C42170  -0.107   1.632   3.776  1.0668 -0.8158 -0.1057
  320MOL0     C42171  -0.107   1.487   3.798  0.6918 -0.4685  0.6938
  320MOL0     C42172  -0.103   1.368   3.818 -0.4707  0.3776 -0.4622
  320MOL0     C42173   0.495   1.906   3.740  0.1555 -0.7544  0.7331
  320MOL0     C42174   0.615   1.957   3.714  0.2192 -0.2742 -0.1901
  320MOL0     H42175   0.928   2.390   3.612  0.0653 -0.0116  0.1343
  320MOL0     H42176   1.161   2.440   3.544  1.3583 -0.6561 -1.2925
  320MOL0     H42177   1.366   2.285   3.191 -6.0483  1.9229  0.3587
  320MOL0     H42178   1.326   2.146   3.304 -0.8868 -1.4226 -2.0900
  320MOL0     H42179   1.547   2.152   3.321  0.4436 -0.1623 -0.4495
  320MOL0     H42180   1.477   2.241   3.466 -0.7936  3.0362  0.0374
  320MOL0     H42181   1.534   2.448   3.330 -1.7761 -1.0925 -5.3701
  320MOL0     H42182   1.632   2.357   3.233 -0.8830 -2.1254 -1.1233
  320MOL0     H42183   1.769   2.450   3.429 -0.8162  0.0439  0.0201
  320MOL0     H42184   1.678   2.354   3.544 -0.2456  0.0594  0.2546
  320MOL0     H42185   1.827   2.240   3.301 -0.3356  0.0514 -0.2262
  320MOL0     H42186   1.765   2.141   3.444  0.6705 -1.6661 -3.4720
  320MOL0     H42187   1.916   2.262   3.589  0.3450 -1.4346 -0.0616
  320MOL0     H42188   1.985   2.352   3.460 -1.3044  0.2742  1.2085
  320MOL0     H42189   2.119   2.167   3.530 -0.0999  0.1246 -0.0345
  320MOL0     H42190   1.984   2.055   3.491  1.5545 -0.6564  0.5476
  320MOL0     H42191   2.106   2.232   3.280 -1.2968  0.0723 -1.0036
  320MOL0     H42192   2.015   2.075   3.251  0.6340 -0.0025 -1.2965
  320MOL0     H42193   2.339   2.229   3.281  0.8522 -0.7889 -1.3048
  320MOL0     H42194   2.628   1.985   3.389  0.9074 -2.0839 -2.2797
  320MOL0     H42195   2.579   2.154   3.368  0.0866 -0.9338  0.3755
  320MOL0     H42196   2.742   2.122   3.202 -0.4366  0.8738  2.4113
  320MOL0     H42197   2.595   2.065   3.108 -1.1182 -2.3746  1.4214
  320MOL0     H42198   2.813   1.939   3.099 -0.1119  1.4801 -0.1838
  320MOL0     H42199   2.801   1.912   3.265 -1.7134 -1.5885  0.1527
  320MOL0     H42200   2.587   1.806   3.076 -1.4540  0.5095  1.7176
  320MOL0     H42201   2.620   1.765   3.248  1.5612  0.4584  0.2153
  320MOL0     H42202   2.484   1.610   3.157 -0.7469  0.2584 -0.7979
  320MOL0     H42203   2.377   1.394   3.083  0.7683 -1.5913  0.0679
  320MOL0     H42204   2.665   1.084   2.649 -0.0051 -0.0157 -1.5262
  320MOL0     H42205   2.608   0.933   2.473 -1.2839 -0.7856 -0.4323
  320MOL0     H42206   2.509   0.789   2.310 -0.4619 -0.9218 -2.8008
  320MOL0     H42207   2.346   0.864   2.340 -2.1493 -1.6724 -0.0846
  320MOL0     H42208   2.349   0.720   2.165  1.5771  1.5134 -0.7735
  320MOL0     H42209   2.237   0.664   2.294  0.7447 -0.3293  0.8687
  320MOL0     H42210   2.425   0.494   2.366 -0.5893 -1.4051 -0.0611
  320MOL0     H42211   2.504   0.539   2.210 -0.0782 -0.2527 -1.6951
  320MOL0     H42212   2.233   0.428   2.252 -1.5663  1.8559 -2.5199
  320MOL0     H42213   2.274   0.496   2.101 -1.8135 -1.0704 -0.5108
  320MOL0     H42214   2.311   0.251   2.114 -2.0091  2.6136 -0.6120
  320MOL0     H42215   2.427   0.271   2.251 -0.9081 -0.0481  0.0688
  320MOL0     H42216   2.595   0.368   2.114 -0.1295  0.4759 -0.2160
  320MOL0     H42217   2.488   0.356   1.973 -1.0626  1.0391  0.4482
  320MOL0     H42218   2.673   0.168   2.062  0.5489 -2.6267 -1.7708
  320MOL0     H42219   2.509   0.097   2.089 -0.6876  0.2038  0.4806
  320MOL0     H42220   2.635   0.058   1.875 -0.2486 -0.6515  0.0155
  320MOL0     H42221   2.592   0.227   1.833  3.9753 -1.3830 -3.3009
  320MOL0     H42222   2.318   0.743   2.742 -0.8115 -0.8853 -0.7770
  320MOL0     H42223   2.381   0.907   2.902 -1.2077 -2.3343 -0.4022
  320MOL0     H42224   2.767   1.268   2.931  1.4624  1.9182 -2.4845
  320MOL0     H42225   2.859   1.473   3.007 -0.6565  1.7701 -0.0951
  320MOL0     H42226   1.143   2.179   3.226  0.9548  3.6706 -1.5347
  320MOL0     H42227   0.915   2.096   3.285 -1.8444 -0.1601  1.2182
  320MOL0     H42228   0.548   2.094   3.411  0.3235 -1.6624 -0.8546
  320MOL0     H42229   0.313   2.015   3.471 -0.6874 -0.4492  1.7415
  320MOL0     H42230   0.139   1.851   3.536  2.1291 -0.6167  0.5945
  320MOL0     H42231   0.131   2.012   3.614  0.2664  0.3880 -0.1962
  320MOL0     H42232  -0.012   1.894   3.791 -0.4998  1.6599 -1.5315
  320MOL0     H42233  -0.074   1.874   3.636  0.3065  2.8126  1.3428
  320MOL0     H42234   0.095   1.691   3.809  0.0541  1.8500 -0.2849
  320MOL0     H42235   0.074   1.627   3.649 -1.3936 -2.5662  2.1544
  320MOL0     H42236  -0.143   1.684   3.865  0.0409 -1.7399  0.0425
  320MOL0     H42237  -0.178   1.661   3.698  0.9930  1.6641  0.7820
  320MOL0     H42238  -0.106   1.266   3.848 -0.4758  0.6124  0.3686
  320MOL0     H42239   0.478   1.859   3.836  0.6824  3.1703  2.9468
  320MOL0     H42240   0.689   1.954   3.794  2.5535  0.6887 -2.1847
  321MOL0     O42241   6.423   5.534   8.223 -0.2222  0.2778 -0.3019
  321MOL0     C42242   6.373   5.509   8.116  0.7487 -0.2782  0.2827
  321MOL0     O42243   6.237   5.492   8.100  0.4858 -0.3840 -1.1409
  321MOL0     C42244   6.165   5.483   8.214  0.8958  0.0608  0.2106
  321MOL0     C42245   6.155   5.348   8.271  0.2755 -0.5875  0.0227
  321MOL0     C42246   6.084   5.324   8.381  0.0025  0.0190  0.4194
  321MOL0     C42247   6.016   5.420   8.442  0.2881  0.5189 -0.7092
  321MOL0     O42248   5.951   5.387   8.559 -0.3614 -0.2017  0.2439
  321MOL0     C42249   5.861   5.488   8.621  0.0616  1.1346  0.0158
  321MOL0     C42250   5.755   5.429   8.717 -0.2480  0.0345 -0.1696
  321MOL0     C42251   5.812   5.305   8.789  0.0329 -0.2195 -0.1167
  321MOL0     C42252   5.706   5.240   8.880  0.9215 -0.3102 -0.1471
  321MOL0     C42253   5.762   5.139   8.983  0.0196 -0.6006  0.5717
  321MOL0     C42254   5.659   5.102   9.087 -0.4368 -0.3032 -0.1894
  321MOL0     C42255   5.717   5.017   9.194  0.5129 -0.1470  0.0270
  321MOL0     C42256   5.605   4.982   9.286 -0.0743  0.2187  0.8266
  321MOL0     N42257   5.656   4.898   9.396 -0.6417 -0.4209  0.1787
  321MOL0     C42258   5.752   4.955   9.480  0.6022  0.3743 -1.1779
  321MOL0     C42259   5.813   4.846   9.524 -1.1821  0.0778 -0.3002
  321MOL0     C42260   5.928   4.847   9.623  0.5379  0.6640  0.2183
  321MOL0     C42261   6.070   4.860   9.557  0.2191 -0.0688  0.2314
  321MOL0     C42262   6.184   4.832   9.657 -0.7378 -0.3255 -1.0091
  321MOL0     C42263   6.317   4.850   9.585  0.6373  0.2793 -0.1165
  321MOL0     O42264   6.357   4.988   9.570  0.4119  0.4122 -0.4406
  321MOL0     C42265   6.478   5.011   9.500  0.1062  0.6845  0.2420
  321MOL0     C42266   6.533   5.142   9.504 -0.2972 -0.9068 -0.3068
  321MOL0     C42267   6.648   5.187   9.437  1.1605 -0.1849  0.7623
  321MOL0     C42268   6.720   5.089   9.365 -1.2371 -0.3191  0.8183
  321MOL0     C42269   6.856   5.124   9.300 -0.6936 -0.2062  0.5088
  321MOL0     O42270   6.897   5.256   9.290 -0.7507 -0.5794  0.1676
  321MOL0     C42271   7.017   5.282   9.227  0.8764 -0.3889 -0.5527
  321MOL0     C42272   7.137   5.286   9.296  0.1428 -1.0167  0.0450
  321MOL0     C42273   7.250   5.321   9.229  0.1105 -0.5415 -0.2519
  321MOL0     C42274   7.251   5.344   9.092 -0.3766  0.8384 -0.1886
  321MOL0     O42275   7.363   5.369   9.020 -0.9372  0.3672 -0.0069
  321MOL0     C42276   7.488   5.314   9.064  0.4357 -0.0510 -0.0707
  321MOL0     C42277   7.594   5.416   9.047  0.8281 -0.3709 -0.4252
  321MOL0     C42278   7.641   5.496   9.175 -0.2986 -0.0275 -0.8221
  321MOL0     C42279   7.745   5.606   9.128  1.4603  0.2837  0.6513
  321MOL0     C42280   7.878   5.547   9.095 -0.1451  0.0558  0.3787
  321MOL0     C42281   7.960   5.668   9.046 -0.4395  0.2033 -0.4540
  321MOL0     C42282   8.099   5.627   9.003 -0.4806 -0.2073 -0.4912
  321MOL0     C42283   8.192   5.608   9.117  0.0530 -0.9029 -0.6108
  321MOL0    Cl42284   8.206   5.768   9.222  0.3872  0.0171  0.2846
  321MOL0     C42285   7.135   5.335   9.021  0.1167 -0.3467  0.6499
  321MOL0     C42286   7.017   5.307   9.089 -0.3962 -0.2842 -0.5269
  321MOL0     O42287   6.921   5.033   9.255  0.1083  0.0541 -0.0153
  321MOL0     C42288   6.670   4.956   9.350 -0.7443 -0.2306  0.0814
  321MOL0     C42289   6.551   4.917   9.424 -0.1252  0.3081  0.7222
  321MOL0     N42290   5.751   4.732   9.478  0.1836  0.3686 -0.1229
  321MOL0     N42291   5.655   4.764   9.395  0.3243  0.0434  0.4653
  321MOL0     C42292   6.026   5.548   8.391 -0.5378  0.4730  0.3029
  321MOL0     C42293   6.087   5.580   8.273  0.5730  0.2734  0.1513
  321MOL0     C42294   6.443   5.484   7.999  0.2676 -0.6974  0.7635
  321MOL0     C42295   6.388   5.412   7.885 -0.4455 -0.5727  0.5680
  321MOL0     C42296   6.472   5.368   7.777 -0.2974 -1.1947 -0.9351
  321MOL0     C42297   6.610   5.397   7.773  0.7039 -1.3353 -0.7736
  321MOL0     O42298   6.677   5.358   7.655 -0.2299  0.2465 -0.2685
  321MOL0     C42299   6.822   5.370   7.672  0.1621  0.6792 -0.4497
  321MOL0     C42300   6.891   5.299   7.559  0.0470 -0.5609  0.7503
  321MOL0     C42301   7.039   5.343   7.553  0.3591  0.3890  0.2638
  321MOL0     C42302   7.108   5.300   7.421 -0.1078  0.1424  0.0308
  321MOL0     C42303   7.057   5.174   7.369  0.0069  0.5553  0.7519
  321MOL0     C42304   7.008   5.065   7.327 -0.5002 -0.2105 -0.0234
  321MOL0     C42305   6.661   5.484   7.876  0.2569 -1.1552 -0.4661
  321MOL0     C42306   6.579   5.520   7.987 -0.6437  0.4003  1.4539
  321MOL0     H42307   6.199   5.262   8.222  0.7899 -1.7431  2.3397
  321MOL0     H42308   6.090   5.218   8.406  0.1485  0.0313  0.4361
  321MOL0     H42309   5.803   5.550   8.552 -2.0952 -2.0364 -1.2578
  321MOL0     H42310   5.934   5.549   8.676  1.7165 -0.0671 -0.7562
  321MOL0     H42311   5.667   5.402   8.659 -1.9548  0.6172  2.0073
  321MOL0     H42312   5.720   5.507   8.785  1.7220  1.6104 -0.8817
  321MOL0     H42313   5.911   5.323   8.833  0.6380 -1.2078 -1.0114
  321MOL0     H42314   5.826   5.223   8.718 -0.1717 -0.9650  0.6859
  321MOL0     H42315   5.651   5.318   8.933  0.0181  0.2724 -1.8657
  321MOL0     H42316   5.628   5.196   8.817  1.0222  1.3811 -1.5141
  321MOL0     H42317   5.852   5.176   9.033  1.1653 -3.0209  0.4266
  321MOL0     H42318   5.800   5.052   8.929 -1.5322 -0.2957 -1.1224
  321MOL0     H42319   5.576   5.050   9.039  0.2388 -1.6347  0.0449
  321MOL0     H42320   5.611   5.193   9.125 -0.0081 -0.7687  1.5281
  321MOL0     H42321   5.761   4.929   9.147  1.7490  1.7598 -2.6834
  321MOL0     H42322   5.796   5.078   9.240  0.3135  0.3591 -0.2869
  321MOL0     H42323   5.539   4.919   9.226  1.8489 -1.4965  0.3800
  321MOL0     H42324   5.533   5.059   9.315 -1.8005 -1.2893  0.7035
  321MOL0     H42325   5.795   5.054   9.494 -0.4524  0.5449  1.3639
  321MOL0     H42326   5.930   4.748   9.670 -0.4714  0.5676  0.0822
  321MOL0     H42327   5.913   4.926   9.696 -4.2333  1.0833 -0.8835
  321MOL0     H42328   6.068   4.960   9.513 -2.6467  0.6059  1.6157
  321MOL0     H42329   6.061   4.788   9.475 -0.7127  0.2667  0.0185
  321MOL0     H42330   6.181   4.906   9.738  1.6799 -0.2444 -0.9246
  321MOL0     H42331   6.170   4.732   9.700 -0.6466  0.9984  2.4444
  321MOL0     H42332   6.312   4.805   9.486 -1.5539  3.4773 -1.6636
  321MOL0     H42333   6.395   4.794   9.636 -0.7460  0.6966  2.7004
  321MOL0     H42334   6.482   5.212   9.569  2.5070  2.4944 -1.4235
  321MOL0     H42335   6.696   5.283   9.454 -0.7680  0.8199  0.7662
  321MOL0     H42336   7.155   5.266   9.401 -0.8019  0.7985  0.5939
  321MOL0     H42337   7.334   5.345   9.294 -0.9696 -0.6069  1.2416
  321MOL0     H42338   7.499   5.232   8.992 -0.2706 -0.1429 -0.0813
  321MOL0     H42339   7.479   5.275   9.166  0.8335  2.3191  0.9419
  321MOL0     H42340   7.549   5.484   8.974 -1.5255 -1.7391 -0.3506
  321MOL0     H42341   7.680   5.360   9.010  0.6695 -0.5378 -0.5400
  321MOL0     H42342   7.696   5.431   9.244  0.2253  2.3683  1.1855
  321MOL0     H42343   7.561   5.548   9.230  1.0675 -0.2123  1.4626
  321MOL0     H42344   7.702   5.649   9.036 -1.2680 -1.2059  1.1000
  321MOL0     H42345   7.756   5.678   9.210 -0.7717  0.8871  0.5107
  321MOL0     H42346   7.862   5.480   9.010 -0.4845  1.6397 -0.8640
  321MOL0     H42347   7.921   5.499   9.183  1.1855 -1.7291 -1.1547
  321MOL0     H42348   7.953   5.741   9.127 -1.0441 -3.8248  3.5171
  321MOL0     H42349   7.919   5.715   8.957 -1.2635 -0.4872 -0.4489
  321MOL0     H42350   8.093   5.532   8.948 -4.2084 -0.5686  0.3205
  321MOL0     H42351   8.138   5.702   8.933  1.3397 -0.7661 -0.1205
  321MOL0     H42352   8.289   5.575   9.081 -0.5640 -0.3748 -2.8907
  321MOL0     H42353   8.156   5.526   9.181  1.7330 -2.0181 -1.0205
  321MOL0     H42354   7.127   5.360   8.916  0.7956  0.5848  0.8092
  321MOL0     H42355   6.914   5.313   9.054 -1.7416 -2.0267  2.6592
  321MOL0     H42356   6.719   4.887   9.282  0.5910  1.1556 -0.4432
  321MOL0     H42357   6.528   4.811   9.425  0.0180  0.2324 -1.1223
  321MOL0     H42358   5.979   5.629   8.447 -2.4391 -1.7793  2.1551
  321MOL0     H42359   6.080   5.680   8.232 -1.0072  0.1199 -0.0324
  321MOL0     H42360   6.285   5.379   7.889 -0.4812 -0.9534 -1.9427
  321MOL0     H42361   6.432   5.307   7.696 -0.4709  0.2009 -1.9223
  321MOL0     H42362   6.855   5.323   7.765  1.9828 -1.3699 -2.0300
  321MOL0     H42363   6.859   5.473   7.673  0.7183  0.4939 -1.2284
  321MOL0     H42364   6.880   5.193   7.584 -1.9733 -0.7350 -0.5941
  321MOL0     H42365   6.845   5.303   7.460  0.7182  1.6199  0.4750
  321MOL0     H42366   7.088   5.297   7.639 -1.3000 -0.0212  1.0259
  321MOL0     H42367   7.040   5.453   7.557 -1.0310  0.4023  1.0146
  321MOL0     H42368   7.086   5.381   7.352 -0.3171  2.9178  3.1072
  321MOL0     H42369   7.217   5.291   7.424 -0.1054  0.2957  0.4914
  321MOL0     H42370   6.963   4.977   7.285 -0.1046 -1.2308  1.6117
  321MOL0     H42371   6.764   5.518   7.878 -0.2130  0.5610 -1.9769
  321MOL0     H42372   6.628   5.563   8.073 -1.4985 -2.1911  3.3779
  322MOL0     O42373  10.016   4.334   4.900 -0.0272 -0.0290 -0.5481
  322MOL0     C42374  10.061   4.423   4.975 -0.3288  0.1023  0.4777
  322MOL0     O42375   9.991   4.484   5.074  0.1524  0.6331 -0.4411
  322MOL0     C42376   9.854   4.467   5.088 -0.8618  0.9503 -0.2913
  322MOL0     C42377   9.759   4.442   4.994 -0.3309  0.1926  0.8085
  322MOL0     C42378   9.623   4.423   5.027  0.5579 -0.5316  0.3228
  322MOL0     C42379   9.579   4.430   5.158  0.5437 -0.3840  0.5775
  322MOL0     O42380   9.444   4.418   5.183 -0.6401 -0.8299  0.8376
  322MOL0     C42381   9.396   4.453   5.315  0.5624  0.6097  0.6571
  322MOL0     C42382   9.238   4.459   5.314 -0.3165  0.2293  0.2833
  322MOL0     C42383   9.169   4.592   5.262 -1.1712  0.8568 -0.1541
  322MOL0     C42384   9.015   4.577   5.240  0.1440 -0.1094 -1.0032
  322MOL0     C42385   8.949   4.713   5.204 -0.5623  0.1334  0.0213
  322MOL0     C42386   8.944   4.826   5.312 -0.0356 -0.1547 -0.4618
  322MOL0     C42387   8.918   4.762   5.450  0.5461  0.7044  0.2131
  322MOL0     C42388   8.882   4.858   5.554  0.2890 -0.0813 -0.5653
  322MOL0     N42389   8.837   4.788   5.682 -0.4034 -0.1145  1.1006
  322MOL0     C42390   8.918   4.740   5.787 -1.0408  0.2083  0.1312
  322MOL0     C42391   8.835   4.691   5.880  0.1784  0.2151 -0.1515
  322MOL0     C42392   8.881   4.651   6.021 -0.6631 -0.6582  0.6396
  322MOL0     C42393   8.766   4.584   6.102  0.5593  1.5762  0.4794
  322MOL0     C42394   8.834   4.506   6.222  0.4796  0.1425 -0.2826
  322MOL0     C42395   8.741   4.496   6.330  0.0979  0.5361  0.4521
  322MOL0     O42396   8.630   4.409   6.290  0.2067  0.2534 -0.0854
  322MOL0     C42397   8.590   4.331   6.387 -0.3395 -0.2369  0.0461
  322MOL0     C42398   8.531   4.382   6.507 -0.9576 -0.6433  0.0427
  322MOL0     C42399   8.487   4.305   6.619 -0.2369 -0.2820  0.0686
  322MOL0     C42400   8.486   4.167   6.605 -0.5059  0.2188  0.0545
  322MOL0     C42401   8.434   4.084   6.716  0.3442  0.5733 -0.9679
  322MOL0     O42402   8.380   4.153   6.821 -0.2420 -0.4114  0.2317
  322MOL0     C42403   8.334   4.083   6.927 -0.6077 -1.0326 -0.2994
  322MOL0     C42404   8.197   4.038   6.934  0.4746  0.2624 -0.3006
  322MOL0     C42405   8.148   3.956   7.034 -0.8283  0.6185  0.1483
  322MOL0     C42406   8.228   3.933   7.152  0.6532 -0.1664 -0.1378
  322MOL0     O42407   8.191   3.854   7.255  0.1709 -0.0908 -0.2430
  322MOL0     C42408   8.060   3.796   7.265  0.4825 -0.5322  0.2474
  322MOL0     C42409   7.963   3.907   7.304  0.4471  0.6473  0.1594
  322MOL0     C42410   7.849   3.869   7.395  0.5797 -0.3669  0.0751
  322MOL0     C42411   7.770   3.754   7.327 -0.3687  0.0699 -0.7609
  322MOL0     C42412   7.652   3.727   7.423 -0.3343 -0.2684 -0.3756
  322MOL0     C42413   7.570   3.609   7.367 -0.5376 -0.7403 -1.1447
  322MOL0     C42414   7.455   3.571   7.469  0.6520  0.9784  0.5777
  322MOL0     C42415   7.500   3.464   7.566 -0.3277 -0.7136 -0.3263
  322MOL0    Cl42416   7.371   3.428   7.682 -0.0140  0.0282 -0.5151
  322MOL0     C42417   8.364   3.977   7.152  1.1592  0.3381  0.7017
  322MOL0     C42418   8.418   4.046   7.034 -0.1504  0.4726  0.3191
  322MOL0     O42419   8.429   3.962   6.697  0.2267 -0.4117 -0.1707
  322MOL0     C42420   8.527   4.114   6.486  0.6122  0.6693 -0.0931
  322MOL0     C42421   8.583   4.193   6.375 -0.2309  0.3072  0.1958
  322MOL0     N42422   8.706   4.718   5.840 -0.4057 -0.4584 -0.4627
  322MOL0     N42423   8.709   4.775   5.726  0.7411 -0.1691  0.3995
  322MOL0     C42424   9.673   4.471   5.256 -0.7396  0.6731  0.6320
  322MOL0     C42425   9.808   4.480   5.218  1.0661 -0.7631  0.0096
  322MOL0     C42426  10.210   4.452   4.975  0.0918 -0.1162  0.2628
  322MOL0     C42427  10.300   4.368   4.915 -0.2071  0.5839  0.0661
  322MOL0     C42428  10.436   4.396   4.926 -0.4714 -0.1440  0.2213
  322MOL0     C42429  10.482   4.510   4.997  0.5641  0.2566 -0.1818
  322MOL0     O42430  10.613   4.544   5.029  0.1586 -0.2639 -0.8982
  322MOL0     C42431  10.699   4.441   5.012  0.1364  0.3060  1.1472
  322MOL0     C42432  10.835   4.484   5.056  0.1405  0.3323 -0.6882
  322MOL0     C42433  10.938   4.373   5.027 -0.0782 -0.1207  0.7210
  322MOL0     C42434  11.067   4.388   5.103  0.8954 -0.3790  0.1163
  322MOL0     C42435  11.169   4.316   5.022  0.0246  0.1869 -0.1635
  322MOL0     C42436  11.251   4.253   4.958  0.1120 -0.1656  0.7976
  322MOL0     C42437  10.385   4.598   5.055  0.0688 -0.2548 -0.4527
  322MOL0     C42438  10.257   4.574   5.045  0.3873 -0.0787  0.0989
  322MOL0     H42439   9.785   4.430   4.890 -0.4171 -0.4648  0.8595
  322MOL0     H42440   9.549   4.406   4.950  1.3059  2.9130 -1.3669
  322MOL0     H42441   9.433   4.546   5.359  0.5756 -0.1512  2.3188
  322MOL0     H42442   9.426   4.375   5.385 -1.3727 -1.0327 -0.2498
  322MOL0     H42443   9.212   4.433   5.417 -1.7736 -2.0707 -0.5712
  322MOL0     H42444   9.199   4.381   5.247  1.9317  2.1525 -3.6660
  322MOL0     H42445   9.215   4.618   5.166  4.7336 -1.1624  1.6961
  322MOL0     H42446   9.198   4.667   5.336  0.5684 -0.2264  0.3223
  322MOL0     H42447   9.000   4.498   5.165 -0.5702 -2.6656  1.6242
  322MOL0     H42448   8.970   4.537   5.331  1.1056 -0.5262 -0.7051
  322MOL0     H42449   8.844   4.695   5.179 -0.5038 -0.0795 -0.0740
  322MOL0     H42450   8.983   4.762   5.112 -2.5782  2.7055  0.5141
  322MOL0     H42451   8.866   4.894   5.278 -1.2135 -1.2274  0.0067
  322MOL0     H42452   9.047   4.862   5.323  0.3306 -1.6395  1.5363
  322MOL0     H42453   8.834   4.692   5.446  0.1614  0.7991  3.6670
  322MOL0     H42454   9.005   4.709   5.489  0.2057  1.6933  2.4922
  322MOL0     H42455   8.797   4.918   5.520 -1.5073 -1.9035  0.4418
  322MOL0     H42456   8.967   4.918   5.586 -0.1033 -0.7612  1.9835
  322MOL0     H42457   9.026   4.749   5.791 -1.0554  0.1898  0.5994
  322MOL0     H42458   8.921   4.740   6.071  2.2510 -0.9296 -0.9949
  322MOL0     H42459   8.965   4.582   6.011 -0.9086 -1.3555  2.8239
  322MOL0     H42460   8.716   4.510   6.039  2.3528 -2.4557  3.4015
  322MOL0     H42461   8.694   4.662   6.129 -1.2677  0.3017 -0.4979
  322MOL0     H42462   8.874   4.410   6.189  0.0888  0.4560 -1.7655
  322MOL0     H42463   8.915   4.568   6.261 -0.8542  0.8091  1.5771
  322MOL0     H42464   8.686   4.590   6.341  0.0999  0.4564  1.2112
  322MOL0     H42465   8.779   4.474   6.431  0.8187  1.9327  0.5132
  322MOL0     H42466   8.546   4.490   6.506  2.8872 -0.9213 -3.7780
  322MOL0     H42467   8.445   4.357   6.704 -2.7621  0.8558 -1.7373
  322MOL0     H42468   8.126   4.089   6.869 -0.9391  0.3734  1.2405
  322MOL0     H42469   8.052   3.904   7.023 -0.3460 -0.4541  0.8092
  322MOL0     H42470   8.066   3.721   7.345 -3.0222 -0.1406  1.0674
  322MOL0     H42471   8.028   3.737   7.178  2.5326  1.4569 -1.9929
  322MOL0     H42472   7.928   3.956   7.213 -1.1548  0.8740  0.8656
  322MOL0     H42473   8.015   3.987   7.357 -0.9524  2.6523 -1.3569
  322MOL0     H42474   7.790   3.961   7.402  0.6084 -0.3443  0.0176
  322MOL0     H42475   7.884   3.828   7.490  1.5828  0.3295  0.0217
  322MOL0     H42476   7.736   3.780   7.226 -2.2865  0.0328 -0.1677
  322MOL0     H42477   7.829   3.663   7.320 -1.7078 -0.8922  0.0647
  322MOL0     H42478   7.581   3.810   7.432 -0.1295 -0.2588  1.6834
  322MOL0     H42479   7.685   3.710   7.526 -1.8680 -2.1346 -0.1113
  322MOL0     H42480   7.632   3.520   7.348 -1.6841 -1.4728 -1.5341
  322MOL0     H42481   7.522   3.651   7.278  0.5938  2.5598 -0.3136
  322MOL0     H42482   7.408   3.656   7.519 -2.6326  0.4603 -1.3380
  322MOL0     H42483   7.382   3.520   7.406  3.0363 -1.2444 -0.5926
  322MOL0     H42484   7.592   3.489   7.619  0.2237 -3.6745  0.3233
  322MOL0     H42485   7.523   3.372   7.511  2.7251 -1.4971  1.9636
  322MOL0     H42486   8.435   3.957   7.232  1.5971  1.6101  0.6640
  322MOL0     H42487   8.523   4.072   7.033  0.8664 -2.7510  3.2157
  322MOL0     H42488   8.522   4.006   6.482  2.7961  0.4878  0.5590
  322MOL0     H42489   8.612   4.140   6.285 -0.8600 -1.9010  1.2340
  322MOL0     H42490   9.644   4.488   5.359  0.8405 -3.5590  1.9706
  322MOL0     H42491   9.875   4.492   5.302  0.7094  1.9186  0.0015
  322MOL0     H42492  10.272   4.278   4.861  2.0711 -0.7724  0.9886
  322MOL0     H42493  10.507   4.323   4.887  0.3342 -0.2782  1.8725
  322MOL0     H42494  10.704   4.425   4.903 -0.9976  3.2643  0.5832
  322MOL0     H42495  10.664   4.346   5.052  0.2203  0.2845  1.1712
  322MOL0     H42496  10.857   4.574   4.997  1.3991  0.6978  0.2883
  322MOL0     H42497  10.834   4.507   5.163 -0.3985  0.6492 -0.7554
  322MOL0     H42498  10.960   4.388   4.921  0.3932 -0.2771  0.7930
  322MOL0     H42499  10.889   4.276   5.028 -2.4569  0.9554 -0.9113
  322MOL0     H42500  11.095   4.493   5.116 -0.7395 -0.0538  1.3285
  322MOL0     H42501  11.053   4.340   5.200 -1.9280  1.5292  0.8002
  322MOL0     H42502  11.331   4.196   4.915  0.3540  1.6104 -1.2506
  322MOL0     H42503  10.418   4.672   5.127 -4.7248  1.7021  0.1262
  322MOL0     H42504  10.176   4.633   5.087 -0.0584 -1.1263  0.7504
  323MOL0     O42505   7.121   9.516   5.593 -0.3103  0.0568 -0.1666
  323MOL0     C42506   7.171   9.545   5.487  0.4755  0.0229 -0.2824
  323MOL0     O42507   7.124   9.503   5.365 -0.0295 -0.6205 -0.6027
  323MOL0     C42508   6.993   9.455   5.348  0.0129  0.7823 -0.0853
  323MOL0     C42509   6.884   9.479   5.435  0.7888 -0.0747 -0.2449
  323MOL0     C42510   6.750   9.438   5.405 -0.1102  0.0579 -0.8716
  323MOL0     C42511   6.713   9.391   5.284  0.1331  0.0298 -0.7630
  323MOL0     O42512   6.581   9.388   5.255  0.1253  0.9199 -0.4691
  323MOL0     C42513   6.515   9.276   5.190 -0.4244  0.1612  0.4116
  323MOL0     C42514   6.414   9.335   5.091 -0.5719  0.1765 -0.9798
  323MOL0     C42515   6.301   9.396   5.176  1.2324  0.6914 -0.6617
  323MOL0     C42516   6.185   9.431   5.076  0.0612  1.1603 -0.9957
  323MOL0     C42517   6.063   9.507   5.140  0.1155  1.1698  0.1223
  323MOL0     C42518   5.960   9.527   5.019  0.7539  0.1886 -0.1405
  323MOL0     C42519   5.851   9.620   5.058  0.3788 -0.0051  0.7812
  323MOL0     C42520   5.745   9.638   4.947 -0.1577  0.5412 -0.1629
  323MOL0     N42521   5.677   9.506   4.934  0.1259  0.1933  0.6244
  323MOL0     C42522   5.640   9.415   5.035 -0.7562 -0.0625  0.2665
  323MOL0     C42523   5.539   9.346   4.976  0.1647  0.3181  0.5486
  323MOL0     C42524   5.452   9.228   5.031 -0.5089 -0.6118  0.0818
  323MOL0     C42525   5.318   9.292   5.083  0.4178 -0.1130 -0.6229
  323MOL0     C42526   5.333   9.340   5.231  0.4723 -0.3664 -0.1675
  323MOL0     C42527   5.216   9.416   5.298  1.2163  0.1161  0.5660
  323MOL0     O42528   5.084   9.346   5.273 -0.3263 -0.7322 -0.1582
  323MOL0     C42529   4.972   9.420   5.302  0.3073 -0.2851  0.7934
  323MOL0     C42530   4.846   9.373   5.257  0.0828 -0.0483  1.2927
  323MOL0     C42531   4.727   9.432   5.307  0.2569  0.7588  1.0550
  323MOL0     C42532   4.725   9.551   5.386 -0.0512  0.3518  0.2249
  323MOL0     C42533   4.603   9.613   5.429  0.6437  0.4605  0.1955
  323MOL0     O42534   4.489   9.560   5.385 -0.1765  0.2389 -0.2047
  323MOL0     C42535   4.371   9.612   5.426 -0.4772  0.5963  0.4205
  323MOL0     C42536   4.344   9.755   5.434  0.3432 -0.3626  0.2267
  323MOL0     C42537   4.229   9.790   5.508  0.7498  0.9661 -0.0661
  323MOL0     C42538   4.144   9.693   5.558  0.8790  0.6914  0.1048
  323MOL0     O42539   4.037   9.744   5.628  0.4055 -0.5090  0.7420
  323MOL0     C42540   3.924   9.659   5.664  0.1575 -0.2539 -0.1393
  323MOL0     C42541   3.821   9.642   5.548 -0.4354  1.3415  0.0977
  323MOL0     C42542   3.684   9.596   5.596  0.5990 -0.0526  0.0662
  323MOL0     C42543   3.595   9.710   5.643  0.6485  0.7537 -0.8508
  323MOL0     C42544   3.468   9.658   5.719 -0.3911  0.5169  0.2156
  323MOL0     C42545   3.383   9.778   5.758 -0.7764 -0.5546  0.4546
  323MOL0     C42546   3.247   9.754   5.832  0.0438 -0.0919 -0.2947
  323MOL0     C42547   3.126   9.746   5.734  0.3871  0.7058  0.8696
  323MOL0    Cl42548   3.124   9.591   5.643  0.1354  0.2456  0.1278
  323MOL0     C42549   4.156   9.562   5.525 -0.0246  0.4652 -0.6859
  323MOL0     C42550   4.272   9.521   5.456  1.0682 -0.3219 -1.0515
  323MOL0     O42551   4.603   9.719   5.503  0.5373  0.0442 -0.3642
  323MOL0     C42552   4.854   9.606   5.423  0.1004 -0.0928 -0.0748
  323MOL0     C42553   4.975   9.532   5.385  0.2104 -0.7448  0.2310
  323MOL0     N42554   5.527   9.386   4.844  0.5195  1.0457  0.6435
  323MOL0     N42555   5.615   9.475   4.815  0.2231  0.7204 -0.0366
  323MOL0     C42556   6.817   9.371   5.190 -1.0711 -0.7913  0.5138
  323MOL0     C42557   6.954   9.392   5.226  1.0318 -0.4320 -0.5386
  323MOL0     C42558   7.293   9.626   5.488 -0.6840 -0.2543  1.3679
  323MOL0     C42559   7.370   9.614   5.371  0.5669 -0.7575 -0.4470
  323MOL0     C42560   7.469   9.714   5.343 -1.2349  0.1146  0.0435
  323MOL0     C42561   7.511   9.797   5.444 -0.1084 -0.1798  0.1327
  323MOL0     O42562   7.620   9.890   5.425  0.4900 -0.6208 -0.3259
  323MOL0     C42563   7.694   9.894   5.304 -0.2560 -0.0687  0.4857
  323MOL0     C42564   7.791  10.013   5.315 -0.2919  0.3936 -0.0137
  323MOL0     C42565   7.704  10.142   5.293 -0.3901  0.3784 -0.1652
  323MOL0     C42566   7.773  10.268   5.327 -0.3483  0.6376 -0.4487
  323MOL0     C42567   7.881  10.290   5.237  0.1507  0.1373 -0.5463
  323MOL0     C42568   7.976  10.306   5.166 -0.4419  0.2154  0.1622
  323MOL0     C42569   7.452   9.791   5.571  0.5764 -0.6411 -1.1152
  323MOL0     C42570   7.339   9.710   5.581  0.5271 -0.6283  0.1572
  323MOL0     H42571   6.892   9.520   5.535 -1.9517 -0.1627  0.0881
  323MOL0     H42572   6.683   9.448   5.491 -2.3551 -0.7488 -2.4211
  323MOL0     H42573   6.467   9.209   5.262  0.5537 -0.6773  0.3031
  323MOL0     H42574   6.584   9.224   5.123  0.5634  1.3509  0.4793
  323MOL0     H42575   6.371   9.256   5.029 -2.6523  0.1492  0.3943
  323MOL0     H42576   6.456   9.410   5.022 -2.4055 -0.4220 -2.8401
  323MOL0     H42577   6.333   9.489   5.222  0.8618  0.7667 -0.5530
  323MOL0     H42578   6.261   9.328   5.252  1.0371  2.5389  0.9628
  323MOL0     H42579   6.235   9.491   4.999 -0.1840  1.3910 -0.9770
  323MOL0     H42580   6.152   9.340   5.025  1.5938  1.0977 -1.9437
  323MOL0     H42581   6.083   9.605   5.185 -2.1613  1.0731  1.5360
  323MOL0     H42582   6.019   9.455   5.226  0.0640  0.8332 -0.1029
  323MOL0     H42583   5.914   9.433   4.990 -0.8690  0.1641  2.2637
  323MOL0     H42584   6.005   9.575   4.931 -3.1026  2.7035 -1.0194
  323MOL0     H42585   5.814   9.594   5.158 -0.6570  3.0704  1.3101
  323MOL0     H42586   5.903   9.716   5.064 -1.7397  1.3285 -0.9660
  323MOL0     H42587   5.795   9.657   4.851 -0.1332 -1.2573 -0.5377
  323MOL0     H42588   5.675   9.717   4.975  1.1916  1.2904  1.2471
  323MOL0     H42589   5.686   9.397   5.132  2.1639 -0.2503 -1.0625
  323MOL0     H42590   5.509   9.168   5.103  0.1480 -2.2075 -1.6865
  323MOL0     H42591   5.441   9.158   4.947  0.8961  1.4166 -1.9288
  323MOL0     H42592   5.244   9.212   5.080 -2.1001  2.0844 -3.5803
  323MOL0     H42593   5.283   9.378   5.025 -2.7615  0.4096  1.7646
  323MOL0     H42594   5.357   9.258   5.300  0.0755 -0.8635 -0.6210
  323MOL0     H42595   5.415   9.413   5.233 -0.6463  0.9175  1.2605
  323MOL0     H42596   5.207   9.520   5.265 -2.6825  0.0845  1.0447
  323MOL0     H42597   5.224   9.424   5.407 -0.8141  2.4331  0.6383
  323MOL0     H42598   4.843   9.278   5.206 -2.4985 -0.8919  2.8457
  323MOL0     H42599   4.632   9.394   5.271  1.5433 -0.3860 -1.4232
  323MOL0     H42600   4.403   9.835   5.390 -0.2806 -0.3215 -0.5568
  323MOL0     H42601   4.204   9.894   5.524  0.8514  1.3618 -2.1846
  323MOL0     H42602   3.872   9.717   5.741 -2.5929 -0.1486 -1.9635
  323MOL0     H42603   3.948   9.565   5.714 -0.8877 -0.4517  0.0094
  323MOL0     H42604   3.861   9.567   5.478  1.4828  2.9124 -0.5911
  323MOL0     H42605   3.815   9.742   5.505 -0.9792  0.6585 -1.4784
  323MOL0     H42606   3.701   9.512   5.664  1.1878 -0.4047 -0.5047
  323MOL0     H42607   3.624   9.553   5.516 -2.3637 -0.1803  2.1783
  323MOL0     H42608   3.645   9.772   5.717 -1.2459 -0.1031  1.2792
  323MOL0     H42609   3.559   9.768   5.558 -1.7524 -1.3502 -1.4037
  323MOL0     H42610   3.506   9.608   5.808  1.6816 -0.5471 -1.1755
  323MOL0     H42611   3.411   9.589   5.656 -1.1848  1.4475 -0.1167
  323MOL0     H42612   3.366   9.840   5.669 -1.5397  0.0862  1.0357
  323MOL0     H42613   3.447   9.832   5.828 -1.6202 -0.6746  1.3301
  323MOL0     H42614   3.253   9.658   5.884 -0.1250 -0.2498 -0.5652
  323MOL0     H42615   3.222   9.836   5.901 -1.2630  1.0885 -2.0780
  323MOL0     H42616   3.126   9.836   5.673  2.3577  0.5629  0.5901
  323MOL0     H42617   3.029   9.746   5.785  0.5800  1.4833  1.2511
  323MOL0     H42618   4.092   9.493   5.578 -1.2265  1.2603 -1.0565
  323MOL0     H42619   4.287   9.415   5.443 -1.4138 -1.2274  2.2536
  323MOL0     H42620   4.878   9.695   5.480 -0.2252  0.6055 -1.0113
  323MOL0     H42621   5.073   9.559   5.421  1.2264 -0.1658 -2.6774
  323MOL0     H42622   6.785   9.340   5.091 -0.2907 -2.6038  0.7983
  323MOL0     H42623   7.035   9.382   5.154  1.0859  0.4433 -0.6023
  323MOL0     H42624   7.336   9.542   5.297 -0.0765 -0.2577 -0.6491
  323MOL0     H42625   7.526   9.712   5.251  0.4634 -1.5371  1.0558
  323MOL0     H42626   7.631   9.924   5.219 -1.3717  0.6692  1.5368
  323MOL0     H42627   7.747   9.802   5.278 -3.5637 -1.9851 -0.1499
  323MOL0     H42628   7.848  10.009   5.408 -3.7302 -2.6176  2.2617
  323MOL0     H42629   7.862   9.998   5.234 -0.8292 -0.0357 -0.4068
  323MOL0     H42630   7.617  10.132   5.359  1.6125 -3.0630  2.3086
  323MOL0     H42631   7.674  10.145   5.188  2.2423 -0.9376 -1.0582
  323MOL0     H42632   7.698  10.347   5.335 -2.3187 -0.7610 -3.3630
  323MOL0     H42633   7.821  10.258   5.425  1.5637 -3.0862 -1.5742
  323MOL0     H42634   8.058  10.305   5.096 -1.5721  2.2122 -1.3293
  323MOL0     H42635   7.486   9.852   5.654 -0.6243 -1.1667 -0.1895
  323MOL0     H42636   7.279   9.726   5.670 -0.9967 -0.5414 -0.8433
  324MOL0     O42637   9.807   3.746   5.159 -0.2239  0.0964 -0.0753
  324MOL0     C42638   9.895   3.664   5.165  0.3244  0.3199  0.7128
  324MOL0     O42639   9.873   3.527   5.155  0.3589  0.7527 -0.1867
  324MOL0     C42640   9.746   3.479   5.181 -0.4446  0.5072 -0.5159
  324MOL0     C42641   9.651   3.464   5.085 -0.1565  0.3587 -0.1567
  324MOL0     C42642   9.523   3.418   5.116  0.3854  0.4044 -0.4063
  324MOL0     C42643   9.488   3.383   5.247  0.4067 -0.6298  0.0664
  324MOL0     O42644   9.360   3.358   5.288 -0.1713 -0.2438  0.7107
  324MOL0     C42645   9.254   3.338   5.184 -0.4281 -0.2075  0.1159
  324MOL0     C42646   9.127   3.287   5.248  0.2805 -0.6620 -0.3620
  324MOL0     C42647   9.000   3.284   5.153  0.7008  0.1936  0.2561
  324MOL0     C42648   8.867   3.239   5.222 -0.4684 -0.0187 -0.2479
  324MOL0     C42649   8.749   3.230   5.123 -0.1024 -0.2798 -0.3433
  324MOL0     C42650   8.629   3.181   5.212 -0.2680  0.1197 -0.1787
  324MOL0     C42651   8.491   3.191   5.144  0.3095  0.2060  0.3329
  324MOL0     C42652   8.427   3.318   5.179 -0.2597 -0.0696  0.5421
  324MOL0     N42653   8.318   3.357   5.093  0.0895 -0.0136 -0.5043
  324MOL0     C42654   8.226   3.268   5.039  0.4218  0.3165 -0.4783
  324MOL0     C42655   8.133   3.348   4.983 -0.6329  0.3049 -0.2398
  324MOL0     C42656   7.996   3.330   4.907 -0.1877 -0.4928  0.2745
  324MOL0     C42657   7.933   3.191   4.924 -0.3660  0.4174  0.0798
  324MOL0     C42658   7.803   3.185   4.847  0.5342 -1.0228 -0.1464
  324MOL0     C42659   7.685   3.218   4.948 -0.4287 -0.9877 -0.4673
  324MOL0     O42660   7.667   3.101   5.024 -0.0017  0.3407 -0.5393
  324MOL0     C42661   7.546   3.086   5.093 -0.3733 -0.1687 -0.0967
  324MOL0     C42662   7.438   3.170   5.081  0.2860  0.1785  0.4815
  324MOL0     C42663   7.320   3.148   5.154  0.0919 -0.8824  0.0091
  324MOL0     C42664   7.310   3.043   5.246 -0.0812  0.1913 -0.7576
  324MOL0     C42665   7.194   3.028   5.332  0.7495 -0.7000 -0.3401
  324MOL0     O42666   7.105   3.126   5.325  0.2370 -0.2828 -0.0736
  324MOL0     C42667   6.977   3.111   5.363  0.5673 -0.7831 -0.0237
  324MOL0     C42668   6.900   3.229   5.363  0.2709  0.2986 -0.6970
  324MOL0     C42669   6.768   3.228   5.403 -0.2851 -0.5924 -0.3595
  324MOL0     C42670   6.701   3.106   5.437 -0.2955 -0.0533 -0.9259
  324MOL0     O42671   6.572   3.095   5.473  0.3707 -0.4200  1.3442
  324MOL0     C42672   6.481   3.204   5.444  0.1014 -0.4608  0.1089
  324MOL0     C42673   6.347   3.141   5.485 -0.1160  0.2919 -0.1974
  324MOL0     C42674   6.230   3.233   5.495 -0.5530 -0.2967 -0.2257
  324MOL0     C42675   6.103   3.148   5.517 -0.0683 -0.0215  0.0688
  324MOL0     C42676   5.962   3.226   5.515 -0.2791 -0.3654 -0.5078
  324MOL0     C42677   5.969   3.349   5.607 -0.5068  0.2793  0.3193
  324MOL0     C42678   5.972   3.316   5.760  0.7475  0.1875 -0.5752
  324MOL0     C42679   5.884   3.402   5.846  0.8740 -1.3515 -0.6536
  324MOL0    Cl42680   5.708   3.375   5.822 -0.2004 -0.5041  0.2932
  324MOL0     C42681   6.783   2.993   5.447 -0.5429 -0.2670 -0.4874
  324MOL0     C42682   6.912   2.990   5.405 -0.2570 -0.8102 -0.3891
  324MOL0     O42683   7.182   2.921   5.389 -0.5371 -0.4911  0.2566
  324MOL0     C42684   7.415   2.954   5.253 -0.3587  1.1136  0.6131
  324MOL0     C42685   7.527   2.976   5.172  0.2935  0.1708 -0.5997
  324MOL0     N42686   8.178   3.477   4.988  0.9800  0.0637  0.6610
  324MOL0     N42687   8.286   3.490   5.052  0.5974  0.3148  0.0903
  324MOL0     C42688   9.592   3.390   5.339 -0.6034 -0.5897 -0.0377
  324MOL0     C42689   9.720   3.434   5.308 -0.2315  0.4187 -0.2041
  324MOL0     C42690  10.040   3.721   5.158 -0.3760 -0.1344 -0.6716
  324MOL0     C42691  10.145   3.637   5.141 -0.2158 -0.4774  0.3300
  324MOL0     C42692  10.271   3.692   5.148  0.5316 -0.0257  0.4982
  324MOL0     C42693  10.295   3.826   5.174  0.5878  0.3610  0.0324
  324MOL0     O42694  10.425   3.885   5.193 -0.4475  0.8299  0.0412
  324MOL0     C42695  10.535   3.801   5.149  0.1188  0.2065 -0.5302
  324MOL0     C42696  10.664   3.883   5.160  0.6829  0.4295  0.2419
  324MOL0     C42697  10.713   3.955   5.040 -0.1839 -0.4579  0.7414
  324MOL0     C42698  10.614   4.053   4.971 -0.1884 -0.7196 -0.6420
  324MOL0     C42699  10.670   4.108   4.847 -0.6745 -0.2868 -0.2070
  324MOL0     C42700  10.725   4.178   4.761 -0.2743 -0.7277 -0.3369
  324MOL0     C42701  10.183   3.908   5.201 -0.1037 -0.1171 -0.8226
  324MOL0     C42702  10.059   3.858   5.192  0.6455  0.1279 -1.1852
  324MOL0     H42703   9.674   3.483   4.981 -1.6529 -0.9321 -0.7455
  324MOL0     H42704   9.456   3.411   5.030  1.2086  2.4997 -1.2695
  324MOL0     H42705   9.292   3.286   5.095 -0.7309  0.8660 -0.6704
  324MOL0     H42706   9.228   3.439   5.150  0.6035 -0.5305 -1.7362
  324MOL0     H42707   9.105   3.359   5.328 -0.9870  0.7824 -1.9402
  324MOL0     H42708   9.142   3.190   5.297  1.3641 -1.6445 -2.5154
  324MOL0     H42709   9.009   3.225   5.061 -1.8659  0.0864  0.0007
  324MOL0     H42710   8.983   3.383   5.110 -1.0111 -0.8824 -1.7095
  324MOL0     H42711   8.884   3.152   5.287 -0.4163  0.7990  0.8661
  324MOL0     H42712   8.850   3.319   5.295 -0.8909  0.1113 -0.4887
  324MOL0     H42713   8.769   3.163   5.039  2.3026 -1.3363  0.9692
  324MOL0     H42714   8.723   3.332   5.092  1.1800  0.9720  2.3556
  324MOL0     H42715   8.636   3.228   5.310  2.4738  1.7011 -1.0127
  324MOL0     H42716   8.637   3.072   5.223 -0.7739  0.2993  2.6303
  324MOL0     H42717   8.500   3.183   5.036 -0.6021 -0.2734  0.2823
  324MOL0     H42718   8.426   3.109   5.175 -0.2867 -0.1516 -1.7178
  324MOL0     H42719   8.499   3.400   5.163 -1.6808  0.9273 -1.1731
  324MOL0     H42720   8.392   3.327   5.282 -0.6074  1.8316  0.3132
  324MOL0     H42721   8.217   3.161   5.049 -3.6472  0.6684  1.2679
  324MOL0     H42722   7.995   3.358   4.801 -0.6583 -0.6399  0.2358
  324MOL0     H42723   7.938   3.406   4.961  1.4706 -0.0193  1.4460
  324MOL0     H42724   7.935   3.163   5.029  1.9648  1.4718  0.3646
  324MOL0     H42725   8.004   3.124   4.873 -0.0859  0.6635  0.1447
  324MOL0     H42726   7.797   3.253   4.761  1.6996  0.0360  0.5676
  324MOL0     H42727   7.794   3.081   4.816 -0.4902 -1.0728  0.3069
  324MOL0     H42728   7.591   3.249   4.900  0.1734  2.7094  0.4326
  324MOL0     H42729   7.712   3.296   5.020 -1.3671 -2.1008  1.1618
  324MOL0     H42730   7.436   3.264   5.027 -0.1811 -0.3679 -0.4729
  324MOL0     H42731   7.244   3.225   5.146 -1.2137 -2.1444 -0.2106
  324MOL0     H42732   6.937   3.326   5.331  1.1333  0.2265  0.0560
  324MOL0     H42733   6.715   3.322   5.401  1.6606  0.6939  2.4567
  324MOL0     H42734   6.477   3.242   5.341  4.7563 -1.8645 -0.8010
  324MOL0     H42735   6.502   3.289   5.510  0.5919 -0.8623  0.4813
  324MOL0     H42736   6.363   3.085   5.578  1.3139  2.2548  0.7921
  324MOL0     H42737   6.326   3.062   5.411  0.5615  0.7117 -0.8519
  324MOL0     H42738   6.212   3.288   5.402 -0.1783 -1.4209 -0.9897
  324MOL0     H42739   6.256   3.303   5.574  1.2839 -0.7960 -0.3530
  324MOL0     H42740   6.087   3.074   5.438 -0.5046  0.9918 -0.8144
  324MOL0     H42741   6.110   3.096   5.613 -0.5721 -2.6050 -1.2044
  324MOL0     H42742   5.878   3.164   5.549 -0.1635 -1.2500 -1.7614
  324MOL0     H42743   5.939   3.264   5.414 -1.3432  1.6031  0.4169
  324MOL0     H42744   5.874   3.401   5.595 -0.3660  0.6030  0.5965
  324MOL0     H42745   6.054   3.414   5.584 -0.1635 -0.4449 -0.5297
  324MOL0     H42746   5.937   3.213   5.775  0.5525  0.3082 -0.2049
  324MOL0     H42747   6.077   3.323   5.791  0.9425 -0.7443 -0.9828
  324MOL0     H42748   5.897   3.507   5.819  0.3394 -0.6167  1.6913
  324MOL0     H42749   5.913   3.390   5.951  1.2908 -0.5769 -0.6693
  324MOL0     H42750   6.744   2.903   5.493  1.5807 -0.4672  1.0673
  324MOL0     H42751   6.958   2.893   5.418  0.2106 -0.3714  1.5327
  324MOL0     H42752   7.422   2.866   5.316  2.6836  1.1582  0.4901
  324MOL0     H42753   7.605   2.901   5.178 -1.6340 -1.8422  3.0623
  324MOL0     H42754   9.573   3.376   5.445 -0.3348  1.7817  0.3636
  324MOL0     H42755   9.803   3.440   5.379 -1.3359  1.2740  1.0757
  324MOL0     H42756  10.143   3.529   5.129 -1.6304 -0.6362  1.5784
  324MOL0     H42757  10.346   3.614   5.135 -1.4783 -1.6435 -2.3631
  324MOL0     H42758  10.522   3.760   5.048  1.0394  0.3316 -0.7158
  324MOL0     H42759  10.541   3.721   5.223  0.3142  1.4953  0.8977
  324MOL0     H42760  10.649   3.955   5.241  1.1459  1.5528 -0.6351
  324MOL0     H42761  10.743   3.813   5.189  0.3430 -0.1876 -0.3201
  324MOL0     H42762  10.735   3.875   4.969 -0.1087 -0.8415  1.1940
  324MOL0     H42763  10.812   3.999   5.058  0.5291 -1.8144  0.2835
  324MOL0     H42764  10.527   3.991   4.949 -0.2009 -0.9414  0.0070
  324MOL0     H42765  10.584   4.138   5.034 -0.3711 -0.5452 -0.9628
  324MOL0     H42766  10.781   4.239   4.694 -1.0211  1.0210  0.5709
  324MOL0     H42767  10.203   4.014   5.214 -1.5924  0.4286 -2.4997
  324MOL0     H42768   9.972   3.921   5.206  0.5824 -0.0364 -0.8139
  325MOL0     O42769  10.739   7.057   4.013 -0.2551  0.6232 -0.2423
  325MOL0     C42770  10.749   7.177   3.994 -0.1833  0.0935  0.0063
  325MOL0     O42771  10.660   7.264   4.044  0.1815  0.0759  0.2640
  325MOL0     C42772  10.535   7.232   4.099 -0.3930 -0.0547 -0.0412
  325MOL0     C42773  10.460   7.113   4.098 -0.3172 -0.7826 -0.5435
  325MOL0     C42774  10.331   7.104   4.158 -0.6589  0.6931  0.3488
  325MOL0     C42775  10.271   7.219   4.215  0.2157  0.2342 -0.8977
  325MOL0     O42776  10.136   7.211   4.250  0.0534  0.1807  0.6603
  325MOL0     C42777  10.105   7.311   4.351  0.6589  0.2960  0.2961
  325MOL0     C42778   9.962   7.293   4.404  0.0111  0.4179  0.3751
  325MOL0     C42779   9.922   7.407   4.490  0.0360  1.2089 -0.3485
  325MOL0     C42780   9.792   7.378   4.568  0.5636 -0.7016 -0.6028
  325MOL0     C42781   9.758   7.500   4.662 -0.8424  0.4901  1.3880
  325MOL0     C42782   9.643   7.462   4.756  0.3839 -0.4139 -0.4311
  325MOL0     C42783   9.608   7.563   4.870 -0.0822 -0.6408 -0.6115
  325MOL0     C42784   9.517   7.505   4.973  0.0817 -0.5066 -0.9685
  325MOL0     N42785   9.489   7.612   5.069  0.0957 -0.0011 -0.3819
  325MOL0     C42786   9.411   7.723   5.043  0.1084 -0.2576 -0.8279
  325MOL0     C42787   9.400   7.780   5.168 -0.3467  0.5279  0.4719
  325MOL0     C42788   9.327   7.912   5.203  0.2404  0.5669 -0.1625
  325MOL0     C42789   9.183   7.891   5.251 -0.3509 -0.0510 -0.2614
  325MOL0     C42790   9.116   8.032   5.272  0.1163  0.3366 -0.0297
  325MOL0     C42791   8.972   8.012   5.333  0.4564  0.2565  0.2321
  325MOL0     O42792   8.904   8.141   5.338 -0.1250  0.4521  0.0423
  325MOL0     C42793   8.770   8.134   5.327  0.3599 -0.8388  0.7510
  325MOL0     C42794   8.701   8.206   5.225  0.4658  0.3665 -0.1415
  325MOL0     C42795   8.568   8.216   5.220  0.3246 -0.9153 -0.6037
  325MOL0     C42796   8.491   8.141   5.309 -0.0075  0.1415 -0.7548
  325MOL0     C42797   8.339   8.148   5.296 -0.1117  0.2202 -0.0159
  325MOL0     O42798   8.285   8.204   5.185 -0.4127  0.2577 -0.8116
  325MOL0     C42799   8.162   8.188   5.139 -0.0966 -0.0690 -0.5773
  325MOL0     C42800   8.105   8.286   5.057 -0.6983 -0.5933  0.1324
  325MOL0     C42801   7.981   8.278   5.002 -0.1630  0.0996 -0.9980
  325MOL0     C42802   7.899   8.170   5.044  0.0363  0.0302 -1.0054
  325MOL0     O42803   7.776   8.162   4.984 -0.2243 -0.6592 -0.6269
  325MOL0     C42804   7.704   8.037   4.966  1.1892  0.2400  0.2698
  325MOL0     C42805   7.616   8.002   5.096 -0.2047 -0.0558 -0.6127
  325MOL0     C42806   7.539   7.875   5.081  0.3483 -0.2937  0.0536
  325MOL0     C42807   7.452   7.861   5.214  0.6338 -0.8345  0.0934
  325MOL0     C42808   7.399   7.718   5.224 -0.8587 -0.0755 -0.0302
  325MOL0     C42809   7.283   7.703   5.320  0.1243 -0.1282  0.8061
  325MOL0     C42810   7.326   7.746   5.460  0.6673  0.0613  0.1990
  325MOL0     C42811   7.227   7.693   5.560  0.9314  0.0833  0.7516
  325MOL0    Cl42812   7.296   7.722   5.719 -0.1877 -0.0446  0.4805
  325MOL0     C42813   7.955   8.066   5.111 -0.3103  0.3112 -0.6345
  325MOL0     C42814   8.082   8.079   5.180  0.1673 -0.9151 -0.0148
  325MOL0     O42815   8.278   8.097   5.389 -0.3571 -0.5188  0.4506
  325MOL0     C42816   8.557   8.061   5.406  0.4895  0.1743 -0.2061
  325MOL0     C42817   8.696   8.061   5.414 -0.2403 -0.6383  0.1590
  325MOL0     N42818   9.463   7.703   5.263 -0.1504 -0.2941 -0.0060
  325MOL0     N42819   9.515   7.605   5.197  0.2448  0.4313 -0.1131
  325MOL0     C42820  10.353   7.332   4.227  1.3588  0.4364  0.5137
  325MOL0     C42821  10.475   7.338   4.166 -0.7286  0.3474 -0.2865
  325MOL0     C42822  10.861   7.228   3.909 -0.0959  0.2127 -0.2666
  325MOL0     C42823  10.904   7.363   3.932 -0.1739 -0.0299 -0.5014
  325MOL0     C42824  11.013   7.413   3.867  0.2317 -0.7143  0.8553
  325MOL0     C42825  11.090   7.332   3.777  0.6826 -0.0955 -0.0313
  325MOL0     O42826  11.190   7.401   3.723  0.1865  0.2332 -0.4132
  325MOL0     C42827  11.268   7.335   3.611  0.4089 -0.3296 -0.0446
  325MOL0     C42828  11.408   7.288   3.656 -0.6038 -0.0805  0.1277
  325MOL0     C42829  11.483   7.410   3.715  0.0635  0.0213  0.3080
  325MOL0     C42830  11.644   7.404   3.694 -0.0814  0.0739  0.5737
  325MOL0     C42831  11.700   7.524   3.755 -0.1170 -0.5651 -0.6245
  325MOL0     C42832  11.740   7.608   3.831  0.7580  0.5998 -0.1642
  325MOL0     C42833  11.066   7.192   3.776 -1.1698 -0.0673 -0.2182
  325MOL0     C42834  10.949   7.143   3.833 -0.8445  0.2621 -0.6361
  325MOL0     H42835  10.505   7.025   4.052 -0.2052 -0.9180 -0.1807
  325MOL0     H42836  10.288   7.004   4.161  1.0898 -0.2499 -2.0265
  325MOL0     H42837  10.109   7.411   4.308 -0.6767 -1.0698 -3.5064
  325MOL0     H42838  10.170   7.303   4.438  0.6095  0.3050  0.3340
  325MOL0     H42839   9.963   7.196   4.454  3.1695 -0.2981 -0.8552
  325MOL0     H42840   9.903   7.296   4.312  0.3053 -0.6916  0.1405
  325MOL0     H42841   9.919   7.495   4.425  4.2182 -0.6584 -3.6719
  325MOL0     H42842  10.007   7.414   4.558 -0.6782  0.1188  0.6845
  325MOL0     H42843   9.708   7.368   4.498 -1.4629  0.0984  1.5841
  325MOL0     H42844   9.802   7.293   4.637 -1.4993 -0.3265  0.2465
  325MOL0     H42845   9.729   7.586   4.601 -2.5680 -2.5217 -2.4304
  325MOL0     H42846   9.846   7.526   4.721 -0.1482 -0.7366  0.9249
  325MOL0     H42847   9.664   7.367   4.806  0.2510 -0.3115 -0.1736
  325MOL0     H42848   9.543   7.451   4.713 -0.5695  1.6551  1.0752
  325MOL0     H42849   9.697   7.591   4.928 -0.9197  1.2628 -0.1726
  325MOL0     H42850   9.567   7.649   4.817  0.9222 -0.0531 -0.4461
  325MOL0     H42851   9.560   7.420   5.025 -1.7071 -0.0793  1.3619
  325MOL0     H42852   9.430   7.473   4.915 -1.1383 -1.7944  1.4474
  325MOL0     H42853   9.373   7.754   4.947 -0.5031 -0.3951 -0.6341
  325MOL0     H42854   9.331   7.983   5.119  1.3095  0.2474 -0.3959
  325MOL0     H42855   9.383   7.955   5.286 -0.0844 -1.2128  1.0380
  325MOL0     H42856   9.191   7.840   5.348  3.9713  1.6475  0.4931
  325MOL0     H42857   9.122   7.834   5.181 -0.4839 -0.3565  0.0978
  325MOL0     H42858   9.175   8.085   5.347 -0.0420 -2.8016  2.5367
  325MOL0     H42859   9.105   8.078   5.173  3.2866  0.1834 -0.5699
  325MOL0     H42860   8.996   7.971   5.431  0.0638  0.8728  0.5936
  325MOL0     H42861   8.918   7.944   5.266 -1.4580  1.7907  0.1204
  325MOL0     H42862   8.765   8.258   5.154  1.2381 -2.4315 -1.6621
  325MOL0     H42863   8.522   8.281   5.146 -0.6989  0.6988  1.3448
  325MOL0     H42864   8.178   8.362   5.032 -1.3104 -1.2365 -4.5288
  325MOL0     H42865   7.946   8.356   4.935  2.1639  0.6460 -1.7012
  325MOL0     H42866   7.769   7.954   4.935  0.7635 -0.1196  0.3359
  325MOL0     H42867   7.640   8.054   4.879  1.1246 -0.9484  0.0601
  325MOL0     H42868   7.555   8.090   5.116  3.2130  2.0595  1.4968
  325MOL0     H42869   7.685   8.002   5.181  0.0449  1.7695 -0.7784
  325MOL0     H42870   7.605   7.789   5.070 -1.2026 -1.3293 -1.9033
  325MOL0     H42871   7.481   7.882   4.988  0.5040  0.7988  0.0238
  325MOL0     H42872   7.504   7.893   5.304 -1.3217 -2.7538  2.0518
  325MOL0     H42873   7.364   7.926   5.205  0.0573 -1.5552  0.3424
  325MOL0     H42874   7.477   7.642   5.239 -1.1762 -0.8438 -1.9119
  325MOL0     H42875   7.353   7.689   5.129 -2.1367 -4.1190  1.5923
  325MOL0     H42876   7.247   7.599   5.319 -0.3206  0.0225 -0.5256
  325MOL0     H42877   7.195   7.758   5.286  2.7994  2.5915 -2.3625
  325MOL0     H42878   7.421   7.696   5.480  0.5312 -0.5458 -0.6112
  325MOL0     H42879   7.338   7.853   5.479 -2.2412  0.3685  0.8266
  325MOL0     H42880   7.205   7.588   5.538 -0.8881  0.6759 -0.5713
  325MOL0     H42881   7.129   7.743   5.558  0.9177  0.0510  0.6288
  325MOL0     H42882   7.894   7.983   5.144  0.3838  0.8502  2.3025
  325MOL0     H42883   8.115   8.000   5.246 -0.6200  0.0163  1.5531
  325MOL0     H42884   8.487   8.017   5.478 -0.7514  1.1828 -0.7538
  325MOL0     H42885   8.743   8.017   5.501  0.6917  2.2169  1.2156
  325MOL0     H42886  10.324   7.423   4.279  0.5101  0.5043 -0.0660
  325MOL0     H42887  10.517   7.437   4.155 -0.0646 -0.0012 -0.9793
  325MOL0     H42888  10.855   7.425   4.006  1.4866  0.0401  0.6185
  325MOL0     H42889  11.051   7.514   3.884  1.9348 -0.9673 -0.9930
  325MOL0     H42890  11.281   7.411   3.533 -0.3310 -0.7965 -0.6367
  325MOL0     H42891  11.217   7.256   3.554 -0.1302  0.1912 -0.2940
  325MOL0     H42892  11.394   7.208   3.730 -0.7306  0.3079  0.5329
  325MOL0     H42893  11.456   7.238   3.572 -0.7225  0.9909 -0.6023
  325MOL0     H42894  11.459   7.415   3.821  1.0873  0.1572  0.5409
  325MOL0     H42895  11.437   7.506   3.687 -1.4289 -0.8236 -0.2695
  325MOL0     H42896  11.675   7.312   3.745 -1.6495 -2.3342 -2.5018
  325MOL0     H42897  11.668   7.397   3.588 -2.1535 -0.3919  0.1088
  325MOL0     H42898  11.786   7.688   3.885 -1.6384  2.0477 -0.1545
  325MOL0     H42899  11.124   7.117   3.722 -0.7842  0.9037 -1.1813
  325MOL0     H42900  10.926   7.038   3.844 -0.0917  0.1821  0.2450
  326MOL0     O42901   6.669  10.989   0.889 -0.8961 -0.0703  0.5433
  326MOL0     C42902   6.653  11.046   0.779  0.5674 -1.0931  0.2263
  326MOL0     O42903   6.542  11.037   0.703 -0.7641  0.7143 -0.0406
  326MOL0     C42904   6.432  10.969   0.740 -0.7343  0.7237 -0.4391
  326MOL0     C42905   6.377  10.977   0.870 -0.3148  0.8870 -0.7907
  326MOL0     C42906   6.261  10.906   0.900  0.2698  0.6463  0.4269
  326MOL0     C42907   6.191  10.828   0.808 -0.0282 -0.1068  0.3736
  326MOL0     O42908   6.078  10.760   0.853 -0.0690 -0.2235 -0.2298
  326MOL0     C42909   6.060  10.632   0.789 -0.0259 -0.1495 -0.4220
  326MOL0     C42910   5.980  10.532   0.882  0.2183  0.8548 -0.3835
  326MOL0     C42911   5.827  10.521   0.868 -0.1160 -0.5196  0.3539
  326MOL0     C42912   5.753  10.650   0.888 -0.0534 -0.3346  0.2843
  326MOL0     C42913   5.610  10.651   0.833  0.1389  0.2676  0.7395
  326MOL0     C42914   5.526  10.520   0.863  0.7974  0.0914 -0.7237
  326MOL0     C42915   5.377  10.539   0.845 -0.7003  0.8947  0.6604
  326MOL0     C42916   5.340  10.504   0.702 -0.4418 -0.0054 -0.2468
  326MOL0     N42917   5.213  10.565   0.668  0.1575 -0.1220  0.4040
  326MOL0     C42918   5.084  10.508   0.675  0.4686  0.6383  0.1646
  326MOL0     C42919   5.012  10.605   0.600 -0.8088  0.3451  0.7284
  326MOL0     C42920   4.867  10.587   0.586 -0.5945  0.0199 -0.3118
  326MOL0     C42921   4.839  10.546   0.442  0.1724  0.0416  0.4202
  326MOL0     C42922   4.694  10.521   0.411 -0.3672 -0.3714  0.1136
  326MOL0     C42923   4.590  10.627   0.446 -0.0069 -0.0474  0.2734
  326MOL0     O42924   4.564  10.634   0.585  0.2230 -0.5838  0.2141
  326MOL0     C42925   4.451  10.688   0.632  0.3495  0.3005 -0.5939
  326MOL0     C42926   4.367  10.786   0.570  0.3932  0.7130 -0.7014
  326MOL0     C42927   4.257  10.846   0.639 -0.2780 -0.2580  0.2952
  326MOL0     C42928   4.233  10.805   0.768 -0.0958  0.3194 -0.3729
  326MOL0     C42929   4.137  10.874   0.852 -0.2616 -0.1763 -0.1283
  326MOL0     O42930   4.150  10.862   0.993  0.8086 -0.7408  0.7147
  326MOL0     C42931   4.054  10.940   1.057  0.2124 -0.7513  0.6635
  326MOL0     C42932   4.050  11.086   1.042 -0.4121  0.4155 -0.3607
  326MOL0     C42933   3.964  11.163   1.120  0.4502 -1.1542  0.3026
  326MOL0     C42934   3.891  11.098   1.222  0.6246 -0.2581  0.0899
  326MOL0     O42935   3.826  11.157   1.323 -0.1795  0.6072 -0.1231
  326MOL0     C42936   3.858  11.288   1.370  0.2121  0.3337  0.2511
  326MOL0     C42937   3.724  11.349   1.415  0.3677 -0.1692 -0.0859
  326MOL0     C42938   3.619  11.363   1.306  0.9424 -0.2792 -0.0078
  326MOL0     C42939   3.499  11.442   1.360  0.9782  0.5717 -0.4821
  326MOL0     C42940   3.381  11.470   1.268 -0.5389  0.3061  0.7271
  326MOL0     C42941   3.259  11.527   1.334  0.2415 -0.3002 -0.0503
  326MOL0     C42942   3.153  11.569   1.225  0.0009  0.1601  0.3096
  326MOL0     C42943   3.016  11.578   1.274  0.4002 -0.2553 -0.6650
  326MOL0    Cl42944   2.998  11.729   1.373  0.0483 -0.1021  0.2142
  326MOL0     C42945   3.885  10.958   1.227  1.1686 -0.9775  0.2005
  326MOL0     C42946   3.969  10.882   1.146 -0.3418  0.9564  0.8112
  326MOL0     O42947   4.048  10.930   0.791 -0.0986 -0.1413  0.3534
  326MOL0     C42948   4.313  10.705   0.826 -0.4875 -0.1813 -0.8014
  326MOL0     C42949   4.418  10.651   0.755  0.3469  0.1555 -0.4740
  326MOL0     N42950   5.097  10.715   0.572 -0.7697  0.2188 -0.1950
  326MOL0     N42951   5.214  10.688   0.617 -0.1677  0.2096 -0.8822
  326MOL0     C42952   6.251  10.826   0.674  1.1554  0.6336 -0.9981
  326MOL0     C42953   6.363  10.897   0.641  0.4252  0.5474 -0.4529
  326MOL0     C42954   6.766  11.116   0.716 -0.1659  0.5134 -0.1994
  326MOL0     C42955   6.769  11.140   0.574  0.6655 -0.5053 -0.4901
  326MOL0     C42956   6.876  11.205   0.510  0.0053 -0.7660  0.1586
  326MOL0     C42957   6.986  11.248   0.586 -0.4302 -0.4785 -0.0043
  326MOL0     O42958   7.103  11.300   0.541  0.3350  0.5548  0.4980
  326MOL0     C42959   7.173  11.211   0.448  0.4299  0.4846 -0.2444
  326MOL0     C42960   7.302  11.156   0.508 -0.8474 -0.6313 -0.2343
  326MOL0     C42961   7.407  11.267   0.480  0.1257  0.0423 -1.1394
  326MOL0     C42962   7.511  11.278   0.599 -0.7235  0.2174 -0.1078
  326MOL0     C42963   7.443  11.317   0.721  0.1614 -0.0566 -0.0123
  326MOL0     C42964   7.381  11.330   0.824 -0.3917  0.3304 -0.6676
  326MOL0     C42965   6.991  11.220   0.727  0.1133  0.5687  0.5674
  326MOL0     C42966   6.881  11.150   0.785 -0.1408 -0.3824 -0.1038
  326MOL0     H42967   6.424  11.035   0.949  3.6243 -0.3709 -1.9309
  326MOL0     H42968   6.214  10.915   0.997  0.9275  0.8931  0.7245
  326MOL0     H42969   6.159  10.585   0.785 -0.4350 -1.1244  0.4118
  326MOL0     H42970   6.006  10.628   0.694 -1.2854 -0.3551  0.2789
  326MOL0     H42971   6.009  10.550   0.985 -0.5523 -1.6181  0.3432
  326MOL0     H42972   6.016  10.431   0.858  1.6931  1.6103 -1.5237
  326MOL0     H42973   5.794  10.450   0.944 -0.7649  1.1733  1.7491
  326MOL0     H42974   5.800  10.471   0.774 -1.2231  2.1079 -0.8366
  326MOL0     H42975   5.757  10.680   0.993 -2.1213 -0.4738  0.4524
  326MOL0     H42976   5.816  10.721   0.833  1.6394 -0.5694  1.8385
  326MOL0     H42977   5.621  10.661   0.725 -0.4910  1.3022  0.7557
  326MOL0     H42978   5.555  10.736   0.875  2.1197  1.6364  0.6977
  326MOL0     H42979   5.546  10.495   0.968  1.6790  0.0151 -0.9015
  326MOL0     H42980   5.566  10.438   0.803  0.5882  0.4096 -1.3045
  326MOL0     H42981   5.327  10.470   0.913 -0.7633  0.9053  0.6255
  326MOL0     H42982   5.354  10.641   0.877 -1.2141  1.3001 -0.9183
  326MOL0     H42983   5.329  10.396   0.696 -1.2423  0.1200 -1.1419
  326MOL0     H42984   5.417  10.538   0.632 -1.7685  1.0074 -1.2571
  326MOL0     H42985   5.055  10.417   0.726  2.7853  0.8726  2.0432
  326MOL0     H42986   4.828  10.688   0.599  1.0649  0.4766  1.5870
  326MOL0     H42987   4.822  10.518   0.658 -0.9100 -2.4729 -2.7385
  326MOL0     H42988   4.888  10.452   0.416 -1.5297 -1.0664  1.0789
  326MOL0     H42989   4.878  10.624   0.376 -2.6324  1.0328 -0.2105
  326MOL0     H42990   4.687  10.510   0.302  0.4193  0.8059 -0.0786
  326MOL0     H42991   4.664  10.422   0.446 -3.2773 -0.4255 -2.1829
  326MOL0     H42992   4.499  10.611   0.387 -0.7345  0.5368  1.2170
  326MOL0     H42993   4.627  10.724   0.411 -0.8919  0.3531  0.4096
  326MOL0     H42994   4.380  10.822   0.468 -2.5732  1.5569 -0.8730
  326MOL0     H42995   4.191  10.922   0.600  0.7593  0.9424  0.7795
  326MOL0     H42996   4.125  11.124   0.973  2.3100 -1.1002  1.5974
  326MOL0     H42997   3.956  11.269   1.101  1.1974 -0.6519  2.4210
  326MOL0     H42998   3.916  11.352   1.303  1.9300  0.5710  1.8942
  326MOL0     H42999   3.930  11.266   1.449  0.0481 -1.1156  0.0326
  326MOL0     H43000   3.736  11.450   1.454 -0.4090  0.8949 -2.3677
  326MOL0     H43001   3.671  11.285   1.485 -1.3659  0.9207 -0.3320
  326MOL0     H43002   3.599  11.258   1.282  0.3480  0.0672 -1.0902
  326MOL0     H43003   3.664  11.412   1.219 -0.4108 -0.0089 -0.5812
  326MOL0     H43004   3.449  11.378   1.433  1.7913 -0.0330 -0.4436
  326MOL0     H43005   3.533  11.531   1.413 -0.9034  0.6316  0.7269
  326MOL0     H43006   3.350  11.375   1.223  2.1004 -1.3298  2.0949
  326MOL0     H43007   3.423  11.532   1.188 -1.4592 -1.5844 -1.3459
  326MOL0     H43008   3.294  11.612   1.394  2.7850 -1.5799  0.4525
  326MOL0     H43009   3.214  11.456   1.404  2.9158  0.6636  2.9002
  326MOL0     H43010   3.182  11.663   1.178 -0.1967 -0.2809 -0.7312
  326MOL0     H43011   3.139  11.490   1.150 -1.2798 -0.8369  1.5416
  326MOL0     H43012   2.975  11.494   1.331  1.4663  0.7355  1.7139
  326MOL0     H43013   2.954  11.593   1.185  1.5536  1.5756 -1.2260
  326MOL0     H43014   3.830  10.913   1.310  1.4780 -0.3278  0.7616
  326MOL0     H43015   3.976  10.774   1.154 -0.8545  0.8726  0.2282
  326MOL0     H43016   4.303  10.663   0.926 -0.4822 -0.0426 -0.7416
  326MOL0     H43017   4.492  10.590   0.807 -0.8957 -0.7425  0.3002
  326MOL0     H43018   6.192  10.766   0.606  0.7619 -0.8922  0.6134
  326MOL0     H43019   6.417  10.904   0.546  1.5502 -1.2202  0.0022
  326MOL0     H43020   6.672  11.127   0.528 -0.5983  1.0157  1.5681
  326MOL0     H43021   6.883  11.222   0.403 -1.1102 -0.7316  0.0757
  326MOL0     H43022   7.202  11.265   0.358  1.3169 -0.1056 -0.3234
  326MOL0     H43023   7.112  11.122   0.428 -1.5966  1.4089  1.4114
  326MOL0     H43024   7.292  11.137   0.615 -0.3605 -0.9613 -0.2451
  326MOL0     H43025   7.337  11.065   0.457  1.6113 -2.1715  3.7680
  326MOL0     H43026   7.358  11.361   0.453 -2.6315 -0.9858 -0.0914
  326MOL0     H43027   7.462  11.237   0.390  2.6428 -1.2325  0.7194
  326MOL0     H43028   7.543  11.178   0.631  0.4502  0.1427 -1.4384
  326MOL0     H43029   7.593  11.349   0.585 -1.3214  1.5132  2.4685
  326MOL0     H43030   7.337  11.340   0.921 -0.8430  4.3662 -1.1358
  326MOL0     H43031   7.085  11.232   0.780  0.0707  1.6619  0.4209
  326MOL0     H43032   6.910  11.114   0.883 -1.2778 -1.2508 -0.0628
  327MOL0     O43033   6.990   4.951   7.847  0.1587  0.4429 -0.3921
  327MOL0     C43034   7.062   4.852   7.831  1.0336 -0.3420  0.4825
  327MOL0     O43035   7.071   4.741   7.915 -0.6710 -0.0752  0.1544
  327MOL0     C43036   6.985   4.717   8.018 -0.4266 -0.0153 -0.1363
  327MOL0     C43037   6.951   4.817   8.116 -0.3528  0.8648  0.0199
  327MOL0     C43038   6.880   4.768   8.233 -0.1323  0.1578  0.2181
  327MOL0     C43039   6.844   4.628   8.251 -0.1415 -1.0927  1.1910
  327MOL0     O43040   6.791   4.588   8.370 -0.4745 -0.4331  0.1231
  327MOL0     C43041   6.849   4.639   8.495  0.0624 -0.1605  0.5454
  327MOL0     C43042   6.994   4.600   8.505  0.3763 -0.0708  0.2213
  327MOL0     C43043   7.074   4.702   8.584 -0.4513 -0.1471  0.1930
  327MOL0     C43044   7.218   4.663   8.624  0.0478 -0.2092  0.2027
  327MOL0     C43045   7.270   4.781   8.699 -1.4403 -0.1792 -0.2112
  327MOL0     C43046   7.419   4.768   8.732  0.1793  0.9344 -0.3234
  327MOL0     C43047   7.454   4.872   8.841 -0.3313  0.1577  0.2596
  327MOL0     C43048   7.599   4.914   8.850 -0.4293  0.7313 -0.0240
  327MOL0     N43049   7.691   4.806   8.891  0.4370  0.3621  0.3105
  327MOL0     C43050   7.686   4.738   9.014  0.1446 -0.4833 -0.3667
  327MOL0     C43051   7.780   4.634   8.997  0.1083  0.3100 -1.1453
  327MOL0     C43052   7.809   4.528   9.095  0.1103 -0.2275  0.3928
  327MOL0     C43053   7.731   4.399   9.063 -0.4858 -0.5202  0.2792
  327MOL0     C43054   7.699   4.315   9.190 -0.0849  0.7985 -0.2913
  327MOL0     C43055   7.570   4.229   9.172 -0.1932  0.1551  0.2877
  327MOL0     O43056   7.531   4.185   9.298  0.2306 -0.1410 -0.1113
  327MOL0     C43057   7.414   4.114   9.311  0.5221 -0.1806  0.5065
  327MOL0     C43058   7.325   4.089   9.209  0.1716 -0.7140 -1.1372
  327MOL0     C43059   7.209   4.011   9.236 -0.1976  0.0413 -0.0815
  327MOL0     C43060   7.177   3.965   9.366 -0.0076  0.0876  0.3814
  327MOL0     C43061   7.047   3.886   9.386  0.4414  0.2971  1.1113
  327MOL0     O43062   6.964   3.868   9.273 -0.7754  0.3078 -0.4864
  327MOL0     C43063   6.844   3.798   9.288 -0.7558  0.0908 -0.4973
  327MOL0     C43064   6.815   3.688   9.200 -0.8705 -0.6407  0.1469
  327MOL0     C43065   6.691   3.634   9.192 -0.4651 -0.5904  0.1300
  327MOL0     C43066   6.590   3.671   9.281 -0.5216 -0.1628  0.1452
  327MOL0     O43067   6.465   3.617   9.291  0.2571 -0.4356 -0.1838
  327MOL0     C43068   6.411   3.516   9.198 -0.2848 -0.2890 -0.1555
  327MOL0     C43069   6.259   3.531   9.195 -0.4483  0.3502  0.0394
  327MOL0     C43070   6.186   3.405   9.149 -0.0210 -0.2421  0.4205
  327MOL0     C43071   6.221   3.390   8.999 -0.3459 -0.4470 -0.1094
  327MOL0     C43072   6.146   3.281   8.934 -0.0819 -0.2621 -0.4893
  327MOL0     C43073   6.192   3.258   8.789 -0.2325 -0.0929  0.0918
  327MOL0     C43074   6.140   3.124   8.747 -1.3715 -0.4174 -0.5149
  327MOL0     C43075   6.190   3.084   8.601 -0.0969  0.6678 -0.4048
  327MOL0    Cl43076   6.123   2.932   8.550  0.0664  0.2123  0.2638
  327MOL0     C43077   6.630   3.783   9.367  0.4547  0.2558 -0.7135
  327MOL0     C43078   6.747   3.837   9.372 -0.7572 -0.5725 -0.0099
  327MOL0     O43079   7.025   3.847   9.503 -0.7293  0.0614  0.3639
  327MOL0     C43080   7.266   3.983   9.469 -0.5794 -0.2939  1.0081
  327MOL0     C43081   7.383   4.056   9.436  0.2338 -0.8640 -0.1639
  327MOL0     N43082   7.839   4.656   8.869 -0.5276 -0.3000 -0.6264
  327MOL0     N43083   7.792   4.758   8.812  0.0827 -0.3115 -0.8958
  327MOL0     C43084   6.854   4.550   8.142  0.5608  0.2767  0.1384
  327MOL0     C43085   6.930   4.593   8.032  0.4008 -0.2482  0.2086
  327MOL0     C43086   7.146   4.849   7.709 -0.1764  0.0271 -1.0071
  327MOL0     C43087   7.171   4.961   7.643 -0.6074 -0.0183  1.0206
  327MOL0     C43088   7.255   4.948   7.530 -0.1366 -0.2837 -0.0845
  327MOL0     C43089   7.309   4.826   7.489 -0.2929 -0.1500  0.5089
  327MOL0     O43090   7.385   4.826   7.374 -0.6378  0.5300  0.5378
  327MOL0     C43091   7.394   4.686   7.319  0.3509 -0.9463  0.2445
  327MOL0     C43092   7.481   4.694   7.197  0.2569  0.7153  0.1743
  327MOL0     C43093   7.632   4.718   7.234 -0.2632  0.1627 -0.2894
  327MOL0     C43094   7.722   4.716   7.108  0.2218  0.3618 -0.1113
  327MOL0     C43095   7.855   4.757   7.152  0.0261 -0.5555 -0.7935
  327MOL0     C43096   7.975   4.791   7.161  0.9215  0.0646 -0.6225
  327MOL0     C43097   7.279   4.713   7.563  0.2020  0.3616 -0.4663
  327MOL0     C43098   7.199   4.725   7.679 -0.3293  0.2175  0.0508
  327MOL0     H43099   6.978   4.923   8.114 -0.0560  0.7921 -2.6067
  327MOL0     H43100   6.845   4.838   8.308  0.3807  3.0012 -2.0002
  327MOL0     H43101   6.796   4.590   8.577  1.0358  2.2413  2.7721
  327MOL0     H43102   6.832   4.746   8.514  0.9217  0.8263 -3.3632
  327MOL0     H43103   7.045   4.575   8.411  3.6308  1.9595  1.2578
  327MOL0     H43104   6.988   4.503   8.556 -3.4459 -1.6443 -2.7179
  327MOL0     H43105   7.024   4.717   8.679 -0.9017 -2.3168  0.3607
  327MOL0     H43106   7.068   4.791   8.521  0.5487 -0.1003  0.1414
  327MOL0     H43107   7.228   4.566   8.673  1.1282 -0.1394  0.1556
  327MOL0     H43108   7.274   4.655   8.530 -2.0488 -1.2074 -1.0187
  327MOL0     H43109   7.216   4.792   8.793 -1.0918 -3.5701  0.5109
  327MOL0     H43110   7.255   4.877   8.650  0.4349  1.0102  1.4028
  327MOL0     H43111   7.492   4.772   8.651  1.6852  0.7318  0.9871
  327MOL0     H43112   7.436   4.674   8.785  0.5139  1.7227  1.0411
  327MOL0     H43113   7.385   4.957   8.834  1.3355  1.6920  1.4268
  327MOL0     H43114   7.418   4.820   8.930 -1.5658 -0.2294 -0.4375
  327MOL0     H43115   7.609   4.995   8.922 -0.5392 -0.9066  1.9530
  327MOL0     H43116   7.630   4.942   8.749  1.2981 -0.4973  0.1206
  327MOL0     H43117   7.617   4.754   9.096  1.1145 -2.6809  0.9990
  327MOL0     H43118   7.778   4.578   9.187 -0.6676  1.8829 -0.9333
  327MOL0     H43119   7.918   4.518   9.089  0.0856  0.1476 -1.2658
  327MOL0     H43120   7.791   4.340   8.993 -2.1152  0.0659 -1.7067
  327MOL0     H43121   7.638   4.402   9.006  1.1396  0.3325 -2.5828
  327MOL0     H43122   7.785   4.251   9.210 -0.5360 -0.5596 -2.4236
  327MOL0     H43123   7.680   4.381   9.276  2.6704 -0.0040  1.0191
  327MOL0     H43124   7.581   4.142   9.106 -2.4177 -1.0803  1.4080
  327MOL0     H43125   7.488   4.293   9.137 -0.2657 -0.8861 -1.6181
  327MOL0     H43126   7.336   4.130   9.109 -0.8406  1.2034 -0.5133
  327MOL0     H43127   7.146   3.987   9.150 -1.7181  1.7496  0.4889
  327MOL0     H43128   6.895   3.661   9.132 -1.6958 -2.9175 -0.0222
  327MOL0     H43129   6.655   3.569   9.114 -1.6082 -1.4306  1.3056
  327MOL0     H43130   6.443   3.424   9.249  0.2538  0.4428  0.8589
  327MOL0     H43131   6.453   3.515   9.097 -0.3952 -2.6094 -0.2250
  327MOL0     H43132   6.237   3.620   9.135 -1.2846  0.1282  0.0005
  327MOL0     H43133   6.221   3.549   9.296 -1.8389 -2.9895  0.2574
  327MOL0     H43134   6.080   3.424   9.165 -0.4171 -1.5928 -0.3690
  327MOL0     H43135   6.213   3.310   9.195  0.5597 -0.6248 -0.6648
  327MOL0     H43136   6.208   3.489   8.954  0.0524 -1.1102 -1.7377
  327MOL0     H43137   6.327   3.364   8.994  0.3067  1.8768  0.2442
  327MOL0     H43138   6.040   3.310   8.928 -0.1469 -0.7128 -1.8830
  327MOL0     H43139   6.156   3.193   8.999  1.9570  0.3044  0.0434
  327MOL0     H43140   6.301   3.259   8.775 -0.1718 -1.6777  0.2715
  327MOL0     H43141   6.152   3.335   8.723  2.7039  0.1830 -1.5801
  327MOL0     H43142   6.175   3.039   8.806 -0.7714 -1.6981 -2.5921
  327MOL0     H43143   6.031   3.121   8.750 -1.3329 -1.3088  1.3334
  327MOL0     H43144   6.300   3.078   8.608 -0.0442  1.9637  0.1893
  327MOL0     H43145   6.179   3.158   8.522  2.0720  0.9062 -0.5516
  327MOL0     H43146   6.549   3.819   9.430  0.1733 -2.7647  0.8477
  327MOL0     H43147   6.759   3.933   9.422  1.0048 -0.8183  0.0830
  327MOL0     H43148   7.244   3.947   9.569  0.9716 -2.1236  0.7633
  327MOL0     H43149   7.451   4.086   9.516 -1.1712  0.2051  0.6777
  327MOL0     H43150   6.817   4.450   8.159 -1.3561  1.0368  0.6158
  327MOL0     H43151   6.944   4.519   7.953 -1.4017  2.4128 -2.8783
  327MOL0     H43152   7.130   5.057   7.671  0.2927  0.8801 -0.5681
  327MOL0     H43153   7.264   5.037   7.469 -0.3139 -1.3625 -1.7417
  327MOL0     H43154   7.295   4.647   7.295 -0.4000  1.6894 -1.2988
  327MOL0     H43155   7.446   4.622   7.391 -1.3818 -1.4190  1.1264
  327MOL0     H43156   7.460   4.609   7.131 -3.1520  1.5034  0.0633
  327MOL0     H43157   7.445   4.773   7.130  1.3293 -0.1314 -1.4859
  327MOL0     H43158   7.668   4.659   7.319 -1.4675  1.7208  1.3654
  327MOL0     H43159   7.637   4.820   7.272  0.0148  0.1886 -0.3985
  327MOL0     H43160   7.732   4.616   7.066  0.8085 -0.9595  2.9123
  327MOL0     H43161   7.676   4.787   7.038 -0.7610 -0.4384 -0.2934
  327MOL0     H43162   8.069   4.824   7.201 -0.1247  0.2714  1.9162
  327MOL0     H43163   7.316   4.612   7.549 -1.9661 -0.7289  1.1176
  327MOL0     H43164   7.189   4.633   7.736  0.2183  0.8480  1.1956
  328MOL0     O43165   1.967   2.434   4.485  0.0235 -0.5304 -0.6632
  328MOL0     C43166   1.998   2.321   4.455 -0.4241 -0.1926 -0.5605
  328MOL0     O43167   1.924   2.210   4.476  0.3037  0.2419  0.0110
  328MOL0     C43168   1.790   2.208   4.507 -0.0395  0.8553  0.1252
  328MOL0     C43169   1.752   2.093   4.571  0.3911  0.0009 -0.0063
  328MOL0     C43170   1.615   2.074   4.603  0.1067 -0.0592 -0.1237
  328MOL0     C43171   1.520   2.173   4.570  0.6452  0.0805 -0.4161
  328MOL0     O43172   1.391   2.166   4.618  0.1626 -0.3147 -0.5780
  328MOL0     C43173   1.358   2.089   4.735 -0.3453 -0.1256 -0.1564
  328MOL0     C43174   1.389   2.151   4.875  0.4838 -0.1132 -0.0537
  328MOL0     C43175   1.343   2.296   4.899 -0.2647 -0.2740  0.6250
  328MOL0     C43176   1.186   2.321   4.875  0.9867  0.4006  0.0575
  328MOL0     C43177   1.128   2.460   4.939 -0.1573  1.1351  0.5369
  328MOL0     C43178   0.974   2.469   4.899  0.3813  0.5615 -0.4676
  328MOL0     C43179   0.958   2.507   4.759  0.1685  0.1361  0.2520
  328MOL0     C43180   0.816   2.547   4.730  0.1010 -0.7070 -0.1403
  328MOL0     N43181   0.729   2.433   4.748  0.5741 -0.0096  0.5438
  328MOL0     C43182   0.700   2.344   4.649 -0.3319  0.3707 -0.6519
  328MOL0     C43183   0.632   2.250   4.709  0.0650 -0.4045  0.3605
  328MOL0     C43184   0.596   2.111   4.656 -0.6652  0.4231  0.2808
  328MOL0     C43185   0.448   2.107   4.618  0.3337 -0.2598 -0.3873
  328MOL0     C43186   0.379   1.975   4.657  0.3874  0.4444 -0.4806
  328MOL0     C43187   0.247   1.956   4.594  0.6253 -0.1753 -0.5112
  328MOL0     O43188   0.162   2.061   4.629 -1.1465  0.2963  0.8886
  328MOL0     C43189   0.025   2.050   4.613 -0.2909  0.2617  0.3324
  328MOL0     C43190  -0.059   2.151   4.661 -0.3915 -0.4575  0.1284
  328MOL0     C43191  -0.194   2.142   4.651 -0.1127 -0.2764  0.3023
  328MOL0     C43192  -0.257   2.026   4.596 -0.3061  0.3085 -0.4253
  328MOL0     C43193  -0.398   1.999   4.577  0.2674  0.3702  0.6237
  328MOL0     O43194  -0.444   1.934   4.457 -0.1506 -0.4534 -0.5848
  328MOL0     C43195  -0.578   1.919   4.432  0.8070  0.0649  0.8289
  328MOL0     C43196  -0.632   1.950   4.307 -0.5562 -0.2145  0.9006
  328MOL0     C43197  -0.769   1.926   4.279 -0.2027 -0.2215  0.1535
  328MOL0     C43198  -0.851   1.860   4.380 -0.0539  0.0706 -0.2791
  328MOL0     O43199  -0.986   1.828   4.363  0.0022  0.1562  0.2286
  328MOL0     C43200  -1.055   1.929   4.277 -0.0831  0.4132  0.0546
  328MOL0     C43201  -1.212   1.903   4.304  0.2029 -0.5165  0.3747
  328MOL0     C43202  -1.256   1.768   4.256 -0.5758 -0.1458 -0.1771
  328MOL0     C43203  -1.409   1.775   4.274 -0.1827  0.0543 -0.6244
  328MOL0     C43204  -1.461   1.636   4.244  0.4678  0.1691  0.2406
  328MOL0     C43205  -1.605   1.626   4.288  0.4079  0.2882 -0.0630
  328MOL0     C43206  -1.664   1.484   4.293 -0.0679 -1.1656  0.1287
  328MOL0     C43207  -1.813   1.491   4.274 -0.2003  0.0487  0.2128
  328MOL0    Cl43208  -1.888   1.535   4.426  0.0272 -0.2509  0.3470
  328MOL0     C43209  -0.791   1.828   4.499  0.9043  0.4507 -0.1982
  328MOL0     C43210  -0.660   1.857   4.524  0.4464 -0.2073  0.4843
  328MOL0     O43211  -0.467   2.043   4.666  1.1105  0.1775 -0.0802
  328MOL0     C43212  -0.176   1.914   4.557  0.0992 -0.4727  0.8905
  328MOL0     C43213  -0.038   1.925   4.569  0.5957 -0.4062  0.1671
  328MOL0     N43214   0.619   2.285   4.848  0.6279 -0.4562 -0.8215
  328MOL0     N43215   0.680   2.393   4.866 -0.9186 -0.6670  0.1003
  328MOL0     C43216   1.557   2.285   4.499  0.4289 -0.2020  0.1769
  328MOL0     C43217   1.698   2.303   4.467  1.0585  0.1664  0.4070
  328MOL0     C43218   2.139   2.309   4.412 -0.1090  0.4979  0.1209
  328MOL0     C43219   2.175   2.183   4.353 -0.3276  0.1909  0.5053
  328MOL0     C43220   2.305   2.169   4.298  0.1996 -0.0067 -0.3850
  328MOL0     C43221   2.407   2.266   4.324 -0.7227 -0.6414  0.3458
  328MOL0     O43222   2.539   2.237   4.272  0.5900  0.1526  0.2993
  328MOL0     C43223   2.643   2.315   4.314 -0.7454 -0.2621 -0.9408
  328MOL0     C43224   2.786   2.263   4.280 -0.4632 -0.5381 -0.3459
  328MOL0     C43225   2.807   2.228   4.138  0.6387 -0.7102 -0.6060
  328MOL0     C43226   2.949   2.226   4.088  0.1519 -0.6984  0.1491
  328MOL0     C43227   3.016   2.112   4.151  0.3759 -0.1959 -0.1657
  328MOL0     C43228   3.079   2.024   4.203 -0.1667  0.2365 -0.3960
  328MOL0     C43229   2.371   2.382   4.387  1.5141 -0.4543  0.3292
  328MOL0     C43230   2.238   2.407   4.425 -0.1705  0.1357 -1.3654
  328MOL0     H43231   1.823   2.013   4.592  2.6678  1.6467 -0.9154
  328MOL0     H43232   1.586   1.989   4.665  3.5504  0.4867  2.5971
  328MOL0     H43233   1.390   1.985   4.722 -2.5691 -0.7539 -1.1176
  328MOL0     H43234   1.251   2.069   4.720 -0.1454 -0.3674 -1.3926
  328MOL0     H43235   1.498   2.152   4.879  0.4759 -0.8829  0.4842
  328MOL0     H43236   1.348   2.085   4.951  1.7625  1.1825  1.8386
  328MOL0     H43237   1.403   2.357   4.830  3.2602 -2.1868  1.7988
  328MOL0     H43238   1.367   2.328   5.000 -0.1747  1.2360  0.1566
  328MOL0     H43239   1.166   2.323   4.768  2.4175  1.7467 -0.2231
  328MOL0     H43240   1.122   2.235   4.898  0.5560  0.4833 -0.8316
  328MOL0     H43241   1.190   2.540   4.897  1.3752 -0.1717  0.2254
  328MOL0     H43242   1.151   2.445   5.044  1.6499 -2.8781 -0.2684
  328MOL0     H43243   0.947   2.553   4.964  1.1642  0.4735 -0.0158
  328MOL0     H43244   0.921   2.378   4.928 -3.7391  2.6418 -0.7563
  328MOL0     H43245   1.032   2.584   4.733  1.7431 -1.2148  0.5810
  328MOL0     H43246   0.983   2.425   4.691  0.0204  0.8045 -0.6321
  328MOL0     H43247   0.801   2.576   4.625 -0.4440 -1.4416 -0.2728
  328MOL0     H43248   0.786   2.621   4.805  0.6586 -1.2975  0.6692
  328MOL0     H43249   0.735   2.344   4.546  1.0516  0.7087 -0.2128
  328MOL0     H43250   0.612   2.022   4.716 -2.0369 -0.7907 -1.0584
  328MOL0     H43251   0.650   2.090   4.564  0.1736 -0.0583  0.8766
  328MOL0     H43252   0.436   2.112   4.509  0.1516 -0.0257 -0.3566
  328MOL0     H43253   0.395   2.193   4.660 -0.6469 -1.3419  0.7086
  328MOL0     H43254   0.452   1.899   4.628 -0.0646  0.3215 -1.3123
  328MOL0     H43255   0.371   1.983   4.766  0.7606  1.7390 -0.5341
  328MOL0     H43256   0.209   1.862   4.636  0.1235  0.5609  0.7249
  328MOL0     H43257   0.256   1.939   4.486 -1.1210  0.1007 -0.7249
  328MOL0     H43258  -0.007   2.237   4.701 -2.4626  0.4481  1.0122
  328MOL0     H43259  -0.251   2.228   4.686 -1.1659 -0.2301 -1.4512
  328MOL0     H43260  -0.574   2.004   4.233 -0.6017  0.1564  1.1300
  328MOL0     H43261  -0.805   1.969   4.186  1.1558 -1.0301 -0.7872
  328MOL0     H43262  -1.047   1.924   4.168 -3.5326  0.1401 -0.3087
  328MOL0     H43263  -1.021   2.029   4.307  1.1514  0.7252 -2.2007
  328MOL0     H43264  -1.258   1.985   4.248  1.7135  0.5819  0.6940
  328MOL0     H43265  -1.224   1.913   4.412 -1.6079  0.0642  0.1536
  328MOL0     H43266  -1.206   1.683   4.302 -0.8617 -0.3835 -0.2976
  328MOL0     H43267  -1.240   1.754   4.149 -2.2496 -0.5521 -0.4105
  328MOL0     H43268  -1.430   1.810   4.375 -0.1666  2.3612 -1.3672
  328MOL0     H43269  -1.460   1.848   4.210 -0.2367  0.9873  0.4429
  328MOL0     H43270  -1.403   1.556   4.292 -0.0153  0.5913  1.5934
  328MOL0     H43271  -1.457   1.621   4.136  1.3681 -0.5026  0.3585
  328MOL0     H43272  -1.655   1.692   4.217  1.4669  2.2213  0.9045
  328MOL0     H43273  -1.610   1.670   4.388 -1.6709 -1.0549  0.4805
  328MOL0     H43274  -1.615   1.431   4.210  0.7041  1.4829 -1.2371
  328MOL0     H43275  -1.648   1.433   4.388  0.4252 -1.6719 -0.2200
  328MOL0     H43276  -1.855   1.395   4.244 -0.7804  0.5428 -0.6214
  328MOL0     H43277  -1.849   1.564   4.200  1.0268 -0.1860 -0.6555
  328MOL0     H43278  -0.843   1.778   4.580  1.5689 -0.6654 -0.4469
  328MOL0     H43279  -0.618   1.829   4.620 -2.7725 -3.0645  1.2821
  328MOL0     H43280  -0.214   1.829   4.502  1.0140  0.3518 -1.1228
  328MOL0     H43281   0.019   1.849   4.516  1.4047  1.7651 -2.2735
  328MOL0     H43282   1.479   2.343   4.451  0.4934 -0.9937 -0.9263
  328MOL0     H43283   1.725   2.382   4.397  2.0819 -1.8797 -1.6360
  328MOL0     H43284   2.100   2.105   4.346  0.6488 -0.6725 -0.7841
  328MOL0     H43285   2.333   2.079   4.244  1.2674 -0.3666  0.7130
  328MOL0     H43286   2.640   2.331   4.422 -0.1015  1.3368 -1.1380
  328MOL0     H43287   2.636   2.410   4.261 -0.8478 -0.2247 -0.8603
  328MOL0     H43288   2.849   2.346   4.312 -2.0408  1.4962 -2.1332
  328MOL0     H43289   2.794   2.169   4.335 -0.7593 -1.9088 -2.5298
  328MOL0     H43290   2.759   2.312   4.087 -0.0340 -0.1179  0.9463
  328MOL0     H43291   2.766   2.129   4.117 -0.5403 -0.1393 -1.0787
  328MOL0     H43292   2.948   2.224   3.978  2.1350  0.3146  0.0763
  328MOL0     H43293   3.010   2.315   4.102 -1.8201  1.4229 -3.2206
  328MOL0     H43294   3.138   1.942   4.239  0.9899  0.8544 -0.8351
  328MOL0     H43295   2.443   2.464   4.387 -0.9683  1.9101 -1.3449
  328MOL0     H43296   2.210   2.501   4.472  0.2482 -0.0926 -0.6501
  329MOL0     O43297   0.667   7.833   1.358 -0.7359  0.6503 -0.2403
  329MOL0     C43298   0.568   7.865   1.291  0.6164  0.2468 -1.3976
  329MOL0     O43299   0.446   7.898   1.349  0.0937  1.2099  0.2230
  329MOL0     C43300   0.420   7.871   1.482  0.2117  0.0015 -0.4107
  329MOL0     C43301   0.473   7.764   1.557 -0.0904  0.4655  0.4207
  329MOL0     C43302   0.425   7.726   1.685  0.6110 -0.2250  0.3559
  329MOL0     C43303   0.326   7.807   1.746  0.2559 -0.1404 -0.2395
  329MOL0     O43304   0.289   7.801   1.876  0.1713  0.5281  0.1438
  329MOL0     C43305   0.310   7.680   1.949 -0.0238 -0.4023  0.4814
  329MOL0     C43306   0.237   7.691   2.086  0.6049  0.0020  0.3008
  329MOL0     C43307   0.083   7.683   2.081 -1.0180 -0.0127 -0.6517
  329MOL0     C43308   0.009   7.676   2.213  0.8815  0.3625 -0.2121
  329MOL0     C43309  -0.140   7.664   2.193  0.2410  0.4468  0.0819
  329MOL0     C43310  -0.206   7.634   2.326  0.3092 -0.2247  0.1167
  329MOL0     C43311  -0.185   7.743   2.433  0.3164  0.0300  0.8079
  329MOL0     C43312  -0.293   7.849   2.417  0.2278 -0.5792  0.4679
  329MOL0     N43313  -0.409   7.825   2.502  0.5203 -0.5386 -0.1874
  329MOL0     C43314  -0.398   7.826   2.636 -0.4190  0.3410  0.3811
  329MOL0     C43315  -0.511   7.768   2.688 -0.5676 -1.0906 -0.4075
  329MOL0     C43316  -0.555   7.771   2.836 -0.9576  0.5043 -0.7115
  329MOL0     C43317  -0.545   7.642   2.909 -0.0536 -0.0190  0.1002
  329MOL0     C43318  -0.599   7.654   3.052 -0.0538  0.8984 -0.1319
  329MOL0     C43319  -0.750   7.614   3.067  0.6759  0.6570  0.4184
  329MOL0     O43320  -0.835   7.692   2.983  0.1674 -0.3437 -0.0959
  329MOL0     C43321  -0.968   7.712   2.999  0.0096  0.2974 -0.3795
  329MOL0     C43322  -1.032   7.800   2.928 -0.2390 -0.3292 -0.0710
  329MOL0     C43323  -1.172   7.836   2.956 -0.0901  0.2645 -0.9102
  329MOL0     C43324  -1.256   7.763   3.050 -0.4736 -0.1548  0.4139
  329MOL0     C43325  -1.397   7.789   3.083 -0.4703  0.4829 -0.8968
  329MOL0     O43326  -1.436   7.727   3.199  0.4693 -0.2653 -0.1837
  329MOL0     C43327  -1.565   7.715   3.233  0.3808 -0.2267 -1.2042
  329MOL0     C43328  -1.618   7.788   3.343  0.3496  1.2919  0.0194
  329MOL0     C43329  -1.756   7.796   3.378  0.5690  0.4628  0.3701
  329MOL0     C43330  -1.844   7.700   3.305 -0.0730 -0.6940 -0.1783
  329MOL0     O43331  -1.977   7.696   3.321 -0.8690  0.3939  0.8517
  329MOL0     C43332  -2.022   7.624   3.435  0.2478 -0.8170 -0.3575
  329MOL0     C43333  -2.179   7.626   3.453  0.1658 -0.6623  0.0497
  329MOL0     C43334  -2.243   7.752   3.401 -0.6732  0.0199 -0.1278
  329MOL0     C43335  -2.384   7.775   3.443 -0.4769 -0.3278  0.9222
  329MOL0     C43336  -2.433   7.915   3.401  0.0593  0.8244  0.0136
  329MOL0     C43337  -2.540   7.976   3.480 -0.2996 -0.7988 -0.2653
  329MOL0     C43338  -2.589   8.111   3.418 -0.1028 -0.0267 -0.0525
  329MOL0     C43339  -2.708   8.150   3.508  0.3199 -0.6704 -0.4964
  329MOL0    Cl43340  -2.861   8.055   3.464 -0.1743 -0.2280  0.1203
  329MOL0     C43341  -1.788   7.618   3.206 -0.8767  0.2100  0.3698
  329MOL0     C43342  -1.650   7.631   3.174  0.2032  1.0716  0.1233
  329MOL0     O43343  -1.473   7.837   3.002 -0.0140  0.3387 -0.2172
  329MOL0     C43344  -1.180   7.663   3.122 -0.6746 -0.3492 -0.0862
  329MOL0     C43345  -1.042   7.649   3.096  0.5230  0.7651 -0.0829
  329MOL0     N43346  -0.590   7.732   2.573 -0.7380  1.2901  0.1640
  329MOL0     N43347  -0.521   7.762   2.470 -0.4903 -0.5780 -0.3315
  329MOL0     C43348   0.272   7.916   1.674 -0.5302  0.1575  0.2927
  329MOL0     C43349   0.323   7.953   1.546  0.8373 -0.2913 -0.1700
  329MOL0     C43350   0.586   7.877   1.150 -0.6663 -0.3361  0.1539
  329MOL0     C43351   0.483   7.859   1.059  0.3489  0.1168 -0.3204
  329MOL0     C43352   0.502   7.891   0.927  0.2923 -0.0723  0.0670
  329MOL0     C43353   0.632   7.911   0.873  0.0784  0.0861 -0.0238
  329MOL0     O43354   0.679   7.909   0.743  0.2835 -0.4467  0.4531
  329MOL0     C43355   0.574   7.884   0.647 -0.2241 -1.2219  0.9565
  329MOL0     C43356   0.655   7.846   0.530  0.0026 -1.1512  0.1119
  329MOL0     C43357   0.566   7.813   0.404  0.6097  0.2838  0.0582
  329MOL0     C43358   0.639   7.792   0.267  0.6187  0.5580  0.9810
  329MOL0     C43359   0.725   7.901   0.211  0.6552  0.7532  0.0150
  329MOL0     C43360   0.789   7.990   0.157 -0.0654 -0.4689 -0.0078
  329MOL0     C43361   0.736   7.919   0.967  0.5522  0.1607 -0.8409
  329MOL0     C43362   0.709   7.913   1.104 -0.4383 -0.1686 -0.0688
  329MOL0     H43363   0.532   7.687   1.508 -2.0161  0.0011 -1.3084
  329MOL0     H43364   0.469   7.639   1.732  1.9766  0.4313  0.3339
  329MOL0     H43365   0.416   7.674   1.977 -0.7584 -1.1433  3.5032
  329MOL0     H43366   0.270   7.590   1.902  0.7877 -1.5855  1.9339
  329MOL0     H43367   0.267   7.783   2.137  0.4810 -0.3341  0.9977
  329MOL0     H43368   0.270   7.606   2.147 -0.5272  0.2595  1.3370
  329MOL0     H43369   0.051   7.599   2.020 -0.5905 -0.5674 -0.1227
  329MOL0     H43370   0.035   7.767   2.031 -0.0070  1.7887  1.2213
  329MOL0     H43371   0.043   7.592   2.275 -0.7470 -0.7599 -0.7882
  329MOL0     H43372   0.033   7.770   2.264  0.3962  0.8059 -0.7918
  329MOL0     H43373  -0.156   7.581   2.124 -4.1900  0.2345  1.0886
  329MOL0     H43374  -0.183   7.754   2.147  0.1120  0.2384 -0.2066
  329MOL0     H43375  -0.156   7.542   2.357  0.4535  0.5146  2.3011
  329MOL0     H43376  -0.312   7.613   2.311  0.4855 -0.5390 -0.7170
  329MOL0     H43377  -0.198   7.693   2.530  1.1754  0.8533  1.3622
  329MOL0     H43378  -0.083   7.782   2.441  0.4607 -0.0917 -0.3658
  329MOL0     H43379  -0.319   7.859   2.312 -0.0651  2.3225  0.7342
  329MOL0     H43380  -0.251   7.948   2.438  0.2637 -0.0943 -1.6685
  329MOL0     H43381  -0.318   7.876   2.689 -0.5435 -1.6798  2.6503
  329MOL0     H43382  -0.662   7.796   2.838 -0.5922  2.1502  1.1380
  329MOL0     H43383  -0.506   7.849   2.894  1.3078 -0.8856 -0.6380
  329MOL0     H43384  -0.445   7.598   2.910  0.8941  1.7063 -3.2210
  329MOL0     H43385  -0.604   7.574   2.847 -0.7302  0.8138 -0.1949
  329MOL0     H43386  -0.528   7.600   3.115 -0.5710  0.7403  0.3274
  329MOL0     H43387  -0.596   7.759   3.080  1.6425  0.6411  0.7588
  329MOL0     H43388  -0.777   7.629   3.172 -0.1131 -0.9167  0.4738
  329MOL0     H43389  -0.760   7.510   3.036 -0.6381  1.2668 -1.3819
  329MOL0     H43390  -0.982   7.840   2.840  1.7700 -0.1963  1.0588
  329MOL0     H43391  -1.205   7.918   2.893  0.3691  3.6522  2.8091
  329MOL0     H43392  -1.551   7.855   3.395  1.3489 -2.3537  3.9665
  329MOL0     H43393  -1.805   7.853   3.455  2.1507  0.7555  1.2006
  329MOL0     H43394  -1.976   7.673   3.521 -0.6514  2.6851 -1.6974
  329MOL0     H43395  -1.987   7.520   3.435 -1.8575 -1.5939  1.7926
  329MOL0     H43396  -2.204   7.603   3.557 -1.2879 -3.4356 -0.8234
  329MOL0     H43397  -2.218   7.536   3.405 -2.9393 -0.6871  2.2952
  329MOL0     H43398  -2.247   7.769   3.293 -1.2144 -1.6283 -0.3903
  329MOL0     H43399  -2.180   7.832   3.440  0.8826 -1.6991  1.0531
  329MOL0     H43400  -2.442   7.703   3.384  0.8101 -0.2121 -0.5187
  329MOL0     H43401  -2.395   7.773   3.552  0.0129  1.4006  1.0396
  329MOL0     H43402  -2.460   7.908   3.295 -0.9270 -2.1098  0.3688
  329MOL0     H43403  -2.352   7.988   3.409 -1.3218  2.4816 -0.4888
  329MOL0     H43404  -2.503   7.996   3.581 -0.8411 -3.1699  0.4578
  329MOL0     H43405  -2.615   7.897   3.490  1.4112 -2.7389 -1.7768
  329MOL0     H43406  -2.513   8.189   3.432 -0.5477 -0.0062  2.8567
  329MOL0     H43407  -2.623   8.104   3.315 -0.1485 -0.9770  0.0133
  329MOL0     H43408  -2.729   8.256   3.491  1.3901 -0.5905 -1.3841
  329MOL0     H43409  -2.695   8.149   3.616  0.4518 -1.8278 -0.5061
  329MOL0     H43410  -1.852   7.549   3.152 -0.3270 -1.4074  1.7173
  329MOL0     H43411  -1.613   7.576   3.087  0.3815 -1.1406  1.5046
  329MOL0     H43412  -1.212   7.587   3.192  0.6686 -1.6090 -0.8009
  329MOL0     H43413  -0.991   7.574   3.156 -0.1102  1.8653  1.9314
  329MOL0     H43414   0.189   7.961   1.728 -1.1733 -0.5708 -0.0911
  329MOL0     H43415   0.280   8.042   1.501 -0.9540 -2.2275 -2.5635
  329MOL0     H43416   0.385   7.835   1.099  0.7518  0.3901  0.8681
  329MOL0     H43417   0.415   7.898   0.862  1.6936  0.7313 -1.8179
  329MOL0     H43418   0.512   7.967   0.612  0.1072 -0.8986  1.1314
  329MOL0     H43419   0.512   7.799   0.679  0.5499 -2.7477 -1.3508
  329MOL0     H43420   0.715   7.934   0.509  1.7951 -1.7315  2.4505
  329MOL0     H43421   0.720   7.763   0.559  2.5385  0.7154  0.0217
  329MOL0     H43422   0.491   7.890   0.387  0.5880  0.5872  1.4371
  329MOL0     H43423   0.516   7.718   0.424 -0.5365  0.1490 -2.9544
  329MOL0     H43424   0.694   7.697   0.267  2.9923  1.8004 -0.8489
  329MOL0     H43425   0.554   7.769   0.203 -0.1649  1.0932  1.8080
  329MOL0     H43426   0.844   8.069   0.111 -0.3064 -0.2077  0.1474
  329MOL0     H43427   0.831   7.944   0.922  1.0333 -0.1491 -0.0227
  329MOL0     H43428   0.793   7.903   1.173  0.7862 -0.9027 -1.5914
  330MOL0     O43429   5.718   3.298  11.147  0.7118  0.4424  0.2226
  330MOL0     C43430   5.721   3.385  11.050  0.0282 -0.1660 -0.7586
  330MOL0     O43431   5.614   3.429  10.983  0.2384 -0.6362  0.0825
  330MOL0     C43432   5.493   3.353  10.987  0.4746 -0.1883 -0.0157
  330MOL0     C43433   5.411   3.344  11.098  0.1268  0.0187  0.3234
  330MOL0     C43434   5.282   3.296  11.078 -0.8008  0.4500 -0.0255
  330MOL0     C43435   5.244   3.250  10.959  0.5753  0.3744  0.9772
  330MOL0     O43436   5.117   3.201  10.953 -0.2841 -0.5954 -0.0836
  330MOL0     C43437   5.056   3.167  10.829  0.4261 -0.5118 -0.0399
  330MOL0     C43438   4.902   3.133  10.848 -0.1729 -0.2369 -0.2192
  330MOL0     C43439   4.829   3.255  10.908  0.0640 -0.4372 -0.4681
  330MOL0     C43440   4.697   3.215  10.970  0.4807 -0.2758 -0.9413
  330MOL0     C43441   4.602   3.145  10.867 -0.1148 -0.8792  0.3067
  330MOL0     C43442   4.474   3.103  10.934  0.2278 -0.1264  0.3061
  330MOL0     C43443   4.375   3.046  10.822 -0.2376 -0.0443 -0.7283
  330MOL0     C43444   4.228   3.027  10.878 -0.1936  0.6246  0.1003
  330MOL0     N43445   4.132   3.028  10.774  0.7361  0.3092 -0.5099
  330MOL0     C43446   4.133   2.968  10.654 -0.9752  0.3036 -0.0674
  330MOL0     C43447   4.013   3.004  10.600 -0.5165 -0.0244 -0.3918
  330MOL0     C43448   3.974   2.973  10.456  0.8468 -0.7832 -0.2238
  330MOL0     C43449   3.903   2.839  10.454 -0.7162  0.4102  0.0823
  330MOL0     C43450   3.883   2.773  10.312  0.3611 -0.6238  0.5648
  330MOL0     C43451   3.866   2.614  10.315  0.1211  0.5696 -1.0598
  330MOL0     O43452   3.807   2.556  10.199 -0.1097 -0.0565  0.1711
  330MOL0     C43453   3.679   2.585  10.165 -0.1627  0.2952  0.7860
  330MOL0     C43454   3.648   2.552  10.035  0.1530  0.9832 -0.2625
  330MOL0     C43455   3.519   2.583   9.990  0.1271 -0.8268 -0.3268
  330MOL0     C43456   3.415   2.632  10.070 -0.3112 -0.8124 -0.8748
  330MOL0     C43457   3.273   2.645  10.020  0.2349 -0.4099  0.0535
  330MOL0     O43458   3.170   2.619  10.104 -0.7789  0.5216  0.6964
  330MOL0     C43459   3.043   2.623  10.054 -0.6826 -1.1255  0.2472
  330MOL0     C43460   2.960   2.528  10.112  0.0526 -0.7260  0.0457
  330MOL0     C43461   2.828   2.527  10.074  0.2395  0.9039 -0.0074
  330MOL0     C43462   2.782   2.601   9.963 -0.0284  0.6054 -0.4794
  330MOL0     O43463   2.649   2.604   9.932 -0.7013 -0.5305  0.1514
  330MOL0     C43464   2.582   2.493   9.880 -0.2521  1.0516 -0.0233
  330MOL0     C43465   2.443   2.536   9.826 -0.4820  0.0742 -0.4385
  330MOL0     C43466   2.350   2.543   9.949 -0.8611 -0.1111  0.3825
  330MOL0     C43467   2.206   2.566   9.904  0.2175 -0.2935 -0.0958
  330MOL0     C43468   2.104   2.561  10.019  0.1912  1.2148  0.6412
  330MOL0     C43469   1.961   2.563   9.957 -0.0811 -1.1793 -0.1380
  330MOL0     C43470   1.855   2.593  10.069  0.3456  0.5308 -0.2045
  330MOL0     C43471   1.713   2.552  10.027  0.2118  0.0595 -0.2428
  330MOL0    Cl43472   1.591   2.608  10.152  0.4880 -0.0788 -0.1529
  330MOL0     C43473   2.871   2.697   9.914  0.5800  0.2433  0.4306
  330MOL0     C43474   2.995   2.714   9.960  1.3487 -0.3879  0.1131
  330MOL0     O43475   3.266   2.660   9.899  0.4915 -0.2832 -0.2865
  330MOL0     C43476   3.444   2.664  10.207  0.9496  0.2773 -0.5829
  330MOL0     C43477   3.578   2.647  10.250  0.5999  0.3330  0.0673
  330MOL0     N43478   3.942   3.082  10.688  0.2000  0.2938  0.7586
  330MOL0     N43479   4.010   3.086  10.792 -0.0799  0.6955 -0.3758
  330MOL0     C43480   5.326   3.253  10.849 -0.3392  0.1789 -0.5892
  330MOL0     C43481   5.447   3.311  10.865 -0.2277  0.3259  0.0372
  330MOL0     C43482   5.849   3.458  11.035 -0.3871  0.3480  0.1062
  330MOL0     C43483   5.966   3.403  11.082 -0.8033  0.6936 -0.5056
  330MOL0     C43484   6.087   3.464  11.069  0.2025 -0.7388  0.1960
  330MOL0     C43485   6.094   3.592  11.008  0.0672 -0.2430  0.3050
  330MOL0     O43486   6.208   3.671  10.986  0.8040 -0.0846 -0.1304
  330MOL0     C43487   6.343   3.619  11.020  1.6426  0.8773  0.0933
  330MOL0     C43488   6.447   3.720  10.981  0.2494 -0.4726 -0.2838
  330MOL0     C43489   6.457   3.845  11.063 -0.2822 -0.0688  0.2377
  330MOL0     C43490   6.484   3.824  11.219 -0.0678 -0.6136  0.3703
  330MOL0     C43491   6.454   3.957  11.285 -0.0842  0.2491 -0.6915
  330MOL0     C43492   6.437   4.058  11.353  0.8853  0.3803  0.4979
  330MOL0     C43493   5.979   3.656  10.958  0.6626  0.4019 -0.7283
  330MOL0     C43494   5.856   3.587  10.974 -0.1775 -0.3080  1.1151
  330MOL0     H43495   5.457   3.368  11.193  1.7859 -3.1476  0.4668
  330MOL0     H43496   5.216   3.283  11.162 -0.3385 -0.1393  0.2525
  330MOL0     H43497   5.108   3.082  10.783 -1.2266 -2.0254  0.7609
  330MOL0     H43498   5.058   3.256  10.767 -2.0897 -0.0342  0.4438
  330MOL0     H43499   4.901   3.046  10.915  1.5693  1.7507  2.6062
  330MOL0     H43500   4.866   3.102  10.749  0.4255  0.2376 -0.5898
  330MOL0     H43501   4.813   3.336  10.836 -0.3316  0.6203  0.7630
  330MOL0     H43502   4.891   3.299  10.986 -2.1881 -1.5073  2.0882
  330MOL0     H43503   4.706   3.145  11.054  0.7321  1.3068  0.4072
  330MOL0     H43504   4.642   3.299  11.014  2.2713  0.1345  0.6722
  330MOL0     H43505   4.650   3.056  10.825 -0.3524 -1.3864  1.0896
  330MOL0     H43506   4.579   3.211  10.783 -1.6370 -1.1739  0.4704
  330MOL0     H43507   4.429   3.183  10.993 -1.5849 -0.4090 -0.6301
  330MOL0     H43508   4.489   3.022  11.005 -0.5115  0.6139  1.3390
  330MOL0     H43509   4.381   3.110  10.733  3.2325  0.2241 -0.4514
  330MOL0     H43510   4.417   2.953  10.782 -2.5473 -0.9242 -1.2670
  330MOL0     H43511   4.200   3.098  10.956  0.6597 -0.1517  1.1313
  330MOL0     H43512   4.222   2.933  10.932 -1.7346  0.3899 -0.4209
  330MOL0     H43513   4.210   2.910  10.604 -1.1691  1.6955 -2.1038
  330MOL0     H43514   4.062   2.967  10.391 -1.1893 -0.7258 -3.1605
  330MOL0     H43515   3.908   3.051  10.418  0.5710 -0.4534  0.9072
  330MOL0     H43516   3.817   2.847  10.521  1.7021  0.5588  3.4206
  330MOL0     H43517   3.969   2.769  10.507 -1.6920  0.2131  1.0975
  330MOL0     H43518   3.800   2.825  10.263  0.3070 -0.7181  0.5548
  330MOL0     H43519   3.973   2.805  10.257 -0.7396  0.4693 -0.6729
  330MOL0     H43520   3.803   2.596  10.403  2.5124  3.4710  1.5027
  330MOL0     H43521   3.965   2.568  10.316 -0.4664 -0.7268 -0.5715
  330MOL0     H43522   3.725   2.502   9.978  1.4372  1.0985  1.2902
  330MOL0     H43523   3.494   2.549   9.890  1.3472 -1.2469 -0.5105
  330MOL0     H43524   2.991   2.464  10.194 -2.4944 -2.8934 -0.5341
  330MOL0     H43525   2.769   2.478  10.151  1.8617 -0.9451  0.1465
  330MOL0     H43526   2.564   2.407   9.946  1.1856  0.0382 -0.8890
  330MOL0     H43527   2.636   2.445   9.798  0.8197 -0.5310  1.5360
  330MOL0     H43528   2.412   2.461   9.752  0.5507 -1.7649  0.9442
  330MOL0     H43529   2.443   2.629   9.768 -2.7159 -1.9016 -3.9980
  330MOL0     H43530   2.381   2.629  10.010 -0.1618 -0.3097  0.3168
  330MOL0     H43531   2.357   2.456  10.015 -0.8900  0.3162  0.9562
  330MOL0     H43532   2.210   2.666   9.860  2.6455  0.1396  0.9456
  330MOL0     H43533   2.171   2.506   9.820  0.2246  2.6187 -2.3373
  330MOL0     H43534   2.114   2.646  10.088  0.8691  0.9697  0.8566
  330MOL0     H43535   2.128   2.469  10.073 -1.0639  1.1788  1.1672
  330MOL0     H43536   1.932   2.468   9.911 -2.5972  0.4682 -2.2764
  330MOL0     H43537   1.957   2.651   9.892 -0.0306  0.6496  2.1981
  330MOL0     H43538   1.876   2.521  10.149 -2.1420  0.3815  0.3833
  330MOL0     H43539   1.864   2.697  10.101  1.8448  0.4800 -0.3523
  330MOL0     H43540   1.723   2.443  10.027  2.6441  0.1734 -2.6522
  330MOL0     H43541   1.674   2.596   9.934 -3.2373  1.6685  1.7235
  330MOL0     H43542   2.837   2.761   9.833  2.1732 -1.6377 -1.8740
  330MOL0     H43543   3.063   2.787   9.919  2.9021 -1.5227  0.5759
  330MOL0     H43544   3.367   2.694  10.277  0.0590 -0.9210 -1.0254
  330MOL0     H43545   3.590   2.660  10.357  1.7260 -1.4613  0.1967
  330MOL0     H43546   5.289   3.218  10.753 -0.7765 -1.0764  0.0224
  330MOL0     H43547   5.500   3.320  10.770 -1.1956  1.7027 -0.3994
  330MOL0     H43548   5.964   3.306  11.132  0.2043  0.6344 -0.5685
  330MOL0     H43549   6.176   3.415  11.108 -1.0066 -2.9075  0.4062
  330MOL0     H43550   6.360   3.523  10.969 -1.0900 -0.6099  1.7000
  330MOL0     H43551   6.358   3.593  11.125 -3.1170  0.8616  1.0084
  330MOL0     H43552   6.547   3.675  10.991 -0.1606 -0.9989  1.9795
  330MOL0     H43553   6.447   3.744  10.874 -0.0296  1.2655  0.0841
  330MOL0     H43554   6.362   3.899  11.054  0.0748  0.5338  0.0290
  330MOL0     H43555   6.528   3.921  11.031 -2.1290  1.6752  0.0194
  330MOL0     H43556   6.423   3.747  11.268  3.0335 -1.3718  3.4788
  330MOL0     H43557   6.589   3.798  11.238  1.0716  3.1677  0.1938
  330MOL0     H43558   6.425   4.154  11.398  0.3572  1.6361 -2.1255
  330MOL0     H43559   5.982   3.748  10.901 -1.2246 -0.7730 -2.9055
  330MOL0     H43560   5.772   3.631  10.921  1.0423  0.3203 -0.3778
  331MOL0     O43561   7.673   9.361   1.271  0.2979 -0.3738 -0.0728
  331MOL0     C43562   7.658   9.316   1.383 -0.1189 -0.3442 -0.4384
  331MOL0     O43563   7.544   9.339   1.464 -0.4248 -0.3515  0.3089
  331MOL0     C43564   7.458   9.427   1.404  0.7765 -0.5126  0.2188
  331MOL0     C43565   7.489   9.560   1.372 -1.0001 -0.5894 -0.8926
  331MOL0     C43566   7.398   9.659   1.318  0.2155 -0.9586  0.6558
  331MOL0     C43567   7.264   9.620   1.305 -0.2758 -0.0686 -0.0079
  331MOL0     O43568   7.176   9.714   1.272 -0.1690  0.0474  0.5241
  331MOL0     C43569   7.054   9.675   1.207  0.4126 -1.8925  0.3441
  331MOL0     C43570   6.990   9.800   1.159 -0.9556  0.6439  0.2766
  331MOL0     C43571   6.872   9.765   1.071 -0.6516  0.5946 -0.8225
  331MOL0     C43572   6.805   9.890   1.019 -1.3011  0.5477 -0.3826
  331MOL0     C43573   6.680   9.864   0.937  0.1713  0.3326 -0.2319
  331MOL0     C43574   6.631   9.991   0.860 -0.3734  0.4785  0.1945
  331MOL0     C43575   6.499   9.973   0.805 -0.0022  0.6170  0.2134
  331MOL0     C43576   6.523   9.906   0.664 -0.1479  0.4598  0.7306
  331MOL0     N43577   6.405   9.864   0.591 -0.0898  0.2922 -0.3585
  331MOL0     C43578   6.282   9.918   0.600  0.0800 -0.4002 -0.5552
  331MOL0     C43579   6.205   9.840   0.520  0.4498  0.6985  0.2474
  331MOL0     C43580   6.059   9.851   0.493 -0.4602 -0.0710  0.6047
  331MOL0     C43581   5.963   9.792   0.590  0.3305 -0.1123 -0.1326
  331MOL0     C43582   5.998   9.806   0.741  0.0911  0.2940 -0.8175
  331MOL0     C43583   6.081   9.690   0.793 -0.4705  0.3783  0.4038
  331MOL0     O43584   6.118   9.698   0.935  0.0764 -0.2378 -0.2198
  331MOL0     C43585   6.237   9.638   0.975 -0.4208  0.8547  0.3731
  331MOL0     C43586   6.243   9.629   1.116 -0.7947  0.0995  0.7218
  331MOL0     C43587   6.353   9.566   1.179  0.8504 -0.5435  0.0607
  331MOL0     C43588   6.455   9.510   1.098  0.5431 -0.9680 -0.4258
  331MOL0     C43589   6.565   9.446   1.164 -0.2840  0.0750  0.6738
  331MOL0     O43590   6.560   9.446   1.300 -0.8837 -0.0277  0.0087
  331MOL0     C43591   6.662   9.382   1.379 -0.3517  0.2635  0.0637
  331MOL0     C43592   6.629   9.370   1.512 -1.0286 -0.5795  0.2540
  331MOL0     C43593   6.725   9.334   1.611 -0.4814  0.1004 -0.1421
  331MOL0     C43594   6.852   9.295   1.574  0.0960 -0.1225  0.2002
  331MOL0     O43595   6.935   9.264   1.674  0.0624  0.4821 -0.7489
  331MOL0     C43596   7.042   9.181   1.633  0.5038 -0.6932  0.2378
  331MOL0     C43597   7.117   9.123   1.753  0.9713  0.6874 -0.2316
  331MOL0     C43598   7.242   9.045   1.704  0.0442 -0.6892  0.0291
  331MOL0     C43599   7.292   8.963   1.829 -0.4354 -0.0801  0.0728
  331MOL0     C43600   7.431   8.905   1.792 -0.1766 -0.6495  0.0599
  331MOL0     C43601   7.481   8.824   1.913 -0.0765  0.1358 -0.2688
  331MOL0     C43602   7.627   8.771   1.911  0.0804  0.3035 -0.2692
  331MOL0     C43603   7.743   8.859   1.876  0.3077 -0.2634 -0.1180
  331MOL0    Cl43604   7.750   8.996   1.975 -0.3271 -0.2877 -0.5272
  331MOL0     C43605   6.881   9.309   1.438  0.0082 -0.5056 -0.4621
  331MOL0     C43606   6.794   9.345   1.343 -0.0756 -0.7625  0.1083
  331MOL0     O43607   6.647   9.386   1.091  0.4249 -0.6249 -0.2464
  331MOL0     C43608   6.453   9.530   0.956 -0.1707  0.2258 -0.8635
  331MOL0     C43609   6.344   9.594   0.894 -0.1368  0.3020 -0.2444
  331MOL0     N43610   6.282   9.739   0.455 -0.5972 -0.8491 -0.3699
  331MOL0     N43611   6.401   9.771   0.494  0.2396  0.2048  0.6120
  331MOL0     C43612   7.234   9.491   1.337  1.0215 -0.0280 -0.4473
  331MOL0     C43613   7.327   9.400   1.388 -0.9077  0.2821  0.5036
  331MOL0     C43614   7.762   9.219   1.435  0.0818 -0.4692  0.1722
  331MOL0     C43615   7.885   9.189   1.370  0.6705  0.2936  0.4132
  331MOL0     C43616   7.992   9.119   1.435 -0.5892 -0.1002  0.5491
  331MOL0     C43617   7.979   9.076   1.564  1.4678  0.3808 -0.1878
  331MOL0     O43618   8.085   8.999   1.623 -0.4141 -0.7348  0.0087
  331MOL0     C43619   8.060   8.922   1.745 -0.8534  0.6919  0.2977
  331MOL0     C43620   8.199   8.863   1.789  0.1571  0.1274  0.8118
  331MOL0     C43621   8.298   8.957   1.863  0.1569  0.4630 -0.2003
  331MOL0     C43622   8.322   9.097   1.809 -0.3885 -0.2502  0.7754
  331MOL0     C43623   8.222   9.182   1.860 -0.7317 -0.4209  0.2308
  331MOL0     C43624   8.125   9.241   1.891 -0.5955 -0.4921 -0.8168
  331MOL0     C43625   7.848   9.088   1.622 -0.3255 -0.0342  0.8695
  331MOL0     C43626   7.744   9.168   1.562  0.0689  0.2023  0.0215
  331MOL0     H43627   7.595   9.576   1.391 -1.4085 -0.9278  2.1707
  331MOL0     H43628   7.426   9.761   1.297 -0.3016 -1.2596 -1.7839
  331MOL0     H43629   6.985   9.635   1.282 -1.7005  1.1361  0.2068
  331MOL0     H43630   7.064   9.613   1.118 -0.0381 -2.6943  0.8402
  331MOL0     H43631   7.059   9.859   1.097 -3.2404  1.8194 -1.3107
  331MOL0     H43632   6.968   9.858   1.249  1.5533 -0.8828  1.9657
  331MOL0     H43633   6.794   9.723   1.135 -0.3665  2.0655  0.5630
  331MOL0     H43634   6.902   9.706   0.985  1.2229 -0.8306  0.7120
  331MOL0     H43635   6.771   9.951   1.103  0.6049  0.9917  0.1182
  331MOL0     H43636   6.878   9.951   0.965 -0.9582  2.5431  2.1429
  331MOL0     H43637   6.603   9.844   1.011  1.0923 -0.2239  0.5947
  331MOL0     H43638   6.694   9.779   0.869 -0.1593  0.6859 -0.7533
  331MOL0     H43639   6.702  10.024   0.784 -0.0729 -1.4283 -0.3937
  331MOL0     H43640   6.627  10.075   0.931  0.3945  1.1684 -0.5493
  331MOL0     H43641   6.436   9.923   0.879 -3.2939  1.8405 -1.5226
  331MOL0     H43642   6.455  10.073   0.794 -2.0539 -0.3035 -0.3605
  331MOL0     H43643   6.565   9.805   0.671 -3.5569 -1.0871  0.6512
  331MOL0     H43644   6.576   9.975   0.597 -0.5549  0.2607  0.1890
  331MOL0     H43645   6.250   9.994   0.670 -0.4471 -2.0847  1.1240
  331MOL0     H43646   6.036   9.814   0.393 -3.4346 -0.5945  1.3874
  331MOL0     H43647   6.042   9.959   0.493  0.7606  0.1405  0.6248
  331MOL0     H43648   5.958   9.685   0.566  1.5155 -0.3598  0.6090
  331MOL0     H43649   5.863   9.834   0.577  0.0297 -0.7356  0.1038
  331MOL0     H43650   6.038   9.905   0.766  0.0590 -0.2083  1.4499
  331MOL0     H43651   5.906   9.805   0.800  0.4800  2.0602 -0.1324
  331MOL0     H43652   6.165   9.672   0.725  0.1242 -0.2304  1.2846
  331MOL0     H43653   6.023   9.600   0.774 -0.1529  0.4631 -1.1134
  331MOL0     H43654   6.162   9.668   1.176 -3.6591 -3.6556 -0.2836
  331MOL0     H43655   6.354   9.551   1.287  3.4232 -0.0143  0.1736
  331MOL0     H43656   6.526   9.397   1.533 -0.4954  1.2925  0.6354
  331MOL0     H43657   6.688   9.345   1.712  1.7489  2.6747  0.4931
  331MOL0     H43658   7.117   9.248   1.590  0.6960 -0.8180  0.3745
  331MOL0     H43659   7.013   9.101   1.564 -0.2344  0.5079 -0.8919
  331MOL0     H43660   7.046   9.058   1.806 -0.1625  0.5515 -1.8409
  331MOL0     H43661   7.151   9.200   1.823  0.0831  0.3804  0.5791
  331MOL0     H43662   7.319   9.119   1.682 -1.3986  0.6735 -0.6606
  331MOL0     H43663   7.221   8.991   1.611  1.7395  1.6562 -1.8487
  331MOL0     H43664   7.301   9.035   1.911  1.5236  1.8495 -1.7007
  331MOL0     H43665   7.233   8.875   1.857 -0.3652  0.7284  3.0880
  331MOL0     H43666   7.498   8.988   1.770  1.0145 -1.3138  1.0688
  331MOL0     H43667   7.421   8.835   1.708 -0.8399 -2.0092  1.2325
  331MOL0     H43668   7.420   8.735   1.932 -0.8205  0.1905 -2.2272
  331MOL0     H43669   7.466   8.890   1.999 -0.7510  1.0144 -1.0546
  331MOL0     H43670   7.648   8.718   2.004 -2.2102  1.4053  0.9563
  331MOL0     H43671   7.630   8.694   1.834 -0.9678 -0.1996  0.1713
  331MOL0     H43672   7.726   8.904   1.778  3.0130  2.0047  0.3300
  331MOL0     H43673   7.840   8.811   1.864 -0.3017 -1.6718  0.3945
  331MOL0     H43674   6.983   9.303   1.402 -0.5602  3.5918 -3.4215
  331MOL0     H43675   6.837   9.356   1.244  0.4780  0.8708  0.5013
  331MOL0     H43676   6.536   9.495   0.896 -0.2654  0.2205 -0.9910
  331MOL0     H43677   6.342   9.597   0.785 -2.6764  2.3732 -0.2346
  331MOL0     H43678   7.139   9.445   1.313  1.1677 -0.6977  0.2223
  331MOL0     H43679   7.302   9.301   1.425 -1.5018 -0.0197 -0.6480
  331MOL0     H43680   7.894   9.215   1.265 -2.4505 -2.9343 -0.8361
  331MOL0     H43681   8.084   9.099   1.381  1.0983  2.0044  2.4179
  331MOL0     H43682   7.992   8.838   1.726 -0.8103 -0.3385  3.9630
  331MOL0     H43683   8.010   8.982   1.821 -3.1668  1.0381 -1.3859
  331MOL0     H43684   8.171   8.775   1.847 -0.1701  0.1820  0.7408
  331MOL0     H43685   8.245   8.828   1.697 -0.0407 -0.9903  1.1307
  331MOL0     H43686   8.391   8.900   1.868  0.6886  1.4174  2.9671
  331MOL0     H43687   8.274   8.958   1.970  2.5665 -2.5489  0.5376
  331MOL0     H43688   8.423   9.128   1.839 -0.9597  0.5517  1.9319
  331MOL0     H43689   8.324   9.097   1.700  2.6342  0.2489  0.7548
  331MOL0     H43690   8.038   9.298   1.917 -0.3270 -0.3718 -0.1687
  331MOL0     H43691   7.834   9.048   1.722 -0.9524 -1.2200  0.3244
  331MOL0     H43692   7.663   9.185   1.633 -1.2784  0.3466 -1.4744
  332MOL0     O43693   1.282   0.886   4.495 -0.0555  0.9249  0.2081
  332MOL0     C43694   1.381   0.939   4.545  0.5641  0.2199 -0.2506
  332MOL0     O43695   1.370   1.042   4.640  0.5471  0.3777  0.7171
  332MOL0     C43696   1.241   1.074   4.685 -1.1569 -0.5611  0.6502
  332MOL0     C43697   1.121   1.097   4.611 -0.6829  0.3119  0.3122
  332MOL0     C43698   1.001   1.147   4.666  0.0992 -0.3958  0.0713
  332MOL0     C43699   1.000   1.168   4.806 -0.6296  0.4547 -0.0676
  332MOL0     O43700   0.888   1.221   4.875  0.2488 -0.6241  0.3866
  332MOL0     C43701   0.756   1.206   4.820  0.5163  0.2334 -0.4501
  332MOL0     C43702   0.667   1.257   4.930  0.3302 -0.2360 -0.3081
  332MOL0     C43703   0.525   1.207   4.908 -0.6235 -0.5203  0.0448
  332MOL0     C43704   0.444   1.270   5.025 -0.4528  0.2300  0.7214
  332MOL0     C43705   0.298   1.247   5.006  0.3684  0.3358 -0.4880
  332MOL0     C43706   0.228   1.290   5.131 -0.1452 -0.4063  0.0745
  332MOL0     C43707   0.088   1.315   5.083 -0.1752 -1.2449  0.1698
  332MOL0     C43708  -0.012   1.282   5.189 -0.1733 -0.3439  0.5591
  332MOL0     N43709  -0.150   1.337   5.166  1.0148  0.0773 -0.0440
  332MOL0     C43710  -0.252   1.297   5.087 -0.7588  0.1566  0.1951
  332MOL0     C43711  -0.354   1.383   5.104  0.1107  0.4954  0.1647
  332MOL0     C43712  -0.492   1.362   5.062 -0.1860 -0.1193 -0.0950
  332MOL0     C43713  -0.588   1.385   5.188 -0.5101  0.1090 -0.0717
  332MOL0     C43714  -0.737   1.355   5.148  0.2992  0.4252 -0.5459
  332MOL0     C43715  -0.805   1.485   5.134  0.1980  0.3102 -0.8020
  332MOL0     O43716  -0.931   1.474   5.076 -0.6474  0.0036  0.3221
  332MOL0     C43717  -1.034   1.412   5.149 -0.0230 -0.3026  0.6185
  332MOL0     C43718  -1.152   1.395   5.080  0.8686 -0.4587  0.4366
  332MOL0     C43719  -1.255   1.326   5.142 -0.2189 -0.8394  1.0366
  332MOL0     C43720  -1.246   1.287   5.275 -0.7045 -0.1485  0.3203
  332MOL0     C43721  -1.366   1.229   5.348 -0.2484 -0.4184 -0.4940
  332MOL0     O43722  -1.486   1.248   5.272 -0.8377 -0.1244 -0.4151
  332MOL0     C43723  -1.604   1.207   5.330 -0.9328 -0.3789 -0.4465
  332MOL0     C43724  -1.624   1.074   5.379  0.0863  0.0687  0.2594
  332MOL0     C43725  -1.742   1.038   5.450 -0.4459  0.2728  0.1568
  332MOL0     C43726  -1.841   1.135   5.458 -0.0247 -0.2557 -0.0000
  332MOL0     O43727  -1.946   1.139   5.539 -0.4376 -0.0290  0.4600
  332MOL0     C43728  -1.980   1.015   5.608  0.5930 -0.2904  0.8508
  332MOL0     C43729  -2.111   1.049   5.681 -0.1263  0.1635  0.3462
  332MOL0     C43730  -2.169   0.921   5.735  0.1593  0.2970 -0.9814
  332MOL0     C43731  -2.314   0.945   5.783 -0.1772  0.0789  0.1905
  332MOL0     C43732  -2.377   0.833   5.869 -0.1254  0.3311  0.0033
  332MOL0     C43733  -2.508   0.871   5.945  0.0812  0.3211 -0.0385
  332MOL0     C43734  -2.627   0.909   5.852 -0.9502  0.6922  0.2041
  332MOL0     C43735  -2.681   0.783   5.783 -0.7249  0.1089  1.1075
  332MOL0    Cl43736  -2.740   0.665   5.897  0.0306  0.1207  0.1574
  332MOL0     C43737  -1.818   1.264   5.401  0.3263  0.2886 -0.3802
  332MOL0     C43738  -1.701   1.300   5.338  0.0745 -0.3174  0.2534
  332MOL0     O43739  -1.367   1.179   5.464 -0.4849  0.8150 -0.1316
  332MOL0     C43740  -1.131   1.318   5.349  0.5839  0.4419  0.6290
  332MOL0     C43741  -1.024   1.378   5.289 -0.5293 -0.4236  0.4222
  332MOL0     N43742  -0.318   1.474   5.191  0.1571  0.7300 -0.5976
  332MOL0     N43743  -0.201   1.440   5.234  0.9144 -0.2975  0.8658
  332MOL0     C43744   1.116   1.154   4.878  0.6397  0.5576  0.0839
  332MOL0     C43745   1.235   1.113   4.821  0.3278 -0.3145 -0.2076
  332MOL0     C43746   1.517   0.908   4.504 -0.0212 -0.2820  0.5807
  332MOL0     C43747   1.623   0.957   4.583  0.5411  0.4536 -0.0670
  332MOL0     C43748   1.754   0.931   4.551  0.0969 -0.4781  0.7555
  332MOL0     C43749   1.790   0.841   4.449 -0.6916  0.7810  0.1507
  332MOL0     O43750   1.919   0.808   4.433 -0.5277  0.2740  0.5369
  332MOL0     C43751   1.966   0.729   4.317 -0.0436  0.1040 -1.0639
  332MOL0     C43752   2.117   0.728   4.313 -0.0147  0.0294  0.1741
  332MOL0     C43753   2.175   0.661   4.433 -0.3418  0.4912 -0.6086
  332MOL0     C43754   2.326   0.637   4.437 -0.0300  0.8549  0.0727
  332MOL0     C43755   2.374   0.537   4.348 -0.9432  0.8324 -0.5507
  332MOL0     C43756   2.423   0.448   4.280  0.7940  0.1793 -0.5971
  332MOL0     C43757   1.680   0.797   4.370 -0.1643  0.1995 -0.8613
  332MOL0     C43758   1.551   0.840   4.392 -0.1258 -0.3649 -0.1099
  332MOL0     H43759   1.126   1.091   4.503 -3.6326  1.7984 -0.0143
  332MOL0     H43760   0.922   1.194   4.609 -0.6194 -1.1936  0.3890
  332MOL0     H43761   0.744   1.101   4.794 -1.3630  0.0889  0.8260
  332MOL0     H43762   0.746   1.269   4.731  3.9659 -0.5859 -1.5625
  332MOL0     H43763   0.675   1.366   4.925 -1.2364  0.1510  2.9753
  332MOL0     H43764   0.691   1.217   5.029  2.8280  0.6486 -0.4678
  332MOL0     H43765   0.526   1.098   4.915 -0.1868 -0.6053 -1.1337
  332MOL0     H43766   0.482   1.238   4.813  1.4063  1.2287 -0.3729
  332MOL0     H43767   0.483   1.216   5.112 -0.0850 -1.0541 -0.2136
  332MOL0     H43768   0.465   1.378   5.028 -0.3053  0.1796  1.9840
  332MOL0     H43769   0.264   1.143   4.998  1.6765 -0.1262 -0.3004
  332MOL0     H43770   0.261   1.315   4.928 -0.9242  1.6064  1.1524
  332MOL0     H43771   0.263   1.380   5.180 -2.0218 -0.8897  2.5093
  332MOL0     H43772   0.221   1.207   5.202 -1.2581 -1.4660 -1.1968
  332MOL0     H43773   0.079   1.418   5.046  0.4344 -0.0834  3.0149
  332MOL0     H43774   0.063   1.246   5.002  0.4429 -2.9227  1.3672
  332MOL0     H43775   0.029   1.322   5.282  2.8894  0.7504 -1.1352
  332MOL0     H43776  -0.014   1.173   5.197 -2.0777 -0.2455  2.5040
  332MOL0     H43777  -0.246   1.212   5.019  2.4041 -0.8129  1.5027
  332MOL0     H43778  -0.503   1.257   5.033 -0.8681 -0.0265 -0.2085
  332MOL0     H43779  -0.524   1.420   4.975  1.2219  0.4680 -0.2418
  332MOL0     H43780  -0.581   1.478   5.245 -3.1017 -0.0983  0.7074
  332MOL0     H43781  -0.549   1.310   5.257  1.2616  2.2899  1.4338
  332MOL0     H43782  -0.744   1.313   5.047 -3.5598 -0.5822  0.0019
  332MOL0     H43783  -0.786   1.285   5.216  1.8753 -0.8090 -0.6086
  332MOL0     H43784  -0.747   1.534   5.055  0.6260  0.3990 -0.4315
  332MOL0     H43785  -0.805   1.535   5.231 -2.5110 -1.0906  0.0225
  332MOL0     H43786  -1.162   1.422   4.976 -0.6927  0.4024  0.7783
  332MOL0     H43787  -1.346   1.308   5.086  1.5005  0.5665 -2.5719
  332MOL0     H43788  -1.544   1.000   5.381  0.5780  0.5415 -0.8585
  332MOL0     H43789  -1.745   0.946   5.507 -0.1241 -0.9074 -1.6517
  332MOL0     H43790  -1.908   0.999   5.688  0.5369  0.2299  1.0104
  332MOL0     H43791  -2.000   0.934   5.538 -2.3796  1.0394 -0.0042
  332MOL0     H43792  -2.181   1.094   5.610 -1.2486  0.0437  1.3552
  332MOL0     H43793  -2.092   1.114   5.766  0.9722  2.9375 -1.8320
  332MOL0     H43794  -2.114   0.872   5.816 -0.4567  0.8533 -0.2123
  332MOL0     H43795  -2.177   0.836   5.667  0.2329 -1.1687  0.7739
  332MOL0     H43796  -2.319   1.038   5.839 -2.5707  0.2338 -0.1680
  332MOL0     H43797  -2.376   0.970   5.696 -0.3490  2.4549  0.9306
  332MOL0     H43798  -2.300   0.796   5.936  0.3379  3.4824  1.3349
  332MOL0     H43799  -2.404   0.744   5.809 -0.2708  0.3267  0.0737
  332MOL0     H43800  -2.489   0.958   6.009 -1.3851  2.4839 -2.3592
  332MOL0     H43801  -2.543   0.797   6.017  2.9497 -2.2421 -1.0831
  332MOL0     H43802  -2.708   0.956   5.908 -0.5671 -0.0887  1.4563
  332MOL0     H43803  -2.600   0.973   5.768 -0.6563  0.0555 -0.1966
  332MOL0     H43804  -2.596   0.742   5.727  2.4670  1.6093  4.4041
  332MOL0     H43805  -2.760   0.814   5.715  0.5892  1.4101  0.1144
  332MOL0     H43806  -1.889   1.344   5.425  1.0069  0.2869  1.9268
  332MOL0     H43807  -1.681   1.396   5.291 -1.0610 -0.1442  0.1013
  332MOL0     H43808  -1.132   1.293   5.454 -0.9948  1.2861  0.8634
  332MOL0     H43809  -0.934   1.392   5.347  1.6793 -1.0472 -2.5911
  332MOL0     H43810   1.112   1.178   4.984  0.2503 -3.1363  1.0532
  332MOL0     H43811   1.322   1.107   4.885 -0.0883 -1.0494  0.3122
  332MOL0     H43812   1.597   1.018   4.669 -4.1416 -1.8075  0.4585
  332MOL0     H43813   1.826   0.979   4.616 -0.8750  2.0744  0.0753
  332MOL0     H43814   1.919   0.761   4.223  0.4249  0.1996 -1.2659
  332MOL0     H43815   1.936   0.624   4.323 -1.0937  0.4281 -0.1962
  332MOL0     H43816   2.141   0.678   4.219 -1.5316  1.1340 -0.8475
  332MOL0     H43817   2.142   0.834   4.308  0.9787 -0.2375 -0.9429
  332MOL0     H43818   2.119   0.568   4.446  0.1880  0.1734 -0.5871
  332MOL0     H43819   2.161   0.730   4.516  1.0240  1.5832 -1.2248
  332MOL0     H43820   2.359   0.739   4.413  0.5734  1.0452  1.5712
  332MOL0     H43821   2.358   0.604   4.537 -1.1818 -0.1396  0.1296
  332MOL0     H43822   2.456   0.362   4.225 -1.0489  0.2803 -1.9744
  332MOL0     H43823   1.684   0.717   4.297  0.0148 -0.8795  0.2848
  332MOL0     H43824   1.476   0.802   4.324 -1.0529 -1.5926  1.5321
  333MOL0     O43825   6.005   2.431   7.789 -0.0466  0.1316  1.1273
  333MOL0     C43826   6.067   2.471   7.690 -0.9337  1.3073  0.0273
  333MOL0     O43827   6.023   2.560   7.598  0.3275 -0.1922 -0.1783
  333MOL0     C43828   5.900   2.628   7.606  0.1988  0.5846 -0.8106
  333MOL0     C43829   5.846   2.650   7.487 -0.2184 -0.0185 -0.4053
  333MOL0     C43830   5.732   2.721   7.474 -0.1314  0.0834 -0.3703
  333MOL0     C43831   5.675   2.786   7.578 -1.1641 -0.1617 -0.5501
  333MOL0     O43832   5.552   2.856   7.579 -0.3704  0.6043 -0.7543
  333MOL0     C43833   5.471   2.875   7.464  0.4088 -0.2070 -0.1719
  333MOL0     C43834   5.359   2.960   7.505 -0.2445  0.7190 -0.3645
  333MOL0     C43835   5.236   2.967   7.403 -0.9400  0.1361  0.6994
  333MOL0     C43836   5.270   3.037   7.264  0.4442  0.1163  0.1338
  333MOL0     C43837   5.147   3.059   7.186 -0.1555  0.5918  0.2037
  333MOL0     C43838   5.053   2.932   7.174  0.3616 -1.0280  0.7137
  333MOL0     C43839   4.946   2.960   7.062  0.3388 -0.1019  0.4378
  333MOL0     C43840   4.865   2.833   7.028  0.3263  0.1880  0.4965
  333MOL0     N43841   4.800   2.776   7.148 -1.1949  0.0124  0.3426
  333MOL0     C43842   4.713   2.838   7.230  0.5109 -0.3458  0.0190
  333MOL0     C43843   4.684   2.759   7.339  0.3181 -1.1166  0.1102
  333MOL0     C43844   4.579   2.777   7.448  0.3351 -0.4420 -0.8429
  333MOL0     C43845   4.435   2.767   7.395  0.5957 -0.8083  0.0985
  333MOL0     C43846   4.402   2.639   7.321 -0.1685  0.5847  0.4633
  333MOL0     C43847   4.254   2.595   7.314 -0.2256  0.5485  0.5679
  333MOL0     O43848   4.181   2.700   7.265  0.0413  0.4833  0.6000
  333MOL0     C43849   4.045   2.700   7.269 -0.8841 -0.9780 -0.3953
  333MOL0     C43850   3.982   2.800   7.194  0.7199  0.3260  0.2977
  333MOL0     C43851   3.839   2.800   7.185  1.0890  0.2823  0.4264
  333MOL0     C43852   3.761   2.715   7.269 -0.3813 -0.5629  0.3827
  333MOL0     C43853   3.618   2.734   7.264 -1.1396  0.3968  0.5957
  333MOL0     O43854   3.543   2.624   7.298 -0.4220  0.4191 -0.0921
  333MOL0     C43855   3.408   2.632   7.310  0.8013  0.2924 -0.9681
  333MOL0     C43856   3.332   2.749   7.338 -0.3929  0.3991  0.4725
  333MOL0     C43857   3.196   2.746   7.355  0.5293 -0.3860  0.3546
  333MOL0     C43858   3.120   2.627   7.337 -0.4548  0.1793 -0.6661
  333MOL0     O43859   2.987   2.602   7.352  0.0599 -0.7713  0.6576
  333MOL0     C43860   2.900   2.682   7.432 -0.6523  0.2952  0.0620
  333MOL0     C43861   2.943   2.662   7.581  1.4621 -0.4143 -0.5235
  333MOL0     C43862   2.822   2.686   7.670  0.4830 -0.0830  0.0536
  333MOL0     C43863   2.857   2.642   7.806  1.0500  0.3215  0.0593
  333MOL0     C43864   2.735   2.652   7.899  1.1418  0.1317  0.0044
  333MOL0     C43865   2.770   2.632   8.046  0.3001 -0.3442  0.2281
  333MOL0     C43866   2.664   2.607   8.152  0.4401 -0.0093 -0.8284
  333MOL0     C43867   2.700   2.605   8.301 -0.2571 -0.0448  0.4416
  333MOL0    Cl43868   2.783   2.451   8.331  0.0206  0.0971  0.4637
  333MOL0     C43869   3.196   2.514   7.298 -0.0560 -0.0873 -0.6242
  333MOL0     C43870   3.334   2.512   7.300 -0.1811 -0.1408  0.6569
  333MOL0     O43871   3.572   2.837   7.212  0.1827 -0.1120 -0.1274
  333MOL0     C43872   3.830   2.621   7.341  0.2768 -0.1972 -0.3932
  333MOL0     C43873   3.967   2.605   7.344 -0.7557 -0.4570 -0.4650
  333MOL0     N43874   4.750   2.637   7.310 -0.1628  0.3538 -0.3693
  333MOL0     N43875   4.821   2.654   7.201  0.2720 -0.2486 -0.3082
  333MOL0     C43876   5.726   2.755   7.706 -0.7195 -0.6722 -0.6039
  333MOL0     C43877   5.851   2.689   7.721 -0.1282 -0.1095 -1.0406
  333MOL0     C43878   6.206   2.423   7.679 -0.7658 -0.5366 -0.0528
  333MOL0     C43879   6.238   2.289   7.714  0.9904  0.3014 -0.6961
  333MOL0     C43880   6.362   2.234   7.701 -0.6003 -0.1237  0.7754
  333MOL0     C43881   6.467   2.317   7.667 -0.7831 -0.1304 -0.0074
  333MOL0     O43882   6.600   2.275   7.651  0.6068  0.3858 -0.4101
  333MOL0     C43883   6.626   2.137   7.699 -0.2846  0.2053 -0.6190
  333MOL0     C43884   6.772   2.093   7.646 -0.2612  0.8122  0.1717
  333MOL0     C43885   6.895   2.185   7.674 -0.4439  0.6444 -0.2889
  333MOL0     C43886   7.033   2.118   7.672  0.1690 -0.2890 -1.0120
  333MOL0     C43887   7.070   2.072   7.536  0.1391 -0.5833  0.4219
  333MOL0     C43888   7.098   2.027   7.425 -0.6713 -0.3587 -0.5929
  333MOL0     C43889   6.440   2.452   7.629 -0.4737  0.1078  0.4861
  333MOL0     C43890   6.312   2.501   7.638  0.5158 -0.1968 -0.0318
  333MOL0     H43891   5.887   2.586   7.409  0.8967 -3.9908  3.0375
  333MOL0     H43892   5.696   2.735   7.372  3.7455  2.1522 -1.6308
  333MOL0     H43893   5.444   2.774   7.432 -0.5734  0.5176 -1.7592
  333MOL0     H43894   5.532   2.922   7.386  0.4709 -2.1686 -1.3887
  333MOL0     H43895   5.394   3.062   7.520  0.6657  0.2423  0.9567
  333MOL0     H43896   5.322   2.918   7.598  1.3140 -1.9393 -0.8313
  333MOL0     H43897   5.158   3.019   7.458 -0.9039  1.8954 -0.8388
  333MOL0     H43898   5.207   2.862   7.389  0.0375 -0.2857  1.6487
  333MOL0     H43899   5.316   3.135   7.274  0.8950 -0.2078  1.4637
  333MOL0     H43900   5.338   2.970   7.210  1.7215 -0.4127  2.2434
  333MOL0     H43901   5.172   3.094   7.086  3.2180 -0.3997  0.5955
  333MOL0     H43902   5.089   3.137   7.236 -1.0739 -0.2066  0.4370
  333MOL0     H43903   4.994   2.908   7.263 -2.1027 -1.4946 -0.9379
  333MOL0     H43904   5.119   2.849   7.147  2.3162  1.0054 -1.1888
  333MOL0     H43905   4.886   3.047   7.087  0.5763  0.2865 -0.3359
  333MOL0     H43906   5.001   2.989   6.972 -1.4894 -0.9001 -0.9837
  333MOL0     H43907   4.923   2.755   6.979  2.7387  1.3234  1.3605
  333MOL0     H43908   4.796   2.861   6.948  0.0345  1.8504  1.2774
  333MOL0     H43909   4.675   2.939   7.216  1.3305  0.0011  0.2327
  333MOL0     H43910   4.594   2.877   7.489  0.9558  0.1312 -2.3950
  333MOL0     H43911   4.602   2.700   7.523  1.3328 -1.5508 -2.2485
  333MOL0     H43912   4.420   2.854   7.332 -3.3005  0.5951  2.6159
  333MOL0     H43913   4.358   2.776   7.472  0.4936  0.0920 -0.1002
  333MOL0     H43914   4.430   2.654   7.216  0.6329  3.1132  0.9545
  333MOL0     H43915   4.469   2.558   7.353  0.3341 -0.2377 -2.3857
  333MOL0     H43916   4.242   2.568   7.419  2.5597 -0.5076  0.6949
  333MOL0     H43917   4.239   2.500   7.263 -1.3590  1.6312 -1.2208
  333MOL0     H43918   4.038   2.869   7.131  2.2721 -0.1713  1.0924
  333MOL0     H43919   3.793   2.862   7.108  0.5043 -0.6281  0.0366
  333MOL0     H43920   3.382   2.844   7.355 -0.0144  0.3372 -0.2686
  333MOL0     H43921   3.120   2.818   7.382 -1.0213 -2.1490  0.8504
  333MOL0     H43922   2.799   2.644   7.420  0.2270 -1.6463 -2.0757
  333MOL0     H43923   2.898   2.783   7.388 -1.0940  0.3493  0.2114
  333MOL0     H43924   3.024   2.728   7.613  0.5173 -0.2621  1.6615
  333MOL0     H43925   2.971   2.557   7.591  1.7573 -0.4906 -1.8581
  333MOL0     H43926   2.742   2.622   7.633  1.4754 -1.2254 -0.1752
  333MOL0     H43927   2.798   2.793   7.670  2.3281  0.3718  0.4496
  333MOL0     H43928   2.896   2.540   7.804  0.5583  0.1366 -0.2674
  333MOL0     H43929   2.933   2.712   7.843  1.5591 -0.3705  0.3518
  333MOL0     H43930   2.657   2.580   7.874  1.5144  0.1300 -1.1803
  333MOL0     H43931   2.683   2.748   7.893 -1.1020 -0.8633  2.1004
  333MOL0     H43932   2.818   2.725   8.078  0.7329  0.1359 -1.6872
  333MOL0     H43933   2.841   2.551   8.064  1.8405  0.6905 -0.9452
  333MOL0     H43934   2.591   2.688   8.149  2.1209  1.6307  0.2210
  333MOL0     H43935   2.617   2.510   8.131 -1.1814 -0.0052  2.1896
  333MOL0     H43936   2.610   2.615   8.362  0.1830  0.3644  1.0275
  333MOL0     H43937   2.771   2.686   8.317 -0.7700  1.0431 -2.2248
  333MOL0     H43938   3.134   2.425   7.290  0.3312 -0.7593  2.5968
  333MOL0     H43939   3.377   2.418   7.269 -0.5064  0.6930 -2.6902
  333MOL0     H43940   3.784   2.543   7.400  0.1616 -0.2369 -0.5342
  333MOL0     H43941   4.022   2.529   7.398  0.9195 -0.4689 -2.1013
  333MOL0     H43942   5.671   2.798   7.789  1.9943  0.2046  0.8607
  333MOL0     H43943   5.880   2.684   7.826  1.6853  0.9748 -1.4331
  333MOL0     H43944   6.157   2.224   7.744  1.8224 -0.7238 -0.6334
  333MOL0     H43945   6.364   2.133   7.741 -1.2330 -0.9788 -1.1879
  333MOL0     H43946   6.561   2.060   7.657  0.9693 -1.1330 -0.1648
  333MOL0     H43947   6.623   2.130   7.808 -0.8725 -0.8851 -0.6933
  333MOL0     H43948   6.793   1.999   7.697 -0.6351  0.8818  0.4643
  333MOL0     H43949   6.764   2.077   7.538  0.3771  2.1497 -0.0916
  333MOL0     H43950   6.883   2.218   7.777 -0.7564 -0.6492  0.1053
  333MOL0     H43951   6.894   2.265   7.599 -0.3055  1.1368  0.2291
  333MOL0     H43952   7.101   2.193   7.713 -1.3879 -0.8637  3.0540
  333MOL0     H43953   7.030   2.027   7.733  0.4594  0.1539 -0.3276
  333MOL0     H43954   7.128   1.992   7.328  2.4475  1.5332 -0.4362
  333MOL0     H43955   6.517   2.511   7.581 -1.8943  1.9476  0.3329
  333MOL0     H43956   6.295   2.590   7.577  2.7703 -0.9030 -1.8563
  334MOL0     O43957   5.373  10.980   6.061 -0.2861 -0.3095  0.5321
  334MOL0     C43958   5.377  10.882   6.125 -0.1498 -0.1357 -0.3779
  334MOL0     O43959   5.265  10.807   6.155 -0.6799  0.7271  0.1571
  334MOL0     C43960   5.143  10.850   6.113 -0.0954 -0.5397 -0.2912
  334MOL0     C43961   5.056  10.880   6.215 -0.5038 -0.5203  0.0981
  334MOL0     C43962   4.920  10.909   6.189 -0.0986 -0.1818 -0.7744
  334MOL0     C43963   4.874  10.916   6.061  0.3814  0.3716  0.1969
  334MOL0     O43964   4.747  10.952   6.035  0.9300  0.7103  0.2820
  334MOL0     C43965   4.649  10.957   6.147 -0.8906  1.0638 -0.4618
  334MOL0     C43966   4.515  11.002   6.088  0.6340 -0.2875  1.0322
  334MOL0     C43967   4.407  10.969   6.187  0.4618 -0.5674  0.0286
  334MOL0     C43968   4.273  11.036   6.146  0.0082 -0.0328 -0.3067
  334MOL0     C43969   4.147  10.975   6.217 -0.0239 -0.2365 -0.2740
  334MOL0     C43970   4.024  11.062   6.183 -0.7938  0.2734  0.2252
  334MOL0     C43971   3.908  10.988   6.246 -0.4209  0.5548 -0.3567
  334MOL0     C43972   3.771  11.008   6.178 -0.6846 -0.4757 -0.0774
  334MOL0     N43973   3.678  10.915   6.256 -0.4096 -0.7726 -0.1291
  334MOL0     C43974   3.654  10.789   6.222  0.2692 -1.1003  0.0572
  334MOL0     C43975   3.563  10.743   6.311 -0.3656 -0.2890  0.0125
  334MOL0     C43976   3.514  10.601   6.311  0.2475  0.0584 -0.6160
  334MOL0     C43977   3.368  10.601   6.369 -0.5776  0.6573  0.6209
  334MOL0     C43978   3.326  10.453   6.385  0.2733  0.2622 -0.0941
  334MOL0     C43979   3.175  10.448   6.414  0.0597  0.8282 -0.1432
  334MOL0     O43980   3.103  10.489   6.298 -1.0295 -0.1780 -0.1462
  334MOL0     C43981   2.962  10.468   6.302 -0.3038 -0.6343 -0.6360
  334MOL0     C43982   2.898  10.478   6.185 -0.4824 -0.3094 -1.3992
  334MOL0     C43983   2.761  10.474   6.163  0.0846 -0.5040 -0.5410
  334MOL0     C43984   2.677  10.441   6.266 -0.4766 -0.3179 -0.6014
  334MOL0     C43985   2.535  10.423   6.239 -0.2222  0.3319  0.8495
  334MOL0     O43986   2.497  10.418   6.106  0.6316  0.1705 -0.1741
  334MOL0     C43987   2.362  10.406   6.086 -0.4415  0.6560 -0.7048
  334MOL0     C43988   2.295  10.289   6.055  0.1117  0.2069  0.6390
  334MOL0     C43989   2.155  10.279   6.041  0.6797  0.1766  0.0660
  334MOL0     C43990   2.082  10.399   6.068 -0.1042 -0.2559  0.0543
  334MOL0     O43991   1.948  10.416   6.066  0.2275 -0.0561  0.1376
  334MOL0     C43992   1.874  10.299   6.047  0.2020 -0.0921  0.2010
  334MOL0     C43993   1.732  10.303   6.106  0.2284 -0.0878 -0.7604
  334MOL0     C43994   1.630  10.394   6.033 -0.7452 -0.5282 -0.1429
  334MOL0     C43995   1.579  10.322   5.910  0.3870 -0.5986  0.1268
  334MOL0     C43996   1.476  10.408   5.844 -0.3136  0.6472  0.3873
  334MOL0     C43997   1.356  10.328   5.791  0.4232 -0.2754  0.1057
  334MOL0     C43998   1.251  10.428   5.731 -0.4952  0.3771  0.2649
  334MOL0     C43999   1.122  10.357   5.697  0.2854 -0.2355  1.0999
  334MOL0    Cl44000   0.997  10.476   5.653  0.1605 -0.0635 -0.0422
  334MOL0     C44001   2.153  10.513   6.106  0.3648  0.0711  0.4896
  334MOL0     C44002   2.286  10.518   6.121 -0.6154 -0.0043  0.3379
  334MOL0     O44003   2.470  10.423   6.340  0.9859 -0.0959  0.0286
  334MOL0     C44004   2.740  10.416   6.390 -0.5499  0.2844 -0.9772
  334MOL0     C44005   2.878  10.433   6.409 -0.0295 -0.3931  0.1427
  334MOL0     N44006   3.550  10.843   6.411 -0.6945  0.3014 -0.3072
  334MOL0     N44007   3.615  10.949   6.372  0.2799  0.0356  0.5968
  334MOL0     C44008   4.953  10.881   5.952 -0.6646  0.0358 -0.0273
  334MOL0     C44009   5.089  10.858   5.981  0.4877  0.2909  1.1192
  334MOL0     C44010   5.510  10.836   6.175  0.6754 -0.7612  0.3629
  334MOL0     C44011   5.512  10.737   6.269  0.5264 -0.1005 -0.0233
  334MOL0     C44012   5.633  10.681   6.311  0.3860 -0.1787 -0.6917
  334MOL0     C44013   5.751  10.731   6.266  0.0488 -0.5106 -0.6785
  334MOL0     O44014   5.869  10.683   6.316  0.0529 -0.3362 -0.5630
  334MOL0     C44015   5.874  10.576   6.416 -0.6693  0.0178  0.4941
  334MOL0     C44016   6.011  10.517   6.435  0.4798  0.1203 -0.2428
  334MOL0     C44017   6.115  10.623   6.458 -0.1382 -0.3979 -0.9865
  334MOL0     C44018   6.245  10.540   6.502  0.0990  0.3080 -0.9189
  334MOL0     C44019   6.363  10.629   6.498 -0.7048 -0.0842 -0.5363
  334MOL0     C44020   6.444  10.720   6.501  0.4544 -0.8084  0.0118
  334MOL0     C44021   5.744  10.835   6.167 -0.1006 -0.1731  0.4224
  334MOL0     C44022   5.625  10.887   6.121  0.3901  0.7434  0.1367
  334MOL0     H44023   5.097  10.863   6.314 -3.4071  1.5001  1.8031
  334MOL0     H44024   4.867  10.926   6.282  2.2413 -3.4245  1.3968
  334MOL0     H44025   4.689  11.026   6.222  1.5606 -0.5238 -0.2079
  334MOL0     H44026   4.640  10.855   6.184  1.5832  0.2649 -1.8563
  334MOL0     H44027   4.492  10.952   5.993 -0.8336  0.5060  0.9266
  334MOL0     H44028   4.517  11.109   6.065  0.3934 -0.9244 -2.4998
  334MOL0     H44029   4.434  10.996   6.290 -1.0871 -1.7864  0.8052
  334MOL0     H44030   4.410  10.860   6.190 -2.3945 -0.7192 -0.2233
  334MOL0     H44031   4.272  11.143   6.169 -4.1364 -0.1850  1.0651
  334MOL0     H44032   4.259  11.014   6.040 -0.9014 -2.9224  0.3383
  334MOL0     H44033   4.163  10.979   6.326  0.2084 -0.7856 -0.2818
  334MOL0     H44034   4.136  10.869   6.192  0.0358 -0.7731  1.7625
  334MOL0     H44035   4.007  11.055   6.076 -0.5271 -0.0833  0.2049
  334MOL0     H44036   4.031  11.168   6.209  1.0456  0.9173 -2.5895
  334MOL0     H44037   3.927  10.883   6.270 -0.9504  0.8437  1.4946
  334MOL0     H44038   3.901  11.035   6.345  0.4725 -1.6159  0.7948
  334MOL0     H44039   3.765  10.982   6.072  0.0252  0.0957 -0.2599
  334MOL0     H44040   3.752  11.115   6.192 -0.7294 -0.5772  0.7152
  334MOL0     H44041   3.704  10.726   6.149 -1.2842 -2.0757 -0.2260
  334MOL0     H44042   3.586  10.537   6.364 -0.8962 -0.4748  0.3387
  334MOL0     H44043   3.518  10.560   6.210  0.5485 -0.1141 -0.5360
  334MOL0     H44044   3.300  10.646   6.295 -4.7985 -2.0812  2.4284
  334MOL0     H44045   3.358  10.652   6.465 -3.3920  0.6523  0.4348
  334MOL0     H44046   3.334  10.411   6.285 -0.2612  2.8648 -1.3204
  334MOL0     H44047   3.384  10.404   6.464  1.4132 -0.6355 -1.4500
  334MOL0     H44048   3.144  10.512   6.498 -2.1325 -0.4437  0.1014
  334MOL0     H44049   3.145  10.345   6.437 -2.4390  0.6784 -3.4435
  334MOL0     H44050   2.962  10.499   6.100 -0.4398 -3.3541 -2.2135
  334MOL0     H44051   2.716  10.497   6.067 -2.1493 -0.5370  0.4288
  334MOL0     H44052   2.356  10.200   6.046 -1.2819 -0.6843 -0.5040
  334MOL0     H44053   2.101  10.193   6.003  0.4565  0.4705 -0.2853
  334MOL0     H44054   1.905  10.204   6.092 -1.7845 -0.9168 -0.0444
  334MOL0     H44055   1.863  10.278   5.940  0.9548 -1.4392  0.3590
  334MOL0     H44056   1.750  10.345   6.206  1.5807  0.2103 -1.1066
  334MOL0     H44057   1.701  10.199   6.114  1.2510 -0.2778  1.4467
  334MOL0     H44058   1.671  10.487   5.993 -1.7411  0.8676  1.9162
  334MOL0     H44059   1.553  10.428   6.103  1.4985  1.0124  1.6951
  334MOL0     H44060   1.664  10.306   5.842  1.0224 -1.1400  1.0337
  334MOL0     H44061   1.540  10.222   5.931  1.5960 -1.5402 -1.7635
  334MOL0     H44062   1.523  10.455   5.758  1.8633 -4.2715 -1.4810
  334MOL0     H44063   1.432  10.476   5.917 -0.1137 -0.4358  1.5576
  334MOL0     H44064   1.321  10.265   5.873  0.8042 -3.5290 -2.0589
  334MOL0     H44065   1.388  10.250   5.722  0.2211 -1.6819  1.5475
  334MOL0     H44066   1.220  10.498   5.809  1.3826 -0.0232  1.4082
  334MOL0     H44067   1.299  10.466   5.640  2.5067 -2.1966  0.6091
  334MOL0     H44068   1.083  10.294   5.778 -0.3076 -2.1269 -0.5699
  334MOL0     H44069   1.131  10.291   5.610 -2.0466 -0.4676  0.9696
  334MOL0     H44070   2.104  10.607   6.131  1.1895  0.4999  0.5484
  334MOL0     H44071   2.333  10.611   6.153 -0.5847  0.3909 -0.7827
  334MOL0     H44072   2.684  10.383   6.477  0.8890 -1.4133 -0.6518
  334MOL0     H44073   2.915  10.429   6.512  0.3531  2.2034  0.1751
  334MOL0     H44074   4.913  10.891   5.851 -0.1308  0.7205 -0.1747
  334MOL0     H44075   5.149  10.859   5.891 -0.6242  3.7191  0.2939
  334MOL0     H44076   5.418  10.697   6.307  2.0356 -1.1618  2.9092
  334MOL0     H44077   5.627  10.601   6.384  2.0955  0.6274  0.3766
  334MOL0     H44078   5.809  10.493   6.388  0.3803 -0.8932  0.6898
  334MOL0     H44079   5.840  10.617   6.511 -0.9024 -1.1098  0.9114
  334MOL0     H44080   5.998  10.444   6.515  2.5662 -1.1912 -1.0129
  334MOL0     H44081   6.035  10.468   6.340  0.3114 -0.5073  0.0399
  334MOL0     H44082   6.084  10.679   6.546  0.6551 -4.2190  2.0429
  334MOL0     H44083   6.129  10.679   6.365 -5.9583  0.6640 -1.5764
  334MOL0     H44084   6.229  10.512   6.607 -2.6743  0.4942 -1.2051
  334MOL0     H44085   6.259  10.450   6.442  1.1154  0.5563 -1.0742
  334MOL0     H44086   6.522  10.794   6.505  1.4551 -1.6206 -2.5090
  334MOL0     H44087   5.842  10.864   6.133 -0.0071 -0.3420  0.5436
  334MOL0     H44088   5.629  10.959   6.040  3.3124 -2.4375 -2.8419
  335MOL0     O44089  10.795   9.178  10.452 -0.3519 -0.8279  0.6827
  335MOL0     C44090  10.842   9.274  10.378  0.4081  0.6810  0.3274
  335MOL0     O44091  10.787   9.398  10.361  0.0175  0.6297  0.6727
  335MOL0     C44092  10.665   9.447  10.400  1.0187 -0.6827 -0.3443
  335MOL0     C44093  10.575   9.392  10.491 -0.2552 -0.6764 -0.8974
  335MOL0     C44094  10.460   9.457  10.526  0.4534 -0.1821  0.2566
  335MOL0     C44095  10.417   9.569  10.455 -0.6720  0.3604 -0.4837
  335MOL0     O44096  10.296   9.636  10.477 -0.4691 -0.1295  0.1980
  335MOL0     C44097  10.243   9.626  10.611 -0.4355 -0.3370 -1.1555
  335MOL0     C44098  10.131   9.732  10.639 -0.0322 -0.1633 -0.2538
  335MOL0     C44099  10.000   9.702  10.572  0.9151 -0.3143  0.1449
  335MOL0     C44100   9.912   9.628  10.668  0.1812 -0.1736  0.4413
  335MOL0     C44101   9.769   9.621  10.617 -0.0746 -0.7972  0.3870
  335MOL0     C44102   9.679   9.549  10.715  0.1266 -0.2494 -0.8942
  335MOL0     C44103   9.530   9.555  10.655  0.0227  0.2626  0.7499
  335MOL0     C44104   9.428   9.487  10.745 -0.7940  0.1391  0.3808
  335MOL0     N44105   9.383   9.573  10.855 -0.0463  0.1891 -0.4806
  335MOL0     C44106   9.270   9.644  10.843 -0.0630  0.0992 -0.0423
  335MOL0     C44107   9.294   9.741  10.936  0.1416  0.4744 -1.3297
  335MOL0     C44108   9.204   9.853  10.964  0.8110 -0.0392 -0.0068
  335MOL0     C44109   9.082   9.834  11.064 -1.0341 -0.7019 -0.4434
  335MOL0     C44110   9.014   9.969  11.068  0.0946  0.2321 -0.0604
  335MOL0     C44111   8.884   9.962  11.157 -0.7108  0.0400  0.7794
  335MOL0     O44112   8.805  10.080  11.138 -0.4433  0.0136  0.3126
  335MOL0     C44113   8.678  10.054  11.154 -0.2935 -0.2216  0.7331
  335MOL0     C44114   8.616   9.990  11.263 -0.3149  0.0135 -0.3511
  335MOL0     C44115   8.477   9.971  11.258 -0.1559  0.0182 -0.2199
  335MOL0     C44116   8.394  10.008  11.158 -0.5422 -0.7293 -0.5440
  335MOL0     C44117   8.250  10.005  11.161 -1.2397  0.6851  0.0149
  335MOL0     O44118   8.195   9.989  11.285 -0.3367 -0.5652  0.0973
  335MOL0     C44119   8.059   9.972  11.302 -0.8984 -0.2900  1.0971
  335MOL0     C44120   7.960   9.922  11.210  0.4999  0.0085  0.6234
  335MOL0     C44121   7.831   9.887  11.257  1.3497  0.7519  0.0580
  335MOL0     C44122   7.800   9.906  11.387 -0.5217  0.3462 -0.2845
  335MOL0     O44123   7.675   9.873  11.431 -0.6447 -0.4477  0.0788
  335MOL0     C44124   7.648   9.772  11.536 -0.1830 -0.4316  1.1293
  335MOL0     C44125   7.492   9.780  11.554 -0.5597 -0.1051 -0.3106
  335MOL0     C44126   7.460   9.922  11.604 -0.3322  0.4141 -0.6444
  335MOL0     C44127   7.314   9.940  11.661 -0.1477 -0.1880  0.2150
  335MOL0     C44128   7.212   9.881  11.574 -0.2302  0.5084 -0.4248
  335MOL0     C44129   7.073   9.922  11.620 -0.5557 -0.1374 -0.0496
  335MOL0     C44130   6.967   9.828  11.566  0.0320  0.2821 -0.5681
  335MOL0     C44131   6.831   9.845  11.636 -0.3267  0.8570 -0.3684
  335MOL0    Cl44132   6.783  10.019  11.635 -0.1045 -0.0158  0.2738
  335MOL0     C44133   7.891   9.960  11.474  0.7581  0.4957 -0.5656
  335MOL0     C44134   8.017   9.994  11.433  0.2963  0.0054 -0.1409
  335MOL0     O44135   8.190  10.018  11.055 -0.6543  0.0740  0.3242
  335MOL0     C44136   8.458  10.069  11.047  0.8302  0.0958  0.1234
  335MOL0     C44137   8.595  10.087  11.044  0.3154 -0.1515  1.1378
  335MOL0     N44138   9.403   9.711  11.015  0.0455  0.4283  0.1144
  335MOL0     N44139   9.466   9.620  10.955  0.7443 -0.3256 -0.6078
  335MOL0     C44140  10.508   9.621  10.359 -0.2166 -0.9380 -0.5686
  335MOL0     C44141  10.629   9.563  10.330 -1.1271  0.3914  0.0813
  335MOL0     C44142  10.964   9.246  10.293 -0.2498  1.0097  0.1129
  335MOL0     C44143  11.038   9.347  10.231  0.5065 -0.0411  0.7422
  335MOL0     C44144  11.133   9.320  10.132  0.2564 -0.5110  0.0483
  335MOL0     C44145  11.166   9.187  10.110  0.0584 -0.3514 -0.0622
  335MOL0     O44146  11.270   9.172  10.023 -0.7906  0.5332  0.4217
  335MOL0     C44147  11.276   9.054   9.946  0.8212 -0.5203 -0.7245
  335MOL0     C44148  11.360   9.069   9.828 -0.5663 -1.1137  0.8040
  335MOL0     C44149  11.517   9.053   9.851 -0.9781  1.1323  0.7286
  335MOL0     C44150  11.586   9.190   9.869  0.1717  0.2487  0.0930
  335MOL0     C44151  11.722   9.180   9.913  0.6772 -0.2875 -0.7321
  335MOL0     C44152  11.842   9.179   9.932  0.0437 -0.4805  0.2096
  335MOL0     C44153  11.103   9.082  10.177  0.3741  0.1867 -0.1622
  335MOL0     C44154  10.995   9.112  10.257 -0.8895 -0.1976  0.1782
  335MOL0     H44155  10.603   9.299  10.538 -1.2232 -0.4304  0.2248
  335MOL0     H44156  10.397   9.408  10.600  2.7549 -2.0609  1.0770
  335MOL0     H44157  10.318   9.643  10.689 -2.9197 -0.1946  1.3583
  335MOL0     H44158  10.201   9.527  10.626  1.5489 -1.5160 -2.7754
  335MOL0     H44159  10.159   9.827  10.593  0.6297 -1.5896 -3.0312
  335MOL0     H44160  10.109   9.747  10.745 -2.3954 -0.8701 -0.5967
  335MOL0     H44161  10.006   9.653  10.474 -0.7136 -0.6460  0.1752
  335MOL0     H44162   9.948   9.795  10.547 -0.8567 -1.2852  0.0176
  335MOL0     H44163   9.945   9.523  10.671  2.6739  0.4869 -1.0064
  335MOL0     H44164   9.927   9.668  10.768 -0.1368  0.0394  0.4046
  335MOL0     H44165   9.767   9.574  10.519  0.8312 -2.4150  1.1061
  335MOL0     H44166   9.728   9.721  10.598  0.7533 -0.3707  0.8090
  335MOL0     H44167   9.677   9.607  10.807 -2.2963  0.3360 -1.2512
  335MOL0     H44168   9.705   9.445  10.736  0.6257 -0.3196 -1.7841
  335MOL0     H44169   9.503   9.660  10.642  2.4282  1.1814  2.4626
  335MOL0     H44170   9.522   9.495  10.563 -1.9063  0.2296  0.9090
  335MOL0     H44171   9.488   9.406  10.788  0.2559 -0.3852 -1.9014
  335MOL0     H44172   9.344   9.445  10.689 -0.0419  0.2620 -0.8785
  335MOL0     H44173   9.204   9.639  10.757 -0.8086  0.7631  0.4741
  335MOL0     H44174   9.176   9.889  10.864  0.6438 -2.0303 -0.7197
  335MOL0     H44175   9.262   9.931  11.014  1.2515  0.6336 -1.4916
  335MOL0     H44176   9.125   9.811  11.162 -2.3871 -0.1983  0.2889
  335MOL0     H44177   9.019   9.753  11.027 -2.6425  0.0561  0.5376
  335MOL0     H44178   9.081  10.047  11.106  0.6440  0.7530 -1.9837
  335MOL0     H44179   8.979  10.006  10.971  0.0835  2.2487  0.6519
  335MOL0     H44180   8.918   9.955  11.261 -0.0010 -1.6203  0.4846
  335MOL0     H44181   8.825   9.874  11.130  2.2638 -2.6291  2.2560
  335MOL0     H44182   8.680   9.968  11.348 -1.5690  0.2743  0.6888
  335MOL0     H44183   8.429   9.920  11.340  1.6305  0.3714  1.0925
  335MOL0     H44184   7.977   9.895  11.106 -2.1904 -3.3734  0.8854
  335MOL0     H44185   7.765   9.843  11.184  2.6029 -0.4106 -0.4219
  335MOL0     H44186   7.703   9.799  11.626 -0.6600  0.7612  1.0919
  335MOL0     H44187   7.679   9.672  11.507 -0.8879 -0.5037  0.5985
  335MOL0     H44188   7.465   9.710  11.633  2.7761 -2.4446 -1.0079
  335MOL0     H44189   7.441   9.754  11.462  1.4720 -1.1205 -1.2260
  335MOL0     H44190   7.487   9.987  11.521 -1.9235  2.2609  0.1926
  335MOL0     H44191   7.520   9.949  11.691 -2.1384  2.0412  0.1664
  335MOL0     H44192   7.309   9.902  11.764  0.6574  3.1558  1.6002
  335MOL0     H44193   7.293  10.046  11.670  0.9696  0.0591  0.0969
  335MOL0     H44194   7.218   9.772  11.571 -3.4287  0.1227  1.5301
  335MOL0     H44195   7.232   9.919  11.474  1.7455 -0.9074 -0.6227
  335MOL0     H44196   7.045  10.027  11.605 -2.4488 -0.1543  2.6226
  335MOL0     H44197   7.065   9.918  11.729 -1.3380  0.8240 -0.0521
  335MOL0     H44198   6.956   9.842  11.458 -0.6585  0.9772 -0.4112
  335MOL0     H44199   6.992   9.723  11.586 -0.9381 -0.2340 -1.9202
  335MOL0     H44200   6.831   9.825  11.744  1.3976  0.6300 -0.3756
  335MOL0     H44201   6.749   9.787  11.592 -0.6422  0.8887  0.1690
  335MOL0     H44202   7.873   9.983  11.578  1.2519  1.5722 -0.7088
  335MOL0     H44203   8.090  10.035  11.503  0.0661  0.3902 -0.1280
  335MOL0     H44204   8.401  10.103  10.961  0.8553  1.2381  0.5394
  335MOL0     H44205   8.645  10.137  10.962 -1.3327 -0.7392 -0.2896
  335MOL0     H44206  10.479   9.711  10.306  2.5201  0.5004  0.1812
  335MOL0     H44207  10.688   9.594  10.245 -1.7285  1.7007  0.1119
  335MOL0     H44208  11.012   9.448  10.259 -0.1490 -0.1025  0.3838
  335MOL0     H44209  11.187   9.398  10.080  0.1139 -0.5034 -0.0904
  335MOL0     H44210  11.179   9.023   9.908 -0.3553 -0.3969  1.9748
  335MOL0     H44211  11.316   8.971  10.005  0.0968 -2.4104 -2.7780
  335MOL0     H44212  11.324   8.993   9.757  0.9194  0.3160 -1.6233
  335MOL0     H44213  11.348   9.166   9.780  2.4552 -0.7201  0.6096
  335MOL0     H44214  11.563   9.011   9.761 -2.7814  0.4678  0.0752
  335MOL0     H44215  11.533   8.980   9.931 -1.6882  0.5622  0.3628
  335MOL0     H44216  11.591   9.240   9.772  5.1891  0.8850  0.4165
  335MOL0     H44217  11.527   9.239   9.946  1.3683  2.6007 -0.3991
  335MOL0     H44218  11.947   9.178   9.952  0.6420  3.1889 -1.8352
  335MOL0     H44219  11.137   8.979  10.168 -1.4284 -0.4119 -0.4858
  335MOL0     H44220  10.939   9.028  10.296 -0.9738 -1.1571 -1.8885
  336MOL0     O44221   0.123   0.428   5.241  0.3661 -0.3614  0.5124
  336MOL0     C44222   0.175   0.497   5.330 -0.0889  0.9613 -1.0874
  336MOL0     O44223   0.105   0.534   5.441 -0.0892  0.3896 -0.0528
  336MOL0     C44224  -0.022   0.480   5.446 -0.2183  0.7399 -0.2572
  336MOL0     C44225  -0.047   0.360   5.514  0.3542 -0.5944  0.6234
  336MOL0     C44226  -0.170   0.299   5.519 -0.0462 -0.2471  0.5069
  336MOL0     C44227  -0.285   0.371   5.477  0.2753  0.1874  0.0917
  336MOL0     O44228  -0.417   0.330   5.498 -0.4169 -0.4229  0.7576
  336MOL0     C44229  -0.447   0.216   5.586  1.0053 -0.8550 -0.7723
  336MOL0     C44230  -0.467   0.268   5.726 -1.5019  0.3608  0.5607
  336MOL0     C44231  -0.592   0.354   5.742  0.4642  0.1143  0.0930
  336MOL0     C44232  -0.722   0.276   5.714  0.0332  0.1831 -0.6799
  336MOL0     C44233  -0.844   0.338   5.794 -0.7111 -0.2738  0.5503
  336MOL0     C44234  -0.844   0.313   5.941 -0.3609  0.8216 -0.1085
  336MOL0     C44235  -0.973   0.367   6.010 -0.2481  0.3244 -0.8356
  336MOL0     C44236  -0.959   0.365   6.162 -0.2398  0.3334  0.7083
  336MOL0     N44237  -1.087   0.362   6.232  0.2240 -0.2266 -0.0021
  336MOL0     C44238  -1.130   0.273   6.323  0.2314  0.1580 -0.0759
  336MOL0     C44239  -1.263   0.277   6.327  0.0803  0.3064  0.1072
  336MOL0     C44240  -1.368   0.212   6.419  0.5219 -0.6264  0.1157
  336MOL0     C44241  -1.437   0.314   6.512 -0.3166 -0.2119  0.6779
  336MOL0     C44242  -1.535   0.261   6.619  0.4435 -0.1868 -0.0644
  336MOL0     C44243  -1.616   0.370   6.683 -0.2526 -0.2931 -0.6453
  336MOL0     O44244  -1.528   0.446   6.768  0.9492  0.3837  0.1971
  336MOL0     C44245  -1.577   0.552   6.841 -0.7203 -0.0339 -0.7326
  336MOL0     C44246  -1.487   0.624   6.914 -0.0380 -1.2323 -0.6385
  336MOL0     C44247  -1.526   0.732   6.994  0.2099 -0.2266 -0.5843
  336MOL0     C44248  -1.660   0.780   6.994  0.1676  0.0435  0.0423
  336MOL0     C44249  -1.677   0.904   7.067  0.8384  0.3729 -0.2321
  336MOL0     O44250  -1.575   0.977   7.100 -0.2671 -0.3547  0.3067
  336MOL0     C44251  -1.585   1.082   7.177 -1.2319  0.2839  0.4699
  336MOL0     C44252  -1.616   1.070   7.312 -0.1025  0.9283  0.3307
  336MOL0     C44253  -1.645   1.186   7.378 -0.2781 -0.5352 -0.8911
  336MOL0     C44254  -1.620   1.310   7.330  0.1288 -0.5004  0.6797
  336MOL0     O44255  -1.636   1.406   7.419  0.3282 -1.0957  0.7644
  336MOL0     C44256  -1.660   1.543   7.369  0.8553 -0.0273  0.6415
  336MOL0     C44257  -1.696   1.625   7.494  0.4312 -0.3730 -0.0402
  336MOL0     C44258  -1.756   1.757   7.449  0.3087  1.0276 -0.3849
  336MOL0     C44259  -1.771   1.859   7.560 -0.0720 -0.1377  0.6282
  336MOL0     C44260  -1.909   1.909   7.574  0.0459  0.0163  1.0051
  336MOL0     C44261  -1.934   2.029   7.670 -0.6819  0.1725  0.5565
  336MOL0     C44262  -1.895   1.995   7.816 -0.7950 -0.0818 -0.6479
  336MOL0     C44263  -1.894   2.110   7.912 -0.5980 -1.0904  0.2569
  336MOL0    Cl44264  -1.787   2.245   7.852 -0.2904  0.0226 -0.1227
  336MOL0     C44265  -1.583   1.325   7.195  1.0391 -1.3066  1.2656
  336MOL0     C44266  -1.566   1.208   7.123 -0.1939  0.5277 -0.0764
  336MOL0     O44267  -1.793   0.929   7.103 -0.2858 -0.8504 -0.1207
  336MOL0     C44268  -1.760   0.696   6.930 -0.4777 -0.3043  0.4788
  336MOL0     C44269  -1.710   0.583   6.860  0.8546 -0.3077 -0.0836
  336MOL0     N44270  -1.303   0.377   6.242  0.1165 -0.4603 -0.6000
  336MOL0     N44271  -1.196   0.437   6.193 -0.0888 -0.3362 -0.2641
  336MOL0     C44272  -0.259   0.495   5.405  0.8470  0.1040  0.0581
  336MOL0     C44273  -0.133   0.549   5.390 -0.2566 -0.4009  0.6128
  336MOL0     C44274   0.319   0.522   5.332  0.4788  0.1829 -0.4155
  336MOL0     C44275   0.385   0.592   5.436 -0.3076 -0.7432 -0.7244
  336MOL0     C44276   0.521   0.624   5.432 -0.1532 -0.0290  0.2750
  336MOL0     C44277   0.594   0.600   5.316 -0.6321  0.3027 -0.7139
  336MOL0     O44278   0.723   0.636   5.296  0.4052 -0.5127  0.1053
  336MOL0     C44279   0.806   0.645   5.412 -0.0840  0.2714  0.1576
  336MOL0     C44280   0.938   0.688   5.369  0.7398 -0.2619 -0.7649
  336MOL0     C44281   1.024   0.595   5.283  0.9954  1.0850 -0.1565
  336MOL0     C44282   0.950   0.516   5.175  0.4700 -0.1082  0.2612
  336MOL0     C44283   1.038   0.468   5.071 -0.1859  0.3133 -0.5725
  336MOL0     C44284   1.102   0.436   4.972 -0.2198  0.6006  0.0155
  336MOL0     C44285   0.528   0.534   5.218 -0.8484 -0.0693  0.5348
  336MOL0     C44286   0.388   0.495   5.212 -0.6002 -1.3733  0.3305
  336MOL0     H44287   0.030   0.302   5.564  1.5216 -1.3583 -1.8739
  336MOL0     H44288  -0.183   0.207   5.576  0.8683 -0.1893  0.8191
  336MOL0     H44289  -0.377   0.134   5.567  3.6366  1.3762 -1.4035
  336MOL0     H44290  -0.541   0.165   5.561 -1.1609  3.1079 -1.5502
  336MOL0     H44291  -0.376   0.315   5.764 -0.1312 -1.3899 -0.4056
  336MOL0     H44292  -0.478   0.182   5.793  2.0989  0.0967  1.0134
  336MOL0     H44293  -0.591   0.437   5.671  1.3830 -1.6951 -2.1390
  336MOL0     H44294  -0.594   0.390   5.845 -1.4170  2.9683 -0.8070
  336MOL0     H44295  -0.738   0.268   5.606  1.3128  2.6611 -1.1266
  336MOL0     H44296  -0.706   0.176   5.756 -0.6537  0.5567  0.5322
  336MOL0     H44297  -0.936   0.292   5.757 -1.8248  3.9883 -2.9156
  336MOL0     H44298  -0.855   0.446   5.779  2.1302  0.2021  1.3009
  336MOL0     H44299  -0.758   0.364   5.985  2.7983 -1.6595 -2.8841
  336MOL0     H44300  -0.829   0.205   5.951  0.0604  0.9376  0.5955
  336MOL0     H44301  -0.989   0.473   5.986  1.3286  1.4046  2.3364
  336MOL0     H44302  -1.060   0.307   5.980 -0.2616  0.6595 -1.4983
  336MOL0     H44303  -0.906   0.456   6.192  2.2740 -0.8700  0.1478
  336MOL0     H44304  -0.901   0.277   6.191  0.5144  0.3345 -0.7022
  336MOL0     H44305  -1.064   0.224   6.394  2.6299  1.3923 -1.3342
  336MOL0     H44306  -1.315   0.140   6.482  2.4494  0.9452  0.3523
  336MOL0     H44307  -1.436   0.156   6.353  1.1673  0.0381 -1.1342
  336MOL0     H44308  -1.484   0.387   6.445  1.2607 -0.7073 -1.0436
  336MOL0     H44309  -1.356   0.366   6.563  0.8348  0.2769 -1.5303
  336MOL0     H44310  -1.600   0.185   6.576 -0.0238  0.3951 -0.4042
  336MOL0     H44311  -1.475   0.214   6.697 -1.3486 -0.8559  0.9556
  336MOL0     H44312  -1.700   0.328   6.740  0.2736 -1.4919 -0.7176
  336MOL0     H44313  -1.658   0.430   6.603 -1.0281  2.8111  1.8975
  336MOL0     H44314  -1.384   0.591   6.905  0.3219 -0.0100 -1.2778
  336MOL0     H44315  -1.438   0.778   7.039 -0.4242 -0.1185  0.5659
  336MOL0     H44316  -1.637   0.978   7.366 -0.8191  1.1712  0.4708
  336MOL0     H44317  -1.669   1.185   7.484  1.6096  0.2792 -0.4104
  336MOL0     H44318  -1.747   1.548   7.302 -0.1485  0.8535  1.9494
  336MOL0     H44319  -1.572   1.578   7.316  0.3997 -1.3542 -1.0829
  336MOL0     H44320  -1.610   1.650   7.558 -0.9404  3.7548  0.4853
  336MOL0     H44321  -1.777   1.570   7.542  1.9435 -0.5249  2.5743
  336MOL0     H44322  -1.847   1.742   7.391  0.6055 -0.2018 -0.5845
  336MOL0     H44323  -1.678   1.805   7.389  2.3654 -0.9026  0.5585
  336MOL0     H44324  -1.755   1.814   7.658  1.8651 -0.0742  0.3768
  336MOL0     H44325  -1.695   1.937   7.550 -0.0274  0.2054  3.0090
  336MOL0     H44326  -1.963   1.821   7.611  0.3277 -0.3903  0.4630
  336MOL0     H44327  -1.962   1.934   7.482 -0.2274 -2.0279  0.5509
  336MOL0     H44328  -2.037   2.064   7.658  0.5871  4.5576  0.9717
  336MOL0     H44329  -1.874   2.111   7.631  0.0698 -1.0704 -1.0647
  336MOL0     H44330  -1.965   1.917   7.848  0.3563 -1.0597 -0.4504
  336MOL0     H44331  -1.793   1.958   7.810 -0.1825  1.7579 -3.6186
  336MOL0     H44332  -1.854   2.075   8.008 -0.3961  0.5817  0.8165
  336MOL0     H44333  -1.990   2.158   7.929  1.5977  3.6402  1.0964
  336MOL0     H44334  -1.575   1.419   7.141  0.1432 -2.8266 -1.7562
  336MOL0     H44335  -1.528   1.207   7.022  2.4207 -2.3767  0.7718
  336MOL0     H44336  -1.866   0.719   6.927  0.1140  2.8282 -1.9753
  336MOL0     H44337  -1.774   0.519   6.802  0.3152  0.4424 -0.3342
  336MOL0     H44338  -0.342   0.558   5.376 -1.0119 -2.5989 -0.8430
  336MOL0     H44339  -0.116   0.641   5.335  1.9004 -0.4600  1.1044
  336MOL0     H44340   0.323   0.609   5.523 -0.1968  0.8386 -0.9373
  336MOL0     H44341   0.561   0.667   5.523 -0.5156 -0.4913  0.6610
  336MOL0     H44342   0.815   0.552   5.468  1.1186  0.7063  0.7388
  336MOL0     H44343   0.770   0.723   5.480 -3.0528 -0.2704 -0.6455
  336MOL0     H44344   0.911   0.778   5.315  1.5030  0.7983  0.5431
  336MOL0     H44345   1.001   0.712   5.455  0.5416  0.0289 -0.7012
  336MOL0     H44346   1.079   0.524   5.345  1.2742  1.3332 -0.1176
  336MOL0     H44347   1.099   0.658   5.235 -0.1673  1.5942 -1.3680
  336MOL0     H44348   0.896   0.431   5.218  1.9714 -0.8163  0.8428
  336MOL0     H44349   0.876   0.583   5.132 -0.6903 -1.3550  0.2356
  336MOL0     H44350   1.157   0.419   4.882 -1.7527  0.6661 -0.9545
  336MOL0     H44351   0.588   0.498   5.135 -0.3502 -1.3728  1.4182
  336MOL0     H44352   0.340   0.448   5.127 -0.4905  0.0061 -0.5294
  337MOL0     O44353   4.623   3.225   6.181  0.8501  0.1742 -0.1233
  337MOL0     C44354   4.624   3.210   6.302 -0.3629 -0.5695  0.2485
  337MOL0     O44355   4.521   3.160   6.380  0.8267 -0.7197 -0.1619
  337MOL0     C44356   4.388   3.144   6.327 -0.1502 -0.1815  0.1228
  337MOL0     C44357   4.314   3.050   6.385  0.3921  0.6550  0.1098
  337MOL0     C44358   4.177   3.020   6.350 -0.0569  0.0919 -0.5114
  337MOL0     C44359   4.125   3.090   6.237 -0.1045 -0.1635 -0.1877
  337MOL0     O44360   3.998   3.075   6.196  0.5357  0.5261  0.4955
  337MOL0     C44361   3.922   2.964   6.238 -0.6878 -0.0328  0.0155
  337MOL0     C44362   3.800   2.942   6.147  0.2841 -0.0838 -0.0705
  337MOL0     C44363   3.689   2.864   6.223 -0.6031 -0.1877 -0.1051
  337MOL0     C44364   3.550   2.882   6.159  0.4035 -0.4524  0.0389
  337MOL0     C44365   3.436   2.827   6.241 -0.6158 -0.2434  0.4024
  337MOL0     C44366   3.301   2.856   6.185 -0.2365 -0.1187  0.3400
  337MOL0     C44367   3.193   2.811   6.283 -0.4166 -0.1354  0.1590
  337MOL0     C44368   3.054   2.808   6.214 -1.1784  0.4382 -0.4311
  337MOL0     N44369   2.953   2.769   6.315 -0.8911 -0.2056  0.4130
  337MOL0     C44370   2.825   2.731   6.279 -0.1793 -0.4434  0.5173
  337MOL0     C44371   2.751   2.738   6.386  0.0471  0.1309 -0.7711
  337MOL0     C44372   2.605   2.702   6.396  0.1620 -0.4755 -0.5152
  337MOL0     C44373   2.565   2.640   6.530  0.2293 -0.2682  0.3146
  337MOL0     C44374   2.429   2.560   6.508 -0.2802  0.9329 -0.7194
  337MOL0     C44375   2.387   2.489   6.639  0.4969 -0.2454  0.3485
  337MOL0     O44376   2.377   2.600   6.738  0.4030 -0.1344 -0.1580
  337MOL0     C44377   2.248   2.654   6.733 -0.2743  0.9525 -0.4327
  337MOL0     C44378   2.137   2.576   6.762  0.8569 -0.3371  0.4717
  337MOL0     C44379   2.004   2.633   6.748  0.1737  0.6156 -0.4911
  337MOL0     C44380   1.989   2.771   6.727  0.3918 -1.1553  0.3173
  337MOL0     C44381   1.859   2.833   6.703 -0.2027  0.4529 -0.4369
  337MOL0     O44382   1.756   2.740   6.676 -0.6038 -0.6116 -0.2908
  337MOL0     C44383   1.630   2.791   6.644 -0.6303  0.5271  0.1531
  337MOL0     C44384   1.543   2.850   6.742 -0.3441 -0.1973 -1.0254
  337MOL0     C44385   1.415   2.903   6.709 -0.1631  0.2758  0.3828
  337MOL0     C44386   1.375   2.891   6.576  0.2960  0.1733  0.8082
  337MOL0     O44387   1.256   2.935   6.527 -0.5420  0.7643 -0.3561
  337MOL0     C44388   1.176   3.026   6.605 -0.2855  0.0664  0.2928
  337MOL0     C44389   1.034   3.056   6.541  0.0049 -0.1727 -0.0579
  337MOL0     C44390   0.938   2.951   6.566  0.3879  0.5882  0.1617
  337MOL0     C44391   0.816   2.982   6.477  0.0839 -0.4328  0.2191
  337MOL0     C44392   0.685   2.897   6.502 -0.8853 -0.0098  0.0828
  337MOL0     C44393   0.568   2.948   6.419 -0.7072 -1.0158 -0.6528
  337MOL0     C44394   0.501   3.087   6.462 -0.0058  0.1538 -0.1507
  337MOL0     C44395   0.382   3.069   6.560 -0.1251  0.5714 -0.0926
  337MOL0    Cl44396   0.279   3.210   6.550 -0.1905  0.0284  0.3654
  337MOL0     C44397   1.455   2.826   6.480 -0.4668 -0.6100  0.2077
  337MOL0     C44398   1.583   2.777   6.520 -0.0500 -0.5459  0.5478
  337MOL0     O44399   1.844   2.957   6.707 -0.1117  0.4729 -0.1083
  337MOL0     C44400   2.103   2.855   6.727 -0.5037  1.2875 -0.1759
  337MOL0     C44401   2.233   2.792   6.730  0.1401  0.2587  0.0731
  337MOL0     N44402   2.837   2.776   6.492 -0.3839  0.3896  0.2144
  337MOL0     N44403   2.956   2.791   6.449 -1.1535 -0.4165  0.0309
  337MOL0     C44404   4.204   3.191   6.178 -0.2714 -0.6492 -0.0940
  337MOL0     C44405   4.332   3.227   6.223  0.3601  0.3137 -0.3812
  337MOL0     C44406   4.754   3.245   6.364 -0.5304 -0.4214  0.2669
  337MOL0     C44407   4.876   3.241   6.296  0.2279  0.0713  0.5050
  337MOL0     C44408   5.003   3.258   6.362 -0.3018 -0.4221 -0.0371
  337MOL0     C44409   5.005   3.303   6.497  0.5241  0.0977  0.2278
  337MOL0     O44410   5.120   3.328   6.571  0.6960  0.0121  0.1940
  337MOL0     C44411   5.243   3.324   6.497  0.4920 -0.6443 -0.6340
  337MOL0     C44412   5.353   3.358   6.591 -0.6405  0.5506 -0.4970
  337MOL0     C44413   5.485   3.353   6.507  0.7530  0.9817 -0.0066
  337MOL0     C44414   5.585   3.427   6.593 -0.1779 -0.2173 -0.0445
  337MOL0     C44415   5.719   3.406   6.536  0.2731 -0.3852  0.4515
  337MOL0     C44416   5.824   3.379   6.488  0.1389  0.1299 -0.4986
  337MOL0     C44417   4.884   3.307   6.564 -0.5719 -0.0570 -0.0181
  337MOL0     C44418   4.767   3.281   6.502  0.4486 -0.1915 -0.0373
  337MOL0     H44419   4.353   3.005   6.475 -2.1514 -0.5752  0.7071
  337MOL0     H44420   4.122   2.950   6.412  2.1126  1.1614  2.9097
  337MOL0     H44421   3.882   2.985   6.337 -1.1866  2.6773 -0.6785
  337MOL0     H44422   3.973   2.867   6.242 -2.6273 -1.3278 -3.0005
  337MOL0     H44423   3.826   2.900   6.050  2.1930  2.2927 -0.6889
  337MOL0     H44424   3.758   3.041   6.127 -2.5676 -1.3001 -0.6909
  337MOL0     H44425   3.673   2.895   6.327 -2.1085 -1.2475  0.0101
  337MOL0     H44426   3.719   2.759   6.224  1.5931  0.3727 -0.8337
  337MOL0     H44427   3.531   2.989   6.156 -1.3461 -0.7433 -3.4784
  337MOL0     H44428   3.545   2.847   6.056 -2.8519  5.1699 -2.1415
  337MOL0     H44429   3.455   2.859   6.344 -0.9671 -0.9178  0.6882
  337MOL0     H44430   3.449   2.718   6.245 -0.3747 -0.3073 -1.2975
  337MOL0     H44431   3.287   2.803   6.090  1.2615 -1.1707  0.6698
  337MOL0     H44432   3.290   2.964   6.171  0.7973 -0.3579 -3.6817
  337MOL0     H44433   3.219   2.717   6.333  0.7957 -1.9916 -3.5729
  337MOL0     H44434   3.204   2.885   6.362 -0.4743 -1.5321  1.5379
  337MOL0     H44435   3.041   2.738   6.131 -0.2148 -2.0514  1.4137
  337MOL0     H44436   3.043   2.912   6.180  0.7368  0.4615 -1.1063
  337MOL0     H44437   2.789   2.684   6.188  0.1161 -0.9349  0.6472
  337MOL0     H44438   2.587   2.627   6.318  1.5539 -0.1863 -1.1422
  337MOL0     H44439   2.538   2.786   6.377  1.8981  0.6861 -1.8546
  337MOL0     H44440   2.543   2.713   6.608 -0.6598  0.9955 -1.0532
  337MOL0     H44441   2.642   2.570   6.563  0.6487 -1.4931 -2.8557
  337MOL0     H44442   2.349   2.625   6.473 -1.1373 -1.0385 -2.6813
  337MOL0     H44443   2.442   2.491   6.424 -1.1887  1.5112 -1.3417
  337MOL0     H44444   2.463   2.419   6.675  0.7928  1.1938  2.6960
  337MOL0     H44445   2.296   2.433   6.618  0.3041  1.3802 -4.4539
  337MOL0     H44446   2.146   2.478   6.808 -1.0183 -1.1362 -0.7396
  337MOL0     H44447   1.920   2.565   6.763  0.0688  0.6808 -0.7595
  337MOL0     H44448   1.576   2.875   6.842  1.6800  1.9690 -2.1053
  337MOL0     H44449   1.361   2.954   6.788  0.4174  1.2884  0.1514
  337MOL0     H44450   1.238   3.116   6.607 -0.1988  0.1152 -1.7090
  337MOL0     H44451   1.172   3.007   6.712  1.2145  0.8232  0.5049
  337MOL0     H44452   1.038   3.080   6.434 -0.0833 -2.2367 -0.5769
  337MOL0     H44453   1.005   3.143   6.600 -0.4432 -0.2159 -0.2102
  337MOL0     H44454   0.913   2.950   6.673 -0.1535  1.1963  0.0497
  337MOL0     H44455   0.975   2.853   6.536  1.5018  1.1350 -0.3058
  337MOL0     H44456   0.788   3.086   6.497 -1.9517 -0.7747 -0.6834
  337MOL0     H44457   0.849   2.964   6.375  0.2854  0.5450  0.0967
  337MOL0     H44458   0.666   2.894   6.609  0.3891 -1.9453  0.3121
  337MOL0     H44459   0.702   2.796   6.461 -1.6755 -0.1667  0.1226
  337MOL0     H44460   0.494   2.868   6.406  0.8356 -2.5271 -0.4075
  337MOL0     H44461   0.602   2.964   6.317  0.9602  0.8409  0.1284
  337MOL0     H44462   0.576   3.155   6.504 -0.0619 -0.6435  1.2777
  337MOL0     H44463   0.469   3.133   6.368  0.5481 -1.0753 -0.9620
  337MOL0     H44464   0.417   3.055   6.663 -1.0183 -2.0008 -0.0707
  337MOL0     H44465   0.326   2.978   6.535 -0.5858 -0.2190  3.3220
  337MOL0     H44466   1.419   2.825   6.377 -1.9954 -2.4507  0.6930
  337MOL0     H44467   1.648   2.738   6.442  0.8283  2.4910 -0.3832
  337MOL0     H44468   2.094   2.963   6.721 -2.4274  1.1680  0.0413
  337MOL0     H44469   2.321   2.850   6.704  1.6537 -2.2387 -0.6716
  337MOL0     H44470   4.162   3.250   6.098 -1.4617  0.9572  1.6169
  337MOL0     H44471   4.383   3.312   6.178  1.2422 -0.7268 -1.3924
  337MOL0     H44472   4.871   3.203   6.195  1.3728 -0.1279  0.5100
  337MOL0     H44473   5.092   3.266   6.300  0.0840  0.0891  0.5808
  337MOL0     H44474   5.240   3.402   6.421  0.4239  0.6390  0.6476
  337MOL0     H44475   5.269   3.225   6.458  1.1324 -1.5198  1.7739
  337MOL0     H44476   5.331   3.453   6.640 -0.8639 -0.2002  0.9030
  337MOL0     H44477   5.360   3.286   6.673 -0.6237  1.7451  0.5748
  337MOL0     H44478   5.473   3.411   6.415  1.2003  0.4801 -0.3815
  337MOL0     H44479   5.505   3.254   6.467  0.1567  1.2317 -0.9516
  337MOL0     H44480   5.571   3.536   6.595  0.9691  0.0130  3.8286
  337MOL0     H44481   5.579   3.390   6.696 -1.1300  1.0399  0.3802
  337MOL0     H44482   5.918   3.352   6.444 -0.0010  1.7160 -1.8771
  337MOL0     H44483   4.890   3.329   6.670 -0.1150  1.8221 -0.4001
  337MOL0     H44484   4.680   3.280   6.567 -1.4755  0.7889 -2.4552
  338MOL0     O44485   8.123   3.566   1.183  0.5185  0.5814 -0.5583
  338MOL0     C44486   8.048   3.653   1.188 -0.0171 -0.4439  0.0683
  338MOL0     O44487   8.043   3.758   1.094 -0.0319  0.5184 -0.1376
  338MOL0     C44488   8.126   3.777   0.989 -0.0139  0.1734  0.1997
  338MOL0     C44489   8.150   3.914   0.950  0.1704  0.7208  0.2010
  338MOL0     C44490   8.232   3.941   0.838  0.2811  0.0982  0.1531
  338MOL0     C44491   8.302   3.837   0.771  0.0399  0.4976 -0.0725
  338MOL0     O44492   8.404   3.866   0.686 -0.5534 -0.1917  0.5160
  338MOL0     C44493   8.447   4.005   0.668  0.4171 -0.9693  0.0536
  338MOL0     C44494   8.555   4.014   0.564 -0.6377  0.5269  0.6943
  338MOL0     C44495   8.506   3.982   0.420 -0.0700 -0.4083 -0.7291
  338MOL0     C44496   8.630   3.996   0.323 -0.5832  0.0135 -0.3288
  338MOL0     C44497   8.557   3.993   0.186 -0.3203 -0.1115  0.2968
  338MOL0     C44498   8.673   4.013   0.084  0.1207  0.1959  0.0875
  338MOL0     C44499   8.625   4.060  -0.058 -0.4388  1.1570  0.3640
  338MOL0     C44500   8.736   4.045  -0.155 -0.4867 -0.3165 -0.7829
  338MOL0     N44501   8.693   4.089  -0.285 -0.0331 -0.7977 -0.8164
  338MOL0     C44502   8.635   4.006  -0.377  0.2048 -0.3436  0.0023
  338MOL0     C44503   8.573   4.084  -0.467  0.7149 -0.4028  0.0115
  338MOL0     C44504   8.468   4.036  -0.570  0.4702 -0.0375 -0.5621
  338MOL0     C44505   8.353   3.992  -0.476 -0.2346 -0.0320 -0.1967
  338MOL0     C44506   8.224   3.979  -0.548  0.2043  0.1001  0.3050
  338MOL0     C44507   8.111   4.076  -0.514 -0.2505 -0.5261  0.2333
  338MOL0     O44508   8.088   4.086  -0.370 -0.2259  0.0667 -0.7762
  338MOL0     C44509   7.958   4.109  -0.321 -0.1433 -0.3674  0.1652
  338MOL0     C44510   7.857   4.164  -0.398 -0.3648 -0.1073  1.0808
  338MOL0     C44511   7.731   4.193  -0.350 -0.7337 -0.7497 -0.3382
  338MOL0     C44512   7.703   4.171  -0.214  0.3152  0.3217 -0.5153
  338MOL0     C44513   7.565   4.201  -0.170  0.4045  0.6900  0.4153
  338MOL0     O44514   7.483   4.264  -0.249 -0.7323  0.3131  0.8639
  338MOL0     C44515   7.354   4.262  -0.215  0.1184  0.2642 -0.6075
  338MOL0     C44516   7.285   4.349  -0.135  0.2385  0.6149  0.0176
  338MOL0     C44517   7.149   4.335  -0.106 -0.1130 -0.0529  0.4021
  338MOL0     C44518   7.080   4.226  -0.167  0.2173 -0.5460 -0.3754
  338MOL0     O44519   6.948   4.197  -0.142 -0.2060  0.1732  0.5596
  338MOL0     C44520   6.871   4.291  -0.064  0.1316 -0.0959  0.6821
  338MOL0     C44521   6.730   4.241  -0.037 -0.1252  0.4462  0.2892
  338MOL0     C44522   6.639   4.211  -0.160  0.4709 -0.2778  0.4506
  338MOL0     C44523   6.645   4.325  -0.271  0.7690 -0.5629  0.7690
  338MOL0     C44524   6.524   4.336  -0.358  0.5145  0.4717  0.3463
  338MOL0     C44525   6.519   4.209  -0.445  0.2646  0.3472  0.4024
  338MOL0     C44526   6.413   4.228  -0.551 -0.0409 -0.2135  0.5615
  338MOL0     C44527   6.416   4.125  -0.666 -0.1116 -0.0460  0.1077
  338MOL0    Cl44528   6.378   3.957  -0.596 -0.3799 -0.3107 -0.0127
  338MOL0     C44529   7.153   4.141  -0.247 -0.3541  0.6134  0.2525
  338MOL0     C44530   7.291   4.157  -0.279  0.3660  0.2057  0.2606
  338MOL0     O44531   7.540   4.155  -0.056  0.2666 -0.2421  0.1647
  338MOL0     C44532   7.804   4.112  -0.129  0.4966  0.0495  0.9906
  338MOL0     C44533   7.930   4.084  -0.185 -0.0225  0.8234 -1.3152
  338MOL0     N44534   8.605   4.218  -0.433 -0.1714 -0.5186 -0.3134
  338MOL0     N44535   8.675   4.215  -0.328 -0.2451 -0.5702 -0.3326
  338MOL0     C44536   8.265   3.704   0.788  0.5365  0.0192 -0.4012
  338MOL0     C44537   8.182   3.681   0.907 -0.7983 -0.9225  1.0275
  338MOL0     C44538   7.947   3.661   1.297  0.8171 -0.4871  0.1802
  338MOL0     C44539   7.942   3.561   1.390 -0.1429 -0.4518 -0.3592
  338MOL0     C44540   7.848   3.566   1.496  0.0308  0.3263 -0.4953
  338MOL0     C44541   7.769   3.684   1.517  0.1528 -0.3412 -0.7907
  338MOL0     O44542   7.683   3.683   1.627 -0.0781 -1.0707 -0.3635
  338MOL0     C44543   7.601   3.804   1.644  0.6522  0.5960 -1.0201
  338MOL0     C44544   7.512   3.790   1.771  0.7581 -0.0005  0.0638
  338MOL0     C44545   7.452   3.923   1.821 -0.5440 -0.1007  0.0810
  338MOL0     C44546   7.337   3.905   1.921  0.1288 -0.8103  0.7949
  338MOL0     C44547   7.216   3.827   1.877 -0.9020  0.2621 -0.4739
  338MOL0     C44548   7.128   3.754   1.843  0.4469 -0.3266  0.0574
  338MOL0     C44549   7.787   3.784   1.423 -0.3498  0.1571 -0.2303
  338MOL0     C44550   7.874   3.776   1.315  0.0719  0.8984  0.4767
  338MOL0     H44551   8.097   3.975   1.022 -0.1723  0.6061  0.0480
  338MOL0     H44552   8.258   4.042   0.811  0.3042 -0.2449 -1.1657
  338MOL0     H44553   8.494   4.031   0.763  1.5114 -0.0150 -0.7297
  338MOL0     H44554   8.356   4.056   0.637  0.2011 -1.0196  0.5977
  338MOL0     H44555   8.629   3.940   0.597 -1.5352 -1.2068 -0.9962
  338MOL0     H44556   8.604   4.111   0.570 -1.0281  0.6403  4.7790
  338MOL0     H44557   8.436   4.063   0.395  0.7258  0.6846  0.4630
  338MOL0     H44558   8.461   3.883   0.418 -0.6325 -0.3367  2.6171
  338MOL0     H44559   8.690   4.085   0.344 -0.0185 -0.4830  0.2329
  338MOL0     H44560   8.700   3.912   0.331 -0.6687 -0.3273 -2.5741
  338MOL0     H44561   8.485   4.074   0.168 -1.4456 -1.1217  0.1171
  338MOL0     H44562   8.509   3.897   0.167 -0.2783 -0.2455  0.8725
  338MOL0     H44563   8.730   3.921   0.068 -0.4844 -0.2159  0.2448
  338MOL0     H44564   8.733   4.093   0.128  2.3640 -0.5913 -1.3595
  338MOL0     H44565   8.550   3.984  -0.082  0.6356  0.4889 -1.0179
  338MOL0     H44566   8.593   4.164  -0.046  1.4182  1.6898  0.9773
  338MOL0     H44567   8.778   3.945  -0.171 -0.6357 -0.9221  2.0323
  338MOL0     H44568   8.816   4.116  -0.131  0.6899 -1.6242 -0.6804
  338MOL0     H44569   8.624   3.898  -0.371 -0.3078 -0.2123  2.0720
  338MOL0     H44570   8.504   3.949  -0.626  1.6217 -0.2588  0.4684
  338MOL0     H44571   8.429   4.108  -0.642 -0.0235 -0.8673 -1.1357
  338MOL0     H44572   8.337   4.072  -0.403 -0.6491 -1.0625  0.8751
  338MOL0     H44573   8.377   3.902  -0.419 -0.8719  1.0667  1.8965
  338MOL0     H44574   8.248   3.988  -0.655  1.5614  1.5602  0.7045
  338MOL0     H44575   8.187   3.877  -0.533  2.6822 -0.8474  0.3091
  338MOL0     H44576   8.026   4.040  -0.574  0.3916  0.8543 -1.6087
  338MOL0     H44577   8.128   4.173  -0.562  0.4411 -0.9544 -0.4162
  338MOL0     H44578   7.886   4.200  -0.496 -3.3238  0.2002  0.2362
  338MOL0     H44579   7.654   4.242  -0.409 -0.7491  1.2951  1.2569
  338MOL0     H44580   7.348   4.430  -0.099  0.4555  0.8530 -0.8790
  338MOL0     H44581   7.094   4.405  -0.044 -0.8181 -1.1738  1.0599
  338MOL0     H44582   6.877   4.394  -0.103 -2.6322  0.0542  0.4219
  338MOL0     H44583   6.920   4.289   0.033 -1.3350  0.4134  1.4582
  338MOL0     H44584   6.673   4.319   0.016 -5.4552 -2.2292 -0.8108
  338MOL0     H44585   6.742   4.151   0.023  1.4793  0.3071 -0.2196
  338MOL0     H44586   6.536   4.192  -0.129  0.5602  0.0118  0.9385
  338MOL0     H44587   6.680   4.122  -0.208  1.4941 -0.2706  1.2558
  338MOL0     H44588   6.641   4.424  -0.223 -0.7533 -0.9229  1.4604
  338MOL0     H44589   6.740   4.321  -0.325 -0.1333 -1.8484 -0.7842
  338MOL0     H44590   6.510   4.427  -0.417  0.0705 -0.6543 -1.3603
  338MOL0     H44591   6.437   4.324  -0.293 -1.9336 -2.1631 -3.0381
  338MOL0     H44592   6.499   4.113  -0.396 -0.6324 -0.1538 -0.8918
  338MOL0     H44593   6.614   4.205  -0.499  0.7693  2.1648  1.1116
  338MOL0     H44594   6.320   4.230  -0.495 -0.3035  0.7858  0.1086
  338MOL0     H44595   6.422   4.328  -0.595 -2.8830  0.4112  1.2259
  338MOL0     H44596   6.513   4.128  -0.717  0.1434  0.7646  0.6264
  338MOL0     H44597   6.349   4.152  -0.748  2.2016 -0.2131 -1.9765
  338MOL0     H44598   7.090   4.062  -0.288 -1.7513  2.8513 -2.1783
  338MOL0     H44599   7.346   4.088  -0.342  1.4847 -0.1310  1.5334
  338MOL0     H44600   7.771   4.114  -0.026 -2.2457 -3.8790  0.4168
  338MOL0     H44601   8.006   4.058  -0.112 -1.0597 -0.7963 -0.7446
  338MOL0     H44602   8.313   3.625   0.731  1.2983 -0.7613  1.2520
  338MOL0     H44603   8.154   3.577   0.922 -0.8380 -1.3145 -1.3871
  338MOL0     H44604   7.993   3.466   1.375  0.0828 -0.3009 -0.5503
  338MOL0     H44605   7.833   3.479   1.559 -1.0496  0.3078 -0.7535
  338MOL0     H44606   7.541   3.838   1.559 -1.6828  1.1955  0.7502
  338MOL0     H44607   7.659   3.891   1.675  0.6082  0.4781 -0.5997
  338MOL0     H44608   7.427   3.725   1.749  1.2852 -0.0136 -2.2601
  338MOL0     H44609   7.578   3.753   1.850  1.0429 -0.3856 -0.3449
  338MOL0     H44610   7.425   3.991   1.739 -1.0259 -1.1359 -0.6505
  338MOL0     H44611   7.529   3.977   1.877  0.8595 -1.2859 -0.6280
  338MOL0     H44612   7.363   3.862   2.019  0.2657 -0.5999  0.8522
  338MOL0     H44613   7.309   4.009   1.939 -0.0284 -0.6901 -0.1240
  338MOL0     H44614   7.048   3.697   1.801 -0.3209  2.9777 -3.5385
  338MOL0     H44615   7.746   3.883   1.443  3.0112  1.3960  1.3171
  338MOL0     H44616   7.877   3.865   1.252 -0.7675  0.4622 -0.2041
  339MOL0     O44617   6.883   3.070   3.709 -0.2139 -0.1517  0.3638
  339MOL0     C44618   6.878   2.960   3.760 -0.7410 -0.2428 -0.4932
  339MOL0     O44619   6.803   2.923   3.874  0.6737 -0.0365  0.1301
  339MOL0     C44620   6.697   2.996   3.910 -0.4263 -0.2713  0.0530
  339MOL0     C44621   6.672   2.983   4.046 -0.2291  0.0263 -0.1501
  339MOL0     C44622   6.574   3.068   4.111  0.1844  0.7199  0.8649
  339MOL0     C44623   6.487   3.154   4.038  0.7423  0.4065  0.6486
  339MOL0     O44624   6.403   3.235   4.104 -0.1398 -0.7729  0.2688
  339MOL0     C44625   6.307   3.314   4.031 -0.6876  0.2744 -0.3168
  339MOL0     C44626   6.215   3.378   4.129 -0.0726  0.3537 -0.1026
  339MOL0     C44627   6.159   3.516   4.082  0.0814  1.0148 -1.2564
  339MOL0     C44628   6.060   3.568   4.190  0.1132  0.5684  0.3844
  339MOL0     C44629   5.964   3.667   4.129 -0.0948 -0.8674 -0.4048
  339MOL0     C44630   5.872   3.749   4.231 -0.0174  0.0174 -0.2613
  339MOL0     C44631   5.756   3.818   4.155  0.0666 -0.4032 -1.0149
  339MOL0     C44632   5.704   3.934   4.228 -0.0448  0.2099 -0.4753
  339MOL0     N44633   5.618   4.032   4.158  0.6078  0.0052 -0.5471
  339MOL0     C44634   5.672   4.123   4.064 -0.2148  0.0172 -0.4634
  339MOL0     C44635   5.560   4.194   4.039  0.3094 -0.1847 -0.0708
  339MOL0     C44636   5.542   4.298   3.934  0.5271 -0.4973  0.1543
  339MOL0     C44637   5.647   4.402   3.953  0.5236 -0.4557 -0.7048
  339MOL0     C44638   5.606   4.532   3.882 -0.1995  0.2975  0.5234
  339MOL0     C44639   5.611   4.532   3.725  0.1291  0.4850 -0.4732
  339MOL0     O44640   5.480   4.484   3.689 -0.4223  0.0463 -0.0256
  339MOL0     C44641   5.433   4.484   3.556 -0.0212  0.1383  0.9287
  339MOL0     C44642   5.300   4.451   3.532  0.4167 -0.1200  0.6475
  339MOL0     C44643   5.258   4.443   3.394 -0.8677 -0.0298 -0.7201
  339MOL0     C44644   5.342   4.462   3.284 -0.3959 -0.2570 -0.5570
  339MOL0     C44645   5.301   4.420   3.145 -0.2644 -0.5841  0.0350
  339MOL0     O44646   5.172   4.375   3.132  0.1207  0.6132 -0.0459
  339MOL0     C44647   5.117   4.374   3.002  0.1297  0.1592 -0.6295
  339MOL0     C44648   5.063   4.255   2.948  0.4954  0.0870 -0.5782
  339MOL0     C44649   4.998   4.254   2.825  0.6444 -0.7411 -0.1983
  339MOL0     C44650   4.988   4.367   2.753 -0.8212 -0.1302  0.4403
  339MOL0     O44651   4.913   4.348   2.642  0.1233 -0.1219  0.1491
  339MOL0     C44652   4.888   4.466   2.560 -0.0262 -0.0754 -0.1175
  339MOL0     C44653   4.815   4.426   2.428 -0.1835 -0.1098 -0.7864
  339MOL0     C44654   4.659   4.397   2.441  0.7503 -0.1498  1.2120
  339MOL0     C44655   4.606   4.322   2.314 -0.8268 -0.1772 -0.6574
  339MOL0     C44656   4.461   4.273   2.330 -0.8560  0.4867  0.4001
  339MOL0     C44657   4.370   4.275   2.205  0.5089  0.3344  0.0909
  339MOL0     C44658   4.361   4.415   2.151 -0.2783  0.0296  0.0528
  339MOL0     C44659   4.234   4.440   2.067  0.1181 -0.6745 -0.3955
  339MOL0    Cl44660   4.261   4.364   1.914 -0.0195 -0.2235 -0.1595
  339MOL0     C44661   5.036   4.490   2.798 -0.3524  0.5127 -0.6520
  339MOL0     C44662   5.103   4.491   2.926  0.7357 -0.2085  0.2393
  339MOL0     O44663   5.382   4.427   3.052 -0.7560 -0.2240 -0.9077
  339MOL0     C44664   5.476   4.479   3.320  0.2540  0.1100 -0.0208
  339MOL0     C44665   5.524   4.502   3.448 -0.3018 -0.9595  0.9907
  339MOL0     N44666   5.453   4.161   4.128 -0.4999 -0.7661  0.1267
  339MOL0     N44667   5.494   4.060   4.196  0.4320 -0.4997 -0.2534
  339MOL0     C44668   6.504   3.154   3.901 -0.7957  0.0216 -0.0632
  339MOL0     C44669   6.603   3.073   3.835  0.5600 -0.9183 -0.7891
  339MOL0     C44670   6.993   2.876   3.715  0.4494  0.2677  0.0927
  339MOL0     C44671   7.028   2.757   3.791 -0.7529 -0.3067 -0.3629
  339MOL0     C44672   7.139   2.679   3.746 -0.8450  1.3171 -0.3342
  339MOL0     C44673   7.202   2.707   3.628 -0.4861  0.4893 -0.1432
  339MOL0     O44674   7.327   2.646   3.610 -0.6723 -0.4764 -0.5721
  339MOL0     C44675   7.363   2.602   3.479 -0.2133  0.3262 -1.1404
  339MOL0     C44676   7.485   2.678   3.429 -0.0447  0.2482 -0.2902
  339MOL0     C44677   7.599   2.670   3.529  0.4898  0.3320 -0.8880
  339MOL0     C44678   7.721   2.734   3.471 -0.2729 -0.8426  0.8639
  339MOL0     C44679   7.837   2.718   3.555  0.8424  0.1624 -0.0347
  339MOL0     C44680   7.929   2.690   3.628  0.1231  0.3009  0.0631
  339MOL0     C44681   7.154   2.811   3.555 -0.0379 -0.1205  0.1409
  339MOL0     C44682   7.055   2.896   3.591 -0.2910 -0.0543  0.1085
  339MOL0     H44683   6.734   2.910   4.095  0.1059 -0.9220 -1.9087
  339MOL0     H44684   6.560   3.051   4.217 -0.5765 -2.3322  0.3760
  339MOL0     H44685   6.252   3.250   3.960  1.0504 -0.4406 -1.0712
  339MOL0     H44686   6.342   3.396   3.968 -1.5499 -0.9341 -2.5341
  339MOL0     H44687   6.271   3.390   4.223 -1.6577 -0.2185  0.9541
  339MOL0     H44688   6.129   3.314   4.146 -0.2300  0.2236 -1.3028
  339MOL0     H44689   6.105   3.511   3.987 -1.5432 -1.3598 -0.3105
  339MOL0     H44690   6.243   3.584   4.066 -1.0473  3.0181  0.7437
  339MOL0     H44691   6.008   3.483   4.236  2.2780 -2.3130 -2.0806
  339MOL0     H44692   6.111   3.616   4.274 -2.4880 -0.3042  2.6452
  339MOL0     H44693   5.896   3.609   4.066 -2.0758  0.1494  0.7084
  339MOL0     H44694   6.026   3.738   4.073 -0.7226 -1.1770 -1.5304
  339MOL0     H44695   5.930   3.817   4.293 -2.0841 -0.2040  2.0246
  339MOL0     H44696   5.831   3.671   4.295 -0.8053 -0.6782 -1.5659
  339MOL0     H44697   5.789   3.861   4.060  0.6766  1.4139 -0.0302
  339MOL0     H44698   5.676   3.746   4.136 -0.8224  0.7489 -1.7176
  339MOL0     H44699   5.786   3.993   4.269  0.2618  0.8767 -2.0003
  339MOL0     H44700   5.641   3.896   4.309 -1.1650 -0.4289 -1.6038
  339MOL0     H44701   5.762   4.109   4.004  1.5136 -0.8288  2.1542
  339MOL0     H44702   5.442   4.341   3.935  0.7678  0.4763 -3.3375
  339MOL0     H44703   5.560   4.240   3.843 -0.8894  0.8914 -1.0578
  339MOL0     H44704   5.737   4.363   3.904  0.7426  0.5971 -1.1653
  339MOL0     H44705   5.658   4.441   4.054 -2.0649 -0.3034 -0.4326
  339MOL0     H44706   5.509   4.570   3.917  1.0814  0.3377  4.3831
  339MOL0     H44707   5.666   4.615   3.920 -0.8417  0.3100  1.5537
  339MOL0     H44708   5.699   4.485   3.681  1.2357  0.2759  1.8093
  339MOL0     H44709   5.610   4.639   3.706 -0.8062  1.1997  2.9186
  339MOL0     H44710   5.225   4.433   3.609  0.3837  1.9215  1.1441
  339MOL0     H44711   5.153   4.425   3.372 -0.5207 -3.0940 -0.3506
  339MOL0     H44712   5.069   4.158   2.996  1.9889  0.0822 -0.7274
  339MOL0     H44713   4.950   4.165   2.788  1.9022 -1.7926  0.6263
  339MOL0     H44714   4.984   4.506   2.528 -1.0011  1.0972 -1.8084
  339MOL0     H44715   4.831   4.549   2.603  1.1433 -0.0955  1.5172
  339MOL0     H44716   4.864   4.331   2.404 -0.2036 -1.1366  2.7224
  339MOL0     H44717   4.834   4.499   2.349  1.8841  0.5774  0.2878
  339MOL0     H44718   4.614   4.497   2.434  0.4428 -0.4094 -2.1175
  339MOL0     H44719   4.632   4.344   2.532 -3.4148 -0.1122  0.1810
  339MOL0     H44720   4.602   4.393   2.230 -0.9209  1.8583  0.9908
  339MOL0     H44721   4.676   4.246   2.277  0.2828  2.3221 -4.3654
  339MOL0     H44722   4.413   4.324   2.414 -1.2929 -0.5100  0.7790
  339MOL0     H44723   4.479   4.166   2.346 -1.8110 -0.0058 -1.5499
  339MOL0     H44724   4.272   4.246   2.244 -0.2998  0.4491 -1.7200
  339MOL0     H44725   4.407   4.198   2.137  2.3199  0.8222  0.4715
  339MOL0     H44726   4.353   4.484   2.235 -1.2275  0.8256 -0.6612
  339MOL0     H44727   4.447   4.448   2.091 -0.2211  0.5958  0.4361
  339MOL0     H44728   4.203   4.544   2.051  0.3349 -0.5549 -0.0488
  339MOL0     H44729   4.152   4.407   2.131 -0.1440  0.3673 -0.1776
  339MOL0     H44730   5.037   4.584   2.745  2.0062 -0.1714 -1.9555
  339MOL0     H44731   5.133   4.589   2.961 -0.1809  0.4627 -0.7979
  339MOL0     H44732   5.559   4.491   3.251  0.5673  0.4576  0.4149
  339MOL0     H44733   5.628   4.534   3.457 -0.2620 -0.9187  0.4275
  339MOL0     H44734   6.443   3.218   3.838  0.1889 -1.3918 -2.6465
  339MOL0     H44735   6.604   3.086   3.727  3.8186  1.5924 -0.6212
  339MOL0     H44736   6.977   2.732   3.884  0.5426  0.1435  0.5017
  339MOL0     H44737   7.168   2.586   3.793 -1.0588  1.0156 -0.7937
  339MOL0     H44738   7.277   2.595   3.412 -1.7262  1.3861  0.5947
  339MOL0     H44739   7.394   2.498   3.476 -1.7198 -0.3325  2.0634
  339MOL0     H44740   7.519   2.635   3.335  0.0747  0.0271 -0.1494
  339MOL0     H44741   7.464   2.783   3.410 -0.6599 -0.0602 -1.3740
  339MOL0     H44742   7.620   2.563   3.535  0.7692  0.3513 -1.4380
  339MOL0     H44743   7.576   2.714   3.626  0.2450 -2.3820  0.3636
  339MOL0     H44744   7.741   2.689   3.373 -3.4977 -2.3716  0.7595
  339MOL0     H44745   7.709   2.841   3.455  2.4742 -0.7237 -1.0326
  339MOL0     H44746   8.014   2.679   3.692 -1.6264 -1.2161  2.2685
  339MOL0     H44747   7.199   2.827   3.457  1.4848 -1.9975  0.4883
  339MOL0     H44748   7.026   2.981   3.530  2.1786  1.4178  0.8494
  340MOL0     O44749   3.004   2.280   0.514 -0.0561  0.4430  0.2491
  340MOL0     C44750   3.017   2.392   0.474  0.0686 -0.8210 -0.1880
  340MOL0     O44751   2.915   2.467   0.440  0.8635  0.1880 -0.4483
  340MOL0     C44752   2.785   2.410   0.448  0.0230  0.1281 -0.6038
  340MOL0     C44753   2.742   2.299   0.371  0.3031 -0.3594  0.0609
  340MOL0     C44754   2.607   2.269   0.366  0.7167  0.8368  0.4694
  340MOL0     C44755   2.510   2.325   0.453  0.1276 -0.4089  0.7188
  340MOL0     O44756   2.391   2.256   0.456  0.2026  0.6728 -0.0729
  340MOL0     C44757   2.301   2.310   0.550 -0.4320  0.4733  0.2287
  340MOL0     C44758   2.168   2.241   0.530 -0.2893  0.6867 -0.6414
  340MOL0     C44759   2.050   2.300   0.611 -0.6667 -0.2922 -1.0556
  340MOL0     C44760   2.044   2.252   0.757  0.4839  0.3313  0.1079
  340MOL0     C44761   1.973   2.356   0.854 -0.5326  0.0080 -0.1461
  340MOL0     C44762   1.820   2.358   0.831 -0.8602 -0.4976  0.3976
  340MOL0     C44763   1.741   2.407   0.955  0.5384 -0.1562  0.4271
  340MOL0     C44764   1.637   2.520   0.924 -0.4170  0.7174  0.1614
  340MOL0     N44765   1.545   2.557   1.034 -0.2203 -0.5404 -0.0982
  340MOL0     C44766   1.423   2.521   1.039  0.7159 -0.5746 -0.8020
  340MOL0     C44767   1.366   2.613   1.125  1.2497 -0.1726  0.7156
  340MOL0     C44768   1.219   2.632   1.162  0.1935 -0.1864  0.0345
  340MOL0     C44769   1.170   2.510   1.237  0.8446 -0.2213 -0.7015
  340MOL0     C44770   1.014   2.508   1.272 -0.3352 -0.3995 -0.3652
  340MOL0     C44771   0.919   2.505   1.151 -0.5810  0.0512  0.1166
  340MOL0     O44772   0.783   2.530   1.183  0.0047  0.6029 -0.4318
  340MOL0     C44773   0.687   2.475   1.105 -0.2184 -0.4378  0.2231
  340MOL0     C44774   0.558   2.469   1.150 -0.0468 -0.6217 -0.0087
  340MOL0     C44775   0.452   2.421   1.077 -0.8251  1.0682 -0.9140
  340MOL0     C44776   0.472   2.371   0.947  0.4683 -0.6041 -0.1989
  340MOL0     C44777   0.360   2.320   0.864 -0.3983 -0.2708 -0.0461
  340MOL0     O44778   0.232   2.319   0.913 -0.5265  0.1853 -0.0393
  340MOL0     C44779   0.133   2.244   0.859 -0.3396 -0.2117 -0.9034
  340MOL0     C44780   0.010   2.315   0.842 -0.1626  0.5839 -0.1414
  340MOL0     C44781  -0.102   2.242   0.809  0.6983  0.4599 -1.1235
  340MOL0     C44782  -0.095   2.102   0.777  0.6352  0.5548 -0.4374
  340MOL0     O44783  -0.207   2.041   0.719  0.2136 -0.1593 -0.3483
  340MOL0     C44784  -0.275   2.106   0.603 -0.7319 -0.2730  0.0385
  340MOL0     C44785  -0.259   2.018   0.483  0.3336 -0.0124 -0.1928
  340MOL0     C44786  -0.108   2.019   0.452  0.5734 -0.2525 -0.4643
  340MOL0     C44787  -0.081   1.980   0.308  0.4583  0.5530  0.5319
  340MOL0     C44788   0.044   1.886   0.276 -0.2310  0.5603 -0.3433
  340MOL0     C44789   0.171   1.950   0.338 -0.6499  0.0532 -0.2717
  340MOL0     C44790   0.297   1.883   0.295  0.5507 -0.1705 -0.4179
  340MOL0     C44791   0.420   1.946   0.353 -0.3266  0.2022  0.0767
  340MOL0    Cl44792   0.404   1.926   0.528  0.3212 -0.1307 -0.0381
  340MOL0     C44793   0.026   2.038   0.798 -0.1106  0.0777 -0.1637
  340MOL0     C44794   0.143   2.107   0.835 -0.6459  0.5492  0.2140
  340MOL0     O44795   0.389   2.290   0.743 -0.1133 -0.0945  0.2350
  340MOL0     C44796   0.602   2.373   0.899  0.7223  0.0111 -0.4974
  340MOL0     C44797   0.708   2.427   0.975  0.5355  0.1891  0.5598
  340MOL0     N44798   1.470   2.687   1.175  0.2519 -0.5259 -0.1845
  340MOL0     N44799   1.579   2.653   1.119 -0.0471 -0.3665 -0.1586
  340MOL0     C44800   2.561   2.416   0.549  0.0704 -0.6424 -0.2955
  340MOL0     C44801   2.694   2.471   0.530 -0.0765  0.5142 -0.6908
  340MOL0     C44802   3.150   2.463   0.489 -0.3058 -0.2366  1.0500
  340MOL0     C44803   3.268   2.393   0.531 -0.0534 -0.5286 -0.2242
  340MOL0     C44804   3.394   2.459   0.528 -0.3239  0.5825 -0.4851
  340MOL0     C44805   3.403   2.599   0.498  0.7001  0.8956  0.0655
  340MOL0     O44806   3.538   2.643   0.497  0.5384 -0.0722  0.7944
  340MOL0     C44807   3.565   2.770   0.436  0.0322  0.3248 -0.0318
  340MOL0     C44808   3.714   2.774   0.418 -0.0278 -0.5084 -0.9772
  340MOL0     C44809   3.758   2.897   0.338 -0.1446 -0.5228 -0.6388
  340MOL0     C44810   3.906   2.907   0.309 -0.2073 -0.5123  0.1043
  340MOL0     C44811   3.936   3.017   0.213  0.0506 -0.0191  0.1317
  340MOL0     C44812   3.972   3.112   0.138 -1.0250 -0.6610  0.0962
  340MOL0     C44813   3.293   2.667   0.463  0.2291  0.3449  0.2107
  340MOL0     C44814   3.168   2.608   0.468  0.1881  0.0372 -0.2488
  340MOL0     H44815   2.821   2.255   0.311  1.5445  0.6114  0.9334
  340MOL0     H44816   2.572   2.197   0.292  0.0638  1.4195  0.1936
  340MOL0     H44817   2.289   2.417   0.527 -0.7510 -0.2180 -3.4141
  340MOL0     H44818   2.334   2.308   0.655  0.8137  0.0111 -0.1599
  340MOL0     H44819   2.175   2.133   0.550 -0.1302  1.3396  3.7413
  340MOL0     H44820   2.148   2.243   0.422  1.6140 -3.3003 -1.2859
  340MOL0     H44821   1.953   2.279   0.564 -1.8770 -1.2084  1.6060
  340MOL0     H44822   2.052   2.409   0.618  1.5719 -0.3664  0.2680
  340MOL0     H44823   1.972   2.170   0.760  0.5795 -0.0203 -3.1780
  340MOL0     H44824   2.144   2.225   0.794  0.2321 -0.8284 -0.0002
  340MOL0     H44825   2.010   2.459   0.843  0.5182 -0.5359 -2.1579
  340MOL0     H44826   1.993   2.319   0.955 -0.4694  1.7439  0.5186
  340MOL0     H44827   1.788   2.255   0.809  0.4268 -0.9494  0.5100
  340MOL0     H44828   1.789   2.413   0.742 -1.7736  0.9795  1.5779
  340MOL0     H44829   1.692   2.328   1.012  0.3786 -1.6974 -1.7077
  340MOL0     H44830   1.815   2.457   1.019 -0.8927  1.2736  1.0245
  340MOL0     H44831   1.576   2.493   0.837 -2.5067  0.6470  1.5740
  340MOL0     H44832   1.701   2.603   0.892 -0.0955  0.2672 -0.3833
  340MOL0     H44833   1.378   2.431   1.000  2.2089 -2.1916  0.9960
  340MOL0     H44834   1.159   2.638   1.071  1.3573 -0.1994 -0.7555
  340MOL0     H44835   1.202   2.716   1.231 -0.4971 -0.8831  0.7350
  340MOL0     H44836   1.216   2.516   1.336  0.5936  3.2895 -0.6452
  340MOL0     H44837   1.204   2.425   1.179  0.6527 -2.5172  2.2879
  340MOL0     H44838   0.995   2.416   1.328  0.9309  0.3079  1.3150
  340MOL0     H44839   0.988   2.595   1.333  1.8501  0.8259 -1.0537
  340MOL0     H44840   0.938   2.406   1.110 -0.3733 -0.0144  0.3659
  340MOL0     H44841   0.945   2.581   1.077  0.4635 -0.1741  0.2338
  340MOL0     H44842   0.548   2.513   1.249 -0.8555  1.4374 -0.9579
  340MOL0     H44843   0.351   2.426   1.118 -1.4454 -0.4162 -2.1771
  340MOL0     H44844  -0.002   2.417   0.877  0.2342  0.7903 -0.5999
  340MOL0     H44845  -0.196   2.297   0.810  0.7177  0.5792  1.3451
  340MOL0     H44846  -0.242   2.208   0.581 -0.3123 -0.2467  0.7484
  340MOL0     H44847  -0.382   2.115   0.624 -0.9126  3.6383 -1.6727
  340MOL0     H44848  -0.314   2.063   0.399  1.6538  1.4172 -0.3336
  340MOL0     H44849  -0.296   1.918   0.505 -0.1274 -0.7478 -3.6303
  340MOL0     H44850  -0.054   1.947   0.514  0.1685  1.6403  2.2833
  340MOL0     H44851  -0.072   2.122   0.462 -1.1635  0.3938 -0.3836
  340MOL0     H44852  -0.159   1.910   0.276  2.3621 -1.3921 -0.1589
  340MOL0     H44853  -0.093   2.071   0.250  0.0169  1.2720  1.7206
  340MOL0     H44854   0.047   1.875   0.167 -0.0695  2.0345 -0.5158
  340MOL0     H44855   0.041   1.789   0.326  0.7139  0.6143 -0.1517
  340MOL0     H44856   0.159   1.931   0.445  1.1134 -2.3871 -0.4168
  340MOL0     H44857   0.174   2.058   0.319 -1.5930  0.0362 -0.5634
  340MOL0     H44858   0.293   1.781   0.335  1.8049  0.9561  2.9138
  340MOL0     H44859   0.292   1.886   0.186  1.2821 -1.2821 -0.4916
  340MOL0     H44860   0.433   2.046   0.312 -1.4997 -0.1354 -1.2345
  340MOL0     H44861   0.513   1.898   0.320  1.2721  3.5270 -0.6323
  340MOL0     H44862   0.037   1.934   0.771 -1.2591 -0.4989  1.4049
  340MOL0     H44863   0.236   2.052   0.836 -0.2613  1.1920  0.3835
  340MOL0     H44864   0.616   2.323   0.804 -0.8278 -0.3478 -0.5685
  340MOL0     H44865   0.807   2.422   0.931  0.8885  2.3683  0.9721
  340MOL0     H44866   2.492   2.453   0.624 -1.3746  0.7311 -2.1991
  340MOL0     H44867   2.728   2.557   0.586  2.5326  1.4407 -3.3925
  340MOL0     H44868   3.255   2.287   0.550  1.0284 -0.6600 -0.1557
  340MOL0     H44869   3.491   2.414   0.546 -0.7941 -0.4657 -0.4894
  340MOL0     H44870   3.528   2.844   0.508  3.5639  0.2870  2.0530
  340MOL0     H44871   3.509   2.785   0.343 -1.4396  1.9314  1.0423
  340MOL0     H44872   3.767   2.770   0.514  2.2384 -3.4002 -2.1806
  340MOL0     H44873   3.738   2.685   0.359 -3.1935 -0.3935 -2.6384
  340MOL0     H44874   3.737   2.983   0.402  3.9125 -1.9902  3.1824
  340MOL0     H44875   3.691   2.904   0.252 -0.8648  2.8140  0.0530
  340MOL0     H44876   3.971   2.937   0.392  0.5200  2.0248 -1.2744
  340MOL0     H44877   3.939   2.814   0.262  2.2561  0.9003 -1.1641
  340MOL0     H44878   4.000   3.199   0.083 -0.0291 -0.4501  0.8980
  340MOL0     H44879   3.298   2.769   0.428  0.9841 -0.8071 -3.5121
  340MOL0     H44880   3.084   2.660   0.423  0.0699  0.6584  0.6764
  341MOL0     O44881   7.387  10.223   7.777  0.2385  0.0096  0.1556
  341MOL0     C44882   7.439  10.304   7.699 -0.0675  0.5341 -0.1240
  341MOL0     O44883   7.387  10.387   7.607 -0.2911 -0.4657  0.0413
  341MOL0     C44884   7.257  10.385   7.563 -0.5418  0.3752 -0.4950
  341MOL0     C44885   7.145  10.328   7.629 -0.2227 -0.1380  0.4904
  341MOL0     C44886   7.016  10.336   7.564 -0.2477  0.3660 -0.1767
  341MOL0     C44887   7.013  10.387   7.434  0.6430  0.6029 -0.3716
  341MOL0     O44888   6.888  10.387   7.370 -0.6488 -0.0047  0.0492
  341MOL0     C44889   6.881  10.355   7.233 -0.3703 -0.5153 -0.5211
  341MOL0     C44890   6.747  10.298   7.198  0.3641 -0.0369 -1.1435
  341MOL0     C44891   6.628  10.397   7.230  0.7602  0.0718 -0.2543
  341MOL0     C44892   6.620  10.522   7.136 -0.3445 -0.2923 -0.4661
  341MOL0     C44893   6.500  10.602   7.177  0.0453 -0.3412  0.0717
  341MOL0     C44894   6.479  10.743   7.112  0.4037  0.5940  0.4766
  341MOL0     C44895   6.445  10.714   6.958 -0.1742 -0.2008  0.0912
  341MOL0     C44896   6.409  10.842   6.879 -0.4679  0.3981 -1.1177
  341MOL0     N44897   6.270  10.889   6.890  0.5825  0.1008  0.4281
  341MOL0     C44898   6.153  10.867   6.814  0.1954 -0.0063 -0.3207
  341MOL0     C44899   6.067  10.964   6.846 -0.0736 -0.1502 -0.1245
  341MOL0     C44900   5.936  10.988   6.768  0.3417 -1.6344 -0.1630
  341MOL0     C44901   5.912  10.921   6.640 -0.2526 -0.4480 -0.1973
  341MOL0     C44902   5.783  10.949   6.569  0.1212 -0.0486  0.8775
  341MOL0     C44903   5.779  11.089   6.511  0.1145  0.2404  0.6082
  341MOL0     O44904   5.699  11.175   6.586  0.3313  0.2368 -0.3478
  341MOL0     C44905   5.567  11.168   6.577  1.0885 -0.0275  1.5438
  341MOL0     C44906   5.482  11.083   6.503 -0.1569 -0.0367 -0.2703
  341MOL0     C44907   5.346  11.080   6.514 -0.7885 -0.1128 -0.6189
  341MOL0     C44908   5.276  11.170   6.602  0.6288 -0.8278 -0.3333
  341MOL0     C44909   5.137  11.183   6.595  1.2620  0.4451  0.1393
  341MOL0     O44910   5.087  11.299   6.654  0.0021 -0.2449 -0.0229
  341MOL0     C44911   4.954  11.325   6.642  0.5683 -1.4171 -1.5906
  341MOL0     C44912   4.915  11.433   6.563 -0.8805  0.1473  0.1755
  341MOL0     C44913   4.784  11.479   6.566 -0.3957  0.1011 -0.4966
  341MOL0     C44914   4.688  11.417   6.646 -0.4808 -0.3282  0.1008
  341MOL0     O44915   4.557  11.464   6.659 -0.1945 -0.7927  0.8918
  341MOL0     C44916   4.466  11.392   6.733  0.8152 -0.0428  0.2494
  341MOL0     C44917   4.342  11.489   6.754  0.1778  0.0475  0.3887
  341MOL0     C44918   4.384  11.603   6.841 -0.9533 -0.3995 -0.7907
  341MOL0     C44919   4.269  11.657   6.925 -0.4140  0.1658  0.0231
  341MOL0     C44920   4.300  11.786   6.996 -0.3373  0.1202 -0.4443
  341MOL0     C44921   4.186  11.875   7.023  0.7593  0.1012 -0.3082
  341MOL0     C44922   4.211  11.990   7.126 -0.0497  0.5111 -0.1972
  341MOL0     C44923   4.305  12.104   7.073 -0.0456  0.7945  0.0239
  341MOL0    Cl44924   4.286  12.261   7.149  0.4729 -0.0547  0.4035
  341MOL0     C44925   4.731  11.306   6.727 -0.3070 -0.6564  0.0771
  341MOL0     C44926   4.866  11.265   6.728  0.9302 -0.6687 -0.2900
  341MOL0     O44927   5.073  11.114   6.515  0.1519 -0.4946  0.0162
  341MOL0     C44928   5.356  11.252   6.684 -0.2318 -0.0619 -0.3716
  341MOL0     C44929   5.500  11.255   6.664  0.9639  0.2970 -1.0813
  341MOL0     N44930   6.126  11.035   6.946  1.1363 -0.3601 -0.1150
  341MOL0     N44931   6.242  10.985   6.980  0.7862 -0.1005  0.4743
  341MOL0     C44932   7.125  10.434   7.367 -0.5056  0.9025  0.9356
  341MOL0     C44933   7.250  10.437   7.436  0.4391  0.0026 -0.6029
  341MOL0     C44934   7.573  10.336   7.741 -0.6257  0.6926 -0.6941
  341MOL0     C44935   7.651  10.232   7.807  0.2900 -0.1203 -0.0353
  341MOL0     C44936   7.780  10.271   7.858 -0.4785  0.9885  1.2402
  341MOL0     C44937   7.835  10.402   7.848  0.4441 -0.2511 -0.2502
  341MOL0     O44938   7.958  10.418   7.893 -0.1307 -0.7349 -0.7933
  341MOL0     C44939   8.009  10.557   7.900 -0.8562  0.6856  0.3296
  341MOL0     C44940   8.142  10.547   7.980 -0.1418  0.6503  0.0997
  341MOL0     C44941   8.206  10.684   7.995  0.1493 -0.0810 -0.4141
  341MOL0     C44942   8.316  10.681   8.104 -0.3772  0.4178  0.2450
  341MOL0     C44943   8.424  10.596   8.061  0.2502 -0.2720  0.9374
  341MOL0     C44944   8.506  10.516   8.030 -0.5874 -0.2842 -0.1139
  341MOL0     C44945   7.748  10.497   7.788  0.5398  0.2317  0.0935
  341MOL0     C44946   7.627  10.460   7.730 -0.2797 -0.2049 -0.0293
  341MOL0     H44947   7.164  10.281   7.725  1.3759  1.7903  1.1823
  341MOL0     H44948   6.937  10.274   7.606  1.3329 -3.0740 -1.8267
  341MOL0     H44949   6.958  10.281   7.211 -1.7209 -2.7188  1.6667
  341MOL0     H44950   6.907  10.451   7.186  0.9639  0.5161  2.0964
  341MOL0     H44951   6.738  10.201   7.247  0.2224  0.0426 -1.0110
  341MOL0     H44952   6.746  10.273   7.091 -0.3252 -0.8330 -0.9663
  341MOL0     H44953   6.638  10.443   7.329 -2.7384 -0.2746  0.3900
  341MOL0     H44954   6.537  10.337   7.219  0.9182 -0.0896 -0.6687
  341MOL0     H44955   6.706  10.588   7.154  0.7657 -1.5684 -0.9757
  341MOL0     H44956   6.602  10.487   7.034 -3.4368  0.2154 -0.1991
  341MOL0     H44957   6.503  10.611   7.286  3.8429 -0.3258  0.0944
  341MOL0     H44958   6.413  10.537   7.168  1.0366 -1.9696  1.6488
  341MOL0     H44959   6.569  10.806   7.117  1.0577  0.6546 -5.2110
  341MOL0     H44960   6.392  10.786   7.162  1.7747  1.3974  2.3079
  341MOL0     H44961   6.526  10.656   6.913 -1.9836 -2.7228 -0.1241
  341MOL0     H44962   6.359  10.646   6.954 -0.0015 -0.3593 -1.6668
  341MOL0     H44963   6.427  10.829   6.772 -1.2610 -0.2705 -1.1773
  341MOL0     H44964   6.477  10.921   6.914  0.8234 -0.6364 -1.1996
  341MOL0     H44965   6.138  10.794   6.735 -2.8178 -0.5245  0.5988
  341MOL0     H44966   5.940  11.094   6.741 -0.3038 -1.9185 -1.4836
  341MOL0     H44967   5.854  10.970   6.839 -1.0450 -0.9918 -1.5440
  341MOL0     H44968   5.922  10.813   6.648  0.5044 -0.2563  2.3918
  341MOL0     H44969   5.998  10.942   6.575 -0.4537 -0.5294 -0.4892
  341MOL0     H44970   5.765  10.868   6.498 -1.7951  0.5540  0.6277
  341MOL0     H44971   5.702  10.938   6.641 -2.4326  0.1312 -1.7591
  341MOL0     H44972   5.756  11.093   6.404 -0.1528 -1.3431  0.5883
  341MOL0     H44973   5.878  11.134   6.525  0.0229  1.0082 -1.0590
  341MOL0     H44974   5.525  11.009   6.436 -3.9909 -1.4579 -1.4257
  341MOL0     H44975   5.290  11.012   6.450 -3.0389  0.9946  0.0645
  341MOL0     H44976   5.005  11.474   6.518  0.0279 -2.1943 -0.2688
  341MOL0     H44977   4.744  11.560   6.505 -0.6642  1.2979  1.1946
  341MOL0     H44978   4.507  11.375   6.832  1.8427  2.0525  0.2301
  341MOL0     H44979   4.434  11.298   6.689  0.3330 -0.3758  1.2797
  341MOL0     H44980   4.278  11.428   6.818 -0.6640  1.6161  1.1018
  341MOL0     H44981   4.293  11.520   6.660  1.2879  1.8226  0.3414
  341MOL0     H44982   4.436  11.676   6.780 -1.3305  0.8426  0.3299
  341MOL0     H44983   4.456  11.567   6.916 -1.5414  0.6568  0.3123
  341MOL0     H44984   4.189  11.671   6.851 -0.3638 -0.1185 -0.0895
  341MOL0     H44985   4.247  11.573   6.991  1.2015  0.2247  0.6840
  341MOL0     H44986   4.372  11.853   6.949  0.1267  1.0348  1.4650
  341MOL0     H44987   4.338  11.765   7.096 -5.7882  0.5640  2.1014
  341MOL0     H44988   4.097  11.813   7.040  0.2513  0.6604 -0.8988
  341MOL0     H44989   4.162  11.919   6.926  3.8803  1.6061 -0.5084
  341MOL0     H44990   4.112  12.034   7.137 -0.9740 -1.1989 -1.2793
  341MOL0     H44991   4.254  11.959   7.221 -2.1127  1.7160  1.2077
  341MOL0     H44992   4.279  12.118   6.967 -0.1558 -0.0619 -0.0729
  341MOL0     H44993   4.409  12.074   7.088 -1.1606 -1.8443  4.0692
  341MOL0     H44994   4.670  11.260   6.804  0.2032  0.8858  1.4777
  341MOL0     H44995   4.886  11.196   6.809 -1.6025 -1.8017 -0.5366
  341MOL0     H44996   5.308  11.312   6.761 -0.1179  0.2041 -0.5047
  341MOL0     H44997   5.551  11.311   6.742 -0.2910  0.1112 -0.0966
  341MOL0     H44998   7.125  10.465   7.263  1.1425  0.5786  0.8181
  341MOL0     H44999   7.349  10.466   7.400  1.0440 -1.5706 -0.3008
  341MOL0     H45000   7.616  10.129   7.808 -1.1577  0.3394 -0.2306
  341MOL0     H45001   7.844  10.196   7.902 -0.7390  2.0093  3.5092
  341MOL0     H45002   7.943  10.631   7.946 -1.3501  0.8618 -0.6251
  341MOL0     H45003   8.040  10.598   7.804  0.6082 -0.4350  0.2854
  341MOL0     H45004   8.113  10.500   8.074  0.7945  0.3554  0.2496
  341MOL0     H45005   8.210  10.485   7.922 -0.5884 -2.5326  2.7083
  341MOL0     H45006   8.135  10.760   8.029 -0.0808  0.3533 -1.7737
  341MOL0     H45007   8.252  10.712   7.899  0.3944 -3.9084 -1.5893
  341MOL0     H45008   8.351  10.783   8.122 -1.9739  1.2405 -1.0208
  341MOL0     H45009   8.263  10.640   8.191 -1.7477  0.6934 -0.4234
  341MOL0     H45010   8.578  10.446   7.992 -2.1744 -0.1039 -3.9713
  341MOL0     H45011   7.776  10.602   7.792 -4.4305  1.8637 -0.5656
  341MOL0     H45012   7.578  10.537   7.671  2.8050  0.3733 -2.0713
  342MOL0     O45013  10.084   4.593   9.229 -0.2936  0.4953  0.0851
  342MOL0     C45014  10.003   4.581   9.321  0.0153 -0.6592  0.6295
  342MOL0     O45015   9.995   4.468   9.395 -0.2320  0.1600 -0.0247
  342MOL0     C45016  10.074   4.356   9.367 -0.1614 -0.0523 -0.2684
  342MOL0     C45017  10.011   4.246   9.312  0.5271  0.2109  0.6744
  342MOL0     C45018  10.086   4.122   9.300  0.5929 -0.1521  0.3921
  342MOL0     C45019  10.224   4.117   9.331 -0.4618 -0.2526 -0.3305
  342MOL0     O45020  10.302   4.005   9.295  0.2167 -0.2439 -0.2780
  342MOL0     C45021  10.242   3.874   9.305  0.0805  0.5776  0.4539
  342MOL0     C45022  10.162   3.846   9.429  0.2148 -0.9366 -0.5040
  342MOL0     C45023  10.071   3.721   9.406  0.1726 -0.1872 -0.4805
  342MOL0     C45024   9.991   3.686   9.531  0.5309  0.1387  0.2023
  342MOL0     C45025   9.914   3.556   9.511  0.1703  0.4692  0.0760
  342MOL0     C45026   9.814   3.538   9.631 -0.1921  0.0001 -0.2658
  342MOL0     C45027   9.744   3.402   9.612 -0.4420 -0.0430 -0.1319
  342MOL0     C45028   9.644   3.376   9.728 -0.0184  0.3691 -0.6000
  342MOL0     N45029   9.580   3.242   9.722 -0.5305 -0.6338 -0.1410
  342MOL0     C45030   9.585   3.160   9.830 -0.0761  0.6127  0.2631
  342MOL0     C45031   9.479   3.072   9.819 -0.7507 -0.1942  0.5726
  342MOL0     C45032   9.439   2.965   9.917 -0.2878  0.2764 -0.5267
  342MOL0     C45033   9.300   2.973   9.977  0.3087 -0.3534  0.6002
  342MOL0     C45034   9.289   3.094  10.066  0.5007  1.3091  0.3814
  342MOL0     C45035   9.158   3.079  10.138 -0.4799  0.1950 -0.0375
  342MOL0     O45036   9.175   2.978  10.240 -0.2084 -0.3167 -0.4241
  342MOL0     C45037   9.076   2.943  10.330  0.0096 -0.3119 -0.5313
  342MOL0     C45038   8.944   2.995  10.323  0.0518 -0.3376  0.4997
  342MOL0     C45039   8.844   2.941  10.408  0.3943  0.0146  0.1328
  342MOL0     C45040   8.877   2.848  10.505  0.4191  0.1825  0.1364
  342MOL0     C45041   8.777   2.808  10.608  0.6599 -1.1521  0.3509
  342MOL0     O45042   8.666   2.877  10.618 -0.1440 -0.0032  0.4268
  342MOL0     C45043   8.579   2.859  10.723  0.2882  0.0968 -0.2017
  342MOL0     C45044   8.625   2.861  10.856  0.0480 -0.8834 -0.4417
  342MOL0     C45045   8.536   2.826  10.956 -0.0850 -1.1401 -0.5259
  342MOL0     C45046   8.402   2.798  10.931 -0.8967 -0.2229  0.0222
  342MOL0     O45047   8.331   2.765  11.037  0.5565  0.7332  0.0881
  342MOL0     C45048   8.236   2.654  11.031  0.2792 -0.1814 -0.1843
  342MOL0     C45049   8.206   2.622  11.183 -0.4893 -0.5926  0.0645
  342MOL0     C45050   8.138   2.734  11.271 -0.5957 -0.0132  0.4400
  342MOL0     C45051   8.054   2.667  11.384  0.4535 -0.1079  1.3327
  342MOL0     C45052   8.128   2.560  11.468  0.7537 -0.7144 -0.7397
  342MOL0     C45053   8.019   2.491  11.550  0.2379 -0.0558 -0.5793
  342MOL0     C45054   7.971   2.362  11.477 -0.8829 -0.4344 -0.3360
  342MOL0     C45055   7.927   2.242  11.566  0.2111 -0.4910  0.7304
  342MOL0    Cl45056   8.081   2.184  11.653  0.1330  0.0768  0.8095
  342MOL0     C45057   8.361   2.795  10.792  0.5657  0.4962 -0.3473
  342MOL0     C45058   8.447   2.822  10.691  0.4490  0.2729 -0.7967
  342MOL0     O45059   8.792   2.707  10.680 -0.3140  0.0651  0.5860
  342MOL0     C45060   9.007   2.798  10.515 -0.4059  0.8491  0.4189
  342MOL0     C45061   9.102   2.843  10.423  0.5781 -0.1095 -0.4228
  342MOL0     N45062   9.424   3.096   9.690  0.3415  0.4382  0.0923
  342MOL0     N45063   9.481   3.194   9.636 -0.0492 -0.0316 -0.3955
  342MOL0     C45064  10.284   4.231   9.383  0.2681 -0.0029 -0.2516
  342MOL0     C45065  10.208   4.348   9.411 -0.8470  0.3791  0.2347
  342MOL0     C45066   9.929   4.702   9.376 -0.6777 -0.2700  0.8279
  342MOL0     C45067   9.819   4.683   9.466 -0.4781  0.2622 -0.4161
  342MOL0     C45068   9.735   4.791   9.504  0.0015  0.4291 -1.4876
  342MOL0     C45069   9.760   4.922   9.451  0.5384  0.2178 -0.6541
  342MOL0     O45070   9.686   5.036   9.478  0.7845  0.2761  0.5700
  342MOL0     C45071   9.575   5.041   9.571 -0.1953 -0.4919  0.4641
  342MOL0     C45072   9.529   5.189   9.602  0.4717 -0.3987 -0.2817
  342MOL0     C45073   9.375   5.172   9.632 -0.9273 -0.5315  0.0819
  342MOL0     C45074   9.322   5.311   9.666  0.1168 -1.1584  0.5903
  342MOL0     C45075   9.173   5.301   9.658  0.5366 -0.3170  0.5781
  342MOL0     C45076   9.048   5.288   9.636 -0.3215  1.0333 -0.2016
  342MOL0     C45077   9.863   4.940   9.360  0.3228  0.2374  0.5060
  342MOL0     C45078   9.951   4.832   9.317  0.1500  0.2657 -0.2779
  342MOL0     H45079   9.911   4.250   9.268  0.6533  2.1205  0.4657
  342MOL0     H45080  10.053   4.041   9.235  0.7659  1.2614 -1.5335
  342MOL0     H45081  10.316   3.794   9.297 -0.6362 -0.0093 -0.7017
  342MOL0     H45082  10.193   3.858   9.208  4.7573 -1.6434 -1.8485
  342MOL0     H45083  10.093   3.922   9.467 -1.6775 -2.8604  0.0971
  342MOL0     H45084  10.228   3.822   9.513 -0.0070  0.4355  0.0852
  342MOL0     H45085  10.142   3.639   9.386  0.9622  0.6400 -1.1199
  342MOL0     H45086  10.013   3.745   9.316  0.8495  4.0349  0.0502
  342MOL0     H45087  10.056   3.664   9.617 -0.0936  2.9559  1.5143
  342MOL0     H45088   9.923   3.766   9.561 -0.8822 -1.0765  0.3748
  342MOL0     H45089   9.980   3.472   9.491 -0.3897  0.2974 -1.1229
  342MOL0     H45090   9.859   3.573   9.418 -0.6699  2.3797  0.8657
  342MOL0     H45091   9.738   3.616   9.619  0.4175  0.5296 -0.6990
  342MOL0     H45092   9.876   3.554   9.720 -1.0614  2.3216 -0.0123
  342MOL0     H45093   9.691   3.407   9.516  0.6329 -0.0284 -0.7377
  342MOL0     H45094   9.820   3.324   9.600 -0.3224  0.2769 -1.6649
  342MOL0     H45095   9.570   3.457   9.723 -0.1324  0.2023 -1.9220
  342MOL0     H45096   9.694   3.385   9.825 -2.1762  1.5555  0.4813
  342MOL0     H45097   9.664   3.157   9.905  1.6182  0.6243 -1.4396
  342MOL0     H45098   9.517   2.969   9.993  0.2581 -0.9064 -0.9884
  342MOL0     H45099   9.460   2.868   9.870  2.1673 -1.7826  4.1346
  342MOL0     H45100   9.285   2.880  10.032 -0.8193  0.2395  1.3447
  342MOL0     H45101   9.229   2.975   9.894  3.8693 -1.0918 -2.7726
  342MOL0     H45102   9.377   3.105  10.130  0.2971  2.4812  0.4895
  342MOL0     H45103   9.277   3.185  10.006 -0.9662  0.2983 -0.9260
  342MOL0     H45104   9.074   3.068  10.068  1.2206  3.3382 -2.8349
  342MOL0     H45105   9.134   3.178  10.179 -0.8795 -0.9280  2.7247
  342MOL0     H45106   8.924   3.068  10.245  2.8752 -0.5512 -0.5596
  342MOL0     H45107   8.741   2.972  10.392  0.1558 -1.5465 -1.7582
  342MOL0     H45108   8.731   2.875  10.875 -0.5608  0.2199  2.5759
  342MOL0     H45109   8.571   2.814  11.058 -0.3130 -1.9521 -0.5309
  342MOL0     H45110   8.274   2.572  10.969  1.5635  1.6137 -1.8768
  342MOL0     H45111   8.141   2.677  10.983 -1.0183 -2.5392  1.0432
  342MOL0     H45112   8.296   2.590  11.235  1.0440  0.5332 -1.7807
  342MOL0     H45113   8.138   2.536  11.186 -1.8036  0.4311  0.6695
  342MOL0     H45114   8.076   2.800  11.210 -1.3414  0.8523  2.0762
  342MOL0     H45115   8.202   2.810  11.317 -0.4091  2.2440 -3.1179
  342MOL0     H45116   8.010   2.743  11.449  0.7746 -0.8719  2.4820
  342MOL0     H45117   7.978   2.618  11.324  0.7742 -1.9111  2.3361
  342MOL0     H45118   8.196   2.610  11.537 -0.9132 -0.4859  0.7925
  342MOL0     H45119   8.193   2.499  11.405  2.3787 -0.5839  0.7616
  342MOL0     H45120   7.940   2.561  11.578  1.0406 -0.1615  2.2002
  342MOL0     H45121   8.063   2.460  11.645  0.3016  1.6567 -0.0212
  342MOL0     H45122   7.885   2.380  11.413 -2.3628  0.1530  1.7204
  342MOL0     H45123   8.058   2.321  11.425 -0.9754 -1.1641  0.0726
  342MOL0     H45124   7.884   2.169  11.497  1.5588 -1.0853  0.4964
  342MOL0     H45125   7.852   2.284  11.634  2.7968  1.2499  2.7178
  342MOL0     H45126   8.262   2.751  10.783  2.6288 -5.4365  1.3565
  342MOL0     H45127   8.417   2.829  10.587 -0.0660  0.8500 -0.6190
  342MOL0     H45128   9.035   2.721  10.586 -0.3826  0.7931  0.3485
  342MOL0     H45129   9.203   2.803  10.424  1.4220  1.9120 -0.5337
  342MOL0     H45130  10.387   4.221   9.413  1.1955 -1.7974 -3.5268
  342MOL0     H45131  10.249   4.429   9.471 -2.9528  0.7308  1.2810
  342MOL0     H45132   9.800   4.581   9.496 -1.9292  0.9493  1.1531
  342MOL0     H45133   9.656   4.768   9.574  1.2632  0.9362  0.1743
  342MOL0     H45134   9.596   4.974   9.654 -1.0162 -0.6938  0.5154
  342MOL0     H45135   9.489   4.989   9.528  0.6609  0.2011 -2.3227
  342MOL0     H45136   9.578   5.227   9.692  0.5468 -2.3357  0.5420
  342MOL0     H45137   9.550   5.246   9.511 -0.2381  1.3696  0.6201
  342MOL0     H45138   9.352   5.104   9.714 -2.3395 -1.4809 -1.0398
  342MOL0     H45139   9.338   5.133   9.536  2.6357 -1.8555 -0.8926
  342MOL0     H45140   9.346   5.346   9.766 -3.1410 -1.0170  1.4577
  342MOL0     H45141   9.346   5.389   9.594  1.6577  0.9308  3.2118
  342MOL0     H45142   8.942   5.270   9.631 -0.2427 -0.4401  2.0438
  342MOL0     H45143   9.875   5.035   9.310  0.6883  0.1486  0.4279
  342MOL0     H45144  10.017   4.849   9.232 -2.4877 -0.8713 -2.6996
  343MOL0     O45145   5.794   4.379   0.266 -0.3358 -0.3175  0.1213
  343MOL0     C45146   5.856   4.345   0.168  0.0147  0.9674 -0.4615
  343MOL0     O45147   5.799   4.272   0.065 -0.7561  0.4117 -0.7615
  343MOL0     C45148   5.668   4.229   0.072  0.1998  0.1401  0.1687
  343MOL0     C45149   5.603   4.208  -0.056 -0.4728  0.3467 -0.7547
  343MOL0     C45150   5.467   4.177  -0.076  0.3301  0.7163 -0.0945
  343MOL0     C45151   5.395   4.147   0.040  0.1964 -0.3737  0.1347
  343MOL0     O45152   5.257   4.125   0.034 -0.7754  0.2430 -0.0799
  343MOL0     C45153   5.199   4.041  -0.061 -0.8271  0.5721  0.2188
  343MOL0     C45154   5.056   4.014  -0.035 -0.1542  0.1448 -0.8943
  343MOL0     C45155   4.959   4.127  -0.091 -0.5383  0.4924  0.4860
  343MOL0     C45156   4.810   4.089  -0.081  0.5084  0.5779 -0.2010
  343MOL0     C45157   4.711   4.177  -0.157 -0.0906 -0.1874  0.2890
  343MOL0     C45158   4.574   4.110  -0.147 -0.3197  0.5110  0.4701
  343MOL0     C45159   4.472   4.173  -0.229  1.0358  0.1606  0.3990
  343MOL0     C45160   4.496   4.119  -0.379 -0.4621  0.0695 -0.0507
  343MOL0     N45161   4.406   4.203  -0.467  0.6685  0.4893  0.4269
  343MOL0     C45162   4.271   4.184  -0.490  0.7825 -1.4435 -0.5822
  343MOL0     C45163   4.235   4.295  -0.565  0.4502  0.0637  0.2142
  343MOL0     C45164   4.100   4.334  -0.617 -0.7120  0.6396  0.2292
  343MOL0     C45165   4.077   4.271  -0.755  0.6845  0.3892 -0.3127
  343MOL0     C45166   3.945   4.312  -0.824  1.0742 -0.7175  0.3989
  343MOL0     C45167   3.829   4.229  -0.773 -0.3373  0.1969  0.5640
  343MOL0     O45168   3.783   4.273  -0.646  0.1441  0.3454  0.2984
  343MOL0     C45169   3.651   4.293  -0.627 -0.2312  0.1337  0.6193
  343MOL0     C45170   3.557   4.187  -0.607  0.1695 -0.2022 -0.1817
  343MOL0     C45171   3.418   4.215  -0.602 -0.8513  0.1157  0.3629
  343MOL0     C45172   3.366   4.347  -0.605  0.8897  0.3031  0.5978
  343MOL0     C45173   3.224   4.375  -0.589 -0.1361 -0.7496  0.1990
  343MOL0     O45174   3.180   4.497  -0.632 -0.7880  0.6269  1.0631
  343MOL0     C45175   3.043   4.526  -0.624  0.5953  0.2273  0.0277
  343MOL0     C45176   2.939   4.437  -0.671 -0.4453 -0.6041 -0.3029
  343MOL0     C45177   2.802   4.468  -0.677 -0.2603 -0.0547 -0.3525
  343MOL0     C45178   2.753   4.592  -0.619  0.2832  0.7653  0.6592
  343MOL0     O45179   2.621   4.605  -0.578 -0.4182  0.1003 -0.2486
  343MOL0     C45180   2.528   4.565  -0.668  0.8469 -0.3095 -0.7470
  343MOL0     C45181   2.383   4.601  -0.631  0.4901  0.0901 -0.5274
  343MOL0     C45182   2.306   4.584  -0.757 -0.0642 -0.6236 -0.3995
  343MOL0     C45183   2.159   4.636  -0.745 -0.8819 -0.0118 -0.5762
  343MOL0     C45184   2.080   4.613  -0.875 -0.2449  0.0768  0.2433
  343MOL0     C45185   1.951   4.696  -0.875  0.6071  0.2516  0.0320
  343MOL0     C45186   1.852   4.654  -0.986  0.3620 -0.1141  0.0953
  343MOL0     C45187   1.708   4.701  -0.961 -0.1842 -0.0031  0.8026
  343MOL0    Cl45188   1.595   4.644  -1.096 -0.2168  0.0071 -0.5153
  343MOL0     C45189   2.853   4.682  -0.571 -0.1886  0.3088  0.1455
  343MOL0     C45190   2.995   4.652  -0.573  1.0453  0.6215  0.9427
  343MOL0     O45191   3.156   4.291  -0.525  0.2100 -0.2527  0.0697
  343MOL0     C45192   3.463   4.453  -0.617 -0.6180  0.6267 -0.0740
  343MOL0     C45193   3.603   4.429  -0.624 -0.7644  0.1946  0.0566
  343MOL0     N45194   4.347   4.376  -0.586 -0.0420  0.2663 -0.2652
  343MOL0     N45195   4.447   4.316  -0.535  0.5407  0.5929 -0.0401
  343MOL0     C45196   5.451   4.157   0.169 -0.6327 -0.0969 -0.6766
  343MOL0     C45197   5.587   4.196   0.181 -0.6259  0.1604 -0.0697
  343MOL0     C45198   5.998   4.385   0.160  0.2138 -0.1839 -1.2805
  343MOL0     C45199   6.068   4.424   0.280 -0.2927 -0.0164 -0.2224
  343MOL0     C45200   6.192   4.482   0.277  0.1440  0.0690  0.0329
  343MOL0     C45201   6.258   4.494   0.157 -0.3087 -0.6465  0.3302
  343MOL0     O45202   6.383   4.553   0.165 -0.4597 -0.3941 -0.1073
  343MOL0     C45203   6.472   4.554   0.050 -0.1243 -0.0690  0.1954
  343MOL0     C45204   6.611   4.602   0.099  0.0348  0.3073  0.3705
  343MOL0     C45205   6.689   4.681  -0.009 -0.2877  0.1392 -0.4653
  343MOL0     C45206   6.828   4.715   0.038  0.0168 -0.4675 -0.1938
  343MOL0     C45207   6.914   4.796  -0.049 -0.3866 -0.3351 -0.4881
  343MOL0     C45208   6.992   4.853  -0.121 -0.5044  0.6956 -0.0819
  343MOL0     C45209   6.195   4.455   0.037 -0.2186  0.5650 -0.0905
  343MOL0     C45210   6.063   4.401   0.039 -0.0732  0.6245  0.0681
  343MOL0     H45211   5.658   4.217  -0.149  1.4164 -4.3107 -0.3807
  343MOL0     H45212   5.428   4.154  -0.175  0.3619 -0.5208  0.1585
  343MOL0     H45213   5.242   3.941  -0.049 -2.0035  0.0813  0.5186
  343MOL0     H45214   5.218   4.080  -0.161 -1.4687  1.3309  0.3838
  343MOL0     H45215   5.036   4.009   0.073 -4.0650  3.3770 -1.1960
  343MOL0     H45216   5.035   3.913  -0.071  1.6646 -0.1478 -1.2344
  343MOL0     H45217   4.974   4.139  -0.198 -0.1029 -1.6063  0.2651
  343MOL0     H45218   4.985   4.220  -0.040 -0.8696  0.4802  0.6823
  343MOL0     H45219   4.792   3.985  -0.110  2.1515  0.3714 -0.5848
  343MOL0     H45220   4.791   4.089   0.027  1.8301 -3.5288  0.1877
  343MOL0     H45221   4.746   4.194  -0.260 -0.6696  2.7588  0.4799
  343MOL0     H45222   4.703   4.276  -0.112  0.9053 -1.2629  2.9870
  343MOL0     H45223   4.531   4.105  -0.046  0.8605 -0.0563  0.9624
  343MOL0     H45224   4.579   4.003  -0.172 -1.6419  0.5628 -0.0830
  343MOL0     H45225   4.375   4.133  -0.200  1.3188  0.5878  1.9898
  343MOL0     H45226   4.481   4.281  -0.215  0.1385  0.5319 -1.4737
  343MOL0     H45227   4.479   4.011  -0.382  0.2813 -0.0368 -0.9725
  343MOL0     H45228   4.598   4.125  -0.417  0.2570 -4.5729  0.5670
  343MOL0     H45229   4.206   4.101  -0.462 -3.1092  0.8598 -2.0016
  343MOL0     H45230   4.120   4.438  -0.645  2.8626  0.1560  0.5388
  343MOL0     H45231   4.023   4.316  -0.541 -1.9123  0.8632 -0.9021
  343MOL0     H45232   4.088   4.162  -0.750  1.1453  0.4482  0.0912
  343MOL0     H45233   4.163   4.290  -0.820  2.2829 -2.2879  0.8355
  343MOL0     H45234   3.920   4.418  -0.819 -0.2981 -1.0405  0.8828
  343MOL0     H45235   3.955   4.288  -0.930  0.1590  1.7172 -0.2896
  343MOL0     H45236   3.863   4.125  -0.772  1.6008  0.7737 -0.1054
  343MOL0     H45237   3.740   4.231  -0.836 -0.5456  1.5117  0.8909
  343MOL0     H45238   3.590   4.084  -0.600 -0.9682 -0.5492  0.2514
  343MOL0     H45239   3.348   4.134  -0.583 -2.0567  1.4600  1.9594
  343MOL0     H45240   2.964   4.338  -0.707  1.3238 -0.8755  1.4499
  343MOL0     H45241   2.750   4.379  -0.711  1.4192 -2.3623  2.5698
  343MOL0     H45242   2.525   4.457  -0.682  0.9200 -0.3991 -0.1035
  343MOL0     H45243   2.556   4.613  -0.762  0.1617 -0.5144 -1.0626
  343MOL0     H45244   2.389   4.705  -0.598 -1.3388  0.1049 -0.1441
  343MOL0     H45245   2.339   4.544  -0.548 -2.8166  3.8476  0.6081
  343MOL0     H45246   2.302   4.480  -0.791  0.2575 -0.0348 -2.3446
  343MOL0     H45247   2.363   4.641  -0.831  1.6320 -1.2170  0.3895
  343MOL0     H45248   2.113   4.598  -0.653 -0.0009  3.6340  1.5672
  343MOL0     H45249   2.170   4.744  -0.733  1.4973 -0.2337 -0.3791
  343MOL0     H45250   2.051   4.507  -0.877  0.1319 -0.0174 -0.2392
  343MOL0     H45251   2.144   4.642  -0.958  2.1401 -0.2360  1.8864
  343MOL0     H45252   1.964   4.804  -0.883 -1.9630  0.4971 -2.4731
  343MOL0     H45253   1.904   4.680  -0.778  2.1207 -1.1771  0.5776
  343MOL0     H45254   1.894   4.705  -1.074  2.2134  0.7995  1.4280
  343MOL0     H45255   1.854   4.549  -1.016 -1.1900  0.3311 -1.7724
  343MOL0     H45256   1.708   4.811  -0.962  0.6676  0.0167 -1.2214
  343MOL0     H45257   1.672   4.654  -0.869  0.6554  2.1446  2.3111
  343MOL0     H45258   2.824   4.776  -0.526  1.0058  1.8932 -2.1918
  343MOL0     H45259   3.064   4.719  -0.521  2.4695 -0.3572  0.3797
  343MOL0     H45260   3.436   4.558  -0.613  0.6875  0.9590  0.7971
  343MOL0     H45261   3.676   4.508  -0.643 -0.6369  0.0641  0.0016
  343MOL0     H45262   5.392   4.151   0.260  0.4885 -0.0218  0.0760
  343MOL0     H45263   5.612   4.198   0.287  0.7435  0.0107 -0.3673
  343MOL0     H45264   6.016   4.405   0.374 -3.8063 -1.3992 -2.2415
  343MOL0     H45265   6.244   4.509   0.368  0.8461  0.9572 -0.6158
  343MOL0     H45266   6.439   4.631  -0.021  0.2471  0.3035  0.4198
  343MOL0     H45267   6.487   4.456   0.005  1.1539  1.4430 -2.9714
  343MOL0     H45268   6.593   4.666   0.186  1.3034 -2.0970  2.5376
  343MOL0     H45269   6.671   4.517   0.133 -1.4414 -0.4643  1.1254
  343MOL0     H45270   6.629   4.771  -0.022 -1.8864 -0.7694  0.2778
  343MOL0     H45271   6.701   4.623  -0.100  1.3042  1.5798 -1.2271
  343MOL0     H45272   6.825   4.772   0.131  3.3175  1.0367 -0.8458
  343MOL0     H45273   6.877   4.618   0.052  1.1284  0.0943 -0.1091
  343MOL0     H45274   7.056   4.894  -0.197 -1.0176  0.9525 -0.3850
  343MOL0     H45275   6.250   4.471  -0.055  1.2215 -1.0218  0.4563
  343MOL0     H45276   6.013   4.375  -0.054 -1.6728 -1.4214  1.4225
  344MOL0     O45277   9.774   2.040   4.773  0.0493  0.3268  0.1808
  344MOL0     C45278   9.801   2.157   4.735  0.3045  0.8881  0.4310
  344MOL0     O45279   9.714   2.261   4.732 -0.4866  0.4942 -0.1959
  344MOL0     C45280   9.590   2.267   4.795 -0.5812 -0.0707  0.1228
  344MOL0     C45281   9.558   2.205   4.916 -0.1774 -0.6710 -0.2273
  344MOL0     C45282   9.435   2.215   4.979 -0.1283  1.0971  0.1604
  344MOL0     C45283   9.336   2.287   4.913 -0.0270 -0.3394 -0.1751
  344MOL0     O45284   9.208   2.303   4.956  1.2785  0.1188  0.0117
  344MOL0     C45285   9.205   2.366   5.085 -1.1905 -0.3589 -1.0303
  344MOL0     C45286   9.070   2.432   5.129 -0.5825 -0.6448 -0.0019
  344MOL0     C45287   8.955   2.335   5.107 -0.3662  0.1607  0.2982
  344MOL0     C45288   8.833   2.403   5.189  0.6167  0.4053 -0.2878
  344MOL0     C45289   8.712   2.314   5.209  0.8683 -0.5807  0.0370
  344MOL0     C45290   8.613   2.337   5.091  0.4087 -0.3543  0.5509
  344MOL0     C45291   8.506   2.226   5.110  0.6775 -0.1390  1.2396
  344MOL0     C45292   8.408   2.228   4.979 -0.2712  0.6444 -0.1330
  344MOL0     N45293   8.334   2.110   4.991  0.2540 -0.9245 -0.4803
  344MOL0     C45294   8.366   1.999   4.916 -0.3156  0.2438 -0.6197
  344MOL0     C45295   8.256   1.916   4.939  0.3710 -0.6748 -0.8713
  344MOL0     C45296   8.255   1.777   4.890  0.7051  0.0411  0.7784
  344MOL0     C45297   8.266   1.675   5.007  0.7909 -0.6459  0.0425
  344MOL0     C45298   8.394   1.683   5.087  0.2420 -0.8316 -0.9113
  344MOL0     C45299   8.398   1.566   5.184 -0.0921  0.3188  0.7794
  344MOL0     O45300   8.281   1.558   5.260  1.2142 -0.6225 -0.4281
  344MOL0     C45301   8.283   1.457   5.357 -0.2048  0.4496 -0.4449
  344MOL0     C45302   8.373   1.351   5.362 -0.4746  0.1279 -0.6500
  344MOL0     C45303   8.365   1.249   5.459 -0.0006  0.0969 -0.3319
  344MOL0     C45304   8.257   1.240   5.553 -0.3319 -0.2206 -0.7592
  344MOL0     C45305   8.255   1.148   5.663  0.2193  0.3001 -0.3389
  344MOL0     O45306   8.147   1.161   5.735  0.4813  0.7541  0.6682
  344MOL0     C45307   8.123   1.075   5.843  0.4309  0.2278 -0.8213
  344MOL0     C45308   8.178   0.951   5.877  0.4612  0.7131  0.3223
  344MOL0     C45309   8.143   0.887   5.999  0.9070  0.4612  0.3102
  344MOL0     C45310   8.033   0.928   6.081 -0.7974  0.3868  0.5050
  344MOL0     O45311   8.015   0.855   6.184 -0.0312  0.8479 -0.6050
  344MOL0     C45312   7.885   0.808   6.201  0.4814 -0.4086  0.5565
  344MOL0     C45313   7.906   0.697   6.309 -0.5131  0.6282 -0.3668
  344MOL0     C45314   7.780   0.616   6.321  0.2913 -1.0195  0.0502
  344MOL0     C45315   7.772   0.493   6.233  0.8395  0.5920  0.4616
  344MOL0     C45316   7.633   0.433   6.216 -0.4281 -0.2826  0.4191
  344MOL0     C45317   7.536   0.521   6.135  0.5030 -0.4049 -0.0287
  344MOL0     C45318   7.596   0.589   6.009  0.3897  0.4154 -0.1741
  344MOL0     C45319   7.660   0.500   5.902 -0.1941  0.5884  0.1955
  344MOL0    Cl45320   7.533   0.399   5.827 -0.4343 -0.1225  0.3753
  344MOL0     C45321   7.975   1.055   6.042  0.2984  0.0716  0.7686
  344MOL0     C45322   8.016   1.122   5.925  0.3375  0.5927 -0.6322
  344MOL0     O45323   8.346   1.075   5.685 -0.2040 -0.2964 -0.2376
  344MOL0     C45324   8.156   1.342   5.537 -0.8432  0.0381 -0.8793
  344MOL0     C45325   8.174   1.448   5.444  0.1155 -0.1226  0.4657
  344MOL0     N45326   8.172   1.977   5.024  0.6992 -0.7567 -0.5479
  344MOL0     N45327   8.212   2.100   5.051 -0.1836  0.4497  0.9576
  344MOL0     C45328   9.369   2.362   4.800  0.5399 -0.0645 -0.1261
  344MOL0     C45329   9.493   2.351   4.739 -0.6026 -1.2910  0.2063
  344MOL0     C45330   9.939   2.186   4.686  0.7269  0.0053  0.5678
  344MOL0     C45331  10.039   2.094   4.668 -0.0403 -0.2961  0.1031
  344MOL0     C45332  10.171   2.137   4.637  0.1526 -0.0759 -0.2083
  344MOL0     C45333  10.201   2.270   4.625  0.6950 -0.0116  0.3677
  344MOL0     O45334  10.326   2.317   4.593  0.3966 -0.9507  0.7288
  344MOL0     C45335  10.428   2.226   4.542 -0.0668 -0.5504  0.0723
  344MOL0     C45336  10.566   2.285   4.522  0.1082  0.6772  0.2116
  344MOL0     C45337  10.550   2.426   4.458 -0.1024 -0.3731  0.2999
  344MOL0     C45338  10.694   2.498   4.419 -0.2933  0.1897 -0.3677
  344MOL0     C45339  10.784   2.520   4.534  0.6163  0.3083 -0.5646
  344MOL0     C45340  10.848   2.540   4.632  0.1082 -0.9812  0.1591
  344MOL0     C45341  10.103   2.366   4.647 -0.0392  0.3929  0.2196
  344MOL0     C45342   9.975   2.326   4.672 -0.2138  0.4879 -0.4784
  344MOL0     H45343   9.637   2.147   4.963  1.4028  1.5408 -0.0270
  344MOL0     H45344   9.417   2.165   5.074 -0.2244  1.1749  0.1827
  344MOL0     H45345   9.291   2.434   5.084  2.7578 -4.8100 -3.4071
  344MOL0     H45346   9.246   2.294   5.156  0.7803  0.1468 -1.5954
  344MOL0     H45347   9.062   2.526   5.074  0.4062  0.0497  0.9961
  344MOL0     H45348   9.085   2.470   5.230  4.1019 -0.0213 -0.7130
  344MOL0     H45349   8.972   2.242   5.162 -2.6268 -1.7097 -1.8992
  344MOL0     H45350   8.936   2.316   5.001  2.2154  0.0672 -0.1948
  344MOL0     H45351   8.872   2.451   5.279 -0.5507  0.5124  0.1830
  344MOL0     H45352   8.800   2.486   5.125  0.7303  0.7760  0.1342
  344MOL0     H45353   8.672   2.332   5.309  1.4587  4.8810 -0.3882
  344MOL0     H45354   8.750   2.212   5.201 -1.4586 -1.5002 -0.2439
  344MOL0     H45355   8.659   2.331   4.992 -1.1960 -1.3418 -0.1779
  344MOL0     H45356   8.558   2.430   5.108  0.7081  0.2596 -1.5167
  344MOL0     H45357   8.548   2.126   5.121  1.7289 -0.0415 -1.2969
  344MOL0     H45358   8.455   2.249   5.205  2.0104  2.8963  1.3578
  344MOL0     H45359   8.461   2.235   4.884  1.3067  1.4568  0.7656
  344MOL0     H45360   8.344   2.315   4.996 -1.2081 -0.1059  0.2801
  344MOL0     H45361   8.455   1.972   4.859  0.8061  3.2025 -0.4307
  344MOL0     H45362   8.335   1.761   4.818  1.5105 -1.6027  1.9697
  344MOL0     H45363   8.166   1.750   4.832  3.0398  2.8266 -4.8493
  344MOL0     H45364   8.251   1.574   4.967 -0.4126 -0.5568  0.2316
  344MOL0     H45365   8.184   1.692   5.077  2.2419 -0.8079  1.8719
  344MOL0     H45366   8.478   1.691   5.018  1.7313  1.1723  0.9740
  344MOL0     H45367   8.392   1.773   5.149  1.9603 -1.5037  0.2045
  344MOL0     H45368   8.491   1.575   5.240  0.3547  0.8211 -0.0193
  344MOL0     H45369   8.421   1.472   5.131  0.7979  0.0524  1.6143
  344MOL0     H45370   8.454   1.334   5.292  0.0936  1.3824 -0.3154
  344MOL0     H45371   8.444   1.176   5.473 -2.5849 -2.3356  2.8694
  344MOL0     H45372   8.259   0.908   5.818 -1.5386 -1.9676 -0.6609
  344MOL0     H45373   8.184   0.790   6.025  0.9516  1.0504  2.6305
  344MOL0     H45374   7.851   0.753   6.112 -1.2658 -1.5830  1.8528
  344MOL0     H45375   7.810   0.880   6.234 -0.8967 -0.7097 -1.6648
  344MOL0     H45376   7.932   0.751   6.400 -0.8375  0.5228 -0.2093
  344MOL0     H45377   7.986   0.628   6.281 -3.5995 -2.8761 -1.3442
  344MOL0     H45378   7.691   0.681   6.322  0.6430 -0.5269  1.3132
  344MOL0     H45379   7.774   0.569   6.420  1.1695 -0.0772  0.5677
  344MOL0     H45380   7.803   0.527   6.133  0.3486  0.4659  0.2652
  344MOL0     H45381   7.843   0.416   6.266 -0.4853 -0.6905  0.3932
  344MOL0     H45382   7.584   0.411   6.311 -1.9815  0.0918 -0.2594
  344MOL0     H45383   7.641   0.337   6.164 -1.5765  0.0753 -0.4641
  344MOL0     H45384   7.498   0.600   6.200 -0.2019 -1.1696  0.5007
  344MOL0     H45385   7.453   0.469   6.087  0.0670 -0.1339  0.4250
  344MOL0     H45386   7.514   0.643   5.961 -0.0613  0.7170  0.9026
  344MOL0     H45387   7.654   0.675   6.044 -0.5722  2.5370 -3.3500
  344MOL0     H45388   7.740   0.439   5.945  0.0446  0.8975  0.1955
  344MOL0     H45389   7.702   0.562   5.823  1.4598  1.9151  2.0222
  344MOL0     H45390   7.909   1.106   6.111  0.2512  1.3749 -0.2035
  344MOL0     H45391   7.965   1.215   5.904 -0.2081  0.3215 -0.5403
  344MOL0     H45392   8.071   1.352   5.605  0.6255  0.1614  1.0271
  344MOL0     H45393   8.098   1.524   5.431 -0.6414 -0.8725  0.4522
  344MOL0     H45394   9.291   2.424   4.757  1.1687  1.9780  1.5097
  344MOL0     H45395   9.513   2.401   4.645 -2.9123 -1.6335 -0.5293
  344MOL0     H45396  10.026   1.987   4.682 -0.8644 -0.7202 -2.9668
  344MOL0     H45397  10.247   2.060   4.625  0.1938 -0.1077  0.2541
  344MOL0     H45398  10.397   2.189   4.443 -0.3312  1.3549 -0.6058
  344MOL0     H45399  10.458   2.150   4.614  1.5978 -1.8880 -1.9092
  344MOL0     H45400  10.613   2.307   4.617 -0.6775 -1.3033  1.1145
  344MOL0     H45401  10.626   2.218   4.459  0.4672  0.2958  0.9470
  344MOL0     H45402  10.506   2.506   4.518  0.9405 -0.6085  1.4143
  344MOL0     H45403  10.502   2.418   4.360  0.6347 -2.5957  0.0775
  344MOL0     H45404  10.760   2.438   4.356  2.3828  2.3938  0.1611
  344MOL0     H45405  10.683   2.592   4.363 -1.5031 -1.0995 -2.4215
  344MOL0     H45406  10.901   2.579   4.717 -0.1475  1.8605 -0.8726
  344MOL0     H45407  10.131   2.471   4.641  1.5562 -0.1134 -3.0635
  344MOL0     H45408   9.901   2.404   4.687 -1.2225 -0.5673  0.2188
  345MOL0     O45409   6.953   9.002   6.655 -0.3440  0.7274  0.2552
  345MOL0     C45410   7.028   9.060   6.585 -0.1476  0.9887 -0.4469
  345MOL0     O45411   7.017   9.077   6.450 -0.9841 -0.2795 -0.2089
  345MOL0     C45412   6.896   9.028   6.396 -1.0214  0.1535  0.2118
  345MOL0     C45413   6.787   9.104   6.392  0.7102  0.1215 -0.7723
  345MOL0     C45414   6.670   9.058   6.335 -0.1363 -0.3216  0.0649
  345MOL0     C45415   6.662   8.929   6.273 -0.7171 -0.0116 -0.0889
  345MOL0     O45416   6.552   8.873   6.207  0.2691  0.8002 -0.2828
  345MOL0     C45417   6.455   8.957   6.151  0.4825 -0.0274  0.9582
  345MOL0     C45418   6.358   8.874   6.080  0.2924 -0.5558 -1.1526
  345MOL0     C45419   6.238   8.953   6.038  1.2424 -1.1851  0.0575
  345MOL0     C45420   6.140   8.862   5.980  0.0640  0.3153 -0.1305
  345MOL0     C45421   6.041   8.934   5.890  0.4874  0.1396  0.6670
  345MOL0     C45422   5.909   8.855   5.886  0.4626  0.3254 -0.2469
  345MOL0     C45423   5.805   8.929   5.799  0.1828 -0.3600  0.1741
  345MOL0     C45424   5.786   9.073   5.840 -0.0052 -0.5993 -0.2130
  345MOL0     N45425   5.657   9.109   5.799 -0.2262 -0.3270  0.0666
  345MOL0     C45426   5.550   9.101   5.881  0.6477 -0.0333 -0.2168
  345MOL0     C45427   5.439   9.138   5.820  0.2628  0.1582  0.2007
  345MOL0     C45428   5.307   9.153   5.887  0.7278  0.3831  0.5790
  345MOL0     C45429   5.189   9.142   5.787  0.1595 -0.4933  0.4025
  345MOL0     C45430   5.159   9.273   5.708 -0.5418 -0.5214  0.4684
  345MOL0     C45431   5.033   9.251   5.616  0.6270  0.3392  0.3744
  345MOL0     O45432   4.924   9.222   5.709  0.8522 -0.2192  0.4461
  345MOL0     C45433   4.796   9.217   5.652 -0.0205 -1.0402 -0.2041
  345MOL0     C45434   4.761   9.178   5.520 -0.4226 -0.1626 -0.1779
  345MOL0     C45435   4.631   9.170   5.486  0.6912  0.1971 -0.8273
  345MOL0     C45436   4.518   9.181   5.576  0.1681 -1.0388 -0.0061
  345MOL0     C45437   4.381   9.181   5.519 -0.2548 -0.1212 -0.8172
  345MOL0     O45438   4.281   9.185   5.620  0.1874 -0.5690  0.2716
  345MOL0     C45439   4.147   9.207   5.596  0.4080  0.2278 -0.0182
  345MOL0     C45440   4.062   9.240   5.696  0.4050 -0.5255 -0.8304
  345MOL0     C45441   3.923   9.253   5.682  0.1621  0.0245  0.3023
  345MOL0     C45442   3.868   9.241   5.555 -0.6332 -0.2783 -0.2358
  345MOL0     O45443   3.737   9.270   5.532  0.4910 -0.3157  0.3684
  345MOL0     C45444   3.652   9.168   5.583 -0.1083 -0.3402 -0.0983
  345MOL0     C45445   3.525   9.231   5.634  0.7448  0.2912 -0.2611
  345MOL0     C45446   3.402   9.130   5.639 -0.0692  0.1695  0.1764
  345MOL0     C45447   3.282   9.193   5.554 -0.4542  0.5665  0.1812
  345MOL0     C45448   3.154   9.107   5.583  0.5326 -0.3602  0.5087
  345MOL0     C45449   3.046   9.168   5.499 -0.0723 -0.0449  0.3264
  345MOL0     C45450   2.916   9.082   5.504 -0.1070 -0.2077  0.1027
  345MOL0     C45451   2.787   9.162   5.468  0.5203  0.3343  0.0013
  345MOL0    Cl45452   2.770   9.305   5.573 -0.1709  0.0411 -0.2158
  345MOL0     C45453   3.950   9.210   5.449  0.5848  0.0285 -0.4017
  345MOL0     C45454   4.089   9.188   5.471  0.3119  0.3914  1.2226
  345MOL0     O45455   4.366   9.187   5.395 -0.4740  0.3082 -0.7217
  345MOL0     C45456   4.550   9.218   5.706 -0.3349 -0.2077 -0.3843
  345MOL0     C45457   4.687   9.236   5.741 -0.3444  1.0663  0.2632
  345MOL0     N45458   5.493   9.192   5.699 -0.1883 -0.3695 -0.8879
  345MOL0     N45459   5.616   9.180   5.693 -0.3413  0.0203  0.5664
  345MOL0     C45460   6.777   8.844   6.279  0.2427  1.1346 -0.3564
  345MOL0     C45461   6.892   8.898   6.346  0.1145  0.6982  0.1535
  345MOL0     C45462   7.150   9.110   6.650 -0.1724  0.2205  0.6723
  345MOL0     C45463   7.181   9.090   6.785 -0.4529 -0.7636  0.3970
  345MOL0     C45464   7.309   9.112   6.836  0.2111  0.2199  0.2093
  345MOL0     C45465   7.405   9.180   6.764  0.0225 -0.1151  0.3761
  345MOL0     O45466   7.522   9.204   6.828 -0.0942 -0.6211  0.1003
  345MOL0     C45467   7.615   9.301   6.777 -0.9865 -0.3910 -0.5417
  345MOL0     C45468   7.711   9.349   6.889 -0.0451  1.0224  0.1318
  345MOL0     C45469   7.638   9.422   6.996  0.2054 -0.6054  0.3036
  345MOL0     C45470   7.700   9.421   7.139 -0.1893  0.2096  0.0496
  345MOL0     C45471   7.607   9.467   7.243  0.5955  0.3337 -0.6775
  345MOL0     C45472   7.528   9.506   7.330 -0.6185  0.5162 -0.6337
  345MOL0     C45473   7.374   9.220   6.631 -0.8606 -0.5258  0.2945
  345MOL0     C45474   7.246   9.190   6.576  0.4731  0.4624 -0.6571
  345MOL0     H45475   6.804   9.204   6.431 -0.0168 -0.5269  1.3868
  345MOL0     H45476   6.585   9.125   6.339 -0.0899 -0.3018  0.9408
  345MOL0     H45477   6.501   9.028   6.082 -1.4607  0.5365  0.2018
  345MOL0     H45478   6.404   9.015   6.228  0.8922  0.8814  0.5523
  345MOL0     H45479   6.324   8.791   6.142 -0.6488 -1.0651 -2.3216
  345MOL0     H45480   6.410   8.823   5.998 -3.6956 -3.0456 -2.3904
  345MOL0     H45481   6.257   9.039   5.974  0.9940  0.4811  2.1077
  345MOL0     H45482   6.190   9.003   6.122 -1.4911 -0.1498 -1.9676
  345MOL0     H45483   6.191   8.796   5.909  0.6689 -0.4765  1.0145
  345MOL0     H45484   6.094   8.791   6.049  1.8991 -1.5211 -0.6794
  345MOL0     H45485   6.078   8.959   5.790 -0.4883 -0.5166  0.1202
  345MOL0     H45486   6.022   9.035   5.925 -0.9886 -0.0396  0.4247
  345MOL0     H45487   5.874   8.834   5.988  2.3789 -1.5366  0.1208
  345MOL0     H45488   5.918   8.756   5.839 -0.0376 -0.0207  0.3646
  345MOL0     H45489   5.839   8.927   5.695  1.3218  0.7549  0.5062
  345MOL0     H45490   5.714   8.869   5.804  1.1434 -1.9083 -0.1446
  345MOL0     H45491   5.856   9.138   5.786  1.0001 -0.4119  1.2519
  345MOL0     H45492   5.806   9.086   5.946  0.1266 -2.7341  0.0823
  345MOL0     H45493   5.557   9.076   5.986 -0.7107 -3.0326 -0.7605
  345MOL0     H45494   5.296   9.245   5.945  0.3925  1.5949 -1.3112
  345MOL0     H45495   5.300   9.066   5.952  0.2026  1.7992  2.5223
  345MOL0     H45496   5.100   9.118   5.846  0.0945  0.9334  0.9364
  345MOL0     H45497   5.205   9.068   5.709 -0.1121 -1.0196  0.8404
  345MOL0     H45498   5.137   9.362   5.768  3.1697  1.5249 -0.9248
  345MOL0     H45499   5.249   9.297   5.651  0.2922  0.2213  2.0296
  345MOL0     H45500   5.057   9.179   5.537  0.7644  2.5309 -1.7114
  345MOL0     H45501   5.016   9.344   5.560 -1.3125  0.0597  0.4338
  345MOL0     H45502   4.846   9.172   5.452 -0.7864 -2.3229 -0.5157
  345MOL0     H45503   4.602   9.152   5.384 -2.8690  0.3975  0.0081
  345MOL0     H45504   4.093   9.258   5.798 -1.2979  0.4499 -0.4444
  345MOL0     H45505   3.863   9.275   5.770 -0.0389  0.1367  0.1364
  345MOL0     H45506   3.691   9.110   5.667 -1.0218  0.1895  0.7161
  345MOL0     H45507   3.613   9.109   5.500 -0.6231  1.1098 -0.9246
  345MOL0     H45508   3.504   9.311   5.563  1.1758  0.6035 -0.0418
  345MOL0     H45509   3.545   9.272   5.733 -1.8704  0.9607  0.0642
  345MOL0     H45510   3.370   9.116   5.742  0.5248  0.1239  0.3603
  345MOL0     H45511   3.427   9.037   5.588 -0.2118 -0.3018  0.9570
  345MOL0     H45512   3.262   9.296   5.584 -2.0242  0.1276  0.7522
  345MOL0     H45513   3.305   9.190   5.447 -0.6792  0.5563  0.1328
  345MOL0     H45514   3.126   9.111   5.689 -1.2319  1.2022  0.0492
  345MOL0     H45515   3.159   9.002   5.552 -2.5495 -0.3201 -0.4836
  345MOL0     H45516   3.082   9.179   5.396 -0.5329 -2.1612 -0.1029
  345MOL0     H45517   3.033   9.272   5.531  0.1978 -0.2839  1.2581
  345MOL0     H45518   2.928   9.003   5.430  2.2531 -1.0244  1.2441
  345MOL0     H45519   2.908   9.038   5.604  0.2466  1.1163  0.7425
  345MOL0     H45520   2.701   9.096   5.471  1.7475 -1.3318 -0.2535
  345MOL0     H45521   2.780   9.190   5.362 -0.8290 -0.6421 -0.1883
  345MOL0     H45522   3.911   9.201   5.348 -0.1703  0.8437 -0.2005
  345MOL0     H45523   4.144   9.162   5.382 -2.9500 -0.7756 -0.6435
  345MOL0     H45524   4.469   9.230   5.777 -0.0775 -2.6421  0.4153
  345MOL0     H45525   4.712   9.259   5.844  0.6103 -0.3548  0.3889
  345MOL0     H45526   6.768   8.752   6.223 -1.7352  0.6929  0.6086
  345MOL0     H45527   6.983   8.840   6.355  0.1632  0.8550  0.7173
  345MOL0     H45528   7.108   9.033   6.843 -0.8026 -1.7591 -0.9728
  345MOL0     H45529   7.334   9.083   6.937  2.6359  0.9718 -0.1109
  345MOL0     H45530   7.561   9.387   6.737 -1.6148 -1.1600 -1.3961
  345MOL0     H45531   7.659   9.248   6.692 -1.8823 -0.7859 -0.7701
  345MOL0     H45532   7.778   9.270   6.922 -1.7891  0.1478  1.8177
  345MOL0     H45533   7.774   9.430   6.851  1.0066 -0.3047 -1.0161
  345MOL0     H45534   7.534   9.390   7.000 -0.6589  1.5864 -2.0317
  345MOL0     H45535   7.640   9.526   6.963 -0.1288 -0.1948  1.5323
  345MOL0     H45536   7.722   9.316   7.163  1.5963  0.5102 -0.1272
  345MOL0     H45537   7.784   9.489   7.157  0.8916 -1.1917  0.5611
  345MOL0     H45538   7.463   9.543   7.405 -2.6438  1.1033 -2.5728
  345MOL0     H45539   7.440   9.267   6.560 -1.2808 -0.1583  0.1439
  345MOL0     H45540   7.229   9.205   6.470 -2.0621 -0.4748 -0.4494
  346MOL0     O45541   3.829   8.308   2.721 -0.1437 -0.6116 -0.1413
  346MOL0     C45542   3.751   8.219   2.695  0.9884  0.2517 -0.7905
  346MOL0     O45543   3.795   8.087   2.667  0.5325 -0.0474 -0.9155
  346MOL0     C45544   3.918   8.051   2.718 -0.0872 -0.1905  0.1398
  346MOL0     C45545   4.002   7.989   2.632  0.2535 -0.1356  0.1350
  346MOL0     C45546   4.130   7.946   2.668  0.2045  0.3235 -0.8942
  346MOL0     C45547   4.165   7.962   2.802  0.7870 -0.8200  1.0479
  346MOL0     O45548   4.284   7.918   2.839 -0.0543  0.2822  0.5814
  346MOL0     C45549   4.314   7.877   2.970  0.6833  0.4132 -0.4092
  346MOL0     C45550   4.229   7.769   3.018 -0.1544  0.6042 -0.9837
  346MOL0     C45551   4.251   7.627   2.951  0.0605  0.2096  0.0053
  346MOL0     C45552   4.167   7.600   2.816  0.6204 -0.1774 -0.9258
  346MOL0     C45553   4.014   7.594   2.836  0.7315 -0.2566 -0.3837
  346MOL0     C45554   3.943   7.569   2.707  0.5864 -0.1866 -1.1412
  346MOL0     C45555   3.793   7.578   2.741  0.5418  0.0660 -0.1303
  346MOL0     C45556   3.697   7.560   2.611 -0.3624 -0.1663 -1.4257
  346MOL0     N45557   3.578   7.641   2.614 -0.6364 -0.5739  0.0115
  346MOL0     C45558   3.462   7.612   2.681  0.2417  0.4674 -0.4742
  346MOL0     C45559   3.391   7.722   2.675  0.7862 -0.5068  0.1327
  346MOL0     C45560   3.269   7.738   2.750 -0.0883  0.7768 -0.0588
  346MOL0     C45561   3.152   7.711   2.653  0.3440 -0.2651 -0.4767
  346MOL0     C45562   3.019   7.739   2.731  0.2568  0.0737  0.3440
  346MOL0     C45563   2.893   7.726   2.653  0.0133  0.1708 -0.1089
  346MOL0     O45564   2.836   7.593   2.663 -0.1510 -0.3534 -0.3073
  346MOL0     C45565   2.708   7.585   2.623 -0.1360 -0.8019 -0.8428
  346MOL0     C45566   2.652   7.644   2.507 -0.4302 -0.3990  0.6292
  346MOL0     C45567   2.513   7.623   2.470 -0.4973 -0.4054  0.7821
  346MOL0     C45568   2.439   7.542   2.551  0.6640  0.3881  0.4848
  346MOL0     C45569   2.291   7.511   2.516 -0.0083 -0.6963 -0.0537
  346MOL0     O45570   2.222   7.422   2.595 -0.7320  0.4905 -0.0195
  346MOL0     C45571   2.102   7.381   2.541  0.2146  0.3673  0.1921
  346MOL0     C45572   1.993   7.468   2.556  0.4579 -0.8530  1.3520
  346MOL0     C45573   1.869   7.438   2.503 -0.9896  0.2635  0.0684
  346MOL0     C45574   1.849   7.307   2.445  1.0207 -0.3509  0.4398
  346MOL0     O45575   1.728   7.268   2.393 -0.0102 -0.4808  0.3254
  346MOL0     C45576   1.610   7.322   2.447  0.3275 -0.3050 -0.6665
  346MOL0     C45577   1.595   7.308   2.599  0.5153 -0.2500 -0.1898
  346MOL0     C45578   1.443   7.304   2.636 -0.1745 -0.1143 -0.0664
  346MOL0     C45579   1.428   7.279   2.787  0.1695 -0.0796  0.1544
  346MOL0     C45580   1.292   7.233   2.847  0.9202 -0.3896 -0.4101
  346MOL0     C45581   1.302   7.190   2.998  0.0549 -0.2745  1.0288
  346MOL0     C45582   1.175   7.117   3.044 -0.5104  0.2992  0.1732
  346MOL0     C45583   1.060   7.212   3.093  0.0138 -0.3810 -0.4588
  346MOL0    Cl45584   0.912   7.112   3.091 -0.1293 -0.2048  0.0310
  346MOL0     C45585   1.965   7.224   2.434  0.8630  0.5256  0.7801
  346MOL0     C45586   2.093   7.264   2.473  0.0602  0.0857 -0.0121
  346MOL0     O45587   2.248   7.565   2.416 -0.7372  0.0093 -0.2861
  346MOL0     C45588   2.500   7.476   2.656  0.8128  0.9200 -0.0549
  346MOL0     C45589   2.629   7.494   2.698 -0.2246  0.1093 -0.4235
  346MOL0     N45590   3.451   7.817   2.595  0.4602  0.7120  0.9978
  346MOL0     N45591   3.564   7.761   2.557  0.1295  0.3813  0.6349
  346MOL0     C45592   4.072   8.021   2.894 -0.8268 -0.4059  0.2631
  346MOL0     C45593   3.948   8.064   2.855 -0.2871 -0.1091  0.3208
  346MOL0     C45594   3.609   8.237   2.682  0.1535 -0.3172  0.9666
  346MOL0     C45595   3.549   8.367   2.695 -0.9883 -0.0109 -0.4514
  346MOL0     C45596   3.416   8.396   2.705  0.3554  0.3487 -0.5819
  346MOL0     C45597   3.332   8.294   2.676  0.4268 -0.3509 -0.4518
  346MOL0     O45598   3.199   8.308   2.677 -0.1007  0.0512 -0.0832
  346MOL0     C45599   3.152   8.415   2.759  0.3845 -0.4303 -0.5088
  346MOL0     C45600   3.006   8.414   2.783 -0.0840 -0.6373  1.1127
  346MOL0     C45601   2.962   8.514   2.886  0.5776 -0.4756  0.1486
  346MOL0     C45602   2.808   8.538   2.862 -0.3302 -0.5321  0.3897
  346MOL0     C45603   2.722   8.424   2.881  0.3547  0.3538 -0.2585
  346MOL0     C45604   2.666   8.322   2.895  0.2478 -0.2056 -0.3253
  346MOL0     C45605   3.380   8.162   2.660  1.3207 -0.9892  0.7003
  346MOL0     C45606   3.517   8.131   2.667  0.0968  0.4480  0.3919
  346MOL0     H45607   3.974   7.974   2.528  2.0013 -3.4212  0.0102
  346MOL0     H45608   4.199   7.909   2.593  2.3786  0.1320  1.0755
  346MOL0     H45609   4.291   7.962   3.036 -1.4358 -2.2701  2.6131
  346MOL0     H45610   4.420   7.853   2.969  0.7064  0.4386  0.5002
  346MOL0     H45611   4.123   7.799   3.016 -0.6526 -1.0993 -1.9242
  346MOL0     H45612   4.254   7.759   3.124 -0.5240 -3.0007 -1.1288
  346MOL0     H45613   4.225   7.547   3.021 -0.5445  0.1816 -0.2447
  346MOL0     H45614   4.359   7.616   2.936  0.8848  2.8244  3.0287
  346MOL0     H45615   4.193   7.676   2.742 -0.9776  0.9316 -0.3904
  346MOL0     H45616   4.199   7.505   2.773  0.3188 -1.6664  1.9053
  346MOL0     H45617   3.979   7.693   2.868 -0.4978 -1.4731  2.3347
  346MOL0     H45618   3.988   7.538   2.927 -0.4555  0.4699 -0.2637
  346MOL0     H45619   3.977   7.475   2.663  1.5120 -0.7158  0.6154
  346MOL0     H45620   3.976   7.649   2.640  1.0680 -1.0710 -1.9974
  346MOL0     H45621   3.776   7.493   2.808  2.9905  0.4080  1.0308
  346MOL0     H45622   3.771   7.672   2.792 -1.1923  0.8797 -2.1880
  346MOL0     H45623   3.663   7.456   2.617 -2.2155  0.3516 -2.0464
  346MOL0     H45624   3.747   7.578   2.515 -1.0242  1.3354 -1.5255
  346MOL0     H45625   3.430   7.540   2.756 -2.5451  1.6926 -0.3415
  346MOL0     H45626   3.264   7.837   2.795 -0.8314 -0.1807  2.1118
  346MOL0     H45627   3.272   7.663   2.830 -1.5782 -1.7844 -2.2417
  346MOL0     H45628   3.158   7.607   2.620  2.9342 -1.3486  2.8203
  346MOL0     H45629   3.159   7.793   2.581  0.1709  1.5922  1.4891
  346MOL0     H45630   3.008   7.661   2.807 -2.0736 -1.1902 -1.1895
  346MOL0     H45631   3.029   7.836   2.781 -0.2082 -0.2352  1.0449
  346MOL0     H45632   2.914   7.758   2.551  3.7076  0.3697  0.5925
  346MOL0     H45633   2.829   7.801   2.702  3.2433  1.6141  2.2826
  346MOL0     H45634   2.724   7.697   2.446 -2.0712  0.9530 -0.2467
  346MOL0     H45635   2.477   7.661   2.375  0.3818  2.1802  1.3996
  346MOL0     H45636   2.012   7.566   2.599  4.2032  0.5440 -2.6912
  346MOL0     H45637   1.796   7.518   2.506 -0.6573  0.6158 -0.9539
  346MOL0     H45638   1.534   7.264   2.393  0.9744 -2.7549  0.9112
  346MOL0     H45639   1.598   7.424   2.409 -1.8864 -1.3195 -3.0010
  346MOL0     H45640   1.646   7.385   2.659  1.5934 -2.8860  2.5479
  346MOL0     H45641   1.648   7.219   2.634  4.2030  0.7279 -2.6772
  346MOL0     H45642   1.407   7.220   2.576  3.5000 -1.0137 -1.2423
  346MOL0     H45643   1.393   7.401   2.621 -1.3735 -0.7312 -0.2306
  346MOL0     H45644   1.502   7.201   2.808  1.1669  0.3750 -1.5086
  346MOL0     H45645   1.461   7.371   2.836 -0.1571  0.7959 -1.2139
  346MOL0     H45646   1.252   7.152   2.785 -1.5085  0.1206  0.3733
  346MOL0     H45647   1.220   7.315   2.848  0.2750 -0.9232  1.5687
  346MOL0     H45648   1.331   7.266   3.071  2.1758 -0.2929  0.2819
  346MOL0     H45649   1.385   7.119   3.002  1.0504  0.7146 -0.8844
  346MOL0     H45650   1.137   7.074   2.951  1.3817 -1.0202 -0.0444
  346MOL0     H45651   1.185   7.026   3.104 -0.5695 -0.2240 -0.5927
  346MOL0     H45652   1.044   7.287   3.016 -0.3615  2.1633  1.9558
  346MOL0     H45653   1.074   7.265   3.187 -1.9357  0.6558 -0.7143
  346MOL0     H45654   1.944   7.126   2.392  0.7203  0.6545  0.5452
  346MOL0     H45655   2.174   7.194   2.455 -0.7695 -1.2246  1.1537
  346MOL0     H45656   2.424   7.417   2.708  0.1751  2.1394  0.4466
  346MOL0     H45657   2.679   7.440   2.777  3.0275  0.9727 -1.6938
  346MOL0     H45658   4.095   8.034   3.000 -0.0822 -1.5114  0.2598
  346MOL0     H45659   3.884   8.115   2.926  0.8626 -2.2881  3.0754
  346MOL0     H45660   3.609   8.456   2.712 -2.0047  1.1583 -2.5389
  346MOL0     H45661   3.381   8.493   2.740 -2.2290 -0.2176 -1.4377
  346MOL0     H45662   3.184   8.508   2.710  3.0683 -0.4507  0.9660
  346MOL0     H45663   3.197   8.409   2.859 -3.5930 -1.7695  1.4135
  346MOL0     H45664   2.953   8.443   2.692  2.8562  0.4984 -0.3624
  346MOL0     H45665   2.965   8.318   2.815 -3.7411  0.5811  0.5811
  346MOL0     H45666   3.019   8.607   2.876 -0.6311  0.6839  2.9097
  346MOL0     H45667   2.989   8.480   2.986 -0.6091 -0.0937  0.6190
  346MOL0     H45668   2.776   8.613   2.934 -3.0576 -0.2803 -0.9846
  346MOL0     H45669   2.785   8.572   2.760  1.3138  0.4833  0.3247
  346MOL0     H45670   2.610   8.231   2.903  0.0305 -0.0215  0.3606
  346MOL0     H45671   3.312   8.078   2.656 -0.8837  0.6914  0.9747
  346MOL0     H45672   3.548   8.027   2.672  0.9883  0.7313  1.2242
  347MOL0     O45673   3.050   9.873  10.632 -0.1427  0.2898  0.1818
  347MOL0     C45674   3.078   9.901  10.745  1.0012 -0.1221  0.5629
  347MOL0     O45675   2.994   9.897  10.850 -0.2129 -0.0412  0.7385
  347MOL0     C45676   2.874   9.824  10.819 -0.3728  0.3451 -0.5844
  347MOL0     C45677   2.871   9.684  10.820  0.3201  0.2414  0.8851
  347MOL0     C45678   2.750   9.610  10.794  0.4979 -0.5373 -0.1378
  347MOL0     C45679   2.635   9.680  10.769 -0.2684 -0.4734 -0.2276
  347MOL0     O45680   2.517   9.616  10.771  0.6626 -0.3458 -0.7266
  347MOL0     C45681   2.409   9.668  10.690 -0.3999  0.8000  0.9618
  347MOL0     C45682   2.317   9.546  10.669  0.8742  0.4793 -0.3848
  347MOL0     C45683   2.188   9.590  10.590 -0.1055 -0.2291 -0.6931
  347MOL0     C45684   2.102   9.469  10.578  0.4324  0.3250  0.0069
  347MOL0     C45685   1.987   9.490  10.483  0.5647  0.3769  0.4573
  347MOL0     C45686   1.940   9.356  10.437 -0.2407 -0.1406  0.2822
  347MOL0     C45687   1.835   9.387  10.324  0.1884 -0.3130 -0.5222
  347MOL0     C45688   1.714   9.302  10.322  0.5073 -0.4806  0.8379
  347MOL0     N45689   1.592   9.339  10.408 -0.8043  0.0467  0.4726
  347MOL0     C45690   1.503   9.440  10.373  0.4362 -0.0693  0.3611
  347MOL0     C45691   1.423   9.455  10.486 -0.9745 -0.3307 -0.5946
  347MOL0     C45692   1.311   9.547  10.508 -0.0512 -0.2588  0.0957
  347MOL0     C45693   1.337   9.696  10.500  0.0827 -0.5279  0.4406
  347MOL0     C45694   1.372   9.773  10.630  0.1441  0.9147  0.1152
  347MOL0     C45695   1.512   9.759  10.691  1.1877 -0.1657  0.2952
  347MOL0     O45696   1.609   9.785  10.589 -0.0417 -0.0337 -0.2369
  347MOL0     C45697   1.737   9.820  10.623  0.0944  0.1120  0.2178
  347MOL0     C45698   1.810   9.886  10.521 -0.1494 -0.1336  0.2237
  347MOL0     C45699   1.943   9.917  10.539  0.5494  0.3213  0.0674
  347MOL0     C45700   1.993   9.913  10.671 -0.6116 -0.3929  0.1171
  347MOL0     C45701   2.130   9.962  10.702 -0.8641 -0.6095  0.5008
  347MOL0     O45702   2.166   9.958  10.838  0.0801  0.3865  0.0107
  347MOL0     C45703   2.286  10.014  10.873 -0.8199  0.3405 -0.4569
  347MOL0     C45704   2.351   9.968  10.991  0.5285  0.6615 -0.4454
  347MOL0     C45705   2.470  10.023  11.039 -0.8189  0.2485 -1.0217
  347MOL0     C45706   2.540  10.116  10.961  0.2425 -0.2134  0.3372
  347MOL0     O45707   2.667  10.165  10.995  0.2249 -0.2591 -0.1632
  347MOL0     C45708   2.744  10.086  11.085 -0.1059 -0.0981 -0.7055
  347MOL0     C45709   2.875  10.161  11.101 -0.2703 -0.3621 -0.3611
  347MOL0     C45710   2.962  10.108  11.216 -0.8310 -0.1182 -0.5118
  347MOL0     C45711   3.096  10.177  11.214 -0.1401 -0.1194  0.1792
  347MOL0     C45712   3.183  10.102  11.310  0.7813 -0.5830 -0.0095
  347MOL0     C45713   3.320  10.177  11.306 -0.7398  0.5081  0.6169
  347MOL0     C45714   3.426  10.086  11.380 -0.2235  0.6673  0.6322
  347MOL0     C45715   3.524  10.165  11.463 -0.5484  0.3878  0.3208
  347MOL0    Cl45716   3.638  10.258  11.369 -0.0969  0.0950  0.2510
  347MOL0     C45717   2.476  10.169  10.847 -0.0341  0.8094 -0.2924
  347MOL0     C45718   2.345  10.121  10.806 -0.1257  0.7023  0.3594
  347MOL0     O45719   2.206   9.969  10.605 -0.4294 -1.0038  0.1921
  347MOL0     C45720   1.917   9.866  10.773 -0.4100 -0.2414 -0.4701
  347MOL0     C45721   1.792   9.818  10.753  0.0308  0.3248 -0.4049
  347MOL0     N45722   1.476   9.370  10.582 -0.4741 -0.1388 -0.1174
  347MOL0     N45723   1.571   9.301  10.535 -0.0851 -0.4082 -0.0397
  347MOL0     C45724   2.643   9.820  10.759  1.1952 -0.1877  0.3057
  347MOL0     C45725   2.762   9.888  10.781  0.1485 -0.6196  0.1273
  347MOL0     C45726   3.218   9.922  10.780 -0.4494  0.1942 -0.2191
  347MOL0     C45727   3.321   9.875  10.694  0.3713  0.2263  0.5519
  347MOL0     C45728   3.447   9.880  10.735  0.0070  0.2785  0.3102
  347MOL0     C45729   3.482   9.931  10.860 -0.7767  0.2630  0.1319
  347MOL0     O45730   3.618   9.941  10.882  0.1073 -0.6740  0.6120
  347MOL0     C45731   3.667   9.991  10.999 -0.2324 -0.3376  0.5707
  347MOL0     C45732   3.823  10.003  11.021  0.0869 -0.1951 -0.8156
  347MOL0     C45733   3.843  10.086  11.152  0.3347  0.6614  0.1262
  347MOL0     C45734   3.987  10.121  11.192 -0.4065 -0.7597 -0.3707
  347MOL0     C45735   3.978  10.229  11.287  0.7723 -0.7496 -0.6177
  347MOL0     C45736   3.987  10.327  11.371  0.0428  0.4901  0.8646
  347MOL0     C45737   3.388   9.987  10.945 -0.5357 -0.4515  0.2323
  347MOL0     C45738   3.251   9.978  10.905 -0.0249 -0.6081 -0.0341
  347MOL0     H45739   2.962   9.627  10.830  0.5915  0.3900 -0.6070
  347MOL0     H45740   2.752   9.501  10.791  1.8743 -0.6531  2.3581
  347MOL0     H45741   2.452   9.693  10.593 -1.5409  0.9499  0.4719
  347MOL0     H45742   2.362   9.760  10.728 -1.1489  0.3442  1.1535
  347MOL0     H45743   2.289   9.499  10.764  0.3057 -3.3472 -2.2507
  347MOL0     H45744   2.377   9.469  10.620  2.1723 -0.1272  2.0076
  347MOL0     H45745   2.219   9.621  10.490 -0.4080 -3.2847 -1.8489
  347MOL0     H45746   2.132   9.669  10.639  0.0921  0.2371 -1.2077
  347MOL0     H45747   2.168   9.385  10.555  0.0241 -0.6902  2.2644
  347MOL0     H45748   2.065   9.447  10.679  3.1439  0.0444  1.0336
  347MOL0     H45749   2.017   9.551  10.397  1.8440  2.9861  2.5980
  347MOL0     H45750   1.918   9.559  10.532  1.6007  2.2715 -0.6402
  347MOL0     H45751   1.918   9.294  10.524  1.1196 -1.7952 -0.5055
  347MOL0     H45752   2.019   9.298  10.389  0.1043 -1.2493  2.1110
  347MOL0     H45753   1.798   9.490  10.329 -0.4823 -0.4276 -2.1894
  347MOL0     H45754   1.890   9.389  10.229 -1.1939 -0.6180 -1.3674
  347MOL0     H45755   1.750   9.205  10.358  1.9970 -0.4975 -0.5685
  347MOL0     H45756   1.675   9.292  10.220  0.3895 -1.4450  0.9738
  347MOL0     H45757   1.500   9.494  10.280  1.8529  2.5448  1.7296
  347MOL0     H45758   1.263   9.530  10.605 -0.8044 -0.9113 -0.3840
  347MOL0     H45759   1.233   9.529  10.434 -0.7636  0.2111  0.7093
  347MOL0     H45760   1.246   9.739  10.457 -2.3711 -4.4638  1.1774
  347MOL0     H45761   1.422   9.715  10.434  1.3240  0.3439  2.2017
  347MOL0     H45762   1.343   9.878  10.616 -3.2727  0.5992  3.2377
  347MOL0     H45763   1.317   9.737  10.717 -0.3244 -1.1771 -0.9847
  347MOL0     H45764   1.530   9.657  10.726 -1.1041 -0.5529  0.4928
  347MOL0     H45765   1.519   9.831  10.774 -2.5357 -1.4657  1.9929
  347MOL0     H45766   1.766   9.899  10.423  0.8937 -0.6928 -0.3406
  347MOL0     H45767   2.002   9.938  10.451  0.8891 -3.1269 -0.6851
  347MOL0     H45768   2.307   9.880  11.037  1.7535  1.7029  3.0176
  347MOL0     H45769   2.511   9.992  11.135  0.3916 -1.5480 -2.0533
  347MOL0     H45770   2.772   9.990  11.042  1.2965  0.2110 -0.5503
  347MOL0     H45771   2.703  10.068  11.185 -2.6278  0.9486 -1.4627
  347MOL0     H45772   2.856  10.266  11.125 -3.6125 -0.2837 -2.6126
  347MOL0     H45773   2.934  10.158  11.009 -0.4055  0.9731 -0.5112
  347MOL0     H45774   2.980  10.001  11.201 -0.7262 -0.3816  1.3505
  347MOL0     H45775   2.918  10.113  11.316 -1.5661 -1.1659 -0.7601
  347MOL0     H45776   3.150  10.174  11.118 -0.6504 -2.1160 -0.1007
  347MOL0     H45777   3.087  10.280  11.249 -2.0218 -0.2553  0.1833
  347MOL0     H45778   3.191   9.997  11.279  0.7969 -0.2908 -1.0221
  347MOL0     H45779   3.153  10.116  11.415 -1.1266  4.8471 -0.9451
  347MOL0     H45780   3.318  10.277  11.352  0.5761  1.9179 -2.1275
  347MOL0     H45781   3.354  10.190  11.203  0.1524  2.4050  1.1001
  347MOL0     H45782   3.373  10.029  11.456 -0.3866  0.9908  0.7632
  347MOL0     H45783   3.474  10.032  11.298 -3.3530  0.5606 -1.3002
  347MOL0     H45784   3.579  10.092  11.523 -2.0864 -0.1415  1.1523
  347MOL0     H45785   3.467  10.228  11.532 -0.4902 -1.2800  1.9999
  347MOL0     H45786   2.532  10.248  10.798  1.7347  2.0845  3.4292
  347MOL0     H45787   2.291  10.163  10.721 -1.0896  0.7592  0.9864
  347MOL0     H45788   1.961   9.855  10.872 -0.2110 -2.6230 -0.7638
  347MOL0     H45789   1.739   9.771  10.836  2.0610 -0.5229  0.4702
  347MOL0     H45790   2.556   9.872  10.719  0.3985 -1.7701 -0.0947
  347MOL0     H45791   2.752   9.994  10.762 -1.4924 -0.7838 -0.0551
  347MOL0     H45792   3.289   9.839  10.597  0.5705 -0.5463  0.7652
  347MOL0     H45793   3.521   9.839  10.666  0.2377  0.2396  0.5802
  347MOL0     H45794   3.636   9.926  11.081 -0.6234 -0.8904 -0.0129
  347MOL0     H45795   3.615  10.086  11.013 -2.0244 -1.4461  1.7543
  347MOL0     H45796   3.868   9.908  11.051 -2.5435 -0.5949  2.4862
  347MOL0     H45797   3.888  10.040  10.942  3.5040 -0.7315  1.5273
  347MOL0     H45798   3.799  10.024  11.231  0.4491 -0.2533 -0.5107
  347MOL0     H45799   3.787  10.180  11.143 -0.0275  0.2780 -2.1052
  347MOL0     H45800   4.034  10.041  11.249 -0.0881  1.8319  3.4081
  347MOL0     H45801   4.044  10.149  11.103 -0.6410  3.0739  0.5192
  347MOL0     H45802   3.992  10.405  11.444 -0.0349  2.6371 -1.3210
  347MOL0     H45803   3.414  10.031  11.041 -0.2707  2.9278 -1.2241
  347MOL0     H45804   3.172  10.014  10.971 -0.2349  2.2888 -1.7039
  348MOL0     O45805   7.128   7.829   2.401  0.3945  0.1241  0.0794
  348MOL0     C45806   7.059   7.728   2.372 -0.1820  0.4285  1.0633
  348MOL0     O45807   7.113   7.609   2.336 -0.0033  0.5387 -0.1898
  348MOL0     C45808   7.249   7.600   2.340 -0.7319  0.0326  0.0803
  348MOL0     C45809   7.316   7.550   2.450 -0.3147 -0.0756  0.4970
  348MOL0     C45810   7.460   7.553   2.453  0.1808 -0.0130  0.0034
  348MOL0     C45811   7.531   7.605   2.338  0.4602 -0.0149 -0.6040
  348MOL0     O45812   7.670   7.612   2.334  0.7067 -0.0365 -0.0664
  348MOL0     C45813   7.736   7.682   2.435  0.1395 -0.1969  0.4512
  348MOL0     C45814   7.869   7.738   2.384 -0.0410 -0.6612  0.6137
  348MOL0     C45815   7.947   7.653   2.288  0.0902  0.6453 -0.1250
  348MOL0     C45816   7.996   7.522   2.353 -0.1584  0.8329  0.0458
  348MOL0     C45817   8.002   7.423   2.236 -0.3709 -0.1369  0.7777
  348MOL0     C45818   7.868   7.367   2.193  0.4893 -0.3543 -0.1460
  348MOL0     C45819   7.888   7.250   2.097  0.1456  0.3002  0.6287
  348MOL0     C45820   7.764   7.198   2.021 -0.1282 -0.2751  0.8518
  348MOL0     N45821   7.652   7.159   2.109  0.1266  0.7922 -0.0517
  348MOL0     C45822   7.557   7.243   2.138  0.9738  0.4990 -0.6038
  348MOL0     C45823   7.464   7.163   2.205 -0.0403 -0.0031  0.9068
  348MOL0     C45824   7.337   7.224   2.243 -0.4281 -0.1556  1.0026
  348MOL0     C45825   7.224   7.181   2.154  1.1768  0.7321 -0.4852
  348MOL0     C45826   7.087   7.251   2.192 -0.2135 -0.4869  0.0613
  348MOL0     C45827   7.000   7.237   2.070  0.2600  0.3047  0.4005
  348MOL0     O45828   6.888   7.324   2.056 -0.4028 -0.4371  0.6959
  348MOL0     C45829   6.762   7.316   2.110 -0.2543  0.6085 -0.4223
  348MOL0     C45830   6.729   7.241   2.225 -0.4584 -1.0477  0.5800
  348MOL0     C45831   6.600   7.240   2.273  0.1311 -0.5388 -0.1593
  348MOL0     C45832   6.504   7.323   2.203  0.0136 -0.0527 -0.1133
  348MOL0     C45833   6.358   7.315   2.230 -0.0262  0.8673  0.6663
  348MOL0     O45834   6.269   7.353   2.134 -0.2429  0.3744  0.0342
  348MOL0     C45835   6.128   7.360   2.162 -0.2690 -0.0190  0.3652
  348MOL0     C45836   6.048   7.288   2.246  0.0632  0.5390  0.8745
  348MOL0     C45837   5.915   7.322   2.257 -1.1937  0.1280 -0.6800
  348MOL0     C45838   5.856   7.424   2.184 -1.3736  0.3720 -0.4449
  348MOL0     O45839   5.724   7.443   2.218 -0.2988  0.1013  0.4148
  348MOL0     C45840   5.647   7.527   2.135  0.0163  0.1342  0.1496
  348MOL0     C45841   5.496   7.523   2.168 -0.7343 -0.9854 -0.5967
  348MOL0     C45842   5.411   7.578   2.054 -0.2668  0.1265  1.0471
  348MOL0     C45843   5.404   7.475   1.943  0.1851 -0.5166  0.0085
  348MOL0     C45844   5.318   7.533   1.829  0.2991  0.9658 -0.1030
  348MOL0     C45845   5.399   7.560   1.703 -0.1821  0.1141  0.3498
  348MOL0     C45846   5.309   7.598   1.579  0.3984  1.3560  0.4714
  348MOL0     C45847   5.202   7.480   1.542  0.4182 -0.4672  0.0174
  348MOL0    Cl45848   5.294   7.322   1.526 -0.2359 -0.1224 -0.4064
  348MOL0     C45849   5.935   7.497   2.104 -0.3221  0.7341  0.5565
  348MOL0     C45850   6.072   7.464   2.093  0.4646 -0.0689 -0.4030
  348MOL0     O45851   6.328   7.266   2.341 -0.3257 -0.3394 -0.2536
  348MOL0     C45852   6.540   7.400   2.087  0.3737  0.4392 -0.0627
  348MOL0     C45853   6.671   7.391   2.043  0.6476  0.0567  0.2778
  348MOL0     N45854   7.515   7.034   2.227 -0.0094 -0.0707  0.0107
  348MOL0     N45855   7.627   7.024   2.156 -0.1605  0.1928 -0.1723
  348MOL0     C45856   7.461   7.644   2.222 -0.2127  0.6596  0.3559
  348MOL0     C45857   7.323   7.634   2.224  0.2795  0.3226  0.3168
  348MOL0     C45858   6.913   7.742   2.358 -0.5035 -0.2410  0.0565
  348MOL0     C45859   6.838   7.643   2.301  0.3022  0.1565 -0.3602
  348MOL0     C45860   6.699   7.665   2.292 -0.6765 -0.0711 -0.1551
  348MOL0     C45861   6.637   7.779   2.351 -0.0286 -0.1940 -0.0939
  348MOL0     O45862   6.503   7.805   2.345  1.0685 -0.0281 -0.8587
  348MOL0     C45863   6.420   7.717   2.267  0.3688  0.7234 -0.2081
  348MOL0     C45864   6.279   7.738   2.319  0.3958  0.0916  0.3822
  348MOL0     C45865   6.213   7.873   2.287 -0.6359  0.5967  0.4337
  348MOL0     C45866   6.181   7.888   2.135 -0.2445  0.6280  1.5152
  348MOL0     C45867   6.058   7.975   2.109 -0.1332 -0.1868  0.5365
  348MOL0     C45868   5.944   8.038   2.096 -0.8020  0.4083 -0.2313
  348MOL0     C45869   6.715   7.868   2.413  0.0819 -0.8957  1.0702
  348MOL0     C45870   6.849   7.859   2.410  0.4717 -0.1691  0.5063
  348MOL0     H45871   7.261   7.514   2.536  0.2889  3.2485  2.4602
  348MOL0     H45872   7.518   7.514   2.536  0.6067 -1.1967 -0.8234
  348MOL0     H45873   7.768   7.604   2.505  2.3210  0.1579 -0.0670
  348MOL0     H45874   7.672   7.759   2.479 -0.1398 -0.4220  0.4397
  348MOL0     H45875   7.929   7.759   2.473  0.1149 -3.1139  1.1627
  348MOL0     H45876   7.850   7.834   2.335  1.1125 -1.4128 -1.4538
  348MOL0     H45877   8.036   7.705   2.250  0.9249 -0.7319 -0.1370
  348MOL0     H45878   7.883   7.642   2.201 -1.8337  0.6424  1.2312
  348MOL0     H45879   8.092   7.532   2.405  0.3167 -1.5384 -0.2647
  348MOL0     H45880   7.926   7.472   2.421  1.7675 -2.4358 -0.1572
  348MOL0     H45881   8.071   7.345   2.269  1.8664  1.4462  0.1006
  348MOL0     H45882   8.054   7.469   2.151  2.7249  0.2360  2.7179
  348MOL0     H45883   7.818   7.452   2.146 -0.4334  0.1349  1.6257
  348MOL0     H45884   7.813   7.338   2.283  1.7001 -0.3885  0.6197
  348MOL0     H45885   7.956   7.287   2.020  0.8097 -0.8337  0.6455
  348MOL0     H45886   7.935   7.167   2.150  3.9338  1.9484  0.1312
  348MOL0     H45887   7.795   7.108   1.967  0.3920 -0.4453  1.4263
  348MOL0     H45888   7.731   7.274   1.949 -0.8356 -0.1106  1.3378
  348MOL0     H45889   7.550   7.348   2.112 -0.2119 -0.0506 -2.7000
  348MOL0     H45890   7.339   7.333   2.247 -1.1605 -0.1680  3.6643
  348MOL0     H45891   7.318   7.198   2.348 -0.1790 -0.3423  1.0026
  348MOL0     H45892   7.196   7.076   2.161  1.5125  0.7042  0.5058
  348MOL0     H45893   7.263   7.199   2.053  1.4738 -0.2265 -0.5435
  348MOL0     H45894   7.019   7.215   2.270  0.0906  0.5513  0.8318
  348MOL0     H45895   7.103   7.357   2.216 -1.4358 -0.2832  0.0269
  348MOL0     H45896   6.957   7.136   2.067 -1.4172  0.9973  0.4833
  348MOL0     H45897   7.063   7.253   1.982 -2.3181 -0.0711 -1.6482
  348MOL0     H45898   6.806   7.177   2.269  0.6133 -0.1170  0.1042
  348MOL0     H45899   6.583   7.170   2.353  2.9247 -0.1888  0.8230
  348MOL0     H45900   6.095   7.209   2.304  1.1995  0.9851  0.5922
  348MOL0     H45901   5.865   7.253   2.324  1.9622 -0.9797  0.7355
  348MOL0     H45902   5.651   7.493   2.031 -2.3433 -4.0644  1.1770
  348MOL0     H45903   5.685   7.628   2.153 -0.2186  0.1648  0.4914
  348MOL0     H45904   5.485   7.581   2.259  0.3988  1.2222 -1.7876
  348MOL0     H45905   5.468   7.420   2.192 -0.6378 -0.8309  0.2009
  348MOL0     H45906   5.448   7.671   2.010 -2.2197  0.6631  0.4591
  348MOL0     H45907   5.313   7.597   2.099  0.6402  1.9527  2.3943
  348MOL0     H45908   5.502   7.437   1.913  0.7322  0.6510  0.2360
  348MOL0     H45909   5.353   7.383   1.973 -1.2783  0.1431 -0.3437
  348MOL0     H45910   5.259   7.621   1.856  0.9141  0.8181  1.8935
  348MOL0     H45911   5.254   7.449   1.800  1.0427  0.5901 -0.6960
  348MOL0     H45912   5.461   7.474   1.676 -0.3310 -0.8514  2.7605
  348MOL0     H45913   5.460   7.648   1.726  1.7490 -0.8516 -0.8900
  348MOL0     H45914   5.264   7.695   1.598 -0.7089  0.4920  2.5692
  348MOL0     H45915   5.372   7.615   1.492 -2.4809 -0.5967 -2.2071
  348MOL0     H45916   5.155   7.497   1.445  2.0100 -0.6305 -0.8314
  348MOL0     H45917   5.129   7.474   1.623  1.9116  1.5634  1.6649
  348MOL0     H45918   5.888   7.580   2.052 -2.5997  0.1464  1.5824
  348MOL0     H45919   6.117   7.526   2.016 -0.9165 -0.5202 -1.6089
  348MOL0     H45920   6.471   7.457   2.026  1.9488  0.8125 -1.5678
  348MOL0     H45921   6.706   7.444   1.955  1.4322  0.2797  0.7216
  348MOL0     H45922   7.518   7.679   2.137  2.6912  0.2137  1.9788
  348MOL0     H45923   7.275   7.651   2.129  1.6538  1.7375 -0.1700
  348MOL0     H45924   6.881   7.556   2.253 -0.9752  0.2979 -1.8758
  348MOL0     H45925   6.649   7.595   2.226 -1.1350  1.6870 -1.7632
  348MOL0     H45926   6.446   7.612   2.282  0.8417  0.1929 -3.8815
  348MOL0     H45927   6.431   7.733   2.160  0.5182  1.2873 -0.1084
  348MOL0     H45928   6.220   7.652   2.287 -0.3998  0.7002  0.1888
  348MOL0     H45929   6.276   7.728   2.428  0.8076  1.7444  0.5631
  348MOL0     H45930   6.278   7.954   2.323  0.7030  0.9312 -2.4771
  348MOL0     H45931   6.122   7.883   2.347 -1.8861  0.0091 -1.2721
  348MOL0     H45932   6.259   7.936   2.076 -2.9842  1.1991 -1.9652
  348MOL0     H45933   6.160   7.790   2.092  1.3970  0.7504  0.3759
  348MOL0     H45934   5.853   8.093   2.080 -0.3737  0.6013 -2.3793
  348MOL0     H45935   6.679   7.962   2.452  1.8701 -0.3165  1.3710
  348MOL0     H45936   6.897   7.941   2.462 -1.3676 -0.2361  2.4189
  349MOL0     O45937   6.841   6.127   6.627  0.5814 -0.7703  0.6103
  349MOL0     C45938   6.925   6.220   6.640  0.5836  0.1932  0.2239
  349MOL0     O45939   6.908   6.333   6.718  0.1427 -0.5919 -0.3184
  349MOL0     C45940   6.796   6.363   6.788  0.4244  0.2714 -0.3177
  349MOL0     C45941   6.665   6.329   6.761 -0.1403  0.1825  0.1170
  349MOL0     C45942   6.559   6.381   6.844  0.0105  0.7197  0.4642
  349MOL0     C45943   6.590   6.459   6.951  0.1504 -0.4522 -0.8483
  349MOL0     O45944   6.508   6.532   7.032 -0.5071 -0.3283  0.2403
  349MOL0     C45945   6.371   6.513   7.037  0.5400 -0.3545  0.1874
  349MOL0     C45946   6.311   6.616   7.142  1.0697 -0.6438  0.1557
  349MOL0     C45947   6.153   6.618   7.128 -0.0800  0.4887 -0.3236
  349MOL0     C45948   6.123   6.697   6.995 -1.0103 -0.0324  0.1825
  349MOL0     C45949   5.980   6.752   6.993 -0.0738 -0.1310  0.2963
  349MOL0     C45950   5.860   6.660   7.032 -0.3749 -0.0832 -0.4057
  349MOL0     C45951   5.726   6.722   6.997 -0.1471  0.2988 -0.1487
  349MOL0     C45952   5.609   6.616   7.003 -0.4166 -0.1568  0.6644
  349MOL0     N45953   5.487   6.680   6.951  0.1874  0.7124 -0.3306
  349MOL0     C45954   5.405   6.751   7.039  0.3150  0.3693  0.5352
  349MOL0     C45955   5.288   6.757   6.971  0.3911 -0.0567  0.3819
  349MOL0     C45956   5.179   6.842   7.025 -0.1688  0.4136  0.7038
  349MOL0     C45957   5.048   6.811   6.951  0.1350 -0.0430 -0.4719
  349MOL0     C45958   4.922   6.849   7.038  0.6036 -0.1063 -0.1000
  349MOL0     C45959   4.900   6.992   7.076 -0.0777  0.0284 -0.3082
  349MOL0     O45960   4.816   7.052   6.978  0.2437 -0.4051  0.3483
  349MOL0     C45961   4.679   7.039   6.987 -0.5589 -0.3645  0.3595
  349MOL0     C45962   4.604   7.115   6.887  0.1438  0.7955 -0.4231
  349MOL0     C45963   4.468   7.109   6.867 -0.6656 -0.4359  0.1765
  349MOL0     C45964   4.395   7.029   6.965 -0.5711  0.4566 -0.1127
  349MOL0     C45965   4.252   7.018   6.942 -0.6507  0.5298 -0.0086
  349MOL0     O45966   4.176   7.120   6.881 -0.5430 -0.0174 -0.2532
  349MOL0     C45967   4.038   7.095   6.883  1.0318  0.4114  0.0551
  349MOL0     C45968   3.986   7.010   6.798  0.8400  0.3789 -0.4371
  349MOL0     C45969   3.854   6.974   6.799  1.3195  0.3541  0.7381
  349MOL0     C45970   3.769   7.033   6.893  0.8407 -0.5913  0.6608
  349MOL0     O45971   3.636   7.002   6.880 -0.1377  0.4314  0.3057
  349MOL0     C45972   3.537   7.051   6.966  1.0672  0.0046 -0.6345
  349MOL0     C45973   3.397   6.979   6.958 -0.2989  0.3788  0.4733
  349MOL0     C45974   3.282   7.055   7.010 -0.0166  0.1212  0.4082
  349MOL0     C45975   3.283   7.075   7.164 -0.0946 -0.1468  0.4812
  349MOL0     C45976   3.172   7.173   7.207 -0.1104  0.4572  0.2728
  349MOL0     C45977   3.030   7.123   7.194  0.0353 -0.2685 -0.8194
  349MOL0     C45978   2.922   7.219   7.243  0.1273 -0.3437 -0.0292
  349MOL0     C45979   2.785   7.162   7.236 -0.0006 -0.4638  0.0847
  349MOL0    Cl45980   2.676   7.281   7.312  0.0831  0.5071  0.0827
  349MOL0     C45981   3.818   7.128   6.981 -1.0338  0.2832 -0.5701
  349MOL0     C45982   3.949   7.168   6.972 -0.4374 -0.0579  0.1216
  349MOL0     O45983   4.211   6.913   6.987 -0.6416 -0.2610  0.1286
  349MOL0     C45984   4.464   6.965   7.072  0.0209 -0.0909 -0.4791
  349MOL0     C45985   4.606   6.976   7.089 -0.1990  0.1581  0.1883
  349MOL0     N45986   5.301   6.686   6.851 -0.3203 -0.9017  1.2298
  349MOL0     N45987   5.418   6.641   6.843 -0.3631  0.1796 -0.2068
  349MOL0     C45988   6.726   6.480   6.990 -0.1916 -0.0002  0.4207
  349MOL0     C45989   6.828   6.430   6.906 -0.0491 -1.1156 -0.1549
  349MOL0     C45990   7.052   6.199   6.573 -0.1359 -0.6634  0.5637
  349MOL0     C45991   7.137   6.312   6.546 -0.1025  0.6592  0.0125
  349MOL0     C45992   7.256   6.298   6.477  0.6181 -0.2311  0.5673
  349MOL0     C45993   7.294   6.173   6.421  0.3581  0.1552  0.0977
  349MOL0     O45994   7.420   6.158   6.358  0.7661  0.0956 -0.7232
  349MOL0     C45995   7.466   6.025   6.310  0.1438 -0.5170 -0.3102
  349MOL0     C45996   7.608   6.042   6.258 -0.2220  0.3975  0.1625
  349MOL0     C45997   7.608   6.140   6.136 -0.6099 -0.7019 -0.4135
  349MOL0     C45998   7.514   6.104   6.024 -0.4012  0.4881  0.6692
  349MOL0     C45999   7.547   5.969   5.971 -0.0257 -0.4126  0.4614
  349MOL0     C46000   7.578   5.863   5.924  0.7760  0.3173 -0.3861
  349MOL0     C46001   7.212   6.069   6.445 -0.3011  0.1705 -0.4999
  349MOL0     C46002   7.100   6.079   6.521  0.5427 -0.0693  0.2821
  349MOL0     H46003   6.644   6.278   6.667 -1.4370  1.6096 -0.4175
  349MOL0     H46004   6.456   6.350   6.828  0.3626 -0.3001  0.0741
  349MOL0     H46005   6.346   6.410   7.066 -0.3574 -0.3356 -0.4787
  349MOL0     H46006   6.328   6.534   6.939 -0.8594  0.2503  0.8955
  349MOL0     H46007   6.350   6.719   7.137  2.7030 -1.1762  0.9594
  349MOL0     H46008   6.341   6.598   7.246  3.6332 -0.8575 -0.5466
  349MOL0     H46009   6.119   6.679   7.212 -1.7463  1.1224 -1.4161
  349MOL0     H46010   6.122   6.514   7.127 -0.5777  0.6345 -1.5273
  349MOL0     H46011   6.193   6.778   6.971 -1.0457  0.6383  2.1650
  349MOL0     H46012   6.135   6.628   6.911 -2.1916 -0.0947  0.0485
  349MOL0     H46013   5.954   6.781   6.891 -2.3696 -1.0061  0.5854
  349MOL0     H46014   5.976   6.843   7.054 -0.7801  0.4894 -0.6505
  349MOL0     H46015   5.867   6.621   7.134  1.4416 -0.2489 -0.5601
  349MOL0     H46016   5.870   6.581   6.957  1.9641  1.5152 -1.9373
  349MOL0     H46017   5.713   6.798   7.075 -0.8630 -1.0389  1.0961
  349MOL0     H46018   5.735   6.763   6.896  0.3718 -2.2976 -1.2409
  349MOL0     H46019   5.589   6.583   7.105  0.2065 -0.3096  0.7368
  349MOL0     H46020   5.639   6.532   6.940 -2.2261 -0.2311 -0.1867
  349MOL0     H46021   5.425   6.791   7.138  0.3371 -0.6153  0.9467
  349MOL0     H46022   5.206   6.944   6.994  0.3000  0.4424  1.2010
  349MOL0     H46023   5.163   6.838   7.133 -1.2208  2.3278  0.6815
  349MOL0     H46024   5.048   6.701   6.949 -1.0794 -0.1344  1.4294
  349MOL0     H46025   5.048   6.842   6.846 -1.1890  0.1406 -0.4338
  349MOL0     H46026   4.827   6.822   6.990 -1.4977  3.4461  1.5986
  349MOL0     H46027   4.935   6.787   7.127  3.8603 -0.4140 -0.6813
  349MOL0     H46028   5.000   7.033   7.090  0.8064 -1.5061 -1.7982
  349MOL0     H46029   4.859   7.001   7.177  2.1727 -1.9445  0.8676
  349MOL0     H46030   4.662   7.182   6.825  0.8699  0.6632  0.1073
  349MOL0     H46031   4.417   7.167   6.791 -3.4468 -3.4199 -0.4227
  349MOL0     H46032   4.043   6.964   6.717  1.2079  1.0174 -0.5484
  349MOL0     H46033   3.828   6.909   6.716  1.7969 -1.5573  1.9994
  349MOL0     H46034   3.522   7.153   6.930 -2.7936 -0.2211 -0.1235
  349MOL0     H46035   3.574   7.055   7.069  2.3424  2.8028 -1.0904
  349MOL0     H46036   3.398   6.884   7.013 -0.5162 -0.2942 -0.6480
  349MOL0     H46037   3.382   6.965   6.850  1.2123  2.8969 -0.1467
  349MOL0     H46038   3.192   7.007   6.971  0.8931 -0.9156 -0.4663
  349MOL0     H46039   3.293   7.154   6.965 -0.3273  0.7756  1.7195
  349MOL0     H46040   3.259   6.978   7.207 -0.1661 -3.0838 -5.2420
  349MOL0     H46041   3.385   7.098   7.196 -0.0097  0.1738  0.0004
  349MOL0     H46042   3.190   7.266   7.152  0.7357 -0.8589 -1.7686
  349MOL0     H46043   3.185   7.190   7.314 -2.2797  1.6738  0.4069
  349MOL0     H46044   3.013   7.036   7.259  0.3635 -0.3351 -0.8217
  349MOL0     H46045   3.013   7.077   7.096  1.7124 -2.2491 -0.2477
  349MOL0     H46046   2.942   7.254   7.345 -0.5248 -3.0395  1.1079
  349MOL0     H46047   2.914   7.302   7.173 -1.7968 -0.4642 -0.0064
  349MOL0     H46048   2.778   7.065   7.286 -0.9171  1.2227  3.5717
  349MOL0     H46049   2.753   7.154   7.132 -0.2601 -2.5024  0.2651
  349MOL0     H46050   3.758   7.190   7.046 -1.1982 -0.1962 -0.2597
  349MOL0     H46051   3.989   7.241   7.041 -0.0536  1.0035 -1.1881
  349MOL0     H46052   4.398   6.917   7.144  1.0258  2.6926  2.5550
  349MOL0     H46053   4.648   6.915   7.168  0.7919 -3.0274 -2.5882
  349MOL0     H46054   6.765   6.526   7.080  0.4031 -0.1476  0.2376
  349MOL0     H46055   6.933   6.426   6.931 -0.0270 -2.2343 -0.3897
  349MOL0     H46056   7.111   6.412   6.580  0.7043  0.9705 -0.2586
  349MOL0     H46057   7.328   6.379   6.468 -0.7630  1.6497  4.3847
  349MOL0     H46058   7.390   5.977   6.248 -0.8023  1.5854 -0.8674
  349MOL0     H46059   7.481   5.960   6.397 -1.4234 -1.6697 -0.8400
  349MOL0     H46060   7.662   6.086   6.342 -2.6286 -1.3558  2.8378
  349MOL0     H46061   7.637   5.940   6.230  0.7875  0.7313 -0.0530
  349MOL0     H46062   7.709   6.149   6.097 -0.0345  0.6301  1.2537
  349MOL0     H46063   7.592   6.242   6.172 -1.9462 -0.0894 -2.5263
  349MOL0     H46064   7.409   6.110   6.051 -0.7988  0.0089 -0.6900
  349MOL0     H46065   7.515   6.180   5.946  0.6947 -0.4754 -0.2899
  349MOL0     H46066   7.602   5.765   5.887  1.6832  0.6429 -0.6828
  349MOL0     H46067   7.233   5.968   6.410 -4.8908 -2.0029  2.0370
  349MOL0     H46068   7.037   5.993   6.543  1.3096 -0.9675 -0.9513
  350MOL0     O46069  10.056   4.535   0.323 -0.2410  0.2334  0.1670
  350MOL0     C46070  10.021   4.456   0.240  0.3505  0.3366  0.3711
  350MOL0     O46071   9.907   4.378   0.243  0.2412 -0.3995 -0.0718
  350MOL0     C46072   9.812   4.379   0.337 -0.9825 -0.4736 -0.7760
  350MOL0     C46073   9.758   4.500   0.399 -1.0332 -0.3195 -0.3863
  350MOL0     C46074   9.647   4.493   0.483  0.4987  0.2155 -0.6871
  350MOL0     C46075   9.589   4.371   0.509 -0.7166  0.6831  0.5001
  350MOL0     O46076   9.491   4.390   0.602 -0.9305 -0.4352  0.3068
  350MOL0     C46077   9.423   4.275   0.656 -0.5047  0.5907  0.1524
  350MOL0     C46078   9.299   4.320   0.732 -0.6809  0.5206 -0.5770
  350MOL0     C46079   9.196   4.367   0.644  0.5275  0.7191  0.1488
  350MOL0     C46080   9.068   4.389   0.721 -0.0784  0.2052 -0.8167
  350MOL0     C46081   8.949   4.425   0.637  0.2984 -0.4733  0.5236
  350MOL0     C46082   8.825   4.454   0.728 -0.2365 -0.2950  0.6070
  350MOL0     C46083   8.697   4.509   0.659  1.0869  0.3995  1.0844
  350MOL0     C46084   8.572   4.420   0.653 -0.0467  0.7487  0.1973
  350MOL0     N46085   8.512   4.400   0.784 -0.0141 -0.1528  0.3748
  350MOL0     C46086   8.432   4.493   0.852  0.2100 -0.1442 -0.2974
  350MOL0     C46087   8.371   4.417   0.947  0.1055 -0.7930  0.3835
  350MOL0     C46088   8.284   4.479   1.058  0.3063 -0.0850  0.2496
  350MOL0     C46089   8.255   4.375   1.166 -0.2243  0.6846 -0.2608
  350MOL0     C46090   8.185   4.436   1.289 -1.3183 -0.1736 -0.2011
  350MOL0     C46091   8.055   4.510   1.249 -0.4205  0.0824  0.4300
  350MOL0     O46092   7.966   4.526   1.368 -0.0601  0.0886  0.8112
  350MOL0     C46093   7.829   4.558   1.355  0.1853  0.3703  0.1914
  350MOL0     C46094   7.763   4.573   1.236 -1.1784  0.1213 -0.7448
  350MOL0     C46095   7.624   4.613   1.225  0.1252  0.8149 -0.0592
  350MOL0     C46096   7.550   4.618   1.343 -0.9931  0.5899  0.3237
  350MOL0     C46097   7.394   4.633   1.331 -0.4848  0.3519  0.0424
  350MOL0     O46098   7.327   4.649   1.446 -0.2081  0.3885 -0.2991
  350MOL0     C46099   7.189   4.645   1.457  0.3474 -0.4042 -0.3270
  350MOL0     C46100   7.139   4.700   1.578  0.2428 -0.3067 -0.0127
  350MOL0     C46101   7.005   4.693   1.609 -0.9101 -0.3876 -0.5773
  350MOL0     C46102   6.913   4.639   1.518 -0.1543 -1.3238  0.1700
  350MOL0     O46103   6.785   4.624   1.538  0.2051  0.2455  0.3587
  350MOL0     C46104   6.718   4.689   1.645 -0.9684  0.3008 -0.5712
  350MOL0     C46105   6.567   4.690   1.638 -0.1359 -0.2016  0.4851
  350MOL0     C46106   6.520   4.550   1.604 -0.1030  0.5602 -0.7098
  350MOL0     C46107   6.362   4.537   1.615 -1.2478 -0.5389  0.2385
  350MOL0     C46108   6.314   4.393   1.624 -0.2113  0.7471 -0.3297
  350MOL0     C46109   6.170   4.377   1.591 -0.7102  0.1138 -0.7904
  350MOL0     C46110   6.153   4.383   1.436 -0.0343  0.6470 -0.1764
  350MOL0     C46111   6.001   4.411   1.411 -0.8565  0.8894  0.2151
  350MOL0    Cl46112   5.913   4.293   1.502  0.3451 -0.2466 -0.0547
  350MOL0     C46113   6.957   4.590   1.398  0.8393  0.8346 -0.1047
  350MOL0     C46114   7.093   4.591   1.368 -0.3862  0.6158  0.1203
  350MOL0     O46115   7.350   4.635   1.215  1.2039 -0.0557  0.9005
  350MOL0     C46116   7.619   4.595   1.466  0.6479 -0.4550  0.2214
  350MOL0     C46117   7.756   4.589   1.475 -0.0442 -0.2998 -0.2967
  350MOL0     N46118   8.406   4.288   0.934 -0.3170  0.2330 -0.2576
  350MOL0     N46119   8.499   4.278   0.848  0.8707 -0.2900 -0.5511
  350MOL0     C46120   9.642   4.247   0.453 -0.4087  0.5265 -0.4461
  350MOL0     C46121   9.753   4.254   0.362 -0.6365 -0.0665  0.1121
  350MOL0     C46122  10.109   4.433   0.120  0.0562  0.3928  0.2782
  350MOL0     C46123  10.214   4.518   0.089  1.0137  0.1077  0.0201
  350MOL0     C46124  10.298   4.489  -0.017 -0.4376  0.6152 -0.5748
  350MOL0     C46125  10.283   4.378  -0.096  0.1789  0.4510 -0.0658
  350MOL0     O46126  10.370   4.334  -0.189 -0.8890 -0.0991  0.7639
  350MOL0     C46127  10.501   4.314  -0.133 -0.4479  0.1653 -0.0194
  350MOL0     C46128  10.614   4.312  -0.241  0.5245  0.4089  0.3227
  350MOL0     C46129  10.742   4.256  -0.176 -0.6349 -0.8623 -0.7604
  350MOL0     C46130  10.876   4.258  -0.253  0.4699 -0.1267 -0.0372
  350MOL0     C46131  10.893   4.394  -0.319  0.0231 -0.5680  0.5256
  350MOL0     C46132  10.900   4.504  -0.367 -0.6504 -0.1548  0.1759
  350MOL0     C46133  10.173   4.290  -0.072  0.0967 -0.0477  1.3073
  350MOL0     C46134  10.090   4.317   0.038  0.1938  0.5449 -0.3393
  350MOL0     H46135   9.808   4.592   0.371  0.9709 -1.7398 -1.8205
  350MOL0     H46136   9.604   4.589   0.507 -0.9366  0.0571 -2.4793
  350MOL0     H46137   9.492   4.217   0.720 -1.0481  0.5883  0.7460
  350MOL0     H46138   9.389   4.211   0.574  2.9013 -0.7047 -0.4469
  350MOL0     H46139   9.327   4.409   0.789 -0.5595 -2.0043  3.6816
  350MOL0     H46140   9.255   4.242   0.794  1.0980  1.5958  2.2316
  350MOL0     H46141   9.182   4.294   0.563 -0.0922  0.0489  0.8510
  350MOL0     H46142   9.236   4.461   0.603  1.9370 -0.1948 -0.6723
  350MOL0     H46143   9.038   4.295   0.770 -0.7310  0.1630 -1.2896
  350MOL0     H46144   9.084   4.463   0.800 -2.1552 -0.0792 -0.0657
  350MOL0     H46145   8.907   4.346   0.574 -0.5749  1.1836 -1.0596
  350MOL0     H46146   8.959   4.515   0.576  1.4505 -1.6252 -1.0826
  350MOL0     H46147   8.852   4.524   0.807 -1.8666  2.3192 -0.9994
  350MOL0     H46148   8.805   4.356   0.771 -1.6072 -0.0100  0.6697
  350MOL0     H46149   8.666   4.604   0.702 -0.7971  0.4642 -0.2579
  350MOL0     H46150   8.730   4.538   0.559  3.5902 -1.5218  1.2699
  350MOL0     H46151   8.582   4.319   0.613  0.2689  0.0237  2.0078
  350MOL0     H46152   8.504   4.472   0.585  0.8653  3.2764  1.0956
  350MOL0     H46153   8.410   4.598   0.832 -1.4482 -0.6534 -1.3468
  350MOL0     H46154   8.189   4.508   1.012  0.2112 -0.9560 -0.1166
  350MOL0     H46155   8.329   4.567   1.106  0.0854  1.8100 -2.7317
  350MOL0     H46156   8.354   4.341   1.197  1.2662  4.2106 -0.5925
  350MOL0     H46157   8.200   4.286   1.135  1.7581 -1.2620  1.5333
  350MOL0     H46158   8.157   4.353   1.355 -0.2899 -2.1711 -2.1302
  350MOL0     H46159   8.254   4.500   1.346  0.8376 -0.4425 -2.3381
  350MOL0     H46160   7.994   4.443   1.188  0.4555  0.2502 -0.6431
  350MOL0     H46161   8.074   4.603   1.194 -0.4559 -0.6969 -0.9214
  350MOL0     H46162   7.812   4.555   1.141 -1.8408  3.2498 -1.7819
  350MOL0     H46163   7.575   4.620   1.129  1.1433  0.0112 -0.6569
  350MOL0     H46164   7.212   4.733   1.651 -0.5805 -2.3207  1.8221
  350MOL0     H46165   7.002   4.723   1.714  2.5994  1.0037 -0.7584
  350MOL0     H46166   6.754   4.791   1.658  0.8322 -0.1611 -1.4323
  350MOL0     H46167   6.734   4.632   1.737 -2.4908  0.0788 -0.4153
  350MOL0     H46168   6.529   4.752   1.557 -0.6304 -0.6341  0.3863
  350MOL0     H46169   6.517   4.717   1.731 -4.4707 -1.7629 -1.1486
  350MOL0     H46170   6.556   4.476   1.676 -1.9399 -0.2177 -0.5461
  350MOL0     H46171   6.555   4.517   1.506  1.2280 -0.1425 -0.0348
  350MOL0     H46172   6.331   4.591   1.704  3.1483 -1.0684  2.3298
  350MOL0     H46173   6.310   4.593   1.536 -0.5256  0.1993  0.2746
  350MOL0     H46174   6.326   4.357   1.726 -1.2378 -0.1272 -0.4989
  350MOL0     H46175   6.378   4.331   1.561  3.2542  1.3317  2.3050
  350MOL0     H46176   6.112   4.460   1.634 -1.5185  0.9544 -3.3612
  350MOL0     H46177   6.139   4.278   1.626 -3.0289 -0.3708 -3.8614
  350MOL0     H46178   6.219   4.457   1.388 -1.6247  2.8789  0.9048
  350MOL0     H46179   6.172   4.283   1.395  1.6405  0.7654  0.2405
  350MOL0     H46180   5.988   4.399   1.303  1.7784 -3.9158  0.1714
  350MOL0     H46181   5.978   4.510   1.452 -1.1381  0.0532  2.1878
  350MOL0     H46182   6.884   4.546   1.332  0.5384 -0.1431  0.8440
  350MOL0     H46183   7.125   4.551   1.273  1.3212  0.4748  0.7148
  350MOL0     H46184   7.579   4.616   1.565 -0.5804 -2.8368  0.2937
  350MOL0     H46185   7.805   4.581   1.571 -0.5737 -3.1127 -0.1641
  350MOL0     H46186   9.598   4.153   0.484  1.8491 -0.1496  0.8639
  350MOL0     H46187   9.790   4.166   0.311  0.7836  0.9615 -0.6780
  350MOL0     H46188  10.231   4.613   0.139 -3.0829  0.8456  0.3902
  350MOL0     H46189  10.383   4.552  -0.042 -1.2138  0.8292 -2.9120
  350MOL0     H46190  10.487   4.223  -0.074 -4.6087 -0.6699 -1.9336
  350MOL0     H46191  10.521   4.403  -0.072  1.2401  1.5083 -2.3451
  350MOL0     H46192  10.584   4.246  -0.323  0.4039 -0.4426  1.0422
  350MOL0     H46193  10.625   4.416  -0.274  3.4126 -0.2636 -1.2562
  350MOL0     H46194  10.745   4.152  -0.145 -2.6075 -0.7151  0.0783
  350MOL0     H46195  10.768   4.325  -0.095  3.0209 -2.6816 -0.1862
  350MOL0     H46196  10.961   4.235  -0.189 -0.6013  0.4137  1.6428
  350MOL0     H46197  10.861   4.181  -0.329  1.5627 -0.0266 -0.3673
  350MOL0     H46198  10.907   4.603  -0.407  0.6082  0.2285  1.2718
  350MOL0     H46199  10.159   4.206  -0.139  0.4074  3.7262 -4.0328
  350MOL0     H46200  10.013   4.241   0.049  0.6713 -0.0463 -0.9385
  351MOL0     O46201   0.144   2.177   8.393  0.1064  0.7282  0.0320
  351MOL0     C46202   0.056   2.177   8.311  0.4075  0.0842  0.0006
  351MOL0     O46203   0.084   2.148   8.182  0.2746 -0.2403  0.2500
  351MOL0     C46204   0.214   2.150   8.134 -0.1381 -0.1823 -1.2216
  351MOL0     C46205   0.324   2.225   8.184  0.0821 -0.3452 -0.1458
  351MOL0     C46206   0.445   2.210   8.117 -0.4103  0.0395  0.2460
  351MOL0     C46207   0.466   2.117   8.005 -0.3708 -0.8688 -0.0512
  351MOL0     O46208   0.584   2.077   7.947  0.2787  0.0079  0.3142
  351MOL0     C46209   0.694   2.161   7.977 -0.6102 -0.3397 -0.1304
  351MOL0     C46210   0.789   2.165   7.865  0.9782  0.3677 -0.3805
  351MOL0     C46211   0.855   2.032   7.835  0.2406 -0.1287 -0.6514
  351MOL0     C46212   0.971   2.051   7.738 -0.2964  0.5998 -0.8443
  351MOL0     C46213   1.033   1.907   7.701  0.3215  0.0559 -0.3766
  351MOL0     C46214   1.146   1.919   7.597 -0.2713  0.2851 -0.1272
  351MOL0     C46215   1.273   1.969   7.662  0.1004 -0.2426 -0.5657
  351MOL0     C46216   1.352   1.859   7.737  0.4619 -0.2251  0.7475
  351MOL0     N46217   1.479   1.908   7.784 -0.2747  0.3547 -0.0743
  351MOL0     C46218   1.489   2.003   7.883 -0.0396  0.7789 -0.4778
  351MOL0     C46219   1.624   2.025   7.900 -0.0422  0.1708  0.2101
  351MOL0     C46220   1.692   2.117   8.001  0.2385  0.2826  0.7680
  351MOL0     C46221   1.703   2.258   7.948 -0.2999 -0.4244 -0.3955
  351MOL0     C46222   1.741   2.359   8.063  0.4566 -0.2217  0.5587
  351MOL0     C46223   1.623   2.410   8.142 -0.4567  0.1593 -0.5556
  351MOL0     O46224   1.548   2.499   8.048 -0.1130 -0.0061 -0.4276
  351MOL0     C46225   1.439   2.569   8.097 -0.6395 -1.3156  0.9009
  351MOL0     C46226   1.410   2.567   8.234  1.0675  0.4036 -0.2281
  351MOL0     C46227   1.295   2.626   8.284  0.2226  0.0423 -0.2775
  351MOL0     C46228   1.202   2.684   8.200  1.3454  0.0831  0.1573
  351MOL0     C46229   1.078   2.742   8.244 -0.0484 -0.0658 -1.0346
  351MOL0     O46230   1.041   2.688   8.366  0.5149 -0.4727 -0.7307
  351MOL0     C46231   0.934   2.741   8.426 -0.2182  0.0408 -0.1261
  351MOL0     C46232   0.831   2.656   8.448 -0.0314 -0.1923 -0.2965
  351MOL0     C46233   0.711   2.703   8.502  0.7001  0.2243  0.1078
  351MOL0     C46234   0.687   2.839   8.550 -0.4813 -0.1591  1.2592
  351MOL0     O46235   0.579   2.881   8.619  0.1283  0.1831 -0.6160
  351MOL0     C46236   0.449   2.844   8.573  0.1488 -0.0165  0.1123
  351MOL0     C46237   0.343   2.880   8.680 -0.5149  0.0236 -0.8282
  351MOL0     C46238   0.203   2.861   8.625 -0.2661 -0.5454  0.4807
  351MOL0     C46239   0.104   2.921   8.730  0.0007 -0.0493  0.3102
  351MOL0     C46240  -0.039   2.867   8.706  0.4393 -0.3299 -0.3362
  351MOL0     C46241  -0.120   2.891   8.834  0.6913 -0.1497 -0.3320
  351MOL0     C46242  -0.267   2.832   8.822 -0.1321 -0.1791 -0.5376
  351MOL0     C46243  -0.356   2.830   8.952  0.0890 -0.1721 -0.0754
  351MOL0    Cl46244  -0.373   2.990   9.048 -0.2482 -0.2380  0.3802
  351MOL0     C46245   0.800   2.920   8.523 -0.3864 -0.0564 -0.3837
  351MOL0     C46246   0.921   2.878   8.453 -0.2112 -1.0240 -0.9746
  351MOL0     O46247   1.026   2.833   8.191 -0.5618 -0.2094  0.1743
  351MOL0     C46248   1.225   2.671   8.059  0.8877  0.2719  1.0141
  351MOL0     C46249   1.345   2.613   8.002  0.2393 -0.1983  0.2850
  351MOL0     N46250   1.689   1.941   7.814  0.2601  0.7371 -0.1499
  351MOL0     N46251   1.601   1.867   7.744 -0.1950 -0.3670 -0.8450
  351MOL0     C46252   0.362   2.045   7.967 -0.5390  0.1798  0.7831
  351MOL0     C46253   0.239   2.065   8.022  0.1617 -0.1703  0.0018
  351MOL0     C46254  -0.082   2.182   8.361 -0.3969 -0.3277  0.3683
  351MOL0     C46255  -0.109   2.147   8.490  0.0681  1.0569 -0.3090
  351MOL0     C46256  -0.235   2.156   8.547  0.1248  0.0392  0.1059
  351MOL0     C46257  -0.353   2.191   8.470 -0.1846  0.3841 -0.3200
  351MOL0     O46258  -0.482   2.171   8.526 -1.1220 -0.0258  0.4324
  351MOL0     C46259  -0.591   2.197   8.437 -0.0261  0.1778  0.2034
  351MOL0     C46260  -0.723   2.218   8.515  0.6461  0.0977 -0.3487
  351MOL0     C46261  -0.764   2.085   8.600 -0.1297  0.1996 -0.7935
  351MOL0     C46262  -0.869   2.113   8.705  0.4440  0.2814 -0.5715
  351MOL0     C46263  -0.989   2.138   8.624 -0.7907 -0.3169 -0.5312
  351MOL0     C46264  -1.088   2.146   8.555  0.7728  0.1518 -0.6563
  351MOL0     C46265  -0.323   2.222   8.334  0.1329  0.4652  0.0314
  351MOL0     C46266  -0.187   2.227   8.290 -0.2491 -0.1901 -0.4610
  351MOL0     H46267   0.316   2.295   8.266  1.0673  0.7291 -0.9475
  351MOL0     H46268   0.529   2.267   8.156 -2.1642  2.6700  0.4442
  351MOL0     H46269   0.753   2.133   8.065  1.9375  1.2640 -1.2109
  351MOL0     H46270   0.659   2.262   7.999 -0.1271  0.0076 -0.9331
  351MOL0     H46271   0.869   2.234   7.893 -0.1021  0.6891  2.2689
  351MOL0     H46272   0.746   2.204   7.773  0.1354 -2.3934 -1.2495
  351MOL0     H46273   0.784   1.957   7.798 -0.5183 -1.3787  2.9396
  351MOL0     H46274   0.899   1.982   7.921  1.6235 -0.0644 -1.2864
  351MOL0     H46275   0.930   2.096   7.647  0.2848 -0.9132 -1.8952
  351MOL0     H46276   1.047   2.119   7.776 -0.8853  0.2170  1.1532
  351MOL0     H46277   0.945   1.849   7.670 -0.6144  0.6716  1.0179
  351MOL0     H46278   1.079   1.861   7.788  0.0444  0.5960  0.0646
  351MOL0     H46279   1.112   1.996   7.527  2.2651  1.7832  0.1622
  351MOL0     H46280   1.170   1.826   7.546  3.4909  0.1982  1.4532
  351MOL0     H46281   1.327   2.012   7.578  1.7481  0.7665  0.9291
  351MOL0     H46282   1.250   2.055   7.726  1.2641  1.2943 -2.1189
  351MOL0     H46283   1.369   1.781   7.662 -1.6431  1.0081 -1.1501
  351MOL0     H46284   1.293   1.821   7.821  1.4867 -0.4951  1.3652
  351MOL0     H46285   1.407   2.046   7.941 -1.6575 -2.1625 -0.4057
  351MOL0     H46286   1.790   2.072   8.020 -0.2996 -0.5457  1.6754
  351MOL0     H46287   1.644   2.106   8.098  0.8392 -1.4044  0.9190
  351MOL0     H46288   1.612   2.291   7.898 -0.7678 -2.3060 -0.8672
  351MOL0     H46289   1.788   2.243   7.881  3.7629 -2.9369  4.5951
  351MOL0     H46290   1.810   2.312   8.134  1.4477 -0.7635 -0.7149
  351MOL0     H46291   1.801   2.434   8.010  0.9446 -1.7021 -1.0794
  351MOL0     H46292   1.664   2.472   8.222  0.2307 -3.0125  1.7322
  351MOL0     H46293   1.568   2.330   8.191 -0.0801  0.4877  0.4370
  351MOL0     H46294   1.478   2.521   8.304  2.2000  1.9212 -0.2763
  351MOL0     H46295   1.273   2.627   8.390  1.2989 -1.9178  0.0081
  351MOL0     H46296   0.852   2.557   8.410  1.6775  0.2328 -0.5066
  351MOL0     H46297   0.640   2.621   8.513  0.8411  0.1378  0.3579
  351MOL0     H46298   0.438   2.739   8.545  3.1277 -0.7345  1.3097
  351MOL0     H46299   0.424   2.904   8.485 -0.2428  0.8312  0.7853
  351MOL0     H46300   0.349   2.987   8.704 -3.9854  0.1630 -0.0941
  351MOL0     H46301   0.359   2.826   8.774  2.2897  1.8271 -0.1508
  351MOL0     H46302   0.184   2.754   8.611 -1.7847 -0.1490 -0.8466
  351MOL0     H46303   0.192   2.911   8.528 -0.6268  1.4828  1.5258
  351MOL0     H46304   0.138   2.903   8.832 -0.8221  1.0008  0.7905
  351MOL0     H46305   0.100   3.030   8.719  0.0118  0.2258  2.6166
  351MOL0     H46306  -0.043   2.763   8.671  2.8534 -0.1871 -1.2251
  351MOL0     H46307  -0.090   2.914   8.622  0.3426 -1.6537 -1.0519
  351MOL0     H46308  -0.126   2.998   8.854 -3.8819 -0.7940  4.0589
  351MOL0     H46309  -0.066   2.846   8.918 -0.0161  1.2675  0.9441
  351MOL0     H46310  -0.324   2.899   8.757 -4.1477 -0.9032  1.9115
  351MOL0     H46311  -0.259   2.727   8.791  0.6990 -1.6515  3.9014
  351MOL0     H46312  -0.310   2.751   9.013 -0.5719 -1.5036 -1.2341
  351MOL0     H46313  -0.458   2.796   8.930 -0.1852  0.1651  0.6493
  351MOL0     H46314   0.795   3.022   8.561 -0.8364 -0.0433 -0.4727
  351MOL0     H46315   1.000   2.946   8.425  0.2235 -1.4620 -0.8204
  351MOL0     H46316   1.160   2.704   7.979  2.0653 -1.1514 -0.6084
  351MOL0     H46317   1.375   2.613   7.898 -1.3905  1.4626 -0.2354
  351MOL0     H46318   0.361   1.977   7.884 -0.1982 -1.0155  1.7293
  351MOL0     H46319   0.156   2.010   7.978  0.3504  0.2550 -0.9182
  351MOL0     H46320  -0.027   2.120   8.557  1.9968  0.8345 -2.6432
  351MOL0     H46321  -0.247   2.130   8.652  0.5541  0.6116  0.3003
  351MOL0     H46322  -0.599   2.132   8.349 -1.6522  1.9800 -1.0851
  351MOL0     H46323  -0.571   2.297   8.397  1.7238  0.6535  2.1325
  351MOL0     H46324  -0.707   2.302   8.583 -0.8286  0.1564 -0.0392
  351MOL0     H46325  -0.806   2.249   8.452 -0.8609  1.3123  2.0651
  351MOL0     H46326  -0.684   2.038   8.656 -2.6813 -0.4268  2.6683
  351MOL0     H46327  -0.801   2.013   8.527 -1.0926 -1.1104  0.9104
  351MOL0     H46328  -0.889   2.028   8.771 -2.5217  0.2974 -1.3021
  351MOL0     H46329  -0.838   2.200   8.763 -2.0843 -0.2869  1.8311
  351MOL0     H46330  -1.172   2.168   8.492  0.6877 -0.3481 -0.7235
  351MOL0     H46331  -0.397   2.267   8.268 -1.3731  1.1697  2.0822
  351MOL0     H46332  -0.164   2.266   8.191 -2.8444 -0.1806 -1.1599
  352MOL0     O46333   2.429   5.388   3.356 -0.5103 -0.0670 -0.1410
  352MOL0     C46334   2.420   5.475   3.440  0.2725 -0.3356 -0.0442
  352MOL0     O46335   2.298   5.537   3.482  0.0506  0.3711  0.5192
  352MOL0     C46336   2.170   5.484   3.463  0.1353  0.2162  0.3225
  352MOL0     C46337   2.070   5.568   3.508  0.0193 -0.5928 -0.4154
  352MOL0     C46338   1.935   5.536   3.512  0.4888  0.2969  0.8154
  352MOL0     C46339   1.899   5.416   3.454 -0.1549 -0.2528  0.1128
  352MOL0     O46340   1.766   5.388   3.455  0.0354  0.0302 -0.1911
  352MOL0     C46341   1.708   5.261   3.392 -0.1265 -0.1633  0.5053
  352MOL0     C46342   1.558   5.277   3.371 -0.0681  0.8659  0.6815
  352MOL0     C46343   1.482   5.338   3.486  0.9217  0.1068  0.1563
  352MOL0     C46344   1.334   5.301   3.479 -0.1579  0.0661  0.9573
  352MOL0     C46345   1.244   5.404   3.551  0.2876 -0.1464  0.2160
  352MOL0     C46346   1.109   5.334   3.575 -0.1942 -0.4954  0.2351
  352MOL0     C46347   1.010   5.413   3.666  0.5568 -0.4117 -0.2777
  352MOL0     C46348   0.873   5.349   3.681  0.1990  0.3319  0.1459
  352MOL0     N46349   0.796   5.437   3.773 -0.3519  0.0628  0.2698
  352MOL0     C46350   0.717   5.540   3.730  0.6896  0.7426 -0.1535
  352MOL0     C46351   0.641   5.576   3.833 -0.1699  0.8845 -0.3075
  352MOL0     C46352   0.534   5.680   3.818 -0.4019  0.3596 -0.8242
  352MOL0     C46353   0.398   5.603   3.798 -0.0327 -0.8642  0.4376
  352MOL0     C46354   0.273   5.694   3.767  0.4030  0.5830 -0.1044
  352MOL0     C46355   0.215   5.730   3.901 -0.4813  0.1330  0.1790
  352MOL0     O46356   0.104   5.820   3.897  0.2144  0.1690  0.5237
  352MOL0     C46357  -0.021   5.764   3.884 -0.1385 -0.5210  0.5319
  352MOL0     C46358  -0.126   5.857   3.876 -0.2997  0.2459  1.2362
  352MOL0     C46359  -0.267   5.822   3.866  0.0664  0.3313  0.5480
  352MOL0     C46360  -0.299   5.685   3.847 -0.2392 -0.2459 -0.3248
  352MOL0     C46361  -0.439   5.643   3.844  0.3772 -0.2372 -0.0368
  352MOL0     O46362  -0.538   5.734   3.814  0.1150 -1.0136  0.4883
  352MOL0     C46363  -0.665   5.697   3.839  0.8380  0.7072  0.9086
  352MOL0     C46364  -0.713   5.673   3.972  0.4689  0.3197  0.0508
  352MOL0     C46365  -0.851   5.650   3.994  0.7567 -0.0041 -0.0836
  352MOL0     C46366  -0.943   5.647   3.886 -0.3318 -0.9773 -0.3338
  352MOL0     O46367  -1.073   5.623   3.921  0.3015  0.7098  0.0544
  352MOL0     C46368  -1.172   5.632   3.817 -0.2684 -0.6598 -0.1711
  352MOL0     C46369  -1.306   5.606   3.876 -0.7138 -0.7082 -0.2116
  352MOL0     C46370  -1.406   5.624   3.761  0.0549 -0.3835  0.5996
  352MOL0     C46371  -1.549   5.583   3.811  0.6313  0.2635 -0.1526
  352MOL0     C46372  -1.651   5.609   3.699 -0.2590  0.4784  0.2255
  352MOL0     C46373  -1.790   5.590   3.746  0.4430  0.4921  0.4549
  352MOL0     C46374  -1.908   5.616   3.648  0.0217  0.4088  0.0297
  352MOL0     C46375  -1.906   5.755   3.595  0.3259 -0.6189 -0.0045
  352MOL0    Cl46376  -1.823   5.762   3.440 -0.1439 -0.4553 -0.2518
  352MOL0     C46377  -0.892   5.660   3.754 -0.0658 -0.8207  0.2235
  352MOL0     C46378  -0.754   5.676   3.735  0.0360  0.2220  0.4681
  352MOL0     O46379  -0.463   5.530   3.880 -0.4154  0.0205  0.5610
  352MOL0     C46380  -0.192   5.596   3.851  0.9381 -0.0477 -0.2485
  352MOL0     C46381  -0.060   5.634   3.867 -0.3961  0.5937 -0.5716
  352MOL0     N46382   0.673   5.485   3.935 -0.8472  0.3831 -0.4712
  352MOL0     N46383   0.764   5.399   3.903 -0.4375  0.3205 -0.1931
  352MOL0     C46384   1.994   5.333   3.399  0.4702 -0.7009 -0.0633
  352MOL0     C46385   2.127   5.357   3.413 -0.1895 -0.2283 -0.7146
  352MOL0     C46386   2.549   5.534   3.490  0.0145  0.2707 -0.3213
  352MOL0     C46387   2.670   5.521   3.419 -0.0779  0.4490 -0.4721
  352MOL0     C46388   2.781   5.597   3.453 -0.5119 -0.1392  0.1499
  352MOL0     C46389   2.778   5.676   3.568 -0.6480  0.5498 -0.4199
  352MOL0     O46390   2.890   5.744   3.598  0.6711  0.3248  0.6023
  352MOL0     C46391   2.905   5.819   3.718  0.0306  0.0994  0.7573
  352MOL0     C46392   2.930   5.732   3.838 -0.0196  0.4278 -0.2831
  352MOL0     C46393   3.019   5.793   3.947  0.1656  0.6490 -0.4972
  352MOL0     C46394   3.169   5.820   3.910 -0.1634 -0.4037 -1.0675
  352MOL0     C46395   3.242   5.854   4.036 -1.0254  0.5992  0.7168
  352MOL0     C46396   3.287   5.905   4.135  0.2878 -0.4181 -0.8128
  352MOL0     C46397   2.664   5.682   3.650  0.4858  0.1693 -0.5684
  352MOL0     C46398   2.544   5.620   3.605  0.0738 -0.0390  0.5271
  352MOL0     H46399   2.121   5.661   3.532 -1.6974  0.1098  0.6400
  352MOL0     H46400   1.863   5.603   3.558  0.0131  0.7750 -0.5573
  352MOL0     H46401   1.734   5.182   3.462  2.5498  3.1890  3.6833
  352MOL0     H46402   1.749   5.235   3.293 -0.1500  2.6135 -0.3199
  352MOL0     H46403   1.523   5.179   3.336 -1.1953  1.6250 -0.4365
  352MOL0     H46404   1.541   5.340   3.283 -0.7727  1.9545  1.5691
  352MOL0     H46405   1.477   5.447   3.484  1.0997  0.2408  2.7144
  352MOL0     H46406   1.523   5.296   3.579 -2.0785 -0.9289  1.1312
  352MOL0     H46407   1.301   5.304   3.375 -0.8844  2.1644  1.1971
  352MOL0     H46408   1.321   5.208   3.535 -0.0693 -0.8267 -0.4565
  352MOL0     H46409   1.226   5.497   3.495  0.7474  0.7201  1.4819
  352MOL0     H46410   1.294   5.424   3.646  0.3604 -0.1714  0.1825
  352MOL0     H46411   1.125   5.248   3.640 -0.1279 -1.1663 -0.6525
  352MOL0     H46412   1.055   5.304   3.484 -1.5548 -0.3859  0.9841
  352MOL0     H46413   1.053   5.421   3.766 -0.2964  2.1897 -0.0465
  352MOL0     H46414   1.003   5.513   3.623  2.3584  0.3837  1.1531
  352MOL0     H46415   0.880   5.243   3.707  0.5077  0.4899  0.7113
  352MOL0     H46416   0.829   5.347   3.581 -2.9573 -1.7631  1.4169
  352MOL0     H46417   0.713   5.587   3.632  0.5699  2.1227  0.4899
  352MOL0     H46418   0.564   5.760   3.750 -1.9813  1.2800 -0.4721
  352MOL0     H46419   0.530   5.742   3.908  1.1428  2.0737 -1.8619
  352MOL0     H46420   0.373   5.534   3.879 -0.6260 -2.2768 -0.8921
  352MOL0     H46421   0.415   5.541   3.709  1.9212 -0.4461  0.4790
  352MOL0     H46422   0.319   5.780   3.717  2.4905 -0.3212  0.1427
  352MOL0     H46423   0.195   5.646   3.707  1.6813  1.5622 -2.6781
  352MOL0     H46424   0.292   5.769   3.968  0.9826 -1.8081 -0.2898
  352MOL0     H46425   0.192   5.633   3.945  0.1222 -0.5588 -0.9747
  352MOL0     H46426  -0.111   5.963   3.894 -0.2312  0.1169  1.9665
  352MOL0     H46427  -0.342   5.899   3.859  0.3486  0.5903  0.3218
  352MOL0     H46428  -0.658   5.681   4.065 -0.6415 -0.2784  0.7756
  352MOL0     H46429  -0.885   5.633   4.096 -1.2964  2.2670 -0.3092
  352MOL0     H46430  -1.153   5.557   3.739 -0.9949  0.0593 -1.0590
  352MOL0     H46431  -1.168   5.734   3.777 -1.4083 -0.0659  1.1620
  352MOL0     H46432  -1.327   5.674   3.959 -0.6569  0.0091 -0.7772
  352MOL0     H46433  -1.305   5.500   3.904 -1.5720 -0.7668 -0.3680
  352MOL0     H46434  -1.381   5.558   3.677 -2.7746 -1.3460  0.3946
  352MOL0     H46435  -1.412   5.726   3.723 -1.2575 -1.0226 -1.0277
  352MOL0     H46436  -1.539   5.476   3.833 -0.9184 -0.3885 -2.3173
  352MOL0     H46437  -1.570   5.633   3.907  3.9641 -0.9636  1.3752
  352MOL0     H46438  -1.615   5.548   3.616  1.8673  0.9581  0.7394
  352MOL0     H46439  -1.633   5.710   3.662  0.1801 -0.2748 -1.7824
  352MOL0     H46440  -1.804   5.661   3.828 -2.5023 -1.6343  1.9642
  352MOL0     H46441  -1.797   5.488   3.785  2.0335 -0.9995 -2.7662
  352MOL0     H46442  -1.892   5.539   3.572 -1.0990 -0.8856  1.0531
  352MOL0     H46443  -2.004   5.599   3.698 -0.3545 -0.3409 -0.9209
  352MOL0     H46444  -1.859   5.830   3.659  1.6928 -0.1454 -1.4750
  352MOL0     H46445  -2.013   5.778   3.588  0.4055 -0.0342  0.6953
  352MOL0     H46446  -0.950   5.655   3.662 -2.2288  0.5860  1.4286
  352MOL0     H46447  -0.720   5.693   3.634  1.2690  1.7249  1.0967
  352MOL0     H46448  -0.223   5.492   3.853  5.3683 -1.6411 -2.2196
  352MOL0     H46449   0.009   5.551   3.867 -1.2096 -0.1748  2.0134
  352MOL0     H46450   1.959   5.246   3.345 -0.3496  1.6574 -3.7592
  352MOL0     H46451   2.209   5.291   3.390 -0.5309 -1.8659  2.2612
  352MOL0     H46452   2.686   5.456   3.334  2.2487 -1.3815  1.2433
  352MOL0     H46453   2.862   5.594   3.381 -1.1430  0.3797 -0.5874
  352MOL0     H46454   2.820   5.881   3.750 -2.5660 -2.9979  0.3330
  352MOL0     H46455   2.986   5.892   3.707 -0.3501  0.7153  1.8142
  352MOL0     H46456   2.833   5.717   3.886  1.0812  1.6073  2.4799
  352MOL0     H46457   2.965   5.631   3.814 -2.2296 -0.9664  1.7963
  352MOL0     H46458   3.018   5.725   4.033 -0.6876  0.0065 -0.9899
  352MOL0     H46459   2.962   5.884   3.969 -0.1227  0.6031 -1.0277
  352MOL0     H46460   3.226   5.737   3.866  0.4541 -1.6869  1.9114
  352MOL0     H46461   3.175   5.904   3.840  3.2585 -0.6732 -1.2712
  352MOL0     H46462   3.326   5.970   4.211  3.1557 -0.2072 -2.3213
  352MOL0     H46463   2.653   5.733   3.745  1.9396 -2.1755  0.9794
  352MOL0     H46464   2.456   5.628   3.667  0.9771 -1.1936  2.0260
  353MOL0     O46465   7.894   9.572   9.228  0.0314 -0.1070 -0.3764
  353MOL0     C46466   7.939   9.687   9.210 -0.4800  1.2804 -0.4984
  353MOL0     O46467   7.874   9.808   9.240  0.9591 -0.9334  0.2730
  353MOL0     C46468   7.753   9.792   9.294  0.1152  0.0072 -0.2020
  353MOL0     C46469   7.732   9.815   9.433 -0.3529 -0.3053  0.1198
  353MOL0     C46470   7.603   9.794   9.487 -0.9398  0.2128 -0.5820
  353MOL0     C46471   7.496   9.761   9.412  0.3079  0.4327 -0.3625
  353MOL0     O46472   7.370   9.750   9.454  0.0568  0.1824  0.7077
  353MOL0     C46473   7.355   9.689   9.579  0.8305  0.4449 -1.0025
  353MOL0     C46474   7.251   9.575   9.558 -0.1370 -0.0373 -0.0233
  353MOL0     C46475   7.110   9.620   9.511 -0.3171 -0.2070  0.5634
  353MOL0     C46476   7.010   9.504   9.519  0.7645 -0.0705 -0.1151
  353MOL0     C46477   6.874   9.542   9.450 -0.2748  0.5902 -0.0641
  353MOL0     C46478   6.773   9.434   9.486  0.6453  0.9709  0.9453
  353MOL0     C46479   6.638   9.449   9.419  0.6703  0.3799 -0.1277
  353MOL0     C46480   6.545   9.329   9.420  0.3644 -0.2770 -0.0353
  353MOL0     N46481   6.411   9.362   9.370 -0.3314  0.1674  0.3152
  353MOL0     C46482   6.359   9.313   9.260  0.2230 -0.3353 -0.3611
  353MOL0     C46483   6.245   9.385   9.245  0.4263 -1.0147 -0.0142
  353MOL0     C46484   6.156   9.377   9.125  0.0060 -0.7530  1.0927
  353MOL0     C46485   6.007   9.361   9.170  0.0769  0.2411  0.5773
  353MOL0     C46486   5.923   9.324   9.051  0.2447 -0.1083  0.8833
  353MOL0     C46487   5.771   9.337   9.068 -0.1372 -0.5955 -0.3081
  353MOL0     O46488   5.696   9.299   8.951  0.0328  0.0953  0.1941
  353MOL0     C46489   5.563   9.316   8.932  0.1925 -0.9278  0.3211
  353MOL0     C46490   5.513   9.296   8.806 -0.5858  1.2600  0.2408
  353MOL0     C46491   5.379   9.311   8.778  0.5557 -0.4052  0.3101
  353MOL0     C46492   5.289   9.349   8.872  0.6502  0.2380 -0.1049
  353MOL0     C46493   5.149   9.366   8.842  1.2499 -0.4984  0.0470
  353MOL0     O46494   5.100   9.358   8.716  0.2710 -0.0872 -0.2052
  353MOL0     C46495   4.962   9.361   8.690  0.4397  0.2881 -0.5604
  353MOL0     C46496   4.884   9.286   8.772  0.5729 -0.3729  0.1279
  353MOL0     C46497   4.744   9.298   8.768 -0.2019  0.1198 -0.2248
  353MOL0     C46498   4.686   9.361   8.658  0.1770  0.3642  0.8523
  353MOL0     O46499   4.548   9.378   8.646 -0.1001  0.8020 -0.6335
  353MOL0     C46500   4.455   9.312   8.736 -0.3105  0.0547 -0.7808
  353MOL0     C46501   4.306   9.343   8.701 -0.3011  0.3850  0.3210
  353MOL0     C46502   4.284   9.325   8.559  0.3112  0.4362 -0.3238
  353MOL0     C46503   4.134   9.317   8.514 -0.3207  0.7713  0.1323
  353MOL0     C46504   4.090   9.176   8.478 -0.8897  0.5082 -0.3815
  353MOL0     C46505   4.081   9.071   8.587 -0.3257  0.1362 -0.2436
  353MOL0     C46506   4.046   8.930   8.523 -0.7309 -0.2835 -0.8819
  353MOL0     C46507   3.989   8.838   8.634 -0.4438  0.1268 -0.3574
  353MOL0    Cl46508   4.099   8.824   8.773  0.2350  0.5708  0.1380
  353MOL0     C46509   4.767   9.427   8.562  0.1954 -0.1719 -0.8164
  353MOL0     C46510   4.904   9.432   8.586  0.0426 -0.0425 -0.6014
  353MOL0     O46511   5.078   9.385   8.941 -0.2007 -0.0609  0.5188
  353MOL0     C46512   5.340   9.380   9.000 -0.8075 -0.3672  0.3944
  353MOL0     C46513   5.478   9.367   9.035  0.4509 -0.3402  0.5562
  353MOL0     N46514   6.233   9.468   9.360  0.2280 -0.2112 -0.5799
  353MOL0     N46515   6.335   9.444   9.436  0.0936  0.0464  0.3784
  353MOL0     C46516   7.518   9.735   9.278  0.2140  0.3826  0.5296
  353MOL0     C46517   7.638   9.758   9.214 -0.5432  0.6312  0.5562
  353MOL0     C46518   8.069   9.692   9.147 -0.4716  0.0788 -0.5862
  353MOL0     C46519   8.147   9.576   9.114  0.8684  0.7160 -0.1603
  353MOL0     C46520   8.274   9.570   9.048 -0.0461 -0.6261 -1.1429
  353MOL0     C46521   8.333   9.695   9.042 -0.0258  0.5738  0.4168
  353MOL0     O46522   8.464   9.708   9.006  0.0662 -0.5970  0.1417
  353MOL0     C46523   8.524   9.620   8.913  0.1307 -0.3106 -0.3036
  353MOL0     C46524   8.652   9.686   8.859  0.4287 -0.2505  0.4555
  353MOL0     C46525   8.615   9.800   8.759  0.4743 -1.2480  0.3395
  353MOL0     C46526   8.523   9.757   8.638 -0.0674 -0.2012  1.3046
  353MOL0     C46527   8.515   9.864   8.532 -0.2164 -0.4659  0.1831
  353MOL0     C46528   8.500   9.946   8.442 -0.1680 -0.6676 -0.4568
  353MOL0     C46529   8.269   9.807   9.086  0.3810  0.2472  0.0355
  353MOL0     C46530   8.137   9.809   9.130 -0.3217 -0.0728  0.0540
  353MOL0     H46531   7.814   9.844   9.498 -1.7100  1.9707  0.9361
  353MOL0     H46532   7.591   9.804   9.594  0.3964  1.3209 -0.5102
  353MOL0     H46533   7.332   9.758   9.660  1.5121  1.0181 -1.2845
  353MOL0     H46534   7.445   9.634   9.608  0.2719  1.0091  2.1201
  353MOL0     H46535   7.237   9.528   9.655  1.1109  2.1623  1.3131
  353MOL0     H46536   7.290   9.494   9.496 -0.8051 -0.7970  0.5323
  353MOL0     H46537   7.119   9.656   9.408 -0.3291 -1.2115  0.1994
  353MOL0     H46538   7.074   9.700   9.576  2.3410  1.0061  0.6487
  353MOL0     H46539   7.053   9.416   9.469 -3.1633 -3.4469  1.8611
  353MOL0     H46540   7.006   9.484   9.626  3.0529  0.1541  0.0644
  353MOL0     H46541   6.876   9.553   9.341 -1.5311 -1.5747 -0.3554
  353MOL0     H46542   6.839   9.638   9.489  1.0353  1.5089 -1.0657
  353MOL0     H46543   6.750   9.440   9.593 -2.6628 -2.6589  0.6366
  353MOL0     H46544   6.810   9.334   9.463 -0.9723  0.7828 -1.0224
  353MOL0     H46545   6.593   9.543   9.454  3.2990  1.0139  1.8307
  353MOL0     H46546   6.669   9.453   9.314 -1.3828  1.4979 -0.7612
  353MOL0     H46547   6.526   9.294   9.521  1.9745 -0.8311  0.1031
  353MOL0     H46548   6.598   9.248   9.369 -1.2569 -1.0344 -0.5929
  353MOL0     H46549   6.398   9.234   9.196  1.4231 -0.0704  0.0079
  353MOL0     H46550   6.187   9.289   9.068 -0.5501  0.3349 -0.9730
  353MOL0     H46551   6.181   9.460   9.059 -0.3935 -2.1077 -0.8439
  353MOL0     H46552   5.969   9.444   9.230 -0.1812 -0.5572  1.5531
  353MOL0     H46553   5.999   9.272   9.233  0.1048 -0.2719 -0.1323
  353MOL0     H46554   5.937   9.388   8.964  0.4145 -2.3505 -0.8371
  353MOL0     H46555   5.948   9.222   9.020  0.3556  0.2368 -0.2021
  353MOL0     H46556   5.752   9.442   9.092  0.2877 -0.5698 -0.0791
  353MOL0     H46557   5.735   9.273   9.149 -3.7390  0.9042 -0.5006
  353MOL0     H46558   5.593   9.264   8.740  0.6381  0.1398  2.1481
  353MOL0     H46559   5.351   9.307   8.673 -0.9872  0.8006  0.6323
  353MOL0     H46560   4.928   9.212   8.838 -0.4361 -0.0790  1.1938
  353MOL0     H46561   4.684   9.238   8.835  2.3782  0.3569  2.5052
  353MOL0     H46562   4.474   9.349   8.837  0.2316 -0.0370 -0.8467
  353MOL0     H46563   4.474   9.205   8.722  1.4277  0.1271  0.7882
  353MOL0     H46564   4.282   9.446   8.731 -2.5641 -0.3730  1.3606
  353MOL0     H46565   4.254   9.270   8.764  0.7056 -0.3898  0.2814
  353MOL0     H46566   4.345   9.242   8.520  0.0960  0.1190  0.0097
  353MOL0     H46567   4.324   9.420   8.523 -1.1645  1.4288  0.5796
  353MOL0     H46568   4.075   9.364   8.594 -1.3020 -1.0830  0.5672
  353MOL0     H46569   4.136   9.360   8.413  1.7743 -1.9774 -1.1231
  353MOL0     H46570   4.148   9.137   8.394 -1.8024 -0.1496 -0.7181
  353MOL0     H46571   3.986   9.192   8.447 -1.5642 -1.3192  0.8295
  353MOL0     H46572   4.018   9.097   8.672 -0.5538 -0.4684 -0.2216
  353MOL0     H46573   4.181   9.066   8.632 -1.1648  0.2887  1.7573
  353MOL0     H46574   3.969   8.929   8.445 -1.1520  0.0909 -0.4781
  353MOL0     H46575   4.140   8.887   8.487 -0.9106 -3.5667  1.9655
  353MOL0     H46576   3.982   8.733   8.602 -0.4806 -0.2175  0.7140
  353MOL0     H46577   3.888   8.875   8.655 -0.0509  1.5579 -0.9066
  353MOL0     H46578   4.726   9.487   8.481  0.5191  0.5171 -0.4715
  353MOL0     H46579   4.972   9.486   8.520  0.4513 -0.7154 -0.7322
  353MOL0     H46580   5.288   9.433   9.079  2.9942  0.8812  2.2952
  353MOL0     H46581   5.515   9.399   9.132 -2.1190  0.6178  1.2964
  353MOL0     H46582   7.439   9.707   9.210  1.1456 -0.6002 -0.1765
  353MOL0     H46583   7.645   9.745   9.107  1.4255  1.6727  0.5033
  353MOL0     H46584   8.095   9.481   9.124 -0.2883  0.7404 -4.2292
  353MOL0     H46585   8.315   9.480   9.004  1.0726 -1.7106  1.8246
  353MOL0     H46586   8.463   9.589   8.828 -1.3120  2.3134 -0.3222
  353MOL0     H46587   8.540   9.530   8.973 -2.5891 -1.0889 -0.6111
  353MOL0     H46588   8.715   9.735   8.934  1.0560  0.3774 -0.4664
  353MOL0     H46589   8.706   9.609   8.803  0.5625 -0.2500  0.5844
  353MOL0     H46590   8.703   9.838   8.707 -0.6668  0.0833 -0.7038
  353MOL0     H46591   8.560   9.881   8.807 -2.1477 -1.1057 -2.5662
  353MOL0     H46592   8.571   9.674   8.585  2.8336  1.7193  0.6523
  353MOL0     H46593   8.423   9.731   8.673  0.1715  0.5173  2.5689
  353MOL0     H46594   8.495  10.015   8.360  1.7924 -0.9938 -0.8997
  353MOL0     H46595   8.321   9.902   9.079  0.8071  0.3825  3.2269
  353MOL0     H46596   8.097   9.908   9.152 -0.5392  0.0577 -0.8834
  354MOL0     O46597   0.818   7.230   3.861  0.0232  0.3182  0.3704
  354MOL0     C46598   0.871   7.243   3.970 -0.2803 -0.3277 -0.6415
  354MOL0     O46599   0.819   7.200   4.090  0.6892 -0.2504  0.3176
  354MOL0     C46600   0.678   7.205   4.101 -1.0460  0.5194 -0.7514
  354MOL0     C46601   0.590   7.290   4.033 -0.0367  0.6320 -0.0249
  354MOL0     C46602   0.449   7.279   4.044  0.4474  0.8490  0.6559
  354MOL0     C46603   0.396   7.179   4.126 -0.6417  0.5569  0.1847
  354MOL0     O46604   0.266   7.154   4.151 -0.3697 -0.9424 -0.1705
  354MOL0     C46605   0.156   7.195   4.051  0.5403  0.0629 -0.0395
  354MOL0     C46606   0.030   7.110   4.088 -0.5538  0.2477  0.2750
  354MOL0     C46607  -0.028   7.150   4.223 -0.6475  0.2918 -0.2949
  354MOL0     C46608  -0.146   7.061   4.270 -0.1472 -0.0342 -0.8614
  354MOL0     C46609  -0.222   7.126   4.394 -0.9034 -0.0731 -0.3435
  354MOL0     C46610  -0.355   7.065   4.419 -0.3415  0.0654  0.7622
  354MOL0     C46611  -0.419   7.135   4.538  0.5348 -0.1219 -1.2638
  354MOL0     C46612  -0.555   7.194   4.505  0.6705 -0.3322 -0.2072
  354MOL0     N46613  -0.628   7.235   4.629 -0.0718 -0.6875 -0.0219
  354MOL0     C46614  -0.741   7.180   4.680 -0.2818  0.2071  0.4056
  354MOL0     C46615  -0.765   7.251   4.796 -0.0637  0.1363  0.5666
  354MOL0     C46616  -0.881   7.235   4.893 -0.8942 -1.0679  0.4876
  354MOL0     C46617  -1.008   7.275   4.822  0.5472 -0.7375 -0.2501
  354MOL0     C46618  -1.079   7.181   4.721  1.4733 -0.0463  0.0843
  354MOL0     C46619  -1.112   7.039   4.769 -0.3177 -0.0017 -0.2853
  354MOL0     O46620  -1.228   6.979   4.701  0.4085  0.0863 -0.7433
  354MOL0     C46621  -1.349   7.010   4.767  0.1106 -0.0857  0.1256
  354MOL0     C46622  -1.371   7.106   4.867 -0.2839 -0.2594 -0.2005
  354MOL0     C46623  -1.493   7.120   4.923  0.3390  0.1276  0.9086
  354MOL0     C46624  -1.611   7.060   4.871 -0.2441  0.2331 -0.8600
  354MOL0     C46625  -1.742   7.087   4.927  0.0532  0.1413  0.8601
  354MOL0     O46626  -1.752   7.168   5.040  0.0103 -0.1751  0.3609
  354MOL0     C46627  -1.866   7.196   5.106  0.1475  0.3690 -0.5109
  354MOL0     C46628  -1.978   7.113   5.090 -0.0740  0.1211 -0.2815
  354MOL0     C46629  -2.098   7.146   5.155  0.2235  0.2507 -1.5111
  354MOL0     C46630  -2.109   7.261   5.241  0.4901  1.0282  0.7634
  354MOL0     O46631  -2.226   7.295   5.305 -0.0353 -0.0552 -0.5445
  354MOL0     C46632  -2.345   7.229   5.262  0.1974  0.2992 -0.0402
  354MOL0     C46633  -2.467   7.279   5.337 -0.0838 -0.2648 -0.3497
  354MOL0     C46634  -2.596   7.209   5.288 -0.3591 -0.2170  0.4124
  354MOL0     C46635  -2.717   7.274   5.364 -0.1157 -0.4098  0.0808
  354MOL0     C46636  -2.851   7.225   5.325  0.1239  0.0079 -0.2738
  354MOL0     C46637  -2.889   7.221   5.171  0.4635 -0.7644 -0.2656
  354MOL0     C46638  -3.024   7.168   5.128  0.1370  0.0690 -0.7266
  354MOL0     C46639  -3.142   7.257   5.146 -0.6462  0.4893 -0.6000
  354MOL0    Cl46640  -3.281   7.186   5.075 -0.1638 -0.0140  0.0846
  354MOL0     C46641  -1.991   7.329   5.272  0.9742 -0.0894 -0.2015
  354MOL0     C46642  -1.872   7.301   5.199 -0.0489  0.2595 -0.2302
  354MOL0     O46643  -1.837   7.051   4.859 -0.2058  0.9462  0.4781
  354MOL0     C46644  -1.587   6.962   4.775  0.1109  0.3547 -0.2125
  354MOL0     C46645  -1.457   6.942   4.725 -0.8338 -0.8023  0.8830
  354MOL0     N46646  -0.671   7.354   4.805 -0.1959  0.3935  0.0540
  354MOL0     N46647  -0.579   7.331   4.707  0.5166 -0.7040 -0.0658
  354MOL0     C46648   0.481   7.099   4.201 -0.1775  0.1138  0.2208
  354MOL0     C46649   0.615   7.107   4.186 -0.4140 -0.4438  0.4074
  354MOL0     C46650   1.024   7.250   3.953  0.6554  0.1336  0.0156
  354MOL0     C46651   1.081   7.232   3.822 -0.6122 -0.0721 -0.9200
  354MOL0     C46652   1.222   7.224   3.812  0.1041  0.3575  0.0891
  354MOL0     C46653   1.302   7.241   3.925 -0.0990  0.0354 -0.0843
  354MOL0     O46654   1.438   7.220   3.911  0.2273  0.1288 -0.5866
  354MOL0     C46655   1.532   7.278   4.004  0.1570  0.0760  0.4492
  354MOL0     C46656   1.679   7.260   3.979 -0.0052  0.7153 -0.3026
  354MOL0     C46657   1.768   7.334   4.083 -0.3022 -0.2958  0.0016
  354MOL0     C46658   1.763   7.258   4.228  0.7636 -0.4932 -0.0967
  354MOL0     C46659   1.869   7.304   4.312  0.1301  0.1728 -0.9774
  354MOL0     C46660   1.958   7.345   4.385  0.3622 -0.4074  0.6710
  354MOL0     C46661   1.237   7.259   4.044 -0.7096 -0.3470  0.0367
  354MOL0     C46662   1.099   7.263   4.065  0.9797  0.2648  0.4418
  354MOL0     H46663   0.637   7.356   3.962 -0.2760  1.3716  0.4890
  354MOL0     H46664   0.393   7.354   3.991  1.2986  2.2668  1.6763
  354MOL0     H46665   0.187   7.175   3.948  2.5695 -3.8838  1.1474
  354MOL0     H46666   0.139   7.303   4.063  2.7929  0.4088  0.4454
  354MOL0     H46667   0.048   7.002   4.079  0.7261  0.6454 -4.1383
  354MOL0     H46668  -0.044   7.139   4.014  2.4259  1.4832 -2.4662
  354MOL0     H46669  -0.058   7.253   4.205  3.8559  1.5304 -2.1266
  354MOL0     H46670   0.055   7.149   4.295 -0.3975 -2.6876 -0.4810
  354MOL0     H46671  -0.209   7.051   4.181  0.1088  0.4509 -1.0999
  354MOL0     H46672  -0.110   6.962   4.301 -1.4561  0.1333  1.3452
  354MOL0     H46673  -0.244   7.232   4.374  0.5866  0.4889  0.8381
  354MOL0     H46674  -0.164   7.118   4.486 -0.0036 -2.8322 -1.0703
  354MOL0     H46675  -0.347   6.958   4.440 -2.5609 -0.1614  0.6834
  354MOL0     H46676  -0.416   7.078   4.329 -0.5316  0.7466  0.9811
  354MOL0     H46677  -0.430   7.065   4.622 -0.4162 -0.7346 -1.8755
  354MOL0     H46678  -0.361   7.218   4.578 -2.0861  0.7954  0.9251
  354MOL0     H46679  -0.612   7.122   4.444  0.4418  0.1844 -0.6087
  354MOL0     H46680  -0.531   7.279   4.441 -2.2045  0.8832  0.1674
  354MOL0     H46681  -0.800   7.101   4.635 -0.8093  1.9230 -2.0882
  354MOL0     H46682  -0.864   7.306   4.974 -2.6551  2.3994 -1.9273
  354MOL0     H46683  -0.894   7.132   4.929 -2.4879 -1.2717 -0.5809
  354MOL0     H46684  -0.998   7.378   4.786  0.4288 -0.4583  0.4973
  354MOL0     H46685  -1.077   7.289   4.906  1.2718  1.6213  0.0032
  354MOL0     H46686  -1.174   7.225   4.691  0.2909 -3.6067 -2.1624
  354MOL0     H46687  -1.022   7.175   4.628 -1.1998 -0.6467 -1.6530
  354MOL0     H46688  -1.117   7.033   4.878  0.7151  3.2154  0.0458
  354MOL0     H46689  -1.020   6.984   4.748 -0.0165  0.4542 -0.1792
  354MOL0     H46690  -1.293   7.167   4.911 -2.4457  2.4135  0.1816
  354MOL0     H46691  -1.504   7.200   4.995  0.8071  0.6645  0.3971
  354MOL0     H46692  -1.963   7.018   5.039  3.3725  0.8571 -0.9106
  354MOL0     H46693  -2.176   7.074   5.136  0.0456 -0.4258  1.3768
  354MOL0     H46694  -2.343   7.122   5.283 -0.4595  0.2338 -0.2659
  354MOL0     H46695  -2.357   7.232   5.153  0.8586 -4.8817 -0.5367
  354MOL0     H46696  -2.483   7.387   5.327 -2.2250 -0.1412  2.7936
  354MOL0     H46697  -2.457   7.271   5.446 -1.9227  2.9350  0.1917
  354MOL0     H46698  -2.595   7.101   5.304 -2.1655 -0.2656  0.3686
  354MOL0     H46699  -2.594   7.224   5.180  0.7949  0.5478  0.5187
  354MOL0     H46700  -2.701   7.247   5.469 -1.1389 -0.9223  0.1119
  354MOL0     H46701  -2.731   7.381   5.348 -0.9258 -0.4405  0.5359
  354MOL0     H46702  -2.929   7.278   5.379  0.5464  1.0884 -0.7039
  354MOL0     H46703  -2.858   7.123   5.364  2.2611 -1.1802 -2.6741
  354MOL0     H46704  -2.807   7.171   5.118 -0.2327  1.3219 -3.5969
  354MOL0     H46705  -2.890   7.322   5.129 -2.3223 -0.8855 -0.6933
  354MOL0     H46706  -3.015   7.134   5.025 -1.9082 -0.3724 -0.8058
  354MOL0     H46707  -3.033   7.079   5.191 -1.2465  0.3374 -0.5127
  354MOL0     H46708  -3.122   7.353   5.098  0.8775  0.2756 -0.4306
  354MOL0     H46709  -3.151   7.276   5.254 -0.7341 -0.2072 -0.4814
  354MOL0     H46710  -1.983   7.403   5.351 -0.5509 -1.4453  1.2824
  354MOL0     H46711  -1.781   7.360   5.204 -0.0125  0.3892 -1.7536
  354MOL0     H46712  -1.670   6.916   4.722  0.9557  0.6246 -1.8196
  354MOL0     H46713  -1.429   6.872   4.646  5.1281  1.6439  0.3612
  354MOL0     H46714   0.446   7.030   4.277  0.7760 -2.0989 -1.2741
  354MOL0     H46715   0.677   7.038   4.243 -1.3199 -1.2334  0.4533
  354MOL0     H46716   1.018   7.223   3.734  1.2287 -0.5037 -2.2696
  354MOL0     H46717   1.273   7.214   3.716 -1.8196 -0.6746 -0.8845
  354MOL0     H46718   1.515   7.229   4.101 -3.1737  1.6345  0.8002
  354MOL0     H46719   1.512   7.385   4.001  4.8665  1.2004  0.9474
  354MOL0     H46720   1.706   7.154   3.979  0.9613  0.9475  0.3496
  354MOL0     H46721   1.695   7.299   3.878  0.5568  2.1726  0.3207
  354MOL0     H46722   1.736   7.436   4.104  0.3130  0.9350 -4.1405
  354MOL0     H46723   1.869   7.338   4.041 -1.2744  0.1107 -2.4703
  354MOL0     H46724   1.671   7.249   4.286  1.2321 -4.5757  0.3086
  354MOL0     H46725   1.798   7.157   4.206  1.2542 -0.3016 -0.2308
  354MOL0     H46726   2.033   7.380   4.453  0.0724 -0.5845  1.0888
  354MOL0     H46727   1.286   7.273   4.140 -1.8968  1.8202  0.3949
  354MOL0     H46728   1.057   7.270   4.165  0.7101  1.0807  0.2807
  355MOL0     O46729   2.016   5.022   0.557 -0.4489  0.0890 -0.0717
  355MOL0     C46730   2.054   5.057   0.445  0.3861  0.0390 -0.8763
  355MOL0     O46731   1.983   5.103   0.344 -0.2384 -0.2536 -0.4545
  355MOL0     C46732   1.845   5.076   0.339  0.3367  0.2269 -0.6690
  355MOL0     C46733   1.755   5.075   0.447 -0.5587  0.0931 -0.3811
  355MOL0     C46734   1.621   5.033   0.426 -0.9144  0.0579 -0.2730
  355MOL0     C46735   1.574   5.019   0.298 -0.1980  0.9581  0.3102
  355MOL0     O46736   1.440   5.010   0.274  0.0357  0.8060  0.0699
  355MOL0     C46737   1.369   4.930   0.366 -0.1592 -0.0128 -0.1285
  355MOL0     C46738   1.256   4.859   0.280 -0.1020 -0.6778 -0.0126
  355MOL0     C46739   1.166   4.779   0.375 -0.1618  0.0427 -0.1566
  355MOL0     C46740   1.042   4.730   0.287 -0.4721 -0.6254 -0.0210
  355MOL0     C46741   0.933   4.846   0.289 -0.1748  0.0934 -0.4653
  355MOL0     C46742   0.798   4.798   0.238 -0.3211 -0.1991 -0.3199
  355MOL0     C46743   0.692   4.902   0.246 -0.8038  0.1354 -0.2624
  355MOL0     C46744   0.681   4.983   0.112  0.7294  0.2228  0.2326
  355MOL0     N46745   0.656   4.912  -0.013  0.0695  0.1872 -0.5896
  355MOL0     C46746   0.544   4.840  -0.044  1.1741 -0.3394 -0.0253
  355MOL0     C46747   0.547   4.817  -0.178 -0.3337  0.1450 -0.2822
  355MOL0     C46748   0.438   4.755  -0.252  0.0859 -0.4690 -0.1549
  355MOL0     C46749   0.320   4.851  -0.276 -0.6020 -0.3812  0.2565
  355MOL0     C46750   0.362   4.956  -0.381 -0.4040  0.2201  0.1344
  355MOL0     C46751   0.253   5.055  -0.416 -0.4844 -0.1295 -0.6463
  355MOL0     O46752   0.156   4.990  -0.502  0.0427 -0.3097 -0.0325
  355MOL0     C46753   0.030   5.017  -0.451 -0.2869 -0.1641  0.4881
  355MOL0     C46754  -0.031   5.140  -0.487 -0.3479 -0.0808 -0.3039
  355MOL0     C46755  -0.158   5.171  -0.441  0.4445 -0.5401  0.0516
  355MOL0     C46756  -0.219   5.075  -0.350  1.2366  0.6022  0.2604
  355MOL0     C46757  -0.353   5.108  -0.297 -0.9122  0.5542  0.4515
  355MOL0     O46758  -0.421   5.195  -0.364 -0.4101 -0.1852  0.2933
  355MOL0     C46759  -0.549   5.227  -0.335  0.1190  0.9016 -0.1628
  355MOL0     C46760  -0.593   5.243  -0.206 -0.5397  0.8862 -0.2426
  355MOL0     C46761  -0.725   5.252  -0.175  0.2144 -0.0131 -0.2769
  355MOL0     C46762  -0.825   5.255  -0.275 -0.3003 -0.2122 -0.4169
  355MOL0     O46763  -0.956   5.257  -0.249 -0.7844  0.0517 -0.2126
  355MOL0     C46764  -1.003   5.250  -0.110 -0.7178  0.0254  0.0571
  355MOL0     C46765  -1.150   5.243  -0.113  0.2996 -0.1352 -0.8780
  355MOL0     C46766  -1.216   5.365  -0.178  0.2647  0.1670 -0.4616
  355MOL0     C46767  -1.365   5.338  -0.211 -0.2523 -0.1248  0.2491
  355MOL0     C46768  -1.431   5.465  -0.276 -0.3970  0.2161  0.3413
  355MOL0     C46769  -1.579   5.461  -0.314  0.2270  0.1777 -0.2601
  355MOL0     C46770  -1.674   5.394  -0.203  0.4270  0.2642  0.4238
  355MOL0     C46771  -1.800   5.472  -0.182  0.9752 -0.0296 -0.0636
  355MOL0    Cl46772  -1.770   5.636  -0.130  0.1336  0.2076  0.0061
  355MOL0     C46773  -0.784   5.254  -0.406  0.9200 -0.3097  0.0607
  355MOL0     C46774  -0.648   5.236  -0.438 -0.1866 -0.8019  0.0424
  355MOL0     O46775  -0.387   5.043  -0.200  0.0636  0.3042  0.3748
  355MOL0     C46776  -0.149   4.956  -0.317  1.0823 -0.0729 -0.1645
  355MOL0     C46777  -0.037   4.931  -0.378 -0.5520 -0.6674 -0.4638
  355MOL0     N46778   0.666   4.859  -0.229 -0.8652 -0.0093  0.2607
  355MOL0     N46779   0.721   4.928  -0.134  0.0570 -0.2847 -1.1172
  355MOL0     C46780   1.663   5.020   0.198 -0.0422  1.1392 -0.7387
  355MOL0     C46781   1.799   5.046   0.217 -0.7478 -0.1628 -0.9759
  355MOL0     C46782   2.204   5.054   0.431 -0.0142 -0.2581 -1.0599
  355MOL0     C46783   2.289   5.037   0.538  0.6790  0.1752  1.0304
  355MOL0     C46784   2.427   5.057   0.525  0.2595 -0.2918 -0.4050
  355MOL0     C46785   2.481   5.104   0.407  0.3971 -0.1684  0.3895
  355MOL0     O46786   2.621   5.131   0.394 -0.1470  0.7978  0.8062
  355MOL0     C46787   2.702   5.148   0.509  0.1895 -0.2847 -0.2845
  355MOL0     C46788   2.845   5.178   0.469 -0.2057 -0.4749 -0.2576
  355MOL0     C46789   2.938   5.189   0.585 -0.0996 -0.5545  0.0213
  355MOL0     C46790   3.065   5.258   0.544 -0.2200  0.0437 -0.0912
  355MOL0     C46791   3.064   5.404   0.554  0.5571 -0.8358 -0.4740
  355MOL0     C46792   3.058   5.527   0.577  0.4388 -0.1776  0.3850
  355MOL0     C46793   2.395   5.112   0.295 -0.0005  0.0458  0.0673
  355MOL0     C46794   2.261   5.090   0.308  0.6044  0.7266  0.4058
  355MOL0     H46795   1.789   5.096   0.548  2.6886 -0.8129 -1.1715
  355MOL0     H46796   1.565   5.035   0.519 -1.2254  0.3690 -0.4641
  355MOL0     H46797   1.324   4.992   0.444 -1.2167 -2.3474  1.2245
  355MOL0     H46798   1.431   4.845   0.396  0.9696  0.7498 -0.2581
  355MOL0     H46799   1.297   4.798   0.199  0.1846 -1.5147  0.7381
  355MOL0     H46800   1.192   4.935   0.235  0.1122  0.5503  1.6848
  355MOL0     H46801   1.133   4.842   0.458  0.7774  1.7616 -1.0269
  355MOL0     H46802   1.237   4.699   0.400 -1.1737 -0.7244  0.3359
  355MOL0     H46803   1.084   4.701   0.190 -1.1650 -1.2339 -0.1450
  355MOL0     H46804   1.007   4.636   0.331  0.9629 -1.3319 -0.3028
  355MOL0     H46805   0.969   4.929   0.227 -0.4708 -0.5522 -1.5282
  355MOL0     H46806   0.927   4.879   0.393  3.4626  1.2760 -0.4723
  355MOL0     H46807   0.784   4.710   0.302  2.7590 -0.1465  0.5948
  355MOL0     H46808   0.802   4.763   0.135 -2.7177 -1.2255 -0.1350
  355MOL0     H46809   0.596   4.855   0.266  0.1937 -0.9015  2.4682
  355MOL0     H46810   0.709   4.973   0.328  1.6214 -0.5832 -0.0471
  355MOL0     H46811   0.776   5.035   0.101  0.8469  0.5680  2.3718
  355MOL0     H46812   0.599   5.055   0.119 -0.6802 -1.0732 -1.8418
  355MOL0     H46813   0.464   4.821   0.026  2.6871 -1.5154  1.4490
  355MOL0     H46814   0.407   4.663  -0.201 -1.4773 -0.1827 -0.5263
  355MOL0     H46815   0.473   4.712  -0.346  1.2789  0.0794  0.0259
  355MOL0     H46816   0.302   4.912  -0.187 -3.1915  1.6803 -1.5286
  355MOL0     H46817   0.228   4.797  -0.300  0.3866 -2.8835  1.7292
  355MOL0     H46818   0.446   5.010  -0.338 -1.0817  0.1582  1.6078
  355MOL0     H46819   0.396   4.906  -0.472 -0.9158  1.6379 -0.8734
  355MOL0     H46820   0.299   5.142  -0.463 -1.1708  0.8324  0.4365
  355MOL0     H46821   0.217   5.094  -0.321  1.5353 -2.9768  1.4738
  355MOL0     H46822   0.023   5.209  -0.550  2.0282 -2.5148 -1.1472
  355MOL0     H46823  -0.200   5.270  -0.454 -1.9763 -1.2982  1.3715
  355MOL0     H46824  -0.517   5.244  -0.129 -1.6840  0.2281  0.9553
  355MOL0     H46825  -0.750   5.277  -0.072  4.0359  3.5421  0.0612
  355MOL0     H46826  -0.968   5.340  -0.059 -0.9896  0.6450 -0.8271
  355MOL0     H46827  -0.956   5.167  -0.056 -0.5840 -0.5296 -0.8985
  355MOL0     H46828  -1.184   5.236  -0.009  0.8331  0.3046 -0.6713
  355MOL0     H46829  -1.184   5.151  -0.162  1.1588  0.0324 -1.8118
  355MOL0     H46830  -1.176   5.387  -0.277 -1.4920 -0.8720 -1.4549
  355MOL0     H46831  -1.216   5.456  -0.118  0.6519 -0.5531  0.6724
  355MOL0     H46832  -1.370   5.254  -0.281 -1.1394 -0.1234  0.3020
  355MOL0     H46833  -1.423   5.306  -0.124 -1.5287  0.0616 -0.5242
  355MOL0     H46834  -1.381   5.487  -0.371  1.4107 -1.2499  0.8810
  355MOL0     H46835  -1.417   5.547  -0.206 -0.1439 -0.1802  0.7564
  355MOL0     H46836  -1.601   5.409  -0.407 -2.1799 -0.2131  0.4616
  355MOL0     H46837  -1.611   5.565  -0.317  0.5435  0.2961  0.2649
  355MOL0     H46838  -1.694   5.292  -0.237  2.3151  0.2498 -0.8369
  355MOL0     H46839  -1.623   5.385  -0.107  2.6330 -2.0533 -0.8526
  355MOL0     H46840  -1.867   5.426  -0.109  3.5583  0.4177  2.7957
  355MOL0     H46841  -1.861   5.481  -0.272 -2.8452  0.3186  2.3588
  355MOL0     H46842  -0.852   5.250  -0.490  1.3410  2.2151 -0.4637
  355MOL0     H46843  -0.617   5.232  -0.542  0.2952 -0.9697  0.1887
  355MOL0     H46844  -0.206   4.889  -0.253 -3.8102  3.5249 -0.1124
  355MOL0     H46845   0.004   4.835  -0.348 -2.1061 -2.0387 -2.4118
  355MOL0     H46846   1.609   5.013   0.104 -1.8190  0.2484  0.2889
  355MOL0     H46847   1.879   5.053   0.143  0.9914 -1.1445  0.7179
  355MOL0     H46848   2.241   5.013   0.633 -0.4610  1.3666  0.7911
  355MOL0     H46849   2.480   5.051   0.620  0.7761  3.7340 -0.2633
  355MOL0     H46850   2.711   5.061   0.575  1.4792  1.4611  1.9581
  355MOL0     H46851   2.662   5.230   0.569  2.6728  1.5891 -1.0616
  355MOL0     H46852   2.876   5.100   0.399 -1.0867 -3.4756  2.4706
  355MOL0     H46853   2.838   5.275   0.417 -3.4192  0.0255  0.8354
  355MOL0     H46854   2.963   5.089   0.621 -0.7789  0.5310  4.0677
  355MOL0     H46855   2.893   5.223   0.679  0.9630 -2.1974  1.1943
  355MOL0     H46856   3.146   5.226   0.611 -0.5232  0.0231  0.2696
  355MOL0     H46857   3.089   5.221   0.444 -2.4272 -0.2967 -0.5493
  355MOL0     H46858   3.044   5.631   0.595  2.3533 -0.1039  1.7390
  355MOL0     H46859   2.441   5.143   0.201  1.2767  0.2907  0.7560
  355MOL0     H46860   2.188   5.099   0.228 -0.4991 -3.1944  0.7571
  356MOL0     O46861   4.741   8.645  10.235  0.3029  0.4480  0.1864
  356MOL0     C46862   4.774   8.671  10.349 -0.0865 -0.3958  0.2940
  356MOL0     O46863   4.686   8.731  10.444  0.7176  0.7037  0.2940
  356MOL0     C46864   4.554   8.755  10.413 -0.0459 -0.1573 -0.4355
  356MOL0     C46865   4.471   8.669  10.335  1.0251 -0.6409  0.0971
  356MOL0     C46866   4.330   8.708  10.316 -0.2316  0.0356  0.1599
  356MOL0     C46867   4.287   8.831  10.369  0.7650  0.6061  0.5809
  356MOL0     O46868   4.151   8.864  10.346 -0.4759  0.0109 -0.1141
  356MOL0     C46869   4.088   8.932  10.457 -0.2582 -1.6872 -0.1954
  356MOL0     C46870   3.934   8.927  10.437  0.2857  0.4129 -0.3599
  356MOL0     C46871   3.854   8.951  10.569 -0.6038 -0.5629  0.9860
  356MOL0     C46872   3.705   8.960  10.542  0.3794 -0.2319 -0.0292
  356MOL0     C46873   3.634   8.958  10.677  0.9541 -0.4912 -0.1223
  356MOL0     C46874   3.484   8.946  10.656 -0.1806  0.2375  0.5952
  356MOL0     C46875   3.421   9.088  10.624 -0.0228 -0.7656 -0.2066
  356MOL0     C46876   3.277   9.111  10.680 -0.0758 -0.3135  0.0565
  356MOL0     N46877   3.244   9.257  10.667  0.4716 -0.4892  0.2765
  356MOL0     C46878   3.224   9.331  10.554  0.0390  0.7649  0.5885
  356MOL0     C46879   3.179   9.452  10.596 -1.2702  0.2784  0.8760
  356MOL0     C46880   3.148   9.563  10.497 -1.2054 -0.1129 -0.3490
  356MOL0     C46881   2.994   9.580  10.471  0.2976  0.3698 -0.1702
  356MOL0     C46882   2.948   9.465  10.379  0.0924 -0.2146 -0.6861
  356MOL0     C46883   2.808   9.489  10.325 -0.0254  0.0606  0.5071
  356MOL0     O46884   2.770   9.382  10.233 -0.1035  0.3674  0.6914
  356MOL0     C46885   2.637   9.366  10.211 -0.6974  0.3553 -0.6620
  356MOL0     C46886   2.600   9.247  10.154  0.1675  0.4638 -0.3118
  356MOL0     C46887   2.468   9.207  10.136 -0.5694  0.5590  0.8731
  356MOL0     C46888   2.366   9.306  10.160  1.1861 -0.2473 -0.4364
  356MOL0     C46889   2.221   9.280  10.143  0.5994 -0.5327  0.3662
  356MOL0     O46890   2.180   9.155  10.130  0.1959 -0.1109 -0.5939
  356MOL0     C46891   2.052   9.130  10.089  0.2261  1.0528  0.3325
  356MOL0     C46892   1.992   9.014  10.153 -0.5936  0.3299  0.0619
  356MOL0     C46893   1.858   8.990  10.119 -0.4831  0.0618 -0.4941
  356MOL0     C46894   1.784   9.064  10.023  0.8283  0.1637 -0.8640
  356MOL0     O46895   1.651   9.050   9.985 -0.0406  0.0973  0.3001
  356MOL0     C46896   1.577   8.967  10.069 -0.2053 -0.5749  0.0377
  356MOL0     C46897   1.434   8.970  10.020  0.4348 -0.5807 -0.3404
  356MOL0     C46898   1.386   9.118  10.014 -0.1657  0.3891 -0.5214
  356MOL0     C46899   1.231   9.120  10.021 -0.2348 -0.2921 -0.5003
  356MOL0     C46900   1.168   9.087  10.153 -0.1566  0.2955 -0.2830
  356MOL0     C46901   1.236   9.142  10.278 -0.2796 -0.6276 -0.2423
  356MOL0     C46902   1.142   9.109  10.392 -0.0743  0.5963 -0.2377
  356MOL0     C46903   1.170   9.203  10.506  0.1894  0.1188  0.2975
  356MOL0    Cl46904   1.047   9.193  10.635  0.2802 -0.0098 -0.2656
  356MOL0     C46905   1.842   9.168   9.959 -0.2246 -0.8143  0.4017
  356MOL0     C46906   1.980   9.204   9.992  0.4820 -0.1794 -0.2025
  356MOL0     O46907   2.145   9.382  10.146  0.3134  0.7374 -0.2689
  356MOL0     C46908   2.406   9.431  10.212  0.3791  0.5981  0.3161
  356MOL0     C46909   2.535   9.459  10.237 -0.1591 -0.2275 -0.1673
  356MOL0     N46910   3.173   9.442  10.732  0.0798 -0.2683  0.0199
  356MOL0     N46911   3.219   9.334  10.778 -0.4506  0.5409  0.7446
  356MOL0     C46912   4.370   8.914  10.446  0.4419  0.1711 -0.8463
  356MOL0     C46913   4.501   8.873  10.462 -1.0621 -0.5400 -0.5905
  356MOL0     C46914   4.907   8.647  10.393 -0.3386 -0.7182 -0.3060
  356MOL0     C46915   4.978   8.534  10.355  0.3217  0.0482  0.3998
  356MOL0     C46916   5.114   8.517  10.392  0.5485 -0.3235  0.1852
  356MOL0     C46917   5.171   8.608  10.480 -0.3240 -0.1349  0.6788
  356MOL0     O46918   5.299   8.592  10.517 -0.7522  0.0678  0.2290
  356MOL0     C46919   5.302   8.488  10.618  0.1245 -0.6630 -0.6058
  356MOL0     C46920   5.443   8.427  10.631  0.2550 -0.4331 -0.3145
  356MOL0     C46921   5.556   8.528  10.629 -0.3097 -0.9046 -0.5783
  356MOL0     C46922   5.554   8.636  10.745 -0.0658  0.6307 -0.7179
  356MOL0     C46923   5.553   8.571  10.878  0.3485  0.0739 -0.4717
  356MOL0     C46924   5.548   8.498  10.972  0.3626 -0.0304 -0.0850
  356MOL0     C46925   5.101   8.716  10.524 -0.3773  0.0255 -0.9659
  356MOL0     C46926   4.969   8.735  10.474 -0.8234 -0.3422 -0.6343
  356MOL0     H46927   4.497   8.572  10.295  1.1561 -0.7104  0.3478
  356MOL0     H46928   4.259   8.647  10.261 -0.6027  1.1736 -0.6675
  356MOL0     H46929   4.124   9.033  10.474 -1.8361 -0.9314 -1.0635
  356MOL0     H46930   4.108   8.867  10.542  1.3279  1.0612  1.6720
  356MOL0     H46931   3.907   8.837  10.381  0.8084  1.0763 -1.7179
  356MOL0     H46932   3.904   9.003  10.365 -0.5276  1.6187  1.1862
  356MOL0     H46933   3.892   9.046  10.608  3.2263  1.0742 -5.2991
  356MOL0     H46934   3.873   8.867  10.636  0.9744 -1.0119  0.0245
  356MOL0     H46935   3.685   9.046  10.477  0.6083 -1.3806 -1.6860
  356MOL0     H46936   3.674   8.874  10.482  1.3509 -1.1948  0.8019
  356MOL0     H46937   3.667   9.050  10.727 -2.6088  0.8577  0.0178
  356MOL0     H46938   3.660   8.880  10.750 -0.8887  0.9941  2.2886
  356MOL0     H46939   3.434   8.903  10.743 -0.5508 -1.2824 -0.3377
  356MOL0     H46940   3.457   8.878  10.575  1.0996 -0.0850  0.4223
  356MOL0     H46941   3.484   9.165  10.669  0.2572 -0.8190 -0.5027
  356MOL0     H46942   3.416   9.106  10.516 -2.3932  0.4346  0.0328
  356MOL0     H46943   3.264   9.075  10.783 -1.3392 -1.9396 -0.6276
  356MOL0     H46944   3.210   9.049  10.620 -0.5648  0.2001  0.0549
  356MOL0     H46945   3.225   9.299  10.450 -0.8584  2.0620  0.1496
  356MOL0     H46946   3.198   9.536  10.404  0.9725 -2.7018  1.4020
  356MOL0     H46947   3.191   9.657  10.532 -0.4306 -0.4629 -0.3484
  356MOL0     H46948   2.987   9.676  10.418 -2.9509 -0.8327 -2.2208
  356MOL0     H46949   2.935   9.588  10.563  1.0108 -0.6345  0.4041
  356MOL0     H46950   3.020   9.444  10.299 -1.5924 -0.9271 -2.0855
  356MOL0     H46951   2.942   9.380  10.447 -2.0267  0.4902  0.1103
  356MOL0     H46952   2.812   9.585  10.272 -1.5452 -0.7465 -1.2124
  356MOL0     H46953   2.735   9.491  10.407 -2.0402 -0.2706 -1.1757
  356MOL0     H46954   2.667   9.173  10.113 -1.5706 -1.5678  0.2968
  356MOL0     H46955   2.453   9.106  10.099  1.6456  0.0384  1.2445
  356MOL0     H46956   2.050   8.948  10.217  1.0046 -0.1386 -1.7789
  356MOL0     H46957   1.822   8.905  10.176 -1.2306  0.9673  0.4284
  356MOL0     H46958   1.576   9.002  10.173 -1.8440 -2.0215  0.5806
  356MOL0     H46959   1.620   8.866  10.064  3.3600  0.8509 -0.5934
  356MOL0     H46960   1.372   8.898  10.074  2.6321 -1.1011  1.6575
  356MOL0     H46961   1.437   8.941   9.915  1.1848  2.5613 -1.2932
  356MOL0     H46962   1.439   9.177   9.939  1.3304  0.2578  0.3962
  356MOL0     H46963   1.425   9.155  10.110  2.0310 -4.0932  0.5838
  356MOL0     H46964   1.200   9.219   9.985 -4.1521 -0.9588  0.5584
  356MOL0     H46965   1.193   9.044   9.952 -0.1279 -2.3652  1.5796
  356MOL0     H46966   1.180   8.980  10.173  2.9990  0.5342 -0.3147
  356MOL0     H46967   1.066   9.126  10.153 -0.4540 -0.2645  2.4075
  356MOL0     H46968   1.233   9.251  10.268 -0.2337 -0.2322  3.1445
  356MOL0     H46969   1.334   9.100  10.303 -0.0218  0.2863  0.3285
  356MOL0     H46970   1.039   9.132  10.363 -0.8935 -0.1832  1.8015
  356MOL0     H46971   1.146   9.005  10.426 -3.3072 -0.6495 -3.0602
  356MOL0     H46972   1.177   9.307  10.472  2.0867  0.0051  0.2480
  356MOL0     H46973   1.262   9.173  10.555  0.7277  0.4371 -0.4912
  356MOL0     H46974   1.789   9.226   9.884  0.4777  0.8548  1.1277
  356MOL0     H46975   2.029   9.289   9.945  1.6951 -2.5308 -3.6040
  356MOL0     H46976   2.333   9.509  10.234 -0.9158 -0.3197 -0.5315
  356MOL0     H46977   2.564   9.553  10.281 -0.0740  0.0338 -0.7746
  356MOL0     H46978   4.331   8.998  10.502  1.2749 -0.2112  0.3293
  356MOL0     H46979   4.573   8.934  10.516 -0.5981 -1.8569  0.3359
  356MOL0     H46980   4.932   8.455  10.297 -0.2259 -0.4424  1.4658
  356MOL0     H46981   5.174   8.433  10.360  1.2795  0.0690  0.5053
  356MOL0     H46982   5.234   8.403  10.608  0.7831 -2.0967  4.5208
  356MOL0     H46983   5.271   8.541  10.708 -1.1248  1.2228 -2.0434
  356MOL0     H46984   5.436   8.367  10.721 -0.9518  0.6198  0.3284
  356MOL0     H46985   5.452   8.362  10.543  1.1860  2.1348 -2.2470
  356MOL0     H46986   5.564   8.579  10.533  0.7089 -0.3568 -0.2200
  356MOL0     H46987   5.652   8.475  10.635  0.2701 -0.1702 -2.5296
  356MOL0     H46988   5.642   8.700  10.738  0.3539  0.3422  1.3895
  356MOL0     H46989   5.470   8.703  10.725  1.7751  2.7826 -1.6086
  356MOL0     H46990   5.547   8.426  11.051  1.8611 -0.0633 -0.0713
  356MOL0     H46991   5.145   8.796  10.583 -2.3411  1.5452 -1.4352
  356MOL0     H46992   4.925   8.829  10.507 -2.0186 -0.0426 -2.8421
  357MOL0     O46993   9.101   4.736  10.379  0.1585  0.4088  0.0988
  357MOL0     C46994   9.152   4.712  10.487  0.4783 -0.3467  0.3913
  357MOL0     O46995   9.083   4.687  10.603  0.4079  0.0931  0.5476
  357MOL0     C46996   8.947   4.691  10.607  0.3667 -0.1660 -0.3668
  357MOL0     C46997   8.876   4.816  10.607 -0.1415 -0.2930  0.3431
  357MOL0     C46998   8.737   4.819  10.605  0.7431  0.3083 -0.3857
  357MOL0     C46999   8.661   4.697  10.608 -0.9259  0.0600  0.1862
  357MOL0     O47000   8.527   4.687  10.625 -0.1797 -0.5167 -0.0667
  357MOL0     C47001   8.443   4.804  10.601  0.0089  0.0087  0.3074
  357MOL0     C47002   8.300   4.774  10.556 -0.1998 -0.4411  0.1816
  357MOL0     C47003   8.210   4.892  10.580 -0.6699 -0.4069 -0.0692
  357MOL0     C47004   8.155   4.888  10.719 -0.5108  0.8176  0.3000
  357MOL0     C47005   8.058   5.006  10.744  0.2842 -0.9625  0.4383
  357MOL0     C47006   8.047   5.021  10.896 -0.6082 -0.1913  0.3910
  357MOL0     C47007   7.949   5.139  10.927 -0.3994 -0.8534  0.0761
  357MOL0     C47008   7.806   5.086  10.942  0.4914 -0.4884 -0.4390
  357MOL0     N47009   7.726   5.200  10.994  0.4326  0.2875 -0.2331
  357MOL0     C47010   7.626   5.181  11.080  0.1237  1.2724 -0.4787
  357MOL0     C47011   7.581   5.306  11.108 -0.3342  0.7689  0.2585
  357MOL0     C47012   7.469   5.339  11.211  0.1949 -0.6488  0.3414
  357MOL0     C47013   7.400   5.473  11.176  0.3723  0.4076 -0.1277
  357MOL0     C47014   7.324   5.468  11.043  0.8944  0.4699 -0.0475
  357MOL0     C47015   7.194   5.376  11.048 -0.0216  1.1213  0.3325
  357MOL0     O47016   7.097   5.390  10.944  0.0852  0.0113 -0.0848
  357MOL0     C47017   6.972   5.324  10.965 -0.9364 -0.3739 -0.8059
  357MOL0     C47018   6.945   5.230  11.074  0.4399 -0.8017  0.2866
  357MOL0     C47019   6.816   5.198  11.101  0.2493  1.1529 -0.0122
  357MOL0     C47020   6.711   5.232  11.015 -0.6020 -1.4610  0.1444
  357MOL0     C47021   6.571   5.189  11.032 -0.3130  0.0563  0.3787
  357MOL0     O47022   6.563   5.121  11.148  0.6825  0.2691  0.0454
  357MOL0     C47023   6.447   5.059  11.184  0.1596 -0.0111 -0.3948
  357MOL0     C47024   6.315   5.087  11.142 -0.2660  0.1519 -1.0323
  357MOL0     C47025   6.209   5.018  11.196 -0.1259  0.1749  0.7368
  357MOL0     C47026   6.212   4.925  11.292 -0.2219 -0.3291 -0.4658
  357MOL0     O47027   6.097   4.882  11.360 -0.0890 -0.3911 -0.2431
  357MOL0     C47028   6.118   4.840  11.495 -0.5652 -0.1632  0.1071
  357MOL0     C47029   5.991   4.784  11.549 -0.5348 -0.4188 -0.1291
  357MOL0     C47030   6.008   4.726  11.696 -0.7789  0.0605 -0.1075
  357MOL0     C47031   5.988   4.848  11.787  0.6016 -0.1618 -0.1903
  357MOL0     C47032   6.005   4.820  11.937  0.9536 -0.1389 -0.1411
  357MOL0     C47033   5.943   4.942  12.010  1.1352 -0.2124 -0.3809
  357MOL0     C47034   5.928   4.915  12.164 -0.0850 -0.5444 -0.1499
  357MOL0     C47035   5.867   5.039  12.225 -0.2325  0.4746 -0.9075
  357MOL0    Cl47036   5.697   5.066  12.181 -0.4091  0.2178  0.2173
  357MOL0     C47037   6.345   4.906  11.344 -0.2051 -0.5156 -0.4421
  357MOL0     C47038   6.457   4.970  11.286  0.0245  0.5582  0.4522
  357MOL0     O47039   6.486   5.195  10.944  0.2402 -0.2852  0.3474
  357MOL0     C47040   6.747   5.303  10.898 -0.8037  0.5237  1.1924
  357MOL0     C47041   6.879   5.349  10.871 -0.2189 -0.0724 -0.8406
  357MOL0     N47042   7.648   5.394  11.029  0.4142 -1.0720 -0.8170
  357MOL0     N47043   7.729   5.330  10.960 -0.4883 -0.0004  0.2441
  357MOL0     C47044   8.733   4.579  10.610  0.9841 -0.7112 -0.8338
  357MOL0     C47045   8.873   4.572  10.614 -0.5164  0.0749  0.1744
  357MOL0     C47046   9.303   4.716  10.497  0.2295 -0.2339  0.2895
  357MOL0     C47047   9.374   4.762  10.386 -0.7120 -0.3729  0.7147
  357MOL0     C47048   9.509   4.802  10.400  0.5797  0.7879 -0.3153
  357MOL0     C47049   9.567   4.767  10.519 -0.6579 -0.5583 -0.6577
  357MOL0     O47050   9.701   4.794  10.545 -0.3441 -0.2591  0.1713
  357MOL0     C47051   9.799   4.796  10.446  0.1901 -0.1923 -0.1723
  357MOL0     C47052   9.919   4.728  10.508 -0.5195  0.1470 -0.0944
  357MOL0     C47053  10.033   4.756  10.412 -0.0400  0.1733  0.3438
  357MOL0     C47054  10.174   4.713  10.461 -0.0908 -0.4429 -0.4619
  357MOL0     C47055  10.280   4.770  10.369  0.0392  0.8979 -0.3073
  357MOL0     C47056  10.369   4.817  10.300  0.6555  0.1327 -0.0167
  357MOL0     C47057   9.501   4.700  10.617  0.4434 -0.4879  0.1553
  357MOL0     C47058   9.363   4.688  10.619  0.2388 -0.6841  0.0779
  357MOL0     H47059   8.921   4.914  10.592  0.2134 -0.8890 -3.5647
  357MOL0     H47060   8.678   4.910  10.608 -1.4295 -1.0404  1.1850
  357MOL0     H47061   8.483   4.874  10.527  0.8354 -0.6328  0.1262
  357MOL0     H47062   8.427   4.850  10.699 -2.1395  1.5749 -0.7053
  357MOL0     H47063   8.262   4.679  10.596  0.9095 -0.3087  1.6411
  357MOL0     H47064   8.299   4.752  10.449  1.6133  1.4374 -0.2882
  357MOL0     H47065   8.121   4.880  10.517  0.7846  0.2867 -2.4083
  357MOL0     H47066   8.256   4.985  10.545 -0.4416 -1.4144 -2.7048
  357MOL0     H47067   8.101   4.794  10.739 -2.2149  1.1503 -2.2486
  357MOL0     H47068   8.238   4.889  10.790  1.2760  0.4567 -1.7032
  357MOL0     H47069   7.957   4.991  10.706 -0.5982  1.3957  1.7007
  357MOL0     H47070   8.101   5.095  10.698 -1.3432 -0.2774  0.1919
  357MOL0     H47071   8.143   5.043  10.943  2.0283 -0.1551 -4.4410
  357MOL0     H47072   8.010   4.927  10.939 -0.3649  0.8792  3.1358
  357MOL0     H47073   7.996   5.171  11.020  1.4680 -2.7638 -0.1355
  357MOL0     H47074   7.965   5.209  10.844  2.1127 -2.2690 -0.7528
  357MOL0     H47075   7.816   5.010  11.021  3.2684  1.6095  1.4379
  357MOL0     H47076   7.752   5.062  10.851 -0.8228  2.4702 -0.5382
  357MOL0     H47077   7.602   5.087  11.130 -1.8781  1.8005 -0.3437
  357MOL0     H47078   7.510   5.347  11.312  2.3057 -2.5129 -0.2943
  357MOL0     H47079   7.400   5.255  11.209  1.3960 -1.6813 -2.0525
  357MOL0     H47080   7.473   5.554  11.175 -0.3119  1.1059 -3.2312
  357MOL0     H47081   7.327   5.494  11.255 -0.3244 -1.4533 -0.2298
  357MOL0     H47082   7.295   5.569  11.010  0.7477  0.0424 -1.2717
  357MOL0     H47083   7.392   5.431  10.965  0.5207  1.4221 -0.8493
  357MOL0     H47084   7.127   5.396  11.132 -0.8374 -1.3838  0.3408
  357MOL0     H47085   7.221   5.271  11.061 -1.4646  0.7325  0.3611
  357MOL0     H47086   7.024   5.199  11.140  0.1189 -2.1961  0.0587
  357MOL0     H47087   6.796   5.127  11.180 -1.1657  0.4509 -0.9580
  357MOL0     H47088   6.276   5.168  11.081  0.9373  0.8173 -0.9417
  357MOL0     H47089   6.107   5.042  11.166  0.2231  0.4554 -0.2571
  357MOL0     H47090   6.148   4.922  11.561 -0.4010 -1.3221  1.5361
  357MOL0     H47091   6.194   4.763  11.513 -1.2937 -0.6368  1.2860
  357MOL0     H47092   5.949   4.716  11.474  0.0081 -0.1710 -0.6586
  357MOL0     H47093   5.910   4.858  11.553 -1.5213 -1.3476 -1.8865
  357MOL0     H47094   6.105   4.682  11.721 -0.6483  0.0477 -0.6082
  357MOL0     H47095   5.946   4.639  11.718  0.7028 -1.0306 -0.0877
  357MOL0     H47096   6.048   4.932  11.750 -0.7676  0.5731 -0.8254
  357MOL0     H47097   5.883   4.875  11.769  0.0509 -2.1776 -0.2953
  357MOL0     H47098   6.111   4.812  11.962  1.3775 -1.0139 -2.0558
  357MOL0     H47099   5.949   4.731  11.964 -0.8083  0.7180 -0.7865
  357MOL0     H47100   5.843   4.949  11.966  0.8665 -2.5832 -0.2626
  357MOL0     H47101   6.010   5.027  11.995  0.7514  0.3277  0.8386
  357MOL0     H47102   5.858   4.832  12.175 -1.9800  0.9511 -0.3392
  357MOL0     H47103   6.024   4.883  12.205  0.2436  0.7227  0.1096
  357MOL0     H47104   5.930   5.124  12.200 -0.4819  0.9426  0.0109
  357MOL0     H47105   5.869   5.016  12.332 -0.8671 -0.5691 -1.1065
  357MOL0     H47106   6.364   4.851  11.435 -3.4374  1.3098  1.5444
  357MOL0     H47107   6.552   4.955  11.334 -0.9060 -3.2479  1.4466
  357MOL0     H47108   6.669   5.347  10.838 -0.8467 -0.3116  0.6195
  357MOL0     H47109   6.892   5.421  10.791  2.0874 -0.5768 -0.9864
  357MOL0     H47110   8.675   4.488  10.611 -1.6762  0.8483  1.1688
  357MOL0     H47111   8.927   4.478  10.611 -0.7876 -0.0667 -1.6104
  357MOL0     H47112   9.321   4.783  10.293  0.3641 -3.6101 -0.7777
  357MOL0     H47113   9.552   4.848  10.311 -1.3196  0.3258 -1.5464
  357MOL0     H47114   9.824   4.900  10.423 -0.0034  0.0335  0.6052
  357MOL0     H47115   9.762   4.754  10.353 -1.7813  2.9031 -0.8928
  357MOL0     H47116   9.935   4.770  10.608 -0.6670 -2.2136  1.0067
  357MOL0     H47117   9.893   4.621  10.512 -1.1876  0.1096 -3.2237
  357MOL0     H47118  10.035   4.864  10.395 -0.3781  0.0571 -0.4770
  357MOL0     H47119  10.012   4.699  10.321 -1.1883 -3.8774  2.8904
  357MOL0     H47120  10.186   4.751  10.563 -1.1774  2.3974 -1.2992
  357MOL0     H47121  10.180   4.604  10.456  1.7737 -0.4068  0.3355
  357MOL0     H47122  10.438   4.865  10.233 -2.0069 -0.5564 -3.5478
  357MOL0     H47123   9.562   4.683  10.706 -0.7403  2.2404  1.6354
  357MOL0     H47124   9.319   4.636  10.704  1.4789  0.3321  1.3827
  358MOL0     O47125   7.783   2.306   3.711 -0.7103  0.3724 -0.3044
  358MOL0     C47126   7.844   2.337   3.811 -0.3541 -0.7630  0.6862
  358MOL0     O47127   7.794   2.347   3.934  0.2381 -0.2794  0.2114
  358MOL0     C47128   7.662   2.386   3.949 -0.6228  0.0207  0.1776
  358MOL0     C47129   7.593   2.482   3.868 -0.8284  0.6158 -0.0407
  358MOL0     C47130   7.458   2.525   3.901 -0.3478  0.6539  0.0576
  358MOL0     C47131   7.393   2.479   4.015 -0.6455  0.3212  0.2127
  358MOL0     O47132   7.272   2.530   4.056  0.4487  0.8596  0.3791
  358MOL0     C47133   7.189   2.438   4.135  0.3867 -0.6285  1.0075
  358MOL0     C47134   7.049   2.519   4.134  0.1632  0.6409 -0.7192
  358MOL0     C47135   6.937   2.448   4.209 -0.1365  0.0381 -0.0585
  358MOL0     C47136   6.813   2.540   4.234 -0.6110 -0.1272 -0.9714
  358MOL0     C47137   6.681   2.466   4.273  0.4300  0.0049 -0.1270
  358MOL0     C47138   6.701   2.349   4.367  0.6859 -0.1359 -0.2752
  358MOL0     C47139   6.572   2.296   4.436  0.4514 -0.0261  0.1282
  358MOL0     C47140   6.478   2.211   4.350  0.2631 -0.1509 -0.9460
  358MOL0     N47141   6.353   2.190   4.419  0.2428  0.1681 -0.3324
  358MOL0     C47142   6.269   2.085   4.396  0.7994 -0.1812  0.2256
  358MOL0     C47143   6.171   2.088   4.489  0.4574  0.2664 -0.4737
  358MOL0     C47144   6.058   1.990   4.500 -0.9748 -0.7571  0.0109
  358MOL0     C47145   5.937   2.068   4.553 -0.5442 -0.6454 -0.1512
  358MOL0     C47146   5.805   2.000   4.570  0.2655 -0.3755 -0.5618
  358MOL0     C47147   5.710   2.081   4.656  0.1021  1.2747 -0.0339
  358MOL0     O47148   5.575   2.031   4.637 -0.0456  0.1749  0.4081
  358MOL0     C47149   5.476   2.130   4.660 -0.3725 -0.5134  0.5667
  358MOL0     C47150   5.471   2.223   4.758  1.0573 -0.9079 -0.5064
  358MOL0     C47151   5.352   2.290   4.787  0.1286 -0.4140  0.6413
  358MOL0     C47152   5.246   2.271   4.700 -0.7216  0.6404  0.0127
  358MOL0     C47153   5.129   2.357   4.706 -0.5144 -0.4116  0.9448
  358MOL0     O47154   5.059   2.376   4.597 -0.2595 -0.5796  0.0121
  358MOL0     C47155   4.954   2.469   4.596  0.2911  0.2883 -0.4332
  358MOL0     C47156   4.919   2.518   4.472  0.3440 -0.1381  1.1089
  358MOL0     C47157   4.825   2.618   4.449  0.4575 -0.0555 -0.3974
  358MOL0     C47158   4.755   2.669   4.560 -0.7700 -0.5697 -0.1355
  358MOL0     O47159   4.665   2.771   4.538  0.4500  0.3435 -0.1033
  358MOL0     C47160   4.553   2.788   4.627 -0.5156 -0.5582 -0.2044
  358MOL0     C47161   4.453   2.887   4.569  0.0522 -0.6935  0.7333
  358MOL0     C47162   4.365   2.954   4.671  0.4102 -0.5442  0.0222
  358MOL0     C47163   4.264   3.055   4.614  0.2678  0.5327  1.3491
  358MOL0     C47164   4.127   3.072   4.678  1.1299  0.7582 -0.2763
  358MOL0     C47165   4.025   2.959   4.648  0.5372  0.4010 -0.9572
  358MOL0     C47166   3.889   2.993   4.704 -0.3167 -0.5674  0.2575
  358MOL0     C47167   3.801   2.866   4.715 -0.4687 -0.2642  0.2468
  358MOL0    Cl47168   3.760   2.789   4.551 -0.0962 -0.0644  0.3406
  358MOL0     C47169   4.776   2.615   4.684 -0.2786 -0.2087 -0.3346
  358MOL0     C47170   4.875   2.522   4.703  0.0727 -0.3317 -0.7408
  358MOL0     O47171   5.114   2.411   4.816 -0.2007 -0.5796  0.0078
  358MOL0     C47172   5.260   2.184   4.591  0.3384 -1.0714  0.8452
  358MOL0     C47173   5.377   2.116   4.565  0.6176 -0.4939 -0.6683
  358MOL0     N47174   6.199   2.189   4.572  0.3595 -0.0193 -0.6256
  358MOL0     N47175   6.307   2.246   4.534  0.5546 -0.1251  0.6850
  358MOL0     C47176   7.468   2.377   4.093  0.0208  0.1378 -0.0272
  358MOL0     C47177   7.599   2.335   4.057 -0.1158  0.5527  0.8948
  358MOL0     C47178   7.992   2.358   3.784  1.2537 -0.4174  0.2866
  358MOL0     C47179   8.071   2.333   3.671 -0.6906 -0.1574 -0.3229
  358MOL0     C47180   8.201   2.378   3.659  0.1024  0.7782  0.1140
  358MOL0     C47181   8.266   2.449   3.762 -0.1759 -0.3281 -0.8547
  358MOL0     O47182   8.386   2.511   3.744  0.1726  0.2222  0.1473
  358MOL0     C47183   8.483   2.447   3.664  0.2290 -0.0850  0.3083
  358MOL0     C47184   8.597   2.548   3.649 -0.2426 -0.2215 -0.2986
  358MOL0     C47185   8.699   2.485   3.553 -0.3413  0.4382 -0.0921
  358MOL0     C47186   8.831   2.552   3.534  0.2842 -0.6789  0.2035
  358MOL0     C47187   8.811   2.701   3.519 -0.8658  0.1834  0.7610
  358MOL0     C47188   8.796   2.825   3.520  0.7328  0.2841 -0.1885
  358MOL0     C47189   8.197   2.471   3.883  0.7130 -0.2306 -0.3519
  358MOL0     C47190   8.064   2.427   3.896 -0.3146  0.0243  0.1924
  358MOL0     H47191   7.640   2.527   3.781 -2.2784  0.8383 -0.7466
  358MOL0     H47192   7.414   2.606   3.844 -0.8451 -0.1363 -0.6966
  358MOL0     H47193   7.239   2.426   4.231  0.4642  1.0770  1.2136
  358MOL0     H47194   7.172   2.348   4.076 -0.9255  0.3846 -0.2474
  358MOL0     H47195   7.015   2.527   4.030  3.5424 -1.7641 -2.1741
  358MOL0     H47196   7.065   2.614   4.186 -0.6704 -0.1635  1.0757
  358MOL0     H47197   6.984   2.411   4.301  2.1766 -0.9143 -1.5495
  358MOL0     H47198   6.899   2.360   4.155 -0.9933  0.4906 -0.2069
  358MOL0     H47199   6.841   2.598   4.322 -0.9740 -1.6373  0.2008
  358MOL0     H47200   6.797   2.611   4.153 -0.0986  1.3424  0.1675
  358MOL0     H47201   6.645   2.435   4.174 -2.5822  2.4586  0.0495
  358MOL0     H47202   6.619   2.544   4.319  4.1902  3.0458  0.3455
  358MOL0     H47203   6.769   2.371   4.450 -0.3836 -1.1944  0.9426
  358MOL0     H47204   6.735   2.268   4.302 -0.9416 -1.1907  0.1277
  358MOL0     H47205   6.602   2.248   4.529  1.8709  1.7869  0.6596
  358MOL0     H47206   6.519   2.390   4.453  3.0337  1.7462 -1.0492
  358MOL0     H47207   6.516   2.111   4.326 -1.2679 -1.1872  0.6903
  358MOL0     H47208   6.458   2.252   4.251  2.2506  0.6786 -1.0576
  358MOL0     H47209   6.285   2.009   4.320  3.0042 -0.8721  1.2962
  358MOL0     H47210   6.078   1.906   4.566  1.4583  0.1585  0.5278
  358MOL0     H47211   6.018   1.950   4.406 -1.2082 -2.9540  1.0040
  358MOL0     H47212   5.936   2.154   4.486  0.9111  0.8781  1.6916
  358MOL0     H47213   5.966   2.105   4.651  0.3870 -0.4259 -0.4967
  358MOL0     H47214   5.761   1.992   4.470  0.6214  0.3959 -0.7889
  358MOL0     H47215   5.813   1.899   4.610 -1.7040 -0.2969  0.1328
  358MOL0     H47216   5.719   2.187   4.632  2.9757  1.4809  1.5281
  358MOL0     H47217   5.741   2.077   4.761 -1.0040 -0.9253  0.2686
  358MOL0     H47218   5.558   2.240   4.820  0.5828  0.4321 -0.1727
  358MOL0     H47219   5.344   2.358   4.871 -0.8686 -0.3319  0.4972
  358MOL0     H47220   4.982   2.501   4.385  2.8999  0.4630  2.7292
  358MOL0     H47221   4.826   2.668   4.353  1.2298 -1.4888 -1.1790
  358MOL0     H47222   4.603   2.839   4.710  1.0878 -0.5103 -1.1419
  358MOL0     H47223   4.504   2.695   4.656  0.1788 -0.8500  0.0561
  358MOL0     H47224   4.399   2.838   4.488 -0.5054  1.4487 -0.2588
  358MOL0     H47225   4.511   2.971   4.528 -2.5886  1.2712  0.7645
  358MOL0     H47226   4.436   3.004   4.739 -0.4055 -0.6841  1.0036
  358MOL0     H47227   4.320   2.881   4.739  0.2476  0.0376  0.5422
  358MOL0     H47228   4.301   3.158   4.623 -0.3360  0.8214  0.6048
  358MOL0     H47229   4.241   3.022   4.513  1.3071  0.2580  1.1952
  358MOL0     H47230   4.087   3.168   4.642  1.3427  0.1015 -2.4100
  358MOL0     H47231   4.130   3.088   4.786 -1.6587 -1.9146  0.3427
  358MOL0     H47232   4.053   2.866   4.699 -1.8397 -0.5471 -1.2327
  358MOL0     H47233   4.031   2.940   4.540  2.8498  0.8685 -0.9713
  358MOL0     H47234   3.910   3.043   4.799  0.4988  0.7984 -0.5951
  358MOL0     H47235   3.837   3.053   4.628 -0.0593 -1.5194 -0.7001
  358MOL0     H47236   3.705   2.906   4.749 -0.5256 -0.0743 -0.1293
  358MOL0     H47237   3.838   2.790   4.784 -5.0373 -2.1578  1.0162
  358MOL0     H47238   4.726   2.653   4.773  3.5272  0.4398  1.7657
  358MOL0     H47239   4.879   2.498   4.808 -0.5954  0.5423 -0.5055
  358MOL0     H47240   5.185   2.182   4.513  0.2218  0.1343  0.9081
  358MOL0     H47241   5.386   2.048   4.481 -0.0401 -0.7993 -0.4980
  358MOL0     H47242   7.433   2.339   4.188 -2.7393 -0.7006 -1.2868
  358MOL0     H47243   7.649   2.260   4.117  0.9126  0.1987 -0.3566
  358MOL0     H47244   8.042   2.287   3.577  0.8689 -0.5832 -0.6187
  358MOL0     H47245   8.252   2.348   3.568 -1.1206 -0.4171 -0.2068
  358MOL0     H47246   8.430   2.428   3.570 -1.9490 -1.0475  1.6164
  358MOL0     H47247   8.519   2.350   3.700 -0.7995 -0.9067 -0.7932
  358MOL0     H47248   8.566   2.643   3.604 -0.1144 -0.3966 -0.7662
  358MOL0     H47249   8.650   2.561   3.744 -0.3453 -1.3731 -0.0681
  358MOL0     H47250   8.644   2.480   3.458  0.2868  0.8311 -0.4807
  358MOL0     H47251   8.721   2.384   3.587  1.2926  0.4934 -0.9011
  358MOL0     H47252   8.884   2.526   3.627 -0.2583 -0.9657  0.4366
  358MOL0     H47253   8.887   2.515   3.448  3.1849  1.9019  0.7954
  358MOL0     H47254   8.787   2.931   3.511 -0.1459  0.1102 -1.6843
  358MOL0     H47255   8.245   2.530   3.960  2.0017 -2.4775  0.6635
  358MOL0     H47256   8.016   2.456   3.989  0.1950  1.0076  0.1705
  359MOL0     O47257   9.600   6.181   7.621  0.5823  0.2780  0.6219
  359MOL0     C47258   9.614   6.057   7.632 -0.1356 -0.1371 -0.6317
  359MOL0     O47259   9.537   5.959   7.573  0.2449  0.1374  0.9555
  359MOL0     C47260   9.419   6.011   7.525  0.4141  0.2456 -0.6096
  359MOL0     C47261   9.408   6.108   7.423 -0.2544 -0.0591  0.5339
  359MOL0     C47262   9.283   6.136   7.356 -0.2415  0.3772 -0.3271
  359MOL0     C47263   9.165   6.081   7.397 -0.4781  0.5871 -0.0318
  359MOL0     O47264   9.047   6.116   7.333 -0.4915 -0.9334  0.3681
  359MOL0     C47265   8.928   6.066   7.392 -0.2196 -0.1369 -0.8536
  359MOL0     C47266   8.810   6.135   7.320  0.3118 -0.3861 -0.6282
  359MOL0     C47267   8.673   6.067   7.350 -0.7761 -1.0099 -0.1762
  359MOL0     C47268   8.560   6.125   7.273 -0.1370 -0.9789  0.6683
  359MOL0     C47269   8.421   6.071   7.303 -0.7488 -0.1508 -0.3697
  359MOL0     C47270   8.303   6.135   7.226  0.7113  0.7313 -0.0965
  359MOL0     C47271   8.162   6.092   7.280 -0.4344 -0.7036 -0.2160
  359MOL0     C47272   8.136   5.933   7.275 -0.3893  0.4296  0.2852
  359MOL0     N47273   8.152   5.879   7.140 -0.3324 -0.0079  0.2890
  359MOL0     C47274   8.058   5.894   7.031 -0.8232  0.1308 -0.0423
  359MOL0     C47275   8.132   5.866   6.919  0.2357  0.1632 -0.1348
  359MOL0     C47276   8.105   5.870   6.771  0.2277  0.1121 -0.7740
  359MOL0     C47277   8.118   6.011   6.703 -0.1726 -0.5345 -1.2939
  359MOL0     C47278   8.068   6.125   6.798  0.3305 -0.3553  0.2054
  359MOL0     C47279   8.055   6.257   6.728 -0.6369  0.0541 -0.4027
  359MOL0     O47280   7.941   6.251   6.645 -0.5672 -0.3605  0.5141
  359MOL0     C47281   7.835   6.328   6.680  0.6874 -0.1164 -0.1507
  359MOL0     C47282   7.835   6.465   6.711 -0.0497 -0.2794  0.2786
  359MOL0     C47283   7.718   6.532   6.753 -0.2729 -1.0119  0.7278
  359MOL0     C47284   7.602   6.458   6.779 -0.4384 -0.4630 -0.1360
  359MOL0     C47285   7.484   6.529   6.829  0.1035  1.5374  0.6536
  359MOL0     O47286   7.377   6.460   6.865  0.7374  0.1789 -0.0361
  359MOL0     C47287   7.273   6.543   6.921  0.0854  0.5209 -0.5460
  359MOL0     C47288   7.184   6.599   6.840  0.5332 -0.8040  0.1477
  359MOL0     C47289   7.079   6.676   6.891 -1.3387 -0.2382 -1.4391
  359MOL0     C47290   7.058   6.678   7.034  0.3378 -0.1000 -0.0820
  359MOL0     O47291   6.957   6.740   7.097  0.3234  0.0851 -0.3991
  359MOL0     C47292   6.858   6.802   7.017  0.0828 -0.1318  0.6417
  359MOL0     C47293   6.753   6.869   7.110 -0.2885  0.0963  0.0163
  359MOL0     C47294   6.628   6.896   7.022  0.6303  0.4138  0.1204
  359MOL0     C47295   6.531   6.965   7.120  0.3721  0.6353  0.7135
  359MOL0     C47296   6.414   7.009   7.037 -0.1050  0.1989  0.6587
  359MOL0     C47297   6.293   7.042   7.125 -0.4476 -0.4287 -0.2890
  359MOL0     C47298   6.196   7.122   7.037 -0.2441  0.2873  0.1927
  359MOL0     C47299   6.126   7.211   7.128 -0.7772  0.3548  0.1495
  359MOL0    Cl47300   5.998   7.304   7.060 -0.0545 -0.4361  0.5170
  359MOL0     C47301   7.145   6.602   7.115 -0.3786  0.1736 -0.2549
  359MOL0     C47302   7.252   6.543   7.059 -0.2960 -0.2102  0.3741
  359MOL0     O47303   7.501   6.650   6.840 -0.4900  0.6724  0.2067
  359MOL0     C47304   7.597   6.323   6.750 -0.6726  0.0553  0.1482
  359MOL0     C47305   7.714   6.258   6.700  0.6455 -0.0413 -1.3236
  359MOL0     N47306   8.260   5.822   6.960 -0.4459  0.0459  0.1430
  359MOL0     N47307   8.269   5.821   7.090 -0.5975 -0.6819  0.3878
  359MOL0     C47308   9.173   5.991   7.505  0.2980  0.8146 -0.2423
  359MOL0     C47309   9.299   5.960   7.574 -0.1162  0.9323  0.0463
  359MOL0     C47310   9.734   6.020   7.709 -0.2835  0.0946 -0.9239
  359MOL0     C47311   9.765   5.884   7.727 -0.1997 -0.0856 -0.1484
  359MOL0     C47312   9.876   5.836   7.799  0.2160 -0.0455 -0.3985
  359MOL0     C47313   9.972   5.925   7.846 -1.1191 -0.1487 -0.5745
  359MOL0     O47314  10.096   5.871   7.890  0.7789  0.5454  0.8387
  359MOL0     C47315  10.182   5.958   7.962  0.4147 -0.1923  0.0846
  359MOL0     C47316  10.282   5.881   8.051  0.2257  0.8212  0.3491
  359MOL0     C47317  10.378   5.963   8.126  0.7476  0.0871 -0.2104
  359MOL0     C47318  10.511   5.887   8.120  0.5440  0.0645 -0.4024
  359MOL0     C47319  10.620   5.964   8.173 -0.0604 -0.1291 -0.7826
  359MOL0     C47320  10.705   6.032   8.218 -0.2834 -0.2399  0.1452
  359MOL0     C47321   9.938   6.064   7.843 -0.4483 -0.2976  1.3214
  359MOL0     C47322   9.821   6.114   7.772  0.1385 -0.0177 -0.0398
  359MOL0     H47323   9.492   6.171   7.395 -1.9169  2.5149  0.9844
  359MOL0     H47324   9.280   6.209   7.275  1.4280  0.7017 -0.1256
  359MOL0     H47325   8.924   6.087   7.499  0.4510  1.0750 -1.0538
  359MOL0     H47326   8.917   5.958   7.377 -1.4328 -0.2702  0.7588
  359MOL0     H47327   8.823   6.141   7.211  1.7585 -0.3713 -0.4852
  359MOL0     H47328   8.819   6.239   7.351  1.1109  0.0919 -2.2947
  359MOL0     H47329   8.652   6.080   7.456 -0.6845 -1.8011 -0.0512
  359MOL0     H47330   8.683   5.960   7.327  1.8269 -1.0162  0.7310
  359MOL0     H47331   8.562   6.230   7.305  0.4986 -0.9527  0.5553
  359MOL0     H47332   8.584   6.126   7.166 -0.2137 -1.6264  0.6436
  359MOL0     H47333   8.407   6.083   7.410  0.7614 -2.4935  0.1824
  359MOL0     H47334   8.415   5.962   7.294  1.0362 -0.4860  1.9096
  359MOL0     H47335   8.311   6.105   7.121  0.4293  3.6085 -1.0227
  359MOL0     H47336   8.307   6.244   7.226 -3.3095  1.0412  1.7725
  359MOL0     H47337   8.151   6.128   7.383  0.5050  1.6990 -0.9085
  359MOL0     H47338   8.080   6.137   7.224 -1.0102 -1.9182 -0.3914
  359MOL0     H47339   8.034   5.915   7.311 -0.8081 -0.0258 -1.0518
  359MOL0     H47340   8.211   5.879   7.334  2.3212  1.0737 -2.3377
  359MOL0     H47341   7.958   5.937   7.027 -1.2582 -0.8732 -0.5387
  359MOL0     H47342   7.999   5.840   6.767 -1.0039  3.9791 -0.7430
  359MOL0     H47343   8.175   5.802   6.721  3.6928  3.7626 -1.3600
  359MOL0     H47344   8.051   6.014   6.617  1.4271  3.8744 -2.6655
  359MOL0     H47345   8.218   6.037   6.666 -1.0363  2.7756 -1.6393
  359MOL0     H47346   7.967   6.091   6.822  0.0118 -1.1543 -2.0708
  359MOL0     H47347   8.127   6.134   6.889  1.3653 -1.1113 -0.3656
  359MOL0     H47348   8.148   6.270   6.671 -0.2503  2.3175  0.6106
  359MOL0     H47349   8.051   6.337   6.803  0.3000 -1.5228  1.4085
  359MOL0     H47350   7.925   6.525   6.699 -0.0272 -0.3918 -0.1452
  359MOL0     H47351   7.732   6.637   6.780  0.4061 -0.3286 -1.9787
  359MOL0     H47352   7.196   6.585   6.733  1.7225 -0.9942  0.2956
  359MOL0     H47353   7.014   6.732   6.825 -0.8054  0.0994 -1.6787
  359MOL0     H47354   6.810   6.727   6.954 -2.8548  0.0983  2.3985
  359MOL0     H47355   6.903   6.875   6.950 -2.1657  0.1139 -0.6963
  359MOL0     H47356   6.789   6.962   7.155  1.8228 -0.4019 -0.5313
  359MOL0     H47357   6.733   6.788   7.181  0.8344 -1.8364 -1.7644
  359MOL0     H47358   6.574   6.807   6.989 -1.8535 -0.1630  4.8230
  359MOL0     H47359   6.646   6.955   6.931 -1.1144  1.0015  0.1224
  359MOL0     H47360   6.507   6.889   7.194  0.4395 -2.2590 -2.0478
  359MOL0     H47361   6.587   7.049   7.164  1.8477  0.9487 -1.5857
  359MOL0     H47362   6.387   6.928   6.969 -1.0800 -0.3115  1.6302
  359MOL0     H47363   6.443   7.088   6.967 -0.8822  1.1984  1.4384
  359MOL0     H47364   6.326   7.103   7.209 -0.1825 -2.2803  1.0005
  359MOL0     H47365   6.248   6.947   7.156  0.1544 -1.3027 -1.9398
  359MOL0     H47366   6.249   7.174   6.956  0.5169  0.4407  0.7704
  359MOL0     H47367   6.127   7.058   6.982 -0.1946  0.7426 -0.4180
  359MOL0     H47368   6.193   7.281   7.178 -0.0862 -0.5779  0.5426
  359MOL0     H47369   6.077   7.143   7.198 -1.4715 -1.4056 -1.9525
  359MOL0     H47370   7.129   6.597   7.222 -0.3160 -2.6738 -0.3085
  359MOL0     H47371   7.332   6.491   7.110  0.4345 -3.5636 -3.6337
  359MOL0     H47372   7.509   6.265   6.776  0.8256 -1.6250  1.6933
  359MOL0     H47373   7.726   6.150   6.699  3.6708 -0.0730  3.4585
  359MOL0     H47374   9.084   5.948   7.549 -0.7987 -0.3424 -3.3757
  359MOL0     H47375   9.296   5.885   7.653 -1.3257  2.4693  1.5505
  359MOL0     H47376   9.697   5.808   7.688 -0.5875  0.2464 -0.1201
  359MOL0     H47377   9.881   5.728   7.816  0.1132  0.0234  0.0766
  359MOL0     H47378  10.124   6.011   8.038  0.3885  0.1058 -0.1431
  359MOL0     H47379  10.229   6.033   7.898  0.9015 -2.7510 -2.7788
  359MOL0     H47380  10.226   5.821   8.123  1.1395  0.2204  0.5841
  359MOL0     H47381  10.337   5.808   7.990  1.2789  2.6415 -0.9659
  359MOL0     H47382  10.359   5.971   8.234  2.3289 -3.7778  0.5193
  359MOL0     H47383  10.378   6.061   8.079  1.4981  0.2822  0.1852
  359MOL0     H47384  10.497   5.788   8.164 -0.3698 -0.2477 -1.3768
  359MOL0     H47385  10.546   5.867   8.018  0.2729 -2.5461 -0.0573
  359MOL0     H47386  10.784   6.080   8.271 -1.9934  2.8034  0.2034
  359MOL0     H47387  10.004   6.139   7.886  1.6649 -0.8326 -0.8361
  359MOL0     H47388   9.799   6.220   7.775 -2.7867 -0.5625  1.5915
  360MOL0     O47389   7.725   6.300   4.521 -0.5204 -0.1442  0.6029
  360MOL0     C47390   7.839   6.321   4.566  1.0875  0.5317 -0.3023
  360MOL0     O47391   7.856   6.377   4.691 -0.0215 -0.0253 -0.0610
  360MOL0     C47392   7.752   6.443   4.754 -0.2176 -0.4519  0.4958
  360MOL0     C47393   7.686   6.392   4.863  0.8805  0.1237 -0.3085
  360MOL0     C47394   7.578   6.450   4.928 -0.5239 -0.3676 -0.1665
  360MOL0     C47395   7.523   6.574   4.870 -0.3229 -0.0291 -1.2559
  360MOL0     O47396   7.426   6.651   4.927 -0.5558  0.3649  0.5056
  360MOL0     C47397   7.343   6.597   5.030  0.9504  0.7585 -0.8434
  360MOL0     C47398   7.207   6.657   5.024  0.6943  0.9749  0.0582
  360MOL0     C47399   7.136   6.661   4.880 -0.7368 -0.6768  0.4147
  360MOL0     C47400   6.990   6.700   4.905 -0.5461 -0.1805  1.0023
  360MOL0     C47401   6.893   6.665   4.794 -0.0387 -0.8518 -0.9366
  360MOL0     C47402   6.891   6.518   4.749 -0.0838 -0.2433 -0.4565
  360MOL0     C47403   6.774   6.494   4.657  0.6708 -0.0437  0.3664
  360MOL0     C47404   6.755   6.345   4.633 -0.8214 -0.5079 -0.1576
  360MOL0     N47405   6.623   6.314   4.578  0.0220  0.5613  0.9462
  360MOL0     C47406   6.591   6.223   4.478  0.1130 -0.2386 -0.2429
  360MOL0     C47407   6.458   6.231   4.468 -0.6462  0.9111 -0.6028
  360MOL0     C47408   6.384   6.154   4.366 -0.2557  0.2591  0.1772
  360MOL0     C47409   6.243   6.109   4.426  0.5938 -0.7039  0.6736
  360MOL0     C47410   6.171   6.023   4.311 -0.4954  0.6998 -0.2319
  360MOL0     C47411   6.021   6.014   4.321  0.8931 -0.3648 -0.0199
  360MOL0     O47412   5.951   5.916   4.239  0.6079  0.7721  0.6928
  360MOL0     C47413   5.818   5.908   4.246  0.0357 -0.3034 -1.4694
  360MOL0     C47414   5.733   5.970   4.338 -0.5385  0.1187 -0.8372
  360MOL0     C47415   5.594   5.952   4.327 -0.8347  0.0264  0.1201
  360MOL0     C47416   5.538   5.855   4.243 -0.0765 -0.3317  0.2856
  360MOL0     C47417   5.389   5.831   4.226 -0.2944  0.1784  0.3653
  360MOL0     O47418   5.342   5.710   4.172 -0.7200 -0.3874  0.8034
  360MOL0     C47419   5.208   5.694   4.153  0.7223  0.0528 -0.0790
  360MOL0     C47420   5.156   5.682   4.026  0.3588 -0.3588 -0.0517
  360MOL0     C47421   5.017   5.687   4.005 -0.4002  0.8257  0.0217
  360MOL0     C47422   4.929   5.688   4.115 -0.0064  0.7226  1.0845
  360MOL0     O47423   4.802   5.714   4.101  0.6945  1.2011 -0.0543
  360MOL0     C47424   4.721   5.657   3.996  0.1482  0.1837 -0.3804
  360MOL0     C47425   4.595   5.740   4.000 -1.8933  0.1871 -0.3975
  360MOL0     C47426   4.500   5.708   3.885 -0.0310  0.3647 -0.3948
  360MOL0     C47427   4.396   5.811   3.870  0.7072 -0.1356  0.4660
  360MOL0     C47428   4.284   5.781   3.769 -0.4869 -0.3277 -0.1883
  360MOL0     C47429   4.211   5.640   3.795  0.8034 -0.2682 -0.1429
  360MOL0     C47430   4.081   5.638   3.689  0.0972 -0.0526 -0.1759
  360MOL0     C47431   3.971   5.741   3.712  0.1856  0.3268  0.3202
  360MOL0    Cl47432   3.933   5.752   3.884  0.7346 -0.1124 -0.1838
  360MOL0     C47433   4.987   5.692   4.244  0.5560 -0.3467 -0.3158
  360MOL0     C47434   5.123   5.695   4.260  0.2620  0.2448 -0.5422
  360MOL0     O47435   5.323   5.925   4.264  0.3772  0.1931 -0.2694
  360MOL0     C47436   5.628   5.778   4.167  0.3015 -0.0663 -0.5398
  360MOL0     C47437   5.765   5.809   4.172  0.0157  0.2593  0.4302
  360MOL0     N47438   6.409   6.315   4.574  0.2667  0.1258  0.1617
  360MOL0     N47439   6.509   6.366   4.625 -0.0410  0.0327 -0.9629
  360MOL0     C47440   7.581   6.625   4.753  0.5389 -0.0539  0.0088
  360MOL0     C47441   7.687   6.558   4.692 -0.1345 -0.0672  0.2340
  360MOL0     C47442   7.945   6.275   4.488  0.5709 -0.7217  0.8657
  360MOL0     C47443   8.074   6.265   4.542 -0.0536 -0.8428 -0.2591
  360MOL0     C47444   8.187   6.216   4.468  0.3119 -0.2884 -0.8513
  360MOL0     C47445   8.175   6.182   4.335  0.3138  0.0628  0.1500
  360MOL0     O47446   8.292   6.133   4.262  0.3761  0.2151 -0.1251
  360MOL0     C47447   8.267   6.055   4.144  0.0167  0.2894 -0.0604
  360MOL0     C47448   8.405   6.002   4.104 -0.3027 -0.1432  0.0530
  360MOL0     C47449   8.439   5.889   4.201  0.5361 -0.0177 -0.0476
  360MOL0     C47450   8.568   5.813   4.153  0.1016  0.2588 -0.0620
  360MOL0     C47451   8.559   5.739   4.030  0.2032  0.2079 -0.1754
  360MOL0     C47452   8.547   5.674   3.929  1.0609  0.1545  0.8316
  360MOL0     C47453   8.047   6.193   4.278  0.4808 -0.2214  0.3295
  360MOL0     C47454   7.928   6.242   4.346 -0.2682  0.2071  0.2858
  360MOL0     H47455   7.714   6.295   4.904 -0.9475  0.2169  1.2902
  360MOL0     H47456   7.533   6.417   5.020  0.2691  0.4476  0.5324
  360MOL0     H47457   7.393   6.607   5.127  2.3113 -0.9857 -1.3033
  360MOL0     H47458   7.328   6.489   5.014  2.8815  0.4692 -1.0469
  360MOL0     H47459   7.221   6.756   5.068  0.2586  0.6752  0.8831
  360MOL0     H47460   7.147   6.600   5.094  2.3016  1.2943  1.7688
  360MOL0     H47461   7.135   6.560   4.840  1.7620 -1.6190  2.4237
  360MOL0     H47462   7.188   6.729   4.812 -0.5711 -0.6800  0.5389
  360MOL0     H47463   6.953   6.639   4.988  0.2974 -0.8671  0.8899
  360MOL0     H47464   6.987   6.807   4.928 -0.1603 -0.5277  2.7794
  360MOL0     H47465   6.902   6.728   4.705 -0.8303  0.2582 -0.2553
  360MOL0     H47466   6.796   6.699   4.831  1.0244  1.7788 -0.3524
  360MOL0     H47467   6.894   6.446   4.831  1.0450 -1.4004 -1.4760
  360MOL0     H47468   6.980   6.491   4.692 -0.6599 -0.5803 -1.2122
  360MOL0     H47469   6.683   6.526   4.709 -1.6890 -2.7148 -1.8196
  360MOL0     H47470   6.770   6.549   4.563  2.2648  2.1318  1.4860
  360MOL0     H47471   6.768   6.303   4.733 -0.4202  2.3787  1.1061
  360MOL0     H47472   6.838   6.315   4.569 -0.7888  2.8870 -1.9328
  360MOL0     H47473   6.670   6.175   4.422  1.5924 -1.2628  2.5301
  360MOL0     H47474   6.440   6.066   4.332 -1.3529 -0.8562  1.1426
  360MOL0     H47475   6.377   6.215   4.276  2.1244 -1.1142 -1.0429
  360MOL0     H47476   6.188   6.201   4.449  1.4073  0.5683 -2.1864
  360MOL0     H47477   6.248   6.042   4.513 -1.4378  0.5780  1.8689
  360MOL0     H47478   6.190   6.066   4.213 -1.1005 -0.8814 -1.0841
  360MOL0     H47479   6.205   5.920   4.326 -0.6943  0.8742  1.6274
  360MOL0     H47480   5.979   6.112   4.298 -1.7843 -0.9431  1.9289
  360MOL0     H47481   5.989   5.986   4.422  1.3343 -2.7196 -0.4629
  360MOL0     H47482   5.775   6.043   4.407 -1.6000 -0.0847  0.0633
  360MOL0     H47483   5.518   6.002   4.386 -0.6594  2.7870 -1.7967
  360MOL0     H47484   5.223   5.671   3.941 -1.8591  0.4225 -2.0177
  360MOL0     H47485   4.990   5.681   3.900  0.3147 -3.1108 -0.0566
  360MOL0     H47486   4.697   5.552   4.019 -0.0858  0.1256 -0.8876
  360MOL0     H47487   4.771   5.681   3.902 -3.1765 -1.0068 -2.6419
  360MOL0     H47488   4.626   5.844   3.985  0.4307 -0.6337 -1.8677
  360MOL0     H47489   4.540   5.742   4.094 -0.0675 -1.9917  0.8120
  360MOL0     H47490   4.457   5.609   3.901  1.3008 -0.3346 -0.9574
  360MOL0     H47491   4.552   5.709   3.788  1.8210 -1.5152  0.4985
  360MOL0     H47492   4.356   5.828   3.971 -1.3095 -1.1461 -0.1066
  360MOL0     H47493   4.449   5.894   3.823  1.1252 -1.1100 -0.8524
  360MOL0     H47494   4.316   5.776   3.665 -0.5829 -0.9888 -0.1893
  360MOL0     H47495   4.209   5.860   3.771  1.9857  2.3252 -2.3341
  360MOL0     H47496   4.184   5.630   3.900  2.7459  0.1661  0.4425
  360MOL0     H47497   4.279   5.557   3.773  0.5222  0.3145 -3.9992
  360MOL0     H47498   4.126   5.650   3.590 -0.8642  0.5274 -0.5588
  360MOL0     H47499   4.041   5.537   3.682 -2.0405  0.7452 -0.1624
  360MOL0     H47500   3.877   5.716   3.661  0.3309  1.4555 -0.5542
  360MOL0     H47501   4.007   5.837   3.674 -0.9956  0.5378 -0.3445
  360MOL0     H47502   4.919   5.699   4.328  1.2048 -2.1272  0.4266
  360MOL0     H47503   5.170   5.695   4.358  0.0474  1.3209 -0.4220
  360MOL0     H47504   5.598   5.691   4.110  3.2072 -1.8313  0.3870
  360MOL0     H47505   5.838   5.743   4.125  0.9150  0.7276  1.1366
  360MOL0     H47506   7.528   6.711   4.712  1.8947  0.6596 -0.3007
  360MOL0     H47507   7.714   6.609   4.600  1.7000  0.2483  0.9015
  360MOL0     H47508   8.081   6.293   4.646 -1.6448  3.3566 -1.0678
  360MOL0     H47509   8.276   6.199   4.528 -0.1846  2.6843  0.9363
  360MOL0     H47510   8.238   6.130   4.071 -0.8832  0.1393  0.1287
  360MOL0     H47511   8.195   5.972   4.147  1.9932 -1.5270 -0.5158
  360MOL0     H47512   8.393   5.964   4.002  0.1498 -0.8413  0.2530
  360MOL0     H47513   8.477   6.085   4.104 -0.2587 -0.1106  2.6132
  360MOL0     H47514   8.357   5.817   4.211  0.8681 -0.4307 -0.2395
  360MOL0     H47515   8.467   5.926   4.299 -1.2177 -2.9457  1.7280
  360MOL0     H47516   8.648   5.886   4.140  0.9356 -0.5778  0.2293
  360MOL0     H47517   8.594   5.740   4.231  0.2617  0.5895  0.1952
  360MOL0     H47518   8.521   5.627   3.836 -1.8434  2.1345  0.4827
  360MOL0     H47519   8.024   6.176   4.173 -2.2526 -0.6167  0.9318
  360MOL0     H47520   7.832   6.229   4.297  0.2638  1.1849 -1.0599
  361MOL0     O47521   4.492   7.200   1.351 -0.0743  0.0686 -0.3341
  361MOL0     C47522   4.520   7.262   1.245 -0.5548 -1.0345  0.1150
  361MOL0     O47523   4.436   7.327   1.165 -0.3234  0.5624  0.0676
  361MOL0     C47524   4.295   7.307   1.173  0.1925 -0.2042  0.1427
  361MOL0     C47525   4.231   7.298   1.048  0.2571  0.0312  0.6403
  361MOL0     C47526   4.095   7.279   1.038 -0.1768  0.0837  0.4504
  361MOL0     C47527   4.016   7.287   1.152  0.4403 -0.8483 -0.9286
  361MOL0     O47528   3.877   7.277   1.138 -0.8882 -0.0006  0.5267
  361MOL0     C47529   3.811   7.380   1.068  0.0551 -0.0516 -0.2105
  361MOL0     C47530   3.669   7.338   1.046 -0.6325  0.2274  0.3823
  361MOL0     C47531   3.582   7.453   0.989 -0.6867 -0.6697  0.6282
  361MOL0     C47532   3.441   7.402   0.988  0.0138 -1.0006  0.1550
  361MOL0     C47533   3.345   7.517   0.939  0.7280 -0.8031 -0.8234
  361MOL0     C47534   3.201   7.463   0.954  0.4592 -0.1372 -0.3401
  361MOL0     C47535   3.104   7.562   0.900 -0.5761 -0.0233  0.3432
  361MOL0     C47536   2.953   7.507   0.891  0.6791 -0.7016 -0.9288
  361MOL0     N47537   2.860   7.614   0.858 -0.6434  0.1985  0.1184
  361MOL0     C47538   2.736   7.590   0.828  0.6950 -1.0425 -0.1710
  361MOL0     C47539   2.672   7.709   0.825 -0.3531 -0.0088  0.9431
  361MOL0     C47540   2.524   7.738   0.790 -0.2450 -1.0988 -0.0539
  361MOL0     C47541   2.519   7.798   0.650  0.0081 -0.3439  0.0632
  361MOL0     C47542   2.374   7.794   0.605  0.2758 -0.6043  0.2482
  361MOL0     C47543   2.282   7.903   0.651 -0.3105  0.1158  0.3427
  361MOL0     O47544   2.151   7.885   0.614  0.5667  0.0607  0.6207
  361MOL0     C47545   2.062   7.824   0.703 -0.5525  0.4595  0.3240
  361MOL0     C47546   2.088   7.762   0.825 -0.6040  0.2985 -0.5113
  361MOL0     C47547   1.987   7.721   0.918 -0.1122 -0.6709 -0.0725
  361MOL0     C47548   1.853   7.724   0.878 -0.0392 -0.6833 -0.2119
  361MOL0     C47549   1.740   7.690   0.966 -0.1486 -0.0234 -1.5316
  361MOL0     O47550   1.612   7.675   0.915  0.3610  0.4477  0.0336
  361MOL0     C47551   1.507   7.636   0.991 -0.2275  0.1317  0.4042
  361MOL0     C47552   1.497   7.681   1.127 -0.4355 -0.1956  0.5676
  361MOL0     C47553   1.383   7.629   1.195  0.1136 -0.5413  0.0905
  361MOL0     C47554   1.290   7.542   1.136  0.8314 -0.2974 -0.8371
  361MOL0     O47555   1.197   7.490   1.226 -0.5889  0.2586 -0.1934
  361MOL0     C47556   1.131   7.361   1.203 -0.0134 -0.5561  0.8768
  361MOL0     C47557   1.073   7.306   1.336 -0.2261  0.4612  0.3043
  361MOL0     C47558   0.959   7.396   1.392 -0.4486  0.2111 -0.3234
  361MOL0     C47559   0.902   7.355   1.529  0.1276 -0.0967 -0.1791
  361MOL0     C47560   0.785   7.452   1.567 -0.2630 -0.6470 -0.4193
  361MOL0     C47561   0.721   7.426   1.702  0.7256  0.6577  0.3047
  361MOL0     C47562   0.571   7.381   1.679  0.5464 -0.2442 -0.3223
  361MOL0     C47563   0.498   7.361   1.819 -0.3254  0.1379  0.1674
  361MOL0    Cl47564   0.330   7.303   1.779  0.4342  0.1355 -0.2320
  361MOL0     C47565   1.310   7.503   1.006 -0.1225  0.0408  0.0921
  361MOL0     C47566   1.413   7.554   0.934  0.2014 -0.6786 -0.0140
  361MOL0     O47567   1.775   7.675   1.085  0.1901  0.5146 -0.1668
  361MOL0     C47568   1.824   7.771   0.744 -0.0020  0.4422  0.0544
  361MOL0     C47569   1.928   7.822   0.667 -0.7074  0.6002  0.0296
  361MOL0     N47570   2.762   7.803   0.859 -0.9962  0.1061 -0.0728
  361MOL0     N47571   2.877   7.741   0.878 -0.0846 -0.1868  0.1256
  361MOL0     C47572   4.078   7.306   1.275  0.6759 -0.9538  0.5008
  361MOL0     C47573   4.211   7.318   1.288 -0.5517  0.4008  0.2318
  361MOL0     C47574   4.673   7.270   1.214  0.6088 -0.1376 -0.1463
  361MOL0     C47575   4.714   7.347   1.100  0.1294 -0.3586  0.1269
  361MOL0     C47576   4.846   7.336   1.052  0.2151 -0.1314  0.4894
  361MOL0     C47577   4.943   7.260   1.122  0.6775  0.6845  1.0718
  361MOL0     O47578   5.077   7.256   1.091 -0.0420 -0.4326  0.3249
  361MOL0     C47579   5.131   7.362   1.010  0.3409 -0.3806  0.4786
  361MOL0     C47580   5.282   7.342   1.001 -0.9787 -0.2335 -0.5352
  361MOL0     C47581   5.357   7.353   1.138 -0.1243  0.3462  0.2148
  361MOL0     C47582   5.408   7.493   1.184  0.8967  0.5259  0.2343
  361MOL0     C47583   5.524   7.472   1.260  0.0201  0.1780  0.0323
  361MOL0     C47584   5.620   7.440   1.329 -0.2697  0.7473  1.0040
  361MOL0     C47585   4.897   7.177   1.219  0.1849  0.4080  0.4180
  361MOL0     C47586   4.758   7.173   1.269 -0.3163  0.5429  0.3156
  361MOL0     H47587   4.286   7.287   0.955 -1.1134  0.2202 -0.2238
  361MOL0     H47588   4.052   7.252   0.943 -0.9828 -0.5369  0.9730
  361MOL0     H47589   3.858   7.386   0.969  1.0096 -0.8825  0.1711
  361MOL0     H47590   3.810   7.478   1.118  0.1931 -1.7165  3.4059
  361MOL0     H47591   3.627   7.291   1.135 -1.0977 -1.2132 -0.5601
  361MOL0     H47592   3.684   7.256   0.975  1.1062  0.7421  0.1099
  361MOL0     H47593   3.617   7.492   0.893 -0.1159  0.5214  1.2927
  361MOL0     H47594   3.582   7.528   1.069 -2.9956 -0.7798  0.8006
  361MOL0     H47595   3.430   7.324   0.912 -0.8759 -1.1861  0.4578
  361MOL0     H47596   3.407   7.355   1.081 -0.2416 -0.5657  0.2896
  361MOL0     H47597   3.368   7.551   0.838 -1.2537  3.6391 -0.0195
  361MOL0     H47598   3.360   7.599   1.010  2.7248 -1.9687  0.2179
  361MOL0     H47599   3.180   7.449   1.061  2.9965  0.1544  0.2693
  361MOL0     H47600   3.194   7.366   0.903  1.6981 -1.0356  1.0928
  361MOL0     H47601   3.092   7.629   0.985  0.3000  0.3800  0.1629
  361MOL0     H47602   3.147   7.609   0.811  0.5595 -3.3666 -1.0357
  361MOL0     H47603   2.923   7.453   0.981  0.9871  0.9562  0.2086
  361MOL0     H47604   2.946   7.428   0.815 -0.3953  2.1060 -3.9595
  361MOL0     H47605   2.704   7.487   0.816  1.6157 -1.3978  0.2817
  361MOL0     H47606   2.498   7.812   0.866  0.4491 -0.1989 -0.6786
  361MOL0     H47607   2.463   7.650   0.814  0.5891 -1.0645  2.4493
  361MOL0     H47608   2.578   7.741   0.577  2.2851  2.3273 -0.3731
  361MOL0     H47609   2.556   7.901   0.653  0.4320 -0.5208  1.4204
  361MOL0     H47610   2.371   7.804   0.496 -1.5559 -0.6465  0.2646
  361MOL0     H47611   2.327   7.698   0.628  1.4397 -0.8513  1.8134
  361MOL0     H47612   2.328   7.988   0.598  0.6117  0.6610  1.9335
  361MOL0     H47613   2.295   7.918   0.758  0.2832  0.4156  0.2358
  361MOL0     H47614   2.188   7.745   0.864 -1.0793 -0.7650  0.3173
  361MOL0     H47615   2.016   7.690   1.018 -1.1062 -0.4339  0.3002
  361MOL0     H47616   1.550   7.764   1.174 -1.2576  0.0135  1.1525
  361MOL0     H47617   1.356   7.654   1.297 -0.5886 -1.3116  0.1085
  361MOL0     H47618   1.198   7.289   1.154 -1.1429  0.3174 -2.2160
  361MOL0     H47619   1.049   7.364   1.130  1.6561 -2.7608 -1.2869
  361MOL0     H47620   1.151   7.297   1.412 -1.5959 -1.1295  1.6153
  361MOL0     H47621   1.033   7.207   1.312  1.0540  0.5803 -2.6344
  361MOL0     H47622   0.878   7.378   1.321  0.3730  0.1738 -1.2739
  361MOL0     H47623   0.994   7.500   1.397  0.8080 -0.2180  0.2573
  361MOL0     H47624   0.864   7.254   1.513  1.8885 -1.1108  1.6116
  361MOL0     H47625   0.975   7.346   1.610  0.9243 -0.7706 -0.9568
  361MOL0     H47626   0.708   7.457   1.489  0.4130  4.7621 -1.1274
  361MOL0     H47627   0.828   7.553   1.571  1.8445 -1.5487  1.4429
  361MOL0     H47628   0.715   7.524   1.752  1.0671  0.8186  0.0328
  361MOL0     H47629   0.771   7.351   1.763  0.4937 -1.0746 -1.5541
  361MOL0     H47630   0.507   7.456   1.633  0.5842 -0.5753 -0.9282
  361MOL0     H47631   0.562   7.287   1.622 -1.0908 -0.0501 -0.4183
  361MOL0     H47632   0.479   7.457   1.867 -2.2709 -1.0495  1.9269
  361MOL0     H47633   0.563   7.299   1.881  1.3385  0.7766 -0.8699
  361MOL0     H47634   1.236   7.435   0.965  0.6360 -0.8744  0.2162
  361MOL0     H47635   1.420   7.531   0.828 -1.9280  1.0500 -0.6207
  361MOL0     H47636   1.721   7.761   0.711  1.0075 -2.2466 -2.7713
  361MOL0     H47637   1.896   7.862   0.571 -2.2616  3.5969  1.6503
  361MOL0     H47638   4.019   7.318   1.365  1.8940 -0.4173  1.2635
  361MOL0     H47639   4.256   7.355   1.379 -3.4864  0.0254  1.9811
  361MOL0     H47640   4.646   7.414   1.048  2.5840  1.3742 -1.0311
  361MOL0     H47641   4.877   7.393   0.965 -0.1472 -0.0531  0.4060
  361MOL0     H47642   5.090   7.459   1.039 -1.6132 -1.2425  0.7287
  361MOL0     H47643   5.079   7.341   0.916 -2.3881 -2.5581  2.3117
  361MOL0     H47644   5.305   7.243   0.963  1.1901 -0.8291  2.0013
  361MOL0     H47645   5.311   7.426   0.937 -3.2284  1.9500  1.0771
  361MOL0     H47646   5.441   7.286   1.156  0.2518  1.2727  2.2609
  361MOL0     H47647   5.282   7.328   1.214  0.2382  0.9892  0.7938
  361MOL0     H47648   5.455   7.558   1.109  1.6745 -1.2452 -0.8676
  361MOL0     H47649   5.326   7.548   1.231 -1.2778 -1.7549 -0.6660
  361MOL0     H47650   5.710   7.409   1.379  0.6316 -2.3848 -2.1366
  361MOL0     H47651   4.969   7.104   1.253  0.9997  0.1748 -1.6333
  361MOL0     H47652   4.727   7.103   1.347  0.2143 -0.5695 -0.4474
  362MOL0     O47653   3.009   2.963   7.735 -0.1793  0.9097 -0.1636
  362MOL0     C47654   3.074   2.981   7.630  0.2907 -0.2044 -0.2246
  362MOL0     O47655   3.040   3.062   7.528  0.4343  0.3771 -0.0716
  362MOL0     C47656   2.918   3.126   7.513  0.0740  0.1617 -0.4657
  362MOL0     C47657   2.791   3.093   7.564  0.3730  0.6103 -0.1126
  362MOL0     C47658   2.671   3.157   7.525 -0.7287 -0.3870  0.7532
  362MOL0     C47659   2.679   3.257   7.424  0.0885  0.5431 -0.4928
  362MOL0     O47660   2.575   3.325   7.382  0.1410 -0.3074 -0.1184
  362MOL0     C47661   2.439   3.285   7.400 -0.2963  0.5810 -0.8326
  362MOL0     C47662   2.364   3.345   7.276 -0.1164  0.4543  0.0765
  362MOL0     C47663   2.210   3.323   7.290  0.5891  0.4683 -0.2339
  362MOL0     C47664   2.151   3.386   7.163  0.4821 -0.2415 -0.4791
  362MOL0     C47665   2.006   3.329   7.127 -0.3844 -0.1694  0.4430
  362MOL0     C47666   1.909   3.346   7.241 -0.5341  0.1042 -0.1462
  362MOL0     C47667   1.765   3.341   7.207  0.4903 -0.3694 -0.7007
  362MOL0     C47668   1.717   3.479   7.161 -0.0386 -0.5944  0.1991
  362MOL0     N47669   1.569   3.497   7.130 -1.0133  0.4096 -0.5956
  362MOL0     C47670   1.473   3.539   7.224 -0.0927  0.4073  0.1853
  362MOL0     C47671   1.364   3.550   7.155  0.7482 -0.5137 -0.4323
  362MOL0     C47672   1.224   3.583   7.224 -0.6673  1.0021  0.2071
  362MOL0     C47673   1.180   3.719   7.202  0.2233 -0.2502  1.5840
  362MOL0     C47674   1.284   3.824   7.253 -0.0027 -0.3094  0.3829
  362MOL0     C47675   1.225   3.965   7.251 -0.1140  0.5296  0.3779
  362MOL0     O47676   1.174   3.987   7.115 -0.5179 -0.6892  0.7026
  362MOL0     C47677   1.088   4.096   7.100  0.1673 -0.0021 -0.3148
  362MOL0     C47678   1.069   4.209   7.184 -0.9640  1.0085  0.2031
  362MOL0     C47679   0.960   4.296   7.177  0.1934 -0.2243 -0.1744
  362MOL0     C47680   0.873   4.279   7.071  0.2685  0.4134  0.6289
  362MOL0     C47681   0.755   4.371   7.060  0.6899  0.4921  0.4107
  362MOL0     O47682   0.676   4.345   6.959  0.8171 -0.7533 -0.1318
  362MOL0     C47683   0.570   4.434   6.927  0.2809  0.3798  0.6821
  362MOL0     C47684   0.591   4.537   6.839  0.9708 -0.4151  0.3241
  362MOL0     C47685   0.488   4.631   6.820  0.7318  0.1913  0.8444
  362MOL0     C47686   0.359   4.621   6.875  0.7742 -0.1873 -0.1780
  362MOL0     O47687   0.261   4.711   6.831 -0.2494 -0.6746  0.6160
  362MOL0     C47688   0.124   4.704   6.872  0.3024 -0.2704  0.2499
  362MOL0     C47689   0.042   4.813   6.793 -0.2608 -0.4642  1.0259
  362MOL0     C47690  -0.109   4.797   6.817  0.9510  0.2789  0.6217
  362MOL0     C47691  -0.199   4.902   6.756 -0.7592 -0.8708  0.4962
  362MOL0     C47692  -0.193   5.044   6.826  0.8672  0.6818 -1.0135
  362MOL0     C47693  -0.294   5.134   6.758 -0.1216  0.5379  0.8612
  362MOL0     C47694  -0.316   5.271   6.818  0.0170 -0.3673  0.2418
  362MOL0     C47695  -0.190   5.358   6.809 -0.5330 -0.8973  0.7513
  362MOL0    Cl47696  -0.231   5.507   6.893 -0.0682 -0.1753  0.5336
  362MOL0     C47697   0.341   4.512   6.966  0.8368  0.4736  0.3520
  362MOL0     C47698   0.448   4.422   6.987  0.2996 -0.1537  0.7065
  362MOL0     O47699   0.753   4.473   7.132  0.7848  0.3561  0.5086
  362MOL0     C47700   0.894   4.175   6.981 -0.0605  0.7581 -0.1963
  362MOL0     C47701   0.995   4.085   7.002 -0.0557 -0.4106 -0.0605
  362MOL0     N47702   1.380   3.529   7.028  0.2965 -0.4865  0.1888
  362MOL0     N47703   1.507   3.499   7.012  0.1673  1.1583 -0.0059
  362MOL0     C47704   2.808   3.299   7.376  0.3405 -0.1723 -0.5664
  362MOL0     C47705   2.923   3.240   7.424  0.3724  0.8082 -0.5987
  362MOL0     C47706   3.224   2.948   7.633 -0.7918 -0.4032  0.2247
  362MOL0     C47707   3.286   2.838   7.702  0.3992 -0.3844  0.4516
  362MOL0     C47708   3.427   2.822   7.709  0.4718  0.0053  0.6182
  362MOL0     C47709   3.511   2.912   7.644 -0.7535  0.0685  0.0247
  362MOL0     O47710   3.649   2.881   7.634  0.1564  0.0587  0.2244
  362MOL0     C47711   3.740   2.990   7.605 -0.2057 -0.0275 -0.1304
  362MOL0     C47712   3.876   2.929   7.609 -1.6113  0.0319  0.6471
  362MOL0     C47713   3.981   3.040   7.573  0.1909 -0.5071  0.3007
  362MOL0     C47714   4.126   2.994   7.530  0.5286 -0.0724 -0.2669
  362MOL0     C47715   4.195   3.101   7.451  0.8508  0.7165 -0.2136
  362MOL0     C47716   4.220   3.188   7.368 -0.3252  0.5773  0.3575
  362MOL0     C47717   3.455   3.028   7.591  0.4471  0.8851  0.0742
  362MOL0     C47718   3.316   3.038   7.580 -0.4866 -0.6245  0.7387
  362MOL0     H47719   2.780   3.021   7.645  1.7105 -0.2839 -0.6966
  362MOL0     H47720   2.578   3.128   7.573 -1.2083 -1.5184 -0.8093
  362MOL0     H47721   2.397   3.330   7.491  2.4060  0.4253  0.6118
  362MOL0     H47722   2.434   3.176   7.402  1.0689  0.5097 -0.0701
  362MOL0     H47723   2.389   3.299   7.180  0.0642 -1.0020  0.7985
  362MOL0     H47724   2.382   3.453   7.276 -2.2422  0.8799 -1.2152
  362MOL0     H47725   2.170   3.361   7.385 -0.9999 -0.9129 -0.3133
  362MOL0     H47726   2.188   3.217   7.306 -0.2563  1.0155  2.9561
  362MOL0     H47727   2.156   3.493   7.181  0.0503 -0.1754 -0.7586
  362MOL0     H47728   2.220   3.355   7.084  4.3414 -2.0734  3.1813
  362MOL0     H47729   2.012   3.223   7.101  0.9101 -0.2866  1.1448
  362MOL0     H47730   1.975   3.377   7.034 -0.4552 -0.6093  0.2360
  362MOL0     H47731   1.931   3.437   7.297 -1.8372  2.0200 -2.5428
  362MOL0     H47732   1.931   3.259   7.303 -1.0586  0.5489  0.6835
  362MOL0     H47733   1.747   3.267   7.129  1.0889 -0.4649 -0.7504
  362MOL0     H47734   1.708   3.298   7.290  1.4499 -1.4852 -0.5934
  362MOL0     H47735   1.775   3.482   7.068 -1.2923 -0.2420 -0.5905
  362MOL0     H47736   1.756   3.562   7.220  0.1114 -1.5197  1.4428
  362MOL0     H47737   1.478   3.543   7.332 -0.2270  0.8350  0.1737
  362MOL0     H47738   1.225   3.557   7.330  0.4725 -0.2936 -0.0987
  362MOL0     H47739   1.157   3.508   7.181 -0.6261  0.1334  1.6035
  362MOL0     H47740   1.083   3.735   7.251 -0.3368  0.9088  0.1515
  362MOL0     H47741   1.168   3.736   7.095  2.7499  2.0628  1.5452
  362MOL0     H47742   1.307   3.798   7.357  0.4308  1.4361  0.7548
  362MOL0     H47743   1.377   3.825   7.195  0.5152  1.8298  1.1602
  362MOL0     H47744   1.302   4.042   7.263  1.5134 -0.8767 -0.5529
  362MOL0     H47745   1.143   3.970   7.323 -0.7998 -3.6827  0.1472
  362MOL0     H47746   1.134   4.222   7.270 -1.6680  3.2277  0.4609
  362MOL0     H47747   0.959   4.379   7.248 -0.0328 -1.8618  1.8150
  362MOL0     H47748   0.694   4.533   6.806  0.4358 -2.2641 -1.3506
  362MOL0     H47749   0.513   4.714   6.755  1.5112 -1.0300 -0.4573
  362MOL0     H47750   0.126   4.716   6.981  1.4327 -0.3917  0.2527
  362MOL0     H47751   0.087   4.603   6.849 -0.1111  0.3396 -1.9344
  362MOL0     H47752   0.058   4.808   6.685  0.5175  3.0306  0.8496
  362MOL0     H47753   0.065   4.913   6.831 -1.7633 -0.2800  1.5334
  362MOL0     H47754  -0.109   4.796   6.927  0.3604  0.9851  0.6332
  362MOL0     H47755  -0.146   4.704   6.774  1.5729  0.3031  0.0146
  362MOL0     H47756  -0.179   4.912   6.649  0.6403 -2.5868  0.5608
  362MOL0     H47757  -0.299   4.858   6.768 -1.2165 -0.1835 -0.5555
  362MOL0     H47758  -0.094   5.090   6.814  2.7829 -2.4004  1.1814
  362MOL0     H47759  -0.213   5.037   6.934 -0.7348  0.6174 -1.2954
  362MOL0     H47760  -0.391   5.086   6.747  0.2645  0.0047 -0.6178
  362MOL0     H47761  -0.264   5.143   6.653 -0.6543  1.8510  0.8077
  362MOL0     H47762  -0.402   5.329   6.785  0.1242 -1.4898 -2.2003
  362MOL0     H47763  -0.347   5.261   6.923 -0.8738  0.0845  0.0300
  362MOL0     H47764  -0.165   5.383   6.706 -1.5404  1.0961  0.9329
  362MOL0     H47765  -0.107   5.307   6.859  1.5833  1.5140 -0.0996
  362MOL0     H47766   0.251   4.493   7.022  0.8677 -1.6816 -0.2210
  362MOL0     H47767   0.434   4.342   7.059 -0.1283  0.0702  0.8716
  362MOL0     H47768   0.840   4.159   6.888 -3.0915  0.4604  1.4938
  362MOL0     H47769   1.003   4.000   6.935 -0.8372  0.6069 -1.5063
  362MOL0     H47770   2.820   3.384   7.310  1.9147  0.1907  0.1294
  362MOL0     H47771   3.022   3.270   7.392  1.1392 -2.1750 -1.3630
  362MOL0     H47772   3.220   2.779   7.765 -0.2230  1.4429  1.6059
  362MOL0     H47773   3.472   2.733   7.752  0.7049 -0.9849 -1.5570
  362MOL0     H47774   3.731   3.075   7.674 -3.9559  0.3887 -0.8859
  362MOL0     H47775   3.715   3.024   7.505  0.7436  0.0145 -0.3612
  362MOL0     H47776   3.888   2.904   7.715 -2.2645 -1.1751  0.4577
  362MOL0     H47777   3.880   2.844   7.541  0.9818  0.9262 -0.4315
  362MOL0     H47778   3.992   3.118   7.650  1.2316  2.1431 -2.3333
  362MOL0     H47779   3.932   3.090   7.489 -2.2965 -1.8508  0.8457
  362MOL0     H47780   4.170   2.975   7.629 -1.5034 -0.7474  0.5641
  362MOL0     H47781   4.116   2.906   7.467 -1.3419  0.3931 -0.6711
  362MOL0     H47782   4.236   3.263   7.294 -2.5268 -0.2918 -1.1209
  362MOL0     H47783   3.520   3.102   7.546 -0.0968  0.1544 -2.0006
  362MOL0     H47784   3.284   3.130   7.532 -1.4006 -1.4141 -0.2099
  363MOL0     O47785   1.141   7.918   0.854 -0.3133  0.4343 -0.1313
  363MOL0     C47786   1.164   7.828   0.778 -0.8451  0.1726  0.1256
  363MOL0     O47787   1.091   7.715   0.772  0.1766  0.0963  0.2232
  363MOL0     C47788   0.978   7.687   0.847  0.0370  0.0867  0.4179
  363MOL0     C47789   0.873   7.640   0.770 -0.2403  0.0247 -0.0049
  363MOL0     C47790   0.764   7.585   0.831  1.0127 -0.3727 -0.5794
  363MOL0     C47791   0.755   7.582   0.966 -0.9876 -0.1016 -0.1578
  363MOL0     O47792   0.640   7.528   1.011  0.3928 -0.5278  0.3995
  363MOL0     C47793   0.636   7.482   1.142 -0.3558 -0.1509  0.0307
  363MOL0     C47794   0.505   7.402   1.162  0.3230 -0.0212 -0.1663
  363MOL0     C47795   0.383   7.502   1.178  0.7836 -0.3601 -1.1165
  363MOL0     C47796   0.255   7.437   1.240 -0.6983  0.6526 -0.3273
  363MOL0     C47797   0.184   7.537   1.329  0.3639 -0.3558  0.3389
  363MOL0     C47798   0.124   7.661   1.251  0.3011  0.5205 -0.5303
  363MOL0     C47799   0.070   7.773   1.339 -0.1758  0.1363  0.3953
  363MOL0     C47800  -0.021   7.869   1.251  1.2710 -0.1780  0.1889
  363MOL0     N47801  -0.141   7.800   1.205 -0.6451 -1.1245  0.7503
  363MOL0     C47802  -0.238   7.763   1.293 -0.2989 -0.4920 -0.6804
  363MOL0     C47803  -0.324   7.688   1.215  0.1215 -0.9392  0.1590
  363MOL0     C47804  -0.468   7.661   1.256 -0.3474 -0.3057  0.8009
  363MOL0     C47805  -0.538   7.569   1.158  0.5443 -0.3348  0.5761
  363MOL0     C47806  -0.668   7.501   1.209 -0.2945 -0.9282 -0.6062
  363MOL0     C47807  -0.791   7.601   1.207 -0.3157  0.4076 -0.0121
  363MOL0     O47808  -0.926   7.548   1.222 -0.0221  0.0504 -0.7372
  363MOL0     C47809  -1.032   7.631   1.259 -0.1486 -0.0481  0.7397
  363MOL0     C47810  -1.145   7.583   1.317 -0.0453  0.0683 -0.5316
  363MOL0     C47811  -1.263   7.652   1.339  0.3295 -0.2782  0.3069
  363MOL0     C47812  -1.264   7.790   1.315  0.3072  0.1820  0.3595
  363MOL0     C47813  -1.379   7.878   1.336  0.8687  0.2659 -0.1384
  363MOL0     O47814  -1.474   7.820   1.418  0.3741 -1.1190  0.3717
  363MOL0     C47815  -1.559   7.911   1.473 -0.1979 -0.4482  0.0401
  363MOL0     C47816  -1.698   7.914   1.449 -0.2041  0.3795  0.0392
  363MOL0     C47817  -1.791   7.985   1.517  0.3325 -0.8962 -0.7128
  363MOL0     C47818  -1.735   8.073   1.615 -0.5376  0.2524  0.3700
  363MOL0     O47819  -1.807   8.167   1.681  0.6396  0.2013 -0.4463
  363MOL0     C47820  -1.876   8.262   1.594 -0.3248 -0.2838 -0.0436
  363MOL0     C47821  -1.806   8.397   1.594 -0.0577 -0.6183 -0.0855
  363MOL0     C47822  -1.770   8.449   1.726  0.3359 -1.4345 -0.3211
  363MOL0     C47823  -1.893   8.475   1.820 -0.3219 -0.9156  0.0419
  363MOL0     C47824  -1.865   8.577   1.929 -0.6740  0.2924  0.2610
  363MOL0     C47825  -1.977   8.600   2.022  0.5971 -0.9692 -0.0493
  363MOL0     C47826  -2.104   8.661   1.954  0.1012 -0.2781  0.3507
  363MOL0     C47827  -2.213   8.704   2.054  0.6465 -0.6089  0.5133
  363MOL0    Cl47828  -2.340   8.818   1.980 -0.2252  0.0074  0.1069
  363MOL0     C47829  -1.598   8.071   1.651  0.0043 -0.5310  0.3945
  363MOL0     C47830  -1.512   7.990   1.580  0.0288 -0.1194 -0.6920
  363MOL0     O47831  -1.373   7.994   1.293  0.8107 -0.3135 -0.8176
  363MOL0     C47832  -1.152   7.838   1.250 -0.0482  0.5062 -0.1528
  363MOL0     C47833  -1.039   7.762   1.222  0.1887 -0.8117  0.3076
  363MOL0     N47834  -0.270   7.666   1.089 -0.5553 -0.1882 -0.4842
  363MOL0     N47835  -0.164   7.738   1.084 -0.1237  1.1677 -0.8333
  363MOL0     C47836   0.870   7.620   1.041  0.5916 -0.1009  0.0404
  363MOL0     C47837   0.982   7.673   0.983 -0.4985 -0.6765  0.2660
  363MOL0     C47838   1.277   7.834   0.690 -0.1860  0.1145  0.1750
  363MOL0     C47839   1.333   7.717   0.631 -0.4832 -0.2167 -0.0778
  363MOL0     C47840   1.434   7.727   0.536  0.1606  0.4820  0.6447
  363MOL0     C47841   1.492   7.849   0.502 -0.5235  0.0813 -0.5144
  363MOL0     O47842   1.597   7.830   0.417  0.4263  0.0508  0.8443
  363MOL0     C47843   1.671   7.943   0.386 -1.1838  0.0256 -0.7650
  363MOL0     C47844   1.778   7.907   0.279  0.5184 -0.1354 -0.5053
  363MOL0     C47845   1.888   8.009   0.269 -0.3682 -0.6605  0.3341
  363MOL0     C47846   1.997   7.969   0.176 -0.0046  0.1809  0.3477
  363MOL0     C47847   2.083   8.081   0.145  0.0878  0.7217  0.0086
  363MOL0     C47848   2.142   8.181   0.110 -0.2547  0.3487  0.8629
  363MOL0     C47849   1.441   7.965   0.564  0.5284 -0.2138 -0.2547
  363MOL0     C47850   1.334   7.957   0.655 -0.0375 -0.7101  0.8469
  363MOL0     H47851   0.885   7.654   0.663  4.8630 -0.4414  0.2718
  363MOL0     H47852   0.680   7.541   0.777  0.5016 -1.2411  0.8694
  363MOL0     H47853   0.650   7.562   1.215  1.7411 -0.0897 -0.3806
  363MOL0     H47854   0.719   7.413   1.162  0.3961  0.7259 -0.0063
  363MOL0     H47855   0.515   7.338   1.250  0.1448 -0.1982 -0.2746
  363MOL0     H47856   0.487   7.331   1.081 -1.3643  0.4895 -0.2923
  363MOL0     H47857   0.356   7.539   1.078  0.3900  2.0321 -0.1670
  363MOL0     H47858   0.418   7.584   1.241 -0.6391 -0.9730  0.5214
  363MOL0     H47859   0.189   7.395   1.163 -1.5005 -0.6321  1.0209
  363MOL0     H47860   0.280   7.351   1.302 -0.3125 -0.7887 -2.3611
  363MOL0     H47861   0.244   7.572   1.413  0.3898  0.6011 -0.0572
  363MOL0     H47862   0.102   7.493   1.386 -0.4035  0.5593 -0.0210
  363MOL0     H47863   0.041   7.632   1.187 -1.3329  4.0483 -0.2115
  363MOL0     H47864   0.199   7.702   1.183  0.0077  2.6713  0.3690
  363MOL0     H47865   0.011   7.729   1.420 -1.4699  1.3294  0.1234
  363MOL0     H47866   0.162   7.817   1.380  0.4385 -1.1074  0.4032
  363MOL0     H47867   0.036   7.901   1.163  0.8035  1.9751  0.6046
  363MOL0     H47868  -0.053   7.952   1.316  1.0861  0.0523 -0.1928
  363MOL0     H47869  -0.237   7.789   1.398  1.5474 -1.2488 -0.4734
  363MOL0     H47870  -0.534   7.747   1.269 -1.4101 -1.2599  1.9609
  363MOL0     H47871  -0.466   7.618   1.356 -0.8620  0.7645  1.2787
  363MOL0     H47872  -0.472   7.483   1.141  0.5534 -0.2304  0.0611
  363MOL0     H47873  -0.555   7.615   1.060 -1.4885  0.5170  1.2835
  363MOL0     H47874  -0.683   7.424   1.133 -0.4574  0.6513 -2.2450
  363MOL0     H47875  -0.653   7.451   1.305  0.4921  1.6099  0.6918
  363MOL0     H47876  -0.787   7.653   1.110 -0.0715 -3.9021 -2.5484
  363MOL0     H47877  -0.775   7.669   1.291  0.7614 -0.8419  0.8179
  363MOL0     H47878  -1.146   7.477   1.339  1.6419 -0.0284 -0.7333
  363MOL0     H47879  -1.350   7.598   1.374 -0.9928  0.1207 -2.1180
  363MOL0     H47880  -1.732   7.850   1.369 -0.8559 -0.0334  0.6409
  363MOL0     H47881  -1.895   8.004   1.493  0.8433  0.5345 -1.9072
  363MOL0     H47882  -1.977   8.278   1.633  0.7640  2.5763  1.9619
  363MOL0     H47883  -1.888   8.234   1.489 -0.3036  2.9772 -1.0208
  363MOL0     H47884  -1.864   8.466   1.532 -1.3659 -3.0668 -1.7369
  363MOL0     H47885  -1.718   8.387   1.529  1.1888  0.8617  1.2887
  363MOL0     H47886  -1.715   8.544   1.718 -0.1958 -1.1421 -0.6256
  363MOL0     H47887  -1.709   8.377   1.780  0.3707 -0.6046  0.7778
  363MOL0     H47888  -1.963   8.505   1.742  0.4594  0.7126 -0.0688
  363MOL0     H47889  -1.923   8.384   1.873  0.1949  0.7421  3.4237
  363MOL0     H47890  -1.836   8.670   1.878 -1.3804  0.4639  0.1607
  363MOL0     H47891  -1.782   8.540   1.990 -0.6582  0.5538  0.3994
  363MOL0     H47892  -1.946   8.659   2.108 -1.2696 -0.8010  0.5498
  363MOL0     H47893  -2.009   8.500   2.052  0.3442 -1.0854 -0.6862
  363MOL0     H47894  -2.087   8.742   1.883  3.0676 -1.5618 -0.6001
  363MOL0     H47895  -2.139   8.588   1.880  4.6969 -0.9512 -1.5470
  363MOL0     H47896  -2.156   8.758   2.130 -0.5604 -0.8332  1.6068
  363MOL0     H47897  -2.258   8.613   2.094  0.4817 -1.4518 -1.4839
  363MOL0     H47898  -1.574   8.146   1.725  0.5656 -2.1734  1.9443
  363MOL0     H47899  -1.410   7.996   1.616  0.8591 -3.4966 -2.0682
  363MOL0     H47900  -1.153   7.939   1.209  2.5604  0.4417 -0.5091
  363MOL0     H47901  -0.961   7.823   1.177  1.2059  0.0995  3.0586
  363MOL0     H47902   0.880   7.622   1.149 -1.6929  3.3736  0.3278
  363MOL0     H47903   1.068   7.698   1.044  0.7208 -1.7096 -0.9774
  363MOL0     H47904   1.299   7.622   0.668 -0.3816  0.0008  0.5861
  363MOL0     H47905   1.479   7.633   0.506 -0.6964  0.7666 -1.6989
  363MOL0     H47906   1.721   7.985   0.473  0.5961 -0.5705 -1.4474
  363MOL0     H47907   1.611   8.025   0.344 -1.7438  1.2966  2.2154
  363MOL0     H47908   1.823   7.818   0.323  0.5453  0.3610  0.4944
  363MOL0     H47909   1.725   7.893   0.184  0.9098 -0.4046 -0.6868
  363MOL0     H47910   1.928   8.024   0.370  2.3579 -0.4980 -0.6872
  363MOL0     H47911   1.840   8.099   0.230  0.1562 -1.5542 -2.6293
  363MOL0     H47912   2.052   7.892   0.231  1.8433  1.2707  0.1277
  363MOL0     H47913   1.955   7.936   0.081  0.4136  1.9984 -0.5181
  363MOL0     H47914   2.196   8.262   0.065  1.9694 -2.2004 -1.3927
  363MOL0     H47915   1.469   8.068   0.541  0.3329 -0.3162 -0.9847
  363MOL0     H47916   1.287   8.050   0.685  1.6750  1.6106 -2.9906
  364MOL0     O47917   1.076  11.138   8.025 -0.1437 -0.2505  0.0483
  364MOL0     C47918   1.137  11.243   8.007 -0.5141 -0.4594 -0.2479
  364MOL0     O47919   1.081  11.371   8.033 -0.6157  0.1464 -0.0348
  364MOL0     C47920   0.943  11.402   8.051 -0.0734 -0.5105 -0.8543
  364MOL0     C47921   0.915  11.523   8.122 -0.4311 -0.6598 -0.7682
  364MOL0     C47922   0.782  11.552   8.137  0.5142  0.1784  0.2060
  364MOL0     C47923   0.673  11.478   8.082 -0.1596 -0.3184 -0.5702
  364MOL0     O47924   0.537  11.520   8.079  0.4247 -0.4300 -0.2556
  364MOL0     C47925   0.501  11.631   8.165 -0.6751 -0.2287 -0.0517
  364MOL0     C47926   0.352  11.630   8.178  0.6806  0.0683  0.9391
  364MOL0     C47927   0.277  11.751   8.251  0.4716  0.3931  0.6556
  364MOL0     C47928   0.339  11.762   8.395 -1.1140 -0.3649  1.1120
  364MOL0     C47929   0.249  11.839   8.499 -0.0221  0.4894  0.9053
  364MOL0     C47930   0.316  11.882   8.629  0.0888 -0.3855 -0.3693
  364MOL0     C47931   0.217  11.968   8.703 -0.0534 -0.3901  0.5502
  364MOL0     C47932   0.251  11.989   8.848 -0.2807 -0.5136 -0.0953
  364MOL0     N47933   0.148  12.064   8.928 -0.8805 -0.2191 -0.1172
  364MOL0     C47934   0.008  12.057   8.925 -0.0835  0.5080  0.4102
  364MOL0     C47935  -0.032  12.158   9.006 -0.0363  0.3412 -0.5929
  364MOL0     C47936  -0.172  12.177   9.057  0.3199  0.0083 -0.1365
  364MOL0     C47937  -0.188  12.154   9.209  0.5960 -0.3549  0.4947
  364MOL0     C47938  -0.130  12.269   9.289  0.2655  0.4360 -0.1708
  364MOL0     C47939  -0.187  12.275   9.436  0.2486 -0.0120 -0.2077
  364MOL0     O47940  -0.334  12.282   9.433  0.1480 -0.5944 -0.3342
  364MOL0     C47941  -0.402  12.242   9.536  0.2742 -0.7520 -0.5049
  364MOL0     C47942  -0.439  12.337   9.629  0.1418 -0.5405  0.0919
  364MOL0     C47943  -0.530  12.308   9.729  0.6462  0.5467  0.3333
  364MOL0     C47944  -0.600  12.181   9.733 -0.4321 -0.6875  1.2688
  364MOL0     C47945  -0.712  12.148   9.828  0.0290  0.4239  0.4703
  364MOL0     O47946  -0.801  12.061   9.787 -0.1902 -0.5358  0.0188
  364MOL0     C47947  -0.902  12.012   9.862  0.6965 -0.2308  0.3074
  364MOL0     C47948  -1.029  11.994   9.813  0.0483  0.4347 -0.1476
  364MOL0     C47949  -1.141  11.959   9.885 -0.3020  0.5112 -0.5413
  364MOL0     C47950  -1.127  11.921  10.014 -0.2436  0.0281 -0.1316
  364MOL0     O47951  -1.239  11.889  10.082 -0.2170  0.9247 -0.7457
  364MOL0     C47952  -1.228  11.835  10.217  0.4158  0.1045  0.2361
  364MOL0     C47953  -1.366  11.816  10.283 -0.7301 -0.0587 -0.3486
  364MOL0     C47954  -1.451  11.947  10.288 -0.8154 -0.3959  0.0421
  364MOL0     C47955  -1.554  11.943  10.399 -0.8783  1.1508 -0.2296
  364MOL0     C47956  -1.653  12.053  10.381 -0.1278 -0.0728  0.0091
  364MOL0     C47957  -1.761  12.057  10.499 -0.0910  1.0590 -0.3856
  364MOL0     C47958  -1.836  12.182  10.503  0.5198 -0.4871  0.8237
  364MOL0     C47959  -1.947  12.178  10.391 -0.5005  0.3010  0.3061
  364MOL0    Cl47960  -2.083  12.100  10.459  0.5276 -0.0479 -0.1886
  364MOL0     C47961  -0.998  11.922  10.065 -0.2106  0.4857 -0.7637
  364MOL0     C47962  -0.883  11.968   9.996 -0.3581 -0.0902 -0.7051
  364MOL0     O47963  -0.715  12.219   9.930 -0.4160  0.2539  0.1385
  364MOL0     C47964  -0.574  12.095   9.625 -0.0288 -0.6544 -0.3118
  364MOL0     C47965  -0.473  12.119   9.542 -0.2492 -0.2414  0.5517
  364MOL0     N47966   0.078  12.214   9.067  0.4033 -0.7819 -0.5622
  364MOL0     N47967   0.182  12.161   9.016 -0.5257 -0.7740 -0.1752
  364MOL0     C47968   0.708  11.361   8.012 -0.1288  0.1500  0.2168
  364MOL0     C47969   0.844  11.325   7.991 -0.1184 -0.3376 -0.1960
  364MOL0     C47970   1.278  11.243   7.980 -1.2752  0.3639  0.0618
  364MOL0     C47971   1.361  11.124   7.955 -0.1773  0.4189  0.0628
  364MOL0     C47972   1.503  11.130   7.946  0.7556  0.4470 -0.3105
  364MOL0     C47973   1.570  11.245   7.958 -0.0259 -0.5813 -0.4648
  364MOL0     O47974   1.705  11.270   7.950 -0.2708 -0.0349 -0.8114
  364MOL0     C47975   1.786  11.176   7.896  0.4365  0.1829  0.2245
  364MOL0     C47976   1.930  11.223   7.913  0.3107 -0.3375  0.2390
  364MOL0     C47977   2.011  11.109   7.837  0.6156 -1.0039 -0.1317
  364MOL0     C47978   2.158  11.148   7.816 -0.1730 -0.6971 -0.3490
  364MOL0     C47979   2.228  11.103   7.936  0.6387  0.0581  0.7445
  364MOL0     C47980   2.282  11.067   8.041 -0.2148 -0.0048  0.5478
  364MOL0     C47981   1.499  11.363   7.994  0.5982  0.6085  0.1912
  364MOL0     C47982   1.355  11.365   8.005 -0.0124  0.6705 -0.9295
  364MOL0     H47983   0.989  11.589   8.166 -1.4727 -0.7604  1.2652
  364MOL0     H47984   0.758  11.644   8.188  0.7605  0.5605 -0.3597
  364MOL0     H47985   0.533  11.728   8.123  0.5254 -1.2268 -1.5778
  364MOL0     H47986   0.549  11.610   8.261  0.7431 -2.3018 -1.1392
  364MOL0     H47987   0.321  11.536   8.223  3.3216 -1.5342 -0.3649
  364MOL0     H47988   0.317  11.632   8.075 -0.4688  0.1868  1.3192
  364MOL0     H47989   0.169  11.736   8.253  0.2398  1.3860 -1.3461
  364MOL0     H47990   0.283  11.848   8.199 -2.0296  0.9449  1.2691
  364MOL0     H47991   0.358  11.664   8.439  2.4848  0.1267  0.9906
  364MOL0     H47992   0.441  11.800   8.390 -1.4204  0.4833  1.0970
  364MOL0     H47993   0.158  11.785   8.527  1.2962 -1.2526  2.0499
  364MOL0     H47994   0.234  11.930   8.440 -1.2918  0.4231  1.1027
  364MOL0     H47995   0.406  11.934   8.595 -1.9220  2.6531 -1.3749
  364MOL0     H47996   0.359  11.803   8.692  0.1845 -0.8030 -0.9523
  364MOL0     H47997   0.225  12.063   8.648  0.8595 -1.7246 -1.7465
  364MOL0     H47998   0.116  11.928   8.700  0.6425 -2.1606 -1.3283
  364MOL0     H47999   0.353  12.028   8.850 -0.1534 -0.4241 -3.3387
  364MOL0     H48000   0.264  11.895   8.902  0.9902  0.3860  1.2143
  364MOL0     H48001  -0.050  11.983   8.870 -0.5564 -0.3165  1.9473
  364MOL0     H48002  -0.234  12.096   9.017  0.1849 -0.4620  0.9855
  364MOL0     H48003  -0.206  12.271   9.013 -0.6635 -0.5385 -0.5785
  364MOL0     H48004  -0.136  12.063   9.239  0.0638 -0.7462  0.2444
  364MOL0     H48005  -0.293  12.136   9.232  0.1069 -0.0453 -1.3684
  364MOL0     H48006  -0.021  12.259   9.294  0.4126  2.2579  2.4222
  364MOL0     H48007  -0.155  12.359   9.234 -0.7531  0.1272 -0.2324
  364MOL0     H48008  -0.153  12.366   9.487 -2.6641 -0.3478  2.6041
  364MOL0     H48009  -0.143  12.191   9.492 -0.1807 -0.6847 -0.8589
  364MOL0     H48010  -0.386  12.432   9.627  0.0468 -0.4678  0.6503
  364MOL0     H48011  -0.542  12.377   9.812 -2.8988 -0.4070  0.7661
  364MOL0     H48012  -1.055  12.010   9.709  0.0685 -1.6066 -0.5152
  364MOL0     H48013  -1.235  11.961   9.832 -1.2856 -2.9382  0.7743
  364MOL0     H48014  -1.161  11.887  10.287  1.0984 -2.4410  1.5975
  364MOL0     H48015  -1.198  11.731  10.203 -1.2163 -0.3410 -0.1509
  364MOL0     H48016  -1.346  11.780  10.384  2.1101 -0.0316 -0.8175
  364MOL0     H48017  -1.420  11.730  10.243 -1.2134 -0.1765  0.5511
  364MOL0     H48018  -1.487  11.966  10.186  2.3001  0.7927 -0.9640
  364MOL0     H48019  -1.391  12.035  10.312 -0.2141 -0.7980  0.0404
  364MOL0     H48020  -1.594  11.841  10.398  1.3688  0.1196  2.3647
  364MOL0     H48021  -1.507  11.942  10.497  2.6995 -1.2853 -1.7465
  364MOL0     H48022  -1.697  12.051  10.281 -0.3377 -1.2279  0.1032
  364MOL0     H48023  -1.596  12.146  10.382 -0.9121  0.4190  0.5478
  364MOL0     H48024  -1.706  12.053  10.593  0.2916 -0.7875 -0.6577
  364MOL0     H48025  -1.819  11.965  10.485  3.4393 -1.2014 -1.4636
  364MOL0     H48026  -1.893  12.196  10.596  0.5949  1.8370  0.5858
  364MOL0     H48027  -1.770  12.267  10.487  1.3630 -0.9037  1.9589
  364MOL0     H48028  -1.922  12.140  10.291 -1.6014 -1.3533  0.6200
  364MOL0     H48029  -1.976  12.281  10.367  1.0256  0.3816 -1.4230
  364MOL0     H48030  -0.999  11.902  10.172 -0.8251  2.7831 -0.2718
  364MOL0     H48031  -0.791  11.981  10.053 -2.7831  0.8999  3.3873
  364MOL0     H48032  -0.630  12.003   9.617  1.3869 -1.4643 -1.1820
  364MOL0     H48033  -0.455  12.046   9.464 -2.4353  0.4467 -0.6849
  364MOL0     H48034   0.624  11.305   7.971 -1.0170  2.3395 -1.0821
  364MOL0     H48035   0.870  11.232   7.941  1.9241 -1.0107  1.9290
  364MOL0     H48036   1.314  11.026   7.957  0.9808 -0.2521 -2.3698
  364MOL0     H48037   1.565  11.044   7.922 -0.2505 -0.5970  0.7123
  364MOL0     H48038   1.755  11.155   7.793 -2.9280 -1.4304  1.4040
  364MOL0     H48039   1.770  11.077   7.941 -2.0637 -0.5538 -2.0111
  364MOL0     H48040   1.943  11.320   7.865  1.5099 -0.4176  0.3540
  364MOL0     H48041   1.958  11.225   8.019  0.4863 -0.3536  0.1944
  364MOL0     H48042   1.967  11.126   7.738 -1.6094  1.6237  1.1612
  364MOL0     H48043   1.989  11.009   7.876  1.1440  0.0704  3.3067
  364MOL0     H48044   2.194  11.102   7.724 -2.4064  1.1432 -2.2851
  364MOL0     H48045   2.168  11.256   7.804  0.2867 -0.4679  1.7310
  364MOL0     H48046   2.328  11.047   8.136 -1.1465 -2.1671  0.6136
  364MOL0     H48047   1.553  11.455   8.012  0.8448  0.6334 -0.6334
  364MOL0     H48048   1.312  11.462   8.027 -1.3231  0.3910 -2.1444
  365MOL0     O48049   0.219   5.487   6.950 -0.4727  0.5072  0.9373
  365MOL0     C48050   0.246   5.525   6.833  0.8390 -0.5935 -0.1041
  365MOL0     O48051   0.372   5.524   6.768 -0.0273  0.5354 -0.1559
  365MOL0     C48052   0.475   5.496   6.851  0.8315 -0.2896 -0.4801
  365MOL0     C48053   0.502   5.376   6.909 -0.0329  0.6389 -0.2677
  365MOL0     C48054   0.630   5.355   6.979 -0.4594 -0.3247 -0.4444
  365MOL0     C48055   0.722   5.457   6.994 -0.0013 -0.1238 -0.7549
  365MOL0     O48056   0.842   5.452   7.058  0.2562 -0.3174 -0.2690
  365MOL0     C48057   0.844   5.369   7.175  0.3253 -0.7706 -0.6784
  365MOL0     C48058   0.765   5.433   7.290  0.3975 -0.5787  0.7711
  365MOL0     C48059   0.808   5.361   7.419  0.2231 -0.1203  0.2485
  365MOL0     C48060   0.776   5.209   7.419  0.0655  0.2220 -0.0291
  365MOL0     C48061   0.763   5.146   7.558 -0.2347  0.4063  0.4186
  365MOL0     C48062   0.872   5.179   7.662 -1.3832 -0.2423 -0.2391
  365MOL0     C48063   0.859   5.093   7.789  0.7405 -0.2071  0.2721
  365MOL0     C48064   0.962   5.144   7.891 -0.1406 -0.3770 -0.1047
  365MOL0     N48065   1.108   5.151   7.850  0.0762 -0.0175 -0.1866
  365MOL0     C48066   1.197   5.047   7.854  0.1092 -0.3372 -0.8697
  365MOL0     C48067   1.313   5.090   7.800 -0.0778 -0.0874  0.4066
  365MOL0     C48068   1.442   5.017   7.780  0.1096  0.0473  0.1744
  365MOL0     C48069   1.461   4.882   7.861 -0.7297 -0.3940  0.2517
  365MOL0     C48070   1.515   4.892   8.000  0.7013 -0.2325  0.0567
  365MOL0     C48071   1.401   4.940   8.099  0.2746 -0.4644 -0.4236
  365MOL0     O48072   1.285   4.858   8.107  0.3292  0.0670  0.6804
  365MOL0     C48073   1.177   4.902   8.174  0.1290 -0.0279 -0.3626
  365MOL0     C48074   1.193   5.011   8.263  0.1763  0.2177  0.1043
  365MOL0     C48075   1.076   5.063   8.327 -0.1902  0.2306 -0.4164
  365MOL0     C48076   0.949   5.005   8.299  0.6817  0.0504  0.2411
  365MOL0     C48077   0.830   5.053   8.366  0.6908  0.1972  0.0811
  365MOL0     O48078   0.845   5.144   8.471  0.1226  0.0559  0.1076
  365MOL0     C48079   0.737   5.192   8.535 -0.0039  0.3596  0.0319
  365MOL0     C48080   0.718   5.333   8.550 -0.3528  0.9890 -0.1580
  365MOL0     C48081   0.612   5.383   8.630  0.1257  0.9111 -0.3470
  365MOL0     C48082   0.537   5.300   8.709 -0.0115  1.0312  0.5707
  365MOL0     O48083   0.443   5.342   8.796  0.1116 -0.4571  0.2043
  365MOL0     C48084   0.423   5.485   8.817 -0.1076 -0.3541  0.5978
  365MOL0     C48085   0.321   5.538   8.716 -0.2071  0.2804  0.2129
  365MOL0     C48086   0.287   5.684   8.759  0.6900 -0.4452 -0.2359
  365MOL0     C48087   0.153   5.744   8.689 -0.7573  0.5761 -0.4410
  365MOL0     C48088   0.089   5.851   8.786  1.1786 -0.1167 -0.4740
  365MOL0     C48089  -0.038   5.926   8.730 -0.2320  0.4834 -0.7965
  365MOL0     C48090  -0.015   6.006   8.605 -0.0403 -0.2294 -0.0456
  365MOL0     C48091  -0.149   6.040   8.541 -0.2036  0.5583 -0.1625
  365MOL0    Cl48092  -0.237   6.163   8.642 -0.1333  0.2682 -0.1803
  365MOL0     C48093   0.554   5.162   8.692  0.0861 -0.4639 -0.7334
  365MOL0     C48094   0.648   5.104   8.601  0.3982 -0.0605  0.4813
  365MOL0     O48095   0.725   5.000   8.341  0.2501 -0.0146  0.1997
  365MOL0     C48096   0.942   4.899   8.210 -0.3283  0.3738  1.2998
  365MOL0     C48097   1.058   4.851   8.152 -0.5726  0.8273 -0.0094
  365MOL0     N48098   1.302   5.222   7.768 -0.1680 -0.3944  0.3649
  365MOL0     N48099   1.171   5.264   7.794  0.6994  0.0025 -0.9065
  365MOL0     C48100   0.682   5.576   6.952  0.7274 -0.9452 -0.2555
  365MOL0     C48101   0.562   5.599   6.878 -0.1077 -0.2201 -0.1835
  365MOL0     C48102   0.140   5.616   6.773  0.7120 -0.3544  0.3515
  365MOL0     C48103   0.144   5.637   6.635 -0.1894 -0.0910 -0.2477
  365MOL0     C48104   0.056   5.728   6.565 -0.0035  0.6603 -0.5934
  365MOL0     C48105  -0.047   5.780   6.638 -0.6800 -0.1523 -0.9726
  365MOL0     O48106  -0.134   5.847   6.559 -0.1843  0.1327 -0.4268
  365MOL0     C48107  -0.206   5.960   6.611 -0.2660  0.7818 -0.2135
  365MOL0     C48108  -0.343   5.929   6.664  0.1175 -0.3841 -0.1396
  365MOL0     C48109  -0.455   5.963   6.561 -0.4733  0.1331 -0.3448
  365MOL0     C48110  -0.595   5.911   6.598 -0.2745 -0.6369 -0.1038
  365MOL0     C48111  -0.675   5.964   6.485  0.7411 -0.7418 -0.2735
  365MOL0     C48112  -0.731   6.014   6.387 -0.4363  0.3154 -0.4655
  365MOL0     C48113  -0.060   5.752   6.774  0.6816 -0.0072 -0.1301
  365MOL0     C48114   0.035   5.666   6.844  0.0407 -0.5294  0.4190
  365MOL0     H48115   0.437   5.292   6.888  0.1628  0.9949 -2.5456
  365MOL0     H48116   0.656   5.258   7.020  1.8496  0.4291  0.0329
  365MOL0     H48117   0.948   5.360   7.208 -0.0955  1.8375  1.7995
  365MOL0     H48118   0.799   5.272   7.151 -1.2638 -0.3403  0.3771
  365MOL0     H48119   0.658   5.421   7.269  0.7736  1.0034 -2.7005
  365MOL0     H48120   0.800   5.533   7.317  1.3779 -0.3677 -1.1658
  365MOL0     H48121   0.755   5.410   7.502  0.2434 -1.1845  0.9191
  365MOL0     H48122   0.914   5.381   7.433  0.0129 -0.5253  3.2527
  365MOL0     H48123   0.679   5.198   7.370  0.9904 -0.4840 -1.8092
  365MOL0     H48124   0.846   5.157   7.353  0.3707  2.6511 -1.7501
  365MOL0     H48125   0.768   5.037   7.548 -2.2189  0.3135 -0.0802
  365MOL0     H48126   0.660   5.152   7.595  0.1880 -1.8588  2.2414
  365MOL0     H48127   0.869   5.286   7.684 -1.0212  0.3414 -2.6681
  365MOL0     H48128   0.969   5.165   7.613 -1.2297 -0.4704  0.1267
  365MOL0     H48129   0.756   5.108   7.823  0.4477 -0.3513 -0.5443
  365MOL0     H48130   0.867   4.986   7.767 -3.4929 -0.2190 -2.4557
  365MOL0     H48131   0.953   5.079   7.978 -1.2716  0.7490  0.6653
  365MOL0     H48132   0.938   5.248   7.916 -1.2650 -1.0988  2.0532
  365MOL0     H48133   1.190   4.944   7.887 -0.4255  0.3225  1.2384
  365MOL0     H48134   1.514   5.091   7.817  0.7955 -1.5849  2.3020
  365MOL0     H48135   1.463   5.002   7.674 -1.5587 -1.1645 -0.0266
  365MOL0     H48136   1.534   4.816   7.811 -0.8565 -1.4510  1.4162
  365MOL0     H48137   1.370   4.822   7.857  1.3466 -3.7776 -3.2155
  365MOL0     H48138   1.543   4.789   8.026 -2.2773 -1.7350 -2.1446
  365MOL0     H48139   1.602   4.958   8.007  0.8005 -0.4079  0.5573
  365MOL0     H48140   1.369   5.041   8.070  0.2066 -0.3083  0.1795
  365MOL0     H48141   1.449   4.950   8.197  0.5427  0.8423 -0.6672
  365MOL0     H48142   1.292   5.050   8.285  1.8494 -2.6829 -1.6870
  365MOL0     H48143   1.071   5.130   8.412  0.7648  1.4121 -1.2577
  365MOL0     H48144   0.774   5.390   8.476 -1.3795  0.7730 -1.1182
  365MOL0     H48145   0.601   5.491   8.628 -1.1740  0.7821 -0.9633
  365MOL0     H48146   0.517   5.539   8.829 -0.0811 -0.6469  1.7882
  365MOL0     H48147   0.372   5.498   8.913  1.8556 -3.8937  2.3104
  365MOL0     H48148   0.233   5.473   8.708 -0.1441  0.3207 -1.1351
  365MOL0     H48149   0.370   5.545   8.618  0.8179  1.4829  0.7913
  365MOL0     H48150   0.374   5.747   8.740 -1.3271  2.3270 -0.9432
  365MOL0     H48151   0.261   5.687   8.865 -2.1795  0.0905 -0.8702
  365MOL0     H48152   0.177   5.781   8.589  2.0368 -0.2924 -0.1840
  365MOL0     H48153   0.095   5.651   8.681  2.7467 -1.8261  0.0127
  365MOL0     H48154   0.163   5.926   8.815 -0.4045  0.7153  1.6806
  365MOL0     H48155   0.058   5.801   8.878  0.1240  0.4001 -0.5281
  365MOL0     H48156  -0.076   5.999   8.803 -0.3455 -1.0790  0.7749
  365MOL0     H48157  -0.119   5.855   8.712  0.9292 -0.9991 -0.3228
  365MOL0     H48158   0.037   6.098   8.634  1.2817 -0.2630 -2.0513
  365MOL0     H48159   0.042   5.946   8.533 -0.4568  0.5248 -1.0261
  365MOL0     H48160  -0.209   5.950   8.524  2.5324 -2.1111  2.8361
  365MOL0     H48161  -0.111   6.082   8.448 -0.5102 -0.2205 -0.6413
  365MOL0     H48162   0.499   5.090   8.751 -0.1124 -0.0575 -0.4192
  365MOL0     H48163   0.666   4.997   8.595  2.1649 -0.0595  3.4986
  365MOL0     H48164   0.851   4.845   8.184  0.8418 -0.1384 -2.3980
  365MOL0     H48165   1.046   4.775   8.075 -1.1889  1.4953 -0.5877
  365MOL0     H48166   0.751   5.658   6.965 -0.1262 -0.4942  1.7473
  365MOL0     H48167   0.533   5.700   6.851 -0.7124 -0.6832 -1.3732
  365MOL0     H48168   0.216   5.586   6.571 -0.9816  1.2728 -2.3257
  365MOL0     H48169   0.058   5.744   6.458  1.1803  1.5141 -0.4569
  365MOL0     H48170  -0.208   6.039   6.535  2.9278 -0.0606 -1.3362
  365MOL0     H48171  -0.153   5.993   6.700 -0.7583  1.0884 -0.0266
  365MOL0     H48172  -0.353   5.822   6.683 -1.5161 -0.1110  0.7480
  365MOL0     H48173  -0.368   5.969   6.762 -1.1920 -1.3496 -0.0499
  365MOL0     H48174  -0.419   5.915   6.470 -0.7628  1.4300 -1.1639
  365MOL0     H48175  -0.445   6.071   6.547 -2.3461  0.5952  1.4148
  365MOL0     H48176  -0.610   5.805   6.622 -2.1812 -0.9132 -2.1069
  365MOL0     H48177  -0.636   5.959   6.687  0.7275  0.5840 -0.2714
  365MOL0     H48178  -0.788   6.051   6.304 -1.8402 -0.5869  0.0464
  365MOL0     H48179  -0.140   5.794   6.835  0.7156  0.8243 -0.6371
  365MOL0     H48180   0.017   5.642   6.948 -1.0940 -0.8691  0.1603
  366MOL0     O48181   8.658   6.006   5.926 -0.3102 -0.3557  0.9259
  366MOL0     C48182   8.688   5.983   6.045 -0.0068 -0.5235  1.3085
  366MOL0     O48183   8.624   5.882   6.113  0.2645 -0.9999 -0.4380
  366MOL0     C48184   8.527   5.800   6.068  0.2361 -0.2880 -0.6261
  366MOL0     C48185   8.538   5.668   6.128 -0.3336 -0.3698  0.8595
  366MOL0     C48186   8.458   5.567   6.080  0.0743 -0.3783 -0.1526
  366MOL0     C48187   8.352   5.586   5.989 -0.7764  0.5173 -0.2631
  366MOL0     O48188   8.254   5.496   5.966 -0.0743  0.4968 -0.1157
  366MOL0     C48189   8.281   5.353   6.005  0.4034 -0.3080  0.0538
  366MOL0     C48190   8.179   5.261   5.940 -0.2073  0.9062 -0.9427
  366MOL0     C48191   8.031   5.281   5.951  0.7679  0.5277 -0.3786
  366MOL0     C48192   7.971   5.238   6.087 -0.1387  1.0765 -0.8765
  366MOL0     C48193   7.815   5.213   6.071  0.3071  0.0164  0.1037
  366MOL0     C48194   7.721   5.264   6.187 -0.2879 -0.2927  0.7222
  366MOL0     C48195   7.587   5.200   6.185 -0.1344 -0.6022 -0.0373
  366MOL0     C48196   7.495   5.292   6.101  0.2482  0.2433 -0.1089
  366MOL0     N48197   7.369   5.236   6.050 -0.4833 -0.8938 -0.0189
  366MOL0     C48198   7.260   5.223   6.136  0.3013 -0.0441  0.4865
  366MOL0     C48199   7.162   5.177   6.058 -1.3152  0.1772  0.5185
  366MOL0     C48200   7.026   5.128   6.096  0.3902  0.0643  0.2567
  366MOL0     C48201   7.013   4.978   6.059  0.9238  0.5845  0.3178
  366MOL0     C48202   6.878   4.922   6.104  1.0245  0.5986 -1.2903
  366MOL0     C48203   6.760   4.965   6.016 -0.3325 -0.1959 -0.0164
  366MOL0     O48204   6.669   5.070   6.072 -0.0008  0.9310 -0.2683
  366MOL0     C48205   6.540   5.032   6.082  1.1181  0.1563  0.1029
  366MOL0     C48206   6.498   4.932   6.171  0.0093 -0.3659  0.3015
  366MOL0     C48207   6.360   4.915   6.188  0.1151 -0.2484 -1.2777
  366MOL0     C48208   6.263   5.001   6.146 -0.8848 -0.2404  0.4678
  366MOL0     C48209   6.125   4.975   6.178 -0.4776  0.8868  0.3033
  366MOL0     O48210   6.044   5.081   6.187 -0.7253 -1.3281  0.1019
  366MOL0     C48211   5.917   5.066   6.225  0.9508 -1.0263  0.8237
  366MOL0     C48212   5.822   5.013   6.138  0.4876  0.1553  0.7320
  366MOL0     C48213   5.684   5.007   6.167 -0.0765  0.3787  0.5747
  366MOL0     C48214   5.641   5.055   6.286  0.7797 -0.1343  0.2254
  366MOL0     O48215   5.512   5.029   6.330  0.1954 -0.9267  0.4668
  366MOL0     C48216   5.399   5.033   6.239 -0.4489 -0.2440 -0.9012
  366MOL0     C48217   5.266   5.049   6.303  0.7882  0.8912  0.2152
  366MOL0     C48218   5.240   5.188   6.371  0.1675 -0.3457  0.1590
  366MOL0     C48219   5.092   5.193   6.405 -0.4075  0.3431  0.3652
  366MOL0     C48220   4.992   5.160   6.293  0.2048 -0.8029  0.2180
  366MOL0     C48221   4.857   5.211   6.338  0.5227  0.2072 -0.2707
  366MOL0     C48222   4.762   5.179   6.225  0.0858 -0.4879 -0.6296
  366MOL0     C48223   4.607   5.191   6.261 -0.0517  0.5733  0.7376
  366MOL0    Cl48224   4.507   5.115   6.134  0.1476  0.3829  0.1137
  366MOL0     C48225   5.727   5.103   6.383 -0.1234  0.2681 -0.5290
  366MOL0     C48226   5.866   5.119   6.344  0.5457 -1.0610 -0.0420
  366MOL0     O48227   6.087   4.853   6.191 -0.2074  0.3456  0.7027
  366MOL0     C48228   6.305   5.123   6.083  0.3007 -0.2823 -0.3403
  366MOL0     C48229   6.442   5.134   6.048 -0.0040  0.1094  0.2221
  366MOL0     N48230   7.211   5.159   5.926  0.3347 -0.1156 -0.2014
  366MOL0     N48231   7.331   5.208   5.920 -0.0040  0.2195  0.1444
  366MOL0     C48232   8.340   5.716   5.933 -0.1221 -0.1149  0.2041
  366MOL0     C48233   8.426   5.818   5.973  0.5798 -0.2831 -0.4509
  366MOL0     C48234   8.797   6.069   6.092  0.4206 -0.6842 -0.1047
  366MOL0     C48235   8.845   6.176   6.011  0.7660  0.0150 -0.1976
  366MOL0     C48236   8.953   6.255   6.047  0.0192  0.2837 -0.2613
  366MOL0     C48237   9.017   6.237   6.169 -0.1122 -0.8081 -0.2417
  366MOL0     O48238   9.120   6.318   6.226 -0.2075  0.6928  0.1296
  366MOL0     C48239   9.223   6.345   6.131 -0.1433 -0.7120 -0.0252
  366MOL0     C48240   9.363   6.367   6.196  0.6281 -0.2386 -0.1664
  366MOL0     C48241   9.459   6.429   6.094 -0.0921 -0.1651  0.4293
  366MOL0     C48242   9.577   6.485   6.173 -0.2299  0.6812  0.2059
  366MOL0     C48243   9.696   6.513   6.091  0.1032  0.0533  0.2273
  366MOL0     C48244   9.800   6.528   6.031 -0.6524  0.1045 -0.2408
  366MOL0     C48245   8.977   6.127   6.250 -0.4489  0.0179 -0.8032
  366MOL0     C48246   8.865   6.043   6.216  0.8369 -0.3792 -0.2506
  366MOL0     H48247   8.624   5.656   6.192  0.0699  1.8849  0.8498
  366MOL0     H48248   8.464   5.467   6.122 -0.1909 -1.0652 -1.6749
  366MOL0     H48249   8.281   5.331   6.113 -0.0276 -1.2197 -0.1176
  366MOL0     H48250   8.381   5.320   5.974  0.9861 -0.5290  2.0264
  366MOL0     H48251   8.203   5.159   5.973  0.6392  0.6711 -2.1876
  366MOL0     H48252   8.201   5.263   5.833  2.2659 -1.1098 -0.5805
  366MOL0     H48253   7.990   5.221   5.870 -1.1061  1.7658 -0.4157
  366MOL0     H48254   7.996   5.383   5.931  0.3250  0.4065 -0.2507
  366MOL0     H48255   8.013   5.146   6.129 -2.5075  1.2585  2.2623
  366MOL0     H48256   7.997   5.323   6.151  4.2063 -0.8639  0.3174
  366MOL0     H48257   7.813   5.104   6.067  2.1973 -0.2493  3.0772
  366MOL0     H48258   7.772   5.263   5.983 -2.0457 -2.7498 -0.4667
  366MOL0     H48259   7.707   5.372   6.175 -1.2708 -0.6367 -2.0694
  366MOL0     H48260   7.779   5.239   6.276  5.2586  1.3664 -1.9137
  366MOL0     H48261   7.600   5.096   6.153  1.6619 -0.2511 -0.5643
  366MOL0     H48262   7.553   5.191   6.288  1.6716  1.6544  0.8465
  366MOL0     H48263   7.553   5.330   6.016  1.8736 -0.6507  0.5497
  366MOL0     H48264   7.463   5.378   6.161 -1.1672  0.7205 -1.4672
  366MOL0     H48265   7.263   5.245   6.242  0.1416  0.4594  0.3886
  366MOL0     H48266   6.947   5.183   6.045  0.5601 -0.8094 -0.9768
  366MOL0     H48267   7.016   5.130   6.205  0.6231  0.8313  0.2686
  366MOL0     H48268   7.094   4.934   6.119  0.1675 -1.1841  0.0972
  366MOL0     H48269   7.031   4.960   5.953 -2.5366  3.1446 -0.8682
  366MOL0     H48270   6.880   4.813   6.118 -0.1608  0.6812 -0.2609
  366MOL0     H48271   6.857   4.958   6.205 -0.0883  1.3597 -1.7742
  366MOL0     H48272   6.708   4.870   5.999  0.2329 -0.7264  1.1435
  366MOL0     H48273   6.797   5.000   5.919  2.2335  1.4940  1.4418
  366MOL0     H48274   6.575   4.867   6.210 -1.2179 -2.1648 -0.1547
  366MOL0     H48275   6.343   4.832   6.256  1.2735 -0.2137 -0.9266
  366MOL0     H48276   5.862   4.981   6.043  2.0340  0.6088  1.2013
  366MOL0     H48277   5.609   4.963   6.101 -0.7373  2.0764  0.1464
  366MOL0     H48278   5.400   4.935   6.189  2.0416 -0.3012 -0.8962
  366MOL0     H48279   5.416   5.109   6.162  0.0204  0.6647  0.0751
  366MOL0     H48280   5.243   4.977   6.382 -1.5055  1.5332  0.1964
  366MOL0     H48281   5.196   5.035   6.221  1.8239  0.9960 -0.7096
  366MOL0     H48282   5.255   5.264   6.294  2.0790 -1.9010 -1.1070
  366MOL0     H48283   5.306   5.203   6.457 -2.5138 -3.3959  3.0430
  366MOL0     H48284   5.061   5.132   6.490 -0.4673 -0.3324 -0.1343
  366MOL0     H48285   5.060   5.292   6.440  1.9557  0.5209  2.2412
  366MOL0     H48286   4.985   5.051   6.285  1.5085 -0.8614 -0.4988
  366MOL0     H48287   5.028   5.202   6.199 -0.9842 -0.1905  0.0242
  366MOL0     H48288   4.850   5.316   6.368  2.4071  1.0797 -2.6367
  366MOL0     H48289   4.821   5.159   6.427 -3.1456  2.2694 -0.3565
  366MOL0     H48290   4.790   5.239   6.139  1.9382 -1.9472 -1.1072
  366MOL0     H48291   4.781   5.078   6.187  0.9862 -0.4332 -0.3310
  366MOL0     H48292   4.576   5.296   6.269 -0.5822  0.5102 -0.3462
  366MOL0     H48293   4.576   5.132   6.348 -3.7346 -0.6447 -1.1720
  366MOL0     H48294   5.693   5.135   6.481  1.2789 -0.5778  0.2595
  366MOL0     H48295   5.940   5.159   6.413  0.7447 -0.2427 -0.7182
  366MOL0     H48296   6.233   5.198   6.055  0.9205  0.3953 -0.1547
  366MOL0     H48297   6.486   5.226   6.010 -0.4608  0.6163  0.9031
  366MOL0     H48298   8.253   5.741   5.874  1.0694  0.8004 -1.2656
  366MOL0     H48299   8.414   5.915   5.925  1.2865 -0.2937 -0.6713
  366MOL0     H48300   8.788   6.189   5.919 -1.4928 -2.3331  0.7461
  366MOL0     H48301   8.972   6.343   5.986  2.1344 -0.8400 -1.3161
  366MOL0     H48302   9.191   6.434   6.076  1.2971 -0.5818 -0.7086
  366MOL0     H48303   9.231   6.262   6.061 -3.2363 -0.8852 -0.2928
  366MOL0     H48304   9.347   6.438   6.277 -0.7576 -2.1302  1.3182
  366MOL0     H48305   9.405   6.282   6.252 -2.1899 -0.9492  1.0666
  366MOL0     H48306   9.408   6.501   6.028  2.9774  0.2201 -1.7442
  366MOL0     H48307   9.494   6.356   6.020 -0.4351 -0.3191  0.4158
  366MOL0     H48308   9.542   6.574   6.225 -1.0564 -0.0466  0.9434
  366MOL0     H48309   9.609   6.423   6.257  2.1770 -1.2810 -1.9760
  366MOL0     H48310   9.901   6.547   6.000  0.4255 -1.1142  2.2417
  366MOL0     H48311   9.015   6.103   6.349  0.8355  2.2405 -0.6943
  366MOL0     H48312   8.837   5.959   6.279  4.3037 -1.4496  0.0415
  367MOL0     O48313   3.140   3.485   1.848 -0.2205  0.5785  0.0966
  367MOL0     C48314   3.210   3.454   1.751  0.5271 -0.1628  0.6174
  367MOL0     O48315   3.225   3.529   1.637 -0.5474 -0.6223 -0.6691
  367MOL0     C48316   3.152   3.642   1.627 -0.1662  0.2411 -0.4876
  367MOL0     C48317   3.221   3.768   1.625  0.7576 -0.0380  0.1599
  367MOL0     C48318   3.155   3.887   1.640  0.5042 -0.2242  0.7586
  367MOL0     C48319   3.015   3.891   1.636  0.3351  0.0550  0.2249
  367MOL0     O48320   2.964   4.016   1.659  0.4773  0.7635  0.3504
  367MOL0     C48321   2.832   4.019   1.718  0.0841 -0.4298 -0.0119
  367MOL0     C48322   2.798   4.161   1.725  0.0896  0.2860 -0.5546
  367MOL0     C48323   2.647   4.183   1.768 -0.1825 -0.5960  0.2190
  367MOL0     C48324   2.600   4.334   1.755 -0.3286  0.4379 -0.1692
  367MOL0     C48325   2.446   4.359   1.746  0.4181  0.2215  0.5545
  367MOL0     C48326   2.377   4.339   1.884  0.4066  1.0779 -0.5688
  367MOL0     C48327   2.229   4.367   1.895 -0.1409  0.0397  0.2425
  367MOL0     C48328   2.182   4.352   2.043 -0.0053  0.0804  0.2080
  367MOL0     N48329   2.032   4.346   2.036 -0.1454  0.3894 -0.4405
  367MOL0     C48330   1.953   4.441   1.987  1.0911 -0.0446 -0.0144
  367MOL0     C48331   1.828   4.391   1.985 -0.1603 -0.1658 -0.2742
  367MOL0     C48332   1.714   4.468   1.935  0.3165  0.6846 -1.2268
  367MOL0     C48333   1.721   4.512   1.795 -0.5524 -0.3565 -0.7309
  367MOL0     C48334   1.591   4.592   1.748 -0.0186  0.4003 -0.0456
  367MOL0     C48335   1.581   4.724   1.819  1.0053  0.0390  0.4667
  367MOL0     O48336   1.503   4.715   1.933  0.0111 -0.3196 -0.5211
  367MOL0     C48337   1.365   4.705   1.928 -0.9852 -0.0999  0.0753
  367MOL0     C48338   1.286   4.720   1.816 -0.6363 -0.2789  0.3610
  367MOL0     C48339   1.150   4.709   1.825  0.9203  0.4121 -0.7269
  367MOL0     C48340   1.084   4.673   1.945  0.7164 -0.0215  0.2139
  367MOL0     C48341   0.938   4.647   1.953  0.7174  0.0721  0.0437
  367MOL0     O48342   0.875   4.637   2.074  0.6681 -0.5296  0.0698
  367MOL0     C48343   0.740   4.635   2.059  0.0680  0.1002  0.1169
  367MOL0     C48344   0.670   4.530   2.011  0.0425 -0.0420 -0.5651
  367MOL0     C48345   0.531   4.536   1.990  0.0625 -0.4966 -0.3381
  367MOL0     C48346   0.459   4.657   2.012 -0.3927 -0.0367  0.0122
  367MOL0     O48347   0.323   4.670   2.002  0.2084 -0.4097  0.1375
  367MOL0     C48348   0.256   4.578   1.918  0.2359 -0.4143 -0.9574
  367MOL0     C48349   0.102   4.613   1.931 -0.5005 -1.3737  0.3685
  367MOL0     C48350   0.046   4.609   2.069  0.2604 -0.6106 -0.6374
  367MOL0     C48351  -0.100   4.593   2.074  0.4323 -0.3548 -0.5263
  367MOL0     C48352  -0.181   4.714   2.016 -0.4684  0.9185  0.0984
  367MOL0     C48353  -0.332   4.716   2.058 -1.0439 -0.4274 -0.6080
  367MOL0     C48354  -0.415   4.806   1.970  1.0267 -0.1952  0.7972
  367MOL0     C48355  -0.531   4.887   2.037  0.3826 -1.0602  0.1219
  367MOL0    Cl48356  -0.487   5.015   2.155  0.0089  0.1393  0.2154
  367MOL0     C48357   0.532   4.764   2.060 -0.4054  0.5888 -0.0604
  367MOL0     C48358   0.672   4.755   2.082 -0.7004  0.1156 -0.2555
  367MOL0     O48359   0.880   4.631   1.843  0.0499  0.0182 -0.2862
  367MOL0     C48360   1.168   4.664   2.058  0.5229  0.0516 -0.3366
  367MOL0     C48361   1.306   4.695   2.054 -0.1768  0.2141  0.2494
  367MOL0     N48362   1.840   4.260   2.027  0.1484 -0.0053 -0.2585
  367MOL0     N48363   1.962   4.234   2.057 -0.6227  0.5997  0.8397
  367MOL0     C48364   2.942   3.768   1.633  0.2259  0.6797  0.2999
  367MOL0     C48365   3.012   3.643   1.629  0.5581 -0.3642 -0.4148
  367MOL0     C48366   3.304   3.341   1.767 -0.1038 -0.2826 -0.3836
  367MOL0     C48367   3.300   3.260   1.880  1.1229  0.0039  0.4969
  367MOL0     C48368   3.393   3.160   1.916  0.3685 -0.2988  0.4890
  367MOL0     C48369   3.504   3.145   1.833  0.4824  0.2631  0.1908
  367MOL0     O48370   3.608   3.055   1.849 -0.2314  0.7741 -0.7059
  367MOL0     C48371   3.607   2.974   1.974  0.3180 -0.6309  1.0498
  367MOL0     C48372   3.648   3.054   2.101 -0.1960 -0.4358  0.3108
  367MOL0     C48373   3.683   2.971   2.224 -1.0232  0.2510  0.0079
  367MOL0     C48374   3.667   3.071   2.346 -0.6834 -0.2852 -0.5998
  367MOL0     C48375   3.701   2.998   2.471 -0.3327  1.2212 -0.5017
  367MOL0     C48376   3.744   2.955   2.579  0.1810 -0.3681  0.2986
  367MOL0     C48377   3.498   3.214   1.709 -0.1203  0.0477 -0.9506
  367MOL0     C48378   3.405   3.310   1.676 -0.6371 -0.7470  0.2716
  367MOL0     H48379   3.330   3.772   1.632  0.6927 -0.5191  2.1930
  367MOL0     H48380   3.218   3.974   1.658 -1.4040  1.5538 -0.6751
  367MOL0     H48381   2.825   3.980   1.820  2.8176  0.4960  0.6089
  367MOL0     H48382   2.760   3.967   1.653  0.3219  0.1289 -0.7259
  367MOL0     H48383   2.807   4.217   1.631 -1.3990  0.6344 -0.5174
  367MOL0     H48384   2.869   4.199   1.800 -0.6908  1.6159 -0.4531
  367MOL0     H48385   2.611   4.146   1.864 -0.2993  1.2567  0.9221
  367MOL0     H48386   2.591   4.127   1.693  0.2898 -0.6152 -0.1249
  367MOL0     H48387   2.639   4.385   1.844  0.4933  1.2397 -0.9683
  367MOL0     H48388   2.647   4.373   1.664 -0.1158 -2.1531 -1.2316
  367MOL0     H48389   2.408   4.285   1.674  0.8100  2.3072 -1.9167
  367MOL0     H48390   2.430   4.462   1.713 -2.9655 -0.0888  0.8735
  367MOL0     H48391   2.428   4.398   1.960  3.7828 -1.2475 -0.8366
  367MOL0     H48392   2.399   4.239   1.921  0.1986  1.0838 -0.4236
  367MOL0     H48393   2.208   4.471   1.866 -1.4797 -0.6037 -1.2554
  367MOL0     H48394   2.167   4.308   1.827 -2.9300 -0.0843  2.6781
  367MOL0     H48395   2.200   4.433   2.113 -2.0152 -0.0351  0.9324
  367MOL0     H48396   2.229   4.260   2.080  2.1452 -0.1545 -2.7028
  367MOL0     H48397   1.985   4.537   1.947  3.3738 -0.0812  1.5362
  367MOL0     H48398   1.712   4.558   1.997 -1.9525 -1.1721  1.6631
  367MOL0     H48399   1.620   4.414   1.953 -0.2804  2.5062  1.9018
  367MOL0     H48400   1.751   4.431   1.728  0.8687  1.0565 -1.8812
  367MOL0     H48401   1.805   4.582   1.794  1.3366 -2.4083  1.6742
  367MOL0     H48402   1.608   4.618   1.643  1.1621  4.2696  0.9602
  367MOL0     H48403   1.503   4.527   1.754 -0.0216  0.4495  0.4455
  367MOL0     H48404   1.543   4.801   1.751  1.0791 -0.1501  0.2078
  367MOL0     H48405   1.674   4.766   1.858  0.3113  0.0660  2.1734
  367MOL0     H48406   1.328   4.740   1.718  1.9996  0.4735  1.5613
  367MOL0     H48407   1.096   4.704   1.730  0.1314 -2.8564 -0.2054
  367MOL0     H48408   0.735   4.447   1.987  0.5446  1.0651 -3.5800
  367MOL0     H48409   0.494   4.439   1.958 -0.1557 -1.4569  2.4650
  367MOL0     H48410   0.279   4.474   1.942  2.0582  0.4802  1.6497
  367MOL0     H48411   0.296   4.597   1.818  2.0322  0.7541 -0.0759
  367MOL0     H48412   0.041   4.555   1.860 -2.6927  1.6035 -0.4037
  367MOL0     H48413   0.091   4.715   1.891 -1.7158 -1.4588  0.4531
  367MOL0     H48414   0.075   4.704   2.115 -0.6000 -1.4327  1.7536
  367MOL0     H48415   0.088   4.527   2.128 -1.3663 -0.7304  0.4198
  367MOL0     H48416  -0.126   4.499   2.023  0.2078  0.0301 -1.1342
  367MOL0     H48417  -0.137   4.576   2.175 -2.4706 -0.8388 -1.5832
  367MOL0     H48418  -0.182   4.702   1.907  0.3258 -0.2240  0.2034
  367MOL0     H48419  -0.133   4.803   2.059  0.7114 -1.2393  3.7186
  367MOL0     H48420  -0.333   4.745   2.163  3.2574 -2.3318  0.1471
  367MOL0     H48421  -0.391   4.624   2.045 -1.2369 -0.3669 -0.1808
  367MOL0     H48422  -0.353   4.874   1.911  0.1845  0.2284  0.3911
  367MOL0     H48423  -0.456   4.737   1.896  1.6418  1.2787 -1.0118
  367MOL0     H48424  -0.598   4.814   2.084  1.6957 -2.9657 -0.8304
  367MOL0     H48425  -0.579   4.933   1.950 -1.0613 -0.9562  0.9492
  367MOL0     H48426   0.473   4.850   2.089 -4.2375 -1.4460 -1.1288
  367MOL0     H48427   0.736   4.837   2.113  0.6259 -1.8932  2.7165
  367MOL0     H48428   1.129   4.633   2.155  2.9528 -3.5027 -0.3068
  367MOL0     H48429   1.365   4.698   2.145  1.2443  0.4037 -0.6408
  367MOL0     H48430   2.834   3.757   1.637  0.3169 -2.1766 -1.9422
  367MOL0     H48431   2.944   3.559   1.639 -3.4924  2.7022  0.6766
  367MOL0     H48432   3.206   3.276   1.931  0.7394  1.9410 -0.7025
  367MOL0     H48433   3.381   3.110   2.012  1.5932  1.0661  1.3940
  367MOL0     H48434   3.677   2.895   1.945  0.7912  1.3478 -4.3420
  367MOL0     H48435   3.509   2.933   1.998 -0.5111 -0.6591 -2.0746
  367MOL0     H48436   3.741   3.103   2.070 -0.1157 -0.3517  0.6819
  367MOL0     H48437   3.569   3.127   2.125  0.8125  0.6188  0.5459
  367MOL0     H48438   3.790   2.953   2.211 -0.8856  2.5525 -3.8312
  367MOL0     H48439   3.619   2.884   2.238  0.4116 -0.7729  0.4016
  367MOL0     H48440   3.730   3.159   2.331 -1.5093 -0.0744 -3.3245
  367MOL0     H48441   3.561   3.098   2.350 -0.8022 -0.5909 -1.4640
  367MOL0     H48442   3.795   2.918   2.665  2.4915 -0.7763 -1.1509
  367MOL0     H48443   3.571   3.184   1.635  1.3968 -0.0884  0.5487
  367MOL0     H48444   3.411   3.365   1.583 -1.5029 -0.0267  0.6303
  368MOL0     O48445  10.051   7.441  10.677  0.5534 -0.0273 -0.3591
  368MOL0     C48446  10.077   7.525  10.762  0.0671  0.8685  0.4296
  368MOL0     O48447   9.998   7.558  10.869 -0.2235 -0.1680 -0.0503
  368MOL0     C48448   9.861   7.531  10.864 -0.0678 -0.2228  0.4617
  368MOL0     C48449   9.773   7.548  10.749 -0.0278  0.2728  0.2374
  368MOL0     C48450   9.649   7.504  10.752 -0.0391  0.6352  0.6977
  368MOL0     C48451   9.589   7.459  10.872  0.3011 -0.1164 -0.0681
  368MOL0     O48452   9.461   7.421  10.854  0.6019 -0.0503 -0.1706
  368MOL0     C48453   9.429   7.299  10.921  0.2037 -0.1413 -0.2054
  368MOL0     C48454   9.334   7.323  11.039  0.6078 -0.5827  0.3957
  368MOL0     C48455   9.197   7.353  10.992  0.1901  0.4074  0.2206
  368MOL0     C48456   9.116   7.399  11.111  0.0887  0.0187 -0.1252
  368MOL0     C48457   8.993   7.472  11.053 -0.1014  0.1280 -0.1265
  368MOL0     C48458   8.886   7.513  11.150  0.1782 -0.3979  0.3793
  368MOL0     C48459   8.931   7.640  11.229  0.4088  0.2915  0.4732
  368MOL0     C48460   8.816   7.713  11.299 -0.0252  0.1449  0.1989
  368MOL0     N48461   8.722   7.622  11.369  0.1047 -0.0556  1.1148
  368MOL0     C48462   8.595   7.597  11.324  1.0149  0.7169  0.1917
  368MOL0     C48463   8.534   7.553  11.437  0.3427  0.0604  0.1144
  368MOL0     C48464   8.390   7.505  11.452  0.1987 -0.5867  0.7309
  368MOL0     C48465   8.312   7.580  11.557  0.0450  0.3058  0.0164
  368MOL0     C48466   8.268   7.729  11.517  0.2190 -0.2131  0.2196
  368MOL0     C48467   8.128   7.784  11.578 -0.2449  0.7161  0.1569
  368MOL0     O48468   8.029   7.691  11.541  1.0514  0.3723  0.3421
  368MOL0     C48469   7.903   7.722  11.589 -0.4262  1.0648  0.0450
  368MOL0     C48470   7.872   7.813  11.688  0.0188 -0.1251  0.4779
  368MOL0     C48471   7.738   7.831  11.724  0.9397  0.6516 -0.2479
  368MOL0     C48472   7.633   7.759  11.665  0.6315  0.0313 -0.2033
  368MOL0     C48473   7.490   7.779  11.713  0.3704  0.4671  0.4531
  368MOL0     O48474   7.392   7.702  11.654 -0.0972  0.1638 -0.2619
  368MOL0     C48475   7.269   7.723  11.691  0.1615 -0.2329 -0.8673
  368MOL0     C48476   7.205   7.845  11.668 -0.3210 -0.8799  0.5337
  368MOL0     C48477   7.070   7.852  11.707 -0.1405 -0.4360  0.1829
  368MOL0     C48478   6.994   7.751  11.765 -0.1340  0.6298 -0.5112
  368MOL0     O48479   6.866   7.755  11.812 -0.1945 -0.5753  1.0396
  368MOL0     C48480   6.780   7.870  11.807  0.7440 -0.9638  0.2744
  368MOL0     C48481   6.663   7.852  11.897  0.7818 -0.0008 -0.3849
  368MOL0     C48482   6.540   7.937  11.863 -0.4398 -0.0178  0.4475
  368MOL0     C48483   6.445   7.914  11.976  0.3209 -0.2353 -0.0070
  368MOL0     C48484   6.311   7.991  11.941 -0.4759  0.7572 -0.5519
  368MOL0     C48485   6.221   7.993  12.073 -0.1351  0.7061  0.0815
  368MOL0     C48486   6.082   8.052  12.034 -0.8784 -0.3287  0.7314
  368MOL0     C48487   6.002   7.942  11.963  0.0843 -0.6973 -0.1062
  368MOL0    Cl48488   5.826   7.981  11.960 -0.1236 -0.0144  0.6514
  368MOL0     C48489   7.063   7.632  11.776 -0.4974 -0.3660  0.1062
  368MOL0     C48490   7.199   7.613  11.744 -0.5372 -1.1899 -0.8149
  368MOL0     O48491   7.472   7.864  11.795 -0.0105 -0.6235 -0.0293
  368MOL0     C48492   7.661   7.663  11.572 -0.2125 -0.3912  0.0814
  368MOL0     C48493   7.797   7.641  11.538  0.8905 -0.0495  0.2051
  368MOL0     N48494   8.621   7.555  11.544 -0.1333  0.3738  0.6447
  368MOL0     N48495   8.738   7.585  11.500 -0.4096 -0.0368  0.2608
  368MOL0     C48496   9.653   7.460  10.995 -0.4121 -0.7921  0.4293
  368MOL0     C48497   9.793   7.494  10.981 -0.4861 -0.5048  0.0729
  368MOL0     C48498  10.210   7.574  10.738  0.2620 -0.2456  0.2137
  368MOL0     C48499  10.261   7.684  10.818  0.0470  0.6520  0.2608
  368MOL0     C48500  10.391   7.740  10.800  0.3833 -0.1682 -0.3563
  368MOL0     C48501  10.472   7.688  10.696 -0.0434 -0.1917  0.1225
  368MOL0     O48502  10.599   7.732  10.668  0.5412  0.3348  0.6170
  368MOL0     C48503  10.646   7.854  10.730 -0.3913  0.2191 -0.0118
  368MOL0     C48504  10.792   7.885  10.701 -0.0030 -0.4615  0.3107
  368MOL0     C48505  10.812   7.934  10.555 -0.5924 -0.0951  0.3667
  368MOL0     C48506  10.952   7.987  10.530  0.2585  0.7225  0.2977
  368MOL0     C48507  11.042   7.880  10.518  0.3902 -1.2694  0.1927
  368MOL0     C48508  11.114   7.781  10.512  0.1121 -0.3243 -0.4299
  368MOL0     C48509  10.424   7.571  10.627 -0.7939  0.0509 -0.2191
  368MOL0     C48510  10.304   7.508  10.655 -1.1373  0.7835 -1.1417
  368MOL0     H48511   9.820   7.590  10.661  1.0753  0.1598  0.7596
  368MOL0     H48512   9.592   7.504  10.660  0.8048  1.4830  0.1565
  368MOL0     H48513   9.519   7.248  10.955  0.5255 -0.1848 -1.1095
  368MOL0     H48514   9.379   7.228  10.854 -2.6388  0.9197  0.6011
  368MOL0     H48515   9.366   7.408  11.100  1.3426 -0.8394  0.3674
  368MOL0     H48516   9.324   7.239  11.109  0.0219 -2.7203 -2.1168
  368MOL0     H48517   9.151   7.259  10.959  0.3031 -0.5106  2.4816
  368MOL0     H48518   9.206   7.431  10.916 -1.2261  1.5526  1.1921
  368MOL0     H48519   9.087   7.325  11.186  0.9916 -1.3900 -1.1293
  368MOL0     H48520   9.176   7.468  11.172 -0.7548 -2.0280  3.2852
  368MOL0     H48521   8.937   7.402  10.990 -1.4788  0.3340  0.8314
  368MOL0     H48522   9.025   7.557  10.991 -1.8370 -0.6118 -2.1554
  368MOL0     H48523   8.868   7.431  11.221  1.4378  0.8029  2.1828
  368MOL0     H48524   8.800   7.537  11.087  0.4692  2.8059  1.0161
  368MOL0     H48525   8.989   7.605  11.315 -0.4566  0.0089  0.9563
  368MOL0     H48526   8.976   7.707  11.155  0.3016 -0.2838 -0.1190
  368MOL0     H48527   8.762   7.764  11.219  0.9400  2.1867  0.7850
  368MOL0     H48528   8.854   7.793  11.364 -0.4124 -0.9134  1.7858
  368MOL0     H48529   8.563   7.607  11.221  0.9853  1.0819  0.2375
  368MOL0     H48530   8.402   7.399  11.478  2.6691 -0.4465  0.4054
  368MOL0     H48531   8.347   7.511  11.352  0.2616  1.7632  0.8003
  368MOL0     H48532   8.367   7.587  11.651 -0.1135 -1.5986  0.2795
  368MOL0     H48533   8.227   7.516  11.579 -0.0950  0.7417  0.7756
  368MOL0     H48534   8.346   7.801  11.543 -1.6766  1.7437  0.7277
  368MOL0     H48535   8.246   7.726  11.410 -2.5454 -0.0879  0.7205
  368MOL0     H48536   8.102   7.881  11.535 -2.4341  0.0051 -0.2634
  368MOL0     H48537   8.136   7.791  11.687 -1.2988 -0.3840  0.3298
  368MOL0     H48538   7.952   7.851  11.752  0.9263  1.3380 -1.4023
  368MOL0     H48539   7.717   7.901  11.804 -0.7308  1.2945 -1.2016
  368MOL0     H48540   7.261   7.932  11.635 -1.7875  0.4239  1.3115
  368MOL0     H48541   7.019   7.947  11.691 -0.6539 -0.6677  0.4633
  368MOL0     H48542   6.735   7.879  11.708  1.2759 -0.5684  0.0626
  368MOL0     H48543   6.829   7.962  11.839 -1.3816  0.3338 -0.0539
  368MOL0     H48544   6.687   7.874  12.002 -0.4786  0.1413 -0.1068
  368MOL0     H48545   6.637   7.747  11.880 -1.6602  0.8481 -2.6010
  368MOL0     H48546   6.488   7.906  11.772 -3.1138  0.9212  1.5546
  368MOL0     H48547   6.573   8.041  11.853  0.6437 -0.4565 -0.8188
  368MOL0     H48548   6.422   7.809  11.996  0.5917 -0.1963  0.5514
  368MOL0     H48549   6.479   7.948  12.075 -2.7319 -1.1970  1.5219
  368MOL0     H48550   6.262   7.937  11.860  0.9307  0.9235 -1.5510
  368MOL0     H48551   6.324   8.091  11.899  0.3700  0.5170 -0.8835
  368MOL0     H48552   6.262   8.061  12.149  2.2499  0.4415 -0.8767
  368MOL0     H48553   6.221   7.895  12.121 -0.5512  0.6175 -0.0946
  368MOL0     H48554   6.041   8.099  12.124  1.6891  1.1762  1.2130
  368MOL0     H48555   6.096   8.137  11.966 -1.8875 -1.0837 -0.4600
  368MOL0     H48556   6.014   7.840  12.002  0.0499 -1.1198 -1.1506
  368MOL0     H48557   6.027   7.944  11.857 -2.4724  0.0503 -0.7751
  368MOL0     H48558   6.996   7.555  11.813  2.3781 -1.2460  4.1382
  368MOL0     H48559   7.248   7.518  11.758  2.4126  0.5210  1.8084
  368MOL0     H48560   7.584   7.612  11.515  0.4127 -0.0013 -1.1355
  368MOL0     H48561   7.834   7.569  11.466  1.0984  0.7485 -0.5005
  368MOL0     H48562   9.615   7.430  11.092  2.3864  0.8820  2.1306
  368MOL0     H48563   9.863   7.496  11.064 -0.1766 -1.9467 -0.1158
  368MOL0     H48564  10.200   7.731  10.895  1.3819  2.0267  0.5330
  368MOL0     H48565  10.420   7.820  10.868  0.1063 -1.7212  1.6852
  368MOL0     H48566  10.650   7.832  10.837  0.5917 -0.9162 -0.2679
  368MOL0     H48567  10.579   7.938  10.709  0.9879  1.0858 -1.1974
  368MOL0     H48568  10.824   7.955  10.779  1.7623 -3.1733  2.1870
  368MOL0     H48569  10.837   7.788  10.727 -2.2649 -1.2201  1.6702
  368MOL0     H48570  10.745   8.019  10.541  0.5400  0.6707 -0.5681
  368MOL0     H48571  10.773   7.858  10.486 -2.0875  0.7466  0.2437
  368MOL0     H48572  10.949   8.041  10.435  1.5010 -1.1261 -0.8601
  368MOL0     H48573  10.988   8.036  10.621  0.1948  0.3849  0.5089
  368MOL0     H48574  11.184   7.700  10.499  1.8506  0.8850  0.8507
  368MOL0     H48575  10.499   7.517  10.571  0.1479  2.0200 -0.9389
  368MOL0     H48576  10.283   7.406  10.625  1.1945  0.1132 -0.7143
  369MOL0     O48577   0.716   6.975   5.206 -0.0017  0.0808 -0.4564
  369MOL0     C48578   0.796   6.909   5.140 -0.0759  0.2833 -0.1761
  369MOL0     O48579   0.764   6.819   5.037  0.5272 -0.9021 -0.4510
  369MOL0     C48580   0.633   6.803   4.999 -0.2132 -0.1150 -0.9296
  369MOL0     C48581   0.563   6.899   4.924  0.6347 -0.0393  1.1611
  369MOL0     C48582   0.422   6.882   4.905  0.4557 -0.7872  0.4507
  369MOL0     C48583   0.368   6.757   4.935  0.1144  0.5593  0.2750
  369MOL0     O48584   0.240   6.725   4.886 -0.3206  0.4117 -0.1149
  369MOL0     C48585   0.217   6.593   4.823 -0.4848 -0.5591  0.0987
  369MOL0     C48586   0.077   6.597   4.755 -0.8350  0.4101 -0.6540
  369MOL0     C48587  -0.044   6.624   4.842  0.2125  0.0481 -0.0290
  369MOL0     C48588  -0.172   6.627   4.749  0.0269 -0.0271 -0.8922
  369MOL0     C48589  -0.297   6.673   4.817 -0.4929 -0.2077  1.1095
  369MOL0     C48590  -0.392   6.750   4.722  1.1175 -0.8184 -0.0015
  369MOL0     C48591  -0.530   6.796   4.785 -0.6035 -0.4699  0.1824
  369MOL0     C48592  -0.622   6.679   4.842  0.7333 -0.4366  0.2643
  369MOL0     N48593  -0.753   6.725   4.900  0.1844 -1.0632  0.2945
  369MOL0     C48594  -0.820   6.672   5.006  0.1661  0.2017 -0.3101
  369MOL0     C48595  -0.909   6.761   5.044 -0.3316 -1.1361  0.4655
  369MOL0     C48596  -0.988   6.736   5.164 -0.6281  0.4566 -0.2271
  369MOL0     C48597  -1.002   6.855   5.266  0.5411 -0.5225  1.2060
  369MOL0     C48598  -1.083   6.972   5.223 -0.3380 -0.5053  0.1411
  369MOL0     C48599  -1.222   6.935   5.174 -0.4531  0.0214  0.3284
  369MOL0     O48600  -1.296   6.893   5.288 -0.7600 -0.0880 -0.0665
  369MOL0     C48601  -1.433   6.870   5.264  1.0528 -0.0516 -0.1471
  369MOL0     C48602  -1.512   6.821   5.374  0.7358 -0.5516 -0.1180
  369MOL0     C48603  -1.645   6.778   5.356  0.3132 -0.7160 -0.2674
  369MOL0     C48604  -1.703   6.780   5.236  0.2730  0.5362 -0.2108
  369MOL0     C48605  -1.848   6.743   5.228 -0.6153  0.1777 -0.2386
  369MOL0     O48606  -1.910   6.702   5.343 -0.0856 -0.3314  0.0182
  369MOL0     C48607  -2.044   6.692   5.335  0.0385 -0.2490  0.0839
  369MOL0     C48608  -2.124   6.805   5.333  1.1572 -0.6237 -0.6301
  369MOL0     C48609  -2.260   6.789   5.309 -0.1589 -0.1373 -0.4591
  369MOL0     C48610  -2.321   6.659   5.290 -0.5915 -0.4672  0.3850
  369MOL0     O48611  -2.456   6.660   5.271  0.3569  0.8168 -0.8240
  369MOL0     C48612  -2.519   6.552   5.194  0.2458  0.5857  0.3819
  369MOL0     C48613  -2.672   6.567   5.189  0.3779 -0.7846  0.5638
  369MOL0     C48614  -2.726   6.713   5.163  0.3285 -0.1507 -0.4085
  369MOL0     C48615  -2.754   6.713   5.013  0.3116 -0.0005  1.1048
  369MOL0     C48616  -2.804   6.843   4.973  0.0880  0.6461  0.6241
  369MOL0     C48617  -2.806   6.865   4.826  0.3759  0.1744  0.5994
  369MOL0     C48618  -2.885   6.987   4.771 -0.5859 -0.5743 -0.1011
  369MOL0     C48619  -2.868   7.006   4.614 -0.3486  0.4563  0.6920
  369MOL0    Cl48620  -2.938   7.166   4.558  0.1589  0.1617 -0.4709
  369MOL0     C48621  -2.239   6.552   5.289  0.0974 -0.1154  0.2022
  369MOL0     C48622  -2.103   6.569   5.322  0.5058  0.4657 -0.1143
  369MOL0     O48623  -1.901   6.731   5.114 -0.7843 -0.6443 -0.5813
  369MOL0     C48624  -1.631   6.825   5.126  0.0733  0.2912  0.6219
  369MOL0     C48625  -1.499   6.856   5.141 -0.4555 -0.7084  0.3638
  369MOL0     N48626  -0.911   6.866   4.950  0.2535 -0.6439 -0.2629
  369MOL0     N48627  -0.811   6.852   4.865  0.6950 -0.6269 -0.7248
  369MOL0     C48628   0.445   6.655   4.995  0.0881 -0.6540  0.8167
  369MOL0     C48629   0.574   6.684   5.038  0.1505 -0.0813  0.5178
  369MOL0     C48630   0.932   6.907   5.188 -0.7551 -0.6586  0.5927
  369MOL0     C48631   1.033   6.819   5.143  0.7333  0.7709 -0.3827
  369MOL0     C48632   1.165   6.819   5.182 -0.1678 -0.0261  0.5380
  369MOL0     C48633   1.204   6.909   5.283  0.5653  0.1305 -0.0187
  369MOL0     O48634   1.326   6.921   5.329  0.7665  0.6443 -0.9363
  369MOL0     C48635   1.428   6.827   5.299 -0.0995 -0.2705  0.1930
  369MOL0     C48636   1.569   6.881   5.334  0.6889  0.5203 -0.2889
  369MOL0     C48637   1.592   7.021   5.276 -0.2353 -0.3011 -0.3172
  369MOL0     C48638   1.744   7.061   5.289 -0.4476  0.1221  0.3700
  369MOL0     C48639   1.785   7.050   5.433 -0.2553  0.0291  0.3655
  369MOL0     C48640   1.808   7.057   5.554 -0.2532  0.1338 -0.0074
  369MOL0     C48641   1.105   6.983   5.345  0.4068 -1.0718 -0.2706
  369MOL0     C48642   0.974   6.991   5.299  0.1239  0.4026  0.3981
  369MOL0     H48643   0.601   6.989   4.876 -0.2394  0.1934  0.8754
  369MOL0     H48644   0.364   6.963   4.860 -1.4156 -0.9334  2.4129
  369MOL0     H48645   0.233   6.508   4.890  2.6826 -0.4623 -0.4088
  369MOL0     H48646   0.289   6.575   4.743 -0.0812 -0.6342  0.4790
  369MOL0     H48647   0.072   6.492   4.722 -0.9980  0.4887 -0.8787
  369MOL0     H48648   0.090   6.671   4.675 -1.3960  1.0509 -0.1576
  369MOL0     H48649  -0.034   6.720   4.894  1.0304 -0.3447  0.5560
  369MOL0     H48650  -0.048   6.544   4.916 -0.3789 -0.9172 -1.0741
  369MOL0     H48651  -0.165   6.688   4.659  0.2706  2.8023  0.9106
  369MOL0     H48652  -0.188   6.523   4.718  1.7345 -0.6811  0.2344
  369MOL0     H48653  -0.258   6.742   4.893  1.0054  1.2963 -0.9207
  369MOL0     H48654  -0.356   6.594   4.864 -1.0274 -0.6442 -0.2465
  369MOL0     H48655  -0.411   6.693   4.631  0.5266 -0.2088 -0.2663
  369MOL0     H48656  -0.341   6.838   4.683 -1.7671 -0.6505 -3.9347
  369MOL0     H48657  -0.508   6.874   4.860 -1.0639  2.6141 -2.6695
  369MOL0     H48658  -0.586   6.855   4.712  1.0626  1.0992  0.0923
  369MOL0     H48659  -0.568   6.628   4.921  1.7197  0.0484 -0.0825
  369MOL0     H48660  -0.643   6.609   4.760 -0.8990  2.1759 -1.7295
  369MOL0     H48661  -0.798   6.576   5.053  0.0763  0.1989 -0.2732
  369MOL0     H48662  -0.957   6.648   5.222  0.3953  0.3083 -0.9637
  369MOL0     H48663  -1.089   6.703   5.140 -0.4505 -2.1397  2.0882
  369MOL0     H48664  -0.899   6.888   5.279  1.8892 -2.0941 -3.4988
  369MOL0     H48665  -1.040   6.819   5.362 -1.7339  0.9105  0.9110
  369MOL0     H48666  -1.079   7.053   5.297  0.8226  0.8419 -1.3112
  369MOL0     H48667  -1.019   7.011   5.143 -0.3690  1.5571  1.0611
  369MOL0     H48668  -1.219   6.860   5.095 -2.3896 -0.8465  1.0199
  369MOL0     H48669  -1.279   7.020   5.135  0.1577  0.4149  0.2732
  369MOL0     H48670  -1.465   6.814   5.471 -0.2744 -1.5829  0.3226
  369MOL0     H48671  -1.687   6.744   5.451  1.1732 -0.5069  0.1965
  369MOL0     H48672  -2.081   6.904   5.346 -0.9610 -0.0147  3.0931
  369MOL0     H48673  -2.315   6.882   5.310  0.2710  0.1167 -0.0410
  369MOL0     H48674  -2.487   6.456   5.236  0.2437  0.3007 -0.2519
  369MOL0     H48675  -2.483   6.553   5.091  1.4027  2.0813  0.7534
  369MOL0     H48676  -2.720   6.531   5.280 -0.7212  0.8419  0.6607
  369MOL0     H48677  -2.714   6.495   5.117 -0.4026 -2.0903  2.2603
  369MOL0     H48678  -2.652   6.791   5.183 -0.6567  1.0294 -1.2378
  369MOL0     H48679  -2.819   6.724   5.220  0.5298  2.7369 -0.5109
  369MOL0     H48680  -2.657   6.693   4.967 -0.5282  1.5167 -1.5051
  369MOL0     H48681  -2.819   6.633   4.978 -1.2979  2.4494 -1.9619
  369MOL0     H48682  -2.745   6.921   5.023  0.7453 -0.4461  1.5907
  369MOL0     H48683  -2.906   6.850   5.011  0.0877 -1.2133  1.0225
  369MOL0     H48684  -2.853   6.779   4.777 -0.4200  0.1379  1.4028
  369MOL0     H48685  -2.703   6.871   4.791  0.6684  1.2647  1.5804
  369MOL0     H48686  -2.992   6.981   4.795  0.0145 -2.3960  2.5635
  369MOL0     H48687  -2.828   7.065   4.822  0.3905 -0.8495 -0.7416
  369MOL0     H48688  -2.914   6.923   4.560  1.0795 -0.8070  1.3421
  369MOL0     H48689  -2.762   6.991   4.590 -0.8086 -1.7085 -0.2019
  369MOL0     H48690  -2.272   6.449   5.279 -0.5664 -0.0515  1.5326
  369MOL0     H48691  -2.051   6.473   5.324 -2.9786 -1.6050  1.4156
  369MOL0     H48692  -1.675   6.834   5.027  0.0584  2.4508  0.7909
  369MOL0     H48693  -1.442   6.876   5.051 -0.2481 -1.4064  0.3385
  369MOL0     H48694   0.409   6.552   4.999  0.7444 -0.8960  0.6859
  369MOL0     H48695   0.632   6.614   5.099 -0.5690 -0.2372  1.0389
  369MOL0     H48696   1.021   6.758   5.054  0.5743  0.3571 -0.0773
  369MOL0     H48697   1.239   6.769   5.121 -0.6637 -1.5651  1.1663
  369MOL0     H48698   1.424   6.794   5.195 -2.2117 -1.0797  0.4817
  369MOL0     H48699   1.416   6.741   5.366  0.9418  0.0132  0.7674
  369MOL0     H48700   1.571   6.883   5.444 -2.7661  1.0875 -0.1262
  369MOL0     H48701   1.650   6.819   5.296  1.4763  1.4563 -0.1701
  369MOL0     H48702   1.522   7.090   5.326 -1.9008 -3.2596  1.7707
  369MOL0     H48703   1.568   7.017   5.170 -0.0353 -0.5844 -0.3523
  369MOL0     H48704   1.809   6.988   5.239 -0.6241 -0.4658  0.9833
  369MOL0     H48705   1.769   7.159   5.248 -2.5249  1.5995  2.4178
  369MOL0     H48706   1.833   7.064   5.658  0.1246 -0.1426 -0.0780
  369MOL0     H48707   1.131   7.039   5.434 -0.7737 -0.8350 -0.0612
  369MOL0     H48708   0.918   7.061   5.362  1.8551  0.3659  2.0580
  370MOL0     O48709   2.819   2.131   1.837 -0.1086 -0.2712 -0.9276
  370MOL0     C48710   2.910   2.149   1.919 -0.5593  0.1681  0.6329
  370MOL0     O48711   2.893   2.184   2.052 -0.4206 -0.4231 -0.5167
  370MOL0     C48712   2.780   2.156   2.130 -0.3397 -0.2950 -0.4559
  370MOL0     C48713   2.792   2.197   2.265  0.3165 -0.8144  0.0295
  370MOL0     C48714   2.689   2.179   2.355 -0.3572 -0.3293  0.2651
  370MOL0     C48715   2.571   2.120   2.315  0.3128 -0.2318  0.0328
  370MOL0     O48716   2.467   2.101   2.407  0.5474 -0.2405  0.3601
  370MOL0     C48717   2.322   2.090   2.363 -0.2734  0.6539 -0.7086
  370MOL0     C48718   2.233   2.107   2.483  0.1476  0.3803  0.1656
  370MOL0     C48719   2.085   2.101   2.439 -0.3858 -0.0997 -0.5486
  370MOL0     C48720   1.991   2.066   2.555  0.1809 -0.0214 -0.6691
  370MOL0     C48721   1.839   2.064   2.522  1.0064  0.3557 -0.3702
  370MOL0     C48722   1.742   2.056   2.636 -0.6596  0.9314 -0.4826
  370MOL0     C48723   1.603   2.048   2.586 -0.3128  0.7297 -0.3431
  370MOL0     C48724   1.506   2.060   2.703  0.6259 -0.1331  0.2898
  370MOL0     N48725   1.362   2.059   2.648  0.1991 -0.9243 -0.1076
  370MOL0     C48726   1.298   1.947   2.622  0.3744  0.6589 -0.5350
  370MOL0     C48727   1.162   1.982   2.614 -0.2169  0.4882  0.5659
  370MOL0     C48728   1.053   1.886   2.594 -0.2836 -0.1397 -0.6730
  370MOL0     C48729   0.912   1.953   2.577  0.0223 -0.2792  0.0703
  370MOL0     C48730   0.836   1.980   2.712 -0.4205  0.2356 -0.0734
  370MOL0     C48731   0.690   1.990   2.697  0.0463 -0.4180 -0.5255
  370MOL0     O48732   0.625   1.861   2.673  0.2163 -0.1601  0.2579
  370MOL0     C48733   0.489   1.858   2.648  0.5682  0.4025 -0.1815
  370MOL0     C48734   0.403   1.970   2.649  0.2981 -0.6127 -0.1553
  370MOL0     C48735   0.265   1.950   2.637  0.1053  0.0475  0.7605
  370MOL0     C48736   0.212   1.815   2.622 -0.0079 -0.4533 -0.2946
  370MOL0     C48737   0.062   1.783   2.616 -0.4937 -0.7927  0.2473
  370MOL0     O48738   0.026   1.666   2.549  0.2635  0.0555 -0.3001
  370MOL0     C48739  -0.111   1.633   2.541 -0.2967 -0.1993 -0.1680
  370MOL0     C48740  -0.165   1.511   2.593 -0.0700  0.0600  0.4501
  370MOL0     C48741  -0.300   1.491   2.591 -0.2217  0.3079 -0.2041
  370MOL0     C48742  -0.392   1.582   2.538  0.5316  0.4100 -0.2060
  370MOL0     O48743  -0.529   1.562   2.539  0.1052 -0.3710 -0.0444
  370MOL0     C48744  -0.586   1.448   2.475  0.0301  0.6126  0.2417
  370MOL0     C48745  -0.705   1.397   2.554  0.1722  0.2536  1.1895
  370MOL0     C48746  -0.798   1.337   2.448  0.2743 -0.2600  0.3685
  370MOL0     C48747  -0.927   1.307   2.523 -0.8453  0.3475  0.6516
  370MOL0     C48748  -1.022   1.224   2.453  0.7007  0.1876  0.1882
  370MOL0     C48749  -1.074   1.280   2.315 -0.1588  0.5254 -0.6886
  370MOL0     C48750  -1.139   1.416   2.324  0.4425  0.2718 -1.0134
  370MOL0     C48751  -1.200   1.454   2.187  0.1561  0.4234 -0.1319
  370MOL0    Cl48752  -1.074   1.533   2.086 -0.0837  0.0297 -0.0016
  370MOL0     C48753  -0.343   1.703   2.495  0.5136  0.4259 -0.2276
  370MOL0     C48754  -0.202   1.729   2.489  0.5814 -0.8049 -0.5137
  370MOL0     O48755  -0.012   1.870   2.666  0.3389  0.3176 -0.1210
  370MOL0     C48756   0.309   1.710   2.618  0.1031  0.4902 -0.6434
  370MOL0     C48757   0.445   1.730   2.620 -0.5918  0.3070 -0.4461
  370MOL0     N48758   1.157   2.118   2.638  0.2528  0.1220  0.8072
  370MOL0     N48759   1.279   2.167   2.644  0.6186 -0.0693 -0.3343
  370MOL0     C48760   2.553   2.071   2.187 -0.1687  0.2093  0.0400
  370MOL0     C48761   2.663   2.092   2.092  0.0959 -0.0654 -0.8389
  370MOL0     C48762   3.046   2.134   1.869  0.2730  0.5605  0.8377
  370MOL0     C48763   3.154   2.179   1.949  0.1777 -0.8522 -0.7552
  370MOL0     C48764   3.285   2.186   1.903  0.5006 -1.3390  0.5497
  370MOL0     C48765   3.319   2.143   1.776  0.2209  0.0053 -0.1729
  370MOL0     O48766   3.451   2.155   1.748  0.2782  0.1701  0.2962
  370MOL0     C48767   3.495   2.105   1.621 -1.0795 -0.4526  0.0808
  370MOL0     C48768   3.647   2.124   1.611  0.4335 -0.3467  0.4187
  370MOL0     C48769   3.720   2.077   1.740 -0.3941  0.1565  0.9477
  370MOL0     C48770   3.719   1.927   1.751 -0.7942 -0.6884  0.5258
  370MOL0     C48771   3.711   1.841   1.636 -1.3815 -0.0891  0.1202
  370MOL0     C48772   3.702   1.763   1.545  0.3181  0.0222  0.3023
  370MOL0     C48773   3.225   2.091   1.689  0.6418  1.1798  0.0593
  370MOL0     C48774   3.085   2.092   1.736 -0.3453  0.1277 -0.3510
  370MOL0     H48775   2.880   2.240   2.311  1.2213 -2.2439 -0.3201
  370MOL0     H48776   2.696   2.215   2.457 -2.4762  1.0559  0.0014
  370MOL0     H48777   2.310   1.992   2.315 -2.4057  0.3517  0.3067
  370MOL0     H48778   2.284   2.165   2.292 -1.5273  1.5182  0.8100
  370MOL0     H48779   2.243   2.203   2.533 -2.6479  1.6025 -1.3778
  370MOL0     H48780   2.250   2.017   2.543 -3.5334 -0.9795 -0.5324
  370MOL0     H48781   2.081   2.021   2.365 -0.1121  0.6328 -1.3785
  370MOL0     H48782   2.053   2.197   2.397  0.2401 -0.0532 -0.9404
  370MOL0     H48783   2.011   1.965   2.589  0.9640  0.5521  0.6400
  370MOL0     H48784   2.016   2.135   2.636 -0.3300  1.5238 -1.7711
  370MOL0     H48785   1.809   1.975   2.465 -2.6600  0.5861  0.9641
  370MOL0     H48786   1.815   2.151   2.459  1.2270 -0.1911 -1.2236
  370MOL0     H48787   1.750   2.144   2.701 -2.3143  0.0772  0.9906
  370MOL0     H48788   1.757   1.964   2.694  0.8823  1.1778 -0.4291
  370MOL0     H48789   1.588   2.123   2.508  0.7844 -1.0196 -2.3296
  370MOL0     H48790   1.577   1.948   2.551  0.5334 -0.7931  3.0052
  370MOL0     H48791   1.512   2.158   2.752  1.2303  1.4328 -2.6768
  370MOL0     H48792   1.517   1.976   2.773 -2.8721 -0.0752  1.0906
  370MOL0     H48793   1.332   1.844   2.619  1.2917  0.8692 -4.7623
  370MOL0     H48794   1.053   1.827   2.686 -0.8816 -0.3880 -0.8206
  370MOL0     H48795   1.064   1.816   2.510 -3.7990  0.4878 -1.8648
  370MOL0     H48796   0.849   1.892   2.512  1.0248 -0.0724 -1.1488
  370MOL0     H48797   0.932   2.039   2.512  2.3876 -0.9280 -0.1841
  370MOL0     H48798   0.869   1.903   2.784  1.6526  0.9382 -0.2096
  370MOL0     H48799   0.874   2.072   2.756 -1.0033  0.9956 -1.1279
  370MOL0     H48800   0.668   2.050   2.608  2.5330 -0.0507 -0.9432
  370MOL0     H48801   0.647   2.039   2.785 -1.0299 -3.3069  0.7195
  370MOL0     H48802   0.451   2.066   2.666  1.2869 -0.9082 -1.1400
  370MOL0     H48803   0.189   2.028   2.629  0.5882  0.5150  0.6525
  370MOL0     H48804  -0.105   1.435   2.642 -1.0790 -0.3122  1.1251
  370MOL0     H48805  -0.348   1.408   2.643  0.8994 -1.2452 -1.5618
  370MOL0     H48806  -0.515   1.365   2.464 -0.7212  0.0934 -0.8954
  370MOL0     H48807  -0.614   1.486   2.377 -1.1724  0.3699  0.4811
  370MOL0     H48808  -0.754   1.482   2.601 -1.1041 -0.1159  0.5795
  370MOL0     H48809  -0.663   1.328   2.627  0.2437 -0.2215  0.7087
  370MOL0     H48810  -0.756   1.240   2.421  0.4094 -0.9952  2.9230
  370MOL0     H48811  -0.819   1.405   2.365 -1.9478  0.5028  1.4502
  370MOL0     H48812  -0.898   1.241   2.606  2.2758 -1.8495 -1.9265
  370MOL0     H48813  -0.970   1.401   2.557  0.0839  0.4188  1.7013
  370MOL0     H48814  -1.109   1.200   2.515  1.6180 -0.9840  1.0674
  370MOL0     H48815  -0.973   1.130   2.427  0.8728  0.6152 -1.1326
  370MOL0     H48816  -1.139   1.199   2.279  0.9187 -0.7402  0.1331
  370MOL0     H48817  -0.983   1.274   2.254  0.6538 -1.0864  0.5976
  370MOL0     H48818  -1.210   1.414   2.407  0.9834 -0.0879 -0.5502
  370MOL0     H48819  -1.055   1.482   2.351  2.1890 -1.0770 -2.8200
  370MOL0     H48820  -1.283   1.526   2.190 -1.0758 -0.6503 -3.6421
  370MOL0     H48821  -1.241   1.366   2.137  0.0161 -0.4194  1.3792
  370MOL0     H48822  -0.417   1.780   2.474 -1.8313 -0.8579  2.5591
  370MOL0     H48823  -0.176   1.821   2.438  0.5227  0.4783  1.6510
  370MOL0     H48824   0.282   1.611   2.582 -0.1125  0.8236 -1.4279
  370MOL0     H48825   0.519   1.651   2.615  0.3526  0.9520  1.9345
  370MOL0     H48826   2.461   2.027   2.152  1.3999 -2.0789 -1.5475
  370MOL0     H48827   2.640   2.054   1.993 -1.9495 -2.5496  0.4586
  370MOL0     H48828   3.134   2.198   2.054 -1.0724 -1.0938 -0.9380
  370MOL0     H48829   3.369   2.225   1.960  2.0413 -0.3342 -2.2400
  370MOL0     H48830   3.442   2.160   1.542 -0.1915 -1.0547 -0.9634
  370MOL0     H48831   3.478   1.998   1.609  1.9221 -0.9433 -0.5065
  370MOL0     H48832   3.676   2.065   1.524 -0.3286 -1.0963  0.6662
  370MOL0     H48833   3.672   2.229   1.593 -1.7220  1.0940  4.5495
  370MOL0     H48834   3.668   2.118   1.827 -3.9815  1.6962 -1.6284
  370MOL0     H48835   3.823   2.112   1.736  0.1759 -1.1104  3.0557
  370MOL0     H48836   3.817   1.897   1.790  0.2755 -2.8854 -3.3372
  370MOL0     H48837   3.635   1.902   1.818 -2.3661 -0.3122 -1.2289
  370MOL0     H48838   3.676   1.699   1.463 -2.4643  0.3433  0.8071
  370MOL0     H48839   3.239   2.056   1.587 -0.3961  1.0074 -0.0308
  370MOL0     H48840   3.005   2.064   1.668 -1.5058 -0.4666  1.2010
  371MOL0     O48841   8.193   7.997   9.686 -0.9763  0.1254 -0.0335
  371MOL0     C48842   8.191   8.109   9.735  0.4302 -0.2511  0.2528
  371MOL0     O48843   8.092   8.161   9.811 -0.1417  0.8031  0.3052
  371MOL0     C48844   7.987   8.092   9.832  1.4409 -0.5319  0.6096
  371MOL0     C48845   7.937   8.101   9.959 -0.2001 -0.5495  0.0637
  371MOL0     C48846   7.815   8.061   9.997 -0.2704 -0.6175  0.5298
  371MOL0     C48847   7.741   7.980   9.912  0.1957 -0.1859 -0.0794
  371MOL0     O48848   7.621   7.933   9.961  0.7243  0.2008 -0.3175
  371MOL0     C48849   7.519   7.901   9.868  0.1425  0.0689 -0.0072
  371MOL0     C48850   7.387   7.891   9.939  0.5045 -0.2816 -0.7316
  371MOL0     C48851   7.365   7.746   9.994 -0.1945 -0.4002 -0.0617
  371MOL0     C48852   7.237   7.753  10.082  0.0157  0.6612 -0.4306
  371MOL0     C48853   7.215   7.624  10.158  0.4685 -0.3242  0.3701
  371MOL0     C48854   7.069   7.615  10.214 -0.1513  0.0996  0.1073
  371MOL0     C48855   7.065   7.527  10.341  0.4631  0.0337 -0.8070
  371MOL0     C48856   6.984   7.400  10.310 -0.3882 -0.1637  0.4484
  371MOL0     N48857   6.850   7.415  10.260  0.4366 -0.0053 -0.0296
  371MOL0     C48858   6.780   7.335  10.177 -0.2871  0.2556  1.3345
  371MOL0     C48859   6.664   7.394  10.156  0.5090 -0.0581  0.2370
  371MOL0     C48860   6.537   7.356  10.087 -0.8573  0.6597  0.1056
  371MOL0     C48861   6.545   7.338   9.932 -0.2292  0.0347 -0.8744
  371MOL0     C48862   6.412   7.286   9.882 -0.0427  0.2281 -0.4349
  371MOL0     C48863   6.427   7.213   9.742 -0.5987  0.0211 -0.2439
  371MOL0     O48864   6.316   7.250   9.656  0.2337  0.0252  0.1544
  371MOL0     C48865   6.190   7.197   9.668  0.0887  0.8771  0.0690
  371MOL0     C48866   6.155   7.078   9.745 -0.2997  0.2300  1.1169
  371MOL0     C48867   6.026   7.028   9.739  0.6322  0.2395  0.0904
  371MOL0     C48868   5.927   7.088   9.661 -0.2825 -0.5587 -0.2395
  371MOL0     C48869   5.790   7.018   9.646 -0.2044  0.0144  0.1935
  371MOL0     O48870   5.725   7.027   9.522 -0.2366 -0.0127  0.0419
  371MOL0     C48871   5.609   6.957   9.496 -0.3902  0.8722  0.2339
  371MOL0     C48872   5.622   6.851   9.398  0.2511  0.2894 -0.4254
  371MOL0     C48873   5.516   6.772   9.377  0.7001  0.1137  0.3965
  371MOL0     C48874   5.395   6.782   9.445 -0.3592  0.8811 -0.2552
  371MOL0     O48875   5.298   6.700   9.390  0.4115  0.7198  0.4364
  371MOL0     C48876   5.179   6.687   9.467  0.2108  0.3783 -0.2710
  371MOL0     C48877   5.089   6.598   9.380  0.2696 -0.3562  0.2018
  371MOL0     C48878   4.971   6.547   9.452  0.1872 -0.4616  0.2407
  371MOL0     C48879   4.883   6.662   9.499  0.6989  0.5918 -0.4235
  371MOL0     C48880   4.735   6.631   9.509 -0.6523  0.9298 -0.0964
  371MOL0     C48881   4.647   6.728   9.595 -0.0573 -0.1589  0.3733
  371MOL0     C48882   4.712   6.784   9.717 -0.2672  0.3811  0.2343
  371MOL0     C48883   4.608   6.833   9.812 -0.0405 -0.2257  0.5520
  371MOL0    Cl48884   4.532   6.680   9.879 -0.4468 -0.5287  0.3070
  371MOL0     C48885   5.383   6.892   9.542  0.2194 -0.1470 -0.6832
  371MOL0     C48886   5.491   6.979   9.564 -0.2935  0.0255  0.9046
  371MOL0     O48887   5.750   6.941   9.734 -0.1857  0.2367 -0.4195
  371MOL0     C48888   5.961   7.203   9.591  0.3856 -0.2310 -0.6389
  371MOL0     C48889   6.087   7.255   9.592 -0.7198  0.1468 -0.3839
  371MOL0     N48890   6.669   7.515  10.222  0.1675 -0.3346  0.9190
  371MOL0     N48891   6.777   7.524  10.282 -0.3818 -0.4395  0.0149
  371MOL0     C48892   7.793   7.953   9.786  0.2631  0.2727  0.5767
  371MOL0     C48893   7.919   8.012   9.736  0.6061  0.1317  0.5582
  371MOL0     C48894   8.310   8.196   9.703  0.9486 -0.4999 -0.0388
  371MOL0     C48895   8.314   8.330   9.764 -0.5141 -0.5569  0.4434
  371MOL0     C48896   8.430   8.414   9.742 -0.1730 -0.1252  0.2876
  371MOL0     C48897   8.543   8.363   9.668 -0.2200 -0.3014 -0.0479
  371MOL0     O48898   8.650   8.454   9.658  0.1224  0.1248  0.2671
  371MOL0     C48899   8.767   8.420   9.590 -0.6936 -0.2623  0.1217
  371MOL0     C48900   8.857   8.337   9.686 -0.1729 -0.0713  0.1334
  371MOL0     C48901   9.015   8.372   9.685  0.3916  0.8149  0.3410
  371MOL0     C48902   9.106   8.249   9.719  0.4479 -0.9085 -0.3208
  371MOL0     C48903   9.247   8.273   9.701 -0.2642  0.0778 -0.0311
  371MOL0     C48904   9.375   8.280   9.691  0.6430 -0.4897 -0.2416
  371MOL0     C48905   8.534   8.231   9.618  0.6552  0.0378 -0.3577
  371MOL0     C48906   8.413   8.157   9.623 -0.1724  0.2778 -0.1134
  371MOL0     H48907   8.002   8.157  10.026  0.4284 -1.0956 -0.0818
  371MOL0     H48908   7.775   8.091  10.094 -0.8869  1.8656 -0.4038
  371MOL0     H48909   7.552   7.810   9.817 -0.2464 -0.3602  0.5050
  371MOL0     H48910   7.509   7.980   9.792 -0.4632 -1.1684 -1.2571
  371MOL0     H48911   7.305   7.921   9.873  1.6829 -0.8013 -2.5227
  371MOL0     H48912   7.390   7.957  10.026  3.6722 -0.0667 -0.8972
  371MOL0     H48913   7.445   7.717  10.062 -0.4433 -0.8330  0.0530
  371MOL0     H48914   7.353   7.673   9.913 -1.4018  0.9720 -1.1861
  371MOL0     H48915   7.249   7.832  10.156  4.1896 -2.7489  3.0655
  371MOL0     H48916   7.149   7.766  10.018 -0.1141 -1.4055 -0.7556
  371MOL0     H48917   7.288   7.616  10.238  1.3194  0.0693 -0.3465
  371MOL0     H48918   7.228   7.548  10.081 -2.1947 -0.8875  0.3804
  371MOL0     H48919   7.008   7.572  10.134  0.8401 -2.0763  0.4335
  371MOL0     H48920   7.022   7.712  10.226 -1.2098 -0.1981 -1.3838
  371MOL0     H48921   7.164   7.496  10.374 -0.5427 -0.7686  1.7451
  371MOL0     H48922   7.020   7.588  10.420  0.4077  0.3583 -1.0868
  371MOL0     H48923   6.990   7.358  10.410  4.9860 -0.6244  0.2467
  371MOL0     H48924   7.044   7.334  10.247  0.6775  1.0520  0.1436
  371MOL0     H48925   6.811   7.241  10.133  1.9470  0.6090  2.0246
  371MOL0     H48926   6.459   7.425  10.121 -1.4153  1.3498 -2.3574
  371MOL0     H48927   6.503   7.259  10.122  1.5192  0.0815  0.9412
  371MOL0     H48928   6.631   7.272   9.914  1.3217  1.5389  0.6028
  371MOL0     H48929   6.572   7.437   9.894 -3.5353  1.9268  1.2632
  371MOL0     H48930   6.365   7.224   9.960  1.6891 -1.9095 -0.9927
  371MOL0     H48931   6.356   7.378   9.863  1.0719  0.9064 -0.5277
  371MOL0     H48932   6.421   7.104   9.753  1.4987 -0.2874 -1.6569
  371MOL0     H48933   6.522   7.240   9.696 -0.3764 -2.5612 -1.4707
  371MOL0     H48934   6.224   7.021   9.806  1.6149  0.4147 -0.7464
  371MOL0     H48935   6.005   6.939   9.798 -3.9533  0.3728 -0.9738
  371MOL0     H48936   5.704   6.846   9.326 -1.3032 -3.2453 -2.2088
  371MOL0     H48937   5.522   6.701   9.296  0.2555 -1.1394  1.4301
  371MOL0     H48938   5.134   6.784   9.493  1.0588  0.7427 -0.1245
  371MOL0     H48939   5.204   6.624   9.553  2.1285  0.8105 -0.4645
  371MOL0     H48940   5.149   6.514   9.344  0.7644 -0.2936  0.8628
  371MOL0     H48941   5.049   6.658   9.298  0.4906 -1.1408 -0.4925
  371MOL0     H48942   4.992   6.485   9.539 -0.4265 -0.1490  0.6202
  371MOL0     H48943   4.909   6.487   9.384 -0.0308 -0.5503  0.5160
  371MOL0     H48944   4.919   6.712   9.589 -0.7349  1.2248 -0.1807
  371MOL0     H48945   4.880   6.744   9.427 -0.3779  0.9674  0.0234
  371MOL0     H48946   4.730   6.542   9.572 -0.5483  1.7390  1.0668
  371MOL0     H48947   4.690   6.612   9.411 -0.7791 -0.7297  0.2667
  371MOL0     H48948   4.549   6.685   9.617 -0.1303  0.1650  0.7032
  371MOL0     H48949   4.623   6.818   9.538  1.3662  0.2274  0.3440
  371MOL0     H48950   4.762   6.703   9.771 -1.2068 -0.1703  0.3044
  371MOL0     H48951   4.784   6.865   9.701  1.8018 -1.0020  1.9838
  371MOL0     H48952   4.539   6.901   9.761 -0.2923 -0.2857  0.8060
  371MOL0     H48953   4.656   6.888   9.893 -1.6970  2.4504 -0.1533
  371MOL0     H48954   5.291   6.919   9.591 -0.9150  0.3257 -2.9322
  371MOL0     H48955   5.484   7.052   9.644  0.3593 -0.4468  1.4012
  371MOL0     H48956   5.883   7.253   9.534  3.3072  0.5448 -4.2860
  371MOL0     H48957   6.101   7.338   9.523 -0.9523  0.6811  0.1907
  371MOL0     H48958   7.743   7.877   9.727  0.9460  1.0824 -1.1372
  371MOL0     H48959   7.951   7.993   9.635 -0.7679  0.8568 -0.0396
  371MOL0     H48960   8.235   8.371   9.826 -0.4357  2.1885 -1.1012
  371MOL0     H48961   8.428   8.515   9.781  0.4200  0.1575 -0.4053
  371MOL0     H48962   8.822   8.512   9.566 -1.9158  0.6011  0.5127
  371MOL0     H48963   8.754   8.367   9.495  1.9315 -1.4109  0.3197
  371MOL0     H48964   8.815   8.350   9.786 -0.7316 -0.0889 -0.1011
  371MOL0     H48965   8.851   8.230   9.665 -4.2339 -0.0343  0.3295
  371MOL0     H48966   9.045   8.451   9.753  2.2979  1.6700 -1.3793
  371MOL0     H48967   9.044   8.406   9.585 -0.3304 -1.6477 -0.7837
  371MOL0     H48968   9.090   8.214   9.822  0.3442 -2.1277 -0.7343
  371MOL0     H48969   9.080   8.160   9.661 -2.7540 -0.3294  0.0026
  371MOL0     H48970   9.479   8.296   9.706 -0.0406  2.1218  2.6679
  371MOL0     H48971   8.619   8.191   9.564  1.9783  0.7139  1.1626
  371MOL0     H48972   8.407   8.062   9.572 -1.0936 -0.3812  1.1678
  372MOL0     O48973   0.213   8.423   8.039 -0.1192 -0.0021  0.2093
  372MOL0     C48974   0.186   8.539   8.071  0.3924  0.1862 -0.1636
  372MOL0     O48975   0.277   8.637   8.096  0.0158  0.6324 -0.0345
  372MOL0     C48976   0.410   8.616   8.060  0.1386  0.7486  0.1020
  372MOL0     C48977   0.507   8.680   8.143 -0.1833  0.8642 -0.6698
  372MOL0     C48978   0.641   8.681   8.110 -0.6470 -0.3556 -0.5190
  372MOL0     C48979   0.682   8.610   7.995 -0.3230 -0.4137  0.1158
  372MOL0     O48980   0.812   8.608   7.952 -0.1807 -0.0548  0.2083
  372MOL0     C48981   0.914   8.602   8.053 -0.5471  0.1540  0.0326
  372MOL0     C48982   1.015   8.489   8.030 -0.5471  0.0177  1.0342
  372MOL0     C48983   1.119   8.487   8.142  0.4158  0.7041 -0.1775
  372MOL0     C48984   1.198   8.358   8.136 -0.4590  0.6073 -0.0077
  372MOL0     C48985   1.186   8.266   8.256  0.5114  0.2129  0.0938
  372MOL0     C48986   1.049   8.232   8.307  0.2709 -0.7167 -0.6260
  372MOL0     C48987   1.043   8.144   8.426  0.2331  0.2113 -0.0871
  372MOL0     C48988   1.045   8.001   8.381 -0.7798  0.3441  0.1107
  372MOL0     N48989   1.073   7.910   8.494 -0.5107 -0.3560 -0.3149
  372MOL0     C48990   0.978   7.831   8.559  0.1496  0.3496 -0.3930
  372MOL0     C48991   1.034   7.783   8.669 -0.0104 -0.6132 -0.2207
  372MOL0     C48992   0.977   7.705   8.780 -0.3052 -0.8569  0.4230
  372MOL0     C48993   0.825   7.709   8.797 -0.4584  0.6080  0.6419
  372MOL0     C48994   0.801   7.622   8.911  0.3194 -0.4289  0.1215
  372MOL0     C48995   0.648   7.594   8.911  0.2737 -0.9531 -0.4164
  372MOL0     O48996   0.608   7.512   9.029 -0.9419  0.0185  0.5254
  372MOL0     C48997   0.474   7.485   9.039 -0.7484 -0.4070 -0.5980
  372MOL0     C48998   0.377   7.519   8.943 -0.0920  0.0931 -0.9882
  372MOL0     C48999   0.239   7.494   8.972  0.5659  0.4033 -0.1395
  372MOL0     C49000   0.196   7.421   9.090  0.3087  0.1252  0.3816
  372MOL0     C49001   0.053   7.389   9.110 -0.9707 -0.0283 -0.4789
  372MOL0     O49002  -0.045   7.471   9.057 -0.3230  0.8445  0.6320
  372MOL0     C49003  -0.180   7.469   9.093 -0.4699  0.2819 -0.8447
  372MOL0     C49004  -0.271   7.523   9.006  0.7412 -0.1176  0.0836
  372MOL0     C49005  -0.410   7.518   9.025  0.2642  0.8512  0.2710
  372MOL0     C49006  -0.468   7.447   9.128 -0.0709  0.2350 -0.1827
  372MOL0     O49007  -0.607   7.441   9.142 -0.2328  0.4622 -0.6930
  372MOL0     C49008  -0.653   7.408   9.275 -0.2414  0.0730 -0.2244
  372MOL0     C49009  -0.806   7.415   9.283 -0.7871  0.2764  0.7963
  372MOL0     C49010  -0.866   7.557   9.265 -0.2414 -0.7071 -0.1243
  372MOL0     C49011  -1.005   7.555   9.327 -0.1111 -0.0918 -0.1692
  372MOL0     C49012  -1.054   7.702   9.319 -0.1968 -0.2028  0.0182
  372MOL0     C49013  -1.183   7.697   9.407  0.9316  0.6064  0.5846
  372MOL0     C49014  -1.249   7.843   9.398 -0.0235  0.0941 -0.1210
  372MOL0     C49015  -1.393   7.851   9.411  0.2952 -0.6388 -0.0137
  372MOL0    Cl49016  -1.437   7.825   9.586 -0.0626 -0.0542  0.3322
  372MOL0     C49017  -0.375   7.379   9.213  0.0354  0.0978 -0.4100
  372MOL0     C49018  -0.239   7.395   9.201  0.9426 -0.6331  0.3359
  372MOL0     O49019   0.037   7.278   9.160  0.4251  0.4960  1.3207
  372MOL0     C49020   0.295   7.382   9.177  0.4535 -0.1845 -0.4671
  372MOL0     C49021   0.433   7.415   9.155 -0.5706  0.0534 -0.0197
  372MOL0     N49022   1.172   7.824   8.665  0.5121 -0.0438 -0.9884
  372MOL0     N49023   1.191   7.907   8.567  0.1634  0.6687 -0.1153
  372MOL0     C49024   0.589   8.559   7.904 -0.4493  0.8900 -0.1143
  372MOL0     C49025   0.452   8.554   7.938 -0.4420  0.5046  0.4022
  372MOL0     C49026   0.042   8.570   8.088 -0.4250  1.0015 -0.3329
  372MOL0     C49027  -0.058   8.482   8.051  0.5254 -0.3064  0.4308
  372MOL0     C49028  -0.194   8.510   8.062 -0.4103 -0.1051 -0.0920
  372MOL0     C49029  -0.236   8.623   8.117  0.4271  0.4923 -0.5941
  372MOL0     O49030  -0.374   8.630   8.124 -0.0015 -0.0896  0.8599
  372MOL0     C49031  -0.425   8.707   8.229  0.9595  0.1151  0.1460
  372MOL0     C49032  -0.572   8.668   8.234 -0.6405  0.3049 -0.3728
  372MOL0     C49033  -0.656   8.733   8.126 -0.5746 -0.1597 -0.3711
  372MOL0     C49034  -0.799   8.686   8.106 -0.9506 -0.0122 -0.3711
  372MOL0     C49035  -0.858   8.747   7.984 -0.6870  0.3260  0.3874
  372MOL0     C49036  -0.889   8.794   7.880 -0.7559  0.2593  0.7969
  372MOL0     C49037  -0.138   8.710   8.167 -0.1093 -0.3816  1.0372
  372MOL0     C49038   0.001   8.689   8.145  0.5020  0.0389 -1.0699
  372MOL0     H49039   0.471   8.735   8.230  1.1897  0.4499  0.1769
  372MOL0     H49040   0.719   8.740   8.158  2.0415 -2.1576 -2.4149
  372MOL0     H49041   0.868   8.568   8.146  0.0083 -3.2566 -0.7924
  372MOL0     H49042   0.973   8.693   8.058  1.6651 -1.0888 -1.8205
  372MOL0     H49043   1.057   8.484   7.929  0.4509 -0.7814  1.4723
  372MOL0     H49044   0.967   8.391   8.024  1.1312 -0.8174  0.6775
  372MOL0     H49045   1.062   8.512   8.232 -1.1672  2.4530 -1.5916
  372MOL0     H49046   1.191   8.568   8.131  2.2355 -0.8552 -0.3939
  372MOL0     H49047   1.188   8.300   8.044  0.5936 -0.9227  0.7914
  372MOL0     H49048   1.300   8.395   8.146 -1.2665  2.4878  2.7511
  372MOL0     H49049   1.245   8.311   8.336  1.9781 -2.5860  0.6989
  372MOL0     H49050   1.241   8.177   8.225  0.2793 -0.9099  2.7153
  372MOL0     H49051   0.998   8.185   8.223 -0.0997 -0.6655 -0.4334
  372MOL0     H49052   0.995   8.325   8.330  1.9421 -0.1323  1.2175
  372MOL0     H49053   1.122   8.171   8.497  0.8904 -0.1783 -0.6503
  372MOL0     H49054   0.944   8.166   8.465  0.0428  0.2254 -0.5632
  372MOL0     H49055   1.126   7.994   8.307 -2.1191 -3.1543 -1.2215
  372MOL0     H49056   0.957   7.971   8.324  0.3416 -0.4071 -1.2920
  372MOL0     H49057   0.875   7.819   8.526  0.5620  0.4676 -1.8032
  372MOL0     H49058   1.010   7.745   8.876 -1.2491 -0.9422  0.7915
  372MOL0     H49059   1.024   7.606   8.772  1.8928  0.2663 -2.7186
  372MOL0     H49060   0.780   7.667   8.707  1.2970 -1.5851  0.6796
  372MOL0     H49061   0.791   7.811   8.816 -0.3711  0.7634 -0.0094
  372MOL0     H49062   0.853   7.527   8.899 -0.3191 -0.6395 -1.1740
  372MOL0     H49063   0.829   7.671   9.005  2.1711  0.8080 -1.0230
  372MOL0     H49064   0.616   7.558   8.813 -0.5738 -1.1257 -0.0793
  372MOL0     H49065   0.595   7.688   8.929 -1.1712 -2.2315  2.6810
  372MOL0     H49066   0.394   7.567   8.847 -0.4523 -1.1708 -1.7116
  372MOL0     H49067   0.162   7.515   8.898  1.1207  2.1673 -0.2465
  372MOL0     H49068  -0.230   7.578   8.922  1.5448 -2.9075 -1.4886
  372MOL0     H49069  -0.491   7.556   8.964 -0.9287 -0.9870  0.6144
  372MOL0     H49070  -0.611   7.469   9.355 -1.5656  0.2563  0.3552
  372MOL0     H49071  -0.620   7.307   9.301 -0.3465 -0.1891 -1.0792
  372MOL0     H49072  -0.826   7.377   9.383  0.6224  0.1501  1.0477
  372MOL0     H49073  -0.843   7.344   9.207  1.0910  1.6971 -1.5989
  372MOL0     H49074  -0.871   7.591   9.162 -0.7932  3.1995  1.0235
  372MOL0     H49075  -0.806   7.636   9.311  1.1571 -1.0203 -1.3428
  372MOL0     H49076  -1.080   7.494   9.276 -1.5087  0.3597  1.2733
  372MOL0     H49077  -1.007   7.517   9.429 -2.4611 -0.8196 -0.4280
  372MOL0     H49078  -1.082   7.729   9.216  2.4817 -0.0391 -0.7488
  372MOL0     H49079  -0.983   7.773   9.362 -0.7958 -0.0099  0.7006
  372MOL0     H49080  -1.155   7.681   9.512 -1.2352  1.2913  1.3219
  372MOL0     H49081  -1.260   7.628   9.369  0.8102  0.7897  0.4984
  372MOL0     H49082  -1.200   7.892   9.483  0.0443 -0.0901 -0.0516
  372MOL0     H49083  -1.214   7.897   9.310  1.1340  1.7460  1.2697
  372MOL0     H49084  -1.451   7.800   9.334 -0.8349  2.2647 -1.2422
  372MOL0     H49085  -1.418   7.957   9.399  0.8083 -0.3963  0.9762
  372MOL0     H49086  -0.409   7.308   9.288  0.7343 -1.0706 -1.1708
  372MOL0     H49087  -0.168   7.349   9.269  1.5907 -0.3822 -0.1558
  372MOL0     H49088   0.264   7.344   9.273  0.6561 -1.3341 -0.8389
  372MOL0     H49089   0.519   7.372   9.206  0.5054 -0.6413 -2.3039
  372MOL0     H49090   0.630   8.521   7.811  1.8028 -0.1721  1.2171
  372MOL0     H49091   0.374   8.516   7.874 -2.3011  3.0188  1.0154
  372MOL0     H49092  -0.031   8.385   8.010 -0.8759 -0.7068  0.3883
  372MOL0     H49093  -0.253   8.423   8.035  0.6967 -0.9659  0.1843
  372MOL0     H49094  -0.417   8.816   8.232  0.4864  0.2129 -1.2133
  372MOL0     H49095  -0.376   8.676   8.321 -1.4199  4.5531  3.3065
  372MOL0     H49096  -0.566   8.560   8.217  3.3109  0.5537 -1.4524
  372MOL0     H49097  -0.605   8.693   8.335 -1.2229 -1.8869  0.0540
  372MOL0     H49098  -0.604   8.720   8.030 -1.2412 -0.2570 -0.7228
  372MOL0     H49099  -0.652   8.841   8.139  0.0539 -0.2166 -0.0219
  372MOL0     H49100  -0.809   8.577   8.104 -3.4210  0.0290  2.2359
  372MOL0     H49101  -0.849   8.717   8.198  0.6250  1.2689  0.1112
  372MOL0     H49102  -0.922   8.841   7.790 -2.0058  1.0210  1.6211
  372MOL0     H49103  -0.163   8.811   8.197  2.2358  0.8582 -0.8565
  372MOL0     H49104   0.074   8.768   8.166 -0.0818  0.0550  1.2001
  373MOL0     O49105   8.668   7.563   8.737  0.3342 -0.0382 -0.2256
  373MOL0     C49106   8.654   7.514   8.621  0.2003 -0.2164 -0.2750
  373MOL0     O49107   8.532   7.488   8.564  0.8390  0.2097  0.4157
  373MOL0     C49108   8.420   7.510   8.640  0.7101  0.2921  0.1806
  373MOL0     C49109   8.399   7.458   8.767  0.0386 -0.1163 -0.9455
  373MOL0     C49110   8.281   7.486   8.838  0.0809  1.1444 -0.4292
  373MOL0     C49111   8.176   7.543   8.774  0.0897 -0.3071  0.6259
  373MOL0     O49112   8.058   7.566   8.837  0.4435 -0.0998  0.0348
  373MOL0     C49113   8.014   7.489   8.949 -1.1915  0.3598  0.2293
  373MOL0     C49114   7.862   7.519   8.969 -0.5530  0.6986  0.4016
  373MOL0     C49115   7.833   7.667   8.966 -0.6066  0.2903 -0.3006
  373MOL0     C49116   7.682   7.684   8.975 -0.5449  0.0441 -0.5925
  373MOL0     C49117   7.652   7.831   9.002 -0.1570 -1.0537  0.0738
  373MOL0     C49118   7.701   7.869   9.146 -0.5464  1.3376  0.0826
  373MOL0     C49119   7.666   8.007   9.198  0.1979 -0.1649 -0.1906
  373MOL0     C49120   7.665   8.025   9.353 -0.9072 -0.2447 -0.6017
  373MOL0     N49121   7.566   7.938   9.407 -0.4232  0.4821 -0.0750
  373MOL0     C49122   7.431   7.955   9.409  0.4714  0.3370  0.1608
  373MOL0     C49123   7.382   7.859   9.494  0.7650  0.1206  0.2644
  373MOL0     C49124   7.233   7.845   9.535 -0.4802  0.1752  0.8347
  373MOL0     C49125   7.177   7.976   9.583  0.0001  0.2601 -0.0849
  373MOL0     C49126   7.048   7.955   9.664  0.6322  0.0637 -0.1868
  373MOL0     C49127   6.923   7.918   9.582  0.2461 -0.0794  0.7066
  373MOL0     O49128   6.888   8.023   9.488 -0.0347  0.1342  0.3262
  373MOL0     C49129   6.758   8.048   9.473 -0.1795  0.2861 -0.2699
  373MOL0     C49130   6.664   7.957   9.439  0.6770  0.5961 -0.1068
  373MOL0     C49131   6.528   7.986   9.423 -1.0739  0.1707 -1.0493
  373MOL0     C49132   6.484   8.121   9.440  0.3580  0.2520  0.5464
  373MOL0     C49133   6.344   8.162   9.417  0.0742  0.4090 -0.1301
  373MOL0     O49134   6.312   8.294   9.443  0.2470 -0.4565  0.1177
  373MOL0     C49135   6.188   8.332   9.401  0.2704  0.9554  0.1480
  373MOL0     C49136   6.081   8.363   9.482  0.5664 -0.6258  0.1405
  373MOL0     C49137   5.962   8.409   9.423 -0.9557  0.2225 -0.0433
  373MOL0     C49138   5.932   8.398   9.283 -0.2458 -0.2098  0.2831
  373MOL0     O49139   5.818   8.427   9.214 -0.5154 -0.0356  0.3415
  373MOL0     C49140   5.706   8.453   9.299  0.0999  0.1983  0.4331
  373MOL0     C49141   5.586   8.468   9.203  1.2341 -0.3634  0.0705
  373MOL0     C49142   5.463   8.522   9.278 -0.0911 -0.4373  0.5417
  373MOL0     C49143   5.338   8.529   9.189 -0.5324 -1.2990 -0.9076
  373MOL0     C49144   5.243   8.414   9.235 -0.1144 -0.1933 -0.1823
  373MOL0     C49145   5.116   8.413   9.154 -0.1641 -0.8308 -0.0826
  373MOL0     C49146   5.035   8.539   9.171 -0.0396 -0.2343  0.7462
  373MOL0     C49147   4.892   8.519   9.126 -0.6038  0.3832  0.2221
  373MOL0    Cl49148   4.893   8.476   8.956 -0.2327  0.0058  0.0188
  373MOL0     C49149   6.039   8.359   9.206 -1.0296 -0.6327 -0.4004
  373MOL0     C49150   6.167   8.336   9.262  0.4124  0.9821 -0.5866
  373MOL0     O49151   6.271   8.067   9.390  0.0536 -0.0675 -0.0315
  373MOL0     C49152   6.578   8.216   9.478  0.1993  0.2701  0.1702
  373MOL0     C49153   6.717   8.175   9.500  0.1084 -0.3172 -0.1797
  373MOL0     N49154   7.493   7.778   9.536 -0.1107 -0.4929 -0.4448
  373MOL0     N49155   7.602   7.824   9.479  0.1952  0.3038 -0.7267
  373MOL0     C49156   8.189   7.585   8.636 -1.5997  0.2403  0.1413
  373MOL0     C49157   8.313   7.566   8.573 -0.2315  0.6767  0.2201
  373MOL0     C49158   8.781   7.473   8.555  0.2611  0.0823  0.5977
  373MOL0     C49159   8.903   7.499   8.614 -0.1707  0.1558 -0.4406
  373MOL0     C49160   9.017   7.445   8.559  0.4372 -0.9934  0.3937
  373MOL0     C49161   9.013   7.376   8.435  0.6417  0.3490 -0.0713
  373MOL0     O49162   9.122   7.323   8.367 -0.2462 -0.1817 -0.5721
  373MOL0     C49163   9.241   7.339   8.432 -0.4390  0.4297 -1.0276
  373MOL0     C49164   9.352   7.297   8.350  0.7314  0.1102  0.1148
  373MOL0     C49165   9.401   7.149   8.365  0.1596 -0.1027 -0.2467
  373MOL0     C49166   9.524   7.127   8.283 -0.2833  0.2203  0.4523
  373MOL0     C49167   9.636   7.217   8.323 -0.6298 -0.4666 -0.2037
  373MOL0     C49168   9.706   7.299   8.366 -0.4234 -0.3054 -0.2027
  373MOL0     C49169   8.890   7.359   8.372 -0.2577  0.5144 -0.9191
  373MOL0     C49170   8.773   7.408   8.432  1.1640 -0.7151  0.5011
  373MOL0     H49171   8.472   7.399   8.822  0.6277  1.6408  0.2398
  373MOL0     H49172   8.268   7.465   8.943 -0.8148  0.2231 -0.7082
  373MOL0     H49173   8.072   7.510   9.039  0.3965 -0.6067 -0.5155
  373MOL0     H49174   8.030   7.381   8.939 -0.7202  0.1469  2.7540
  373MOL0     H49175   7.841   7.490   9.072  2.1624 -0.0407  0.8273
  373MOL0     H49176   7.803   7.458   8.900  0.4459 -0.7717  0.8094
  373MOL0     H49177   7.869   7.702   8.869  2.4236 -1.7284 -0.0686
  373MOL0     H49178   7.886   7.715   9.049  0.5414  0.5940 -1.1784
  373MOL0     H49179   7.637   7.646   8.882 -1.0283  0.4514 -0.5305
  373MOL0     H49180   7.649   7.619   9.056  0.1499 -0.2587 -0.5497
  373MOL0     H49181   7.545   7.853   8.994  0.3727  1.1051 -2.1844
  373MOL0     H49182   7.701   7.903   8.937 -0.8416 -1.2890 -0.7223
  373MOL0     H49183   7.810   7.857   9.151 -0.6187  0.9451  0.9855
  373MOL0     H49184   7.652   7.803   9.218  0.0857  1.8307  0.9996
  373MOL0     H49185   7.739   8.076   9.155  0.2278  0.2830  0.5448
  373MOL0     H49186   7.562   8.033   9.172  0.5727  1.4443 -0.2156
  373MOL0     H49187   7.640   8.128   9.380  0.4694 -0.2613  0.8601
  373MOL0     H49188   7.763   7.999   9.392 -1.7452 -0.7198  1.2803
  373MOL0     H49189   7.385   8.039   9.357  2.4177  0.5715 -1.2989
  373MOL0     H49190   7.225   7.769   9.613 -0.4626  0.0742  0.7388
  373MOL0     H49191   7.177   7.806   9.449  1.3462 -0.7421  0.0054
  373MOL0     H49192   7.143   8.046   9.506 -2.6132  1.2886  1.8530
  373MOL0     H49193   7.258   8.009   9.649 -0.8325 -0.9143  1.6064
  373MOL0     H49194   7.052   7.866   9.729  0.9045 -1.6468 -2.4441
  373MOL0     H49195   7.029   8.046   9.722 -0.1823 -1.0965  1.4573
  373MOL0     H49196   6.851   7.879   9.654  2.0430 -0.6465  2.2841
  373MOL0     H49197   6.946   7.825   9.528  0.2375  1.9657 -3.1604
  373MOL0     H49198   6.685   7.854   9.410  1.0051  0.6290  0.0025
  373MOL0     H49199   6.461   7.910   9.385  1.5748 -1.5360 -2.5704
  373MOL0     H49200   6.094   8.362   9.589  1.2343  0.5417  0.0990
  373MOL0     H49201   5.884   8.436   9.494 -0.3752 -0.9694  1.0788
  373MOL0     H49202   5.722   8.536   9.368 -0.5770 -0.2209  1.1095
  373MOL0     H49203   5.696   8.373   9.373  1.8123  2.0936  2.9137
  373MOL0     H49204   5.564   8.373   9.154  1.8135 -0.6585  0.3781
  373MOL0     H49205   5.606   8.549   9.133 -1.9464 -0.5955 -1.2774
  373MOL0     H49206   5.480   8.625   9.311 -1.6567 -0.2708  0.9183
  373MOL0     H49207   5.448   8.454   9.362  0.3944 -1.0728  0.1254
  373MOL0     H49208   5.293   8.628   9.204 -1.2132 -1.6950 -0.2399
  373MOL0     H49209   5.367   8.528   9.084  0.1727  3.1554 -0.9458
  373MOL0     H49210   5.222   8.426   9.341 -1.1849 -1.2051 -0.2608
  373MOL0     H49211   5.284   8.313   9.229 -0.6146 -0.5020  1.2019
  373MOL0     H49212   5.053   8.330   9.187  1.1848 -0.9640  2.4480
  373MOL0     H49213   5.138   8.402   9.047  1.4884 -1.2842  0.2657
  373MOL0     H49214   5.035   8.572   9.275 -1.2470 -0.7226  0.9114
  373MOL0     H49215   5.086   8.614   9.110  2.7638 -1.1465  1.8150
  373MOL0     H49216   4.819   8.597   9.150 -1.7395 -0.8839  1.0110
  373MOL0     H49217   4.848   8.434   9.178 -3.2078  2.0361  0.9291
  373MOL0     H49218   6.037   8.359   9.098  0.4710  1.2833 -0.4738
  373MOL0     H49219   6.246   8.309   9.193 -1.0461 -0.7090 -1.6862
  373MOL0     H49220   6.545   8.315   9.505  1.7420  1.3757 -1.7483
  373MOL0     H49221   6.787   8.247   9.540 -3.3704  3.5171 -0.3624
  373MOL0     H49222   8.102   7.619   8.581 -1.2859  2.9011  1.1391
  373MOL0     H49223   8.340   7.592   8.471 -0.1662  0.2842  0.1345
  373MOL0     H49224   8.929   7.553   8.704  1.1163 -1.2743  0.0975
  373MOL0     H49225   9.108   7.454   8.617  1.4600 -6.2951  0.1224
  373MOL0     H49226   9.244   7.292   8.531 -0.4461 -1.2830 -1.8185
  373MOL0     H49227   9.253   7.446   8.456  0.2123  0.5147 -1.6834
  373MOL0     H49228   9.331   7.316   8.244  0.4660 -1.7792 -0.2007
  373MOL0     H49229   9.428   7.372   8.374  0.4335  1.0760 -1.7497
  373MOL0     H49230   9.319   7.082   8.335  0.5568  0.0810 -1.8628
  373MOL0     H49231   9.424   7.137   8.471 -0.7699  0.0220 -0.0184
  373MOL0     H49232   9.561   7.025   8.298 -2.1436 -0.6868 -0.7165
  373MOL0     H49233   9.502   7.131   8.176  4.0464 -2.7541 -0.8253
  373MOL0     H49234   9.774   7.368   8.412  1.8303 -2.6603  0.2359
  373MOL0     H49235   8.885   7.309   8.276  0.9888  1.3210 -1.4206
  373MOL0     H49236   8.681   7.387   8.380  0.6513 -2.4071  1.9812
  374MOL0     O49237   4.357   4.792   4.488 -0.2460 -0.3637  0.0979
  374MOL0     C49238   4.464   4.727   4.496  0.3883  0.9242 -0.0399
  374MOL0     O49239   4.555   4.750   4.592  0.3267  0.7284 -0.4897
  374MOL0     C49240   4.513   4.823   4.704 -0.3064  0.5570 -0.0300
  374MOL0     C49241   4.395   4.813   4.775  0.3444 -0.1081 -0.1530
  374MOL0     C49242   4.369   4.901   4.871 -0.2361 -0.4158 -0.0587
  374MOL0     C49243   4.448   5.013   4.909 -0.5856 -0.1087 -0.3717
  374MOL0     O49244   4.425   5.116   4.997  0.6185 -0.1389 -0.0410
  374MOL0     C49245   4.300   5.108   5.071  0.5731  0.3547  0.5186
  374MOL0     C49246   4.185   5.191   4.992  0.7963 -0.2727  0.2855
  374MOL0     C49247   4.040   5.181   5.042  0.5383  0.2643 -0.2025
  374MOL0     C49248   3.988   5.037   5.039 -0.5181  0.3239 -0.2175
  374MOL0     C49249   3.865   5.017   5.128 -0.5647  0.2073 -0.9133
  374MOL0     C49250   3.747   5.107   5.090  0.6953  0.2262  0.1599
  374MOL0     C49251   3.612   5.050   5.153 -1.1887 -0.2102  0.2964
  374MOL0     C49252   3.497   5.139   5.125 -0.2782 -0.3536 -0.1587
  374MOL0     N49253   3.373   5.097   5.200 -0.1562 -1.2144  0.0738
  374MOL0     C49254   3.298   4.990   5.161  0.0612  0.2373 -0.7963
  374MOL0     C49255   3.189   4.991   5.249 -0.1870 -0.1331 -0.0287
  374MOL0     C49256   3.078   4.887   5.250 -0.2345  0.2937 -0.1299
  374MOL0     C49257   2.943   4.956   5.249 -0.4496  0.0027 -0.6645
  374MOL0     C49258   2.828   4.860   5.259  0.1785  0.1427  0.3819
  374MOL0     C49259   2.690   4.908   5.205  0.1428 -0.4728  0.7702
  374MOL0     O49260   2.608   4.786   5.204 -0.1234  0.0127 -0.9748
  374MOL0     C49261   2.474   4.784   5.166  0.4719 -0.4492  0.1172
  374MOL0     C49262   2.410   4.659   5.148  0.9549  0.2916  0.3284
  374MOL0     C49263   2.277   4.648   5.115 -0.1643  0.0875  1.1599
  374MOL0     C49264   2.198   4.759   5.087 -0.9313  0.6409  0.5457
  374MOL0     C49265   2.056   4.737   5.072 -0.0633  0.3611 -0.2531
  374MOL0     O49266   2.000   4.611   5.080 -0.4874 -0.2513 -0.1107
  374MOL0     C49267   1.862   4.606   5.078  0.9093  0.2109 -0.0507
  374MOL0     C49268   1.783   4.618   4.968 -0.2762 -0.2057 -0.2356
  374MOL0     C49269   1.647   4.595   4.981 -0.0828  0.9075  0.0039
  374MOL0     C49270   1.588   4.558   5.099 -0.9649 -0.3390 -0.5735
  374MOL0     O49271   1.458   4.556   5.092 -0.8898 -0.6495 -0.5679
  374MOL0     C49272   1.393   4.610   5.210 -0.4688  0.5758  0.9098
  374MOL0     C49273   1.246   4.630   5.176 -0.0663 -1.1810 -0.3359
  374MOL0     C49274   1.217   4.734   5.059 -0.4327 -0.5136  0.5409
  374MOL0     C49275   1.255   4.885   5.084  1.1192  0.0607 -0.1807
  374MOL0     C49276   1.300   4.961   4.955  0.4002  0.2497 -0.4483
  374MOL0     C49277   1.423   5.043   4.984  0.1736  0.6541  0.0679
  374MOL0     C49278   1.553   4.963   4.995  0.0609  0.1979  0.2868
  374MOL0     C49279   1.674   5.049   4.950 -0.1999  0.0555  0.4834
  374MOL0    Cl49280   1.660   5.104   4.781 -0.0471  0.0874 -0.1644
  374MOL0     C49281   1.666   4.535   5.213  1.0112  0.1159 -0.1185
  374MOL0     C49282   1.802   4.566   5.203  0.3347  0.6401 -0.2457
  374MOL0     O49283   1.991   4.836   5.040  0.1378 -0.0033  0.2081
  374MOL0     C49284   2.262   4.880   5.093 -0.0344 -0.4201  0.8883
  374MOL0     C49285   2.398   4.893   5.130 -0.1822 -0.5174  0.4142
  374MOL0     N49286   3.212   5.083   5.350 -0.0189 -0.0565 -0.0308
  374MOL0     N49287   3.327   5.143   5.322 -0.5268 -0.8884  0.8708
  374MOL0     C49288   4.575   5.015   4.835  0.4338 -0.7607 -0.2406
  374MOL0     C49289   4.600   4.928   4.737  0.5118  0.2065  0.2294
  374MOL0     C49290   4.486   4.608   4.407  0.6046 -1.0170  0.5150
  374MOL0     C49291   4.404   4.574   4.299 -0.7636  1.1400  0.2938
  374MOL0     C49292   4.422   4.452   4.224  1.1561 -0.0850  0.2576
  374MOL0     C49293   4.527   4.367   4.266 -0.5711  0.2492 -0.5524
  374MOL0     O49294   4.543   4.244   4.200  0.4732 -0.6574  0.0841
  374MOL0     C49295   4.659   4.245   4.115  0.4102  0.8274 -0.2901
  374MOL0     C49296   4.645   4.135   3.997  0.5926  0.1987  0.3249
  374MOL0     C49297   4.750   4.145   3.886 -0.0099 -0.2819 -0.7360
  374MOL0     C49298   4.742   4.040   3.776  0.1257 -0.5664 -0.0112
  374MOL0     C49299   4.776   3.906   3.823 -0.0495 -0.6207  0.6993
  374MOL0     C49300   4.814   3.794   3.865  0.9250 -0.4716 -0.5002
  374MOL0     C49301   4.605   4.402   4.376  0.5084 -0.2396  0.1070
  374MOL0     C49302   4.594   4.526   4.435  0.7463 -0.4880 -0.3558
  374MOL0     H49303   4.323   4.733   4.759 -2.3186  2.2848 -1.1661
  374MOL0     H49304   4.278   4.880   4.926 -0.2988  1.4936  0.6287
  374MOL0     H49305   4.317   5.170   5.159  2.6694  0.2617  0.2247
  374MOL0     H49306   4.280   5.003   5.096  0.1518  0.7800  2.0675
  374MOL0     H49307   4.185   5.174   4.884  0.6843 -2.1986  0.5541
  374MOL0     H49308   4.211   5.296   5.013  1.0726  0.1143 -1.8230
  374MOL0     H49309   3.963   5.241   4.992 -3.1070 -1.2412  3.0571
  374MOL0     H49310   4.043   5.228   5.141 -0.6637 -0.7309  0.3411
  374MOL0     H49311   3.960   5.006   4.938  1.7541 -3.2618  0.0634
  374MOL0     H49312   4.061   4.965   5.077 -2.0697 -1.0102  0.3638
  374MOL0     H49313   3.894   5.041   5.230  2.7263  0.9583 -1.9229
  374MOL0     H49314   3.835   4.911   5.128  2.5152 -0.8206  1.7122
  374MOL0     H49315   3.731   5.103   4.982  0.1429 -0.7918  0.2774
  374MOL0     H49316   3.757   5.208   5.131 -2.3181  0.2678  1.0297
  374MOL0     H49317   3.610   4.949   5.109  4.3094  0.7289 -3.0739
  374MOL0     H49318   3.611   5.045   5.262 -2.4607  0.8533  0.3522
  374MOL0     H49319   3.473   5.138   5.018 -0.4520  1.3988 -0.1655
  374MOL0     H49320   3.523   5.239   5.160 -1.7864 -0.5898  1.8160
  374MOL0     H49321   3.319   4.921   5.080 -1.1790 -4.1417  2.2498
  374MOL0     H49322   3.077   4.825   5.339  0.4113  0.6473  0.1327
  374MOL0     H49323   3.112   4.830   5.163  3.9109  2.3537 -0.0953
  374MOL0     H49324   2.935   5.019   5.160  0.8294 -0.1631 -0.9139
  374MOL0     H49325   2.965   5.019   5.336  4.5477 -1.7058 -0.3754
  374MOL0     H49326   2.859   4.777   5.194 -2.5896 -1.4188  0.9093
  374MOL0     H49327   2.817   4.828   5.363 -1.4061 -1.1405 -0.1379
  374MOL0     H49328   2.699   4.936   5.099 -0.7029  0.8474  1.0281
  374MOL0     H49329   2.647   4.993   5.258  3.3052  2.7057 -1.3009
  374MOL0     H49330   2.477   4.579   5.179  1.4023  1.6347  3.1802
  374MOL0     H49331   2.237   4.548   5.130  1.6557 -0.6874  1.1698
  374MOL0     H49332   1.818   4.642   4.869 -2.9725  1.4100 -0.9111
  374MOL0     H49333   1.585   4.625   4.897 -2.3120  2.1456  1.9500
  374MOL0     H49334   1.434   4.710   5.226 -2.0937  1.3237  0.5715
  374MOL0     H49335   1.401   4.540   5.294 -0.8132 -0.5654  0.0183
  374MOL0     H49336   1.183   4.665   5.258  0.7886  2.5588 -1.1059
  374MOL0     H49337   1.216   4.532   5.136 -0.1793 -0.7671 -1.2905
  374MOL0     H49338   1.117   4.717   5.021 -0.0777  0.0315 -0.6804
  374MOL0     H49339   1.282   4.690   4.982 -0.5164 -1.5462  1.0434
  374MOL0     H49340   1.172   4.934   5.135  1.1306  2.7215 -2.4836
  374MOL0     H49341   1.338   4.880   5.155  0.2675  1.2516  0.9562
  374MOL0     H49342   1.218   5.029   4.930  0.5802  1.3139  1.6656
  374MOL0     H49343   1.328   4.890   4.876  2.2292 -2.6036  2.5071
  374MOL0     H49344   1.419   5.078   5.087  0.0251 -0.3220  0.4021
  374MOL0     H49345   1.424   5.127   4.914 -1.2858  1.8950  1.4672
  374MOL0     H49346   1.581   4.911   5.087 -0.9894  2.1721  1.7922
  374MOL0     H49347   1.532   4.881   4.926 -0.3364 -1.5067  2.3299
  374MOL0     H49348   1.768   4.996   4.970 -1.5788 -1.4719  3.7505
  374MOL0     H49349   1.670   5.135   5.018 -2.6873 -0.2724  0.8317
  374MOL0     H49350   1.628   4.498   5.308  1.9021  0.8605  0.5441
  374MOL0     H49351   1.871   4.557   5.286  0.1317  1.4312  0.0117
  374MOL0     H49352   2.208   4.973   5.075  1.5652  0.0445 -2.1092
  374MOL0     H49353   2.433   4.996   5.129 -0.2202 -0.4541 -2.5942
  374MOL0     H49354   4.643   5.095   4.863 -0.0280 -0.5275  0.2381
  374MOL0     H49355   4.695   4.935   4.686  0.2354 -0.4798 -0.3924
  374MOL0     H49356   4.320   4.634   4.264  0.2392  1.2440 -2.1291
  374MOL0     H49357   4.351   4.423   4.147  0.3203 -2.6222  1.8402
  374MOL0     H49358   4.748   4.231   4.179  0.5174  0.1318 -0.5780
  374MOL0     H49359   4.675   4.339   4.061  2.5968 -0.8490 -2.8025
  374MOL0     H49360   4.641   4.031   4.034  0.8396 -0.5913 -1.7551
  374MOL0     H49361   4.544   4.145   3.956 -0.9540  0.7751  3.8376
  374MOL0     H49362   4.843   4.127   3.940 -1.0514 -0.4560  1.0795
  374MOL0     H49363   4.752   4.247   3.846  0.8501  0.3079  0.7509
  374MOL0     H49364   4.638   4.045   3.743  0.0827  0.1512  0.1998
  374MOL0     H49365   4.808   4.077   3.696  0.6118 -2.3583 -0.4939
  374MOL0     H49366   4.809   3.695   3.908 -3.8734  0.3875  1.5568
  374MOL0     H49367   4.679   4.333   4.414  2.8775  0.0554 -3.4641
  374MOL0     H49368   4.667   4.556   4.510  0.0285  1.1228 -0.2646
  375MOL0     O49369   7.746   7.794   1.621 -0.0333  0.0127  0.0784
  375MOL0     C49370   7.813   7.872   1.560  0.6632 -0.6998  0.0832
  375MOL0     O49371   7.774   7.998   1.531  0.0697  0.0525 -0.1682
  375MOL0     C49372   7.637   8.032   1.542  0.2665 -0.3848  0.0653
  375MOL0     C49373   7.555   8.004   1.439 -0.2513 -0.1657  0.5609
  375MOL0     C49374   7.423   8.044   1.438 -0.4066 -0.2066 -0.4232
  375MOL0     C49375   7.366   8.122   1.547 -0.0702 -0.1423  0.4985
  375MOL0     O49376   7.245   8.177   1.530  0.1315 -0.4715 -0.5265
  375MOL0     C49377   7.149   8.166   1.628 -0.8207  0.0649 -0.7061
  375MOL0     C49378   7.019   8.160   1.544 -0.6342 -0.7329  0.4231
  375MOL0     C49379   7.018   8.081   1.405  0.6143  0.5466 -0.6743
  375MOL0     C49380   7.062   7.933   1.427  0.2859  0.3092  0.0480
  375MOL0     C49381   6.981   7.838   1.518  0.3741 -0.8315 -0.1025
  375MOL0     C49382   6.842   7.821   1.471  0.3095 -0.1362  0.4923
  375MOL0     C49383   6.755   7.712   1.534 -0.1901  0.0453  0.2016
  375MOL0     C49384   6.654   7.778   1.625 -0.1714  0.1981  0.4550
  375MOL0     N49385   6.561   7.674   1.660  0.6849  0.6101 -0.0117
  375MOL0     C49386   6.473   7.624   1.577  0.3581 -0.1332  0.3139
  375MOL0     C49387   6.393   7.557   1.664  0.2776  0.2186  0.1056
  375MOL0     C49388   6.281   7.481   1.611  0.4777 -0.5103 -0.6257
  375MOL0     C49389   6.180   7.459   1.719  0.0981 -0.5271 -0.4645
  375MOL0     C49390   6.056   7.397   1.658 -0.2575  0.0638 -0.2301
  375MOL0     C49391   5.952   7.357   1.763 -1.4810 -0.4061 -0.5117
  375MOL0     O49392   5.828   7.307   1.701  0.0048 -0.3162 -0.5895
  375MOL0     C49393   5.723   7.264   1.779  0.5783 -0.3028 -0.6368
  375MOL0     C49394   5.597   7.231   1.715  0.0747  0.0952  0.2806
  375MOL0     C49395   5.492   7.176   1.789  0.2805 -0.9947 -0.2751
  375MOL0     C49396   5.511   7.140   1.920 -0.7233 -0.7843 -0.4707
  375MOL0     C49397   5.413   7.065   1.997  0.0156 -1.1451 -0.5426
  375MOL0     O49398   5.442   7.044   2.130 -0.4702  0.1141 -0.0394
  375MOL0     C49399   5.341   7.001   2.212  0.4113  0.0404  0.5717
  375MOL0     C49400   5.209   7.065   2.204 -0.1503  0.1202  0.9188
  375MOL0     C49401   5.100   7.023   2.276 -0.0174 -0.6622  0.2779
  375MOL0     C49402   5.118   6.928   2.375  0.2139  0.3471  0.0223
  375MOL0     O49403   4.999   6.899   2.449  0.0912  0.0968  0.8600
  375MOL0     C49404   5.000   6.788   2.538  0.7031  0.5499 -0.3410
  375MOL0     C49405   4.863   6.764   2.595  0.2028 -1.1598 -0.0032
  375MOL0     C49406   4.862   6.660   2.703 -0.2553  0.2724  0.3761
  375MOL0     C49407   4.721   6.617   2.735 -0.0117 -0.3720 -0.8353
  375MOL0     C49408   4.722   6.531   2.861  0.0208  0.2330  0.2711
  375MOL0     C49409   4.805   6.407   2.877 -0.3884  0.2775  0.3341
  375MOL0     C49410   4.948   6.425   2.926  0.4568 -0.0497  0.6729
  375MOL0     C49411   5.028   6.300   2.906 -1.1667 -0.2550  0.3792
  375MOL0    Cl49412   4.956   6.160   2.977  0.1617 -0.4023  0.0083
  375MOL0     C49413   5.245   6.874   2.391  0.5324 -0.5891  1.0538
  375MOL0     C49414   5.357   6.900   2.302 -0.5165  0.3563 -0.3285
  375MOL0     O49415   5.318   7.014   1.934  0.0697  0.1886 -0.5960
  375MOL0     C49416   5.638   7.174   1.984  0.5595  0.7324 -0.6303
  375MOL0     C49417   5.733   7.246   1.918 -0.6068 -0.3951  0.0267
  375MOL0     N49418   6.450   7.540   1.786  0.7661 -0.6794 -0.5568
  375MOL0     N49419   6.548   7.622   1.788  0.2111  0.2583 -0.0569
  375MOL0     C49420   7.449   8.155   1.648  0.3928 -0.2293 -0.1976
  375MOL0     C49421   7.583   8.105   1.652 -0.4001  0.4780 -0.2003
  375MOL0     C49422   7.948   7.843   1.529  0.0497  0.2461  0.1359
  375MOL0     C49423   8.000   7.709   1.540 -0.0771 -0.8384 -0.0859
  375MOL0     C49424   8.134   7.682   1.526 -0.8611  0.5050 -0.7995
  375MOL0     C49425   8.226   7.785   1.493 -0.6885  0.1658 -0.2509
  375MOL0     O49426   8.361   7.762   1.448  0.6802  0.6854  0.7870
  375MOL0     C49427   8.399   7.627   1.399  0.1577 -0.5941  0.0133
  375MOL0     C49428   8.552   7.617   1.373  0.2726 -0.3403  0.6867
  375MOL0     C49429   8.642   7.599   1.497 -0.6297  0.0983  0.1591
  375MOL0     C49430   8.781   7.584   1.441  0.2881 -0.4461  0.3338
  375MOL0     C49431   8.877   7.513   1.536 -0.0602  0.3472 -0.3389
  375MOL0     C49432   8.963   7.461   1.610 -0.7074  0.7055  0.5979
  375MOL0     C49433   8.180   7.916   1.474 -0.1936  0.9159 -0.3581
  375MOL0     C49434   8.044   7.946   1.496 -0.2039 -0.2878  0.3771
  375MOL0     H49435   7.603   7.959   1.352  1.3459  1.4843  0.5275
  375MOL0     H49436   7.360   8.033   1.350 -0.5238  2.7642 -0.8029
  375MOL0     H49437   7.145   8.245   1.703  1.2242  0.6994 -1.1863
  375MOL0     H49438   7.162   8.074   1.685  2.0947  1.4721  1.1436
  375MOL0     H49439   6.997   8.266   1.524  2.2928 -0.1800 -0.3120
  375MOL0     H49440   6.945   8.121   1.614 -1.2899  1.1665  0.8559
  375MOL0     H49441   7.091   8.119   1.334  1.1288  0.3327 -0.2639
  375MOL0     H49442   6.917   8.078   1.363  0.3562  0.3950 -0.0585
  375MOL0     H49443   7.068   7.881   1.331 -1.0738 -1.0034  0.6323
  375MOL0     H49444   7.160   7.933   1.475 -0.9175 -2.8936  2.9178
  375MOL0     H49445   6.982   7.880   1.619  1.0139 -0.3953 -0.2840
  375MOL0     H49446   7.031   7.741   1.519 -0.1697 -1.1149  0.7406
  375MOL0     H49447   6.851   7.783   1.369 -2.0927 -2.8876  1.1504
  375MOL0     H49448   6.787   7.915   1.478 -0.8554 -0.6075 -1.4160
  375MOL0     H49449   6.703   7.660   1.453  0.2978  0.1411 -0.1839
  375MOL0     H49450   6.827   7.651   1.589 -1.3221 -2.2280 -0.7142
  375MOL0     H49451   6.603   7.860   1.572 -1.4717 -1.1999 -0.5467
  375MOL0     H49452   6.702   7.820   1.714 -0.5095  0.9152  0.3123
  375MOL0     H49453   6.467   7.644   1.471  0.8004  0.1376  0.3401
  375MOL0     H49454   6.307   7.381   1.576  2.0572  0.1301 -1.4256
  375MOL0     H49455   6.247   7.544   1.528  1.1910  0.0698 -0.4959
  375MOL0     H49456   6.153   7.554   1.767 -1.4128 -0.6278 -1.0675
  375MOL0     H49457   6.223   7.392   1.793  1.2467  0.7498  0.0731
  375MOL0     H49458   5.997   7.470   1.602  3.2266 -0.4556 -5.1795
  375MOL0     H49459   6.076   7.312   1.593  0.2259  1.3232 -1.7783
  375MOL0     H49460   5.936   7.440   1.833  0.6062 -0.1019 -0.3374
  375MOL0     H49461   6.002   7.279   1.821  0.9364  2.3991  1.4528
  375MOL0     H49462   5.577   7.265   1.614  1.7407  1.3367  0.3257
  375MOL0     H49463   5.407   7.156   1.726  0.1650  1.2145 -0.9066
  375MOL0     H49464   5.202   7.146   2.132 -1.1841 -1.0805 -0.4133
  375MOL0     H49465   5.002   7.065   2.255  1.6987  2.8174 -1.8753
  375MOL0     H49466   5.065   6.797   2.626 -0.7613 -1.0064  0.9813
  375MOL0     H49467   5.027   6.693   2.491 -1.5652 -0.1974 -0.2333
  375MOL0     H49468   4.794   6.735   2.516  1.3370 -1.0980 -1.0328
  375MOL0     H49469   4.835   6.861   2.638  0.7685 -1.4201  0.9969
  375MOL0     H49470   4.900   6.705   2.795 -1.5393 -2.0054  2.1445
  375MOL0     H49471   4.932   6.577   2.687  0.5628  0.4701  2.6145
  375MOL0     H49472   4.658   6.705   2.753  2.0117  0.6553  1.8652
  375MOL0     H49473   4.685   6.555   2.652  0.3936 -1.8225  0.0429
  375MOL0     H49474   4.618   6.496   2.871  0.1135  0.5377  2.8545
  375MOL0     H49475   4.728   6.596   2.948  0.7096 -0.7979  1.0139
  375MOL0     H49476   4.801   6.342   2.789 -5.2570 -1.1382  1.2973
  375MOL0     H49477   4.754   6.353   2.958  2.2437 -0.1794  1.7950
  375MOL0     H49478   4.999   6.501   2.866  0.5231 -2.0256 -1.9273
  375MOL0     H49479   4.957   6.457   3.031  0.9090  2.5476 -0.0899
  375MOL0     H49480   5.128   6.306   2.950 -0.4063 -0.2163 -1.2668
  375MOL0     H49481   5.041   6.273   2.801 -1.9918 -2.2026  0.7333
  375MOL0     H49482   5.254   6.801   2.471  1.3940 -0.7383  0.8243
  375MOL0     H49483   5.452   6.855   2.328 -0.0112  1.8712  0.6071
  375MOL0     H49484   5.649   7.148   2.089 -0.5123 -2.2417 -1.1601
  375MOL0     H49485   5.823   7.280   1.969  0.2438 -1.2452 -0.8765
  375MOL0     H49486   7.420   8.221   1.729  1.9683  1.4970 -0.9680
  375MOL0     H49487   7.646   8.128   1.737  0.1589  0.5400 -0.6250
  375MOL0     H49488   7.929   7.629   1.561 -0.1871 -0.3460  1.5957
  375MOL0     H49489   8.169   7.580   1.529 -2.8523 -0.2124 -0.4636
  375MOL0     H49490   8.340   7.616   1.308  0.3433  0.9956 -0.3264
  375MOL0     H49491   8.373   7.554   1.476  2.1393  0.4289  1.7468
  375MOL0     H49492   8.568   7.528   1.311  0.1749 -0.4261  0.7828
  375MOL0     H49493   8.588   7.702   1.315 -0.0016 -0.5579  0.1896
  375MOL0     H49494   8.599   7.521   1.561 -0.4768 -1.3980 -1.4807
  375MOL0     H49495   8.639   7.697   1.546 -2.7304 -0.1849  0.6741
  375MOL0     H49496   8.778   7.519   1.354  1.6463  0.6661 -0.5765
  375MOL0     H49497   8.829   7.676   1.406  3.8435 -2.6419 -1.1105
  375MOL0     H49498   9.017   7.396   1.676 -1.4683  0.4031  0.9357
  375MOL0     H49499   8.252   7.993   1.450  0.0777 -0.1092 -3.3285
  375MOL0     H49500   8.011   8.049   1.488 -1.2325 -0.7042 -1.3814
  376MOL0     O49501   1.786   9.994  11.075  1.0269  0.2418  0.4894
  376MOL0     C49502   1.788   9.949  11.185  1.0580  0.0467  0.6452
  376MOL0     O49503   1.678   9.894  11.251  0.2749  0.1816 -0.0289
  376MOL0     C49504   1.587   9.826  11.180  0.0396 -0.1401 -0.4550
  376MOL0     C49505   1.623   9.724  11.095  0.1257  0.0677 -0.0002
  376MOL0     C49506   1.529   9.637  11.039  1.2977  0.2757 -0.4723
  376MOL0     C49507   1.395   9.653  11.062 -0.4070  0.0358 -0.9246
  376MOL0     O49508   1.304   9.572  11.009  1.1237  0.0762  0.2098
  376MOL0     C49509   1.339   9.452  10.952 -0.2328  0.0455 -0.1813
  376MOL0     C49510   1.210   9.387  10.915  0.1844  0.2092 -0.3443
  376MOL0     C49511   1.138   9.334  11.046 -0.4046 -0.5830 -0.3749
  376MOL0     C49512   1.011   9.265  11.016  0.0235  0.2255 -0.7605
  376MOL0     C49513   0.935   9.221  11.147 -0.5173  0.3293  0.3216
  376MOL0     C49514   0.823   9.110  11.130  0.6444 -0.5008 -0.8850
  376MOL0     C49515   0.742   9.072  11.263  0.2900  0.4777 -0.5946
  376MOL0     C49516   0.661   8.938  11.246 -0.0828  0.1166  0.5010
  376MOL0     N49517   0.632   8.875  11.373  0.1953 -0.8444  0.2935
  376MOL0     C49518   0.517   8.896  11.453  0.2115  0.0486  0.5656
  376MOL0     C49519   0.528   8.812  11.556 -0.0632 -0.3989 -0.2261
  376MOL0     C49520   0.414   8.780  11.652 -0.3018 -0.0661  0.6053
  376MOL0     C49521   0.275   8.771  11.582 -0.0071  0.5663 -0.5957
  376MOL0     C49522   0.162   8.823  11.662 -0.4065 -0.0267 -0.6286
  376MOL0     C49523   0.139   8.746  11.796 -0.4154 -0.0646 -0.4445
  376MOL0     O49524   0.095   8.615  11.781  0.1892  0.7231 -0.4085
  376MOL0     C49525  -0.028   8.587  11.724  0.2552 -0.8391  1.0152
  376MOL0     C49526  -0.128   8.682  11.691 -0.2812 -0.3639  0.2174
  376MOL0     C49527  -0.257   8.646  11.650  0.1614 -0.5098 -0.1232
  376MOL0     C49528  -0.294   8.513  11.634 -0.8668  0.8081  0.0600
  376MOL0     C49529  -0.421   8.473  11.578 -0.3009  0.3052 -0.0879
  376MOL0     O49530  -0.508   8.570  11.549  1.1145  1.4200 -0.1659
  376MOL0     C49531  -0.629   8.535  11.494 -0.0211  0.1100  0.5342
  376MOL0     C49532  -0.665   8.615  11.384  0.5926 -0.1859 -0.2718
  376MOL0     C49533  -0.792   8.596  11.328 -0.6029  0.4761  0.3435
  376MOL0     C49534  -0.885   8.508  11.380  0.5791 -0.1464  0.1245
  376MOL0     O49535  -1.016   8.492  11.319 -0.4501 -0.5645  0.1188
  376MOL0     C49536  -1.088   8.615  11.309  0.6141  0.3338 -0.6216
  376MOL0     C49537  -1.238   8.580  11.298  0.3961  0.1101  0.4730
  376MOL0     C49538  -1.326   8.703  11.290 -0.2437  0.2487 -0.1658
  376MOL0     C49539  -1.468   8.650  11.268  0.4864 -0.7558  0.4404
  376MOL0     C49540  -1.569   8.762  11.251 -0.1463 -0.1390  0.1072
  376MOL0     C49541  -1.702   8.707  11.208 -0.0043  0.0732 -0.3994
  376MOL0     C49542  -1.814   8.805  11.183  0.4654  0.2383  0.4720
  376MOL0     C49543  -1.791   8.915  11.077  0.0393  0.4992 -0.5498
  376MOL0    Cl49544  -1.731   8.846  10.929  0.2537 -0.1162  0.3840
  376MOL0     C49545  -0.844   8.435  11.492 -0.6153 -0.2323  0.5378
  376MOL0     C49546  -0.719   8.440  11.545 -0.7540  0.7752  0.6173
  376MOL0     O49547  -0.444   8.354  11.558  0.4437  0.1639 -0.2635
  376MOL0     C49548  -0.199   8.419  11.669 -1.0974 -0.2772 -0.0074
  376MOL0     C49549  -0.071   8.451  11.714  0.4277 -0.9830  0.5267
  376MOL0     N49550   0.649   8.752  11.545 -0.7284  0.3702 -0.0831
  376MOL0     N49551   0.707   8.783  11.431 -0.2920 -0.3487 -0.6312
  376MOL0     C49552   1.353   9.755  11.151 -0.1764 -0.4522  0.3036
  376MOL0     C49553   1.453   9.842  11.202 -0.0528  0.2324  0.5674
  376MOL0     C49554   1.907   9.974  11.266 -0.2640  0.1388 -0.9948
  376MOL0     C49555   2.034  10.011  11.211 -0.2270  0.6404 -0.1484
  376MOL0     C49556   2.148  10.050  11.292  0.1347  0.1307 -1.1715
  376MOL0     C49557   2.127  10.040  11.428  0.0664 -0.0479  0.4803
  376MOL0     O49558   2.231  10.086  11.504 -0.1388 -0.3198  0.6178
  376MOL0     C49559   2.234  10.092  11.645 -0.1461 -0.1882  0.2327
  376MOL0     C49560   2.381  10.104  11.694  0.6970 -0.2020 -0.0270
  376MOL0     C49561   2.389  10.087  11.842 -0.1259 -0.3497  0.7358
  376MOL0     C49562   2.541  10.104  11.883  0.4773  0.1664 -0.1916
  376MOL0     C49563   2.555  10.162  12.016  0.0270  0.3011 -0.2389
  376MOL0     C49564   2.556  10.205  12.125  0.0465 -0.7210 -0.3341
  376MOL0     C49565   2.010   9.998  11.492 -0.2464  0.1026  0.9455
  376MOL0     C49566   1.902   9.966  11.407 -1.0824 -0.7647 -0.0787
  376MOL0     H49567   1.726   9.700  11.068 -0.1829 -1.1104 -0.1447
  376MOL0     H49568   1.562   9.566  10.964  1.0596  0.7593 -1.0566
  376MOL0     H49569   1.400   9.396  11.023 -0.3338  0.3303  0.1343
  376MOL0     H49570   1.405   9.460  10.864  2.7144 -0.5880  1.8248
  376MOL0     H49571   1.221   9.303  10.846  1.3475 -0.4167  0.5618
  376MOL0     H49572   1.148   9.461  10.865 -0.9285 -0.5502 -0.1297
  376MOL0     H49573   1.137   9.416  11.118 -0.1408 -1.4637  0.6617
  376MOL0     H49574   1.205   9.264  11.098  2.6204  2.1516 -0.2894
  376MOL0     H49575   0.943   9.310  10.943  2.7082  2.6388 -1.9560
  376MOL0     H49576   1.042   9.170  10.974 -0.2154  0.0506 -0.5519
  376MOL0     H49577   0.892   9.308  11.197 -0.6814 -0.4029  1.5026
  376MOL0     H49578   1.010   9.179  11.216 -0.2489  0.9942  0.4455
  376MOL0     H49579   0.856   9.022  11.075  0.9210 -1.0453  0.1420
  376MOL0     H49580   0.752   9.146  11.054  0.8685  0.8891 -0.4672
  376MOL0     H49581   0.797   9.056  11.356  1.0247  0.3110 -1.0537
  376MOL0     H49582   0.683   9.157  11.298  0.8358  0.0621  1.4348
  376MOL0     H49583   0.716   8.875  11.176 -1.0949  0.9526 -1.0961
  376MOL0     H49584   0.564   8.961  11.202 -0.4991  0.1246  1.3854
  376MOL0     H49585   0.424   8.949  11.437  0.9406  1.3226  0.3541
  376MOL0     H49586   0.410   8.863  11.722  2.9025  0.8738 -0.1248
  376MOL0     H49587   0.435   8.687  11.707  1.0346  0.0623  0.3595
  376MOL0     H49588   0.256   8.664  11.573  0.1870  0.5770 -1.1898
  376MOL0     H49589   0.268   8.816  11.482  0.2776 -0.7504 -1.2310
  376MOL0     H49590   0.183   8.927  11.691  1.9477 -0.7918  0.6242
  376MOL0     H49591   0.068   8.824  11.606 -0.9011  1.5322  0.1556
  376MOL0     H49592   0.067   8.802  11.856 -0.0145 -1.3511  1.3305
  376MOL0     H49593   0.230   8.757  11.856 -1.0722 -1.8068  0.9944
  376MOL0     H49594  -0.117   8.790  11.702 -0.8273 -0.4591  1.9583
  376MOL0     H49595  -0.328   8.726  11.631 -0.0474 -0.2222  1.7385
  376MOL0     H49596  -0.605   8.697  11.346  1.7302  0.1488  2.0297
  376MOL0     H49597  -0.831   8.659  11.249 -0.9858 -1.3577 -0.9809
  376MOL0     H49598  -1.065   8.677  11.222 -0.5932  0.5393 -0.8233
  376MOL0     H49599  -1.076   8.676  11.399  1.1830 -0.3906 -0.1951
  376MOL0     H49600  -1.271   8.511  11.376  0.7529  1.0953  1.5280
  376MOL0     H49601  -1.251   8.541  11.197 -1.5978  2.2281 -0.1851
  376MOL0     H49602  -1.300   8.750  11.194  1.2886  0.4253  0.3175
  376MOL0     H49603  -1.317   8.778  11.369  0.3217 -1.0367  1.0117
  376MOL0     H49604  -1.471   8.593  11.175 -1.3455 -0.9705  0.5849
  376MOL0     H49605  -1.496   8.584  11.351  1.9706 -2.0984 -0.0658
  376MOL0     H49606  -1.538   8.831  11.172 -0.0002 -1.6317 -1.1817
  376MOL0     H49607  -1.569   8.811  11.349  1.3568 -0.6517  0.3781
  376MOL0     H49608  -1.745   8.634  11.277 -0.4140  1.1916  0.5820
  376MOL0     H49609  -1.676   8.649  11.119 -0.1800 -0.6744  0.0324
  376MOL0     H49610  -1.908   8.755  11.159 -1.6697  3.8702  0.5060
  376MOL0     H49611  -1.839   8.850  11.279 -1.3211  1.5005 -0.5285
  376MOL0     H49612  -1.720   8.980  11.127 -0.0178 -1.0702  1.7239
  376MOL0     H49613  -1.885   8.969  11.061 -0.7744 -0.6569  0.1804
  376MOL0     H49614  -0.912   8.358  11.525 -0.8301 -0.4284 -0.3329
  376MOL0     H49615  -0.698   8.378  11.631 -3.2027 -0.3468  0.4941
  376MOL0     H49616  -0.228   8.315  11.662 -2.4438 -0.1868  2.7356
  376MOL0     H49617   0.001   8.373  11.738 -0.6558 -2.7133 -1.5215
  376MOL0     H49618   1.246   9.758  11.168 -0.3376  0.2948 -0.7650
  376MOL0     H49619   1.416   9.920  11.268 -2.5003 -0.3193 -0.0284
  376MOL0     H49620   2.036  10.019  11.103  4.0945  2.6686 -0.1249
  376MOL0     H49621   2.245  10.079  11.255  0.6173 -0.4712 -0.3971
  376MOL0     H49622   2.192   9.995  11.671 -1.1756  0.5295  1.3316
  376MOL0     H49623   2.174  10.174  11.686  0.8830  0.6124  0.1877
  376MOL0     H49624   2.425  10.015  11.647 -2.5439 -1.8657 -0.1852
  376MOL0     H49625   2.427  10.198  11.662  0.7298  0.2038  1.1878
  376MOL0     H49626   2.346   9.993  11.880 -0.8219  0.2868  1.5610
  376MOL0     H49627   2.331  10.169  11.884  1.3370  0.9349  0.3223
  376MOL0     H49628   2.594  10.008  11.883 -1.8494 -1.2435  2.3058
  376MOL0     H49629   2.595  10.168  11.812  0.2767  0.5331 -0.0107
  376MOL0     H49630   2.562  10.247  12.224 -0.3961 -2.1817  0.3441
  376MOL0     H49631   2.001   9.995  11.600 -1.9269  0.2482  0.8397
  376MOL0     H49632   1.807   9.941  11.453 -2.9012 -0.4600 -3.3496
  377MOL0     O49633   2.097   6.518   4.152  0.2811 -0.2421 -0.9073
  377MOL0     C49634   2.192   6.467   4.095  0.5021  0.6687 -0.1473
  377MOL0     O49635   2.173   6.364   4.001 -0.0796  0.3257 -0.0335
  377MOL0     C49636   2.044   6.318   3.986 -0.6190  0.6288  1.0768
  377MOL0     C49637   2.013   6.197   4.041  0.2167  0.2333 -0.3549
  377MOL0     C49638   1.879   6.144   4.032 -0.2428 -0.6297 -1.1714
  377MOL0     C49639   1.777   6.223   3.977  0.1853  0.0668 -0.3150
  377MOL0     O49640   1.650   6.172   3.986  0.1110 -0.1446 -0.8382
  377MOL0     C49641   1.537   6.253   3.950 -0.1434 -0.1817  0.6412
  377MOL0     C49642   1.421   6.154   3.948  0.2150 -0.1477 -0.5139
  377MOL0     C49643   1.394   6.087   4.076 -0.0319 -0.0915 -0.3166
  377MOL0     C49644   1.306   6.168   4.174 -0.1319 -0.2752 -0.4563
  377MOL0     C49645   1.207   6.075   4.255  0.0162 -0.1733  0.6165
  377MOL0     C49646   1.300   6.008   4.357 -0.6367 -0.1781 -0.6648
  377MOL0     C49647   1.208   5.952   4.481 -0.7525 -0.1390 -0.0683
  377MOL0     C49648   1.100   5.860   4.433 -0.4192 -0.0242  0.5841
  377MOL0     N49649   1.024   5.804   4.549 -0.1097 -0.9146  0.2010
  377MOL0     C49650   1.039   5.682   4.605  0.5597  0.0041  0.3394
  377MOL0     C49651   0.953   5.684   4.712  0.1452  0.5004  1.3136
  377MOL0     C49652   0.935   5.552   4.784  0.2885  0.1972  0.1555
  377MOL0     C49653   0.796   5.505   4.751 -0.7086 -0.1005 -0.6752
  377MOL0     C49654   0.780   5.352   4.769 -0.0201 -0.4447  0.2523
  377MOL0     C49655   0.638   5.312   4.792  0.3266 -0.2676  0.2451
  377MOL0     O49656   0.547   5.326   4.677 -0.0132  0.5492 -0.0770
  377MOL0     C49657   0.413   5.312   4.707  0.3265 -0.6925 -0.6683
  377MOL0     C49658   0.347   5.247   4.818 -0.1323  0.3719 -0.0798
  377MOL0     C49659   0.208   5.257   4.834  0.0902 -0.3163  0.9647
  377MOL0     C49660   0.133   5.310   4.725 -0.1434 -0.5333  0.5574
  377MOL0     C49661  -0.013   5.325   4.733 -0.8149  0.0113  0.4004
  377MOL0     O49662  -0.075   5.298   4.613  0.3415 -0.6144 -0.5169
  377MOL0     C49663  -0.208   5.293   4.625  0.4691  0.4936 -0.7033
  377MOL0     C49664  -0.289   5.407   4.593 -0.7862  1.1713  0.7696
  377MOL0     C49665  -0.425   5.408   4.611 -0.7151  0.2045 -0.4182
  377MOL0     C49666  -0.490   5.293   4.662  0.5057 -0.2186 -0.5281
  377MOL0     O49667  -0.632   5.288   4.668 -0.0609 -0.0354  0.6916
  377MOL0     C49668  -0.710   5.405   4.628  0.6052 -0.0001 -0.2626
  377MOL0     C49669  -0.859   5.386   4.637  0.9980 -0.5384  0.8676
  377MOL0     C49670  -0.934   5.413   4.764 -0.5868 -0.5164 -0.0323
  377MOL0     C49671  -1.083   5.430   4.734  1.2118 -0.0068  0.9368
  377MOL0     C49672  -1.168   5.428   4.862  0.3070  0.3329  0.2724
  377MOL0     C49673  -1.317   5.437   4.823  0.2835  0.2015 -0.1596
  377MOL0     C49674  -1.401   5.332   4.900  0.6901 -0.5908  0.0464
  377MOL0     C49675  -1.538   5.317   4.844 -0.6394 -0.3474 -0.1079
  377MOL0    Cl49676  -1.533   5.311   4.665 -0.0233  0.2029 -0.4053
  377MOL0     C49677  -0.414   5.178   4.688 -0.0797 -0.0598  0.8167
  377MOL0     C49678  -0.278   5.178   4.672 -0.2001 -0.5120 -0.6950
  377MOL0     O49679  -0.068   5.333   4.844 -0.7544  0.6619 -0.0559
  377MOL0     C49680   0.196   5.350   4.608 -0.1961 -1.6189 -0.1260
  377MOL0     C49681   0.335   5.368   4.606  0.2387 -0.8936 -0.6220
  377MOL0     N49682   0.892   5.800   4.722  0.1114 -0.8041 -0.5832
  377MOL0     N49683   0.932   5.877   4.623 -0.1495  0.3908 -0.1782
  377MOL0     C49684   1.802   6.352   3.934  0.7334  0.6216  0.3996
  377MOL0     C49685   1.936   6.395   3.931  1.0491  0.5176 -0.5460
  377MOL0     C49686   2.334   6.522   4.095 -0.2201 -1.4955 -0.9063
  377MOL0     C49687   2.351   6.652   4.131  0.8249 -0.5653  0.4257
  377MOL0     C49688   2.473   6.714   4.131 -0.2356  0.0434  0.4460
  377MOL0     C49689   2.586   6.633   4.091  0.1163  0.3418 -0.8341
  377MOL0     O49690   2.703   6.708   4.102  0.2857 -0.7077 -0.4342
  377MOL0     C49691   2.832   6.655   4.053 -0.6369  0.4642 -0.1900
  377MOL0     C49692   2.849   6.634   3.896 -0.7959 -0.2089 -0.7564
  377MOL0     C49693   2.737   6.572   3.810 -0.4748 -0.7950  0.5147
  377MOL0     C49694   2.762   6.577   3.653  0.0741  0.2422  0.4665
  377MOL0     C49695   2.900   6.608   3.616 -0.5192 -0.6782  0.6718
  377MOL0     C49696   3.015   6.616   3.564  0.3136  0.4557 -1.2014
  377MOL0     C49697   2.571   6.500   4.057 -0.8785  0.5031 -0.6448
  377MOL0     C49698   2.441   6.448   4.052  1.0594  0.5629 -0.3905
  377MOL0     H49699   2.087   6.139   4.094 -1.8258 -0.5273  1.8384
  377MOL0     H49700   1.859   6.047   4.077 -0.9021  0.0934  0.1423
  377MOL0     H49701   1.548   6.303   3.853 -3.1534  1.1647  0.8892
  377MOL0     H49702   1.506   6.327   4.024 -1.6941 -3.0171  3.0469
  377MOL0     H49703   1.444   6.079   3.872 -1.1218  0.2920 -1.3884
  377MOL0     H49704   1.336   6.212   3.911  1.8135  1.8757 -1.1876
  377MOL0     H49705   1.485   6.044   4.119 -0.5705 -2.1735 -1.1555
  377MOL0     H49706   1.331   6.001   4.053  0.3980 -1.1648  2.1741
  377MOL0     H49707   1.372   6.217   4.247  0.3487 -0.8367 -0.5045
  377MOL0     H49708   1.251   6.245   4.120 -2.4334 -1.9462 -0.6471
  377MOL0     H49709   1.163   5.999   4.190  0.2729 -0.9704  1.3574
  377MOL0     H49710   1.133   6.138   4.306 -0.5090 -1.6380  1.7245
  377MOL0     H49711   1.369   6.074   4.409  0.5852 -0.1465 -2.2766
  377MOL0     H49712   1.362   5.938   4.300 -0.5461  1.1747 -2.2958
  377MOL0     H49713   1.276   5.905   4.552 -0.4716 -0.0057 -0.2424
  377MOL0     H49714   1.149   6.032   4.526 -3.3060 -0.3001 -2.8411
  377MOL0     H49715   1.146   5.783   4.371 -0.3639  1.9379 -1.9500
  377MOL0     H49716   1.026   5.916   4.377 -0.6297  0.5369  1.4066
  377MOL0     H49717   1.083   5.599   4.552 -1.4166 -1.4045  0.7590
  377MOL0     H49718   0.944   5.577   4.890 -0.3683  1.0452  0.0202
  377MOL0     H49719   1.009   5.477   4.756 -0.2001 -1.7589  3.5399
  377MOL0     H49720   0.774   5.535   4.648  0.1184  1.1606 -0.5065
  377MOL0     H49721   0.722   5.564   4.805 -1.0191  1.7002 -2.8723
  377MOL0     H49722   0.818   5.306   4.677  0.3594  1.2550 -0.4833
  377MOL0     H49723   0.840   5.318   4.854 -2.2110  0.9420  2.4761
  377MOL0     H49724   0.596   5.373   4.872  1.5878  1.5732 -0.4379
  377MOL0     H49725   0.629   5.205   4.813 -1.2137 -0.1295  0.3593
  377MOL0     H49726   0.406   5.211   4.901 -0.1105 -0.5974 -0.5113
  377MOL0     H49727   0.163   5.237   4.931  0.2553 -1.7466  0.7564
  377MOL0     H49728  -0.246   5.494   4.546  0.4617  0.4415  0.5157
  377MOL0     H49729  -0.474   5.495   4.571  0.0601  0.3544 -1.0583
  377MOL0     H49730  -0.692   5.416   4.521  1.2292  2.1858  0.0225
  377MOL0     H49731  -0.669   5.492   4.680 -1.0608 -1.8239  4.6587
  377MOL0     H49732  -0.888   5.287   4.602 -3.3688  1.0667 -0.8239
  377MOL0     H49733  -0.903   5.454   4.562  1.0417  1.1429  2.3021
  377MOL0     H49734  -0.889   5.499   4.814 -1.1692  0.4579 -1.1332
  377MOL0     H49735  -0.923   5.331   4.835  2.3715  0.2438  0.5369
  377MOL0     H49736  -1.097   5.524   4.679  1.6068  1.0082  2.4874
  377MOL0     H49737  -1.129   5.349   4.678 -1.1390  2.6781 -1.3865
  377MOL0     H49738  -1.137   5.517   4.917 -0.2965 -0.0239  1.2003
  377MOL0     H49739  -1.150   5.338   4.920 -1.7614  0.6348  1.4663
  377MOL0     H49740  -1.331   5.435   4.715 -1.2350 -2.4585 -0.0176
  377MOL0     H49741  -1.355   5.534   4.857 -1.3684 -0.2069 -0.7505
  377MOL0     H49742  -1.370   5.230   4.875 -1.8085 -0.9600 -1.9393
  377MOL0     H49743  -1.404   5.343   5.009  0.2378  0.5708 -0.0695
  377MOL0     H49744  -1.594   5.404   4.880  1.0756  1.6592 -2.0065
  377MOL0     H49745  -1.592   5.225   4.870 -0.8184 -1.7110 -4.4567
  377MOL0     H49746  -0.470   5.087   4.708 -1.0285  0.2491 -0.3203
  377MOL0     H49747  -0.212   5.093   4.682  0.7477  0.3300  0.5322
  377MOL0     H49748   0.137   5.381   4.522 -1.3220 -1.0052  0.8405
  377MOL0     H49749   0.381   5.400   4.513  1.5226 -4.8997 -1.5351
  377MOL0     H49750   1.718   6.407   3.893 -1.2538 -1.2722  1.7218
  377MOL0     H49751   1.959   6.498   3.904  1.4241 -0.4238 -4.2837
  377MOL0     H49752   2.271   6.719   4.158  1.4248 -0.8711  3.3239
  377MOL0     H49753   2.480   6.818   4.162  1.1852 -0.0004  0.3680
  377MOL0     H49754   2.866   6.567   4.108 -0.3955 -0.1585 -1.3107
  377MOL0     H49755   2.907   6.732   4.077 -0.9129  1.6933 -2.9200
  377MOL0     H49756   2.874   6.735   3.861  0.6025  0.4749  1.9033
  377MOL0     H49757   2.938   6.570   3.900 -0.6600 -0.0168 -0.6407
  377MOL0     H49758   2.654   6.638   3.832  0.4578  0.3797  0.6160
  377MOL0     H49759   2.728   6.466   3.838  0.4734 -0.2929  3.0093
  377MOL0     H49760   2.744   6.478   3.610 -1.3901 -0.4039  2.4498
  377MOL0     H49761   2.688   6.637   3.600 -0.6449 -1.0908 -0.1004
  377MOL0     H49762   3.113   6.612   3.520  0.1000 -1.2656 -1.6083
  377MOL0     H49763   2.659   6.439   4.043 -0.8850  0.6482 -1.3431
  377MOL0     H49764   2.419   6.348   4.015  1.0072  1.2303 -2.3125
  378MOL0     O49765   7.022   1.062   3.383 -0.1084 -0.4748  0.2305
  378MOL0     C49766   7.078   1.145   3.305 -0.5352 -0.4266 -0.1301
  378MOL0     O49767   7.026   1.263   3.248 -0.0646 -0.8880  0.0222
  378MOL0     C49768   6.904   1.321   3.283 -0.7620  0.0164 -0.4369
  378MOL0     C49769   6.799   1.257   3.349 -0.1595 -0.2155  0.6038
  378MOL0     C49770   6.676   1.325   3.370  0.6001  0.0439 -1.0532
  378MOL0     C49771   6.666   1.458   3.333 -0.1144  0.1403  0.0805
  378MOL0     O49772   6.547   1.519   3.347  0.0740  0.4642 -0.5474
  378MOL0     C49773   6.506   1.622   3.260  0.8044 -0.0851 -0.9013
  378MOL0     C49774   6.370   1.665   3.310 -0.1129 -0.1990  0.6286
  378MOL0     C49775   6.264   1.554   3.286  0.3752 -0.5747  0.4769
  378MOL0     C49776   6.133   1.597   3.339  0.3064 -0.6917  0.4888
  378MOL0     C49777   6.023   1.503   3.289 -0.6200  0.4300  0.1772
  378MOL0     C49778   5.884   1.544   3.344  0.1277  0.9914  0.0767
  378MOL0     C49779   5.764   1.454   3.291 -0.2859 -0.4766  0.5176
  378MOL0     C49780   5.781   1.303   3.326 -0.4306 -0.9822  0.6367
  378MOL0     N49781   5.660   1.244   3.386 -0.3223 -0.4074 -0.3077
  378MOL0     C49782   5.582   1.148   3.335 -0.0387 -0.6354 -0.4135
  378MOL0     C49783   5.494   1.126   3.432 -0.0937 -0.0926 -0.2008
  378MOL0     C49784   5.380   1.037   3.420 -0.7846 -0.5405  0.5188
  378MOL0     C49785   5.253   1.119   3.396  0.2149 -0.3773 -0.3060
  378MOL0     C49786   5.251   1.218   3.283  0.3672  0.1195  0.3196
  378MOL0     C49787   5.144   1.325   3.316  0.0249 -0.1085 -0.2945
  378MOL0     O49788   5.114   1.405   3.199  0.4009 -0.1195 -0.2349
  378MOL0     C49789   5.024   1.506   3.208 -0.0363  0.6787  0.3892
  378MOL0     C49790   5.005   1.586   3.089  0.0944 -0.4953 -0.3593
  378MOL0     C49791   4.910   1.687   3.082  0.2952 -0.1523 -0.3619
  378MOL0     C49792   4.824   1.714   3.194  0.5178 -0.2964  0.4389
  378MOL0     C49793   4.716   1.816   3.191  0.0785  0.4846  0.4160
  378MOL0     O49794   4.717   1.890   3.074 -0.1958  0.6646 -0.4155
  378MOL0     C49795   4.630   1.997   3.064 -0.6105 -1.0363  0.1484
  378MOL0     C49796   4.557   2.025   2.949  0.2249  0.1316 -0.0303
  378MOL0     C49797   4.487   2.148   2.935  0.7833  0.4102 -1.0722
  378MOL0     C49798   4.483   2.237   3.041 -0.0282 -0.5723 -0.6224
  378MOL0     O49799   4.410   2.356   3.044 -0.2976 -0.5419  0.1916
  378MOL0     C49800   4.297   2.364   2.951 -0.0774  0.6755  0.5859
  378MOL0     C49801   4.221   2.480   2.997 -0.0368 -0.5526 -0.2415
  378MOL0     C49802   4.091   2.488   2.928 -0.4851 -0.8080 -0.2396
  378MOL0     C49803   3.983   2.575   3.002 -0.6551 -0.1262 -0.2105
  378MOL0     C49804   4.041   2.721   3.020 -0.5863  0.7827 -0.9492
  378MOL0     C49805   3.937   2.826   3.010  0.5910 -0.5489  0.1485
  378MOL0     C49806   3.822   2.805   3.109  0.0454  1.4163 -0.7919
  378MOL0     C49807   3.730   2.924   3.120  0.1173  0.6291 -0.6082
  378MOL0    Cl49808   3.659   2.965   2.956  0.0743  0.2413  0.5597
  378MOL0     C49809   4.565   2.227   3.149 -0.0701  0.1013 -0.6142
  378MOL0     C49810   4.636   2.102   3.155  0.6675 -0.7138  0.6720
  378MOL0     O49811   4.635   1.838   3.282 -0.1286 -0.2770 -0.5338
  378MOL0     C49812   4.850   1.638   3.313  0.0947 -0.3930 -0.0861
  378MOL0     C49813   4.950   1.540   3.322 -0.0971  0.6437  0.0997
  378MOL0     N49814   5.523   1.205   3.547 -0.2271  0.0002 -0.0102
  378MOL0     N49815   5.619   1.284   3.507 -0.3230 -0.6303 -0.8242
  378MOL0     C49816   6.765   1.510   3.258  0.6695 -0.8231  0.3045
  378MOL0     C49817   6.885   1.453   3.249 -0.0355  0.0907  0.2127
  378MOL0     C49818   7.221   1.122   3.271 -0.3269  0.4813  0.4180
  378MOL0     C49819   7.294   1.194   3.178 -0.1621 -0.4621 -0.0712
  378MOL0     C49820   7.433   1.185   3.166  0.3677 -0.2844  0.0063
  378MOL0     C49821   7.504   1.079   3.223  0.3683  0.0053  0.5185
  378MOL0     O49822   7.628   1.042   3.190 -0.9292  0.4429  0.2729
  378MOL0     C49823   7.663   1.051   3.048  0.7171  0.1133 -0.2523
  378MOL0     C49824   7.799   0.980   3.034 -0.0750 -0.8322 -0.1740
  378MOL0     C49825   7.843   0.965   2.889  0.0139 -0.3420  0.1244
  378MOL0     C49826   7.970   0.885   2.904 -0.3592 -0.2371  0.5043
  378MOL0     C49827   8.072   0.911   2.809 -0.1887  0.6252 -0.1808
  378MOL0     C49828   8.165   0.916   2.732 -1.1950 -0.5869 -0.4051
  378MOL0     C49829   7.430   0.994   3.294  0.0670  0.7923 -0.1733
  378MOL0     C49830   7.291   1.011   3.329  0.5565  0.2203  0.1874
  378MOL0     H49831   6.808   1.150   3.367  0.1813 -0.4671 -0.9030
  378MOL0     H49832   6.592   1.267   3.407  0.6593  1.1621  0.9816
  378MOL0     H49833   6.496   1.590   3.156 -1.3598 -0.3516 -0.6647
  378MOL0     H49834   6.577   1.706   3.260 -0.2855  0.9306  1.6663
  378MOL0     H49835   6.343   1.751   3.248 -1.0162 -0.2047  1.0042
  378MOL0     H49836   6.369   1.695   3.415 -0.2527 -2.0807  1.2079
  378MOL0     H49837   6.294   1.462   3.336 -0.4328 -0.6348  0.8496
  378MOL0     H49838   6.263   1.545   3.177 -1.1409 -0.1220  0.4373
  378MOL0     H49839   6.134   1.617   3.447  2.2103  1.3156  0.1589
  378MOL0     H49840   6.120   1.698   3.300 -1.1894 -0.0512  2.4277
  378MOL0     H49841   6.059   1.404   3.318  1.8609  1.7806  1.9993
  378MOL0     H49842   6.017   1.494   3.180  0.6529 -0.6508  0.1773
  378MOL0     H49843   5.875   1.651   3.319  0.5126  0.9899 -0.0739
  378MOL0     H49844   5.900   1.538   3.452  0.5064 -2.8720 -0.0686
  378MOL0     H49845   5.665   1.489   3.322 -1.6150 -1.8877 -1.9001
  378MOL0     H49846   5.771   1.464   3.183  1.4383  0.7886  0.7084
  378MOL0     H49847   5.863   1.291   3.397  0.1335  1.2114  0.4184
  378MOL0     H49848   5.816   1.244   3.240  1.4811  0.2045  0.5505
  378MOL0     H49849   5.586   1.095   3.240 -0.0195 -1.2806 -0.0577
  378MOL0     H49850   5.366   0.996   3.521  3.3941 -3.8966 -0.0040
  378MOL0     H49851   5.391   0.954   3.349 -2.0849  1.4587 -2.1609
  378MOL0     H49852   5.237   1.175   3.488  1.1646 -0.1970 -0.2437
  378MOL0     H49853   5.169   1.050   3.391 -0.1606  0.1434 -1.7610
  378MOL0     H49854   5.349   1.264   3.270  0.7671 -0.6575  0.4962
  378MOL0     H49855   5.234   1.178   3.183  1.5994 -0.7083  0.4129
  378MOL0     H49856   5.197   1.383   3.392  0.5601  1.5181 -1.8349
  378MOL0     H49857   5.057   1.275   3.360  1.1484  1.2046  3.8529
  378MOL0     H49858   5.064   1.541   3.010  1.7422 -0.7095  0.9324
  378MOL0     H49859   4.896   1.729   2.983  0.2801 -2.2105 -1.2787
  378MOL0     H49860   4.554   1.954   2.867  0.3519  1.3708 -1.1465
  378MOL0     H49861   4.431   2.181   2.848 -0.8899  1.0602  0.2035
  378MOL0     H49862   4.248   2.267   2.941 -0.9855  1.2735 -1.0624
  378MOL0     H49863   4.328   2.394   2.850 -0.7737 -0.6855 -0.0617
  378MOL0     H49864   4.281   2.569   2.978  0.4700 -1.2127 -1.9028
  378MOL0     H49865   4.191   2.465   3.101 -0.4942 -0.0796 -0.2999
  378MOL0     H49866   4.049   2.387   2.929  1.1713 -1.6017 -2.4595
  378MOL0     H49867   4.110   2.513   2.823 -3.9219 -5.3908 -2.3199
  378MOL0     H49868   3.892   2.577   2.941 -0.0144  3.3871 -1.3023
  378MOL0     H49869   3.954   2.530   3.097 -0.3243  1.7669  0.8418
  378MOL0     H49870   4.119   2.744   2.946 -2.3379  0.9861 -2.8374
  378MOL0     H49871   4.093   2.734   3.115  0.4895 -0.2204 -1.3773
  378MOL0     H49872   3.900   2.844   2.909  1.6539  1.4337  0.0605
  378MOL0     H49873   4.001   2.910   3.038  1.7129 -0.7235 -1.7328
  378MOL0     H49874   3.763   2.718   3.079 -1.7461  2.5488 -0.7308
  378MOL0     H49875   3.868   2.780   3.205  0.1002  1.9331 -0.6840
  378MOL0     H49876   3.784   3.005   3.169  0.1921 -1.1067  2.3891
  378MOL0     H49877   3.650   2.898   3.190  1.4662  1.9924  1.5265
  378MOL0     H49878   4.576   2.317   3.209 -3.5340  0.6391 -0.5622
  378MOL0     H49879   4.716   2.097   3.229  3.5676 -2.2615 -2.3119
  378MOL0     H49880   4.805   1.649   3.411  1.6410  2.8924  0.3858
  378MOL0     H49881   4.968   1.489   3.416 -0.2597 -1.6060 -1.0223
  378MOL0     H49882   6.755   1.603   3.202  1.7319 -1.5360 -1.1010
  378MOL0     H49883   6.961   1.499   3.187 -0.0031 -1.8608 -1.3055
  378MOL0     H49884   7.255   1.288   3.139 -0.3209 -0.4948  0.0077
  378MOL0     H49885   7.483   1.261   3.106 -0.9730 -0.6279 -1.6124
  378MOL0     H49886   7.677   1.155   3.018 -0.9779  0.7864  1.1150
  378MOL0     H49887   7.580   1.002   2.996 -1.1069 -1.1588  3.4842
  378MOL0     H49888   7.869   1.030   3.102 -2.4267  1.4028  0.7596
  378MOL0     H49889   7.790   0.878   3.072  0.6945 -1.2911 -1.1786
  378MOL0     H49890   7.854   1.063   2.843  1.8889 -1.5160 -2.1957
  378MOL0     H49891   7.771   0.912   2.827 -2.4856  2.7315  0.1961
  378MOL0     H49892   8.019   0.892   3.001  0.5717  4.5946 -0.0810
  378MOL0     H49893   7.944   0.779   2.897 -0.3806 -0.1145 -2.3104
  378MOL0     H49894   8.241   0.917   2.657 -1.8176 -0.2702 -1.0466
  378MOL0     H49895   7.488   0.907   3.321 -2.7604 -1.2322 -0.1380
  378MOL0     H49896   7.231   0.944   3.389  0.4750  0.4349  0.3473
  379MOL0     O49897   7.490   7.495   3.424 -0.3765  0.9784  0.4294
  379MOL0     C49898   7.596   7.504   3.362  0.3809 -0.4141  0.8292
  379MOL0     O49899   7.605   7.515   3.224 -0.8542  0.4598  0.0109
  379MOL0     C49900   7.506   7.550   3.138 -0.7276  0.2026 -0.2039
  379MOL0     C49901   7.508   7.498   3.009 -0.6598  0.3909 -0.7173
  379MOL0     C49902   7.388   7.529   2.929 -0.3191 -0.5099  0.1287
  379MOL0     C49903   7.290   7.626   2.968 -0.4931 -1.0845  0.6903
  379MOL0     O49904   7.176   7.635   2.884 -0.4996  0.1298  0.0976
  379MOL0     C49905   7.065   7.700   2.944 -0.4604  0.4397 -0.4468
  379MOL0     C49906   6.944   7.721   2.841 -1.2169 -0.0600  0.0688
  379MOL0     C49907   6.962   7.826   2.726 -0.2396 -0.2314 -0.7690
  379MOL0     C49908   7.005   7.956   2.790  0.0768 -0.3951  0.2256
  379MOL0     C49909   7.019   8.072   2.684  0.8223  0.2210  0.6557
  379MOL0     C49910   7.092   8.192   2.755 -0.3691 -0.4105  0.1936
  379MOL0     C49911   7.126   8.301   2.653  0.0559 -0.0654 -0.5942
  379MOL0     C49912   7.204   8.412   2.734  0.0181 -0.4320 -0.8149
  379MOL0     N49913   7.247   8.511   2.635  0.3054 -0.4818 -0.1345
  379MOL0     C49914   7.313   8.495   2.517  0.2384  0.2808  0.7070
  379MOL0     C49915   7.302   8.612   2.451  1.0170  0.7437 -0.0254
  379MOL0     C49916   7.338   8.640   2.309  0.3074  0.5215 -0.0103
  379MOL0     C49917   7.247   8.751   2.252  0.9190  0.9304  0.3483
  379MOL0     C49918   7.106   8.695   2.218 -0.1797 -0.9376  0.0015
  379MOL0     C49919   7.023   8.787   2.135  0.2214  0.4844  0.0848
  379MOL0     O49920   6.908   8.718   2.079 -0.5304  0.4450  1.0858
  379MOL0     C49921   6.792   8.779   2.037  0.5444  0.3612  0.0327
  379MOL0     C49922   6.796   8.908   2.000 -0.1059 -0.4083 -0.4777
  379MOL0     C49923   6.675   8.968   1.964 -0.1539  0.5540  0.4473
  379MOL0     C49924   6.558   8.895   1.957  0.8327 -0.6163  0.5026
  379MOL0     C49925   6.435   8.965   1.923 -0.1736 -0.2684  0.1746
  379MOL0     O49926   6.336   8.884   1.889  0.3917  0.3055  0.4652
  379MOL0     C49927   6.229   8.946   1.835  0.2176 -0.8521 -0.3915
  379MOL0     C49928   6.205   8.956   1.702 -0.4865  0.2092  0.3596
  379MOL0     C49929   6.088   9.015   1.653 -0.1773  0.2970 -0.3427
  379MOL0     C49930   5.991   9.067   1.743 -0.5649 -0.0466  0.3007
  379MOL0     O49931   5.874   9.129   1.710  0.2002 -0.2635 -0.3227
  379MOL0     C49932   5.826   9.112   1.576  1.1152  0.6976 -0.5596
  379MOL0     C49933   5.676   9.140   1.562  0.2236  0.8122 -0.3869
  379MOL0     C49934   5.642   9.289   1.537  0.0572  0.6852  0.4783
  379MOL0     C49935   5.503   9.293   1.470 -0.1609  0.7413 -0.1019
  379MOL0     C49936   5.431   9.424   1.495 -0.7110  0.2895 -0.2642
  379MOL0     C49937   5.307   9.432   1.415  0.1056 -0.3543 -0.1479
  379MOL0     C49938   5.210   9.310   1.427  0.0677  1.3230  0.4045
  379MOL0     C49939   5.064   9.336   1.381  0.6068 -0.3702 -0.6506
  379MOL0    Cl49940   4.984   9.477   1.449  0.1535  0.3003  0.2977
  379MOL0     C49941   6.023   9.050   1.881  0.0721 -0.7055  0.1553
  379MOL0     C49942   6.133   8.987   1.923  0.3090 -0.7247  0.2896
  379MOL0     O49943   6.429   9.092   1.922  0.0374 -0.2446 -0.0608
  379MOL0     C49944   6.558   8.754   1.988  0.5978  0.0312 -1.4393
  379MOL0     C49945   6.680   8.695   2.023 -1.0750 -0.2455  0.1492
  379MOL0     N49946   7.229   8.697   2.526 -0.2572 -0.4862  0.3195
  379MOL0     N49947   7.194   8.634   2.634 -0.0286 -0.2113 -0.3339
  379MOL0     C49948   7.295   7.677   3.100 -0.1915 -0.2421 -0.2236
  379MOL0     C49949   7.409   7.641   3.179  0.6658  0.3140  0.3195
  379MOL0     C49950   7.721   7.467   3.431 -0.1809  0.0055 -0.3387
  379MOL0     C49951   7.848   7.464   3.357 -0.3106  0.3077  0.2386
  379MOL0     C49952   7.953   7.402   3.419 -0.3907  0.5465 -0.5555
  379MOL0     C49953   7.948   7.354   3.549 -0.1829  0.0958  0.0713
  379MOL0     O49954   8.064   7.300   3.595  0.0109  0.2949 -0.3840
  379MOL0     C49955   8.084   7.279   3.737 -0.2344 -0.0838  0.7701
  379MOL0     C49956   8.231   7.284   3.772  1.0373 -0.2093 -0.3411
  379MOL0     C49957   8.325   7.219   3.664  0.1156 -0.1311 -0.5721
  379MOL0     C49958   8.301   7.072   3.645  0.6282  1.0773  0.5580
  379MOL0     C49959   8.394   7.024   3.541 -0.5263  0.7310  1.0525
  379MOL0     C49960   8.464   6.972   3.447 -0.1183 -0.2760  0.2551
  379MOL0     C49961   7.831   7.366   3.622 -0.0405 -1.3521  0.0481
  379MOL0     C49962   7.721   7.417   3.561 -0.1067  0.5838 -0.0425
  379MOL0     H49963   7.578   7.425   2.968 -2.3420 -1.5414 -0.3428
  379MOL0     H49964   7.384   7.466   2.840  0.9073 -1.0858  0.4621
  379MOL0     H49965   7.098   7.792   2.993  1.4486 -0.2683 -0.3188
  379MOL0     H49966   7.029   7.628   3.018 -1.9754  1.3921 -0.2047
  379MOL0     H49967   6.850   7.735   2.895 -1.1255 -1.2513  0.5631
  379MOL0     H49968   6.935   7.619   2.802 -3.3673  0.1890 -0.2056
  379MOL0     H49969   6.868   7.845   2.673 -0.4431 -1.3664 -0.8345
  379MOL0     H49970   7.031   7.779   2.655 -0.2662  1.1041 -1.7406
  379MOL0     H49971   6.918   7.992   2.846  0.0966  0.7089 -0.4281
  379MOL0     H49972   7.096   7.942   2.849  0.6765  0.2177 -0.5252
  379MOL0     H49973   6.921   8.098   2.643  0.7302 -3.8487 -2.3000
  379MOL0     H49974   7.090   8.041   2.606  1.2083 -2.8997  2.0983
  379MOL0     H49975   7.186   8.151   2.792 -0.5855 -0.2016  0.9842
  379MOL0     H49976   7.022   8.216   2.836 -0.0539 -0.6699  0.5393
  379MOL0     H49977   7.194   8.268   2.574 -1.0325 -0.9959 -1.1799
  379MOL0     H49978   7.040   8.354   2.611  0.8244  0.1032 -2.0136
  379MOL0     H49979   7.285   8.365   2.791 -1.2265 -0.2929  1.1415
  379MOL0     H49980   7.137   8.454   2.809 -1.5014 -2.0399 -1.2189
  379MOL0     H49981   7.366   8.407   2.484  1.4489  0.5287  1.8878
  379MOL0     H49982   7.330   8.543   2.259  0.1693  0.6290 -0.2010
  379MOL0     H49983   7.442   8.671   2.300  1.2431 -2.9087 -3.2583
  379MOL0     H49984   7.294   8.791   2.162 -1.0931 -0.3243 -1.3807
  379MOL0     H49985   7.236   8.839   2.316 -2.1426  2.2167 -1.7331
  379MOL0     H49986   7.112   8.591   2.184  1.5365 -0.1323 -2.4360
  379MOL0     H49987   7.050   8.693   2.312 -1.9289  2.6836 -0.8023
  379MOL0     H49988   7.081   8.821   2.049  0.0954 -1.0058 -0.6156
  379MOL0     H49989   6.993   8.869   2.201 -0.0630 -1.9670  3.2464
  379MOL0     H49990   6.890   8.963   1.993 -0.1115 -0.3676 -0.2454
  379MOL0     H49991   6.679   9.072   1.935  2.8184  1.3400  3.1823
  379MOL0     H49992   6.278   8.914   1.634 -0.3782 -1.6322  1.5381
  379MOL0     H49993   6.078   9.003   1.545 -2.2344 -2.5219  0.0380
  379MOL0     H49994   5.851   9.009   1.550  1.4954  0.9002 -1.0028
  379MOL0     H49995   5.886   9.175   1.509  2.8558 -0.4538 -0.1279
  379MOL0     H49996   5.631   9.093   1.650 -0.7815 -0.5331 -1.5753
  379MOL0     H49997   5.650   9.080   1.474 -2.4760  0.6527  0.4433
  379MOL0     H49998   5.715   9.345   1.478  0.5147 -0.2089  0.1814
  379MOL0     H49999   5.650   9.340   1.634  0.5134  2.9636 -0.6785
  379MOL0     H50000   5.514   9.281   1.362 -0.6718  0.4248 -0.1239
  379MOL0     H50001   5.444   9.208   1.506  0.8137 -0.0935 -0.4257
  379MOL0     H50002   5.511   9.495   1.472  0.0144 -0.9936 -1.9040
  379MOL0     H50003   5.400   9.436   1.599  2.1961 -1.3180  0.9130
  379MOL0     H50004   5.353   9.454   1.318  0.8698  2.0481  0.6884
  379MOL0     H50005   5.255   9.523   1.445  0.6788 -0.8463  2.5682
  379MOL0     H50006   5.248   9.230   1.363 -1.5194  0.0955  0.9244
  379MOL0     H50007   5.196   9.269   1.527 -0.1971 -2.7852 -1.1060
  379MOL0     H50008   5.002   9.248   1.404 -0.0723  0.2266 -0.1544
  379MOL0     H50009   5.071   9.348   1.273  1.7084  1.3769 -0.4273
  379MOL0     H50010   5.945   9.076   1.952 -1.5009  0.8557 -2.0026
  379MOL0     H50011   6.137   8.969   2.030 -2.4362 -0.1551  0.5545
  379MOL0     H50012   6.468   8.695   1.990  1.1607 -0.8534  0.6571
  379MOL0     H50013   6.683   8.592   2.058  0.7492 -0.0540  0.6245
  379MOL0     H50014   7.239   7.756   3.150  0.4622 -0.1011  0.3072
  379MOL0     H50015   7.405   7.685   3.277 -1.2182 -0.2771  0.5655
  379MOL0     H50016   7.850   7.482   3.250 -0.2268  1.1434  0.3765
  379MOL0     H50017   8.044   7.402   3.360 -0.6794 -1.7520 -1.0639
  379MOL0     H50018   8.047   7.178   3.753 -1.7197  0.5062  1.2586
  379MOL0     H50019   8.021   7.340   3.802  0.1654  0.0900  0.9972
  379MOL0     H50020   8.249   7.391   3.786 -3.1540  0.7758 -1.1013
  379MOL0     H50021   8.233   7.233   3.869 -0.9586 -0.8222 -0.5806
  379MOL0     H50022   8.422   7.240   3.710 -0.1240  1.7601 -0.8376
  379MOL0     H50023   8.334   7.277   3.572  0.9570  2.9082  1.2914
  379MOL0     H50024   8.317   7.003   3.728 -2.2124 -1.5123 -0.8418
  379MOL0     H50025   8.201   7.054   3.605  1.4799  0.9464 -1.6223
  379MOL0     H50026   8.537   6.944   3.373  0.1781 -0.3898  0.5866
  379MOL0     H50027   7.818   7.335   3.725 -1.2259 -3.6560 -0.7333
  379MOL0     H50028   7.628   7.429   3.616  0.4917 -1.3761  1.4968
  380MOL0     O50029   4.459   6.800   7.875  0.4516 -0.5432  0.1981
  380MOL0     C50030   4.481   6.702   7.942 -0.1309 -0.2003 -0.0124
  380MOL0     O50031   4.388   6.603   7.978  0.4829  0.0563  0.3017
  380MOL0     C50032   4.263   6.574   7.921 -0.1917 -0.0734 -0.4346
  380MOL0     C50033   4.204   6.447   7.946 -0.0983  0.2598  0.0721
  380MOL0     C50034   4.076   6.422   7.894 -0.3493 -0.3257  0.2220
  380MOL0     C50035   4.000   6.515   7.828  0.2641 -0.5155  0.2526
  380MOL0     O50036   3.866   6.478   7.816  0.6447  0.3986  0.2283
  380MOL0     C50037   3.757   6.571   7.814  0.4307 -0.0498  0.1365
  380MOL0     C50038   3.632   6.517   7.735  0.3990 -0.6864 -0.4901
  380MOL0     C50039   3.495   6.586   7.768  0.3453 -0.3944 -0.2901
  380MOL0     C50040   3.369   6.505   7.715  0.3144  0.1781  0.2946
  380MOL0     C50041   3.246   6.578   7.759  0.3522 -0.2646  0.5304
  380MOL0     C50042   3.124   6.499   7.714 -0.8890 -0.2539 -0.0895
  380MOL0     C50043   2.999   6.587   7.724 -1.8572  0.1280 -0.4963
  380MOL0     C50044   2.879   6.499   7.711 -0.3443  0.0526 -0.0960
  380MOL0     N50045   2.748   6.556   7.732  0.3028  0.0534 -0.0581
  380MOL0     C50046   2.636   6.495   7.699  0.6836  0.0116  0.7477
  380MOL0     C50047   2.532   6.569   7.752 -0.5580  0.6012  0.0563
  380MOL0     C50048   2.389   6.526   7.759  0.2819 -0.1408 -0.8139
  380MOL0     C50049   2.300   6.621   7.678 -0.0662  0.1167 -0.1819
  380MOL0     C50050   2.260   6.753   7.751  0.1672 -0.1448  0.5101
  380MOL0     C50051   2.194   6.847   7.646 -0.0249 -0.3577 -0.5954
  380MOL0     O50052   2.078   6.802   7.576 -0.0310 -0.3668 -0.3150
  380MOL0     C50053   2.016   6.885   7.484  0.2478  0.1540  0.4667
  380MOL0     C50054   1.922   6.983   7.534 -0.2156  0.8095  0.3492
  380MOL0     C50055   1.834   7.054   7.444  0.7571  0.5468  0.0339
  380MOL0     C50056   1.860   7.050   7.300  0.0898 -0.1506  0.2098
  380MOL0     C50057   1.777   7.118   7.201  0.7523 -0.9363 -0.1429
  380MOL0     O50058   1.833   7.152   7.086 -0.5043 -0.3183 -0.2297
  380MOL0     C50059   1.767   7.250   7.013  0.0801  0.1813 -0.7728
  380MOL0     C50060   1.644   7.218   6.955  0.7986  0.9633 -0.0567
  380MOL0     C50061   1.570   7.311   6.885  0.1830 -0.5265 -0.2077
  380MOL0     C50062   1.609   7.450   6.878  0.4423  0.0377  0.3367
  380MOL0     O50063   1.536   7.545   6.815 -0.2668  0.2147  1.0590
  380MOL0     C50064   1.409   7.505   6.765  1.0022 -0.2847  0.2723
  380MOL0     C50065   1.331   7.624   6.715  0.3444 -0.0451 -0.1099
  380MOL0     C50066   1.201   7.572   6.661  0.0182 -0.4736 -0.1723
  380MOL0     C50067   1.115   7.699   6.633  0.5193 -0.9635  0.4113
  380MOL0     C50068   0.967   7.666   6.634  1.3335 -0.6979  0.6277
  380MOL0     C50069   0.887   7.787   6.603  0.1848 -0.4460  0.0976
  380MOL0     C50070   0.753   7.741   6.540  0.4524  0.1819  0.3249
  380MOL0     C50071   0.658   7.682   6.645 -0.9622  0.3007  0.0345
  380MOL0    Cl50072   0.692   7.502   6.673 -0.5946  0.4365  0.1901
  380MOL0     C50073   1.728   7.482   6.946  0.6225 -0.2812 -0.5301
  380MOL0     C50074   1.804   7.387   7.011 -0.2632  0.9875  0.8259
  380MOL0     O50075   1.670   7.164   7.243 -0.2096  0.6995 -0.5732
  380MOL0     C50076   1.971   6.973   7.253 -0.1862  0.0377  0.3534
  380MOL0     C50077   2.044   6.895   7.347  0.4004 -0.1139 -0.4324
  380MOL0     N50078   2.594   6.685   7.792  0.1462 -0.0785  0.2769
  380MOL0     N50079   2.723   6.674   7.790 -0.3373  0.6230 -0.2975
  380MOL0     C50080   4.051   6.638   7.802  0.0477 -0.0064  0.2345
  380MOL0     C50081   4.185   6.666   7.849 -0.3643 -0.3595  0.2375
  380MOL0     C50082   4.621   6.668   7.979  0.1395 -0.4754  1.3349
  380MOL0     C50083   4.735   6.736   7.919 -0.2876 -0.8251  0.3766
  380MOL0     C50084   4.866   6.710   7.958 -0.0636  0.2701 -0.9909
  380MOL0     C50085   4.893   6.617   8.052  0.3675  0.2508 -0.7867
  380MOL0     O50086   5.023   6.578   8.079  0.3037  0.2271 -0.0970
  380MOL0     C50087   5.052   6.477   8.171 -0.3919  0.1330  0.3610
  380MOL0     C50088   5.194   6.421   8.177 -0.2001  0.4138 -0.6836
  380MOL0     C50089   5.281   6.534   8.232 -0.0623  0.0301 -0.3930
  380MOL0     C50090   5.326   6.644   8.130  0.7488  0.1890  0.4240
  380MOL0     C50091   5.402   6.589   8.012  0.5740 -0.2446  0.2350
  380MOL0     C50092   5.440   6.552   7.902  0.1972  0.4071 -1.0095
  380MOL0     C50093   4.783   6.546   8.105 -0.0977 -0.0234 -0.6464
  380MOL0     C50094   4.649   6.574   8.077 -0.4424 -0.8970 -0.4749
  380MOL0     H50095   4.264   6.372   7.995  3.8463  2.7098 -0.5971
  380MOL0     H50096   4.039   6.320   7.906  2.3595 -1.8377 -2.6021
  380MOL0     H50097   3.781   6.670   7.773 -2.6653  0.2402 -1.2446
  380MOL0     H50098   3.739   6.578   7.922 -0.8309 -2.1969  0.1093
  380MOL0     H50099   3.628   6.410   7.757  0.6440 -0.2333  2.0028
  380MOL0     H50100   3.652   6.543   7.630 -4.2796  1.2114 -1.1212
  380MOL0     H50101   3.505   6.689   7.734  1.5635 -0.1756  0.6393
  380MOL0     H50102   3.492   6.596   7.877  0.3466  0.9585 -0.4029
  380MOL0     H50103   3.364   6.496   7.606 -0.5901 -3.8514  0.5236
  380MOL0     H50104   3.373   6.403   7.754 -1.3514 -0.2718 -0.6436
  380MOL0     H50105   3.248   6.676   7.710  0.4434 -0.9703 -0.9440
  380MOL0     H50106   3.245   6.587   7.868 -2.8446 -1.2166  0.6729
  380MOL0     H50107   3.123   6.411   7.779 -2.3685 -0.6589 -0.6042
  380MOL0     H50108   3.139   6.473   7.609  2.3273 -0.7454  0.4091
  380MOL0     H50109   2.992   6.640   7.819 -2.8686 -2.4005  0.9451
  380MOL0     H50110   2.998   6.661   7.643 -0.8546  0.2232 -0.4374
  380MOL0     H50111   2.896   6.418   7.782 -2.1378 -0.0516  0.2739
  380MOL0     H50112   2.880   6.451   7.613  2.5656 -0.1947 -0.0316
  380MOL0     H50113   2.635   6.395   7.658  0.0256  0.1931  0.3188
  380MOL0     H50114   2.356   6.530   7.864 -0.4055  0.2010 -1.0388
  380MOL0     H50115   2.385   6.426   7.714 -2.5502 -0.1114 -0.7832
  380MOL0     H50116   2.204   6.576   7.653  0.2452 -0.1371 -0.9431
  380MOL0     H50117   2.345   6.642   7.580 -0.6203 -0.3060 -0.5308
  380MOL0     H50118   2.195   6.731   7.836  0.2397  1.3209  0.9692
  380MOL0     H50119   2.354   6.788   7.795  0.2934  0.6689 -0.3930
  380MOL0     H50120   2.274   6.880   7.580  0.9110 -2.0974 -0.3775
  380MOL0     H50121   2.158   6.935   7.702  0.4486 -0.1386 -0.6330
  380MOL0     H50122   1.912   6.991   7.641 -3.3108 -2.3825  0.4431
  380MOL0     H50123   1.747   7.113   7.468 -0.9829 -1.1645 -1.7130
  380MOL0     H50124   1.605   7.117   6.945 -2.6144  2.1616 -0.1041
  380MOL0     H50125   1.472   7.275   6.856 -0.8581  1.7339  0.3138
  380MOL0     H50126   1.349   7.454   6.841  1.0613 -1.1614 -0.2562
  380MOL0     H50127   1.421   7.432   6.684 -0.7924 -1.5852  1.1043
  380MOL0     H50128   1.389   7.673   6.636  2.2730 -3.0028 -0.7046
  380MOL0     H50129   1.302   7.690   6.797  0.9944  0.0578  0.0394
  380MOL0     H50130   1.151   7.501   6.728  0.5839 -1.6618 -0.9701
  380MOL0     H50131   1.214   7.525   6.563 -1.3068  1.6707 -1.4690
  380MOL0     H50132   1.133   7.787   6.696 -1.0477 -0.3304  0.0333
  380MOL0     H50133   1.152   7.731   6.536  0.8132 -3.9746 -0.5744
  380MOL0     H50134   0.937   7.638   6.735 -1.5690  0.5924  0.2332
  380MOL0     H50135   0.946   7.583   6.566  1.6114  2.0790 -3.1739
  380MOL0     H50136   0.932   7.863   6.538 -1.4128  0.0279 -0.5118
  380MOL0     H50137   0.863   7.846   6.693 -0.6640 -0.3646 -0.1673
  380MOL0     H50138   0.707   7.830   6.496  0.7656  0.9443  1.5126
  380MOL0     H50139   0.767   7.659   6.469  3.3938  0.6635  0.2408
  380MOL0     H50140   0.556   7.688   6.607 -1.1162 -2.8196 -0.2289
  380MOL0     H50141   0.659   7.745   6.735 -1.1173  2.4932 -1.4318
  380MOL0     H50142   1.750   7.589   6.949  1.7494 -0.4585 -1.7015
  380MOL0     H50143   1.894   7.425   7.058  1.9327  1.1489 -3.1684
  380MOL0     H50144   2.014   6.978   7.153  0.4092  1.9709  0.6589
  380MOL0     H50145   2.122   6.834   7.302  1.0075  1.6342 -1.8365
  380MOL0     H50146   3.997   6.713   7.746 -0.0537 -1.2120 -1.3575
  380MOL0     H50147   4.228   6.765   7.839  1.7198 -1.3332 -1.3965
  380MOL0     H50148   4.714   6.814   7.846  0.3668 -1.0728 -0.0893
  380MOL0     H50149   4.950   6.767   7.922 -1.1726  1.4205 -1.8699
  380MOL0     H50150   4.981   6.399   8.140 -0.7045  1.9283 -4.1391
  380MOL0     H50151   5.020   6.505   8.272  1.7208 -1.7401  1.6544
  380MOL0     H50152   5.202   6.333   8.242 -2.7362  0.3240 -0.4135
  380MOL0     H50153   5.225   6.388   8.077  0.3245 -2.7048  0.3930
  380MOL0     H50154   5.370   6.486   8.274 -2.3662 -1.8293  2.8523
  380MOL0     H50155   5.233   6.586   8.315  0.6956  0.4680 -0.2163
  380MOL0     H50156   5.247   6.711   8.097  1.3067 -0.4630 -2.5199
  380MOL0     H50157   5.391   6.707   8.191  2.3086 -0.4429 -0.5375
  380MOL0     H50158   5.473   6.513   7.807  4.2174  1.4991 -0.2244
  380MOL0     H50159   4.796   6.487   8.195  0.9097  0.1140 -0.6846
  380MOL0     H50160   4.568   6.520   8.126 -2.8756  1.7200 -1.4069
  381MOL0     O50161   7.801  10.138   9.561 -0.3704  0.2245 -0.4379
  381MOL0     C50162   7.849  10.082   9.656  0.2036 -0.3064  1.3082
  381MOL0     O50163   7.784  10.034   9.763 -0.6827 -0.7941 -0.1863
  381MOL0     C50164   7.648  10.027   9.772  1.2232  0.2118  0.2655
  381MOL0     C50165   7.612   9.947   9.871  0.1574 -0.6984 -0.3566
  381MOL0     C50166   7.476   9.929   9.901 -0.9504 -0.0605 -0.6217
  381MOL0     C50167   7.372   9.982   9.821 -0.1359 -0.1136 -0.4861
  381MOL0     O50168   7.246   9.952   9.865 -1.0625 -0.2030  0.2088
  381MOL0     C50169   7.145   9.997   9.775  0.9417  0.2736 -0.2741
  381MOL0     C50170   7.012   9.953   9.832 -0.0865  0.6264 -0.1427
  381MOL0     C50171   6.896   9.952   9.740  0.5252 -0.2012  0.1062
  381MOL0     C50172   6.776   9.903   9.816 -0.1578  1.1784 -1.3243
  381MOL0     C50173   6.676   9.850   9.716 -0.5547  0.2149 -0.3459
  381MOL0     C50174   6.530   9.852   9.775 -0.2462  1.4849 -0.3994
  381MOL0     C50175   6.424   9.768   9.692 -0.2578 -0.5333  0.5152
  381MOL0     C50176   6.425   9.806   9.544  0.2140 -0.5717 -0.0346
  381MOL0     N50177   6.366   9.947   9.536 -0.2222  0.6447  0.2437
  381MOL0     C50178   6.246   9.993   9.588 -0.2762 -0.4129  0.2468
  381MOL0     C50179   6.236  10.121   9.558 -1.2253 -0.1988  0.4708
  381MOL0     C50180   6.123  10.210   9.598 -0.9824 -0.4137  0.2006
  381MOL0     C50181   5.991  10.174   9.533 -0.0064 -0.1617  0.2316
  381MOL0     C50182   5.995  10.205   9.379 -0.2323  0.7627 -0.7180
  381MOL0     C50183   5.875  10.143   9.308  0.0727  0.2422  0.5500
  381MOL0     O50184   5.757  10.197   9.365 -0.0918 -0.3883  0.4097
  381MOL0     C50185   5.639  10.182   9.296 -0.8614 -0.1282  0.9718
  381MOL0     C50186   5.546  10.277   9.323 -0.7262  0.1466  0.7866
  381MOL0     C50187   5.414  10.266   9.279  0.5938  0.5979  0.6609
  381MOL0     C50188   5.367  10.159   9.197 -0.3271 -0.2120 -0.3914
  381MOL0     C50189   5.226  10.150   9.154 -0.4398  0.4692  0.6989
  381MOL0     O50190   5.183  10.023   9.110  0.1554 -0.2937 -0.3595
  381MOL0     C50191   5.048  10.004   9.074 -0.0794 -0.8197  0.1823
  381MOL0     C50192   5.014   9.940   8.957 -0.9568  0.0439 -0.7046
  381MOL0     C50193   4.887   9.926   8.921  0.2529  0.8650  0.2389
  381MOL0     C50194   4.781   9.977   8.998  0.0318  0.2280 -0.4462
  381MOL0     O50195   4.655   9.962   8.949 -0.5608 -0.2225 -0.0712
  381MOL0     C50196   4.539  10.017   9.016 -0.8586 -0.7393 -0.8184
  381MOL0     C50197   4.421   9.981   8.941 -0.0197 -0.1648  0.4131
  381MOL0     C50198   4.297  10.043   8.982 -0.2082 -0.6297 -0.4665
  381MOL0     C50199   4.182  10.012   8.888 -0.0492 -0.6196 -0.1585
  381MOL0     C50200   4.170   9.867   8.847 -0.2355 -0.3605  0.0559
  381MOL0     C50201   4.017   9.845   8.826  0.0059 -0.1565  0.2012
  381MOL0     C50202   3.995   9.704   8.782  0.0283 -0.4807 -0.1387
  381MOL0     C50203   3.844   9.652   8.791 -0.7337 -0.7987 -0.3956
  381MOL0    Cl50204   3.799   9.664   8.953  0.5839  0.6994 -0.0141
  381MOL0     C50205   4.812  10.040   9.116  0.0638 -0.1183  0.4294
  381MOL0     C50206   4.946  10.057   9.155  0.2361 -0.1830 -1.0335
  381MOL0     O50207   5.164  10.252   9.147  0.3324  0.0383 -0.1196
  381MOL0     C50208   5.461  10.057   9.167 -0.0257 -0.3709  0.0748
  381MOL0     C50209   5.590  10.068   9.220  0.0382 -0.5855 -0.3633
  381MOL0     N50210   6.366  10.159   9.511 -0.4879  0.2258  0.1965
  381MOL0     N50211   6.433  10.056   9.499 -0.5613  0.5274  0.6978
  381MOL0     C50212   7.408  10.068   9.713  0.5807  0.4933  0.1775
  381MOL0     C50213   7.548  10.087   9.691 -0.0760  0.3955  1.0725
  381MOL0     C50214   7.999  10.083   9.650 -0.0616  0.3388 -0.3296
  381MOL0     C50215   8.083  10.073   9.771 -0.2892 -0.2029 -0.1794
  381MOL0     C50216   8.223  10.091   9.773  0.3852  0.7389 -0.9018
  381MOL0     C50217   8.286  10.109   9.644  1.2781  0.1613 -0.9413
  381MOL0     O50218   8.420  10.139   9.628 -0.6193  0.3416  0.2796
  381MOL0     C50219   8.501  10.151   9.742  0.1983 -0.5015  0.5842
  381MOL0     C50220   8.648  10.153   9.708 -0.2343  0.3714  0.4172
  381MOL0     C50221   8.746  10.220   9.808  0.4929  0.7094 -0.2554
  381MOL0     C50222   8.748  10.144   9.942  0.1298  0.0779 -0.4122
  381MOL0     C50223   8.633  10.172  10.030  0.1706 -0.1489  0.1871
  381MOL0     C50224   8.533  10.196  10.095 -0.6703  0.7164  1.1939
  381MOL0     C50225   8.215  10.103   9.524  0.4263  0.2104 -0.2270
  381MOL0     C50226   8.071  10.086   9.528  0.4917  0.2448 -0.0086
  381MOL0     H50227   7.693   9.905   9.930  0.6661 -0.5027 -0.8996
  381MOL0     H50228   7.457   9.855   9.977 -0.7414 -1.9919 -2.3543
  381MOL0     H50229   7.150   9.958   9.673  1.2794  0.1247 -0.2020
  381MOL0     H50230   7.135  10.105   9.771 -3.1895  0.0154 -1.2843
  381MOL0     H50231   6.978  10.013   9.917 -2.6400  0.6253 -1.0866
  381MOL0     H50232   7.020   9.852   9.873 -0.1499  0.6356 -0.1050
  381MOL0     H50233   6.925   9.892   9.653  3.4258  1.0423  0.1190
  381MOL0     H50234   6.874  10.054   9.708  1.8762  0.8792  2.3481
  381MOL0     H50235   6.799   9.819   9.883  0.1352  0.6635 -2.0614
  381MOL0     H50236   6.735   9.981   9.880  2.5364 -1.1982  3.9641
  381MOL0     H50237   6.706   9.753   9.677 -0.0154 -0.6357  2.0631
  381MOL0     H50238   6.675   9.916   9.629 -3.1122 -3.3690 -3.3388
  381MOL0     H50239   6.496   9.956   9.777  0.6640  1.8430 -1.9836
  381MOL0     H50240   6.539   9.809   9.875 -1.2287  2.6229  0.2006
  381MOL0     H50241   6.445   9.662   9.704  1.2988 -0.2545  0.3943
  381MOL0     H50242   6.322   9.793   9.725  0.2663  3.4067 -0.3037
  381MOL0     H50243   6.358   9.741   9.487 -0.1677 -0.2915  0.0851
  381MOL0     H50244   6.528   9.808   9.508  0.5440  0.8100  0.8980
  381MOL0     H50245   6.168   9.929   9.628 -1.7846  1.2072 -0.0092
  381MOL0     H50246   6.154  10.307   9.558  3.3367 -2.4025 -1.9835
  381MOL0     H50247   6.103  10.209   9.705 -0.8875  2.0831  0.3012
  381MOL0     H50248   5.919  10.236   9.588 -0.2039 -1.9866  2.1571
  381MOL0     H50249   5.975  10.068   9.558  2.2629 -0.4066  0.8777
  381MOL0     H50250   5.984  10.313   9.363 -2.6172  0.7053  0.0215
  381MOL0     H50251   6.094  10.189   9.336  0.7157  0.6030  1.3741
  381MOL0     H50252   5.882  10.034   9.305  1.9964  0.2500  2.4367
  381MOL0     H50253   5.882  10.175   9.203  0.1486  3.5790  1.4561
  381MOL0     H50254   5.572  10.350   9.398  0.5640  0.5918 -0.0506
  381MOL0     H50255   5.347  10.344   9.314  0.5470  1.7134 -1.6598
  381MOL0     H50256   5.097   9.909   8.893 -0.3537  1.7757 -0.8098
  381MOL0     H50257   4.859   9.879   8.827 -0.3584  3.8925 -1.2443
  381MOL0     H50258   4.544  10.126   9.010  0.3773 -0.5375  2.0344
  381MOL0     H50259   4.538   9.976   9.118  0.0358 -1.0015 -0.9012
  381MOL0     H50260   4.414   9.872   8.945 -0.4362 -0.1535  0.1240
  381MOL0     H50261   4.435  10.006   8.835 -1.8854  0.0932  0.1861
  381MOL0     H50262   4.326  10.149   8.979  0.5356 -0.8106 -0.0272
  381MOL0     H50263   4.280  10.022   9.088  2.1788  2.2619  0.6177
  381MOL0     H50264   4.096  10.061   8.935 -0.4658 -0.6390 -0.8919
  381MOL0     H50265   4.202  10.067   8.796  0.9431  0.6973  0.7955
  381MOL0     H50266   4.191   9.811   8.938  0.8371 -1.0511 -0.5981
  381MOL0     H50267   4.233   9.841   8.761 -1.5771 -0.9558 -0.7842
  381MOL0     H50268   3.998   9.917   8.745  0.3263  1.3254  1.3943
  381MOL0     H50269   3.948   9.876   8.905  1.7913  1.8709  1.0553
  381MOL0     H50270   4.025   9.690   8.678  0.0179  0.3438 -0.2542
  381MOL0     H50271   4.064   9.643   8.841  1.5320 -0.1318 -1.4859
  381MOL0     H50272   3.846   9.545   8.768 -0.2562 -0.9542  0.3231
  381MOL0     H50273   3.783   9.712   8.723 -0.6642 -1.0750 -0.7072
  381MOL0     H50274   4.733  10.074   9.183 -2.9354 -1.7986 -2.0062
  381MOL0     H50275   4.960  10.103   9.252  0.5488 -2.7988  0.2437
  381MOL0     H50276   5.425   9.975   9.105 -0.8558  2.3615 -3.3363
  381MOL0     H50277   5.650   9.979   9.206 -0.1643 -0.6720 -0.7009
  381MOL0     H50278   7.329  10.113   9.655 -0.2894 -1.1253  0.0473
  381MOL0     H50279   7.561  10.159   9.611 -1.5428  0.0444  0.4688
  381MOL0     H50280   8.024  10.074   9.862  1.3606 -0.7050  0.9240
  381MOL0     H50281   8.270  10.084   9.870  2.5577  1.5760 -1.8302
  381MOL0     H50282   8.471  10.071   9.810 -1.5927  0.5620  1.1071
  381MOL0     H50283   8.484  10.252   9.782 -1.0942  0.0129 -1.1630
  381MOL0     H50284   8.691  10.056   9.683  1.3252  1.7176 -2.6340
  381MOL0     H50285   8.666  10.206   9.614  2.9635 -2.2958 -0.6406
  381MOL0     H50286   8.714  10.324   9.826 -0.0185  0.5023  0.0707
  381MOL0     H50287   8.848  10.216   9.770  1.4712 -0.9325  2.2421
  381MOL0     H50288   8.737  10.036   9.928 -0.1447  0.1497 -0.7820
  381MOL0     H50289   8.839  10.161  10.000  0.4394  0.9205 -1.1152
  381MOL0     H50290   8.434  10.219  10.129 -1.0990  1.0521 -0.1842
  381MOL0     H50291   8.266  10.121   9.430  1.5016  2.6762  0.7634
  381MOL0     H50292   8.010  10.083   9.438 -1.0679  1.0946  0.9784
  382MOL0     O50293   0.862  10.294  10.920 -0.3139  0.2375 -0.0926
  382MOL0     C50294   0.786  10.282  10.823 -0.1688  0.4648 -0.4031
  382MOL0     O50295   0.674  10.197  10.821  0.5697 -0.1322  0.5932
  382MOL0     C50296   0.626  10.121  10.930 -0.3528 -0.8688 -0.0130
  382MOL0     C50297   0.703  10.076  11.043  0.0715 -0.8632  0.0764
  382MOL0     C50298   0.633  10.001  11.134 -0.3415  0.5794 -0.2317
  382MOL0     C50299   0.497   9.964  11.127  0.5749 -0.6533  0.4106
  382MOL0     O50300   0.432   9.898  11.227  0.0586  0.0481 -0.2636
  382MOL0     C50301   0.461   9.929  11.360 -0.0979 -0.7852 -0.4893
  382MOL0     C50302   0.336   9.912  11.455 -0.9490  0.2424  0.6055
  382MOL0     C50303   0.269   9.780  11.432 -0.1353 -0.2695  0.0838
  382MOL0     C50304   0.127   9.777  11.492 -0.7741 -0.3448  0.8195
  382MOL0     C50305   0.084   9.632  11.512 -0.4515 -0.6439 -0.0814
  382MOL0     C50306  -0.035   9.642  11.604  0.0830  0.3380 -0.8161
  382MOL0     C50307  -0.074   9.499  11.654  0.0967 -0.7197  0.3883
  382MOL0     C50308   0.028   9.428  11.745  0.0233 -0.4784  0.1813
  382MOL0     N50309  -0.016   9.297  11.781 -0.6746 -0.6999 -0.6481
  382MOL0     C50310  -0.123   9.271  11.857  0.4073 -0.6788  0.0126
  382MOL0     C50311  -0.145   9.131  11.842  0.0352 -0.3239  0.2343
  382MOL0     C50312  -0.246   9.045  11.915  0.6494 -0.5249  0.1592
  382MOL0     C50313  -0.386   9.069  11.860  0.2839  0.5878  0.0525
  382MOL0     C50314  -0.471   8.942  11.882 -0.0043 -0.9608  1.0962
  382MOL0     C50315  -0.606   8.969  11.825  0.4925  0.2232  1.4154
  382MOL0     O50316  -0.619   9.032  11.693 -0.8355  0.1055  0.0956
  382MOL0     C50317  -0.747   9.035  11.656  0.1698  0.3736  0.4497
  382MOL0     C50318  -0.831   9.152  11.691 -0.3974  0.3582 -0.6414
  382MOL0     C50319  -0.969   9.156  11.666  0.1120 -0.3965  0.5847
  382MOL0     C50320  -1.024   9.039  11.607  0.7230  0.6034  1.0898
  382MOL0     C50321  -1.167   9.042  11.569  0.8109 -0.4126  0.0347
  382MOL0     O50322  -1.231   9.158  11.567 -0.0459  0.0487 -0.5585
  382MOL0     C50323  -1.362   9.179  11.545  0.0754  0.4494 -0.2250
  382MOL0     C50324  -1.445   9.095  11.463 -0.0689  0.0328  0.3103
  382MOL0     C50325  -1.585   9.114  11.453 -0.3633  0.6043 -0.7955
  382MOL0     C50326  -1.640   9.207  11.541  1.0288 -0.6320  0.1176
  382MOL0     O50327  -1.781   9.223  11.560 -0.1982  0.2027 -0.1071
  382MOL0     C50328  -1.872   9.160  11.473  0.3233 -0.8308  0.7904
  382MOL0     C50329  -2.010   9.240  11.481  0.4511  0.1449 -0.3181
  382MOL0     C50330  -2.127   9.158  11.412  0.6134  0.2508  0.2138
  382MOL0     C50331  -2.261   9.242  11.431 -0.2379 -1.1358  0.5717
  382MOL0     C50332  -2.370   9.212  11.322  0.5051 -0.3808  0.0524
  382MOL0     C50333  -2.506   9.273  11.352  0.1511  0.3767  1.0183
  382MOL0     C50334  -2.604   9.280  11.223  0.0535  0.1682  1.0573
  382MOL0     C50335  -2.733   9.342  11.263 -0.2164 -0.1467 -0.7301
  382MOL0    Cl50336  -2.821   9.229  11.363 -0.0654 -0.4013  0.0194
  382MOL0     C50337  -1.563   9.287  11.618 -0.2045  0.6842  0.0194
  382MOL0     C50338  -1.424   9.279  11.617  0.8666  0.0431  0.5310
  382MOL0     O50339  -1.224   8.939  11.550 -0.4464  0.0914  0.1344
  382MOL0     C50340  -0.948   8.930  11.573 -0.2726  0.3287  0.8042
  382MOL0     C50341  -0.811   8.929  11.594 -0.0359  0.1820  0.5055
  382MOL0     N50342  -0.051   9.094  11.751  0.8162  0.2470  0.5940
  382MOL0     N50343   0.023   9.189  11.713  0.2773 -0.4171  0.1933
  382MOL0     C50344   0.430  10.002  11.009  0.5674 -0.4799  0.9146
  382MOL0     C50345   0.486  10.094  10.921 -0.8231 -0.2458 -0.6942
  382MOL0     C50346   0.827  10.345  10.696  0.2516  0.6328 -0.2087
  382MOL0     C50347   0.955  10.364  10.663 -0.9319 -0.7080  0.6494
  382MOL0     C50348   0.990  10.403  10.530 -0.0228  0.1507 -0.1457
  382MOL0     C50349   0.892  10.417  10.430  0.2956 -0.3793 -0.5811
  382MOL0     O50350   0.909  10.448  10.297  0.6294 -0.4345  0.4828
  382MOL0     C50351   1.048  10.474  10.251 -0.4056  0.4501  1.2670
  382MOL0     C50352   1.070  10.514  10.100  0.4366  0.1668  0.0602
  382MOL0     C50353   1.219  10.512  10.062  0.7021  0.4414  0.3572
  382MOL0     C50354   1.245  10.575   9.929  0.0449  0.0484 -0.2333
  382MOL0     C50355   1.380  10.545   9.881  0.6310 -0.5159  0.5271
  382MOL0     C50356   1.498  10.514   9.856  0.3414 -0.3911  0.2463
  382MOL0     C50357   0.758  10.403  10.466 -1.0567 -0.1233 -0.9912
  382MOL0     C50358   0.728  10.364  10.596  0.2021  0.7001  0.1981
  382MOL0     H50359   0.808  10.103  11.050 -0.4917  1.4564  0.3208
  382MOL0     H50360   0.705   9.975  11.211  0.8885  2.7673 -0.5515
  382MOL0     H50361   0.499  10.032  11.362 -1.4139 -0.2805 -0.7214
  382MOL0     H50362   0.547   9.869  11.393  0.3912 -1.1143 -2.2570
  382MOL0     H50363   0.265   9.993  11.438 -2.9777 -1.4479  0.7477
  382MOL0     H50364   0.363   9.926  11.560 -1.3760  2.0922  0.5026
  382MOL0     H50365   0.331   9.708  11.485  1.2599  1.1288  0.4321
  382MOL0     H50366   0.264   9.746  11.328  0.3441  1.8678 -0.6931
  382MOL0     H50367   0.132   9.826  11.590 -0.1369 -1.2372  1.2396
  382MOL0     H50368   0.050   9.829  11.434 -0.9790  0.0660  1.4455
  382MOL0     H50369   0.169   9.577  11.553  2.9593  1.2107 -3.9297
  382MOL0     H50370   0.053   9.583  11.420  0.4290  1.1059 -1.3708
  382MOL0     H50371  -0.121   9.687  11.553  2.0965  2.4966 -2.5426
  382MOL0     H50372  -0.002   9.699  11.691 -0.5009 -0.8978  0.2460
  382MOL0     H50373  -0.169   9.511  11.706  1.5261  2.2556  2.6150
  382MOL0     H50374  -0.088   9.434  11.568  0.2881 -2.1855  1.4160
  382MOL0     H50375   0.053   9.494  11.829 -1.9559  2.2295 -1.2013
  382MOL0     H50376   0.120   9.419  11.686 -1.3385 -1.9122 -1.8625
  382MOL0     H50377  -0.162   9.338  11.933  0.0261 -2.9343  1.9213
  382MOL0     H50378  -0.240   9.062  12.023 -0.9884 -1.7726  0.4853
  382MOL0     H50379  -0.216   8.943  11.890  3.8467  0.7869 -2.0837
  382MOL0     H50380  -0.369   9.095  11.756  2.6787 -0.2193  0.1677
  382MOL0     H50381  -0.444   9.148  11.909 -0.8053 -0.1554 -0.0228
  382MOL0     H50382  -0.425   8.864  11.821 -1.9635 -0.8552 -0.6083
  382MOL0     H50383  -0.460   8.923  11.989 -0.3344  2.1183  1.7534
  382MOL0     H50384  -0.658   9.043  11.886  1.7099  0.3840  2.2978
  382MOL0     H50385  -0.666   8.879  11.814 -0.9656  1.1381  1.5863
  382MOL0     H50386  -0.775   9.231  11.739 -1.3696  0.5785  0.1713
  382MOL0     H50387  -1.035   9.239  11.689 -0.4569  0.4373 -3.3064
  382MOL0     H50388  -1.396   9.017  11.405 -0.2698  0.6677 -0.7363
  382MOL0     H50389  -1.650   9.058  11.386 -3.5740  1.8193  1.0533
  382MOL0     H50390  -1.882   9.055  11.504 -2.6883 -1.3576 -1.4391
  382MOL0     H50391  -1.845   9.171  11.367 -0.2408 -1.5886  0.5510
  382MOL0     H50392  -2.000   9.342  11.443 -0.5463  0.4299  0.1524
  382MOL0     H50393  -2.032   9.252  11.587  3.4893 -1.1977  0.5685
  382MOL0     H50394  -2.142   9.057  11.450  0.9800 -0.9879 -2.6803
  382MOL0     H50395  -2.097   9.154  11.307  3.4490 -1.4371  0.9867
  382MOL0     H50396  -2.302   9.228  11.531  1.3740  0.6783  1.5550
  382MOL0     H50397  -2.236   9.348  11.424 -1.3007 -0.9919 -2.0169
  382MOL0     H50398  -2.390   9.104  11.315 -2.5665  0.0090  0.9766
  382MOL0     H50399  -2.341   9.266  11.232 -2.7849 -0.1927 -1.0517
  382MOL0     H50400  -2.478   9.375  11.377  0.7207  0.9428 -1.6731
  382MOL0     H50401  -2.557   9.239  11.444  1.1012  1.2885  1.9056
  382MOL0     H50402  -2.556   9.327  11.136  0.9690 -0.8753  0.9735
  382MOL0     H50403  -2.628   9.176  11.199  0.6207  0.3893 -0.6181
  382MOL0     H50404  -2.788   9.369  11.172  1.3303  0.9584 -1.3913
  382MOL0     H50405  -2.706   9.429  11.325 -1.7661 -1.3470  1.7720
  382MOL0     H50406  -1.612   9.364  11.677 -0.8520  0.3008 -0.0095
  382MOL0     H50407  -1.362   9.338  11.684  1.5062  1.4675 -1.2506
  382MOL0     H50408  -1.002   8.844  11.536  0.3743  0.5087 -0.5928
  382MOL0     H50409  -0.757   8.842  11.558 -2.7698 -1.7536  0.7466
  382MOL0     H50410   0.336   9.952  10.988  0.4536  0.5824 -1.4505
  382MOL0     H50411   0.418  10.135  10.848 -1.5311  0.7667  0.4940
  382MOL0     H50412   1.034  10.342  10.733  1.5422  0.4486 -1.6027
  382MOL0     H50413   1.093  10.405  10.498  0.1030  2.1749  0.2497
  382MOL0     H50414   1.092  10.376  10.275 -1.6984 -0.0415  1.7400
  382MOL0     H50415   1.103  10.550  10.306  0.7355  2.7911 -2.6856
  382MOL0     H50416   1.009  10.447  10.039 -0.1230  0.5083  0.2330
  382MOL0     H50417   1.034  10.617  10.090  1.3093  0.3170 -1.8982
  382MOL0     H50418   1.243  10.406  10.046  1.6431  0.8320 -1.0099
  382MOL0     H50419   1.279  10.560  10.140  2.4036 -0.9926 -0.0094
  382MOL0     H50420   1.172  10.536   9.856  0.5642 -1.6179  0.0789
  382MOL0     H50421   1.225  10.682   9.936 -4.0141 -0.3777 -2.0466
  382MOL0     H50422   1.596  10.476   9.835  1.4279 -0.7922  4.8386
  382MOL0     H50423   0.680  10.403  10.390 -2.6803 -0.9937  0.6164
  382MOL0     H50424   0.629  10.339  10.632  1.5882 -0.4565  3.6523
  383MOL0     O50425   6.706   1.911   7.060 -0.1305 -0.0645 -0.6930
  383MOL0     C50426   6.771   2.014   7.090  0.1915 -0.6801 -0.2413
  383MOL0     O50427   6.733   2.117   7.169  0.3243 -0.2349 -0.1679
  383MOL0     C50428   6.597   2.124   7.189  0.3889  0.4608  1.0898
  383MOL0     C50429   6.502   2.142   7.081 -0.7048  0.2789  0.0902
  383MOL0     C50430   6.373   2.185   7.103 -0.6189 -0.7905  0.3441
  383MOL0     C50431   6.339   2.188   7.233  0.0062 -1.1916 -0.2579
  383MOL0     O50432   6.204   2.200   7.248 -0.5443 -0.0488  0.0148
  383MOL0     C50433   6.149   2.228   7.378 -0.3995  0.0593 -0.3007
  383MOL0     C50434   5.997   2.250   7.366 -0.4412  0.0141  0.0630
  383MOL0     C50435   5.926   2.224   7.495  0.4316  0.3686 -0.6889
  383MOL0     C50436   5.779   2.238   7.454  0.1588 -0.8307 -0.3330
  383MOL0     C50437   5.696   2.170   7.559 -0.2371 -0.0684  0.7496
  383MOL0     C50438   5.709   2.216   7.716  0.1780  0.0529 -0.6394
  383MOL0     C50439   5.644   2.351   7.741 -0.1507 -0.3194 -0.4221
  383MOL0     C50440   5.636   2.383   7.892 -1.0778  0.3052  0.1292
  383MOL0     N50441   5.583   2.513   7.916  0.0786  0.1395 -0.0207
  383MOL0     C50442   5.477   2.567   7.859 -0.0011 -0.5781  0.8320
  383MOL0     C50443   5.453   2.687   7.914  0.1344 -0.0150  0.0289
  383MOL0     C50444   5.342   2.792   7.891  0.1441 -0.2015 -0.2106
  383MOL0     C50445   5.370   2.935   7.958 -0.3312  0.4020 -0.5818
  383MOL0     C50446   5.259   3.034   7.949  0.5493 -0.4792 -0.1236
  383MOL0     C50447   5.306   3.163   8.009 -0.5222  0.0575 -0.3077
  383MOL0     O50448   5.218   3.270   7.973  0.0383  0.1589  0.2057
  383MOL0     C50449   5.081   3.273   7.999  0.0518 -0.7583 -0.1969
  383MOL0     C50450   5.016   3.387   7.944  0.5944  0.2081 -0.2739
  383MOL0     C50451   4.880   3.416   7.967 -0.5767 -0.4363  0.5878
  383MOL0     C50452   4.811   3.336   8.061 -0.1367  0.8847 -0.2124
  383MOL0     C50453   4.672   3.358   8.087 -0.0976  0.7546 -0.2777
  383MOL0     O50454   4.603   3.278   8.171 -0.6998  0.4086  0.1634
  383MOL0     C50455   4.479   3.307   8.201  1.4825 -0.0732  0.1700
  383MOL0     C50456   4.458   3.420   8.287  0.6004 -0.1761  0.3294
  383MOL0     C50457   4.327   3.443   8.339  0.7158  0.0292  0.7054
  383MOL0     C50458   4.226   3.360   8.288 -0.1598 -0.0241 -0.9799
  383MOL0     O50459   4.096   3.377   8.325  1.0372  0.5269 -0.3719
  383MOL0     C50460   4.053   3.502   8.383  0.2438 -0.1559 -0.0324
  383MOL0     C50461   3.905   3.490   8.409  0.3659  0.1920  0.3061
  383MOL0     C50462   3.870   3.422   8.538  0.2667  0.3003  0.2176
  383MOL0     C50463   3.721   3.420   8.568 -0.7100 -0.7116  0.2599
  383MOL0     C50464   3.698   3.344   8.696  0.2603  0.1969 -0.0018
  383MOL0     C50465   3.554   3.353   8.751 -0.8712  0.2190  0.0724
  383MOL0     C50466   3.442   3.357   8.649  0.3835  0.3786 -0.2658
  383MOL0     C50467   3.306   3.357   8.724 -0.3845  0.1493 -0.0227
  383MOL0    Cl50468   3.294   3.497   8.837  0.0570 -0.0003 -0.5009
  383MOL0     C50469   4.249   3.257   8.204  0.0075 -0.5863 -0.3521
  383MOL0     C50470   4.375   3.232   8.157 -0.1514  0.1436 -0.0254
  383MOL0     O50471   4.625   3.457   8.029  0.8700  0.7867  0.4560
  383MOL0     C50472   4.873   3.225   8.113 -0.1492 -0.0747  0.2134
  383MOL0     C50473   5.010   3.190   8.084  0.1555 -0.3811  0.3180
  383MOL0     N50474   5.548   2.697   8.014 -0.2982 -0.0319  1.0315
  383MOL0     N50475   5.623   2.598   8.016  0.2552  0.2037  0.3997
  383MOL0     C50476   6.428   2.176   7.343  0.6053  0.4928 -0.2548
  383MOL0     C50477   6.556   2.150   7.315 -0.2660  0.8049 -0.2429
  383MOL0     C50478   6.911   2.018   7.033  0.2095 -0.4129  0.9138
  383MOL0     C50479   6.953   1.935   6.930  0.4585 -0.3438 -1.1376
  383MOL0     C50480   7.089   1.911   6.900  0.4536 -0.6488 -0.1531
  383MOL0     C50481   7.192   1.993   6.957  1.2334  0.3998  0.1905
  383MOL0     O50482   7.326   1.972   6.934  0.4353 -0.1692 -0.9708
  383MOL0     C50483   7.425   2.039   7.011  0.2460 -0.9878 -0.0540
  383MOL0     C50484   7.551   1.994   6.953  0.0000 -0.3399 -0.2839
  383MOL0     C50485   7.573   1.846   6.920 -0.2697 -0.1131 -0.7711
  383MOL0     C50486   7.722   1.820   6.907 -0.3317  0.1648  0.4201
  383MOL0     C50487   7.779   1.902   6.798 -0.4755  0.2236 -0.6684
  383MOL0     C50488   7.834   1.943   6.701 -0.7934  0.0312 -1.1546
  383MOL0     C50489   7.145   2.095   7.042  0.6074  0.6412  0.2825
  383MOL0     C50490   7.014   2.106   7.088  0.2619  0.2684 -0.5120
  383MOL0     H50491   6.544   2.140   6.981  0.0705 -0.5058  0.4233
  383MOL0     H50492   6.303   2.193   7.020 -0.3530 -0.5420  0.1403
  383MOL0     H50493   6.199   2.317   7.419  0.5010 -0.0365 -1.1526
  383MOL0     H50494   6.162   2.139   7.440  1.0236  0.3269 -0.1895
  383MOL0     H50495   5.963   2.179   7.290  0.1653  0.5667 -0.7312
  383MOL0     H50496   5.984   2.349   7.320  1.3445  0.4168  0.3603
  383MOL0     H50497   5.949   2.291   7.578  2.1538 -0.6353 -0.3140
  383MOL0     H50498   5.947   2.122   7.530  0.9249  0.5750 -0.3799
  383MOL0     H50499   5.747   2.343   7.447 -2.9996 -1.6894 -0.1407
  383MOL0     H50500   5.768   2.190   7.356  3.3695  1.2677 -1.9034
  383MOL0     H50501   5.716   2.063   7.554 -0.7358 -0.1063 -1.9251
  383MOL0     H50502   5.595   2.181   7.518  0.4741  1.2207 -0.7321
  383MOL0     H50503   5.815   2.218   7.743  0.7943 -3.6904 -2.0343
  383MOL0     H50504   5.668   2.139   7.782  0.9364 -0.8085 -1.1474
  383MOL0     H50505   5.712   2.421   7.692 -0.1117  1.0099  1.4381
  383MOL0     H50506   5.549   2.362   7.687 -0.7539  2.5053  1.0064
  383MOL0     H50507   5.742   2.381   7.919 -0.9070  0.8976 -0.4975
  383MOL0     H50508   5.590   2.303   7.952 -1.1799 -1.4078 -2.1214
  383MOL0     H50509   5.418   2.528   7.776  1.7671 -0.3289 -0.6141
  383MOL0     H50510   5.248   2.769   7.943 -0.3381 -0.0792 -0.9990
  383MOL0     H50511   5.316   2.798   7.785 -4.0021  1.7454  0.6893
  383MOL0     H50512   5.456   2.977   7.905 -1.3122  2.0288 -0.9261
  383MOL0     H50513   5.404   2.920   8.061  0.2029 -1.8370 -1.0173
  383MOL0     H50514   5.212   3.042   7.851 -0.2255 -1.5182  0.1422
  383MOL0     H50515   5.178   2.996   8.013 -0.0347  1.5943  0.4705
  383MOL0     H50516   5.397   3.189   7.954  0.1701  0.0451  0.7986
  383MOL0     H50517   5.316   3.163   8.118  1.5499  1.9165 -0.4276
  383MOL0     H50518   5.085   3.446   7.885 -1.6974  1.9195 -1.4002
  383MOL0     H50519   4.845   3.502   7.911  0.0820 -1.8895 -2.2481
  383MOL0     H50520   4.536   3.491   8.311 -0.7309  1.1678  0.8261
  383MOL0     H50521   4.299   3.531   8.396  1.9168  0.3415  0.8342
  383MOL0     H50522   4.078   3.587   8.319 -1.0715 -1.4359 -2.3873
  383MOL0     H50523   4.109   3.512   8.476  0.5640 -2.6647  0.1313
  383MOL0     H50524   3.850   3.434   8.333  0.3572  0.1399  0.3499
  383MOL0     H50525   3.862   3.590   8.414 -0.1327 -0.0345  0.8218
  383MOL0     H50526   3.926   3.468   8.620  2.3777  0.0576 -1.0038
  383MOL0     H50527   3.894   3.316   8.521  0.9868  0.4330  0.3742
  383MOL0     H50528   3.695   3.525   8.584  0.1376 -0.6806  1.6448
  383MOL0     H50529   3.661   3.375   8.489  2.6415 -1.1252 -2.2546
  383MOL0     H50530   3.775   3.379   8.766  2.6027 -2.2124 -1.1783
  383MOL0     H50531   3.733   3.242   8.676  0.4279  0.6037 -2.0093
  383MOL0     H50532   3.538   3.444   8.810  1.4202  0.0704  1.0329
  383MOL0     H50533   3.551   3.262   8.811  0.7376 -1.7309 -2.5765
  383MOL0     H50534   3.443   3.443   8.581 -0.5832 -0.9877 -2.1098
  383MOL0     H50535   3.450   3.268   8.586  1.9993  0.5852 -0.4026
  383MOL0     H50536   3.304   3.264   8.781  0.1766 -0.4350 -0.9223
  383MOL0     H50537   3.227   3.359   8.649 -0.7146  0.5133  0.3315
  383MOL0     H50538   4.172   3.195   8.159  0.9550 -1.0942 -1.3403
  383MOL0     H50539   4.390   3.142   8.097 -1.3751 -1.4457  1.9395
  383MOL0     H50540   4.818   3.161   8.181 -0.0095 -0.2639  0.1497
  383MOL0     H50541   5.060   3.101   8.119  3.2784  0.7659 -0.8902
  383MOL0     H50542   6.399   2.176   7.448  0.4223 -1.8448 -0.2649
  383MOL0     H50543   6.637   2.140   7.387 -0.5842  2.1838  0.3452
  383MOL0     H50544   6.881   1.859   6.901 -2.4899  0.4352  3.1033
  383MOL0     H50545   7.123   1.839   6.826  1.1222  1.3354 -1.8495
  383MOL0     H50546   7.437   2.018   7.118 -0.4681 -0.8334  0.0620
  383MOL0     H50547   7.422   2.148   7.000  0.6341 -1.0136 -0.4209
  383MOL0     H50548   7.559   2.050   6.859  1.4137  2.8115  1.5538
  383MOL0     H50549   7.635   2.030   7.013 -0.5588  1.8894 -0.7476
  383MOL0     H50550   7.522   1.815   6.828  1.7527 -3.0388 -1.0573
  383MOL0     H50551   7.540   1.781   7.001  1.0984  0.1528  0.0359
  383MOL0     H50552   7.774   1.854   6.998 -3.1966 -0.7148  2.5496
  383MOL0     H50553   7.749   1.717   6.885 -3.6150 -0.3179 -2.1299
  383MOL0     H50554   7.896   1.983   6.624 -0.3538 -1.1288 -1.4356
  383MOL0     H50555   7.214   2.170   7.081  0.8368  2.3505 -3.0748
  383MOL0     H50556   6.997   2.157   7.182 -0.9012 -1.3183  0.1869
  384MOL0     O50557   3.881   7.471   9.946 -0.3856 -0.4639 -0.5384
  384MOL0     C50558   3.908   7.572  10.019  0.0814 -0.4863 -0.3147
  384MOL0     O50559   3.826   7.681  10.037 -0.5159 -0.0478  0.5147
  384MOL0     C50560   3.708   7.703   9.976  0.3579 -0.2642  0.1132
  384MOL0     C50561   3.647   7.632   9.873 -0.2365  0.0576 -0.2894
  384MOL0     C50562   3.526   7.682   9.824 -0.2265  0.5955 -0.3451
  384MOL0     C50563   3.459   7.792   9.873 -0.3520  0.0108  0.1917
  384MOL0     O50564   3.338   7.824   9.808 -0.7439  0.0977 -0.4812
  384MOL0     C50565   3.304   7.970   9.806  0.3853  0.0256 -0.1471
  384MOL0     C50566   3.190   7.994   9.705 -0.2526  0.8115 -0.0862
  384MOL0     C50567   3.063   7.937   9.763  0.1602 -0.4006 -0.6020
  384MOL0     C50568   2.939   7.993   9.684  0.4126  0.1639  0.6672
  384MOL0     C50569   2.799   7.998   9.745  0.3709 -0.0178 -0.3469
  384MOL0     C50570   2.775   7.875   9.822 -0.1184 -0.5913 -0.1054
  384MOL0     C50571   2.627   7.859   9.883 -0.0201 -0.4756 -0.3345
  384MOL0     C50572   2.610   7.719   9.947  0.3323  0.3849 -0.4919
  384MOL0     N50573   2.472   7.665   9.931 -0.1761 -0.6886 -0.2950
  384MOL0     C50574   2.359   7.736   9.975  0.1780  0.4549  0.8019
  384MOL0     C50575   2.251   7.664   9.927  0.8976  0.7241  0.5258
  384MOL0     C50576   2.104   7.696   9.955 -0.4577 -0.9530  0.5231
  384MOL0     C50577   2.052   7.603  10.070 -0.0496  0.8244  0.7283
  384MOL0     C50578   1.925   7.661  10.136  0.3861  0.3464 -0.5849
  384MOL0     C50579   1.875   7.604  10.274  0.2832  0.0881  0.0145
  384MOL0     O50580   1.760   7.676  10.312  0.5940 -0.3026  0.5218
  384MOL0     C50581   1.674   7.635  10.404  0.5795  0.4487  0.5096
  384MOL0     C50582   1.555   7.700  10.421  0.2274 -0.1476  0.0871
  384MOL0     C50583   1.442   7.652  10.490 -1.0985  0.4149 -0.4154
  384MOL0     C50584   1.458   7.526  10.555  0.5613 -0.6146  0.4489
  384MOL0     C50585   1.345   7.463  10.618  0.2820 -0.0044  0.3931
  384MOL0     O50586   1.360   7.348  10.699  0.2126 -0.5349 -0.1276
  384MOL0     C50587   1.246   7.289  10.754 -0.2297 -0.0508 -0.5307
  384MOL0     C50588   1.143   7.247  10.678  0.5899  0.2667 -0.1017
  384MOL0     C50589   1.035   7.183  10.738 -0.2523  0.3032  0.5304
  384MOL0     C50590   1.024   7.162  10.875  0.2139  0.8706  0.0688
  384MOL0     O50591   0.921   7.091  10.917  0.3333 -0.1107 -0.2309
  384MOL0     C50592   0.891   7.079  11.061  0.1146 -0.5169  0.0774
  384MOL0     C50593   0.741   7.036  11.070 -0.1357 -0.0218  0.3154
  384MOL0     C50594   0.636   7.150  11.065 -0.3917  0.4000  0.0468
  384MOL0     C50595   0.647   7.226  10.941 -0.2731  0.6935  0.6237
  384MOL0     C50596   0.527   7.330  10.930  0.0214 -0.4813  0.0170
  384MOL0     C50597   0.515   7.375  10.781 -0.3136 -0.2705  0.1853
  384MOL0     C50598   0.626   7.461  10.739  0.9072 -1.6609  0.5379
  384MOL0     C50599   0.583   7.543  10.608 -0.2562 -0.4947  0.7283
  384MOL0    Cl50600   0.727   7.631  10.530 -0.3132  0.0581  0.1647
  384MOL0     C50601   1.128   7.214  10.955  1.1064  0.5068 -0.4389
  384MOL0     C50602   1.233   7.268  10.884  0.1623 -0.2637  0.2043
  384MOL0     O50603   1.237   7.507  10.589  0.1216 -0.3202  0.4271
  384MOL0     C50604   1.583   7.469  10.552  0.1819  0.5013 -0.2671
  384MOL0     C50605   1.691   7.521  10.480  0.0714  0.4086  0.8084
  384MOL0     N50606   2.298   7.563   9.841  0.1337 -0.7435 -0.1285
  384MOL0     N50607   2.431   7.566   9.846 -0.4779  0.7045  0.0907
  384MOL0     C50608   3.522   7.868   9.968 -0.2452  0.3668 -0.0307
  384MOL0     C50609   3.647   7.824  10.020  0.3869 -0.9585 -0.4663
  384MOL0     C50610   4.029   7.575  10.088 -0.3434 -0.5652 -0.3476
  384MOL0     C50611   4.059   7.685  10.168  0.6813 -0.3196 -0.7060
  384MOL0     C50612   4.186   7.693  10.227  0.2370  0.2110 -0.3329
  384MOL0     C50613   4.275   7.588  10.223 -0.4368  0.1074 -0.3073
  384MOL0     O50614   4.394   7.602  10.299 -0.5078 -0.0316 -0.5747
  384MOL0     C50615   4.515   7.551  10.241  0.0319  0.0958 -0.2717
  384MOL0     C50616   4.640   7.617  10.298  0.1968 -0.0853 -0.0923
  384MOL0     C50617   4.638   7.769  10.291  0.2935  0.0861 -1.1904
  384MOL0     C50618   4.629   7.823  10.152  0.2222  0.5733 -0.0153
  384MOL0     C50619   4.747   7.780  10.069 -0.4862  0.8237 -1.1149
  384MOL0     C50620   4.848   7.755  10.012 -0.2159  0.3740 -0.0622
  384MOL0     C50621   4.245   7.478  10.151  0.8397 -0.0748  0.2809
  384MOL0     C50622   4.122   7.470  10.080  0.2528  0.0089 -0.8576
  384MOL0     H50623   3.689   7.546   9.822  0.5299 -0.2146  0.7720
  384MOL0     H50624   3.480   7.631   9.740  0.3425 -0.6723  0.0822
  384MOL0     H50625   3.386   8.037   9.780  0.7836 -0.3514  0.1119
  384MOL0     H50626   3.270   8.008   9.902 -0.1275  2.4092 -1.2057
  384MOL0     H50627   3.209   7.950   9.607 -0.6379 -2.5710  1.2540
  384MOL0     H50628   3.180   8.103   9.701  1.9994  1.3617  3.8385
  384MOL0     H50629   3.058   7.957   9.870 -2.0233 -1.2835 -0.4733
  384MOL0     H50630   3.060   7.829   9.743 -3.7361 -0.9892  1.9495
  384MOL0     H50631   2.973   8.090   9.646  0.5064 -0.5505 -1.2073
  384MOL0     H50632   2.941   7.928   9.596 -0.3016  1.5120 -0.3849
  384MOL0     H50633   2.729   8.006   9.662 -0.6041 -0.6807  0.3913
  384MOL0     H50634   2.788   8.090   9.803 -2.9824  0.4898 -1.5610
  384MOL0     H50635   2.844   7.867   9.906 -2.1650 -0.0973  1.7162
  384MOL0     H50636   2.803   7.792   9.757  1.6591  1.3805 -2.0172
  384MOL0     H50637   2.615   7.935   9.961  3.5702 -0.2315  0.1272
  384MOL0     H50638   2.559   7.871   9.798 -0.6938 -0.9616  0.1160
  384MOL0     H50639   2.633   7.715  10.054  0.8307 -0.1393 -0.6136
  384MOL0     H50640   2.679   7.659   9.888 -0.0044  0.8475 -1.3807
  384MOL0     H50641   2.358   7.815  10.050 -0.7029  1.8477 -0.6175
  384MOL0     H50642   2.056   7.668   9.861  0.6850 -3.4106  0.5890
  384MOL0     H50643   2.093   7.804   9.969 -1.2141 -0.8770 -0.5459
  384MOL0     H50644   2.116   7.588  10.157 -2.4481 -3.3496  2.0893
  384MOL0     H50645   2.024   7.508  10.023  0.9935  0.5348  0.6781
  384MOL0     H50646   1.944   7.764  10.165 -1.1528  0.7735 -0.9874
  384MOL0     H50647   1.839   7.656  10.068  1.0395 -0.0251 -1.3987
  384MOL0     H50648   1.952   7.610  10.351  0.2159 -1.4051  0.2273
  384MOL0     H50649   1.852   7.500  10.246 -3.7441  1.2283 -1.5951
  384MOL0     H50650   1.537   7.786  10.358 -2.9890 -0.9940 -0.3210
  384MOL0     H50651   1.353   7.712  10.508 -1.6182 -0.1794 -0.9639
  384MOL0     H50652   1.142   7.256  10.569  2.6055  0.5733 -0.1149
  384MOL0     H50653   0.959   7.146  10.670 -2.0013 -1.0035  3.0313
  384MOL0     H50654   0.923   7.164  11.123  0.1331 -0.3412 -0.1742
  384MOL0     H50655   0.952   6.997  11.100  2.3102  1.9782  2.3162
  384MOL0     H50656   0.729   6.984  11.165  1.3476  0.1650  0.6301
  384MOL0     H50657   0.719   6.967  10.989 -1.1356 -0.8515  1.2641
  384MOL0     H50658   0.647   7.222  11.147  2.6980  1.7944 -1.4309
  384MOL0     H50659   0.539   7.103  11.082  0.1245 -0.7522 -0.0730
  384MOL0     H50660   0.741   7.282  10.944 -0.5627  1.2055  0.3277
  384MOL0     H50661   0.646   7.159  10.855  2.4777  1.8674 -0.4744
  384MOL0     H50662   0.533   7.419  10.993  1.2444 -1.6765  1.6866
  384MOL0     H50663   0.442   7.271  10.967 -2.4282  3.6382  1.6362
  384MOL0     H50664   0.422   7.429  10.761  1.0668  1.5161 -1.7727
  384MOL0     H50665   0.511   7.289  10.714  0.9752  0.7166 -1.2330
  384MOL0     H50666   0.651   7.535  10.816 -3.4380  0.4835  0.1563
  384MOL0     H50667   0.715   7.412  10.698  1.9577  0.3531  0.2435
  384MOL0     H50668   0.505   7.617  10.627  1.0872  1.3288 -0.3973
  384MOL0     H50669   0.545   7.478  10.529  3.9855 -1.2393 -1.0100
  384MOL0     H50670   1.135   7.203  11.063  2.0221  0.9376 -0.4510
  384MOL0     H50671   1.313   7.308  10.947 -0.2589 -1.0730  1.2952
  384MOL0     H50672   1.597   7.381  10.614  0.2096  0.1055 -0.8261
  384MOL0     H50673   1.788   7.476  10.495  0.6044  1.4101  0.4068
  384MOL0     H50674   3.477   7.957  10.011  2.1089  0.7555  1.8469
  384MOL0     H50675   3.703   7.880  10.095  2.6669  0.0696 -2.7656
  384MOL0     H50676   4.001   7.775  10.185  0.8537 -0.7277  3.0352
  384MOL0     H50677   4.216   7.780  10.285 -1.2067 -0.1477  1.0206
  384MOL0     H50678   4.526   7.561  10.133  1.2315  0.8006 -0.1005
  384MOL0     H50679   4.531   7.443  10.254  2.6215  0.6273  2.0962
  384MOL0     H50680   4.644   7.586  10.403 -1.8819  1.7505  0.5842
  384MOL0     H50681   4.733   7.575  10.257 -1.8079 -1.4728 -3.6999
  384MOL0     H50682   4.720   7.811  10.350 -1.8315  0.3165  1.8387
  384MOL0     H50683   4.552   7.803  10.349 -0.2679  0.2436 -2.0936
  384MOL0     H50684   4.536   7.788  10.105  1.4708  0.8721 -2.9017
  384MOL0     H50685   4.638   7.932  10.151  0.7431  0.6292 -4.0372
  384MOL0     H50686   4.937   7.723   9.962 -0.1999  3.0264 -1.9434
  384MOL0     H50687   4.311   7.392  10.160  0.3406 -0.2951  2.1599
  384MOL0     H50688   4.117   7.376  10.026  2.2845 -1.4227  1.2940
  385MOL0     O50689   9.399   6.909   9.097  0.1057 -0.4291 -0.0563
  385MOL0     C50690   9.468   6.982   9.168  0.5911 -0.4125 -0.9149
  385MOL0     O50691   9.415   7.072   9.268  0.0971 -0.3993 -0.1780
  385MOL0     C50692   9.284   7.063   9.303  0.6125  0.9331  1.0955
  385MOL0     C50693   9.180   7.113   9.231  0.0192 -0.0912 -0.2053
  385MOL0     C50694   9.040   7.094   9.258 -0.5209  0.5463 -0.2050
  385MOL0     C50695   9.008   7.018   9.370 -0.5020  0.8898 -0.0004
  385MOL0     O50696   8.875   7.019   9.405  0.3375 -0.0687  0.1703
  385MOL0     C50697   8.818   6.909   9.481 -0.3945 -0.4216 -0.7280
  385MOL0     C50698   8.672   6.954   9.512  0.0569  0.5412  0.5579
  385MOL0     C50699   8.605   6.846   9.605 -0.8830 -0.5787 -0.0670
  385MOL0     C50700   8.529   6.758   9.510 -0.3891 -0.0768  0.4232
  385MOL0     C50701   8.453   6.638   9.579  0.4013 -1.0614  0.2603
  385MOL0     C50702   8.332   6.682   9.657  0.4328  0.0102  0.1064
  385MOL0     C50703   8.205   6.698   9.563 -1.5907 -0.6328 -0.6837
  385MOL0     C50704   8.072   6.671   9.637 -1.3606 -0.4182 -0.6128
  385MOL0     N50705   7.962   6.652   9.542 -1.6959  0.4252 -0.6046
  385MOL0     C50706   7.930   6.535   9.472  0.3077  0.3866  0.0181
  385MOL0     C50707   7.836   6.572   9.381  0.5125 -0.3742 -0.0931
  385MOL0     C50708   7.761   6.492   9.268  0.2363  0.1373  0.6061
  385MOL0     C50709   7.624   6.429   9.316 -0.9247 -0.2784 -0.3775
  385MOL0     C50710   7.558   6.362   9.183  0.1392  0.2472  0.4842
  385MOL0     C50711   7.440   6.291   9.227 -0.6408  0.7938 -0.0928
  385MOL0     O50712   7.338   6.306   9.129  0.4041  0.2385 -0.1425
  385MOL0     C50713   7.218   6.240   9.134  0.0223 -0.1846 -0.2820
  385MOL0     C50714   7.198   6.133   9.215  0.5094  0.2081  0.5790
  385MOL0     C50715   7.076   6.071   9.227  0.1291 -0.6930 -0.0200
  385MOL0     C50716   6.963   6.136   9.166 -0.0281 -0.2314  1.0544
  385MOL0     C50717   6.829   6.085   9.193  0.0112 -0.3029  0.1902
  385MOL0     O50718   6.726   6.147   9.123 -1.0419 -0.2858  0.3197
  385MOL0     C50719   6.604   6.085   9.141  1.2400  0.5702 -0.6684
  385MOL0     C50720   6.505   6.177   9.179 -0.8841  0.1987 -0.0917
  385MOL0     C50721   6.376   6.128   9.203  0.2219  0.6331  0.8136
  385MOL0     C50722   6.347   5.982   9.200 -0.2546 -0.4632 -0.3590
  385MOL0     O50723   6.232   5.930   9.257  0.1649 -0.0649 -0.0791
  385MOL0     C50724   6.119   5.999   9.299  0.0585 -0.2845 -0.5331
  385MOL0     C50725   6.031   6.056   9.182  0.2907 -0.1591 -0.2525
  385MOL0     C50726   5.919   6.136   9.239  0.7881 -0.2937 -0.0235
  385MOL0     C50727   5.832   6.067   9.347  1.0531  0.3339 -0.8159
  385MOL0     C50728   5.701   6.137   9.385 -0.7464 -0.5324 -0.5223
  385MOL0     C50729   5.594   6.045   9.447  0.1554 -0.2405  0.0852
  385MOL0     C50730   5.647   5.978   9.570  0.2764 -0.0618  0.3666
  385MOL0     C50731   5.686   6.068   9.688 -0.2740  0.2924 -0.6366
  385MOL0    Cl50732   5.700   5.964   9.834  0.1752  0.0020  0.1978
  385MOL0     C50733   6.449   5.897   9.151 -1.2173  0.0287 -0.0173
  385MOL0     C50734   6.575   5.947   9.123  0.1276  0.4652 -0.5310
  385MOL0     O50735   6.813   5.995   9.272 -0.5437 -0.0691 -0.5307
  385MOL0     C50736   6.983   6.255   9.079  0.6622  0.0613 -0.0984
  385MOL0     C50737   7.113   6.299   9.068 -0.4342  0.4354  0.2599
  385MOL0     N50738   7.814   6.709   9.405 -0.4342 -0.1457 -0.9242
  385MOL0     N50739   7.886   6.754   9.505 -0.3284  0.4414  0.0116
  385MOL0     C50740   9.113   6.961   9.444 -0.1455  0.1887  0.4999
  385MOL0     C50741   9.251   6.976   9.409  0.7031  0.5476 -0.3888
  385MOL0     C50742   9.616   6.981   9.160 -0.6228  0.3275  0.2357
  385MOL0     C50743   9.682   6.882   9.089  0.2395  0.5356 -0.0525
  385MOL0     C50744   9.819   6.887   9.069 -0.1548  0.8169  0.4556
  385MOL0     C50745   9.893   6.985   9.130 -0.2344  0.0094 -0.9834
  385MOL0     O50746  10.032   6.996   9.128  0.3829  0.6234 -0.8089
  385MOL0     C50747  10.098   6.905   9.047  0.1777  0.5586 -0.0563
  385MOL0     C50748  10.234   6.955   9.014 -0.4521  0.3014 -1.6008
  385MOL0     C50749  10.315   6.973   9.150  0.1158 -0.4488  0.0912
  385MOL0     C50750  10.470   6.985   9.115 -0.4902  0.3778 -0.4897
  385MOL0     C50751  10.535   6.982   9.240 -0.8180 -0.2956  0.4885
  385MOL0     C50752  10.602   6.978   9.342 -0.5017 -0.3656 -0.1375
  385MOL0     C50753   9.828   7.087   9.207 -0.3360 -0.6941 -0.0798
  385MOL0     C50754   9.690   7.083   9.218  0.5938 -0.2926 -0.1476
  385MOL0     H50755   9.208   7.176   9.146 -0.4800 -0.2854 -0.5176
  385MOL0     H50756   8.957   7.130   9.197  1.1886  2.0535 -1.7421
  385MOL0     H50757   8.873   6.890   9.574  0.7102  1.7884 -0.8565
  385MOL0     H50758   8.814   6.814   9.426 -0.6048 -1.0055  0.2671
  385MOL0     H50759   8.611   6.975   9.424 -1.2479 -0.3129  1.2177
  385MOL0     H50760   8.676   7.048   9.568 -0.1449 -0.8179  3.0353
  385MOL0     H50761   8.538   6.889   9.681 -0.1663  1.3523 -0.4717
  385MOL0     H50762   8.679   6.792   9.665 -2.0405 -1.2215  0.8259
  385MOL0     H50763   8.461   6.824   9.456  2.0308  2.2964  0.0236
  385MOL0     H50764   8.605   6.713   9.445  1.8003 -1.8067  3.9214
  385MOL0     H50765   8.517   6.581   9.647 -1.2870  0.6038  3.4962
  385MOL0     H50766   8.424   6.565   9.503 -2.1562 -0.5757  0.6677
  385MOL0     H50767   8.344   6.772   9.717  3.0453  0.0929 -0.4056
  385MOL0     H50768   8.301   6.611   9.734  0.5409 -1.7390 -1.3907
  385MOL0     H50769   8.209   6.801   9.526  0.0163 -0.0428  0.9683
  385MOL0     H50770   8.220   6.641   9.471 -0.7442  2.3858 -2.5384
  385MOL0     H50771   8.062   6.761   9.697  1.0972  0.0739 -0.8540
  385MOL0     H50772   8.090   6.587   9.705 -0.1807  1.0536  0.9738
  385MOL0     H50773   7.972   6.437   9.491 -2.0945 -0.6459  0.3035
  385MOL0     H50774   7.824   6.416   9.221 -0.6630  0.6527 -1.5680
  385MOL0     H50775   7.752   6.566   9.188  0.8786  2.7316  2.7745
  385MOL0     H50776   7.559   6.495   9.373  1.4491  2.1600 -0.2606
  385MOL0     H50777   7.658   6.344   9.376  0.7378  1.3946  1.1717
  385MOL0     H50778   7.521   6.442   9.119  0.9698 -1.6210 -2.5101
  385MOL0     H50779   7.615   6.287   9.128  0.0524 -0.6900  1.6138
  385MOL0     H50780   7.401   6.312   9.327  0.7373  0.2378  0.5909
  385MOL0     H50781   7.468   6.185   9.234 -0.9573  0.8119  2.8199
  385MOL0     H50782   7.285   6.080   9.251 -0.2096 -0.3199  1.5809
  385MOL0     H50783   7.091   5.974   9.273  2.5314 -0.1302  0.5310
  385MOL0     H50784   6.533   6.279   9.202 -1.0739  0.1143  0.5364
  385MOL0     H50785   6.300   6.189   9.251  1.1304  1.3860  1.3387
  385MOL0     H50786   6.152   6.086   9.357  1.4380 -0.2347 -1.3314
  385MOL0     H50787   6.063   5.945   9.375  1.4464  0.0922  0.8098
  385MOL0     H50788   6.008   5.967   9.122  4.1436 -0.8904 -0.8716
  385MOL0     H50789   6.086   6.124   9.116  1.3757 -2.8592 -2.3386
  385MOL0     H50790   5.854   6.158   9.155  2.0809 -1.4997 -1.4033
  385MOL0     H50791   5.956   6.232   9.277  0.9892  0.5982 -2.3340
  385MOL0     H50792   5.798   5.973   9.302 -2.5327  0.5785  1.0218
  385MOL0     H50793   5.890   6.058   9.439 -1.6564 -0.1750  0.9699
  385MOL0     H50794   5.654   6.177   9.295 -0.7554 -0.5185 -0.5122
  385MOL0     H50795   5.727   6.224   9.445 -0.2021 -0.2118 -1.2192
  385MOL0     H50796   5.564   5.965   9.379  1.1798 -0.5834  0.0236
  385MOL0     H50797   5.504   6.103   9.473  1.4004  2.0013 -0.3656
  385MOL0     H50798   5.569   5.910   9.606 -2.1385  1.4514 -1.7147
  385MOL0     H50799   5.736   5.920   9.545 -0.4559 -1.6667  1.2853
  385MOL0     H50800   5.615   6.151   9.690  1.2732  1.6579  0.2230
  385MOL0     H50801   5.786   6.110   9.679  0.3330 -0.6578  1.2206
  385MOL0     H50802   6.417   5.793   9.146  1.3620 -0.8132 -0.6942
  385MOL0     H50803   6.652   5.881   9.084  1.7142  1.1818  1.2153
  385MOL0     H50804   6.901   6.308   9.032  1.7325  1.9557  0.0662
  385MOL0     H50805   7.127   6.393   9.015 -0.4491  1.7205  2.4429
  385MOL0     H50806   9.091   6.878   9.511 -0.6531  0.8090  1.1183
  385MOL0     H50807   9.327   6.916   9.458 -0.3256  0.0922  0.7091
  385MOL0     H50808   9.629   6.796   9.047 -0.5579 -0.1258  2.1458
  385MOL0     H50809   9.869   6.805   9.017 -1.2592 -0.3742  1.2020
  385MOL0     H50810  10.035   6.900   8.958 -1.8252  0.7975  1.2591
  385MOL0     H50811  10.097   6.805   9.092  0.5075  0.2082 -0.8202
  385MOL0     H50812  10.293   6.880   8.962 -1.0666 -0.8464 -0.7001
  385MOL0     H50813  10.241   7.051   8.962  5.9773  1.6908  0.9195
  385MOL0     H50814  10.293   6.879   9.202 -1.8916 -1.2606 -2.0401
  385MOL0     H50815  10.281   7.063   9.201  2.1149 -0.7948  2.2177
  385MOL0     H50816  10.500   6.895   9.060  0.8503 -1.6260  3.1546
  385MOL0     H50817  10.490   7.075   9.057  1.6786  0.7351  0.6819
  385MOL0     H50818  10.657   6.976   9.435  4.0424  0.8483 -2.5143
  385MOL0     H50819   9.892   7.169   9.236  3.6498 -3.1127 -1.2788
  385MOL0     H50820   9.646   7.170   9.265  1.7550  1.0683 -1.4865
  386MOL0     O50821   8.826   5.038   4.589  0.0541 -0.5614  0.3755
  386MOL0     C50822   8.876   4.994   4.692  0.1982 -0.3746  0.2450
  386MOL0     O50823   8.803   4.960   4.805 -0.4126  0.3416  0.0027
  386MOL0     C50824   8.666   4.978   4.802 -0.2655  0.3471 -0.1645
  386MOL0     C50825   8.579   4.872   4.810  0.2512  0.7669  0.0641
  386MOL0     C50826   8.440   4.878   4.812 -0.2079  0.6517  0.1715
  386MOL0     C50827   8.380   5.000   4.796 -0.4540 -0.1259 -0.6909
  386MOL0     O50828   8.247   5.007   4.787  0.2443  0.4375 -0.3991
  386MOL0     C50829   8.173   5.087   4.887  0.6211  1.0555  0.8954
  386MOL0     C50830   8.022   5.047   4.872  0.2255  0.0033 -0.2831
  386MOL0     C50831   7.946   5.162   4.945 -0.3408  0.5053  0.4133
  386MOL0     C50832   7.803   5.125   4.962 -0.5651  0.0678 -0.2909
  386MOL0     C50833   7.726   5.221   5.048  0.3922  0.5206 -0.4244
  386MOL0     C50834   7.601   5.153   5.101 -0.9338  1.3630  0.3700
  386MOL0     C50835   7.539   5.253   5.195 -1.2318 -0.3458  0.2391
  386MOL0     C50836   7.404   5.201   5.250 -0.1026 -0.4174  0.3291
  386MOL0     N50837   7.351   5.305   5.341 -0.4985 -0.4996 -0.0617
  386MOL0     C50838   7.383   5.312   5.475 -0.3442 -0.3772  0.7584
  386MOL0     C50839   7.316   5.416   5.524 -0.7362 -0.2855  0.3507
  386MOL0     C50840   7.311   5.462   5.665  0.5361  0.0171  0.1741
  386MOL0     C50841   7.441   5.494   5.730 -0.2726  0.0365 -0.4463
  386MOL0     C50842   7.545   5.576   5.657  0.6953  0.4172  0.0677
  386MOL0     C50843   7.493   5.699   5.588 -0.1124 -1.1788  0.2686
  386MOL0     O50844   7.604   5.776   5.525 -0.6468  0.1791 -0.1581
  386MOL0     C50845   7.688   5.724   5.421  0.1862  0.2596  0.0379
  386MOL0     C50846   7.667   5.607   5.347 -0.0737  0.1170  0.7662
  386MOL0     C50847   7.755   5.549   5.261 -0.7270 -0.0918  0.1757
  386MOL0     C50848   7.884   5.610   5.240  0.7722 -0.0483  0.3393
  386MOL0     C50849   7.999   5.543   5.157 -0.2390 -0.0011 -0.1464
  386MOL0     O50850   8.099   5.623   5.109  0.5591  0.2617 -0.3745
  386MOL0     C50851   8.225   5.568   5.070  1.0620  0.7061 -0.1617
  386MOL0     C50852   8.270   5.435   5.085 -0.0572 -0.3194  0.5394
  386MOL0     C50853   8.396   5.399   5.034 -0.4095 -0.6795 -0.3305
  386MOL0     C50854   8.481   5.490   4.960 -0.0292 -0.5097 -0.0791
  386MOL0     O50855   8.591   5.449   4.888 -0.2877  0.2606  0.3830
  386MOL0     C50856   8.656   5.544   4.797 -0.1485  1.0383  0.4490
  386MOL0     C50857   8.774   5.467   4.730  0.6522 -0.2253  0.2713
  386MOL0     C50858   8.905   5.459   4.809 -0.0086  0.1985 -0.3051
  386MOL0     C50859   9.001   5.365   4.738  0.0418  1.0311  0.3936
  386MOL0     C50860   9.140   5.359   4.793 -0.5264  0.8937  0.3625
  386MOL0     C50861   9.157   5.291   4.925 -0.5621 -0.3372  0.4487
  386MOL0     C50862   9.309   5.270   4.946  0.4493 -0.0461 -0.3337
  386MOL0     C50863   9.333   5.245   5.091  0.2088 -0.2468 -1.1414
  386MOL0    Cl50864   9.507   5.209   5.122  0.1200  0.4479 -0.0055
  386MOL0     C50865   8.430   5.626   4.954 -0.1440  0.1107  0.6414
  386MOL0     C50866   8.303   5.661   5.004 -0.4738 -0.3968  0.2389
  386MOL0     O50867   7.998   5.422   5.143  0.0292 -0.6590  0.8161
  386MOL0     C50868   7.903   5.732   5.303 -0.4520 -0.5837 -0.3706
  386MOL0     C50869   7.807   5.790   5.389 -0.0341 -0.4322 -0.2585
  386MOL0     N50870   7.238   5.467   5.415 -0.0023 -0.5525  0.2684
  386MOL0     N50871   7.263   5.402   5.307 -0.6059 -0.4194  0.6838
  386MOL0     C50872   8.454   5.120   4.783 -0.3675 -0.0981 -1.3524
  386MOL0     C50873   8.603   5.108   4.800  0.7244  0.0628  0.8573
  386MOL0     C50874   9.028   4.993   4.701 -0.0939  0.7920 -0.1521
  386MOL0     C50875   9.091   4.922   4.801 -0.3197 -0.1499 -0.7868
  386MOL0     C50876   9.232   4.918   4.808 -0.6313  0.0332  0.1810
  386MOL0     C50877   9.317   4.974   4.708 -0.3075 -0.2800 -0.0487
  386MOL0     O50878   9.458   4.970   4.722 -0.1296  0.0911 -0.0446
  386MOL0     C50879   9.517   4.871   4.807  0.0656  0.2917  0.2853
  386MOL0     C50880   9.555   4.923   4.947  0.7621 -0.2480 -0.7457
  386MOL0     C50881   9.620   4.811   5.026 -0.8145  0.2098 -0.0443
  386MOL0     C50882   9.637   4.854   5.174  0.4676  1.3426  0.4135
  386MOL0     C50883   9.752   4.937   5.182  1.1889 -0.0911 -0.6574
  386MOL0     C50884   9.853   4.998   5.192  0.4181  0.3196 -0.3629
  386MOL0     C50885   9.261   5.038   4.600 -0.3143  0.2951 -0.5721
  386MOL0     C50886   9.120   5.046   4.602 -0.1142 -0.5202  0.3941
  386MOL0     H50887   8.633   4.780   4.830  1.2219  1.5628  1.2768
  386MOL0     H50888   8.378   4.790   4.811  1.4397 -0.5735 -1.4825
  386MOL0     H50889   8.186   5.192   4.862 -1.4476  1.7695  2.5802
  386MOL0     H50890   8.204   5.057   4.988 -1.2395  2.3925  1.9284
  386MOL0     H50891   8.018   4.950   4.922 -0.0381 -0.1614 -0.6183
  386MOL0     H50892   7.982   5.032   4.772  0.8860  2.7223 -1.0503
  386MOL0     H50893   7.941   5.254   4.885 -2.2153  0.5257  0.5410
  386MOL0     H50894   7.996   5.169   5.042  3.8201 -0.0949 -1.4918
  386MOL0     H50895   7.759   5.109   4.863  0.8849 -1.4911 -0.7442
  386MOL0     H50896   7.797   5.036   5.026 -2.5806  0.9553  0.8318
  386MOL0     H50897   7.698   5.313   4.995 -3.7145  0.2025  0.8742
  386MOL0     H50898   7.790   5.246   5.133  1.0383  0.0425 -0.7589
  386MOL0     H50899   7.623   5.059   5.151  1.9980  0.4958 -2.2121
  386MOL0     H50900   7.535   5.140   5.014 -0.6613  2.7063 -0.0665
  386MOL0     H50901   7.611   5.256   5.277 -1.6158  0.8807  0.5560
  386MOL0     H50902   7.542   5.352   5.148  1.7346 -0.8431 -0.8286
  386MOL0     H50903   7.401   5.102   5.296 -3.2199 -0.6048 -0.0092
  386MOL0     H50904   7.347   5.204   5.157  0.0725 -1.5701  0.1700
  386MOL0     H50905   7.447   5.259   5.544  0.7952  0.8632  0.6823
  386MOL0     H50906   7.264   5.390   5.733  2.5619 -0.0369  1.6249
  386MOL0     H50907   7.244   5.548   5.669 -3.1599 -2.4202 -2.6878
  386MOL0     H50908   7.492   5.399   5.751 -1.8234 -0.2020  2.7822
  386MOL0     H50909   7.426   5.547   5.824  1.3042  0.4613 -0.4020
  386MOL0     H50910   7.623   5.598   5.731 -0.4232  2.7010  0.6479
  386MOL0     H50911   7.589   5.509   5.582  1.3124 -0.1841  0.9408
  386MOL0     H50912   7.454   5.770   5.661 -0.9170  1.6372 -2.6568
  386MOL0     H50913   7.411   5.682   5.517 -0.3388 -0.4674  0.3507
  386MOL0     H50914   7.576   5.548   5.351 -0.7338  1.1610  2.0169
  386MOL0     H50915   7.723   5.455   5.217 -0.0185 -0.0167 -0.5265
  386MOL0     H50916   8.210   5.354   5.125 -1.4124 -1.4140 -3.2808
  386MOL0     H50917   8.421   5.294   5.031 -0.8735 -0.8711  1.4628
  386MOL0     H50918   8.695   5.631   4.850 -1.2372  1.2860  0.8753
  386MOL0     H50919   8.580   5.565   4.721 -1.9031 -1.1121  1.4863
  386MOL0     H50920   8.799   5.531   4.645 -0.3140 -0.2958 -0.0725
  386MOL0     H50921   8.734   5.371   4.696 -2.7817  1.0888  0.2976
  386MOL0     H50922   8.887   5.427   4.912 -0.3007  0.5888 -0.2363
  386MOL0     H50923   8.947   5.559   4.819 -3.0547  1.4759  0.8427
  386MOL0     H50924   8.963   5.263   4.753  3.0853 -0.0108  2.1490
  386MOL0     H50925   9.004   5.399   4.634 -1.8231  0.8285  0.2400
  386MOL0     H50926   9.177   5.461   4.806  0.5264  0.6340 -0.4881
  386MOL0     H50927   9.203   5.306   4.721  2.1175  1.1973  2.3426
  386MOL0     H50928   9.115   5.191   4.939  0.1859 -0.4411  2.2178
  386MOL0     H50929   9.115   5.363   4.995  0.0479  0.7400 -0.2633
  386MOL0     H50930   9.348   5.193   4.879  2.9304  0.6351  0.2242
  386MOL0     H50931   9.354   5.368   4.930 -0.7271  0.6827  0.6225
  386MOL0     H50932   9.266   5.165   5.126 -1.0063  1.4367  0.6739
  386MOL0     H50933   9.307   5.336   5.146 -0.0153  1.8373 -4.4644
  386MOL0     H50934   8.475   5.701   4.889 -1.0987 -0.4133 -0.6754
  386MOL0     H50935   8.259   5.758   4.985 -2.0790 -1.1571 -0.0328
  386MOL0     H50936   7.995   5.783   5.277 -0.9510  2.1532  2.5779
  386MOL0     H50937   7.831   5.879   5.447  1.7886 -0.7667 -0.4483
  386MOL0     H50938   8.412   5.219   4.764  1.0110  0.4130 -1.8544
  386MOL0     H50939   8.667   5.195   4.799 -0.7517  1.1903  1.2274
  386MOL0     H50940   9.028   4.871   4.874 -0.7564 -0.9266 -1.6913
  386MOL0     H50941   9.272   4.877   4.900 -0.9986 -0.5383  0.0952
  386MOL0     H50942   9.611   4.831   4.767 -1.1286 -1.6187 -0.7709
  386MOL0     H50943   9.466   4.774   4.813  1.8653 -0.5944  3.0207
  386MOL0     H50944   9.625   5.006   4.949  0.1145  0.3033  0.2631
  386MOL0     H50945   9.473   4.948   5.015  2.4941 -3.2557  2.8116
  386MOL0     H50946   9.717   4.780   4.986  0.0144  1.6725  0.7453
  386MOL0     H50947   9.558   4.721   5.021 -0.9880  0.3849 -1.7401
  386MOL0     H50948   9.554   4.909   5.221 -0.6771  0.3874 -0.4272
  386MOL0     H50949   9.654   4.763   5.233 -0.7195  1.3894  0.8501
  386MOL0     H50950   9.939   5.050   5.228  1.4628 -2.5111  1.5405
  386MOL0     H50951   9.319   5.088   4.523 -0.2834  2.8823  1.0133
  386MOL0     H50952   9.071   5.093   4.517  1.1298  2.6277  1.3011
  387MOL0     O50953   3.036   5.444  10.892 -0.2912 -0.0761 -0.2892
  387MOL0     C50954   3.088   5.545  10.946  0.8088  0.5040  0.1497
  387MOL0     O50955   3.026   5.660  10.965 -0.4962  0.0208 -0.9717
  387MOL0     C50956   2.890   5.662  10.960  0.4065 -0.1580  0.2448
  387MOL0     C50957   2.799   5.574  11.025  0.0967 -0.4114  0.2339
  387MOL0     C50958   2.663   5.596  11.023  0.3893 -0.1981  0.1344
  387MOL0     C50959   2.612   5.690  10.943 -0.5133 -0.5244  0.0310
  387MOL0     O50960   2.476   5.711  10.941 -0.5100  0.5057  0.2829
  387MOL0     C50961   2.402   5.600  10.881  0.1515  0.5987 -0.5767
  387MOL0     C50962   2.251   5.644  10.850 -0.6225 -0.3112  0.5249
  387MOL0     C50963   2.162   5.640  10.972 -0.1234 -0.0824  0.3410
  387MOL0     C50964   2.012   5.671  10.948 -0.1063  0.5221 -0.6031
  387MOL0     C50965   1.932   5.645  11.073  0.2467 -0.4690  0.2258
  387MOL0     C50966   1.785   5.670  11.049  0.5201 -0.5833 -0.5779
  387MOL0     C50967   1.713   5.588  10.937  0.3744  0.2154 -1.0761
  387MOL0     C50968   1.576   5.653  10.911  0.6446  0.1591  0.6323
  387MOL0     N50969   1.484   5.558  10.839 -0.5258  0.2020 -0.0820
  387MOL0     C50970   1.462   5.548  10.701 -0.6809  0.6515  0.1885
  387MOL0     C50971   1.343   5.479  10.688  0.6488  0.4447 -0.0433
  387MOL0     C50972   1.279   5.429  10.558  0.7463  0.1120 -0.5827
  387MOL0     C50973   1.159   5.332  10.585  0.2611  0.2923 -0.3482
  387MOL0     C50974   1.090   5.292  10.462 -0.2612 -0.5925 -0.0533
  387MOL0     C50975   0.999   5.172  10.479  0.0274  0.0329 -0.5521
  387MOL0     O50976   0.931   5.190  10.605  0.1793 -0.0497  0.3948
  387MOL0     C50977   0.814   5.256  10.600 -0.6296 -0.0422 -0.6871
  387MOL0     C50978   0.722   5.221  10.702  0.0534  0.0139 -0.6101
  387MOL0     C50979   0.592   5.281  10.704  0.2696  0.1259 -0.1404
  387MOL0     C50980   0.554   5.365  10.603  0.2463 -0.6286  0.2998
  387MOL0     C50981   0.420   5.427  10.601  0.8201 -0.7728  0.8733
  387MOL0     O50982   0.337   5.380  10.705  0.5616 -0.2289  0.3905
  387MOL0     C50983   0.222   5.444  10.741 -0.2064 -0.7605 -0.3450
  387MOL0     C50984   0.171   5.393  10.862 -0.0568  0.0252 -0.3825
  387MOL0     C50985   0.039   5.427  10.910  0.5608  0.1555  0.5559
  387MOL0     C50986  -0.048   5.501  10.834  0.2885 -1.1305 -0.2216
  387MOL0     O50987  -0.174   5.518  10.883 -0.5939 -0.0838  0.6109
  387MOL0     C50988  -0.220   5.658  10.880  0.2758  0.0260 -0.2279
  387MOL0     C50989  -0.338   5.681  10.789  0.5227 -0.5601  0.3449
  387MOL0     C50990  -0.457   5.603  10.835 -0.1488 -0.3426  0.0686
  387MOL0     C50991  -0.583   5.649  10.754 -0.2730 -0.5834 -1.0316
  387MOL0     C50992  -0.710   5.591  10.817 -0.1719  0.6031 -0.1674
  387MOL0     C50993  -0.842   5.649  10.750 -0.6914 -0.3435  0.5585
  387MOL0     C50994  -0.969   5.577  10.796 -0.4014  0.3626 -0.2032
  387MOL0     C50995  -1.097   5.603  10.712 -0.3836 -0.0820  0.4822
  387MOL0    Cl50996  -1.192   5.751  10.757  0.0223  0.4232  0.0736
  387MOL0     C50997  -0.002   5.538  10.703 -0.2695 -0.3223 -0.3674
  387MOL0     C50998   0.131   5.515  10.660  0.3768  0.4469  0.3278
  387MOL0     O50999   0.389   5.509  10.516 -0.0256 -0.0031 -0.1854
  387MOL0     C51000   0.640   5.389  10.495  0.7226  0.1244  1.1089
  387MOL0     C51001   0.768   5.343  10.498  0.0545 -0.8199  1.1744
  387MOL0     N51002   1.291   5.464  10.815 -0.6759  0.1937  0.1651
  387MOL0     N51003   1.377   5.516  10.902  0.4137  0.2145  0.4254
  387MOL0     C51004   2.697   5.773  10.869  0.2193 -0.7710  0.7592
  387MOL0     C51005   2.834   5.770  10.882 -0.0511 -0.1557  0.2429
  387MOL0     C51006   3.227   5.534  10.978 -0.6087 -0.5873  0.0927
  387MOL0     C51007   3.305   5.651  10.974 -0.7611  1.1061 -0.0121
  387MOL0     C51008   3.441   5.653  11.002 -0.4546 -0.4667 -0.0683
  387MOL0     C51009   3.512   5.539  11.033 -0.8914 -0.4317 -0.3665
  387MOL0     O51010   3.645   5.557  11.074 -0.1467  0.4863 -1.2139
  387MOL0     C51011   3.705   5.452  11.148  0.3419 -0.1131 -0.3432
  387MOL0     C51012   3.775   5.353  11.056  0.4039  0.2388  0.5315
  387MOL0     C51013   3.868   5.251  11.116 -0.2068  0.4598  0.8222
  387MOL0     C51014   4.006   5.315  11.152  0.0718  0.5603 -0.7530
  387MOL0     C51015   4.096   5.212  11.209 -0.2890  0.6204  0.4571
  387MOL0     C51016   4.182   5.139  11.246  0.5678  0.6495 -0.0890
  387MOL0     C51017   3.436   5.413  11.024 -0.1085 -0.2636  0.5084
  387MOL0     C51018   3.303   5.415  10.996 -0.1818  0.4971 -0.3440
  387MOL0     H51019   2.850   5.499  11.085  0.5031  1.8624  2.8890
  387MOL0     H51020   2.594   5.535  11.080  2.1910 -4.0837 -1.5036
  387MOL0     H51021   2.396   5.515  10.950  0.2658  2.4070  1.8088
  387MOL0     H51022   2.451   5.570  10.789 -0.5920 -0.7327 -0.5599
  387MOL0     H51023   2.213   5.593  10.761  0.2559  2.0784 -1.3358
  387MOL0     H51024   2.261   5.750  10.826  0.3198 -0.6402 -0.6561
  387MOL0     H51025   2.193   5.716  11.044 -3.0400  2.6299 -0.9947
  387MOL0     H51026   2.169   5.547  11.029  0.4959  1.5028  3.0749
  387MOL0     H51027   1.993   5.777  10.931 -0.2407  0.9795  2.0382
  387MOL0     H51028   1.976   5.607  10.866  1.8437 -0.0860 -1.0446
  387MOL0     H51029   1.958   5.719  11.149 -1.4635  1.1176 -0.6529
  387MOL0     H51030   1.943   5.543  11.111  0.2770 -1.3579 -2.0030
  387MOL0     H51031   1.768   5.777  11.032  1.3260  0.2757  3.0697
  387MOL0     H51032   1.735   5.651  11.144  2.6172  1.0295  0.9574
  387MOL0     H51033   1.767   5.587  10.842 -0.1693  2.5075 -1.4522
  387MOL0     H51034   1.701   5.487  10.979  1.8972 -0.2009 -1.5718
  387MOL0     H51035   1.593   5.739  10.846  0.3156  1.7562  2.5617
  387MOL0     H51036   1.531   5.684  11.006  0.8531  0.6592  0.5719
  387MOL0     H51037   1.532   5.575  10.622 -0.3337  0.0683  0.2935
  387MOL0     H51038   1.358   5.367  10.514  0.9981  0.7127 -0.9927
  387MOL0     H51039   1.258   5.508  10.485  0.0786  1.0626  0.6001
  387MOL0     H51040   1.082   5.378  10.648 -0.9981  0.7500 -2.1287
  387MOL0     H51041   1.201   5.245  10.636  0.2607 -0.1445 -1.0816
  387MOL0     H51042   1.031   5.376  10.425 -0.2139 -0.5587 -0.0515
  387MOL0     H51043   1.168   5.273  10.387 -0.3746 -0.9053 -0.0938
  387MOL0     H51044   1.054   5.078  10.491 -0.6785 -0.0548  5.5014
  387MOL0     H51045   0.929   5.160  10.396  0.4447  1.3053 -1.0997
  387MOL0     H51046   0.750   5.159  10.786  0.5172  2.0299  0.7905
  387MOL0     H51047   0.528   5.249  10.785  2.9286 -1.3042  1.5331
  387MOL0     H51048   0.236   5.331  10.923  0.2430  1.0804  0.3754
  387MOL0     H51049  -0.000   5.389  11.003  0.4981 -1.2180 -0.0065
  387MOL0     H51050  -0.135   5.725  10.867  1.8681 -1.8348  0.0187
  387MOL0     H51051  -0.259   5.684  10.979 -1.6644 -3.8637  0.2154
  387MOL0     H51052  -0.317   5.651  10.686 -0.0079  0.9091 -0.2306
  387MOL0     H51053  -0.357   5.789  10.793 -1.6413 -0.9441  1.9016
  387MOL0     H51054  -0.477   5.618  10.942 -1.0454 -0.5531 -0.0574
  387MOL0     H51055  -0.434   5.497  10.828  3.3355  0.1306  2.0378
  387MOL0     H51056  -0.579   5.757  10.770  0.6388 -1.0079  2.3507
  387MOL0     H51057  -0.574   5.630  10.647  2.9208  0.0805 -0.9876
  387MOL0     H51058  -0.717   5.611  10.924  2.1513  1.0543 -0.0680
  387MOL0     H51059  -0.711   5.481  10.817  1.9536  0.5428  1.1724
  387MOL0     H51060  -0.840   5.631  10.642  0.1853 -4.0639  1.0614
  387MOL0     H51061  -0.846   5.756  10.775 -1.8686 -0.0647 -0.7114
  387MOL0     H51062  -0.954   5.469  10.794 -0.1814  0.3779  0.3380
  387MOL0     H51063  -0.992   5.602  10.900 -2.2960  0.8109 -0.6897
  387MOL0     H51064  -1.158   5.514  10.732  2.0934 -2.3579 -1.3835
  387MOL0     H51065  -1.082   5.603  10.604  1.6692 -1.1773  0.7226
  387MOL0     H51066  -0.069   5.593  10.638 -0.9818 -0.5794  0.1471
  387MOL0     H51067   0.160   5.549  10.561  3.1651  0.3369  1.0327
  387MOL0     H51068   0.613   5.457  10.415  2.7894  1.4501  1.4384
  387MOL0     H51069   0.820   5.379  10.409  2.6324 -2.7671  1.7714
  387MOL0     H51070   2.662   5.853  10.805 -1.2218 -1.5516  0.5494
  387MOL0     H51071   2.888   5.847  10.828 -0.9098  1.3673  1.4562
  387MOL0     H51072   3.259   5.746  10.952 -0.9109  0.9463 -0.4100
  387MOL0     H51073   3.495   5.747  11.004 -1.5821  0.1856  0.4264
  387MOL0     H51074   3.634   5.400  11.213  0.9040 -1.5570 -0.8567
  387MOL0     H51075   3.776   5.500  11.217 -0.6087 -0.8147  1.1903
  387MOL0     H51076   3.698   5.312  10.990 -3.8688  5.0407  1.8622
  387MOL0     H51077   3.835   5.418  10.992 -0.1528 -0.1981 -0.4553
  387MOL0     H51078   3.900   5.181  11.038 -0.8452  0.7107  0.3186
  387MOL0     H51079   3.820   5.195  11.197  0.6700 -1.4085  0.1041
  387MOL0     H51080   4.050   5.356  11.061 -1.5316  1.0497 -1.3448
  387MOL0     H51081   3.986   5.397  11.222 -1.6446 -1.2343  0.9971
  387MOL0     H51082   4.249   5.059  11.269  0.1743  0.1541 -0.6385
  387MOL0     H51083   3.471   5.314  11.050 -3.0776 -1.1113  1.7352
  387MOL0     H51084   3.250   5.320  11.000  1.0665 -0.2144  0.1113
  388MOL0     O51085  10.313   9.567   3.217 -0.3037 -0.3053 -0.1831
  388MOL0     C51086  10.299   9.454   3.175  0.7043 -0.5361  0.3862
  388MOL0     O51087  10.184   9.399   3.147 -0.5175 -0.1987 -0.0679
  388MOL0     C51088  10.063   9.456   3.165  0.3222  0.3417  0.1917
  388MOL0     C51089   9.987   9.431   3.286 -0.0464 -0.8329 -0.2774
  388MOL0     C51090   9.850   9.476   3.289 -0.4252  0.5567  0.4457
  388MOL0     C51091   9.792   9.541   3.177  0.2332  0.1221 -0.0770
  388MOL0     O51092   9.660   9.579   3.181 -0.0682 -0.0958 -0.0394
  388MOL0     C51093   9.568   9.482   3.241 -0.6673 -1.2557  1.1129
  388MOL0     C51094   9.424   9.512   3.212 -0.4282  0.1934 -0.0302
  388MOL0     C51095   9.386   9.627   3.292 -0.2252  0.1004  0.6201
  388MOL0     C51096   9.237   9.619   3.338  0.6245 -0.2117  0.3265
  388MOL0     C51097   9.198   9.745   3.422 -0.3085  0.1694 -0.7386
  388MOL0     C51098   9.059   9.729   3.477 -0.2209 -0.0724  0.5983
  388MOL0     C51099   9.001   9.870   3.481  0.9861 -0.4848  0.3744
  388MOL0     C51100   8.878   9.880   3.560  2.1842  0.3364  0.7814
  388MOL0     N51101   8.763   9.785   3.533 -0.1652  1.2934 -0.3867
  388MOL0     C51102   8.670   9.816   3.440 -0.2716 -0.1128 -0.1607
  388MOL0     C51103   8.571   9.722   3.457  0.0701 -0.2997 -0.2454
  388MOL0     C51104   8.447   9.694   3.369 -0.2762 -0.0907  0.4568
  388MOL0     C51105   8.396   9.831   3.316  0.3683 -0.2631  0.0113
  388MOL0     C51106   8.262   9.824   3.229  0.5604 -0.2210  0.5888
  388MOL0     C51107   8.152   9.782   3.319  0.2479 -0.5045  0.0937
  388MOL0     O51108   8.028   9.798   3.248 -0.0335  0.1744 -0.1488
  388MOL0     C51109   7.957   9.906   3.273  0.5582  0.1305 -0.6882
  388MOL0     C51110   8.009  10.030   3.306  0.1660 -0.3724  0.1856
  388MOL0     C51111   7.932  10.153   3.309 -0.2191 -0.4336 -0.4270
  388MOL0     C51112   7.796  10.146   3.277  0.7464  0.3500 -0.8075
  388MOL0     C51113   7.707  10.271   3.285  0.5939 -0.5697 -0.0154
  388MOL0     O51114   7.754  10.388   3.349 -0.3814 -0.7027 -0.7216
  388MOL0     C51115   7.686  10.506   3.315  0.0497  0.8289  0.1003
  388MOL0     C51116   7.657  10.599   3.416  0.4213  0.1186  0.4358
  388MOL0     C51117   7.579  10.713   3.389 -0.8014  0.1372 -1.1266
  388MOL0     C51118   7.528  10.742   3.254  0.0169  0.4892 -0.2291
  388MOL0     O51119   7.449  10.853   3.230 -0.1851  0.1320  0.6118
  388MOL0     C51120   7.366  10.903   3.328 -0.4513  0.1519 -0.2716
  388MOL0     C51121   7.264  10.802   3.374 -0.2288  0.1833 -0.1859
  388MOL0     C51122   7.150  10.877   3.449  0.3506 -0.1417 -0.1844
  388MOL0     C51123   7.047  10.781   3.497 -0.2411  0.0199  0.3167
  388MOL0     C51124   6.908  10.786   3.432 -0.1275 -0.1795 -0.0827
  388MOL0     C51125   6.810  10.676   3.486  0.3622  0.1598 -1.1643
  388MOL0     C51126   6.848  10.529   3.439  0.4395 -0.1020 -0.4691
  388MOL0     C51127   6.732  10.434   3.446  0.4703 -0.2258 -0.1607
  388MOL0    Cl51128   6.766  10.266   3.389  0.2795 -0.0113 -0.5561
  388MOL0     C51129   7.562  10.649   3.148 -0.6080 -0.7215 -0.1552
  388MOL0     C51130   7.632  10.526   3.178  0.5347 -0.2832  0.2428
  388MOL0     O51131   7.601  10.256   3.230  0.6146  0.0404  0.2963
  388MOL0     C51132   7.743  10.012   3.244 -0.2631 -0.7322  0.3244
  388MOL0     C51133   7.823   9.903   3.236 -0.4644  0.7812  0.0258
  388MOL0     N51134   8.611   9.624   3.557  0.1029 -0.0157  0.3705
  388MOL0     N51135   8.736   9.666   3.592 -0.1187  0.1975 -0.2523
  388MOL0     C51136   9.871   9.570   3.068 -0.5251  0.0777 -0.2999
  388MOL0     C51137  10.005   9.532   3.061  0.3613  0.0568 -0.5544
  388MOL0     C51138  10.430   9.394   3.143  0.1845 -0.0422  0.0054
  388MOL0     C51139  10.423   9.277   3.060 -0.0755 -0.1824 -0.3142
  388MOL0     C51140  10.546   9.216   3.022 -0.3697  0.0225 -1.0096
  388MOL0     C51141  10.673   9.266   3.063  0.1536  0.2035  0.2403
  388MOL0     O51142  10.796   9.210   3.027  0.3242  0.4122  0.3905
  388MOL0     C51143  10.796   9.153   2.896 -0.1959  0.4909  0.3819
  388MOL0     C51144  10.937   9.155   2.837  0.5424 -0.9702  0.0230
  388MOL0     C51145  11.042   9.073   2.915  0.3587 -0.0238  0.2382
  388MOL0     C51146  11.174   9.066   2.852 -0.4511 -0.2049 -0.0399
  388MOL0     C51147  11.165   8.999   2.723 -0.6196  0.7338 -0.1710
  388MOL0     C51148  11.176   8.946   2.616  0.5794  0.1449 -0.7355
  388MOL0     C51149  10.670   9.372   3.151  0.1073  0.2756  0.3086
  388MOL0     C51150  10.557   9.453   3.181  0.7665 -0.0234 -0.1214
  388MOL0     H51151  10.031   9.377   3.369 -1.0786  1.5636  1.9788
  388MOL0     H51152   9.809   9.464   3.389  1.5893 -0.3724  1.2107
  388MOL0     H51153   9.580   9.480   3.350 -3.3443  0.4328  1.5123
  388MOL0     H51154   9.582   9.381   3.201 -2.7460 -0.9207 -0.5713
  388MOL0     H51155   9.368   9.424   3.242 -1.5532  0.2239 -1.9404
  388MOL0     H51156   9.417   9.528   3.104  1.4632 -1.5956 -0.4817
  388MOL0     H51157   9.388   9.718   3.231 -2.0688 -1.0313 -1.2535
  388MOL0     H51158   9.457   9.639   3.374  0.0286  1.0706  0.2757
  388MOL0     H51159   9.178   9.594   3.249  1.2611 -1.5793  0.2651
  388MOL0     H51160   9.213   9.528   3.395  1.9866 -0.2064  0.9393
  388MOL0     H51161   9.214   9.835   3.362 -0.6269  0.9608  0.3353
  388MOL0     H51162   9.259   9.750   3.512 -2.4725  0.6030  0.7587
  388MOL0     H51163   9.069   9.689   3.578  2.1026 -0.2004  0.3603
  388MOL0     H51164   8.997   9.670   3.408 -1.4945  2.7175 -0.8142
  388MOL0     H51165   9.075   9.941   3.519 -0.5582  1.4142  0.0443
  388MOL0     H51166   8.966   9.901   3.382  0.2726  2.7693  1.5139
  388MOL0     H51167   8.846   9.984   3.561  1.4525  0.1897 -1.4372
  388MOL0     H51168   8.907   9.861   3.664  3.5780  0.9224  0.5249
  388MOL0     H51169   8.677   9.905   3.379 -0.4290 -0.0741 -0.1238
  388MOL0     H51170   8.379   9.647   3.442 -0.4042  1.1754  1.1953
  388MOL0     H51171   8.465   9.620   3.292  1.2910 -2.4722  2.9362
  388MOL0     H51172   8.472   9.870   3.247 -0.6731 -2.3886 -2.4937
  388MOL0     H51173   8.389   9.907   3.395 -1.8492 -1.1555  0.7572
  388MOL0     H51174   8.231   9.921   3.188 -1.6966 -1.1426 -0.0485
  388MOL0     H51175   8.272   9.748   3.151  0.2246 -3.0615  3.1387
  388MOL0     H51176   8.154   9.840   3.411 -1.6825  1.4857 -1.0349
  388MOL0     H51177   8.168   9.676   3.343  1.0735 -0.3562  0.2181
  388MOL0     H51178   8.113  10.041   3.336 -0.0244  1.7737  0.2217
  388MOL0     H51179   7.965  10.249   3.347 -2.5057  1.1561 -2.2090
  388MOL0     H51180   7.696  10.595   3.517  3.7760 -0.0035 -0.7454
  388MOL0     H51181   7.556  10.767   3.480  2.4598  0.0616 -0.1339
  388MOL0     H51182   7.309  10.985   3.284 -2.5028 -1.5901 -1.0258
  388MOL0     H51183   7.435  10.937   3.406 -1.4331 -0.8346  1.0750
  388MOL0     H51184   7.303  10.715   3.427 -0.4206 -0.9125 -1.7612
  388MOL0     H51185   7.215  10.767   3.282  0.7751 -1.8348 -0.0215
  388MOL0     H51186   7.106  10.948   3.377  2.1021 -1.1940 -2.4145
  388MOL0     H51187   7.201  10.922   3.535  0.3152 -1.2008  0.4035
  388MOL0     H51188   7.087  10.680   3.486 -4.0990 -1.5458 -1.1977
  388MOL0     H51189   7.053  10.799   3.605  0.0011  1.0104  0.1487
  388MOL0     H51190   6.915  10.760   3.326 -0.6669  4.0888 -1.3451
  388MOL0     H51191   6.860  10.883   3.443  0.9631  0.8229 -3.1292
  388MOL0     H51192   6.713  10.680   3.435 -0.9054 -2.2873  0.8449
  388MOL0     H51193   6.786  10.685   3.592 -0.5055 -1.0115 -1.2467
  388MOL0     H51194   6.864  10.528   3.331 -0.2171  1.5456 -0.6119
  388MOL0     H51195   6.936  10.489   3.490  2.3801  2.4633 -1.5019
  388MOL0     H51196   6.653  10.473   3.381  0.1083 -2.8364 -1.4139
  388MOL0     H51197   6.699  10.438   3.550  0.3628  2.0933 -0.2164
  388MOL0     H51198   7.528  10.654   3.045  0.3929 -1.1855 -0.5185
  388MOL0     H51199   7.658  10.463   3.093  2.1664  0.7069 -0.0386
  388MOL0     H51200   7.639   9.996   3.217  0.0136 -1.9813 -0.0814
  388MOL0     H51201   7.789   9.807   3.200  0.8072  1.3849 -3.0526
  388MOL0     H51202   9.819   9.619   2.986 -0.2785 -0.7180 -0.9433
  388MOL0     H51203  10.054   9.550   2.965 -3.8267 -1.7994 -3.3530
  388MOL0     H51204  10.335   9.225   3.022 -0.2091 -0.1695 -0.0300
  388MOL0     H51205  10.543   9.123   2.965 -2.0729 -0.7604  0.2749
  388MOL0     H51206  10.720   9.200   2.832 -1.4447 -0.5435  1.0565
  388MOL0     H51207  10.783   9.045   2.893  3.3532 -0.0625  0.3301
  388MOL0     H51208  10.918   9.126   2.733 -0.9249  1.1972 -0.3830
  388MOL0     H51209  10.974   9.258   2.830 -0.1053 -0.8297 -2.3446
  388MOL0     H51210  11.006   8.971   2.930  1.3582 -0.1876  1.7954
  388MOL0     H51211  11.051   9.115   3.016 -0.9490 -2.7071  1.5700
  388MOL0     H51212  11.220   9.164   2.832  1.9597 -1.1974  0.2201
  388MOL0     H51213  11.249   9.011   2.910 -2.8724 -1.5941  1.9349
  388MOL0     H51214  11.179   8.884   2.528 -3.1193  0.1811 -1.0409
  388MOL0     H51215  10.763   9.412   3.189 -0.5026  2.0757 -0.0235
  388MOL0     H51216  10.569   9.544   3.239  2.7512  0.7716 -1.6490
  389MOL0     O51217   3.149   7.996   4.774 -0.6193 -0.6663  0.2038
  389MOL0     C51218   3.224   8.021   4.677 -0.7996 -0.4985  0.9005
  389MOL0     O51219   3.211   8.134   4.593  0.2502  0.2269  0.1221
  389MOL0     C51220   3.093   8.198   4.578 -0.3830  0.7242 -0.2161
  389MOL0     C51221   2.962   8.150   4.604 -0.2090 -0.1065 -0.3148
  389MOL0     C51222   2.851   8.237   4.588 -0.4999  0.5919  0.2195
  389MOL0     C51223   2.863   8.357   4.516 -0.0211  0.5797 -0.3530
  389MOL0     O51224   2.749   8.427   4.509  1.3317 -0.1257  0.1217
  389MOL0     C51225   2.725   8.506   4.388 -0.3825  0.4037  0.0655
  389MOL0     C51226   2.666   8.428   4.273 -0.2166  0.3316  1.0277
  389MOL0     C51227   2.516   8.390   4.317  0.1865  0.7496 -0.7783
  389MOL0     C51228   2.440   8.322   4.208  0.5312 -0.1021 -0.1409
  389MOL0     C51229   2.320   8.248   4.258  0.0903  0.6610  0.0814
  389MOL0     C51230   2.224   8.185   4.154  0.2394  0.0293 -0.1611
  389MOL0     C51231   2.130   8.298   4.099  0.8699 -0.0316 -0.0473
  389MOL0     C51232   2.032   8.245   3.998 -0.2643  0.9356  1.1669
  389MOL0     N51233   1.925   8.158   4.064 -0.2448 -0.3603  1.0938
  389MOL0     C51234   1.785   8.172   4.032  0.3245  0.1263 -0.4509
  389MOL0     C51235   1.734   8.065   4.100  0.6195  0.4877  0.4378
  389MOL0     C51236   1.593   8.007   4.107 -0.1147  0.2906 -0.2619
  389MOL0     C51237   1.515   8.100   4.190  0.4895 -0.3890 -0.9916
  389MOL0     C51238   1.367   8.092   4.169  0.4521  1.2510  0.2393
  389MOL0     C51239   1.299   7.959   4.180  0.3542  1.3841 -0.4055
  389MOL0     O51240   1.162   7.990   4.169 -0.3163 -0.1756  0.2310
  389MOL0     C51241   1.056   7.905   4.183  0.0497 -0.5502  0.3076
  389MOL0     C51242   0.933   7.956   4.195  0.9198  0.2685  0.0774
  389MOL0     C51243   0.822   7.872   4.198 -0.2546 -0.0676  0.5380
  389MOL0     C51244   0.836   7.729   4.197  0.1134  0.6512  1.1466
  389MOL0     C51245   0.714   7.645   4.189 -0.2610 -0.2430  0.0775
  389MOL0     O51246   0.590   7.713   4.155  0.5488  0.2407  0.3531
  389MOL0     C51247   0.470   7.652   4.176  0.3033  0.1159  0.2096
  389MOL0     C51248   0.431   7.550   4.277 -0.2697 -0.1966  0.4013
  389MOL0     C51249   0.302   7.493   4.289 -0.3315 -0.1009 -0.1887
  389MOL0     C51250   0.195   7.547   4.219  0.7583 -0.1592 -0.1076
  389MOL0     O51251   0.070   7.503   4.256 -0.2230  0.2676 -0.0169
  389MOL0     C51252  -0.049   7.579   4.222 -0.1400 -0.2847 -0.3288
  389MOL0     C51253  -0.165   7.505   4.286  0.5700 -0.1219  0.4290
  389MOL0     C51254  -0.290   7.599   4.296  0.1390  0.0743  0.0931
  389MOL0     C51255  -0.405   7.547   4.391  0.4083 -0.0377  0.3593
  389MOL0     C51256  -0.522   7.646   4.391 -0.2297  0.6353  0.4953
  389MOL0     C51257  -0.625   7.603   4.499  0.0860 -0.3389 -0.2609
  389MOL0     C51258  -0.768   7.643   4.472 -0.4375  0.3402  0.3893
  389MOL0     C51259  -0.871   7.591   4.583 -0.5088 -0.2317  0.6361
  389MOL0    Cl51260  -1.024   7.612   4.520  0.1919  0.1761  0.2033
  389MOL0     C51261   0.227   7.653   4.130 -0.0972 -0.7793  0.1887
  389MOL0     C51262   0.361   7.701   4.107 -0.3866  0.2743  0.8921
  389MOL0     O51263   0.730   7.527   4.211  0.1226  0.1999 -0.0588
  389MOL0     C51264   0.964   7.679   4.192  0.1308  0.2551 -0.3283
  389MOL0     C51265   1.075   7.769   4.187  0.4299  0.2616 -0.5490
  389MOL0     N51266   1.836   7.989   4.161 -0.6276 -0.3344  0.3969
  389MOL0     N51267   1.953   8.041   4.134 -0.5817 -0.5858  0.7658
  389MOL0     C51268   2.992   8.399   4.476  0.0742 -0.4281 -0.5516
  389MOL0     C51269   3.106   8.324   4.512  0.2317 -0.0876  0.1083
  389MOL0     C51270   3.344   7.927   4.651 -0.5679  0.4374  0.1377
  389MOL0     C51271   3.385   7.826   4.740  0.9495 -0.5667  0.1883
  389MOL0     C51272   3.489   7.738   4.709 -0.1887  1.0569 -1.1187
  389MOL0     C51273   3.575   7.756   4.603  0.0973 -0.3743  0.3965
  389MOL0     O51274   3.679   7.671   4.581  0.2136 -0.5500  0.1821
  389MOL0     C51275   3.800   7.741   4.550 -1.5936  0.0328 -0.2992
  389MOL0     C51276   3.917   7.646   4.587  0.1618  0.1373 -0.3130
  389MOL0     C51277   3.914   7.594   4.736 -0.3475  0.5673  0.4168
  389MOL0     C51278   4.049   7.525   4.758 -0.0978  0.3670 -0.4229
  389MOL0     C51279   4.151   7.627   4.784 -0.5785  1.2410 -0.3538
  389MOL0     C51280   4.239   7.711   4.805  0.4832  0.5271  0.4800
  389MOL0     C51281   3.541   7.864   4.518 -0.0259 -0.1099  0.1916
  389MOL0     C51282   3.416   7.933   4.533 -0.2924 -0.1091  0.0795
  389MOL0     H51283   2.942   8.056   4.654 -1.3983  0.8833  1.1541
  389MOL0     H51284   2.749   8.210   4.613 -0.0582 -0.0508  1.3698
  389MOL0     H51285   2.825   8.535   4.356  2.1778 -4.9711  1.9756
  389MOL0     H51286   2.649   8.582   4.409 -0.1188  0.9587 -0.9306
  389MOL0     H51287   2.729   8.347   4.234  0.7094  2.6575 -2.8275
  389MOL0     H51288   2.662   8.498   4.189 -0.1114  0.7417  1.3625
  389MOL0     H51289   2.468   8.484   4.346  0.5484  0.2528  1.6294
  389MOL0     H51290   2.530   8.323   4.402  3.2886 -0.7829 -2.3580
  389MOL0     H51291   2.402   8.401   4.142  1.8797  1.6957  1.1233
  389MOL0     H51292   2.497   8.252   4.148 -0.6127 -0.5766 -0.7115
  389MOL0     H51293   2.265   8.311   4.328 -1.5533 -0.7434  0.1172
  389MOL0     H51294   2.357   8.161   4.313 -2.1845 -0.5893 -0.2402
  389MOL0     H51295   2.181   8.101   4.210  1.9040 -1.3750 -0.9049
  389MOL0     H51296   2.277   8.140   4.070  0.7921  0.4931 -0.0696
  389MOL0     H51297   2.077   8.342   4.184 -1.2789  1.6724 -2.1165
  389MOL0     H51298   2.187   8.376   4.048 -1.2260 -1.2260 -4.8064
  389MOL0     H51299   2.083   8.187   3.920 -0.8492  2.5461 -0.4737
  389MOL0     H51300   1.990   8.332   3.946 -1.8600 -0.1978  0.4889
  389MOL0     H51301   1.732   8.246   3.972  0.1342 -0.7803 -1.4380
  389MOL0     H51302   1.589   7.907   4.154 -4.0797  0.4895  0.1942
  389MOL0     H51303   1.552   8.002   4.006  2.0383 -0.7345 -1.1317
  389MOL0     H51304   1.544   8.201   4.159  0.2525 -0.3595 -1.1212
  389MOL0     H51305   1.533   8.099   4.298 -3.2884  1.7225 -0.1554
  389MOL0     H51306   1.317   8.167   4.230 -1.8293 -1.1403  1.4587
  389MOL0     H51307   1.351   8.125   4.065 -2.0569 -3.4417 -1.1361
  389MOL0     H51308   1.321   7.903   4.271 -1.5220  0.9075 -0.1957
  389MOL0     H51309   1.335   7.898   4.097 -0.7147  1.1706 -0.7271
  389MOL0     H51310   0.912   8.062   4.197 -2.5484 -0.2104 -2.5789
  389MOL0     H51311   0.722   7.913   4.208 -0.7369 -0.7031 -1.3291
  389MOL0     H51312   0.517   7.511   4.330  0.7971  1.1503 -0.2915
  389MOL0     H51313   0.280   7.402   4.344 -0.6009 -1.0566 -1.7917
  389MOL0     H51314  -0.067   7.576   4.114  0.5408  1.8074 -0.5404
  389MOL0     H51315  -0.027   7.682   4.253  0.7712  0.7066 -3.7894
  389MOL0     H51316  -0.135   7.481   4.389  0.8827  0.0268  0.3756
  389MOL0     H51317  -0.192   7.409   4.241 -3.6800 -0.1921  2.6508
  389MOL0     H51318  -0.335   7.609   4.197 -2.4530 -1.0325  1.0880
  389MOL0     H51319  -0.266   7.700   4.331  0.5719  0.0243 -0.0499
  389MOL0     H51320  -0.440   7.448   4.363  0.9135  0.0668 -0.6909
  389MOL0     H51321  -0.365   7.534   4.492  0.3637  0.2852  0.4216
  389MOL0     H51322  -0.568   7.652   4.292 -0.7579 -1.3191  0.5608
  389MOL0     H51323  -0.490   7.743   4.430 -0.6242 -0.1093  2.8547
  389MOL0     H51324  -0.592   7.638   4.597 -0.1334 -0.2826 -0.2063
  389MOL0     H51325  -0.618   7.494   4.501  0.5953 -0.3656 -1.9898
  389MOL0     H51326  -0.759   7.751   4.486 -0.7982  0.3579  0.4871
  389MOL0     H51327  -0.795   7.615   4.370  2.3512  1.7536 -0.8509
  389MOL0     H51328  -0.865   7.642   4.680 -2.8150 -2.6934  2.2036
  389MOL0     H51329  -0.859   7.484   4.596 -0.3604 -1.0296 -4.1462
  389MOL0     H51330   0.155   7.701   4.064 -0.0549  0.1739  0.8166
  389MOL0     H51331   0.380   7.780   4.035  1.6456  1.6440  2.8232
  389MOL0     H51332   0.976   7.572   4.198  0.0539  0.1571 -1.7170
  389MOL0     H51333   1.172   7.721   4.190 -0.9927 -2.9978 -1.3942
  389MOL0     H51334   3.014   8.491   4.422  0.4649 -1.6132 -2.5493
  389MOL0     H51335   3.208   8.352   4.491  0.3275 -2.3152 -3.1840
  389MOL0     H51336   3.332   7.809   4.833 -0.2770  1.0805 -0.1534
  389MOL0     H51337   3.511   7.658   4.779 -1.0034  2.1952  0.5161
  389MOL0     H51338   3.823   7.835   4.600  2.4913 -1.3688  0.8260
  389MOL0     H51339   3.796   7.769   4.444 -0.5259 -0.9224 -0.6086
  389MOL0     H51340   3.915   7.554   4.527  0.4940 -1.0067  1.3296
  389MOL0     H51341   4.009   7.698   4.559 -0.6807 -0.5463 -5.0711
  389MOL0     H51342   3.832   7.524   4.749 -0.9606  0.9771 -0.9959
  389MOL0     H51343   3.899   7.669   4.814  2.0957  1.6172 -0.0379
  389MOL0     H51344   4.036   7.451   4.837 -2.3595  1.0517 -0.0668
  389MOL0     H51345   4.081   7.475   4.666  1.6109  0.9095 -0.1556
  389MOL0     H51346   4.316   7.786   4.800 -0.1602  1.1429 -1.0533
  389MOL0     H51347   3.600   7.879   4.428 -0.5329 -0.9509 -0.2998
  389MOL0     H51348   3.392   8.009   4.460 -0.0916  1.3515  1.4585
  390MOL0     O51349   0.097   9.677   3.705  0.4300  0.1459 -0.5217
  390MOL0     C51350   0.182   9.652   3.791  0.9524 -0.2450  0.0616
  390MOL0     O51351   0.174   9.671   3.928 -0.2314  0.3479  0.4853
  390MOL0     C51352   0.068   9.726   3.992 -0.4368 -0.0903  0.2858
  390MOL0     C51353  -0.061   9.747   3.944  0.2821 -1.2228 -1.2577
  390MOL0     C51354  -0.146   9.808   4.041  0.5419  0.0112 -0.4148
  390MOL0     C51355  -0.115   9.829   4.172  0.4229  0.1801  0.0617
  390MOL0     O51356  -0.215   9.886   4.240 -1.3036  0.9574 -0.5126
  390MOL0     C51357  -0.203   9.892   4.382  0.7410 -0.3971  0.1565
  390MOL0     C51358  -0.324   9.950   4.452 -0.2381 -0.1691 -0.4906
  390MOL0     C51359  -0.452   9.870   4.435  0.9933 -0.1282  0.4208
  390MOL0     C51360  -0.462   9.720   4.464 -0.1721 -0.3233  0.3509
  390MOL0     C51361  -0.425   9.695   4.617 -0.2937 -0.4019 -0.5991
  390MOL0     C51362  -0.441   9.546   4.650 -0.5108  0.7218 -0.5172
  390MOL0     C51363  -0.579   9.477   4.613 -0.0800 -0.1931 -0.8461
  390MOL0     C51364  -0.676   9.522   4.720  0.3496  0.0566  0.7085
  390MOL0     N51365  -0.811   9.495   4.681 -0.4219  0.8525  0.6547
  390MOL0     C51366  -0.915   9.572   4.719  0.4403  0.7267  1.0002
  390MOL0     C51367  -1.022   9.496   4.700  0.5826 -0.2144  0.4020
  390MOL0     C51368  -1.169   9.544   4.703  1.0015  0.7186  0.5417
  390MOL0     C51369  -1.254   9.480   4.811 -0.7895 -0.8098  0.2912
  390MOL0     C51370  -1.214   9.505   4.960  0.3548  0.0654  0.1020
  390MOL0     C51371  -1.327   9.458   5.052 -0.3925 -0.3290 -0.3454
  390MOL0     O51372  -1.446   9.533   5.038  0.1498 -0.4024  0.1666
  390MOL0     C51373  -1.559   9.482   5.094  0.1105 -0.1281 -0.2356
  390MOL0     C51374  -1.558   9.365   5.176  0.0113 -0.5730  0.1021
  390MOL0     C51375  -1.673   9.337   5.242  0.3028 -0.1767  0.1426
  390MOL0     C51376  -1.786   9.422   5.230  1.3290  0.3957 -0.4311
  390MOL0     C51377  -1.915   9.393   5.309 -0.2214 -0.4088  0.4263
  390MOL0     O51378  -2.006   9.487   5.299 -0.5857  0.6005 -0.0458
  390MOL0     C51379  -2.119   9.484   5.380 -0.1862 -0.2953 -0.8181
  390MOL0     C51380  -2.120   9.559   5.500 -0.9728  0.3250  0.2713
  390MOL0     C51381  -2.234   9.568   5.582  0.6309 -0.5553 -0.1311
  390MOL0     C51382  -2.348   9.495   5.549 -0.1979  0.4978  0.0469
  390MOL0     O51383  -2.457   9.504   5.633 -0.3944  0.2111 -0.4060
  390MOL0     C51384  -2.532   9.387   5.659  0.0568 -0.4176 -0.2415
  390MOL0     C51385  -2.582   9.386   5.805  1.3498 -0.3134  0.4638
  390MOL0     C51386  -2.637   9.250   5.845 -0.5141  0.5567 -0.2878
  390MOL0     C51387  -2.679   9.256   5.987  0.3701  0.4008  0.0020
  390MOL0     C51388  -2.733   9.119   6.029 -0.4442 -0.2234  0.2713
  390MOL0     C51389  -2.850   9.123   6.139 -0.6009 -0.5176 -0.2017
  390MOL0     C51390  -2.787   9.134   6.279  0.6004 -0.3841 -0.3036
  390MOL0     C51391  -2.891   9.139   6.390 -1.2569  0.4982 -0.4335
  390MOL0    Cl51392  -2.997   8.991   6.394  0.6849  0.2911  0.3180
  390MOL0     C51393  -2.359   9.431   5.423 -0.5929 -0.8663 -0.4719
  390MOL0     C51394  -2.244   9.420   5.341 -0.1531  0.2247 -0.2462
  390MOL0     O51395  -1.923   9.290   5.373 -0.0857  0.1797 -0.5499
  390MOL0     C51396  -1.785   9.529   5.150  0.6013  0.9209 -0.4951
  390MOL0     C51397  -1.670   9.555   5.086 -0.1221  0.4332  0.1866
  390MOL0     N51398  -0.984   9.369   4.665  0.2414 -0.1503  0.2874
  390MOL0     N51399  -0.859   9.365   4.665 -0.1299 -0.1092 -0.2132
  390MOL0     C51400   0.010   9.797   4.220 -0.6507  0.2255 -0.0890
  390MOL0     C51401   0.098   9.758   4.127  0.0610 -0.6980  0.3323
  390MOL0     C51402   0.306   9.590   3.738  0.0749 -0.3230 -0.6989
  390MOL0     C51403   0.318   9.541   3.609  0.0700  0.3806 -1.2570
  390MOL0     C51404   0.430   9.481   3.559 -0.1335 -0.0837  0.0524
  390MOL0     C51405   0.546   9.462   3.645  0.5491 -0.1793 -0.0607
  390MOL0     O51406   0.654   9.401   3.594  0.2629  0.0140  0.2179
  390MOL0     C51407   0.790   9.431   3.644 -0.1629  0.0357  0.5314
  390MOL0     C51408   0.885   9.434   3.523  0.1153 -0.3363 -0.4729
  390MOL0     C51409   1.038   9.420   3.545  0.9961  0.4564 -0.5929
  390MOL0     C51410   1.129   9.506   3.455 -0.2154 -1.0187 -0.7251
  390MOL0     C51411   1.267   9.470   3.496 -0.3486 -1.0921 -0.6175
  390MOL0     C51412   1.378   9.451   3.546 -0.1617 -0.0260  0.1659
  390MOL0     C51413   0.535   9.510   3.774  0.1835  0.0733 -0.3331
  390MOL0     C51414   0.420   9.571   3.822 -0.4352 -0.4710  0.3521
  390MOL0     H51415  -0.094   9.738   3.841 -3.2228  1.2825 -0.5368
  390MOL0     H51416  -0.242   9.843   4.004 -0.1057 -0.9275  0.3483
  390MOL0     H51417  -0.125   9.965   4.405 -0.4759  1.4831 -1.3308
  390MOL0     H51418  -0.179   9.792   4.420 -3.0093 -1.1883  0.8213
  390MOL0     H51419  -0.335  10.052   4.415  0.3031 -0.5466 -1.7539
  390MOL0     H51420  -0.303   9.959   4.559 -0.8307 -0.7083 -0.3241
  390MOL0     H51421  -0.490   9.884   4.333  0.2694 -2.9545  0.2115
  390MOL0     H51422  -0.526   9.913   4.503  0.3650 -0.0839 -0.2769
  390MOL0     H51423  -0.565   9.684   4.451 -0.6461 -0.0613  2.9377
  390MOL0     H51424  -0.389   9.668   4.401  0.2917  1.4198 -0.6306
  390MOL0     H51425  -0.489   9.752   4.684  3.5246  2.6524  0.8261
  390MOL0     H51426  -0.321   9.728   4.624 -0.5954  0.7016 -1.0853
  390MOL0     H51427  -0.423   9.529   4.757  1.6680  0.7936 -0.8367
  390MOL0     H51428  -0.359   9.490   4.605  0.8492  1.8069  0.5626
  390MOL0     H51429  -0.619   9.503   4.514  3.1645  0.4617 -2.0939
  390MOL0     H51430  -0.572   9.369   4.626 -0.1403  0.0271  1.5303
  390MOL0     H51431  -0.674   9.631   4.732 -0.6658  0.2940 -0.9829
  390MOL0     H51432  -0.669   9.470   4.816 -2.6742  1.2379  1.7003
  390MOL0     H51433  -0.912   9.679   4.738 -0.2299  0.8422  0.5137
  390MOL0     H51434  -1.205   9.510   4.606  3.0466 -1.3831  0.4408
  390MOL0     H51435  -1.170   9.654   4.704 -0.8324  0.9210 -3.6268
  390MOL0     H51436  -1.258   9.372   4.794 -0.1082 -0.7214 -0.4916
  390MOL0     H51437  -1.352   9.526   4.795 -1.2448 -1.3375  1.4426
  390MOL0     H51438  -1.125   9.443   4.976 -0.9038 -2.6609 -2.5899
  390MOL0     H51439  -1.198   9.610   4.986 -1.0200 -0.4455  3.6896
  390MOL0     H51440  -1.287   9.459   5.154 -2.4197 -0.1352  0.4896
  390MOL0     H51441  -1.350   9.355   5.024 -1.4471  0.1996 -1.5058
  390MOL0     H51442  -1.467   9.311   5.197 -0.0032 -1.0815 -1.0707
  390MOL0     H51443  -1.687   9.256   5.314 -0.1837 -0.8885 -0.7309
  390MOL0     H51444  -2.031   9.612   5.532 -1.5506  0.5117  1.6769
  390MOL0     H51445  -2.232   9.629   5.672  0.8967 -0.5123 -0.1661
  390MOL0     H51446  -2.474   9.296   5.642  0.0325 -0.0994 -2.1905
  390MOL0     H51447  -2.616   9.385   5.589  0.7480  0.2755 -1.1173
  390MOL0     H51448  -2.666   9.455   5.799  0.3101 -1.6438 -1.1521
  390MOL0     H51449  -2.507   9.418   5.877  0.0344 -0.2108  1.8333
  390MOL0     H51450  -2.550   9.186   5.830  1.2942  2.6868  0.6604
  390MOL0     H51451  -2.723   9.218   5.785 -0.1888 -0.4358 -0.2355
  390MOL0     H51452  -2.594   9.284   6.049 -1.8030  1.9281  2.4695
  390MOL0     H51453  -2.760   9.326   6.007 -1.5626 -1.6409 -0.1770
  390MOL0     H51454  -2.650   9.053   6.059 -0.4324 -0.3300  0.0027
  390MOL0     H51455  -2.784   9.066   5.948 -1.4387  2.3929 -0.9104
  390MOL0     H51456  -2.912   9.032   6.137 -0.6328 -0.4923 -1.4264
  390MOL0     H51457  -2.918   9.207   6.124  0.6809  1.9784  5.4959
  390MOL0     H51458  -2.718   9.051   6.297  0.9481  0.4383  2.6551
  390MOL0     H51459  -2.729   9.227   6.279  1.3290 -0.8171 -1.5252
  390MOL0     H51460  -2.953   9.226   6.364 -2.2999  0.1073  0.6577
  390MOL0     H51461  -2.841   9.166   6.483 -1.5428 -0.4162 -0.0015
  390MOL0     H51462  -2.455   9.388   5.396 -1.5860 -0.4248  2.0971
  390MOL0     H51463  -2.248   9.375   5.242  1.4400 -0.1394 -0.1754
  390MOL0     H51464  -1.874   9.592   5.146 -0.6774 -0.7922 -0.3261
  390MOL0     H51465  -1.672   9.638   5.015 -1.1471  0.4713  0.2468
  390MOL0     H51466   0.041   9.802   4.323  2.0967 -0.7442 -0.7992
  390MOL0     H51467   0.198   9.739   4.165 -0.4550 -0.7785  1.7200
  390MOL0     H51468   0.241   9.556   3.533  2.1289 -1.3668 -3.8863
  390MOL0     H51469   0.445   9.451   3.456  0.0944 -2.3488  0.6829
  390MOL0     H51470   0.835   9.350   3.702  4.0668  0.5161 -1.6917
  390MOL0     H51471   0.796   9.525   3.698 -0.6355  1.0191 -1.0493
  390MOL0     H51472   0.863   9.348   3.458  0.2813 -1.7369  1.2317
  390MOL0     H51473   0.857   9.527   3.475 -2.9717  0.3993  2.3567
  390MOL0     H51474   1.059   9.318   3.511  1.6831  0.4253 -0.1132
  390MOL0     H51475   1.056   9.436   3.652  0.1146  2.7200 -0.7267
  390MOL0     H51476   1.113   9.498   3.347  1.7764  0.5254 -1.1934
  390MOL0     H51477   1.121   9.611   3.485  1.0624 -0.7205 -1.3707
  390MOL0     H51478   1.483   9.439   3.567  0.1758  0.8056 -0.9702
  390MOL0     H51479   0.620   9.525   3.840 -1.5550  1.5696  1.7134
  390MOL0     H51480   0.428   9.620   3.919 -0.2563 -0.3421  0.2734
  391MOL0     O51481   4.558   3.887   0.226 -0.8585 -0.3752  0.6015
  391MOL0     C51482   4.561   4.012   0.241  0.5700  0.2719  0.5467
  391MOL0     O51483   4.461   4.103   0.208 -0.1309 -0.2684  0.1848
  391MOL0     C51484   4.336   4.055   0.160  0.6321  0.0360  0.2990
  391MOL0     C51485   4.232   4.151   0.189  0.3256  0.1860  0.2721
  391MOL0     C51486   4.097   4.117   0.172 -0.2455  0.3023  0.4551
  391MOL0     C51487   4.055   3.995   0.114  0.5316 -0.5032 -0.5065
  391MOL0     O51488   3.920   3.964   0.124  0.5452  0.4456 -0.5979
  391MOL0     C51489   3.861   3.884   0.015  0.7604  0.3904 -0.1366
  391MOL0     C51490   3.719   3.860   0.052  0.6352 -0.8466 -0.1769
  391MOL0     C51491   3.664   3.741  -0.023 -0.0515 -0.9825 -0.5735
  391MOL0     C51492   3.523   3.699   0.023  0.2963  0.5371  0.1305
  391MOL0     C51493   3.480   3.576  -0.052  0.1696  0.0671 -0.1839
  391MOL0     C51494   3.346   3.536   0.001 -0.6447 -0.9363 -0.8610
  391MOL0     C51495   3.312   3.386  -0.029  0.1015  0.2604  0.3409
  391MOL0     C51496   3.171   3.359   0.011 -0.1746 -0.5114  0.1376
  391MOL0     N51497   3.127   3.231  -0.058  0.0269 -0.4583 -0.2151
  391MOL0     C51498   3.080   3.221  -0.185  0.3817 -0.2270  0.0780
  391MOL0     C51499   3.034   3.087  -0.191 -1.1744  0.3094 -0.0779
  391MOL0     C51500   2.983   3.021  -0.310  0.1180 -0.2394 -0.3174
  391MOL0     C51501   2.840   3.039  -0.343  0.4847  0.2532  0.0663
  391MOL0     C51502   2.804   2.941  -0.456 -0.3690 -0.5145  0.1228
  391MOL0     C51503   2.664   2.971  -0.513  1.0445 -0.5083  0.4475
  391MOL0     O51504   2.582   3.013  -0.408  0.4351  0.4019 -0.0436
  391MOL0     C51505   2.450   3.040  -0.426  0.4972  0.2884  0.3974
  391MOL0     C51506   2.366   3.020  -0.313  0.4695  0.3791 -0.1247
  391MOL0     C51507   2.225   3.011  -0.318 -0.2028 -0.7198  0.6955
  391MOL0     C51508   2.168   3.035  -0.451  0.0823 -0.0577 -0.6087
  391MOL0     C51509   2.032   3.049  -0.466  0.2357 -0.0453 -0.2350
  391MOL0     O51510   1.983   3.128  -0.563  0.2243 -0.8200 -0.3127
  391MOL0     C51511   1.863   3.200  -0.552 -0.0377  0.1972  0.3146
  391MOL0     C51512   1.802   3.251  -0.666  0.2351 -0.5467  0.5001
  391MOL0     C51513   1.672   3.317  -0.668 -0.1450 -0.3220 -0.4257
  391MOL0     C51514   1.602   3.322  -0.547 -0.0888 -0.1304  0.2990
  391MOL0     O51515   1.483   3.389  -0.539  1.1154  0.0358 -0.0351
  391MOL0     C51516   1.385   3.363  -0.644 -0.1643  0.0668 -0.7772
  391MOL0     C51517   1.253   3.410  -0.578 -0.2783  0.0440 -0.3366
  391MOL0     C51518   1.144   3.397  -0.683  0.1914 -0.1138  0.3791
  391MOL0     C51519   1.011   3.443  -0.619  0.0491 -0.1944 -0.5135
  391MOL0     C51520   0.882   3.430  -0.708 -0.7324  0.0667 -1.7256
  391MOL0     C51521   0.851   3.293  -0.759 -0.1034  0.3390  0.6731
  391MOL0     C51522   0.736   3.288  -0.866  0.6238  0.1615 -0.9050
  391MOL0     C51523   0.705   3.144  -0.910 -0.5886  0.4222  0.1986
  391MOL0    Cl51524   0.837   3.084  -1.017 -0.1502  0.1554  0.0916
  391MOL0     C51525   1.661   3.277  -0.427  0.6505 -0.1193  0.3727
  391MOL0     C51526   1.784   3.208  -0.435 -0.4224 -0.1465 -0.2681
  391MOL0     O51527   1.959   2.991  -0.385  0.3311 -0.4611 -0.4957
  391MOL0     C51528   2.256   3.065  -0.560  0.1807  0.3023  0.7547
  391MOL0     C51529   2.393   3.063  -0.548  0.3540 -0.1359  0.1216
  391MOL0     N51530   3.041   3.026  -0.069  0.0466 -0.3042 -0.0225
  391MOL0     N51531   3.106   3.115   0.012  0.0757 -0.9868  0.3198
  391MOL0     C51532   4.158   3.905   0.071  0.3056  0.5685 -0.4690
  391MOL0     C51533   4.297   3.934   0.094  0.9240  0.0451 -0.4578
  391MOL0     C51534   4.681   4.062   0.300 -0.0039 -0.2252  0.7575
  391MOL0     C51535   4.716   4.193   0.271 -0.0879 -0.6186 -0.1426
  391MOL0     C51536   4.836   4.240   0.316 -0.4387 -0.1400 -0.5075
  391MOL0     C51537   4.929   4.164   0.393  0.7022 -0.6611  0.4796
  391MOL0     O51538   5.040   4.227   0.442 -0.7840  0.5582 -0.2274
  391MOL0     C51539   5.162   4.150   0.461 -0.2692  0.1424  0.0994
  391MOL0     C51540   5.230   4.212   0.590  0.0641 -0.3334  0.3579
  391MOL0     C51541   5.375   4.172   0.597 -0.7671  0.4143 -0.6152
  391MOL0     C51542   5.444   4.266   0.693 -0.0538 -0.9729  0.2076
  391MOL0     C51543   5.584   4.257   0.669  0.7370  1.2863  0.5073
  391MOL0     C51544   5.698   4.269   0.631  0.3627 -0.4056 -0.0650
  391MOL0     C51545   4.900   4.031   0.406  0.3140  0.4679  1.0363
  391MOL0     C51546   4.773   3.976   0.365  0.0921 -0.5234 -0.1131
  391MOL0     H51547   4.251   4.251   0.228  2.1632 -0.0152 -0.0160
  391MOL0     H51548   4.022   4.189   0.203 -1.2688 -1.3447  2.0496
  391MOL0     H51549   3.900   3.783   0.005  0.6931  0.3845 -0.3341
  391MOL0     H51550   3.850   3.933  -0.082  1.0518 -0.4808 -0.6193
  391MOL0     H51551   3.662   3.947   0.018  1.2897  0.3762  1.7383
  391MOL0     H51552   3.711   3.840   0.159  1.5823  1.5243  0.3920
  391MOL0     H51553   3.724   3.657   0.011  0.6703  0.8304  3.1538
  391MOL0     H51554   3.674   3.757  -0.131 -2.4851  3.8154 -0.3962
  391MOL0     H51555   3.520   3.677   0.130  1.3748 -0.2611  0.0163
  391MOL0     H51556   3.459   3.785   0.000  1.1512  1.3512  0.7195
  391MOL0     H51557   3.559   3.502  -0.038  0.7929  0.4579 -1.4589
  391MOL0     H51558   3.464   3.580  -0.160  1.3089 -6.0250 -0.9408
  391MOL0     H51559   3.277   3.606  -0.047  1.7165 -0.6333 -4.1432
  391MOL0     H51560   3.336   3.562   0.107  2.0722  0.4599 -0.8445
  391MOL0     H51561   3.327   3.360  -0.134 -1.5167 -2.1210  0.6205
  391MOL0     H51562   3.374   3.323   0.037 -0.5152  0.1694  0.8410
  391MOL0     H51563   3.117   3.445  -0.029 -1.7284 -0.5094  2.0534
  391MOL0     H51564   3.160   3.349   0.120  4.7446 -1.8380  0.7660
  391MOL0     H51565   3.089   3.290  -0.268  3.8819  1.0789  1.3846
  391MOL0     H51566   3.007   2.917  -0.286  2.6999  0.4541  0.4413
  391MOL0     H51567   3.048   3.043  -0.396 -0.1761  3.0667  0.1535
  391MOL0     H51568   2.817   3.142  -0.369 -2.3593 -0.5773 -1.0625
  391MOL0     H51569   2.780   3.016  -0.255 -0.5349  2.6827  0.0679
  391MOL0     H51570   2.877   2.938  -0.537  0.3932  0.5646  0.7343
  391MOL0     H51571   2.809   2.846  -0.401 -0.7184  0.2992  1.6206
  391MOL0     H51572   2.620   2.884  -0.563 -1.1410 -0.1977  1.7329
  391MOL0     H51573   2.672   3.062  -0.575 -1.2035  0.5119  1.5328
  391MOL0     H51574   2.418   2.994  -0.221 -0.0359  0.4379  0.1761
  391MOL0     H51575   2.169   2.997  -0.226 -0.4081 -2.6849  0.3123
  391MOL0     H51576   1.863   3.243  -0.756  0.5814  1.1541  0.5575
  391MOL0     H51577   1.643   3.350  -0.767  1.5433  2.1793 -0.1596
  391MOL0     H51578   1.373   3.256  -0.662 -0.9452  0.1947 -1.0481
  391MOL0     H51579   1.403   3.420  -0.736 -2.0038 -1.4761 -2.1634
  391MOL0     H51580   1.262   3.518  -0.562 -1.3856 -0.0555  1.1605
  391MOL0     H51581   1.233   3.360  -0.483 -1.4262  0.8623 -0.1212
  391MOL0     H51582   1.133   3.299  -0.730  0.5144 -0.4520  1.0071
  391MOL0     H51583   1.172   3.462  -0.767  0.3463  0.1760  0.6518
  391MOL0     H51584   1.003   3.376  -0.532  1.5089  1.3129  0.8537
  391MOL0     H51585   1.023   3.547  -0.590  3.5151 -0.1507 -1.5753
  391MOL0     H51586   0.894   3.502  -0.789 -0.7896 -0.2689 -2.0347
  391MOL0     H51587   0.789   3.469  -0.664 -0.4685  0.0497 -1.1391
  391MOL0     H51588   0.820   3.242  -0.667 -0.2550  0.7140  0.8343
  391MOL0     H51589   0.942   3.246  -0.797 -0.9917 -0.7878 -0.1501
  391MOL0     H51590   0.644   3.335  -0.831 -0.5562 -1.6213 -1.4553
  391MOL0     H51591   0.766   3.348  -0.952 -0.0988  2.6881  0.4973
  391MOL0     H51592   0.602   3.145  -0.945 -0.4142  2.7916 -0.4663
  391MOL0     H51593   0.694   3.085  -0.819 -1.5763  0.6040  0.2027
  391MOL0     H51594   1.601   3.295  -0.338  0.1094 -1.7373  0.3645
  391MOL0     H51595   1.812   3.173  -0.336 -1.1753  2.0971  0.8092
  391MOL0     H51596   2.213   3.082  -0.658  0.5731  0.0480  0.5364
  391MOL0     H51597   2.451   3.084  -0.638  1.8037  0.7217  1.1890
  391MOL0     H51598   4.123   3.806   0.044  1.0191 -0.8781  3.3212
  391MOL0     H51599   4.366   3.852   0.077  1.3582  0.4884 -0.8294
  391MOL0     H51600   4.653   4.259   0.212 -0.9116 -1.7457 -0.5583
  391MOL0     H51601   4.847   4.347   0.299 -1.6565  0.3299  1.3523
  391MOL0     H51602   5.229   4.163   0.376 -0.6294  1.7516  0.0210
  391MOL0     H51603   5.148   4.043   0.479  1.5441 -0.0727  0.4334
  391MOL0     H51604   5.210   4.319   0.596 -1.4762 -0.3362 -2.9822
  391MOL0     H51605   5.180   4.167   0.677  0.7396 -3.2321 -0.6237
  391MOL0     H51606   5.419   4.163   0.497  2.1973  1.1715  0.4978
  391MOL0     H51607   5.388   4.071   0.637  0.5837 -0.4807 -3.1150
  391MOL0     H51608   5.401   4.365   0.675  1.5033 -0.3164 -0.0164
  391MOL0     H51609   5.420   4.241   0.797  0.0759  0.7192  0.6718
  391MOL0     H51610   5.796   4.295   0.598 -0.5101 -0.9973 -3.4951
  391MOL0     H51611   4.962   3.965   0.466  1.0003  2.0230  2.1158
  391MOL0     H51612   4.765   3.868   0.378  1.0767 -0.4731  0.9968
  392MOL0     O51613   8.920   2.894   2.584  0.0503 -0.3945 -0.3231
  392MOL0     C51614   8.955   3.006   2.559  0.9285 -0.3781  1.0165
  392MOL0     O51615   8.893   3.126   2.611 -0.2377  0.6694 -0.7025
  392MOL0     C51616   8.768   3.129   2.656  0.3746  0.4154 -0.1905
  392MOL0     C51617   8.666   3.048   2.611  0.0327 -0.3846  0.6137
  392MOL0     C51618   8.540   3.052   2.669 -0.0909 -0.8191  1.2700
  392MOL0     C51619   8.505   3.155   2.753 -0.3092 -0.2305  0.8991
  392MOL0     O51620   8.377   3.151   2.791  1.0009  1.0198 -0.2184
  392MOL0     C51621   8.316   3.239   2.879 -0.2997 -0.1519 -0.7337
  392MOL0     C51622   8.184   3.176   2.921  0.5340 -0.2616  0.1591
  392MOL0     C51623   8.097   3.261   3.017 -0.8594 -0.2453 -0.5118
  392MOL0     C51624   7.966   3.174   3.049  0.3917 -0.3050  0.5359
  392MOL0     C51625   7.886   3.272   3.144  0.6015  0.0765  0.2256
  392MOL0     C51626   7.773   3.203   3.226 -0.7316 -0.1154 -1.5245
  392MOL0     C51627   7.667   3.153   3.131 -0.9124 -0.7742  0.7174
  392MOL0     C51628   7.591   3.033   3.186 -0.1415  0.2755  0.7160
  392MOL0     N51629   7.472   3.080   3.256  0.5483 -0.0255 -0.0702
  392MOL0     C51630   7.465   3.146   3.375 -0.5196 -0.2966 -0.4574
  392MOL0     C51631   7.349   3.203   3.381 -0.3634 -0.6866  0.2360
  392MOL0     C51632   7.309   3.284   3.496  0.1930 -0.2569  0.1653
  392MOL0     C51633   7.158   3.289   3.517  1.1542 -0.3130  0.0209
  392MOL0     C51634   7.129   3.391   3.628 -0.2999  0.0621 -0.4394
  392MOL0     C51635   6.977   3.401   3.659  0.4684 -0.3593 -0.2393
  392MOL0     O51636   6.955   3.478   3.781  0.0250 -0.2414  0.0668
  392MOL0     C51637   6.846   3.554   3.796  0.1786  0.0883  0.2510
  392MOL0     C51638   6.721   3.515   3.742  0.1152  1.2324  0.4907
  392MOL0     C51639   6.610   3.600   3.761 -0.7015 -0.6542  1.0055
  392MOL0     C51640   6.621   3.735   3.803  0.3084  0.7954  0.5897
  392MOL0     C51641   6.494   3.822   3.800 -0.9303  0.5351  0.4576
  392MOL0     O51642   6.386   3.766   3.748 -0.0762 -0.1360 -0.3961
  392MOL0     C51643   6.270   3.844   3.737 -1.2091  0.4458  0.5729
  392MOL0     C51644   6.247   3.922   3.624 -0.2496  0.6728  0.1402
  392MOL0     C51645   6.125   3.985   3.614  0.6352 -0.0216 -0.4818
  392MOL0     C51646   6.035   3.984   3.721  0.3306 -0.5288  0.3497
  392MOL0     O51647   5.909   4.043   3.714 -0.5531 -0.2191  0.4116
  392MOL0     C51648   5.890   4.179   3.654  0.4547  1.0635  0.6603
  392MOL0     C51649   5.801   4.169   3.534 -0.0046 -0.2838  0.0029
  392MOL0     C51650   5.669   4.100   3.545  1.0336  0.1253 -0.1244
  392MOL0     C51651   5.607   4.084   3.401 -0.5169  0.8918 -0.8785
  392MOL0     C51652   5.462   4.024   3.401  0.6609  0.1573 -0.0355
  392MOL0     C51653   5.408   4.022   3.255  0.1297 -0.0153 -0.1969
  392MOL0     C51654   5.487   3.932   3.161 -0.0402 -0.0786  0.6261
  392MOL0     C51655   5.484   3.787   3.206  0.7666 -0.3929 -0.8428
  392MOL0    Cl51656   5.545   3.673   3.080  0.2050 -0.0223 -0.3251
  392MOL0     C51657   6.072   3.920   3.839 -0.2351 -0.3684 -0.3445
  392MOL0     C51658   6.188   3.850   3.846 -0.0341  0.5170 -0.1431
  392MOL0     O51659   6.501   3.931   3.846  0.2107  0.6570  0.2589
  392MOL0     C51660   6.751   3.775   3.847 -0.1874 -1.5707 -0.1749
  392MOL0     C51661   6.861   3.686   3.841  0.1430  0.0083 -0.1420
  392MOL0     N51662   7.284   3.169   3.274 -0.3886  0.2959 -0.1182
  392MOL0     N51663   7.355   3.098   3.188  0.4008  0.3342 -0.0698
  392MOL0     C51664   8.603   3.252   2.781  0.1374 -0.4789 -0.1571
  392MOL0     C51665   8.731   3.238   2.740  0.0025 -0.4625 -0.0221
  392MOL0     C51666   9.071   3.039   2.467 -0.3772  0.2611 -0.1337
  392MOL0     C51667   9.143   2.937   2.399 -0.3950  0.1687  0.3723
  392MOL0     C51668   9.259   2.974   2.323 -0.1112  0.7606  0.3471
  392MOL0     C51669   9.303   3.106   2.315  0.6026  0.0187 -0.6338
  392MOL0     O51670   9.412   3.160   2.248  0.1762  0.3728 -0.2822
  392MOL0     C51671   9.484   3.078   2.158 -0.4029  0.1125 -0.0584
  392MOL0     C51672   9.522   3.166   2.029 -0.0789  0.1001 -0.3329
  392MOL0     C51673   9.396   3.207   1.964  0.1513  0.4975  0.4077
  392MOL0     C51674   9.408   3.282   1.832 -0.2025 -0.2276 -0.4327
  392MOL0     C51675   9.472   3.196   1.735  0.7267  0.2398 -0.1679
  392MOL0     C51676   9.496   3.096   1.665 -0.6227 -0.2252  0.3174
  392MOL0     C51677   9.231   3.200   2.386  0.6003 -0.0049  0.8651
  392MOL0     C51678   9.118   3.167   2.460 -0.0928 -0.0244  0.4329
  392MOL0     H51679   8.682   2.969   2.538 -0.6648 -0.6143  0.7095
  392MOL0     H51680   8.468   2.989   2.619  0.8360  0.3856 -1.8488
  392MOL0     H51681   8.303   3.337   2.833 -1.5082 -0.6568 -1.5276
  392MOL0     H51682   8.387   3.250   2.962  2.0125  1.4307 -2.7765
  392MOL0     H51683   8.193   3.082   2.976 -4.5952 -1.1835 -0.0989
  392MOL0     H51684   8.130   3.167   2.827  0.2543  5.9242 -0.6827
  392MOL0     H51685   8.077   3.360   2.974  0.5029 -0.0625 -0.7786
  392MOL0     H51686   8.158   3.275   3.107  0.8443  0.8252 -1.7781
  392MOL0     H51687   7.913   3.159   2.954 -0.3706 -0.0134  0.9063
  392MOL0     H51688   7.987   3.081   3.102  0.5845  0.1352  1.2429
  392MOL0     H51689   7.842   3.351   3.082  0.6153 -0.2604 -0.2190
  392MOL0     H51690   7.943   3.320   3.224 -0.4910  2.9822 -0.6283
  392MOL0     H51691   7.734   3.267   3.305  2.7169  0.7700 -0.3501
  392MOL0     H51692   7.812   3.121   3.288 -0.3721  1.8399  1.0038
  392MOL0     H51693   7.604   3.233   3.091  0.7575 -1.8961 -5.2290
  392MOL0     H51694   7.716   3.125   3.037 -0.5660  0.3510  0.5467
  392MOL0     H51695   7.657   2.986   3.259  0.5729  1.5872  0.9470
  392MOL0     H51696   7.569   2.959   3.109  1.2891 -0.5253  1.0387
  392MOL0     H51697   7.545   3.149   3.448  0.4479 -2.9130 -1.2868
  392MOL0     H51698   7.343   3.387   3.480  1.7250 -0.0135  3.9453
  392MOL0     H51699   7.358   3.253   3.589  1.0382 -0.8463 -0.4667
  392MOL0     H51700   7.126   3.190   3.552  0.4591 -0.2611 -0.4429
  392MOL0     H51701   7.102   3.312   3.426  2.7630 -1.3752 -1.2814
  392MOL0     H51702   7.182   3.364   3.720 -2.0243 -0.0557  0.5507
  392MOL0     H51703   7.168   3.488   3.596  2.1638 -1.2209 -1.6778
  392MOL0     H51704   6.942   3.300   3.684  1.8020 -0.7195  0.2724
  392MOL0     H51705   6.927   3.446   3.574  1.2591 -0.5745 -0.8340
  392MOL0     H51706   6.713   3.420   3.690  2.2967  1.6013 -0.6795
  392MOL0     H51707   6.514   3.568   3.722  0.3468 -1.0323 -1.4384
  392MOL0     H51708   6.316   3.917   3.540  0.0079  1.1616  0.3190
  392MOL0     H51709   6.097   4.039   3.524 -0.1120  0.8027  0.2304
  392MOL0     H51710   5.987   4.223   3.634  3.2956 -4.0247  1.5328
  392MOL0     H51711   5.843   4.236   3.735  0.3639  2.4154 -0.3147
  392MOL0     H51712   5.863   4.122   3.457 -1.4483  1.2040 -2.1951
  392MOL0     H51713   5.775   4.271   3.503 -2.4653  0.2067  3.2096
  392MOL0     H51714   5.605   4.153   3.617  1.0089 -1.0963  0.7862
  392MOL0     H51715   5.681   3.998   3.581  0.1343  0.7369  2.0675
  392MOL0     H51716   5.599   4.189   3.369 -0.6192  1.0998 -0.1785
  392MOL0     H51717   5.677   4.020   3.347 -3.5007 -2.9580 -0.6303
  392MOL0     H51718   5.389   4.074   3.465 -0.0430  0.0580 -0.7533
  392MOL0     H51719   5.475   3.920   3.431  1.0145 -0.5112 -2.3413
  392MOL0     H51720   5.416   4.126   3.219  3.2898 -1.2954 -3.8712
  392MOL0     H51721   5.304   3.991   3.259  0.9973 -3.3834 -1.0842
  392MOL0     H51722   5.448   3.934   3.059  4.4729  0.6276 -1.3240
  392MOL0     H51723   5.590   3.965   3.151 -0.5927  3.3149  3.9061
  392MOL0     H51724   5.385   3.754   3.239  1.6587 -3.0023 -0.5156
  392MOL0     H51725   5.548   3.774   3.293 -0.6923  2.3266  0.7642
  392MOL0     H51726   6.005   3.903   3.923  1.3513 -3.0085  0.5322
  392MOL0     H51727   6.211   3.802   3.940  2.0713  2.2251  0.2848
  392MOL0     H51728   6.764   3.871   3.895  1.4704 -2.4039  1.1678
  392MOL0     H51729   6.960   3.719   3.870 -0.7517  1.0672  1.9162
  392MOL0     H51730   8.572   3.333   2.846  2.1201 -0.1825  0.4588
  392MOL0     H51731   8.807   3.314   2.755  1.3790 -1.8622  0.3279
  392MOL0     H51732   9.117   2.832   2.400  2.0160 -0.4849  1.0422
  392MOL0     H51733   9.309   2.894   2.271 -1.1293  1.1353 -1.2818
  392MOL0     H51734   9.426   2.992   2.123 -2.5242  0.6906  1.8223
  392MOL0     H51735   9.578   3.050   2.206 -0.5488 -0.3173 -0.0254
  392MOL0     H51736   9.566   3.255   2.074 -1.0530 -0.1966  1.3051
  392MOL0     H51737   9.600   3.125   1.964  3.2924  2.2298  2.0321
  392MOL0     H51738   9.344   3.278   2.029  1.4434  1.6175  0.2495
  392MOL0     H51739   9.327   3.124   1.943  1.7298 -0.2030 -2.5776
  392MOL0     H51740   9.306   3.311   1.804  0.0515  1.5407  0.3798
  392MOL0     H51741   9.465   3.375   1.840 -1.7479  0.5988  1.6963
  392MOL0     H51742   9.517   3.012   1.603 -1.5521  1.6027 -2.6892
  392MOL0     H51743   9.271   3.300   2.380  0.0729  0.1440 -1.0224
  392MOL0     H51744   9.076   3.236   2.531  3.1084  3.5355 -0.8099
  393MOL0     O51745   7.268   8.736   7.439 -0.6487  0.7449 -0.1639
  393MOL0     C51746   7.292   8.818   7.352 -0.0389  0.3614 -0.3627
  393MOL0     O51747   7.204   8.865   7.254  0.0876  0.1110  0.0792
  393MOL0     C51748   7.079   8.811   7.231 -0.0460 -0.6855 -0.4849
  393MOL0     C51749   7.032   8.823   7.103 -0.0018 -0.6858 -0.1430
  393MOL0     C51750   6.900   8.771   7.063 -0.7143  0.6197  0.2141
  393MOL0     C51751   6.812   8.724   7.159 -0.2435 -0.1987  0.2198
  393MOL0     O51752   6.686   8.700   7.108  0.1865  0.2823 -0.0794
  393MOL0     C51753   6.593   8.652   7.202  0.1999  0.2911 -0.1675
  393MOL0     C51754   6.463   8.648   7.129 -0.1068  0.0877 -0.0917
  393MOL0     C51755   6.453   8.527   7.035  0.2035 -0.2091  0.2259
  393MOL0     C51756   6.363   8.541   6.907  0.4349 -0.2051 -0.1478
  393MOL0     C51757   6.217   8.541   6.932 -0.1421 -0.2224 -0.9382
  393MOL0     C51758   6.147   8.548   6.797 -0.3959  0.3712  0.9143
  393MOL0     C51759   5.997   8.581   6.801  0.1077  0.1849 -0.0345
  393MOL0     C51760   5.926   8.621   6.671 -0.0856  0.9416  0.2724
  393MOL0     N51761   5.792   8.677   6.677 -0.3971 -0.1545 -0.4175
  393MOL0     C51762   5.673   8.618   6.655  0.9244 -0.1117  0.6531
  393MOL0     C51763   5.583   8.718   6.640  0.0274  0.7879  0.5615
  393MOL0     C51764   5.436   8.695   6.619 -0.9808 -0.3689 -0.7318
  393MOL0     C51765   5.354   8.833   6.597  0.5579  0.5160  0.2685
  393MOL0     C51766   5.344   8.899   6.734  0.5331 -0.1140 -0.4148
  393MOL0     C51767   5.371   9.050   6.732  0.0569  0.0414 -0.9884
  393MOL0     O51768   5.391   9.106   6.865  0.3265  0.3617 -0.1745
  393MOL0     C51769   5.503   9.065   6.934 -0.1610 -1.6184  0.1167
  393MOL0     C51770   5.637   9.065   6.878  0.1189  0.9158 -0.5127
  393MOL0     C51771   5.749   9.043   6.959  0.3291 -0.0525 -0.4892
  393MOL0     C51772   5.730   9.041   7.109  0.2067 -0.0599  0.7706
  393MOL0     C51773   5.853   9.015   7.192 -0.1648 -0.4400  0.5858
  393MOL0     O51774   5.965   8.968   7.133  0.3826 -0.6110  0.6087
  393MOL0     C51775   6.083   8.951   7.202  0.7776 -0.4011  0.2908
  393MOL0     C51776   6.203   9.002   7.147 -0.3652  0.0764  1.0701
  393MOL0     C51777   6.318   8.998   7.218  0.2060  0.7029  0.1451
  393MOL0     C51778   6.320   8.950   7.353  0.5147  0.2507 -0.1008
  393MOL0     O51779   6.436   8.931   7.428  0.2596  0.2225 -0.3607
  393MOL0     C51780   6.557   8.998   7.379 -0.7307  0.1331 -0.1117
  393MOL0     C51781   6.672   8.992   7.477 -0.1751 -0.9837  0.7006
  393MOL0     C51782   6.791   9.092   7.432 -1.2221  0.0531 -0.7043
  393MOL0     C51783   6.911   9.091   7.521 -0.5486 -0.4177 -0.6962
  393MOL0     C51784   7.034   9.152   7.449  0.0723 -0.9314  0.5037
  393MOL0     C51785   7.160   9.155   7.538 -0.0217  0.6272  0.4338
  393MOL0     C51786   7.278   9.210   7.463 -0.5286 -1.0233  0.3169
  393MOL0     C51787   7.406   9.230   7.548 -0.2591  0.5878  0.2942
  393MOL0    Cl51788   7.379   9.362   7.670  0.1489 -0.6552  0.2336
  393MOL0     C51789   6.203   8.908   7.414 -0.5450  0.6030 -0.2183
  393MOL0     C51790   6.085   8.903   7.336 -0.5811 -0.1477 -0.3252
  393MOL0     O51791   5.837   9.048   7.306  0.0379  0.1038 -0.4718
  393MOL0     C51792   5.602   9.073   7.161 -0.1100 -0.2746  0.4453
  393MOL0     C51793   5.491   9.081   7.076  0.2427  0.6356  0.2503
  393MOL0     N51794   5.643   8.835   6.659 -0.3931 -0.1992  0.0571
  393MOL0     N51795   5.766   8.811   6.669  0.3995  0.1624 -0.1922
  393MOL0     C51796   6.857   8.723   7.290 -0.7320  0.0133  0.7474
  393MOL0     C51797   6.990   8.756   7.331 -0.4488  0.4836  0.5876
  393MOL0     C51798   7.430   8.885   7.338  0.4085  0.3273 -0.5956
  393MOL0     C51799   7.525   8.864   7.438  0.7517 -0.8432 -0.4880
  393MOL0     C51800   7.646   8.925   7.439  0.1696  0.1978  0.0036
  393MOL0     C51801   7.682   9.021   7.343  1.0157  0.1437 -0.0129
  393MOL0     O51802   7.795   9.103   7.355 -0.6576 -0.0106 -0.9603
  393MOL0     C51803   7.860   9.103   7.488 -0.3057 -0.1821 -0.7712
  393MOL0     C51804   7.917   9.236   7.528 -0.0636 -0.2659  0.4039
  393MOL0     C51805   7.841   9.351   7.467 -0.0536  0.7634 -0.8542
  393MOL0     C51806   7.903   9.487   7.498 -0.1194  0.1204  0.0969
  393MOL0     C51807   7.912   9.525   7.641 -0.5453  1.1229  0.4221
  393MOL0     C51808   7.926   9.567   7.752 -0.3512  0.3752 -0.6746
  393MOL0     C51809   7.581   9.051   7.249 -0.2284 -0.1014  0.0247
  393MOL0     C51810   7.458   8.984   7.243 -0.0667  0.3057  0.4387
  393MOL0     H51811   7.086   8.873   7.023  0.0902 -3.9577 -2.3240
  393MOL0     H51812   6.874   8.776   6.957 -0.5155 -1.0197  0.0698
  393MOL0     H51813   6.587   8.719   7.288  0.3961  0.2555 -0.1250
  393MOL0     H51814   6.621   8.554   7.243  3.0153 -1.0601 -4.5283
  393MOL0     H51815   6.447   8.740   7.071 -0.3979 -0.4113 -0.8250
  393MOL0     H51816   6.380   8.632   7.199 -0.5012 -1.8613 -0.9342
  393MOL0     H51817   6.417   8.439   7.088 -1.1312 -1.0193 -1.8716
  393MOL0     H51818   6.548   8.505   6.985  0.4704  2.6918 -0.7528
  393MOL0     H51819   6.392   8.631   6.851 -2.1845  1.1434  0.5138
  393MOL0     H51820   6.375   8.458   6.837  0.9010  0.3702 -0.7698
  393MOL0     H51821   6.196   8.625   7.000 -1.5515 -1.8816  0.7856
  393MOL0     H51822   6.184   8.462   7.000  0.6668  1.4630  1.5470
  393MOL0     H51823   6.170   8.457   6.741  2.5605  1.7509 -0.3236
  393MOL0     H51824   6.198   8.630   6.745  0.1245  0.0413  0.8996
  393MOL0     H51825   5.942   8.497   6.844 -0.4780  0.6286  0.0895
  393MOL0     H51826   5.975   8.663   6.870 -1.5419  0.6847 -1.1060
  393MOL0     H51827   5.923   8.533   6.607 -3.5073  2.3193 -1.7272
  393MOL0     H51828   5.984   8.690   6.609 -1.2346 -0.9208 -3.1767
  393MOL0     H51829   5.652   8.512   6.646 -1.9267 -0.3393  5.7561
  393MOL0     H51830   5.389   8.634   6.696  0.3930 -0.6772 -0.1132
  393MOL0     H51831   5.435   8.630   6.531 -2.8552 -1.7440  0.2613
  393MOL0     H51832   5.252   8.810   6.565  0.4361 -0.8166  1.5242
  393MOL0     H51833   5.406   8.897   6.526  0.2396 -0.6603 -1.0675
  393MOL0     H51834   5.242   8.886   6.770  1.2947 -2.0699  1.2398
  393MOL0     H51835   5.407   8.849   6.809 -1.3955  0.1708  1.4740
  393MOL0     H51836   5.296   9.110   6.679  0.0527  0.9472  0.0174
  393MOL0     H51837   5.456   9.081   6.670 -0.0504  0.7728 -0.7792
  393MOL0     H51838   5.646   9.067   6.770  1.3433 -0.6739 -0.4776
  393MOL0     H51839   5.845   9.037   6.907 -0.0707  1.5206 -1.4721
  393MOL0     H51840   6.206   9.049   7.049  1.9771  0.5976  1.3407
  393MOL0     H51841   6.408   9.036   7.173 -0.8283  0.6868 -2.0649
  393MOL0     H51842   6.535   9.104   7.361  3.4715  1.0479 -0.9105
  393MOL0     H51843   6.588   8.965   7.279 -0.1505  0.7896 -0.1540
  393MOL0     H51844   6.714   8.891   7.474 -0.4277 -1.1311 -3.6836
  393MOL0     H51845   6.629   9.027   7.571 -0.5878  1.5961 -0.3654
  393MOL0     H51846   6.752   9.194   7.426 -1.8684 -0.0297  1.4585
  393MOL0     H51847   6.823   9.063   7.331 -0.0698 -2.9506  0.4108
  393MOL0     H51848   6.902   9.152   7.611  0.0734  1.0181 -1.5674
  393MOL0     H51849   6.932   8.986   7.541 -1.1101 -1.4138 -4.5269
  393MOL0     H51850   7.011   9.255   7.420 -1.0337 -1.7621 -1.8278
  393MOL0     H51851   7.054   9.114   7.348 -0.1949 -0.7868  0.3958
  393MOL0     H51852   7.184   9.058   7.581  0.8490 -0.1470 -1.6986
  393MOL0     H51853   7.142   9.214   7.629 -0.2142 -0.4476  1.1077
  393MOL0     H51854   7.301   9.156   7.370  2.2600  0.8751 -0.2322
  393MOL0     H51855   7.242   9.300   7.412 -0.3990 -1.6318 -0.8794
  393MOL0     H51856   7.491   9.252   7.483  1.0873  0.4050  1.9297
  393MOL0     H51857   7.441   9.141   7.601 -0.8415  1.5098  2.2791
  393MOL0     H51858   6.211   8.877   7.518 -0.9059 -1.2278 -0.7000
  393MOL0     H51859   5.993   8.879   7.388 -0.5830 -4.0874 -1.7931
  393MOL0     H51860   5.597   9.081   7.269  0.3750  0.2179  0.4340
  393MOL0     H51861   5.394   9.099   7.121  1.2538  1.6190  2.1925
  393MOL0     H51862   6.788   8.680   7.361  0.0425 -0.9705  0.9246
  393MOL0     H51863   7.017   8.748   7.435 -1.9758  0.3516  0.9963
  393MOL0     H51864   7.502   8.818   7.534 -0.1858  2.0887  0.8229
  393MOL0     H51865   7.713   8.892   7.517  2.3492  0.4073 -1.6716
  393MOL0     H51866   7.937   9.026   7.489  0.2105  0.3361 -0.0341
  393MOL0     H51867   7.780   9.080   7.559  0.4965 -3.0784 -0.6787
  393MOL0     H51868   7.924   9.239   7.637 -1.6730 -1.8167  0.6087
  393MOL0     H51869   8.020   9.240   7.491 -0.5577 -0.1923 -1.0449
  393MOL0     H51870   7.740   9.346   7.508 -0.2023  1.5921 -1.0924
  393MOL0     H51871   7.836   9.340   7.358  0.8408 -0.9614 -0.7574
  393MOL0     H51872   8.007   9.466   7.471  0.5144 -1.4079  3.2558
  393MOL0     H51873   7.865   9.570   7.438 -2.7258 -0.4543  0.8553
  393MOL0     H51874   7.943   9.594   7.854  0.0029 -0.9217 -0.3709
  393MOL0     H51875   7.602   9.132   7.179  1.3477 -1.1506 -0.7696
  393MOL0     H51876   7.387   9.003   7.163  1.2334 -0.7225 -1.0209
  394MOL0     O51877   6.803   9.016   2.954  0.3990 -0.3319 -0.2399
  394MOL0     C51878   6.790   8.899   2.919  0.2756 -0.2073 -0.3946
  394MOL0     O51879   6.668   8.825   2.897 -0.1956  0.2345  0.1154
  394MOL0     C51880   6.554   8.907   2.882  0.0815 -0.1748  0.0122
  394MOL0     C51881   6.511   8.919   2.749  0.2181 -0.2959  0.1971
  394MOL0     C51882   6.406   9.005   2.722  0.2790  0.1779  0.1023
  394MOL0     C51883   6.332   9.076   2.814 -0.8947  0.7935 -0.1230
  394MOL0     O51884   6.227   9.159   2.775  0.3563 -0.2510  0.2258
  394MOL0     C51885   6.177   9.242   2.875  0.6222  0.1140  0.7191
  394MOL0     C51886   6.063   9.334   2.816  0.1434 -0.5133 -0.3967
  394MOL0     C51887   5.952   9.252   2.753  0.2114  0.7295  0.6351
  394MOL0     C51888   5.898   9.128   2.837 -0.8102 -0.4220 -0.6413
  394MOL0     C51889   5.781   9.051   2.779  0.2285  0.4291  0.3640
  394MOL0     C51890   5.676   9.142   2.723  0.7424 -0.0612 -0.0096
  394MOL0     C51891   5.554   9.064   2.700  0.6980  0.4941 -0.6521
  394MOL0     C51892   5.569   8.939   2.604 -0.0653 -0.7714 -1.0302
  394MOL0     N51893   5.445   8.858   2.591 -0.6020 -0.5710 -0.0907
  394MOL0     C51894   5.431   8.742   2.658 -0.7751  0.4487 -0.1576
  394MOL0     C51895   5.308   8.691   2.627 -0.0535 -0.8579 -0.2391
  394MOL0     C51896   5.246   8.566   2.683 -0.7306 -0.5061 -0.0456
  394MOL0     C51897   5.311   8.507   2.819  0.0028 -0.2516 -0.5513
  394MOL0     C51898   5.252   8.377   2.878  0.2875  0.5514 -0.4991
  394MOL0     C51899   5.189   8.280   2.777  0.3926 -0.4625 -0.4156
  394MOL0     O51900   5.141   8.158   2.836 -0.5780  0.0143 -0.1388
  394MOL0     C51901   5.134   8.062   2.738 -0.3253 -0.5816  0.1176
  394MOL0     C51902   5.246   7.986   2.720  0.1380  0.6520 -0.6457
  394MOL0     C51903   5.245   7.885   2.621 -0.1793  0.2544  0.2365
  394MOL0     C51904   5.129   7.863   2.538 -0.1668 -0.6650 -0.2127
  394MOL0     C51905   5.134   7.777   2.417 -0.7213 -0.6749  0.4584
  394MOL0     O51906   5.029   7.757   2.328  0.1268  0.0452 -0.5575
  394MOL0     C51907   5.045   7.666   2.226  0.5625 -0.0651 -0.9485
  394MOL0     C51908   5.004   7.712   2.104 -0.1796 -0.4104 -0.4486
  394MOL0     C51909   4.996   7.628   1.994 -0.5694  0.1198 -0.6902
  394MOL0     C51910   5.027   7.494   2.007  0.4155  1.0738  0.3569
  394MOL0     O51911   5.010   7.403   1.896  0.0967 -0.1396 -0.4342
  394MOL0     C51912   5.039   7.262   1.909  0.1528 -0.0217 -0.5933
  394MOL0     C51913   4.984   7.186   1.798  0.1783 -0.4226  0.0938
  394MOL0     C51914   4.833   7.182   1.801  0.1993 -0.4243 -0.6383
  394MOL0     C51915   4.776   7.084   1.700 -0.0722 -0.2155  0.2098
  394MOL0     C51916   4.629   7.112   1.669  0.4146  0.3374  0.0034
  394MOL0     C51917   4.538   7.116   1.788  0.1560 -1.2732  0.5536
  394MOL0     C51918   4.392   7.131   1.751  0.0127 -0.2804 -0.2626
  394MOL0     C51919   4.359   7.250   1.672 -0.0898 -0.1673 -0.1546
  394MOL0    Cl51920   4.197   7.253   1.638  0.2908 -0.3438 -0.5882
  394MOL0     C51921   5.074   7.445   2.132 -0.5717  0.0835  0.2383
  394MOL0     C51922   5.083   7.528   2.246 -0.3227 -0.1413  0.3339
  394MOL0     O51923   5.252   7.734   2.397 -0.2665  0.2623  0.2941
  394MOL0     C51924   5.022   7.944   2.569  0.8290 -0.3649  0.5555
  394MOL0     C51925   5.014   8.035   2.674  0.2883  0.1071 -0.1852
  394MOL0     N51926   5.258   8.782   2.536 -0.4696  0.2786 -0.0838
  394MOL0     N51927   5.341   8.877   2.506  0.0676  0.3831 -0.0544
  394MOL0     C51928   6.373   9.058   2.945  0.0591  0.5365 -0.8960
  394MOL0     C51929   6.481   8.967   2.980  0.8180 -0.2852  0.0242
  394MOL0     C51930   6.912   8.815   2.926  1.1739  0.5168  0.4240
  394MOL0     C51931   6.905   8.680   2.951 -0.3957 -0.5503 -0.1364
  394MOL0     C51932   7.019   8.608   2.969  0.7073  0.8366 -0.1396
  394MOL0     C51933   7.149   8.665   2.983  0.8161  0.0339 -0.4769
  394MOL0     O51934   7.248   8.589   3.029  0.1487 -0.3027 -0.0693
  394MOL0     C51935   7.379   8.648   3.026 -0.4637  0.1622  0.6159
  394MOL0     C51936   7.484   8.530   3.051 -0.5682  0.4949 -0.5038
  394MOL0     C51937   7.622   8.597   3.062  0.0373 -0.0240 -0.5808
  394MOL0     C51938   7.727   8.508   3.130 -0.5667 -0.0500  0.3980
  394MOL0     C51939   7.856   8.545   3.067  0.4581 -0.0668  0.6826
  394MOL0     C51940   7.953   8.572   3.008 -0.4326 -0.3593  0.4217
  394MOL0     C51941   7.155   8.806   2.956  0.4529  0.2287 -0.1004
  394MOL0     C51942   7.035   8.875   2.922 -0.7951 -1.1473 -0.4996
  394MOL0     H51943   6.561   8.871   2.666 -1.5883 -0.1108 -1.0540
  394MOL0     H51944   6.384   9.021   2.617 -2.6096  1.6056  0.8362
  394MOL0     H51945   6.249   9.315   2.911  1.3228 -1.4253  2.6473
  394MOL0     H51946   6.140   9.185   2.961  0.5370 -1.3546 -0.2614
  394MOL0     H51947   6.115   9.403   2.749  1.1456 -0.1055  0.7502
  394MOL0     H51948   6.024   9.388   2.903 -1.1037  1.7628 -2.2615
  394MOL0     H51949   5.982   9.226   2.652  0.2706 -0.5091  0.9559
  394MOL0     H51950   5.871   9.321   2.730 -0.1740 -0.5421 -2.1049
  394MOL0     H51951   5.977   9.059   2.867 -2.9845 -2.0886  1.6171
  394MOL0     H51952   5.863   9.157   2.937  3.5509  0.8288  0.7571
  394MOL0     H51953   5.742   8.973   2.845 -0.1090  0.3433  0.0723
  394MOL0     H51954   5.818   8.986   2.699 -0.8838 -2.0159  1.7472
  394MOL0     H51955   5.706   9.196   2.632 -0.7186 -0.0903 -0.5408
  394MOL0     H51956   5.649   9.212   2.802 -2.6584  0.2024 -1.2291
  394MOL0     H51957   5.509   9.036   2.795 -0.7695  1.3127 -1.0853
  394MOL0     H51958   5.484   9.135   2.655  2.5635  1.0665 -2.8831
  394MOL0     H51959   5.647   8.875   2.645  0.9407  0.4536 -0.9832
  394MOL0     H51960   5.594   8.979   2.505 -1.3457  2.1861 -0.2933
  394MOL0     H51961   5.510   8.702   2.722 -2.0293  0.7428  1.6701
  394MOL0     H51962   5.239   8.497   2.598  1.2087  1.4392 -1.9085
  394MOL0     H51963   5.145   8.593   2.712 -0.1348  0.4366  1.2514
  394MOL0     H51964   5.314   8.586   2.894  1.3875  1.1007 -1.9597
  394MOL0     H51965   5.414   8.480   2.796  0.3694  0.0878  0.6349
  394MOL0     H51966   5.335   8.332   2.932 -0.3001  0.2884  0.2024
  394MOL0     H51967   5.168   8.404   2.943 -2.8633 -2.1670 -3.0364
  394MOL0     H51968   5.264   8.267   2.698  0.6780  0.8633 -0.3812
  394MOL0     H51969   5.103   8.326   2.727  2.3364  1.3097 -2.3042
  394MOL0     H51970   5.329   7.998   2.789  0.5666 -0.9228 -0.8343
  394MOL0     H51971   5.341   7.839   2.600  0.2084  1.0859  0.1332
  394MOL0     H51972   4.968   7.815   2.100 -1.3710 -0.8606 -2.9615
  394MOL0     H51973   4.959   7.667   1.899 -1.6647 -1.9235 -1.1665
  394MOL0     H51974   5.008   7.213   2.002 -0.8648 -1.2265 -1.5371
  394MOL0     H51975   5.147   7.252   1.903  0.4014  1.9784 -0.2705
  394MOL0     H51976   5.017   7.085   1.821 -2.5863 -1.7137 -1.1023
  394MOL0     H51977   5.017   7.220   1.699 -0.8481 -2.1421 -0.8795
  394MOL0     H51978   4.799   7.280   1.767  2.8268  0.7100 -0.2366
  394MOL0     H51979   4.801   7.154   1.902  2.0738  1.1200  0.4535
  394MOL0     H51980   4.825   7.093   1.603  2.7976  1.4133  1.6886
  394MOL0     H51981   4.794   6.980   1.730 -1.6572 -1.3165 -2.2807
  394MOL0     H51982   4.595   7.035   1.598  1.3834  0.7007 -0.8875
  394MOL0     H51983   4.628   7.208   1.617 -0.9901 -0.9608 -2.5938
  394MOL0     H51984   4.573   7.195   1.855  0.8539 -1.7167  0.7097
  394MOL0     H51985   4.548   7.021   1.841  0.7302 -0.7815  1.3397
  394MOL0     H51986   4.354   7.038   1.710  0.2204  0.1683 -1.5053
  394MOL0     H51987   4.332   7.142   1.842 -0.5954  0.1373 -0.7047
  394MOL0     H51988   4.415   7.255   1.579  0.6032  0.5691  0.2856
  394MOL0     H51989   4.385   7.341   1.728 -2.1880 -1.0853  2.5038
  394MOL0     H51990   5.109   7.342   2.138 -0.4838  0.1871  2.7481
  394MOL0     H51991   5.110   7.486   2.342 -2.1600 -0.1534  0.8868
  394MOL0     H51992   4.931   7.921   2.515 -0.7368 -0.0295  2.9231
  394MOL0     H51993   4.928   8.095   2.700  1.0911  1.0302  0.4178
  394MOL0     H51994   6.329   9.109   3.030 -0.4749 -2.0827  0.5033
  394MOL0     H51995   6.514   8.948   3.081  1.7819 -0.4843 -0.3200
  394MOL0     H51996   6.812   8.626   2.964 -0.6996  0.3979  2.1138
  394MOL0     H51997   7.007   8.503   2.997 -0.9506  1.4462  1.6181
  394MOL0     H51998   7.404   8.732   3.092  2.5068 -2.6507  3.4991
  394MOL0     H51999   7.394   8.678   2.922 -2.1243  2.8623  1.0652
  394MOL0     H52000   7.473   8.477   3.146  2.9204 -3.1617 -1.8282
  394MOL0     H52001   7.480   8.459   2.967 -1.7413  1.4234 -1.2704
  394MOL0     H52002   7.617   8.682   3.131 -0.5616 -1.9982  1.9970
  394MOL0     H52003   7.655   8.621   2.961 -1.4919  1.2270 -0.8116
  394MOL0     H52004   7.740   8.513   3.238  1.4256  0.5025  0.1686
  394MOL0     H52005   7.691   8.407   3.106  1.7994 -0.7068 -0.7179
  394MOL0     H52006   8.044   8.585   2.953 -0.3187  1.4637  0.9753
  394MOL0     H52007   7.240   8.872   2.972  0.1105  0.6947 -0.1793
  394MOL0     H52008   7.033   8.980   2.895 -1.7854  0.0344  3.4778
  395MOL0     O52009   4.790   4.826   2.739  0.6488 -0.4548  0.5181
  395MOL0     C52010   4.763   4.785   2.847  1.1307 -0.1828 -0.5555
  395MOL0     O52011   4.650   4.715   2.883 -0.5194 -0.3581  0.7149
  395MOL0     C52012   4.546   4.708   2.794 -0.5622 -0.7641 -0.4106
  395MOL0     C52013   4.490   4.825   2.757  0.2418 -0.3160  0.3525
  395MOL0     C52014   4.385   4.828   2.663  0.3561 -0.2838  0.4384
  395MOL0     C52015   4.349   4.710   2.601 -0.5731  0.6466  0.2831
  395MOL0     O52016   4.269   4.689   2.490 -0.3006  0.5172 -0.2863
  395MOL0     C52017   4.196   4.799   2.439 -0.4875  0.8571  0.6927
  395MOL0     C52018   4.141   4.748   2.302 -1.2453 -0.4049 -0.9665
  395MOL0     C52019   4.042   4.632   2.313  0.4735  1.1327  0.0246
  395MOL0     C52020   3.934   4.649   2.423 -0.3445 -0.2027 -0.2008
  395MOL0     C52021   3.815   4.564   2.400  0.2117  0.3523 -0.0841
  395MOL0     C52022   3.693   4.597   2.493  0.3925 -0.1408 -0.0014
  395MOL0     C52023   3.593   4.473   2.516 -0.2675  0.1275  0.7393
  395MOL0     C52024   3.532   4.426   2.388  0.6881 -0.3554 -0.3675
  395MOL0     N52025   3.454   4.535   2.339 -0.3880 -0.3555  0.4615
  395MOL0     C52026   3.348   4.606   2.408 -0.1438 -0.8783  0.1012
  395MOL0     C52027   3.297   4.690   2.312 -0.2153 -0.0700  0.7531
  395MOL0     C52028   3.183   4.799   2.312  0.3554  0.5162 -0.5164
  395MOL0     C52029   3.053   4.761   2.235  0.0912  0.2148 -0.2635
  395MOL0     C52030   2.930   4.846   2.268  0.6577 -0.1802 -0.5470
  395MOL0     C52031   2.932   4.998   2.222  0.5613  0.4215  0.2594
  395MOL0     O52032   2.842   5.069   2.312  0.1356  0.8400  0.5142
  395MOL0     C52033   2.877   5.131   2.432 -0.0255  0.3542  0.0840
  395MOL0     C52034   3.010   5.132   2.478  0.0445 -0.0458  0.6233
  395MOL0     C52035   3.041   5.174   2.604  0.8379 -1.1639 -0.3728
  395MOL0     C52036   2.935   5.222   2.684  0.5134 -0.1996  0.2640
  395MOL0     C52037   2.965   5.281   2.815  0.7194  0.3290  0.0189
  395MOL0     O52038   3.091   5.289   2.866  0.4286 -0.1362 -0.3227
  395MOL0     C52039   3.117   5.336   2.994 -0.7953 -0.6797 -0.2370
  395MOL0     C52040   3.223   5.414   3.015 -0.4643 -0.2979  1.3681
  395MOL0     C52041   3.247   5.480   3.134 -0.1075  0.8250 -0.3067
  395MOL0     C52042   3.156   5.469   3.244 -0.0099 -0.8044  0.4174
  395MOL0     O52043   3.171   5.539   3.366 -0.3724  0.0729 -0.8420
  395MOL0     C52044   3.285   5.616   3.376 -0.6159 -0.8343 -1.1855
  395MOL0     C52045   3.283   5.676   3.518 -0.5552 -0.1216 -0.2861
  395MOL0     C52046   3.398   5.779   3.545  0.4141  0.2770 -0.0895
  395MOL0     C52047   3.470   5.781   3.680 -0.1230 -0.1199 -0.0115
  395MOL0     C52048   3.553   5.649   3.693  0.0331  0.2229  0.1410
  395MOL0     C52049   3.600   5.629   3.833  0.3864  1.2325  0.0386
  395MOL0     C52050   3.700   5.512   3.832  0.1949 -0.3646 -0.8725
  395MOL0     C52051   3.625   5.385   3.845 -0.2146  1.0209  0.3163
  395MOL0    Cl52052   3.730   5.268   3.761  0.3076 -0.3216  0.0815
  395MOL0     C52053   3.051   5.390   3.229  0.5210  0.4003  0.2017
  395MOL0     C52054   3.031   5.323   3.109 -0.2789 -0.8789  0.5456
  395MOL0     O52055   2.870   5.338   2.869 -0.1470  0.0146  0.0851
  395MOL0     C52056   2.808   5.226   2.638  0.0338 -1.0686  0.1789
  395MOL0     C52057   2.774   5.192   2.505  0.5199 -0.1553 -1.1446
  395MOL0     N52058   3.360   4.664   2.193  1.0054  0.7760  0.2319
  395MOL0     N52059   3.450   4.574   2.209 -0.1690  0.6163 -0.6927
  395MOL0     C52060   4.410   4.594   2.638  0.0537  0.1792  0.3741
  395MOL0     C52061   4.505   4.588   2.731  0.7917 -0.1947  0.1273
  395MOL0     C52062   4.875   4.794   2.943 -1.2802 -0.0937  0.6764
  395MOL0     C52063   4.987   4.872   2.915 -0.4497 -0.0568  0.3247
  395MOL0     C52064   5.094   4.875   3.001  0.1603  0.6447 -0.5608
  395MOL0     C52065   5.091   4.791   3.109 -0.3366 -0.0805 -0.2837
  395MOL0     O52066   5.192   4.773   3.210  0.7629  0.0861 -0.6728
  395MOL0     C52067   5.292   4.875   3.223  0.8809  0.2244 -0.3144
  395MOL0     C52068   5.383   4.839   3.339  0.4332 -0.2872  0.2346
  395MOL0     C52069   5.313   4.828   3.474  0.1120 -0.0623  0.1846
  395MOL0     C52070   5.254   4.964   3.518  0.0886  0.1506  0.1167
  395MOL0     C52071   5.349   5.057   3.579 -0.4910  0.6521 -1.0035
  395MOL0     C52072   5.417   5.144   3.630 -0.8220  1.6870  0.1635
  395MOL0     C52073   4.986   4.716   3.146  0.9214  0.2937 -0.4855
  395MOL0     C52074   4.871   4.714   3.054 -0.2557 -0.0988 -0.0730
  395MOL0     H52075   4.510   4.918   2.808 -1.4215 -0.3949  1.2036
  395MOL0     H52076   4.343   4.918   2.620  0.4966 -0.7108 -0.6288
  395MOL0     H52077   4.255   4.891   2.432 -1.4697  1.3667 -1.6325
  395MOL0     H52078   4.112   4.819   2.506 -1.9878 -1.7415 -0.2917
  395MOL0     H52079   4.225   4.710   2.243  0.3798  2.2354 -0.5375
  395MOL0     H52080   4.093   4.825   2.241 -1.2104 -0.6145 -1.2582
  395MOL0     H52081   4.090   4.536   2.330 -0.2742  0.8957  0.8808
  395MOL0     H52082   3.994   4.634   2.214 -0.0496 -0.9049  0.1902
  395MOL0     H52083   3.972   4.630   2.524 -0.5634  0.0247 -0.0745
  395MOL0     H52084   3.889   4.749   2.425  0.3907  0.1672 -0.9851
  395MOL0     H52085   3.847   4.460   2.415  1.9422  0.9809  0.8546
  395MOL0     H52086   3.778   4.572   2.298 -1.0039 -0.8957  0.2233
  395MOL0     H52087   3.649   4.684   2.445  1.6375  0.5449  0.0507
  395MOL0     H52088   3.733   4.623   2.592  0.0951 -0.3576  0.1789
  395MOL0     H52089   3.650   4.391   2.560 -2.8359 -0.9010  2.3067
  395MOL0     H52090   3.518   4.496   2.592  0.8417  1.3202  1.5258
  395MOL0     H52091   3.462   4.342   2.398 -2.5508  2.1502 -0.4469
  395MOL0     H52092   3.608   4.398   2.315  2.1712 -0.1576  1.0438
  395MOL0     H52093   3.307   4.589   2.507 -2.1070 -0.1805 -0.5467
  395MOL0     H52094   3.221   4.895   2.278 -0.7000  1.1613  0.0567
  395MOL0     H52095   3.142   4.817   2.412 -1.6860  0.7249 -1.3491
  395MOL0     H52096   3.029   4.657   2.257  0.3138 -0.0413 -1.1664
  395MOL0     H52097   3.065   4.763   2.126 -2.0252  1.9345 -0.5422
  395MOL0     H52098   2.839   4.802   2.225  0.6284  1.0703 -1.8247
  395MOL0     H52099   2.918   4.839   2.377 -0.2622 -1.6653 -0.7061
  395MOL0     H52100   2.894   5.008   2.120  0.3911  0.5558  0.3365
  395MOL0     H52101   3.035   5.035   2.229  1.0915 -0.9498  0.0045
  395MOL0     H52102   3.085   5.087   2.414 -1.2349 -0.7999 -0.4100
  395MOL0     H52103   3.145   5.161   2.633  0.3291 -1.7606  1.2646
  395MOL0     H52104   3.285   5.437   2.930 -1.8779  0.1123  0.4099
  395MOL0     H52105   3.343   5.529   3.140  0.4150  0.1737 -2.2766
  395MOL0     H52106   3.291   5.706   3.314  1.3049  0.1068  0.2575
  395MOL0     H52107   3.373   5.556   3.352  0.0878  0.1620 -1.1837
  395MOL0     H52108   3.297   5.590   3.583  2.7137  0.5980  0.1402
  395MOL0     H52109   3.184   5.720   3.533 -0.9385 -1.7509  2.5209
  395MOL0     H52110   3.343   5.872   3.525 -1.3631 -0.2982  1.7545
  395MOL0     H52111   3.466   5.773   3.460 -0.8839  0.8335 -1.2187
  395MOL0     H52112   3.548   5.858   3.676 -0.0956 -0.1466  0.0187
  395MOL0     H52113   3.400   5.797   3.763  0.2710 -0.6311  0.4221
  395MOL0     H52114   3.628   5.658   3.614 -0.6769  0.7399 -0.4926
  395MOL0     H52115   3.491   5.563   3.665 -1.6487  2.0673 -2.3514
  395MOL0     H52116   3.508   5.610   3.889  0.8016  1.7447  0.9273
  395MOL0     H52117   3.648   5.722   3.866 -2.1174  1.4507  3.6712
  395MOL0     H52118   3.771   5.513   3.749  1.4417 -2.2583  0.1032
  395MOL0     H52119   3.776   5.525   3.910  3.0503  1.7162 -3.7234
  395MOL0     H52120   3.524   5.387   3.803  1.4357  2.2908 -4.2306
  395MOL0     H52121   3.609   5.369   3.952  1.2251  1.2318  0.5888
  395MOL0     H52122   2.983   5.359   3.307  0.8531  2.3584  1.3550
  395MOL0     H52123   2.940   5.263   3.102 -2.0639  1.6720  0.7547
  395MOL0     H52124   2.724   5.272   2.689  0.5252  2.0140 -1.5887
  395MOL0     H52125   2.672   5.202   2.470  1.0253  1.8219 -2.2178
  395MOL0     H52126   4.389   4.498   2.592 -2.0131 -0.5227  2.5900
  395MOL0     H52127   4.548   4.494   2.764 -1.0501 -0.3659  2.2629
  395MOL0     H52128   4.996   4.926   2.821 -1.3557  2.4289  1.5748
  395MOL0     H52129   5.183   4.929   2.970  0.6832 -0.2249 -0.5937
  395MOL0     H52130   5.237   4.966   3.248 -2.1209 -0.8766 -2.2972
  395MOL0     H52131   5.349   4.890   3.130  3.3943 -2.2326  0.6933
  395MOL0     H52132   5.433   4.745   3.314 -0.0491 -0.3886 -0.3660
  395MOL0     H52133   5.460   4.917   3.340  2.6764 -2.2734 -2.1122
  395MOL0     H52134   5.372   4.780   3.553 -0.4094 -1.8617 -0.4904
  395MOL0     H52135   5.229   4.760   3.465  0.7878 -0.8163 -0.5476
  395MOL0     H52136   5.213   5.021   3.434  2.2635 -2.0834 -2.6325
  395MOL0     H52137   5.174   4.943   3.590 -0.3498 -1.5381 -0.8176
  395MOL0     H52138   5.478   5.214   3.684  0.2027  0.7105  0.3109
  395MOL0     H52139   4.991   4.645   3.228  0.6987 -0.3548 -1.0220
  395MOL0     H52140   4.792   4.640   3.063 -0.3266 -0.0510 -0.3102
  396MOL0     O52141   1.702   3.850  10.111 -0.6045 -0.0415 -0.2996
  396MOL0     C52142   1.763   3.742  10.142 -1.0695  0.1851  0.7458
  396MOL0     O52143   1.701   3.632  10.191 -0.5737 -0.3793  0.1793
  396MOL0     C52144   1.566   3.632  10.178  0.0225  0.3445  1.3735
  396MOL0     C52145   1.495   3.563  10.075 -0.5272 -0.5602 -0.1863
  396MOL0     C52146   1.357   3.559  10.066 -0.4755 -0.4008  0.5102
  396MOL0     C52147   1.281   3.618  10.166  1.0618  0.2145  0.6189
  396MOL0     O52148   1.143   3.611  10.178  0.0499  0.7462 -0.3219
  396MOL0     C52149   1.057   3.597  10.064 -0.6722  1.0434 -0.4844
  396MOL0     C52150   0.920   3.573  10.123  1.0667  0.0508 -0.8868
  396MOL0     C52151   0.801   3.582  10.016 -0.0623 -0.0117  0.6257
  396MOL0     C52152   0.801   3.686   9.900  0.0764 -0.3490  0.6159
  396MOL0     C52153   0.702   3.670   9.791  0.7457 -0.1481  0.3020
  396MOL0     C52154   0.561   3.729   9.820  0.3650  0.0608  0.3351
  396MOL0     C52155   0.463   3.677   9.716 -0.0355  0.2662  0.5478
  396MOL0     C52156   0.328   3.730   9.745 -0.5139 -0.3075 -0.8625
  396MOL0     N52157   0.274   3.674   9.875  0.0736  0.6666 -0.1333
  396MOL0     C52158   0.218   3.550   9.899 -0.1223 -0.7634 -1.6019
  396MOL0     C52159   0.162   3.563  10.022  0.8886 -0.5071 -0.0163
  396MOL0     C52160   0.061   3.471  10.100 -1.0738 -0.3179 -0.2443
  396MOL0     C52161  -0.088   3.487  10.068  1.0085 -0.0128 -0.7903
  396MOL0     C52162  -0.127   3.626  10.114 -0.3506 -0.2411  0.6565
  396MOL0     C52163  -0.282   3.647  10.132 -0.1273  0.3845  0.2350
  396MOL0     O52164  -0.322   3.781  10.123 -0.2097 -0.4399 -1.1260
  396MOL0     C52165  -0.445   3.817  10.161 -0.5215  0.1898  0.0061
  396MOL0     C52166  -0.480   3.945  10.139  0.5840  0.1600  0.0461
  396MOL0     C52167  -0.606   4.001  10.173  0.1362 -0.5319 -0.4091
  396MOL0     C52168  -0.707   3.913  10.218 -0.4640 -0.5025  0.3011
  396MOL0     C52169  -0.843   3.947  10.256 -0.5055 -0.1871  0.1885
  396MOL0     O52170  -0.882   4.078  10.255  0.5184 -0.5785 -1.0993
  396MOL0     C52171  -1.013   4.113  10.253  0.0380 -0.2796 -0.6712
  396MOL0     C52172  -1.128   4.036  10.214  0.4589  0.6043  0.6743
  396MOL0     C52173  -1.262   4.090  10.218 -0.0902 -0.1244 -0.2331
  396MOL0     C52174  -1.291   4.209  10.276 -0.1213 -0.2645 -0.0650
  396MOL0     O52175  -1.424   4.246  10.292  0.0347  0.1411  0.0834
  396MOL0     C52176  -1.465   4.386  10.308 -0.4490  0.1686 -0.2458
  396MOL0     C52177  -1.529   4.409  10.442  0.1965 -0.2693  0.0955
  396MOL0     C52178  -1.639   4.303  10.469 -0.3377  0.0076 -0.4564
  396MOL0     C52179  -1.713   4.359  10.590  0.1211  0.0954  0.2880
  396MOL0     C52180  -1.801   4.259  10.673  0.0629 -0.2334  0.1969
  396MOL0     C52181  -1.891   4.334  10.776  1.4978  0.1190 -0.3503
  396MOL0     C52182  -1.948   4.250  10.895 -0.1687 -0.2803  0.4409
  396MOL0     C52183  -2.082   4.318  10.952 -0.5536  0.1923  0.7692
  396MOL0    Cl52184  -2.140   4.220  11.090  0.0739 -0.1665 -0.1585
  396MOL0     C52185  -1.177   4.284  10.323 -0.6236  0.6911  0.2856
  396MOL0     C52186  -1.040   4.243  10.306  0.0225  1.3014  0.1790
  396MOL0     O52187  -0.922   3.852  10.271 -0.2323 -0.0566 -0.8453
  396MOL0     C52188  -0.668   3.775  10.234  0.8023  0.0084  0.2600
  396MOL0     C52189  -0.543   3.732  10.207 -0.1983 -0.1070  0.1905
  396MOL0     N52190   0.197   3.681  10.076 -0.4475  0.0641  0.3396
  396MOL0     N52191   0.264   3.749   9.986 -0.4045  1.3095  0.1855
  396MOL0     C52192   1.346   3.686  10.271  0.0367 -0.2949 -0.3334
  396MOL0     C52193   1.483   3.689  10.279 -0.8282 -0.1272 -0.2799
  396MOL0     C52194   1.907   3.742  10.128  0.1505  0.0371  0.3544
  396MOL0     C52195   1.980   3.642  10.189 -0.2608  0.0216  0.3450
  396MOL0     C52196   2.118   3.647  10.178  0.0881  0.6120  0.0631
  396MOL0     C52197   2.187   3.760  10.119 -0.0992  0.3633 -0.0478
  396MOL0     O52198   2.325   3.762  10.099  0.3300 -0.3183  0.3269
  396MOL0     C52199   2.397   3.652  10.152 -0.4618  0.4385 -0.4761
  396MOL0     C52200   2.545   3.688  10.117  0.8270  0.1784  0.2531
  396MOL0     C52201   2.642   3.590  10.170  0.6471  0.0926  0.3593
  396MOL0     C52202   2.768   3.658  10.213 -0.4215  0.4695 -0.5146
  396MOL0     C52203   2.860   3.684  10.095  0.3586 -0.0304 -0.6573
  396MOL0     C52204   2.939   3.719  10.010  0.3641  0.8256  0.4196
  396MOL0     C52205   2.113   3.870  10.079  0.7156  0.8565 -0.4131
  396MOL0     C52206   1.974   3.857  10.071  0.0364  0.2537  0.5761
  396MOL0     H52207   1.562   3.514  10.005 -0.2149  0.8583 -0.9132
  396MOL0     H52208   1.309   3.521   9.977 -1.4481  0.3696  0.6888
  396MOL0     H52209   1.096   3.515  10.003 -0.8891  1.7034 -1.5446
  396MOL0     H52210   1.066   3.686  10.000  3.3727  1.6513  0.6389
  396MOL0     H52211   0.903   3.661  10.185 -1.0209 -1.3217  0.6373
  396MOL0     H52212   0.910   3.484  10.186  2.0436  0.7973  0.3803
  396MOL0     H52213   0.703   3.594  10.063 -0.0532 -1.8891  1.2239
  396MOL0     H52214   0.799   3.480   9.977 -0.2729 -0.8482  2.7238
  396MOL0     H52215   0.787   3.784   9.946  2.0589  0.4245 -0.3212
  396MOL0     H52216   0.901   3.683   9.856  0.5016  0.2699  1.5289
  396MOL0     H52217   0.695   3.567   9.753 -0.7658 -0.6267  1.7400
  396MOL0     H52218   0.733   3.724   9.701 -0.7334 -1.0158 -0.7898
  396MOL0     H52219   0.563   3.838   9.828  0.5435  0.0724  0.1626
  396MOL0     H52220   0.530   3.694   9.919  0.9522 -1.3107  0.0510
  396MOL0     H52221   0.488   3.722   9.619 -1.2450  1.9651  0.9761
  396MOL0     H52222   0.451   3.569   9.703 -1.3333  0.6370 -1.9925
  396MOL0     H52223   0.255   3.707   9.667 -0.6485  1.3400 -1.2605
  396MOL0     H52224   0.335   3.839   9.752  2.0599 -0.4925  2.6808
  396MOL0     H52225   0.199   3.475   9.824 -2.5894 -2.9998  1.0380
  396MOL0     H52226   0.082   3.488  10.206  1.7610  2.7329 -1.1430
  396MOL0     H52227   0.076   3.364  10.079 -0.6596 -0.3597  0.2326
  396MOL0     H52228  -0.146   3.415  10.125 -0.1501 -0.7981 -2.8761
  396MOL0     H52229  -0.110   3.468   9.962  2.9855  0.4216 -1.3236
  396MOL0     H52230  -0.072   3.651  10.205 -0.7687  0.8060  0.6395
  396MOL0     H52231  -0.100   3.704  10.043  0.6626 -0.3017  0.9500
  396MOL0     H52232  -0.319   3.590  10.218  1.6134 -1.2721 -0.0540
  396MOL0     H52233  -0.331   3.606  10.043 -0.4385  1.2198  0.0082
  396MOL0     H52234  -0.400   4.014  10.115  0.1662  0.6833  0.1185
  396MOL0     H52235  -0.625   4.108  10.182 -0.5912 -0.6084 -0.8966
  396MOL0     H52236  -1.115   3.941  10.165 -2.7679  1.4426 -2.2381
  396MOL0     H52237  -1.339   4.026  10.177 -0.1837  0.0387 -0.3148
  396MOL0     H52238  -1.530   4.418  10.225  0.4078  2.8427  0.0222
  396MOL0     H52239  -1.382   4.457  10.311  0.3538 -0.7630  0.3844
  396MOL0     H52240  -1.578   4.507  10.445 -0.0331 -0.3913  2.8237
  396MOL0     H52241  -1.451   4.398  10.517  2.0663 -6.1865 -2.1082
  396MOL0     H52242  -1.601   4.205  10.499  1.1769  0.9836  0.9900
  396MOL0     H52243  -1.701   4.288  10.380 -0.0395  1.2359 -0.8930
  396MOL0     H52244  -1.641   4.383  10.669 -0.4856 -0.7104  1.1213
  396MOL0     H52245  -1.763   4.451  10.561  2.1380  1.4578  0.9449
  396MOL0     H52246  -1.726   4.195  10.722  0.5713  0.4691  0.3555
  396MOL0     H52247  -1.866   4.204  10.604 -1.6681  0.1601  1.4489
  396MOL0     H52248  -1.977   4.374  10.722  1.2114 -0.9324 -0.7072
  396MOL0     H52249  -1.832   4.415  10.821  1.1222 -0.2028  0.7562
  396MOL0     H52250  -1.971   4.151  10.856  0.0447 -0.4803  0.8146
  396MOL0     H52251  -1.869   4.232  10.969  0.6500 -0.3130 -0.4363
  396MOL0     H52252  -2.163   4.312  10.879 -2.6093  0.1552  2.9367
  396MOL0     H52253  -2.053   4.420  10.976  0.8846  0.3849 -1.4920
  396MOL0     H52254  -1.197   4.378  10.373 -1.0125  1.0932 -0.6025
  396MOL0     H52255  -0.958   4.307  10.337  2.2515 -0.1211 -2.3037
  396MOL0     H52256  -0.730   3.695  10.272  2.3677 -1.8429 -0.9356
  396MOL0     H52257  -0.520   3.627  10.222 -0.7201 -0.6623 -2.3339
  396MOL0     H52258   1.296   3.723  10.360  2.1339  0.6214  0.5457
  396MOL0     H52259   1.528   3.735  10.366  0.2057 -0.0265 -0.8458
  396MOL0     H52260   1.935   3.567  10.253  1.1804  0.6787  2.2306
  396MOL0     H52261   2.164   3.563  10.231 -0.7089  0.2597  0.2071
  396MOL0     H52262   2.380   3.550  10.117  1.5008  0.3521 -1.3439
  396MOL0     H52263   2.377   3.654  10.259 -0.0487  1.1647 -0.4034
  396MOL0     H52264   2.554   3.703  10.009 -0.7008  1.5664  0.2841
  396MOL0     H52265   2.558   3.786  10.162 -0.9218  0.1091  0.9860
  396MOL0     H52266   2.656   3.505  10.102  2.5284 -0.1946  1.0322
  396MOL0     H52267   2.596   3.546  10.259  0.3239 -4.7348 -1.8588
  396MOL0     H52268   2.757   3.752  10.269  1.4972 -0.4818  1.6202
  396MOL0     H52269   2.819   3.585  10.276 -0.9279 -0.4561 -1.1610
  396MOL0     H52270   3.008   3.751   9.934 -0.1100  0.8848  0.0134
  396MOL0     H52271   2.157   3.963  10.045  2.4832  0.5581  0.9320
  396MOL0     H52272   1.919   3.936  10.020  1.1715  1.0785  0.5929
  397MOL0     O52273   9.049   8.939   0.959  0.1720 -0.0557 -0.2891
  397MOL0     C52274   9.117   8.838   0.969  0.2165  0.3067  0.3590
  397MOL0     O52275   9.078   8.721   1.031 -0.2835  0.4027 -0.5909
  397MOL0     C52276   8.955   8.725   1.086 -0.9940 -0.0995 -0.1108
  397MOL0     C52277   8.949   8.741   1.224  0.1679 -0.3917 -0.2252
  397MOL0     C52278   8.830   8.734   1.293  0.6149 -0.6661  0.0299
  397MOL0     C52279   8.708   8.723   1.223  0.6766  0.8567 -0.0343
  397MOL0     O52280   8.602   8.717   1.301  0.4509  0.1960 -0.2606
  397MOL0     C52281   8.472   8.705   1.242 -0.2058  1.3234 -0.4768
  397MOL0     C52282   8.360   8.726   1.349 -0.1841  0.2272  0.4636
  397MOL0     C52283   8.229   8.778   1.293 -0.1772  0.1198  0.0134
  397MOL0     C52284   8.111   8.737   1.380 -0.8730 -0.2446 -0.1129
  397MOL0     C52285   7.980   8.787   1.314 -0.4708 -0.1383  1.1343
  397MOL0     C52286   7.866   8.787   1.417  0.8569  0.6293  0.4325
  397MOL0     C52287   7.734   8.828   1.361  0.5345  0.0951  0.3729
  397MOL0     C52288   7.622   8.841   1.462  0.2516  0.5030  0.4685
  397MOL0     N52289   7.498   8.870   1.390  0.1576  0.3995 -0.1430
  397MOL0     C52290   7.408   8.780   1.342  0.3227 -0.5778 -0.0965
  397MOL0     C52291   7.302   8.849   1.304  0.0778 -0.6416 -0.1712
  397MOL0     C52292   7.186   8.783   1.228  0.0917  0.6228  0.3877
  397MOL0     C52293   7.078   8.886   1.195  1.2244 -0.0746 -1.0192
  397MOL0     C52294   6.937   8.821   1.178 -0.1615 -0.0358  0.1878
  397MOL0     C52295   6.846   8.909   1.111  0.5963  0.6600 -0.7553
  397MOL0     O52296   6.714   8.854   1.143 -0.1629  0.2088 -0.2467
  397MOL0     C52297   6.612   8.888   1.062 -0.2733 -0.5416  0.3212
  397MOL0     C52298   6.598   8.995   0.972 -0.1287  0.6020 -0.3137
  397MOL0     C52299   6.484   8.998   0.886  0.0082  0.8080 -0.6939
  397MOL0     C52300   6.385   8.899   0.900 -0.3797 -0.4840  0.0644
  397MOL0     C52301   6.257   8.904   0.818  0.0919  0.2530 -0.4635
  397MOL0     O52302   6.157   8.823   0.862 -0.1508 -0.5020  0.2754
  397MOL0     C52303   6.039   8.810   0.793  0.9237  0.0997 -0.1497
  397MOL0     C52304   5.925   8.786   0.868 -0.2877 -0.3067 -0.0999
  397MOL0     C52305   5.800   8.765   0.815  0.0320 -0.4402  0.5666
  397MOL0     C52306   5.780   8.778   0.679 -0.3272 -0.2324 -0.6667
  397MOL0     O52307   5.664   8.762   0.610  0.3046 -0.1880  0.1785
  397MOL0     C52308   5.554   8.829   0.675  0.4625  0.3175  1.1954
  397MOL0     C52309   5.434   8.814   0.581 -1.0680  0.5001 -0.2829
  397MOL0     C52310   5.305   8.874   0.640 -0.3687 -0.4414 -0.0991
  397MOL0     C52311   5.180   8.829   0.555  0.5504  0.3037  0.0476
  397MOL0     C52312   5.046   8.863   0.610 -0.8146 -0.1133 -0.6942
  397MOL0     C52313   4.942   8.798   0.522  0.0902  0.5038  0.6418
  397MOL0     C52314   4.810   8.780   0.597  0.3657  0.1126  0.3897
  397MOL0     C52315   4.696   8.760   0.493  0.0072  0.3338  0.5445
  397MOL0    Cl52316   4.546   8.743   0.581 -0.0503 -0.2577 -0.1145
  397MOL0     C52317   5.891   8.814   0.597  0.4768 -0.1893 -0.0170
  397MOL0     C52318   6.017   8.832   0.654 -0.2565  0.0992 -0.1970
  397MOL0     O52319   6.249   8.986   0.723 -0.0634  0.1524  0.3446
  397MOL0     C52320   6.386   8.802   0.996  0.2268  0.0137 -1.1159
  397MOL0     C52321   6.500   8.801   1.078 -0.6916  0.0907  0.3192
  397MOL0     N52322   7.336   8.979   1.325 -0.6775  0.5985  0.5981
  397MOL0     N52323   7.454   8.995   1.382  1.2450 -0.7047  0.8004
  397MOL0     C52324   8.709   8.723   1.087 -0.0168 -0.0795  0.0461
  397MOL0     C52325   8.836   8.723   1.018 -0.0366 -0.6584 -0.1080
  397MOL0     C52326   9.257   8.872   0.947 -0.2075 -0.3179  1.3176
  397MOL0     C52327   9.296   8.987   0.869 -0.6773 -0.1246  0.3309
  397MOL0     C52328   9.430   8.997   0.834  0.2193  0.0958  0.5194
  397MOL0     C52329   9.526   8.922   0.895  0.0159 -0.0874  0.2630
  397MOL0     O52330   9.650   8.959   0.851 -0.3152 -0.0506  0.4000
  397MOL0     C52331   9.763   8.904   0.915 -1.0933  0.0141  0.5327
  397MOL0     C52332   9.881   8.947   0.829 -0.3333  0.7783  0.0017
  397MOL0     C52333  10.006   8.915   0.911 -0.1324 -0.1827  0.7568
  397MOL0     C52334  10.141   8.978   0.858  0.3870  0.2109 -0.0987
  397MOL0     C52335  10.261   8.979   0.945 -0.1307 -0.7771 -0.5938
  397MOL0     C52336  10.365   8.985   1.010 -0.4430 -0.0025  0.0144
  397MOL0     C52337   9.493   8.816   0.977 -1.0385 -0.7467 -0.3171
  397MOL0     C52338   9.358   8.791   1.003  0.4458 -0.0040  0.5300
  397MOL0     H52339   9.040   8.756   1.283  0.1027  3.3704 -0.8542
  397MOL0     H52340   8.825   8.739   1.401  0.9139  1.4793 -0.0091
  397MOL0     H52341   8.457   8.604   1.204  0.0251  0.3735  1.7997
  397MOL0     H52342   8.457   8.782   1.165 -1.9692 -0.6367 -2.2140
  397MOL0     H52343   8.403   8.790   1.427 -2.2384 -0.9496  2.6866
  397MOL0     H52344   8.344   8.632   1.402 -2.6883  2.0971  3.3664
  397MOL0     H52345   8.217   8.746   1.189  0.8511  1.4263 -0.5355
  397MOL0     H52346   8.223   8.887   1.296 -3.2018  0.2060 -3.2803
  397MOL0     H52347   8.100   8.629   1.392 -0.6912 -0.4728 -1.7115
  397MOL0     H52348   8.128   8.784   1.477  3.3349  1.2919 -1.3445
  397MOL0     H52349   7.955   8.717   1.234 -1.9797 -0.7149  2.0700
  397MOL0     H52350   7.984   8.891   1.280 -0.0813 -0.5931 -0.2651
  397MOL0     H52351   7.897   8.859   1.494  0.2372 -0.1069  1.3947
  397MOL0     H52352   7.849   8.684   1.449 -0.5741 -0.0090 -2.1142
  397MOL0     H52353   7.727   8.928   1.315 -2.6128 -0.1628  0.1037
  397MOL0     H52354   7.705   8.758   1.282  0.5213 -1.1979  1.4922
  397MOL0     H52355   7.641   8.927   1.526  0.0882  0.7881  0.1373
  397MOL0     H52356   7.610   8.746   1.515  0.2245 -1.2003 -2.4056
  397MOL0     H52357   7.422   8.676   1.316  1.8035 -0.3648 -0.2367
  397MOL0     H52358   7.157   8.711   1.305  0.2281  1.8419  1.6194
  397MOL0     H52359   7.220   8.755   1.128  0.3434  1.4766  0.2339
  397MOL0     H52360   7.098   8.936   1.100 -2.6672  1.6565 -1.0963
  397MOL0     H52361   7.068   8.948   1.285  3.8603  0.9696 -1.3568
  397MOL0     H52362   6.940   8.726   1.123  0.0953  1.0711 -1.8003
  397MOL0     H52363   6.904   8.797   1.279  0.7360  3.3117  1.4083
  397MOL0     H52364   6.866   8.911   1.004 -1.1245 -1.8617 -1.2080
  397MOL0     H52365   6.840   9.010   1.153 -2.5054  0.1742  0.2424
  397MOL0     H52366   6.672   9.073   0.980 -2.1483  2.4589  1.6398
  397MOL0     H52367   6.477   9.076   0.811  0.5446 -0.6244 -2.3247
  397MOL0     H52368   5.942   8.781   0.975  1.3546  3.0536 -0.0906
  397MOL0     H52369   5.726   8.735   0.889  1.2824 -1.1985  1.5451
  397MOL0     H52370   5.582   8.930   0.706  1.8004 -0.2234  1.7885
  397MOL0     H52371   5.537   8.767   0.763 -2.3541 -2.5955 -1.1165
  397MOL0     H52372   5.433   8.708   0.556  1.0773  0.6617 -1.2854
  397MOL0     H52373   5.448   8.876   0.492 -0.6526  1.2308  0.2741
  397MOL0     H52374   5.311   8.984   0.640  0.2459 -0.4513 -1.3471
  397MOL0     H52375   5.294   8.833   0.740 -2.8653 -2.6624 -1.1696
  397MOL0     H52376   5.192   8.885   0.461 -0.7780 -1.2156 -1.0891
  397MOL0     H52377   5.202   8.727   0.523  1.6273  0.3928  0.4792
  397MOL0     H52378   5.039   8.972   0.611  0.9509  0.0319 -0.8734
  397MOL0     H52379   5.036   8.822   0.710  0.1443 -1.1561 -1.0056
  397MOL0     H52380   4.977   8.698   0.494 -1.6497 -0.2472  1.0507
  397MOL0     H52381   4.944   8.852   0.427  0.8776  1.9942  1.4622
  397MOL0     H52382   4.810   8.688   0.657  0.3866 -0.9375 -1.1416
  397MOL0     H52383   4.800   8.866   0.663  1.7767  1.5100 -1.1192
  397MOL0     H52384   4.697   8.674   0.425 -2.0620  0.5861  0.1174
  397MOL0     H52385   4.687   8.846   0.425 -0.1993 -2.3786 -3.1677
  397MOL0     H52386   5.872   8.835   0.493 -0.2039 -1.1985 -0.1159
  397MOL0     H52387   6.104   8.857   0.594  0.5777 -2.1700 -0.0594
  397MOL0     H52388   6.305   8.732   1.015  0.2766 -0.1210 -1.3941
  397MOL0     H52389   6.497   8.728   1.158 -1.9523  1.6744  1.8071
  397MOL0     H52390   8.617   8.729   1.030 -0.0280  4.2659  0.2305
  397MOL0     H52391   8.832   8.730   0.910  5.0535 -3.1560 -0.7919
  397MOL0     H52392   9.219   9.051   0.827 -1.5920 -2.6913 -2.2046
  397MOL0     H52393   9.466   9.065   0.757 -0.3806 -0.5107 -0.3082
  397MOL0     H52394   9.757   8.796   0.924 -1.3666 -0.1568 -1.4563
  397MOL0     H52395   9.760   8.954   1.013  0.0580  2.1551 -0.4681
  397MOL0     H52396   9.875   8.900   0.731 -0.0728  0.7927 -0.0220
  397MOL0     H52397   9.875   9.056   0.815 -1.5539  0.6486 -0.5878
  397MOL0     H52398  10.012   8.807   0.927  0.1167 -0.0875  1.3243
  397MOL0     H52399  10.004   8.957   1.012  2.5869 -0.6359  1.0647
  397MOL0     H52400  10.175   8.933   0.764  0.1203 -0.6094  0.1843
  397MOL0     H52401  10.119   9.084   0.845  2.4797  0.8179  0.8529
  397MOL0     H52402  10.456   8.994   1.067 -0.4318  0.4055 -0.0622
  397MOL0     H52403   9.565   8.748   1.022  0.1107 -0.0928 -1.1106
  397MOL0     H52404   9.327   8.711   1.070 -0.2915 -1.7948 -1.8150
  398MOL0     O52405   4.702   3.567   4.493  0.0718 -0.1333  0.5506
  398MOL0     C52406   4.753   3.580   4.380  0.1930 -0.1536 -0.5244
  398MOL0     O52407   4.704   3.666   4.286 -0.4400 -0.2482 -0.2302
  398MOL0     C52408   4.600   3.749   4.308  0.7929 -0.2557 -0.1998
  398MOL0     C52409   4.621   3.885   4.329  0.0966  0.4588  0.7916
  398MOL0     C52410   4.505   3.963   4.357  0.0474  0.2534 -0.2482
  398MOL0     C52411   4.378   3.914   4.336  0.2069 -0.7396 -0.9230
  398MOL0     O52412   4.253   3.980   4.331  0.2483 -0.3144  0.6608
  398MOL0     C52413   4.242   4.118   4.384  0.6580 -0.1928  0.7123
  398MOL0     C52414   4.100   4.190   4.379  0.0468  0.3382  0.5223
  398MOL0     C52415   4.125   4.320   4.430  0.2111  0.0516  0.4092
  398MOL0     C52416   4.008   4.406   4.382  0.5568  0.1657 -0.0793
  398MOL0     C52417   4.015   4.549   4.446 -0.2710 -0.3554  1.4254
  398MOL0     C52418   4.003   4.561   4.601 -1.2243  0.2369  0.8730
  398MOL0     C52419   3.962   4.708   4.639  0.7808  0.0281 -0.3528
  398MOL0     C52420   3.946   4.709   4.792 -1.0007 -0.4477 -0.0151
  398MOL0     N52421   3.829   4.636   4.828 -0.2898 -0.5369  0.2753
  398MOL0     C52422   3.706   4.689   4.816  0.6647 -0.3513 -0.5540
  398MOL0     C52423   3.622   4.588   4.866  0.6182 -0.6493  0.6519
  398MOL0     C52424   3.470   4.574   4.885 -0.3093 -0.4488  0.5142
  398MOL0     C52425   3.399   4.695   4.826 -0.5839  0.2867  0.2986
  398MOL0     C52426   3.243   4.666   4.814 -0.1203 -0.5391 -0.4379
  398MOL0     C52427   3.169   4.723   4.936  0.5561  0.5706  0.0032
  398MOL0     O52428   3.022   4.707   4.936  0.2898  0.0439  0.3663
  398MOL0     C52429   2.969   4.587   4.972 -0.1572 -0.3663  0.9174
  398MOL0     C52430   3.045   4.477   5.006 -0.2440  0.2337 -0.0087
  398MOL0     C52431   2.990   4.366   5.061  0.2064  0.4144 -0.0975
  398MOL0     C52432   2.851   4.362   5.087 -0.0570  0.2061  0.2711
  398MOL0     C52433   2.787   4.237   5.141 -0.5134 -1.1054 -0.0639
  398MOL0     O52434   2.658   4.244   5.178  0.5920 -0.0888  0.4503
  398MOL0     C52435   2.602   4.139   5.240  0.8771  0.9691 -0.6071
  398MOL0     C52436   2.670   4.067   5.333 -0.5917  0.0001  0.3256
  398MOL0     C52437   2.600   3.953   5.395  0.2264 -0.0363  0.0613
  398MOL0     C52438   2.466   3.922   5.351 -0.3414 -0.0808  0.4269
  398MOL0     O52439   2.392   3.821   5.406 -0.0845 -0.5322 -0.6308
  398MOL0     C52440   2.468   3.719   5.471  0.1468  0.5055  0.3534
  398MOL0     C52441   2.380   3.591   5.490  0.5824  0.9502 -0.8897
  398MOL0     C52442   2.270   3.612   5.589 -0.3141 -0.5126 -0.1871
  398MOL0     C52443   2.190   3.485   5.607 -0.1263 -0.2580 -0.3747
  398MOL0     C52444   2.045   3.501   5.668 -0.0611 -0.6952 -0.1547
  398MOL0     C52445   2.005   3.401   5.783 -0.8483  0.0393  0.8716
  398MOL0     C52446   1.874   3.446   5.838 -0.1409  0.5851 -0.6397
  398MOL0     C52447   1.806   3.337   5.911 -0.9949  0.1158 -0.1501
  398MOL0    Cl52448   1.670   3.395   6.008  0.3423  0.1643 -0.1801
  398MOL0     C52449   2.407   4.001   5.257  0.1955 -0.3968 -0.7217
  398MOL0     C52450   2.473   4.100   5.199  0.5362 -0.1673  0.4237
  398MOL0     O52451   2.869   4.142   5.156  0.7202 -0.0098 -0.2307
  398MOL0     C52452   2.774   4.469   5.045  0.0441  0.1258 -0.0069
  398MOL0     C52453   2.831   4.580   4.984  0.2719  0.0388  0.0354
  398MOL0     N52454   3.695   4.474   4.883 -0.7758  0.2905  0.4477
  398MOL0     N52455   3.822   4.502   4.859 -0.5629 -0.2469  0.9208
  398MOL0     C52456   4.355   3.787   4.298 -0.7611  0.3883  0.0657
  398MOL0     C52457   4.470   3.700   4.288  0.6578  0.4615 -0.4894
  398MOL0     C52458   4.865   3.489   4.341 -1.3833 -0.3235  0.3667
  398MOL0     C52459   4.917   3.465   4.213 -0.5833 -0.4799  0.1823
  398MOL0     C52460   5.020   3.369   4.185 -0.6416 -0.3724 -0.1157
  398MOL0     C52461   5.074   3.294   4.289  0.3001 -1.1411  0.0937
  398MOL0     O52462   5.159   3.188   4.275  0.0174 -0.3407  0.6548
  398MOL0     C52463   5.223   3.185   4.145  0.2435  0.2141  0.0434
  398MOL0     C52464   5.326   3.070   4.158 -0.9155  0.1446 -0.1945
  398MOL0     C52465   5.437   3.131   4.247  0.1745  0.1205 -0.0245
  398MOL0     C52466   5.567   3.054   4.252 -0.2337  0.2964  0.2577
  398MOL0     C52467   5.565   2.934   4.338  0.2246  0.5451 -0.7504
  398MOL0     C52468   5.559   2.848   4.416  0.5224 -0.3979 -0.0613
  398MOL0     C52469   5.028   3.316   4.417  0.2981  0.3899 -0.5515
  398MOL0     C52470   4.925   3.405   4.442 -0.5848  0.3035  0.2836
  398MOL0     H52471   4.721   3.927   4.341 -0.0239  1.1231 -0.4166
  398MOL0     H52472   4.521   4.064   4.394  1.3395  1.0563 -2.7928
  398MOL0     H52473   4.314   4.174   4.325 -1.2456  0.2950 -1.2915
  398MOL0     H52474   4.269   4.126   4.489  1.2148  0.1615  0.5493
  398MOL0     H52475   4.034   4.133   4.445  1.3508  0.6957  2.1882
  398MOL0     H52476   4.053   4.173   4.281 -2.5481 -2.5481  2.0864
  398MOL0     H52477   4.222   4.355   4.394  1.6284 -1.6634  2.3083
  398MOL0     H52478   4.129   4.318   4.539 -2.0002 -1.3461  0.5289
  398MOL0     H52479   4.000   4.424   4.275 -2.6521 -1.9242 -0.3230
  398MOL0     H52480   3.914   4.361   4.413  0.3167 -0.2232 -1.3219
  398MOL0     H52481   3.921   4.590   4.408 -1.0803 -3.3076 -0.0178
  398MOL0     H52482   4.103   4.606   4.413  0.6986 -1.0657  2.7116
  398MOL0     H52483   4.103   4.541   4.640 -1.0488  1.3086  0.9976
  398MOL0     H52484   3.932   4.484   4.634 -0.3530 -0.6818  0.6590
  398MOL0     H52485   4.043   4.778   4.619  1.1900 -0.3244  0.0537
  398MOL0     H52486   3.875   4.753   4.591  0.5339  2.4560  2.0874
  398MOL0     H52487   3.943   4.808   4.838  2.0567 -1.6101  3.1049
  398MOL0     H52488   4.037   4.664   4.834 -0.8595 -1.3711 -1.2464
  398MOL0     H52489   3.684   4.792   4.790 -3.2690 -1.6648 -3.4576
  398MOL0     H52490   3.457   4.549   4.991  0.6454 -2.3952  0.2137
  398MOL0     H52491   3.435   4.485   4.832 -1.8348 -0.0465  0.7959
  398MOL0     H52492   3.432   4.703   4.722 -1.0555 -2.2348 -0.1051
  398MOL0     H52493   3.425   4.795   4.862 -1.5290  1.3251 -1.6969
  398MOL0     H52494   3.192   4.710   4.728 -0.7953  3.3938  1.7609
  398MOL0     H52495   3.236   4.557   4.809  0.0253 -0.5125 -1.2361
  398MOL0     H52496   3.190   4.830   4.930  1.3813  0.4549  0.7683
  398MOL0     H52497   3.213   4.697   5.032 -0.4429  2.5317  1.0487
  398MOL0     H52498   3.152   4.472   4.987 -0.3657  2.2604 -1.5567
  398MOL0     H52499   3.050   4.282   5.096 -1.3839 -0.9477 -0.5176
  398MOL0     H52500   2.766   4.100   5.370  0.4289 -1.9732 -0.3740
  398MOL0     H52501   2.649   3.895   5.473  0.7747  0.9177  0.4516
  398MOL0     H52502   2.485   3.753   5.573 -0.4161  0.7516  0.3675
  398MOL0     H52503   2.556   3.685   5.415 -1.3322 -3.8288  0.3368
  398MOL0     H52504   2.447   3.508   5.512  3.6242  2.3168 -4.1493
  398MOL0     H52505   2.344   3.560   5.391  2.5241 -1.7022 -0.8497
  398MOL0     H52506   2.204   3.687   5.544 -0.6868 -0.4330  0.4794
  398MOL0     H52507   2.300   3.637   5.691 -2.0912  1.2539 -0.0327
  398MOL0     H52508   2.189   3.424   5.516  2.0221 -0.5500 -0.2498
  398MOL0     H52509   2.245   3.433   5.686 -0.8848  0.7814  0.8734
  398MOL0     H52510   1.976   3.482   5.586 -1.0779 -2.9939  1.1461
  398MOL0     H52511   2.043   3.604   5.705  2.1137 -1.1802  1.5862
  398MOL0     H52512   2.089   3.406   5.853  1.4180  4.3444 -1.7076
  398MOL0     H52513   2.001   3.299   5.743  1.5746  1.1339 -2.6212
  398MOL0     H52514   1.894   3.530   5.904  0.4462 -0.1125  0.0873
  398MOL0     H52515   1.802   3.482   5.763 -1.3889  0.7996  0.6208
  398MOL0     H52516   1.879   3.279   5.968 -0.5780  0.0639 -0.7344
  398MOL0     H52517   1.761   3.269   5.839 -0.1843 -1.8625  1.1315
  398MOL0     H52518   2.302   3.998   5.227 -0.3125 -1.4989  1.0391
  398MOL0     H52519   2.427   4.161   5.121  1.2462  1.2374  1.0689
  398MOL0     H52520   2.666   4.465   5.057  0.0820 -3.3342  0.3020
  398MOL0     H52521   2.765   4.659   4.949 -1.2834 -1.8699 -1.5852
  398MOL0     H52522   4.256   3.745   4.281 -0.8212  0.6011 -0.1115
  398MOL0     H52523   4.462   3.601   4.242 -0.1163  0.3033 -0.0162
  398MOL0     H52524   4.872   3.521   4.132 -1.7429  4.4017  3.7044
  398MOL0     H52525   5.051   3.366   4.081 -2.5250  2.1934 -0.8580
  398MOL0     H52526   5.282   3.274   4.121  2.9959 -1.8001 -1.2048
  398MOL0     H52527   5.143   3.167   4.072 -0.0647 -1.0727  0.6725
  398MOL0     H52528   5.283   2.979   4.203 -0.1216  0.2658  0.8391
  398MOL0     H52529   5.364   3.047   4.057  4.0190  0.5624  1.3308
  398MOL0     H52530   5.395   3.145   4.347 -1.2294 -2.2610 -0.1957
  398MOL0     H52531   5.456   3.234   4.217  1.3153  1.2124  3.7949
  398MOL0     H52532   5.595   3.023   4.152  0.1468 -1.6677  0.9331
  398MOL0     H52533   5.640   3.128   4.286  2.0159 -0.9304 -1.6694
  398MOL0     H52534   5.573   2.769   4.488  1.9420  1.9178  2.3828
  398MOL0     H52535   5.065   3.246   4.492 -0.8026  1.2438  0.8425
  398MOL0     H52536   4.881   3.424   4.539  0.7609 -1.0947  1.2175
  399MOL0     O52537   2.111   3.582   8.567 -0.4902 -1.0509 -0.3478
  399MOL0     C52538   2.177   3.670   8.627  0.0601  0.8564  1.0450
  399MOL0     O52539   2.178   3.806   8.598  0.4111 -0.2876 -1.0397
  399MOL0     C52540   2.079   3.852   8.511  0.5066 -0.3407 -0.6634
  399MOL0     C52541   2.108   3.845   8.374  0.1689 -0.7360 -0.3598
  399MOL0     C52542   2.017   3.892   8.276 -0.0460 -0.7216 -0.1328
  399MOL0     C52543   1.887   3.933   8.314 -0.1680 -0.0618  0.3795
  399MOL0     O52544   1.796   3.976   8.222  0.3701 -0.1228  0.0540
  399MOL0     C52545   1.654   4.010   8.255 -0.8874 -0.3462  0.0754
  399MOL0     C52546   1.584   4.064   8.126  0.2177  0.9228  0.2595
  399MOL0     C52547   1.430   4.079   8.136 -0.4051 -0.1881 -0.1224
  399MOL0     C52548   1.367   4.084   7.997 -0.2100 -0.8803 -0.3669
  399MOL0     C52549   1.214   4.102   8.009 -0.6266 -0.2374 -0.2965
  399MOL0     C52550   1.144   3.997   8.093 -0.4893 -1.0147 -0.3933
  399MOL0     C52551   0.989   4.017   8.087 -0.4036 -0.9894 -0.0762
  399MOL0     C52552   0.927   3.961   7.966 -0.1774  0.5501 -0.1815
  399MOL0     N52553   0.781   3.975   7.965  0.0167  0.3483  0.1534
  399MOL0     C52554   0.716   4.091   7.965  0.1523 -0.1487 -0.1939
  399MOL0     C52555   0.586   4.058   7.979  0.4738  0.7318  1.1767
  399MOL0     C52556   0.481   4.173   7.980 -0.0727  0.0735 -0.5476
  399MOL0     C52557   0.364   4.143   7.886 -0.7755 -0.1699 -0.6757
  399MOL0     C52558   0.246   4.065   7.955 -0.6310 -0.4677 -0.8460
  399MOL0     C52559   0.148   4.027   7.842  0.6574  0.2096 -0.2797
  399MOL0     O52560   0.044   4.120   7.828 -0.6242 -0.8397 -0.0944
  399MOL0     C52561  -0.080   4.110   7.886 -0.6473 -0.0206  0.0099
  399MOL0     C52562  -0.110   4.015   7.981  1.1312 -0.3744  0.1967
  399MOL0     C52563  -0.238   4.007   8.032 -0.1160 -0.2678 -0.6776
  399MOL0     C52564  -0.345   4.094   7.991 -0.5635  0.4323 -1.1405
  399MOL0     C52565  -0.485   4.090   8.046 -0.3361  0.1328 -0.7291
  399MOL0     O52566  -0.590   4.145   7.968 -0.9944  0.0236 -1.1518
  399MOL0     C52567  -0.708   4.160   8.031  0.2624  1.4696 -0.5437
  399MOL0     C52568  -0.828   4.155   7.950 -0.1662 -0.6692 -0.0497
  399MOL0     C52569  -0.956   4.184   7.998 -0.2598 -0.4296  0.0783
  399MOL0     C52570  -0.968   4.215   8.139 -0.8806 -0.0438  0.3998
  399MOL0     O52571  -1.092   4.251   8.178  0.3052 -1.3420 -0.0906
  399MOL0     C52572  -1.112   4.313   8.305 -0.2670 -0.2125 -0.9306
  399MOL0     C52573  -1.254   4.374   8.303 -0.3684  0.3885 -0.6487
  399MOL0     C52574  -1.275   4.453   8.435 -0.0018  0.5007 -0.0627
  399MOL0     C52575  -1.421   4.500   8.438  0.3400 -0.1973 -0.3633
  399MOL0     C52576  -1.509   4.386   8.493  0.0701  0.4823  0.2741
  399MOL0     C52577  -1.661   4.407   8.499  0.3641  1.1620 -0.2381
  399MOL0     C52578  -1.718   4.539   8.460 -0.5499  0.4788 -0.4210
  399MOL0     C52579  -1.870   4.545   8.484 -0.0587  0.1490 -0.1108
  399MOL0    Cl52580  -1.924   4.499   8.643 -0.0322 -0.4443 -0.5692
  399MOL0     C52581  -0.853   4.217   8.219 -0.1156 -0.4860  0.0935
  399MOL0     C52582  -0.723   4.201   8.164 -0.2764  0.1923 -0.2257
  399MOL0     O52583  -0.499   4.025   8.152 -0.4147 -0.3424 -0.0664
  399MOL0     C52584  -0.307   4.192   7.893 -0.4286  0.1930  0.6244
  399MOL0     C52585  -0.176   4.196   7.851 -0.0343 -0.4156  0.6977
  399MOL0     N52586   0.571   3.923   7.959 -0.1942  0.7628 -0.3987
  399MOL0     N52587   0.689   3.873   7.967 -0.4908  0.2097 -0.1820
  399MOL0     C52588   1.867   3.945   8.454 -0.0474 -0.8203 -1.0629
  399MOL0     C52589   1.959   3.906   8.551 -0.5811  0.6612  0.0305
  399MOL0     C52590   2.268   3.616   8.730 -0.2258  0.8179  0.6273
  399MOL0     C52591   2.366   3.697   8.798 -0.3051  0.6870  0.7772
  399MOL0     C52592   2.456   3.637   8.889 -0.7210  0.1735 -0.2633
  399MOL0     C52593   2.448   3.495   8.913  0.2428 -0.3641 -0.3735
  399MOL0     O52594   2.534   3.449   9.007  0.0370  0.7164  0.3811
  399MOL0     C52595   2.569   3.312   9.013 -0.1281 -0.2231  0.2646
  399MOL0     C52596   2.697   3.284   8.928 -0.2807 -0.2280 -0.7253
  399MOL0     C52597   2.821   3.361   8.978 -0.2474  0.2159 -0.1679
  399MOL0     C52598   2.948   3.357   8.887 -0.1135  0.2323  0.0519
  399MOL0     C52599   2.979   3.221   8.840  0.1115 -0.3052 -0.0035
  399MOL0     C52600   3.024   3.115   8.788  0.6516 -0.3035 -0.2971
  399MOL0     C52601   2.357   3.419   8.840  0.0559 -0.2722 -0.0639
  399MOL0     C52602   2.270   3.481   8.751 -0.6662 -0.8333 -0.3010
  399MOL0     H52603   2.210   3.819   8.351 -0.4746 -1.8187 -2.1664
  399MOL0     H52604   2.042   3.891   8.170  0.4941  1.0956 -0.0496
  399MOL0     H52605   1.661   4.088   8.331  4.7510 -2.5945  2.3792
  399MOL0     H52606   1.589   3.930   8.292 -2.1016  1.3162  1.7091
  399MOL0     H52607   1.604   3.987   8.051  0.8353 -0.5035  1.8153
  399MOL0     H52608   1.632   4.161   8.107  0.2047  0.9141  0.1831
  399MOL0     H52609   1.422   4.174   8.189 -1.9724 -0.3084 -0.0862
  399MOL0     H52610   1.393   3.995   8.197  1.9603  0.2041  1.9972
  399MOL0     H52611   1.414   4.171   7.950 -0.3604 -0.9905 -0.7267
  399MOL0     H52612   1.400   3.998   7.938 -2.0135 -0.6493 -1.8111
  399MOL0     H52613   1.178   4.090   7.906 -0.1156 -1.8181 -0.3093
  399MOL0     H52614   1.186   4.202   8.045  0.0924 -0.6696  1.5965
  399MOL0     H52615   1.171   4.010   8.199  0.4321 -1.6058 -0.5471
  399MOL0     H52616   1.177   3.899   8.060  0.4559 -0.2634 -1.7707
  399MOL0     H52617   0.941   3.977   8.176 -2.5566  2.0214  0.2727
  399MOL0     H52618   0.955   4.121   8.089 -0.0484 -0.8802  0.7887
  399MOL0     H52619   0.949   3.853   7.964  2.2039  0.9829 -1.5627
  399MOL0     H52620   0.967   4.010   7.877 -1.7165  2.2964  0.0360
  399MOL0     H52621   0.744   4.195   7.977 -1.4127  0.4112 -1.0475
  399MOL0     H52622   0.524   4.266   7.942  0.6339 -0.4280 -1.0150
  399MOL0     H52623   0.439   4.188   8.080 -1.1781  0.1066 -1.0027
  399MOL0     H52624   0.399   4.080   7.804 -0.7807 -0.9537 -0.0902
  399MOL0     H52625   0.336   4.236   7.837  2.7331  0.1762 -2.3463
  399MOL0     H52626   0.281   3.980   8.014  0.4638  1.0925  0.8715
  399MOL0     H52627   0.197   4.132   8.026  0.1678  1.1933 -1.8013
  399MOL0     H52628   0.108   3.928   7.868 -1.8729  1.1897 -0.1386
  399MOL0     H52629   0.199   4.008   7.747 -0.2601  2.8182 -1.3750
  399MOL0     H52630  -0.031   3.954   8.025 -0.8874 -2.0154  1.7475
  399MOL0     H52631  -0.253   3.936   8.113  0.3509 -3.2399 -3.0025
  399MOL0     H52632  -0.822   4.139   7.843  3.1175 -2.4462  0.2535
  399MOL0     H52633  -1.032   4.191   7.921  0.2683  2.4906 -0.2914
  399MOL0     H52634  -1.053   4.403   8.323 -2.6721  1.4361 -0.8000
  399MOL0     H52635  -1.099   4.244   8.388  3.1374 -0.0880 -1.2437
  399MOL0     H52636  -1.316   4.284   8.300  2.2256 -1.4800 -1.9016
  399MOL0     H52637  -1.272   4.434   8.213 -0.5200  0.9027 -0.2845
  399MOL0     H52638  -1.209   4.539   8.425 -1.0105  1.1360 -1.5964
  399MOL0     H52639  -1.255   4.390   8.522 -0.6306 -0.9295 -0.9095
  399MOL0     H52640  -1.438   4.590   8.498  1.8184 -1.2528  1.7819
  399MOL0     H52641  -1.443   4.518   8.332  2.0039  2.9451 -0.2890
  399MOL0     H52642  -1.478   4.373   8.597 -2.0743 -1.0223  0.7780
  399MOL0     H52643  -1.485   4.296   8.436  0.3112  0.3010  0.6558
  399MOL0     H52644  -1.693   4.377   8.599  2.8229  0.1163  0.3158
  399MOL0     H52645  -1.715   4.345   8.427  0.0853 -0.3071  1.1953
  399MOL0     H52646  -1.672   4.621   8.515 -0.7102 -0.2818  0.8927
  399MOL0     H52647  -1.706   4.551   8.352  0.1137 -3.4178 -0.9547
  399MOL0     H52648  -1.909   4.477   8.408 -0.8250  0.5936 -0.1237
  399MOL0     H52649  -1.925   4.633   8.447 -1.3870 -0.7846 -0.4247
  399MOL0     H52650  -0.862   4.239   8.325 -1.5608 -0.7834  0.0443
  399MOL0     H52651  -0.635   4.224   8.224  1.8744 -1.5679 -2.4555
  399MOL0     H52652  -0.362   4.274   7.846  1.9226  1.1671 -0.6055
  399MOL0     H52653  -0.155   4.276   7.781 -3.0686 -0.7717 -0.7941
  399MOL0     H52654   1.777   3.988   8.496  2.0836  1.6060  1.4120
  399MOL0     H52655   1.938   3.907   8.658  2.9909 -4.5326  1.1528
  399MOL0     H52656   2.374   3.804   8.777  0.4602  0.1384 -2.1509
  399MOL0     H52657   2.519   3.700   8.951 -0.8059 -1.4785  1.6150
  399MOL0     H52658   2.492   3.241   8.984  0.1857  0.0178 -1.2841
  399MOL0     H52659   2.588   3.299   9.120 -2.4097  2.8448  1.2088
  399MOL0     H52660   2.715   3.177   8.930 -0.6111 -0.2769  0.7055
  399MOL0     H52661   2.689   3.311   8.822  0.8105  2.4210 -0.2260
  399MOL0     H52662   2.849   3.330   9.079  1.4831  2.6704  0.2085
  399MOL0     H52663   2.785   3.464   8.982 -3.3461 -0.8176  2.0144
  399MOL0     H52664   2.936   3.420   8.799  1.1088 -0.5831 -0.7337
  399MOL0     H52665   3.035   3.399   8.938 -1.1969  2.4974  0.1513
  399MOL0     H52666   3.079   3.024   8.771 -0.5317 -0.9380 -0.8491
  399MOL0     H52667   2.351   3.311   8.851  0.5612 -0.3706 -0.6912
  399MOL0     H52668   2.197   3.410   8.715 -0.4110 -0.1419 -2.2827
  400MOL0     O52669   3.467   8.208   3.414  0.1168  0.0447 -0.2590
  400MOL0     C52670   3.505   8.324   3.411 -0.3987  0.6988 -0.4166
  400MOL0     O52671   3.449   8.432   3.349 -0.1560 -1.1268  0.2752
  400MOL0     C52672   3.318   8.406   3.320  0.4096 -0.6110 -0.6175
  400MOL0     C52673   3.283   8.364   3.198 -0.6815 -0.6225  0.0357
  400MOL0     C52674   3.151   8.331   3.162  0.0981 -0.1938  0.2592
  400MOL0     C52675   3.043   8.338   3.258  1.0749  0.2604  0.1581
  400MOL0     O52676   2.919   8.305   3.212  0.3518  0.4160 -0.1401
  400MOL0     C52677   2.817   8.289   3.301  0.0860  0.2041 -0.4198
  400MOL0     C52678   2.708   8.199   3.250  0.0122  0.2479  0.8543
  400MOL0     C52679   2.607   8.162   3.359 -0.8860  0.1283 -0.4013
  400MOL0     C52680   2.524   8.040   3.310 -0.1871 -0.8703 -0.4511
  400MOL0     C52681   2.412   8.024   3.422 -1.0645 -0.4749  0.9728
  400MOL0     C52682   2.323   7.897   3.395 -0.0102  0.7926  0.0172
  400MOL0     C52683   2.211   7.903   3.498 -0.0643 -0.6209  0.0935
  400MOL0     C52684   2.085   7.819   3.475 -0.6122 -0.3482  0.6762
  400MOL0     N52685   2.103   7.665   3.484 -0.5186 -0.6755  0.5349
  400MOL0     C52686   2.163   7.598   3.584  0.4420 -0.0011 -0.2589
  400MOL0     C52687   2.178   7.475   3.536 -0.8809  0.2725 -0.4479
  400MOL0     C52688   2.234   7.359   3.617 -0.5968 -0.1684  0.9337
  400MOL0     C52689   2.141   7.241   3.629  0.3483  0.3602 -0.0028
  400MOL0     C52690   2.012   7.274   3.698 -0.1500  1.4082 -0.9370
  400MOL0     C52691   1.914   7.156   3.705  0.4035  0.3148  0.1948
  400MOL0     O52692   1.855   7.140   3.576  0.2675  0.1099 -0.1188
  400MOL0     C52693   1.732   7.082   3.573  1.3169  1.0251  0.2133
  400MOL0     C52694   1.639   7.124   3.485  0.6964 -0.0979  0.9129
  400MOL0     C52695   1.510   7.073   3.483 -0.9031 -0.2776 -0.2106
  400MOL0     C52696   1.475   6.967   3.564  0.5339  1.0895  0.2592
  400MOL0     C52697   1.335   6.912   3.558  0.0094  0.1192 -0.9666
  400MOL0     O52698   1.237   6.977   3.487 -0.3260  0.1190 -0.3004
  400MOL0     C52699   1.117   6.918   3.495  0.3250  0.0362  0.7657
  400MOL0     C52700   1.079   6.837   3.392 -0.4788  0.3837 -0.5305
  400MOL0     C52701   0.973   6.748   3.396 -0.1867 -1.0253  0.7064
  400MOL0     C52702   0.887   6.746   3.506 -0.4447 -0.6639 -0.0987
  400MOL0     O52703   0.766   6.683   3.513  0.9355 -0.8815  0.1138
  400MOL0     C52704   0.716   6.636   3.393  0.3416  0.4271  0.4259
  400MOL0     C52705   0.562   6.614   3.411 -0.0038 -0.3928  1.2843
  400MOL0     C52706   0.535   6.491   3.495  0.5218 -1.0155  0.1419
  400MOL0     C52707   0.391   6.491   3.554  0.8670 -0.7385 -0.3638
  400MOL0     C52708   0.298   6.470   3.438 -0.6393  0.0045  0.7684
  400MOL0     C52709   0.151   6.511   3.468 -0.4045  1.3567 -0.0693
  400MOL0     C52710   0.087   6.568   3.343  0.5772 -0.3120  0.4146
  400MOL0     C52711   0.077   6.459   3.229 -1.0369 -0.3449 -0.4788
  400MOL0    Cl52712  -0.065   6.476   3.127 -0.1230  0.4035 -0.2467
  400MOL0     C52713   0.924   6.837   3.610 -0.6455 -0.0796  0.2474
  400MOL0     C52714   1.037   6.926   3.605 -0.2062 -0.5267 -0.5403
  400MOL0     O52715   1.316   6.806   3.617 -0.1684 -0.1645 -0.2918
  400MOL0     C52716   1.572   6.906   3.649 -0.3580 -0.0957  0.6117
  400MOL0     C52717   1.700   6.975   3.651 -0.3314  0.5038 -0.4031
  400MOL0     N52718   2.141   7.469   3.405  0.1676  0.1587 -0.1101
  400MOL0     N52719   2.097   7.586   3.371 -0.6161  0.6119 -0.1435
  400MOL0     C52720   3.084   8.378   3.382  0.0823  0.8326  0.0736
  400MOL0     C52721   3.216   8.414   3.416  0.3899  0.8415  0.2073
  400MOL0     C52722   3.636   8.348   3.480  0.7133  0.6190  0.2933
  400MOL0     C52723   3.739   8.250   3.496 -0.7246  0.0232 -0.0946
  400MOL0     C52724   3.870   8.296   3.540 -0.2765 -0.1647  0.4235
  400MOL0     C52725   3.892   8.435   3.577 -0.5709 -0.1389  0.0047
  400MOL0     O52726   4.003   8.491   3.628  0.0236  0.5559 -0.3785
  400MOL0     C52727   4.130   8.417   3.629  0.6049 -0.3218  0.5290
  400MOL0     C52728   4.246   8.508   3.640 -0.2850 -0.3069 -0.4968
  400MOL0     C52729   4.276   8.604   3.520 -0.7742  0.8021 -0.7687
  400MOL0     C52730   4.371   8.718   3.567 -0.2272 -0.1902  0.5096
  400MOL0     C52731   4.431   8.797   3.456 -0.2951 -0.2079 -0.6480
  400MOL0     C52732   4.472   8.871   3.369  0.0470 -0.7457  0.1377
  400MOL0     C52733   3.783   8.514   3.563 -0.6185 -0.3506 -1.3595
  400MOL0     C52734   3.658   8.476   3.517 -0.7444 -0.1853 -0.0058
  400MOL0     H52735   3.360   8.361   3.121  0.8548  2.5160  1.2593
  400MOL0     H52736   3.140   8.314   3.055  2.9730  2.1915 -0.5377
  400MOL0     H52737   2.782   8.384   3.341  0.1892  0.0202  0.1051
  400MOL0     H52738   2.855   8.228   3.383  1.1276  0.8013 -0.4492
  400MOL0     H52739   2.759   8.106   3.220  1.6739  1.1683  0.7142
  400MOL0     H52740   2.662   8.240   3.160  1.0613 -0.3809  0.0064
  400MOL0     H52741   2.556   8.257   3.377  1.7923  1.5033  0.5390
  400MOL0     H52742   2.668   8.130   3.444  1.5016 -0.9962 -2.4004
  400MOL0     H52743   2.480   8.042   3.210  0.1066  0.7119 -0.5652
  400MOL0     H52744   2.589   7.952   3.319  2.8641  0.6683 -4.3600
  400MOL0     H52745   2.346   8.109   3.402  2.0624  1.3415 -2.9053
  400MOL0     H52746   2.460   8.025   3.520  0.4498 -0.7517  0.2598
  400MOL0     H52747   2.388   7.810   3.406 -2.2982 -1.1456 -1.0592
  400MOL0     H52748   2.293   7.883   3.291  2.5743 -2.3982 -0.4472
  400MOL0     H52749   2.250   7.873   3.596  0.5248 -0.7130 -0.1641
  400MOL0     H52750   2.168   8.004   3.500  1.5118  0.0768  0.4167
  400MOL0     H52751   2.046   7.847   3.377 -1.4243  1.9199  1.5795
  400MOL0     H52752   2.012   7.853   3.548 -1.9745  0.6850 -1.0985
  400MOL0     H52753   2.195   7.633   3.682  3.0440 -3.2639  0.2459
  400MOL0     H52754   2.255   7.399   3.717 -2.2135 -0.9468  1.6158
  400MOL0     H52755   2.325   7.321   3.569 -0.6313  1.3500 -0.3872
  400MOL0     H52756   2.199   7.164   3.682  0.5061 -0.1382 -0.8778
  400MOL0     H52757   2.124   7.202   3.528 -0.9738 -3.8836  1.6418
  400MOL0     H52758   2.035   7.302   3.801  0.9606  0.5433 -0.9340
  400MOL0     H52759   1.958   7.357   3.650 -3.8489 -0.0534  0.2943
  400MOL0     H52760   1.837   7.184   3.777  0.9067  3.8611 -0.4832
  400MOL0     H52761   1.956   7.059   3.736 -0.3579  0.2283  1.0187
  400MOL0     H52762   1.644   7.193   3.402 -3.8184 -0.8325 -0.2113
  400MOL0     H52763   1.450   7.122   3.408  0.4996  1.0782 -0.4966
  400MOL0     H52764   1.135   6.839   3.299 -1.4494 -0.3896 -1.1518
  400MOL0     H52765   0.949   6.701   3.302  0.7645  0.6649 -0.4348
  400MOL0     H52766   0.773   6.547   3.363 -0.4317  0.0672 -0.0123
  400MOL0     H52767   0.731   6.717   3.321 -0.7356  0.3390  0.0705
  400MOL0     H52768   0.518   6.597   3.312 -2.0763  0.2971  2.0520
  400MOL0     H52769   0.513   6.700   3.457 -3.3134 -1.4605  0.0354
  400MOL0     H52770   0.606   6.487   3.578  0.3346  2.4016  0.6126
  400MOL0     H52771   0.556   6.403   3.434  3.0090 -1.3110  1.3080
  400MOL0     H52772   0.367   6.409   3.622 -1.5568 -1.5299 -2.0618
  400MOL0     H52773   0.369   6.585   3.605  0.9951 -0.6162 -0.5336
  400MOL0     H52774   0.297   6.365   3.406 -2.1747  0.9320 -2.7795
  400MOL0     H52775   0.329   6.529   3.351  0.5051 -2.8709 -0.9329
  400MOL0     H52776   0.142   6.600   3.530 -0.3373  2.5659 -1.7250
  400MOL0     H52777   0.094   6.441   3.530 -2.2356  1.5321 -1.4736
  400MOL0     H52778  -0.015   6.601   3.361  0.3275 -1.3668  1.0219
  400MOL0     H52779   0.145   6.654   3.309  0.2968 -0.7269 -1.2031
  400MOL0     H52780   0.085   6.361   3.278 -0.5723  0.2745  0.7335
  400MOL0     H52781   0.161   6.473   3.162 -0.3716  2.0588  0.7289
  400MOL0     H52782   0.857   6.836   3.696 -0.4781  0.6823  0.3944
  400MOL0     H52783   1.073   6.968   3.698  1.7519 -1.7297 -0.6984
  400MOL0     H52784   1.565   6.810   3.700 -0.7401 -0.0779  0.5994
  400MOL0     H52785   1.784   6.937   3.708  0.9132  1.3009 -1.6362
  400MOL0     H52786   3.015   8.362   3.464 -1.8557 -2.1213 -1.9160
  400MOL0     H52787   3.250   8.437   3.517  1.3398 -0.2855  0.1523
  400MOL0     H52788   3.710   8.153   3.458 -3.9924  0.4728  0.9212
  400MOL0     H52789   3.950   8.224   3.547  0.0223  0.2857  4.5114
  400MOL0     H52790   4.147   8.361   3.536 -0.9619 -1.3932  0.8664
  400MOL0     H52791   4.127   8.340   3.706 -0.2952  1.4509  2.3391
  400MOL0     H52792   4.226   8.571   3.727 -0.3409 -0.0917 -0.6645
  400MOL0     H52793   4.333   8.442   3.649  0.4060  0.3318 -2.0978
  400MOL0     H52794   4.180   8.642   3.483 -2.2249 -0.9924  0.8959
  400MOL0     H52795   4.316   8.554   3.431  2.7438  1.9162  0.0342
  400MOL0     H52796   4.305   8.781   3.628 -0.2970  1.0763 -0.8192
  400MOL0     H52797   4.451   8.686   3.635  0.5001 -1.4878 -0.8818
  400MOL0     H52798   4.513   8.934   3.292  2.9356  0.3765  2.3977
  400MOL0     H52799   3.801   8.610   3.610 -0.4931 -0.5540 -0.9901
  400MOL0     H52800   3.580   8.552   3.511  1.1615  2.2000  2.8113
  401MOL0     O52801  10.622   1.284   7.693  0.0250  0.2150  0.1601
  401MOL0     C52802  10.711   1.361   7.710 -0.6669  0.6939 -0.4562
  401MOL0     O52803  10.694   1.489   7.749  0.0895  0.5063  0.3214
  401MOL0     C52804  10.568   1.547   7.769 -0.6052  0.3529  0.1388
  401MOL0     C52805  10.457   1.476   7.824 -0.6246 -1.0441  0.7741
  401MOL0     C52806  10.349   1.544   7.872  0.1768 -0.0274  0.2008
  401MOL0     C52807  10.336   1.686   7.860 -0.4500 -0.4183  0.0128
  401MOL0     O52808  10.228   1.756   7.909 -0.0126 -0.1604 -0.2318
  401MOL0     C52809  10.176   1.716   8.039  0.3223 -0.7821  0.2340
  401MOL0     C52810  10.070   1.825   8.062  0.4299  0.7268 -0.6200
  401MOL0     C52811   9.992   1.796   8.191 -0.4801 -0.6446  0.0757
  401MOL0     C52812   9.881   1.909   8.197 -0.2924  0.7832 -0.1197
  401MOL0     C52813   9.786   1.893   8.311  0.5579  0.4254 -0.2973
  401MOL0     C52814   9.646   1.941   8.288 -0.4723  0.4014 -0.4077
  401MOL0     C52815   9.565   1.891   8.163  0.4317  0.4786  0.4470
  401MOL0     C52816   9.557   1.737   8.166 -0.8390  0.9157 -1.2351
  401MOL0     N52817   9.446   1.687   8.088  0.2327 -0.0683 -0.0119
  401MOL0     C52818   9.456   1.618   7.972  0.1235 -0.1194 -0.4497
  401MOL0     C52819   9.327   1.599   7.939 -0.4554 -0.6312 -0.1753
  401MOL0     C52820   9.273   1.551   7.803  0.0219 -0.1577 -0.0049
  401MOL0     C52821   9.185   1.431   7.827 -0.3782  0.5617 -0.4429
  401MOL0     C52822   9.039   1.460   7.813 -0.0667  0.6661 -0.5714
  401MOL0     C52823   8.942   1.348   7.848  0.7935  0.1533  0.1969
  401MOL0     O52824   8.806   1.396   7.832 -0.1022 -0.3190 -0.0501
  401MOL0     C52825   8.702   1.310   7.845 -0.1431 -0.1330  0.1510
  401MOL0     C52826   8.577   1.354   7.807 -0.4107  0.7640 -0.0765
  401MOL0     C52827   8.471   1.268   7.826  0.3238  0.2845  0.1303
  401MOL0     C52828   8.486   1.134   7.867 -0.3140  0.6193  0.8933
  401MOL0     C52829   8.365   1.042   7.871  0.3778  0.3404  0.0296
  401MOL0     O52830   8.241   1.101   7.850 -0.8699 -0.1327 -0.6084
  401MOL0     C52831   8.135   1.011   7.846 -1.2722 -0.7674  0.2152
  401MOL0     C52832   8.103   0.967   7.717  0.7246  0.7794  0.6348
  401MOL0     C52833   7.997   0.872   7.710  0.1399  0.0087 -0.3443
  401MOL0     C52834   7.923   0.826   7.818  0.4198 -1.1472 -0.1738
  401MOL0     O52835   7.816   0.749   7.801 -0.8114  0.5476 -0.6492
  401MOL0     C52836   7.785   0.651   7.902 -0.7430  0.2285 -0.7661
  401MOL0     C52837   7.657   0.691   7.972 -0.2930  1.3379 -0.1570
  401MOL0     C52838   7.611   0.600   8.085 -0.2514 -0.3479  1.0658
  401MOL0     C52839   7.474   0.641   8.131  0.1789 -0.4551  0.1994
  401MOL0     C52840   7.397   0.529   8.209 -0.8569  0.1946 -0.2717
  401MOL0     C52841   7.251   0.574   8.214  0.6465  0.1833 -0.3896
  401MOL0     C52842   7.156   0.471   8.274 -0.0545 -0.5053 -0.1785
  401MOL0     C52843   7.009   0.514   8.279  0.8130 -0.5094  0.5581
  401MOL0    Cl52844   6.892   0.372   8.285  0.1398  0.2541  0.1013
  401MOL0     C52845   7.967   0.873   7.945  0.0931  0.4634  0.6035
  401MOL0     C52846   8.059   0.974   7.956  0.3451  0.0053  0.2142
  401MOL0     O52847   8.380   0.921   7.899  0.5956 -0.3194 -0.3151
  401MOL0     C52848   8.615   1.083   7.881 -0.1408  0.1994  0.5099
  401MOL0     C52849   8.723   1.169   7.882 -0.4112  0.1044 -0.5179
  401MOL0     N52850   9.252   1.651   8.033  0.3017  0.3344  0.5912
  401MOL0     N52851   9.320   1.708   8.120  0.6257 -0.6689  0.3688
  401MOL0     C52852  10.444   1.755   7.806 -0.2457 -0.8659  0.1105
  401MOL0     C52853  10.562   1.687   7.762  0.7262 -0.0027  0.0279
  401MOL0     C52854  10.853   1.318   7.696  0.4270  0.2644  0.8750
  401MOL0     C52855  10.888   1.185   7.666 -0.1229 -0.7279 -0.4954
  401MOL0     C52856  11.022   1.143   7.667  0.3565  0.1082  0.0250
  401MOL0     C52857  11.123   1.226   7.691  0.2126 -0.1746  0.5252
  401MOL0     O52858  11.242   1.166   7.660  0.3381 -0.0885  0.1693
  401MOL0     C52859  11.362   1.243   7.690 -0.9051  0.5605 -0.9002
  401MOL0     C52860  11.491   1.170   7.641  0.2957  0.0362  0.1033
  401MOL0     C52861  11.493   1.158   7.492 -0.4045  0.4192 -0.7459
  401MOL0     C52862  11.623   1.092   7.450 -0.4390  0.1973 -0.1373
  401MOL0     C52863  11.634   0.957   7.493 -0.4945 -0.3061  0.1231
  401MOL0     C52864  11.650   0.843   7.537 -0.1548  0.1221  0.5151
  401MOL0     C52865  11.093   1.364   7.733  0.1674  1.1193  0.3088
  401MOL0     C52866  10.956   1.407   7.725 -0.4461  0.3983  0.1054
  401MOL0     H52867  10.453   1.368   7.830  2.4402 -1.4218 -1.4032
  401MOL0     H52868  10.271   1.479   7.911 -1.5701  1.6285 -0.3778
  401MOL0     H52869  10.254   1.719   8.115  0.8795  1.4520 -0.3573
  401MOL0     H52870  10.116   1.624   8.041  0.6538 -1.1258 -2.1569
  401MOL0     H52871  10.008   1.839   7.973 -1.5346  0.0304  0.5805
  401MOL0     H52872  10.127   1.917   8.074 -0.9386  1.6621 -1.0293
  401MOL0     H52873  10.047   1.801   8.285  0.8327 -4.5347 -0.3023
  401MOL0     H52874   9.947   1.696   8.184  1.5859 -1.5782 -0.8486
  401MOL0     H52875   9.932   2.005   8.205 -0.3596  0.7016  2.0127
  401MOL0     H52876   9.819   1.909   8.107 -1.1069  0.6312  0.4337
  401MOL0     H52877   9.822   1.938   8.404 -0.3233  2.9977 -1.1259
  401MOL0     H52878   9.780   1.785   8.326 -0.9938  0.3050 -1.5170
  401MOL0     H52879   9.655   2.050   8.285  0.5202  0.3646  0.6027
  401MOL0     H52880   9.580   1.914   8.372  0.2377 -1.2341 -0.3387
  401MOL0     H52881   9.467   1.940   8.154  0.2317  0.3808  1.8406
  401MOL0     H52882   9.610   1.916   8.067 -1.2511  1.6273 -0.0945
  401MOL0     H52883   9.530   1.706   8.268 -1.3296  0.7442 -1.4165
  401MOL0     H52884   9.651   1.689   8.135 -0.9186  0.6226 -1.0290
  401MOL0     H52885   9.539   1.587   7.910  0.3868  0.1396 -0.2264
  401MOL0     H52886   9.364   1.524   7.749  1.0395  1.6415  0.6874
  401MOL0     H52887   9.219   1.631   7.752 -1.4031  1.9393  4.2610
  401MOL0     H52888   9.206   1.386   7.925 -1.0386 -1.2256 -1.0778
  401MOL0     H52889   9.204   1.352   7.754 -0.2145 -1.0740  1.3078
  401MOL0     H52890   9.022   1.549   7.874  0.7077  1.3472 -1.3232
  401MOL0     H52891   9.019   1.477   7.707 -1.6600 -2.2734 -0.8191
  401MOL0     H52892   8.955   1.311   7.951 -0.8486  0.6087  0.6040
  401MOL0     H52893   8.966   1.259   7.789 -1.6728 -0.5745  0.1485
  401MOL0     H52894   8.546   1.451   7.769 -0.7488  0.7858  0.2519
  401MOL0     H52895   8.372   1.304   7.800  0.7586 -0.0112 -2.1307
  401MOL0     H52896   8.160   1.003   7.632 -1.8073  1.0221 -1.0635
  401MOL0     H52897   7.957   0.838   7.615 -0.5665  0.9669 -0.4037
  401MOL0     H52898   7.864   0.648   7.978 -1.4990 -1.2273 -0.0100
  401MOL0     H52899   7.793   0.552   7.858 -0.0050  0.4296 -1.1158
  401MOL0     H52900   7.584   0.679   7.892  0.4707  1.3738 -0.8801
  401MOL0     H52901   7.655   0.794   8.010 -3.3705  0.6078  2.0398
  401MOL0     H52902   7.684   0.600   8.167  1.5484  0.5895 -0.4590
  401MOL0     H52903   7.606   0.500   8.040  0.0925  0.5917 -1.1996
  401MOL0     H52904   7.480   0.735   8.186 -0.3990 -1.4803  2.1033
  401MOL0     H52905   7.416   0.643   8.038 -0.3092 -2.5572  0.3955
  401MOL0     H52906   7.431   0.529   8.313 -3.1425  0.2770  0.5212
  401MOL0     H52907   7.413   0.439   8.149 -2.1956  0.3208 -0.8607
  401MOL0     H52908   7.208   0.596   8.115 -1.9975  0.0976  0.6596
  401MOL0     H52909   7.248   0.665   8.275  1.6376 -2.0856  3.3276
  401MOL0     H52910   7.154   0.380   8.213 -0.3777 -1.1681  0.8019
  401MOL0     H52911   7.193   0.434   8.370  0.7564 -1.5958 -0.8830
  401MOL0     H52912   6.982   0.571   8.190  3.0549  1.6163  1.1258
  401MOL0     H52913   6.985   0.589   8.356  0.4016 -0.6271  0.5506
  401MOL0     H52914   7.903   0.849   8.030  1.3060  1.5998  1.8876
  401MOL0     H52915   8.086   1.011   8.055  0.8887 -1.2651  0.5563
  401MOL0     H52916   8.631   0.977   7.900  2.5718 -0.0048 -2.1207
  401MOL0     H52917   8.817   1.125   7.913 -0.4633 -0.6672 -1.4256
  401MOL0     H52918  10.432   1.862   7.820  3.0312 -0.4438  0.3863
  401MOL0     H52919  10.642   1.745   7.717  1.3682 -0.6368  0.3503
  401MOL0     H52920  10.809   1.121   7.627  1.0057 -1.0652 -2.3424
  401MOL0     H52921  11.048   1.038   7.657  1.6970  0.3326  0.9200
  401MOL0     H52922  11.364   1.263   7.797  1.4518 -0.1137 -0.7625
  401MOL0     H52923  11.346   1.340   7.641 -0.0098  1.4451  0.4821
  401MOL0     H52924  11.578   1.231   7.669  0.1515  0.3669 -0.1685
  401MOL0     H52925  11.503   1.070   7.685 -0.5681  0.1718  0.6710
  401MOL0     H52926  11.482   1.257   7.448 -0.3386  0.1902 -1.2753
  401MOL0     H52927  11.406   1.099   7.463 -1.1173  0.7102  0.6888
  401MOL0     H52928  11.626   1.084   7.341  1.0510  1.9531 -0.2648
  401MOL0     H52929  11.714   1.147   7.474 -0.1763 -0.3988  0.2582
  401MOL0     H52930  11.651   0.744   7.576 -1.3840 -0.8861 -1.8548
  401MOL0     H52931  11.177   1.427   7.761  2.0666 -1.1771  0.1092
  401MOL0     H52932  10.921   1.509   7.737 -1.3935 -0.0102  0.9300
  402MOL0     O52933   3.450   8.746   2.419 -0.2283  0.3177  0.1020
  402MOL0     C52934   3.492   8.778   2.533 -0.4385  0.0089 -0.1817
  402MOL0     O52935   3.405   8.799   2.638 -0.1766  0.2250 -0.2638
  402MOL0     C52936   3.277   8.833   2.614  0.3194 -0.6879 -0.6925
  402MOL0     C52937   3.225   8.910   2.507  0.2932  0.5303  1.7459
  402MOL0     C52938   3.093   8.960   2.500 -0.1327 -0.2901 -0.1789
  402MOL0     C52939   2.998   8.924   2.592  0.3888 -0.2724 -0.8266
  402MOL0     O52940   2.871   8.973   2.589  0.4196  0.0660 -0.1109
  402MOL0     C52941   2.856   9.083   2.678  0.2162 -0.1840  0.1812
  402MOL0     C52942   2.699   9.111   2.686  0.0501 -0.4349  1.1537
  402MOL0     C52943   2.627   9.021   2.765  0.5483  1.2079 -0.2630
  402MOL0     C52944   2.493   9.074   2.820  0.7105 -0.7131 -0.2129
  402MOL0     C52945   2.430   8.990   2.933  0.6131 -0.7171  0.0237
  402MOL0     C52946   2.290   9.040   2.960 -0.2514  1.0636 -0.7341
  402MOL0     C52947   2.248   8.982   3.092 -0.3781  0.2307  0.3880
  402MOL0     C52948   2.112   9.031   3.125  0.0572  0.9067  0.2262
  402MOL0     N52949   2.070   8.979   3.256 -0.9342  0.5190 -0.1230
  402MOL0     C52950   2.007   8.860   3.258  0.5372 -0.3045  0.0744
  402MOL0     C52951   1.968   8.849   3.385  0.6786 -1.1154  0.6643
  402MOL0     C52952   1.885   8.732   3.424 -0.5059  0.1174  0.3661
  402MOL0     C52953   1.740   8.750   3.412  0.2871 -0.2351  0.2258
  402MOL0     C52954   1.691   8.714   3.269  0.1479  0.0852  0.3874
  402MOL0     C52955   1.536   8.715   3.265 -0.5170 -0.3227 -0.1240
  402MOL0     O52956   1.497   8.851   3.290 -0.7380 -0.6269 -0.4380
  402MOL0     C52957   1.413   8.880   3.389 -0.3563  0.3620  0.2331
  402MOL0     C52958   1.435   8.987   3.479 -0.0192 -0.2966 -0.3198
  402MOL0     C52959   1.332   9.026   3.567 -0.5701  0.3908 -0.2925
  402MOL0     C52960   1.207   8.957   3.558 -0.2254 -0.1256 -0.1932
  402MOL0     C52961   1.100   9.002   3.647  0.4436  0.1833  0.1741
  402MOL0     O52962   0.980   8.957   3.621  0.6794 -0.5385 -0.0732
  402MOL0     C52963   0.879   8.988   3.710 -0.6538 -0.1218 -0.0717
  402MOL0     C52964   0.782   9.076   3.666 -0.3792  1.0751  0.5399
  402MOL0     C52965   0.683   9.113   3.755 -0.3248 -0.0819  1.1198
  402MOL0     C52966   0.674   9.059   3.888  0.2676  0.3126 -0.2510
  402MOL0     O52967   0.574   9.106   3.981 -0.7891 -0.9030 -0.2553
  402MOL0     C52968   0.554   9.031   4.101 -0.4520  0.6483 -0.0270
  402MOL0     C52969   0.455   9.099   4.194  0.0344  0.6763 -0.0585
  402MOL0     C52970   0.322   9.127   4.117  0.7611  0.2788 -0.7198
  402MOL0     C52971   0.213   9.162   4.218  0.3136 -0.4768 -0.2777
  402MOL0     C52972   0.087   9.207   4.142  0.5339  0.2510 -0.6313
  402MOL0     C52973  -0.007   9.275   4.243  0.5966 -0.1449  0.9349
  402MOL0     C52974  -0.130   9.335   4.179  0.2719 -0.4424 -0.8612
  402MOL0     C52975  -0.237   9.357   4.287 -0.2325 -0.0830  0.0172
  402MOL0    Cl52976  -0.180   9.449   4.428 -0.2533 -0.3479 -0.3582
  402MOL0     C52977   0.769   8.964   3.918 -0.1504 -0.0048 -0.0124
  402MOL0     C52978   0.870   8.922   3.833  0.3434 -0.3286 -0.7619
  402MOL0     O52979   1.120   9.099   3.723 -0.3697  0.2400  0.1833
  402MOL0     C52980   1.186   8.848   3.479  0.6201  0.7428  0.2851
  402MOL0     C52981   1.284   8.812   3.385 -0.2605  0.2513  0.3653
  402MOL0     N52982   2.010   8.961   3.456  0.5835 -0.6499 -0.3625
  402MOL0     N52983   2.075   9.037   3.378 -0.2042  0.3351 -0.1847
  402MOL0     C52984   3.043   8.841   2.705  0.8162 -0.2109  1.2925
  402MOL0     C52985   3.180   8.803   2.716  0.6226 -0.3409  0.7889
  402MOL0     C52986   3.629   8.757   2.567  1.1952 -0.1194  0.6897
  402MOL0     C52987   3.728   8.762   2.467  0.9834  0.8380 -0.3005
  402MOL0     C52988   3.859   8.733   2.502  0.2985 -0.8756 -0.5198
  402MOL0     C52989   3.894   8.705   2.635 -0.2936  0.0036  0.9327
  402MOL0     O52990   4.030   8.686   2.647 -0.6717  0.0890  0.2994
  402MOL0     C52991   4.069   8.623   2.769  0.3437  0.0758 -0.4070
  402MOL0     C52992   4.221   8.597   2.769  0.1294  0.3378 -0.3476
  402MOL0     C52993   4.308   8.723   2.777  0.3144 -0.1920 -0.0532
  402MOL0     C52994   4.264   8.826   2.881 -0.4165  0.4943 -0.4688
  402MOL0     C52995   4.247   8.765   3.013  0.2680 -0.1407  0.5321
  402MOL0     C52996   4.232   8.727   3.126 -0.1786  0.0377 -0.8423
  402MOL0     C52997   3.797   8.704   2.730  0.1423 -0.2969 -0.4471
  402MOL0     C52998   3.663   8.732   2.696 -0.0138 -0.1150  0.4142
  402MOL0     H52999   3.290   8.928   2.422  0.8887 -1.7043  1.6699
  402MOL0     H53000   3.070   9.022   2.414 -0.9812 -0.7503 -0.2902
  402MOL0     H53001   2.918   9.164   2.637  0.8996 -0.6083  0.3526
  402MOL0     H53002   2.890   9.056   2.779 -0.1547  0.6861  0.5505
  402MOL0     H53003   2.654   9.101   2.587 -0.2462  2.0471  0.9602
  402MOL0     H53004   2.680   9.213   2.720  0.3366  0.2267 -0.5815
  402MOL0     H53005   2.681   9.007   2.860  0.1681  0.1586 -0.1878
  402MOL0     H53006   2.616   8.929   2.708  0.1924  2.8244 -2.9496
  402MOL0     H53007   2.510   9.172   2.866 -1.8713 -0.8088  1.1281
  402MOL0     H53008   2.421   9.087   2.739 -0.9974  0.7391  1.4249
  402MOL0     H53009   2.495   9.002   3.020  1.4327  0.1546 -0.6867
  402MOL0     H53010   2.430   8.884   2.907 -1.8958 -0.9469  0.6939
  402MOL0     H53011   2.211   9.009   2.891 -1.3049  0.5276  0.6683
  402MOL0     H53012   2.297   9.149   2.967 -0.5220  1.0253  0.2355
  402MOL0     H53013   2.249   8.872   3.099 -4.1686  0.1646  3.0757
  402MOL0     H53014   2.312   9.015   3.174 -1.2742  1.9364  0.4527
  402MOL0     H53015   2.047   9.003   3.042  2.4951 -3.2112 -0.6087
  402MOL0     H53016   2.115   9.140   3.128  0.3209  0.8933  2.9316
  402MOL0     H53017   1.986   8.791   3.177 -0.5627 -1.4549  1.2879
  402MOL0     H53018   1.907   8.691   3.523  1.0344 -5.6515 -1.9706
  402MOL0     H53019   1.924   8.649   3.365  2.2840 -0.3280  2.6066
  402MOL0     H53020   1.712   8.854   3.434  1.9135  0.2009  0.3634
  402MOL0     H53021   1.686   8.688   3.484 -2.6047  2.9538  1.1260
  402MOL0     H53022   1.735   8.783   3.197  1.4469 -0.3247  0.7500
  402MOL0     H53023   1.720   8.613   3.239 -3.0961 -0.1451 -2.5012
  402MOL0     H53024   1.489   8.639   3.329  1.9597 -0.6684  1.4107
  402MOL0     H53025   1.491   8.705   3.166 -1.6778  2.0118  0.1088
  402MOL0     H53026   1.535   9.023   3.500 -0.6191  1.1591  0.1349
  402MOL0     H53027   1.351   9.111   3.631  3.0731  0.1761 -0.8420
  402MOL0     H53028   0.784   9.128   3.571  1.3581  1.5186  0.7850
  402MOL0     H53029   0.612   9.175   3.702  1.6464 -0.4881 -2.2639
  402MOL0     H53030   0.650   9.033   4.154 -0.2567  1.9766 -0.3767
  402MOL0     H53031   0.524   8.927   4.089 -0.5053  0.8141 -1.5569
  402MOL0     H53032   0.481   9.195   4.240 -0.3346  2.2025 -2.7794
  402MOL0     H53033   0.428   9.031   4.275 -1.0733  2.9259  1.5814
  402MOL0     H53034   0.303   9.033   4.065  1.6600 -1.0562  1.2165
  402MOL0     H53035   0.318   9.205   4.041 -2.1518  0.5000 -0.4544
  402MOL0     H53036   0.191   9.074   4.279 -1.2769 -0.7459 -1.1891
  402MOL0     H53037   0.262   9.241   4.275  4.1907 -1.5793 -1.7025
  402MOL0     H53038   0.042   9.113   4.109  1.0006 -0.8269  1.5734
  402MOL0     H53039   0.113   9.280   4.065  1.3099  0.8121  0.1469
  402MOL0     H53040   0.049   9.357   4.289  1.2790  1.1994 -2.0269
  402MOL0     H53041  -0.028   9.199   4.319  4.2868 -0.4279  1.8929
  402MOL0     H53042  -0.092   9.424   4.128  0.1192 -1.0029 -1.9811
  402MOL0     H53043  -0.180   9.278   4.100 -0.5651 -3.7228  1.8293
  402MOL0     H53044  -0.264   9.255   4.319 -0.5253 -0.0039  0.0270
  402MOL0     H53045  -0.325   9.402   4.240  0.0533  2.5788  1.8493
  402MOL0     H53046   0.757   8.904   4.008 -0.9770  0.5101  0.2334
  402MOL0     H53047   0.929   8.833   3.847  1.6937  0.8547  1.6959
  402MOL0     H53048   1.092   8.797   3.498  1.1199  0.5379  2.5879
  402MOL0     H53049   1.263   8.726   3.322 -2.2971 -0.2337  1.6151
  402MOL0     H53050   2.971   8.816   2.783  0.6551  0.2378  1.2896
  402MOL0     H53051   3.227   8.754   2.801  3.1873  1.3922  0.5018
  402MOL0     H53052   3.691   8.788   2.368 -0.8217 -1.5880 -0.3472
  402MOL0     H53053   3.945   8.755   2.439  1.2720  2.2351  1.6812
  402MOL0     H53054   4.012   8.530   2.773  1.5720 -0.7067 -0.6456
  402MOL0     H53055   4.047   8.688   2.855  0.3380 -0.4918  0.0278
  402MOL0     H53056   4.234   8.512   2.837 -2.8009 -0.6506 -0.8760
  402MOL0     H53057   4.249   8.559   2.670  2.6591  1.3112 -0.0815
  402MOL0     H53058   4.311   8.771   2.679 -1.3769  4.4479  1.9066
  402MOL0     H53059   4.409   8.691   2.802  0.9062  1.2460 -0.4811
  402MOL0     H53060   4.344   8.900   2.889  0.0494  0.1168 -1.4860
  402MOL0     H53061   4.172   8.874   2.847 -0.5848 -1.1024 -2.4692
  402MOL0     H53062   4.218   8.698   3.228 -0.3725 -1.0077 -1.1594
  402MOL0     H53063   3.815   8.686   2.836  1.4770 -0.5069 -0.6861
  402MOL0     H53064   3.592   8.725   2.778 -0.0054  1.9551  0.6620
  403MOL0     O53065   4.116   1.556   2.572  0.3387 -0.0011 -0.9205
  403MOL0     C53066   4.052   1.647   2.628  0.4373  0.9686  0.2406
  403MOL0     O53067   4.085   1.782   2.625  0.8857  0.1444  0.1520
  403MOL0     C53068   4.191   1.823   2.550  0.3979 -0.1643 -0.1150
  403MOL0     C53069   4.317   1.786   2.581 -0.0249  0.2067  0.7959
  403MOL0     C53070   4.420   1.831   2.492  0.4647  0.4547  0.4276
  403MOL0     C53071   4.401   1.903   2.372  0.8391 -0.2383  0.6570
  403MOL0     O53072   4.505   1.933   2.285 -0.2574  0.0741  0.0849
  403MOL0     C53073   4.504   2.057   2.216 -0.5784  0.3829 -0.7669
  403MOL0     C53074   4.474   2.020   2.070 -0.3884  0.0853 -0.6957
  403MOL0     C53075   4.518   2.135   1.979  0.1956  0.1727 -0.3112
  403MOL0     C53076   4.476   2.110   1.837 -0.3675  0.2097  0.8614
  403MOL0     C53077   4.538   2.205   1.725  1.0521 -0.0954 -0.0879
  403MOL0     C53078   4.556   2.125   1.600 -0.2543  0.9873  0.1540
  403MOL0     C53079   4.608   2.214   1.488  0.1333  0.8156 -0.6597
  403MOL0     C53080   4.663   2.144   1.364  0.7200 -0.2189  0.2283
  403MOL0     N53081   4.552   2.104   1.277  0.1917 -0.1199  0.1475
  403MOL0     C53082   4.476   2.180   1.198  0.5854  0.3265 -0.8861
  403MOL0     C53083   4.390   2.093   1.135 -0.2358  0.2643  0.6140
  403MOL0     C53084   4.288   2.129   1.022  0.5027 -0.0034 -0.3825
  403MOL0     C53085   4.172   2.027   1.018 -1.1865  0.1379  0.0195
  403MOL0     C53086   4.061   2.086   0.942  0.0502 -0.1921 -1.1797
  403MOL0     C53087   3.978   1.977   0.871 -0.3334  0.5611  0.6765
  403MOL0     O53088   3.933   1.878   0.958  0.5180  0.1581 -0.5029
  403MOL0     C53089   3.814   1.907   1.023  0.1036 -0.1518 -0.9737
  403MOL0     C53090   3.763   1.800   1.082  0.4071 -1.0660 -0.1019
  403MOL0     C53091   3.648   1.796   1.147 -0.7997  0.5565  0.5743
  403MOL0     C53092   3.568   1.914   1.158  0.0774  0.5821  0.4791
  403MOL0     C53093   3.450   1.911   1.249  0.4579  0.5127  0.5987
  403MOL0     O53094   3.450   1.816   1.353  0.8421  0.0338  0.2185
  403MOL0     C53095   3.327   1.807   1.427  0.1604 -0.0223  0.5644
  403MOL0     C53096   3.326   1.757   1.557  0.0183  0.1458 -1.2217
  403MOL0     C53097   3.209   1.723   1.631  0.7361 -0.5768 -0.8987
  403MOL0     C53098   3.082   1.735   1.571 -0.2932  0.8074  0.9526
  403MOL0     O53099   2.976   1.691   1.645  0.2183  0.0521  0.3042
  403MOL0     C53100   2.881   1.785   1.695  0.5280 -0.5617 -0.3626
  403MOL0     C53101   2.757   1.704   1.743 -0.8183 -0.3961  0.0202
  403MOL0     C53102   2.654   1.798   1.806  0.2688  0.3869  0.5725
  403MOL0     C53103   2.522   1.731   1.835  0.8994  0.0415 -0.0532
  403MOL0     C53104   2.424   1.823   1.909 -0.3655 -0.0585 -0.7409
  403MOL0     C53105   2.284   1.769   1.919  0.0492  0.6604 -0.4365
  403MOL0     C53106   2.183   1.872   1.970  0.4491 -0.5612 -0.1711
  403MOL0     C53107   2.044   1.825   2.007 -0.1349 -0.2115  0.0180
  403MOL0    Cl53108   1.965   1.943   2.108  0.5147  0.2561  0.1655
  403MOL0     C53109   3.072   1.785   1.437  0.0221  0.2206 -0.6162
  403MOL0     C53110   3.199   1.822   1.368  0.1456  0.1840 -0.2484
  403MOL0     O53111   3.369   2.000   1.228  0.2880 -0.0229  0.0921
  403MOL0     C53112   3.624   2.032   1.109 -0.5040  0.1369 -0.1315
  403MOL0     C53113   3.748   2.027   1.038  0.4902 -0.5540 -0.6073
  403MOL0     N53114   4.407   1.962   1.180  0.1154  0.6026 -0.4050
  403MOL0     N53115   4.508   1.973   1.269 -0.6347  0.4294 -0.4382
  403MOL0     C53116   4.271   1.944   2.343 -0.6409 -0.1751  0.3612
  403MOL0     C53117   4.173   1.913   2.438  0.4170 -0.2361 -0.0043
  403MOL0     C53118   3.937   1.607   2.704 -0.1628 -0.7154  0.0591
  403MOL0     C53119   3.863   1.715   2.763 -0.3819  0.5089 -0.4028
  403MOL0     C53120   3.748   1.679   2.837  0.3929  1.2501 -0.1570
  403MOL0     C53121   3.711   1.541   2.853 -0.0338 -0.2362 -0.3950
  403MOL0     O53122   3.597   1.514   2.928  0.2749  0.7135 -0.5369
  403MOL0     C53123   3.617   1.440   3.049 -0.5641 -0.6692  0.3194
  403MOL0     C53124   3.646   1.527   3.169  0.0898 -0.6922  0.0997
  403MOL0     C53125   3.531   1.628   3.180  0.1478  0.3770  0.0626
  403MOL0     C53126   3.527   1.688   3.320  0.4909 -0.0274 -0.2619
  403MOL0     C53127   3.656   1.735   3.360 -0.3055 -0.1228 -0.5293
  403MOL0     C53128   3.761   1.784   3.380  0.0628  0.7720 -0.1651
  403MOL0     C53129   3.779   1.442   2.791 -0.3954 -0.1147  0.3359
  403MOL0     C53130   3.892   1.477   2.716 -0.1451 -0.1495  1.0114
  403MOL0     H53131   4.324   1.728   2.673  0.0447 -1.2443 -0.0917
  403MOL0     H53132   4.518   1.790   2.514  0.2580 -0.3751 -0.1802
  403MOL0     H53133   4.605   2.098   2.223 -1.2717  1.9017  1.3314
  403MOL0     H53134   4.434   2.134   2.249  0.1487  1.0499 -0.7546
  403MOL0     H53135   4.369   1.996   2.053 -0.3264  0.3959 -1.5460
  403MOL0     H53136   4.533   1.934   2.039 -0.4746 -0.8025  1.4293
  403MOL0     H53137   4.627   2.149   1.986  0.2700  1.0206 -2.4493
  403MOL0     H53138   4.472   2.228   2.014 -0.7670 -0.2089 -0.5364
  403MOL0     H53139   4.494   2.010   1.797  0.6628  1.3718 -1.7875
  403MOL0     H53140   4.368   2.126   1.839 -0.0306  3.9626 -1.5499
  403MOL0     H53141   4.635   2.246   1.754  0.5390  0.6747  0.5869
  403MOL0     H53142   4.475   2.294   1.715  0.8140 -0.1750  0.6031
  403MOL0     H53143   4.463   2.075   1.572  0.8475 -0.3603 -1.2879
  403MOL0     H53144   4.636   2.051   1.611  0.1912  1.4851  0.2803
  403MOL0     H53145   4.525   2.284   1.476 -0.5593  0.3367  1.0608
  403MOL0     H53146   4.687   2.280   1.525  0.0994  0.4324  0.1125
  403MOL0     H53147   4.729   2.057   1.380 -0.4211 -1.4406 -1.3855
  403MOL0     H53148   4.732   2.208   1.309  2.2627 -3.0287 -1.3199
  403MOL0     H53149   4.476   2.288   1.188 -1.2033  0.7024  1.8426
  403MOL0     H53150   4.325   2.119   0.919 -0.7152 -4.3416 -0.6271
  403MOL0     H53151   4.256   2.232   1.039 -1.0047 -0.6664  1.0776
  403MOL0     H53152   4.136   1.996   1.116 -1.8573  0.9229  0.0270
  403MOL0     H53153   4.213   1.940   0.964  3.5142  1.4318  1.0302
  403MOL0     H53154   4.002   2.129   1.023  1.6662  0.0286 -0.0797
  403MOL0     H53155   4.076   2.169   0.872 -3.2772  3.9862  2.4495
  403MOL0     H53156   4.034   1.928   0.791 -2.4375 -1.4928  0.3674
  403MOL0     H53157   3.895   2.032   0.826 -2.2794 -2.2868  0.5385
  403MOL0     H53158   3.800   1.699   1.067 -3.6452 -2.5878 -1.1895
  403MOL0     H53159   3.607   1.706   1.193  0.2951  0.6379  1.7562
  403MOL0     H53160   3.420   1.740   1.608 -0.5948  1.1263  0.3512
  403MOL0     H53161   3.202   1.693   1.735 -2.2846  0.4762 -0.6962
  403MOL0     H53162   2.859   1.865   1.624  1.1765  1.6447  1.7910
  403MOL0     H53163   2.922   1.824   1.789 -1.1023 -2.5151  1.2651
  403MOL0     H53164   2.780   1.630   1.820 -2.2655 -1.0065 -0.1044
  403MOL0     H53165   2.709   1.650   1.662  1.3802  0.0737 -1.6988
  403MOL0     H53166   2.633   1.881   1.739 -1.0413 -0.9485 -0.7415
  403MOL0     H53167   2.690   1.835   1.903 -2.5388  6.2525 -0.1625
  403MOL0     H53168   2.482   1.708   1.736 -1.4131  3.7307 -0.1665
  403MOL0     H53169   2.534   1.635   1.886 -1.0593 -1.7698 -2.7519
  403MOL0     H53170   2.417   1.922   1.863  1.4423  1.1555  1.3862
  403MOL0     H53171   2.466   1.849   2.007 -0.2599 -0.5763 -0.6443
  403MOL0     H53172   2.296   1.687   1.991  0.8760  0.2774 -0.9998
  403MOL0     H53173   2.255   1.726   1.823 -0.6767  0.6395 -0.2156
  403MOL0     H53174   2.227   1.927   2.054  1.7323  0.1018 -1.2432
  403MOL0     H53175   2.151   1.949   1.899 -3.4368  0.6509  2.5009
  403MOL0     H53176   2.072   1.737   2.065  2.0642  1.2195  1.2672
  403MOL0     H53177   1.986   1.801   1.917 -1.2972  2.6082 -0.0832
  403MOL0     H53178   2.971   1.785   1.395 -1.3425 -0.8065  2.3988
  403MOL0     H53179   3.195   1.838   1.260 -0.0468 -2.3170 -0.6626
  403MOL0     H53180   3.579   2.127   1.136  0.0797 -0.1623  2.0964
  403MOL0     H53181   3.780   2.123   0.998 -0.8519 -0.0905 -0.6059
  403MOL0     H53182   4.256   2.006   2.254  2.1362 -1.6416 -1.2765
  403MOL0     H53183   4.071   1.949   2.427  0.5552  0.0439 -0.4073
  403MOL0     H53184   3.887   1.818   2.739  1.4516  0.0144 -0.8022
  403MOL0     H53185   3.693   1.755   2.893  1.2769  3.0940 -1.6773
  403MOL0     H53186   3.705   1.377   3.032  0.1419  0.4041 -0.0729
  403MOL0     H53187   3.531   1.379   3.077  0.1692 -1.6310  0.5290
  403MOL0     H53188   3.634   1.463   3.257  0.2715 -0.3843  0.3490
  403MOL0     H53189   3.748   1.565   3.173 -0.2158  0.0251  1.6428
  403MOL0     H53190   3.431   1.586   3.166  0.6901 -1.7472  1.8181
  403MOL0     H53191   3.541   1.700   3.099  2.8183  0.6054  0.4904
  403MOL0     H53192   3.459   1.774   3.313 -1.7451 -1.6689  0.2585
  403MOL0     H53193   3.486   1.635   3.406 -2.3200  0.0332 -1.4812
  403MOL0     H53194   3.860   1.821   3.399  0.8667  0.0591 -2.6306
  403MOL0     H53195   3.742   1.340   2.800  0.0954 -0.4648 -1.1781
  403MOL0     H53196   3.938   1.393   2.666  0.9855  1.1976 -0.3085
  404MOL0     O53197   8.643   9.573   2.476  0.0248 -0.7082 -0.7766
  404MOL0     C53198   8.690   9.578   2.364 -0.3033  0.3065 -0.2223
  404MOL0     O53199   8.691   9.684   2.277  0.4607  1.0946 -0.2476
  404MOL0     C53200   8.639   9.801   2.311 -1.0045  0.2408  0.4867
  404MOL0     C53201   8.520   9.839   2.262 -0.7542  0.0516  0.3325
  404MOL0     C53202   8.466   9.966   2.301  0.2650  0.8481 -0.6320
  404MOL0     C53203   8.541  10.058   2.381  0.1309  0.4490  0.2002
  404MOL0     O53204   8.494  10.190   2.408 -0.1291 -0.6733  0.1611
  404MOL0     C53205   8.377  10.236   2.347  0.0993  0.3467 -0.2284
  404MOL0     C53206   8.336  10.369   2.416  0.5680 -0.3242  0.3507
  404MOL0     C53207   8.194  10.412   2.382  0.2215  0.9386  0.2740
  404MOL0     C53208   8.144  10.514   2.481 -0.2824 -0.1573  0.0724
  404MOL0     C53209   8.223  10.641   2.493 -0.3098 -0.5452 -1.2989
  404MOL0     C53210   8.135  10.764   2.530 -0.8843  0.5299 -0.2844
  404MOL0     C53211   8.209  10.892   2.576  0.0908 -0.2328 -0.6182
  404MOL0     C53212   8.105  10.995   2.636 -0.2039  0.2768  0.0055
  404MOL0     N53213   7.979  11.003   2.557  0.0961  0.2076 -0.4246
  404MOL0     C53214   7.975  11.046   2.423  0.2292 -0.0498 -0.2924
  404MOL0     C53215   7.841  11.031   2.391  0.6460  0.2261  0.4967
  404MOL0     C53216   7.777  11.051   2.261 -0.4995 -0.6441  0.7358
  404MOL0     C53217   7.658  11.146   2.258  0.2622  0.0279  0.0245
  404MOL0     C53218   7.701  11.294   2.294 -0.0054 -0.1874  0.2077
  404MOL0     C53219   7.576  11.382   2.293 -0.3010 -0.0870  0.3495
  404MOL0     O53220   7.592  11.518   2.340  0.2119 -0.3344 -0.0204
  404MOL0     C53221   7.477  11.602   2.346  0.0139 -0.0110  0.1559
  404MOL0     C53222   7.498  11.738   2.372  1.0637  0.3745 -0.6268
  404MOL0     C53223   7.402  11.833   2.400  0.2633  0.2597  0.8517
  404MOL0     C53224   7.267  11.784   2.412  0.6294 -0.1922 -0.5705
  404MOL0     C53225   7.161  11.869   2.474 -0.5075  0.1974  0.3539
  404MOL0     O53226   7.058  11.799   2.528 -0.3541 -0.1795 -0.3973
  404MOL0     C53227   6.949  11.856   2.587  0.2360 -0.7685  0.3343
  404MOL0     C53228   6.888  11.973   2.546 -0.0291  0.7259 -0.2763
  404MOL0     C53229   6.768  12.019   2.597 -0.4672  0.1506 -0.4336
  404MOL0     C53230   6.700  11.950   2.695  0.0886 -0.0462  0.2013
  404MOL0     O53231   6.576  11.992   2.742  0.9748  0.2138 -0.4429
  404MOL0     C53232   6.489  12.071   2.659  0.2365 -0.2141  0.0998
  404MOL0     C53233   6.372  12.109   2.748  0.8164 -0.2560 -0.6467
  404MOL0     C53234   6.271  11.984   2.754 -0.4767  0.7623  0.9008
  404MOL0     C53235   6.158  12.022   2.836 -0.6511 -0.3306 -0.4021
  404MOL0     C53236   6.040  11.926   2.828  0.3437 -0.6662 -0.8256
  404MOL0     C53237   5.923  11.972   2.926 -0.6184  0.0122 -0.0485
  404MOL0     C53238   5.798  11.892   2.883 -0.4395  0.2526  0.6138
  404MOL0     C53239   5.673  11.913   2.972 -0.8147 -0.1073 -0.5660
  404MOL0    Cl53240   5.592  12.057   2.929 -0.3575 -0.2847  0.0980
  404MOL0     C53241   6.763  11.842   2.750  0.3839 -0.0997 -0.2660
  404MOL0     C53242   6.890  11.802   2.702  0.0497  0.2697  0.6838
  404MOL0     O53243   7.178  11.990   2.476  0.3959  0.0453 -0.5472
  404MOL0     C53244   7.238  11.647   2.381  0.7475 -0.4196  0.5181
  404MOL0     C53245   7.342  11.553   2.347 -0.4640  0.2699 -0.0650
  404MOL0     N53246   7.772  10.984   2.504 -0.0994  0.2745  0.2265
  404MOL0     N53247   7.852  10.968   2.601  0.6604  0.4805 -0.9903
  404MOL0     C53248   8.670  10.015   2.429 -0.0092  0.0226 -0.0194
  404MOL0     C53249   8.713   9.887   2.391 -0.5198  0.1679 -0.8473
  404MOL0     C53250   8.757   9.453   2.331 -0.2580 -0.7520  0.3321
  404MOL0     C53251   8.784   9.351   2.422 -0.9069  0.1346  0.9277
  404MOL0     C53252   8.863   9.242   2.380  0.0381  0.7522  0.2790
  404MOL0     C53253   8.913   9.230   2.249  0.2584 -0.3191  0.6394
  404MOL0     O53254   8.988   9.124   2.222 -0.2061  0.5775 -0.3017
  404MOL0     C53255   9.077   9.139   2.112  0.1902  0.3546  0.0934
  404MOL0     C53256   9.193   9.042   2.142  0.0948  0.2210  0.7799
  404MOL0     C53257   9.301   9.043   2.034  0.2146 -0.3944 -0.0685
  404MOL0     C53258   9.400   8.926   2.053  0.1420  0.1643 -0.7409
  404MOL0     C53259   9.527   8.936   1.981  0.1887  0.0411 -1.2822
  404MOL0     C53260   9.619   8.944   1.909 -0.2540  0.0815  0.6621
  404MOL0     C53261   8.877   9.324   2.158 -0.6153 -0.5681 -0.6994
  404MOL0     C53262   8.797   9.436   2.194 -1.0093 -0.1830 -0.2192
  404MOL0     H53263   8.477   9.764   2.196 -1.4783  2.4156 -2.0333
  404MOL0     H53264   8.374   9.991   2.249 -0.8616 -1.2012  0.2557
  404MOL0     H53265   8.296  10.163   2.347  1.2986 -1.0282 -0.1069
  404MOL0     H53266   8.397  10.251   2.241 -0.3874  0.7282 -0.2705
  404MOL0     H53267   8.400  10.454   2.390 -1.6736  1.1634 -0.5996
  404MOL0     H53268   8.341  10.347   2.523  0.5442 -1.2918  0.1633
  404MOL0     H53269   8.129  10.324   2.390 -0.8483  1.7208  0.4585
  404MOL0     H53270   8.192  10.459   2.283 -0.0257 -1.6725 -1.0440
  404MOL0     H53271   8.039  10.540   2.462  0.1197  2.2251  0.7696
  404MOL0     H53272   8.150  10.470   2.582  0.6340 -0.7914 -0.2492
  404MOL0     H53273   8.269  10.661   2.396  2.0780 -0.1387 -0.1559
  404MOL0     H53274   8.304  10.629   2.566  0.9255  2.9548 -1.9006
  404MOL0     H53275   8.081  10.730   2.619 -0.7895  1.1982  0.0386
  404MOL0     H53276   8.067  10.769   2.445 -2.0036  1.6721  0.6346
  404MOL0     H53277   8.278  10.862   2.655 -0.3732  2.3734  0.9028
  404MOL0     H53278   8.271  10.928   2.493  0.5404 -1.7427 -0.9763
  404MOL0     H53279   8.160  11.088   2.619  2.7317 -1.4151 -0.5351
  404MOL0     H53280   8.095  10.973   2.743 -1.4535  1.7670  0.2190
  404MOL0     H53281   8.057  11.092   2.369 -2.5517  3.7567 -1.7496
  404MOL0     H53282   7.741  10.954   2.228 -0.1183  0.9190 -5.5123
  404MOL0     H53283   7.853  11.080   2.188 -2.0936 -1.0061 -1.1390
  404MOL0     H53284   7.579  11.121   2.329 -2.7304  0.9549 -2.7491
  404MOL0     H53285   7.613  11.143   2.158 -1.3897  0.0272  0.7430
  404MOL0     H53286   7.766  11.300   2.382  2.1320  0.5607 -1.3286
  404MOL0     H53287   7.759  11.335   2.210 -0.8226  0.3878 -0.0869
  404MOL0     H53288   7.511  11.331   2.365 -2.3135  0.0438 -1.2885
  404MOL0     H53289   7.530  11.376   2.194  1.6245  1.6898 -0.7390
  404MOL0     H53290   7.605  11.760   2.369  0.9117  1.1768 -0.3229
  404MOL0     H53291   7.435  11.934   2.421 -0.7340  0.8834 -0.4214
  404MOL0     H53292   6.932  12.018   2.457  3.1841 -2.3980 -0.5017
  404MOL0     H53293   6.729  12.106   2.545 -1.4023 -1.6245 -2.8983
  404MOL0     H53294   6.460  12.015   2.570  3.2189  0.8957 -1.7377
  404MOL0     H53295   6.536  12.158   2.614 -1.2016  2.3407  3.1248
  404MOL0     H53296   6.335  12.201   2.701 -1.5747 -1.3330 -1.0242
  404MOL0     H53297   6.407  12.132   2.849 -0.7692 -0.6072  0.0202
  404MOL0     H53298   6.312  11.897   2.805  0.7497 -0.1500 -1.5006
  404MOL0     H53299   6.249  11.947   2.653 -1.7802  0.6213  1.2139
  404MOL0     H53300   6.201  12.021   2.936  1.3071 -1.6344 -1.2047
  404MOL0     H53301   6.109  12.119   2.817 -0.7818  0.3535  2.8278
  404MOL0     H53302   6.060  11.821   2.853 -0.7870 -0.3017  1.9913
  404MOL0     H53303   6.015  11.921   2.722  3.8063 -1.2048 -1.7607
  404MOL0     H53304   5.911  12.080   2.913  3.2483  0.5294 -0.7965
  404MOL0     H53305   5.951  11.958   3.031  1.9360  0.7451 -0.5623
  404MOL0     H53306   5.777  11.926   2.781  0.1686 -0.6505  0.1726
  404MOL0     H53307   5.818  11.785   2.877  1.6520  0.6660 -1.6113
  404MOL0     H53308   5.706  11.917   3.076 -1.3941 -1.5925 -0.3008
  404MOL0     H53309   5.600  11.834   2.954  0.2532 -0.4285 -4.2549
  404MOL0     H53310   6.715  11.787   2.830 -1.7998  1.4741 -0.4027
  404MOL0     H53311   6.948  11.722   2.748  0.2077  0.2180  0.3984
  404MOL0     H53312   7.136  11.608   2.381  1.9820 -4.1269 -1.1820
  404MOL0     H53313   7.324  11.446   2.338  0.4796  0.0116  0.9536
  404MOL0     H53314   8.728  10.086   2.486 -0.8690  0.7801 -0.0689
  404MOL0     H53315   8.810   9.855   2.427 -0.3041  1.9185  0.2171
  404MOL0     H53316   8.771   9.349   2.530  0.7281 -0.7279  1.1427
  404MOL0     H53317   8.883   9.161   2.449 -1.4746 -0.6393 -0.8362
  404MOL0     H53318   9.115   9.240   2.097 -1.2184  0.6887 -1.6305
  404MOL0     H53319   9.031   9.109   2.017  3.1947 -2.4208 -0.6606
  404MOL0     H53320   9.248   9.051   2.236  1.8465 -2.2496  0.0843
  404MOL0     H53321   9.148   8.943   2.135  0.7393 -0.0300  0.0102
  404MOL0     H53322   9.355   9.138   2.038  0.3003 -0.3922 -1.2216
  404MOL0     H53323   9.255   9.039   1.935  1.9867  1.1054 -1.0083
  404MOL0     H53324   9.422   8.912   2.159 -1.6760 -1.6170 -0.5343
  404MOL0     H53325   9.348   8.836   2.018 -0.1766  0.2932 -0.6026
  404MOL0     H53326   9.705   8.923   1.848 -1.5939 -0.4628 -1.1064
  404MOL0     H53327   8.920   9.321   2.058 -0.0227 -0.3718 -0.4594
  404MOL0     H53328   8.766   9.501   2.113  4.6392 -0.4452 -3.0905
  405MOL0     O53329  11.068   0.575   8.226 -0.0237  0.1147 -0.2195
  405MOL0     C53330  11.036   0.619   8.112 -0.1062  0.0686 -0.0836
  405MOL0     O53331  10.930   0.710   8.092 -0.7585 -0.5716  0.3444
  405MOL0     C53332  10.851   0.765   8.194 -1.2114  0.2569  0.2075
  405MOL0     C53333  10.849   0.900   8.211 -0.4600  0.2010  0.3063
  405MOL0     C53334  10.779   0.965   8.311  0.2335 -0.1754  0.2608
  405MOL0     C53335  10.703   0.891   8.402  0.0855  1.0579 -0.2494
  405MOL0     O53336  10.619   0.949   8.494  1.2024 -0.0077 -0.7442
  405MOL0     C53337  10.686   1.028   8.596 -0.5230  0.4074  0.5324
  405MOL0     C53338  10.603   1.017   8.717  0.1162 -0.2720  0.8010
  405MOL0     C53339  10.662   1.111   8.820 -0.6860 -0.3867  0.4802
  405MOL0     C53340  10.576   1.112   8.949  0.1570  0.4427  0.5152
  405MOL0     C53341  10.637   1.199   9.058  0.3962 -0.0126  0.3287
  405MOL0     C53342  10.611   1.141   9.197  0.0456 -0.1611 -0.0086
  405MOL0     C53343  10.458   1.133   9.219  0.2977  0.7224  0.4136
  405MOL0     C53344  10.430   1.120   9.369 -0.9961 -0.5627  0.1369
  405MOL0     N53345  10.290   1.128   9.397  0.6238  0.1998 -0.0578
  405MOL0     C53346  10.219   1.018   9.433 -0.4088  0.3136  0.4797
  405MOL0     C53347  10.087   1.054   9.471 -0.7947  0.4938  0.2026
  405MOL0     C53348   9.981   0.947   9.512  0.0435 -0.8295 -0.7322
  405MOL0     C53349   9.840   1.010   9.490 -0.0584  0.5003 -0.5727
  405MOL0     C53350   9.732   0.908   9.440 -0.0294  0.0763  0.5873
  405MOL0     C53351   9.754   0.767   9.503 -0.8630 -0.3239 -0.6515
  405MOL0     O53352   9.753   0.760   9.645 -0.7702 -0.1661 -0.7592
  405MOL0     C53353   9.639   0.760   9.723  0.8611 -0.7789  0.3115
  405MOL0     C53354   9.511   0.791   9.672  0.3850 -0.4792 -0.5426
  405MOL0     C53355   9.395   0.781   9.747 -0.1534 -0.8722 -0.1493
  405MOL0     C53356   9.395   0.744   9.886 -0.1081  0.3534  0.0941
  405MOL0     C53357   9.281   0.723   9.973  0.7790 -0.1859  0.6012
  405MOL0     O53358   9.159   0.717   9.916  0.6281 -0.1481  0.8117
  405MOL0     C53359   9.063   0.652   9.987  0.0123 -0.4139 -0.9526
  405MOL0     C53360   9.044   0.519   9.970  1.0618 -0.1449 -0.0266
  405MOL0     C53361   8.939   0.447  10.030  0.1771  1.0586  0.2473
  405MOL0     C53362   8.850   0.516  10.113  0.3617  0.0653 -0.2758
  405MOL0     O53363   8.735   0.447  10.147  0.2389  0.1177  0.6527
  405MOL0     C53364   8.618   0.524  10.179  0.0789 -0.4210  0.2618
  405MOL0     C53365   8.492   0.445  10.151 -0.3104  0.6494  0.0375
  405MOL0     C53366   8.457   0.349  10.254 -0.2114 -0.5065 -0.5505
  405MOL0     C53367   8.320   0.276  10.231 -0.1703  0.5333  0.2134
  405MOL0     C53368   8.323   0.170  10.126 -0.2538 -0.3252  0.1707
  405MOL0     C53369   8.213   0.063  10.144  0.6295 -1.2392 -1.0536
  405MOL0     C53370   8.231  -0.055  10.057  0.9175  0.7710 -0.1616
  405MOL0     C53371   8.109  -0.145  10.050  0.2654  0.3839 -0.3527
  405MOL0    Cl53372   8.120  -0.295   9.943 -0.2844 -0.0162  0.0369
  405MOL0     C53373   8.869   0.653  10.142 -0.0526 -0.7187  0.9852
  405MOL0     C53374   8.975   0.726  10.079  0.0735  0.1184 -0.1873
  405MOL0     O53375   9.304   0.713  10.092 -0.8379  0.1704 -0.8558
  405MOL0     C53376   9.523   0.712   9.935  0.4988 -0.7004 -0.7613
  405MOL0     C53377   9.642   0.726   9.860  0.4028  0.2314  0.0920
  405MOL0     N53378  10.083   1.190   9.448  0.2845 -0.9536  0.0238
  405MOL0     N53379  10.195   1.230   9.398  0.1086 -0.0060 -0.1423
  405MOL0     C53380  10.697   0.748   8.374  0.2072  0.0264 -0.3083
  405MOL0     C53381  10.765   0.689   8.272 -1.1179  0.1020  0.1291
  405MOL0     C53382  11.124   0.585   7.999  0.0036 -0.3202  0.7357
  405MOL0     C53383  11.215   0.477   8.005 -0.5750  1.1467  0.4488
  405MOL0     C53384  11.287   0.438   7.887 -0.2989 -0.9605  0.6159
  405MOL0     C53385  11.270   0.510   7.773  0.6020  0.1443  0.8188
  405MOL0     O53386  11.328   0.461   7.653 -0.5076  0.3716  0.0713
  405MOL0     C53387  11.474   0.456   7.664  0.1783  0.2181 -0.5888
  405MOL0     C53388  11.506   0.314   7.624 -0.6949 -0.3345  0.2488
  405MOL0     C53389  11.655   0.283   7.651 -0.3638 -0.9432 -0.1074
  405MOL0     C53390  11.690   0.142   7.615 -0.2619 -0.3098 -0.4807
  405MOL0     C53391  11.838   0.135   7.619 -0.0807  0.2889 -0.8338
  405MOL0     C53392  11.958   0.125   7.637 -0.3867 -0.0234  0.3501
  405MOL0     C53393  11.190   0.625   7.765 -0.3932 -0.7552  0.2876
  405MOL0     C53394  11.115   0.662   7.881  0.0651 -0.2800  0.2167
  405MOL0     H53395  10.916   0.960   8.151  0.1539  1.6873  2.3729
  405MOL0     H53396  10.787   1.071   8.332  1.3553 -0.5303  1.8070
  405MOL0     H53397  10.700   1.133   8.567  1.5446  0.1237  0.3609
  405MOL0     H53398  10.787   0.991   8.613 -0.0972 -0.0209 -2.3493
  405MOL0     H53399  10.604   0.915   8.757  1.6603 -0.6579 -0.1321
  405MOL0     H53400  10.499   1.042   8.694 -0.1318  0.0512  2.1848
  405MOL0     H53401  10.664   1.210   8.774 -2.8039  0.2902  1.7231
  405MOL0     H53402  10.764   1.074   8.838 -0.3554 -0.7618 -1.8336
  405MOL0     H53403  10.477   1.153   8.927  0.7689  1.4917 -0.4028
  405MOL0     H53404  10.572   1.007   8.979  0.2887 -0.0068 -0.9574
  405MOL0     H53405  10.593   1.298   9.043  0.0643 -0.1245  0.5454
  405MOL0     H53406  10.746   1.204   9.055  0.4164  1.0570  1.7351
  405MOL0     H53407  10.649   1.212   9.271 -1.3397  0.2696  0.3156
  405MOL0     H53408  10.666   1.047   9.207  2.6154  1.4380  2.5357
  405MOL0     H53409  10.404   1.220   9.180  1.0507  0.8880 -0.2880
  405MOL0     H53410  10.410   1.052   9.165  1.7196  0.5931 -0.7286
  405MOL0     H53411  10.473   1.204   9.423 -2.0289  0.5089 -0.6395
  405MOL0     H53412  10.471   1.028   9.410  0.6522 -0.6221 -1.5229
  405MOL0     H53413  10.250   0.915   9.420 -0.0202  0.6109 -1.1506
  405MOL0     H53414   9.990   0.919   9.617 -1.5621  1.6171  0.1477
  405MOL0     H53415   9.987   0.860   9.446  1.1237 -0.4332 -1.1828
  405MOL0     H53416   9.846   1.078   9.405 -0.0839  0.9502 -0.2192
  405MOL0     H53417   9.807   1.059   9.582  1.6103 -0.7144  0.7313
  405MOL0     H53418   9.631   0.949   9.452 -1.1188 -0.9276 -3.7092
  405MOL0     H53419   9.739   0.880   9.335 -2.6057  2.2655 -0.2869
  405MOL0     H53420   9.842   0.720   9.457 -0.0267  0.2803  0.2675
  405MOL0     H53421   9.677   0.702   9.461  0.0672  0.0953 -3.1958
  405MOL0     H53422   9.496   0.833   9.573 -3.9826 -0.2294 -0.0075
  405MOL0     H53423   9.297   0.814   9.712  0.5057 -0.0338 -1.2769
  405MOL0     H53424   9.107   0.463   9.903 -0.5269  1.1000 -2.7163
  405MOL0     H53425   8.934   0.339  10.015 -1.1209  1.0932  0.3655
  405MOL0     H53426   8.611   0.616  10.120  0.3866 -0.6842 -0.1915
  405MOL0     H53427   8.617   0.549  10.285 -0.1169  1.4561 -0.1493
  405MOL0     H53428   8.498   0.395  10.054 -0.1241  1.1498 -0.2170
  405MOL0     H53429   8.403   0.505  10.130 -1.2918 -0.7973 -0.0578
  405MOL0     H53430   8.460   0.391  10.355 -3.2517  0.3798 -0.7603
  405MOL0     H53431   8.538   0.276  10.266  0.0230  0.0898  2.5401
  405MOL0     H53432   8.277   0.253  10.329  0.2749  4.7194  1.5954
  405MOL0     H53433   8.253   0.351  10.189  0.1009 -0.4148 -2.0482
  405MOL0     H53434   8.421   0.121  10.121  0.9463  1.8501  0.9903
  405MOL0     H53435   8.312   0.214  10.026  1.3539 -0.8920 -0.2879
  405MOL0     H53436   8.119   0.113  10.119  0.4325 -1.3973 -0.6226
  405MOL0     H53437   8.217   0.030  10.248  2.5840  1.6955 -0.0800
  405MOL0     H53438   8.247  -0.012   9.958  1.6400  1.9063  0.4239
  405MOL0     H53439   8.320  -0.108  10.094  0.1423 -2.2888 -2.2464
  405MOL0     H53440   8.029  -0.082  10.010 -3.1461 -0.4543  4.3250
  405MOL0     H53441   8.073  -0.171  10.150 -0.1935  2.3027  0.0163
  405MOL0     H53442   8.813   0.718  10.208  1.9032  0.5155  1.5288
  405MOL0     H53443   8.975   0.834  10.093 -1.6209  0.3983 -1.9180
  405MOL0     H53444   9.535   0.666  10.032 -0.0725  2.1017  0.7420
  405MOL0     H53445   9.727   0.683   9.913 -1.0765 -3.0406  0.0655
  405MOL0     H53446  10.636   0.691   8.443 -0.5756 -0.0837 -1.0690
  405MOL0     H53447  10.754   0.582   8.260 -1.3081  0.2328 -0.9537
  405MOL0     H53448  11.235   0.416   8.093  3.7998 -1.5409 -2.0699
  405MOL0     H53449  11.348   0.348   7.882 -2.5589 -2.5112 -0.6755
  405MOL0     H53450  11.503   0.484   7.766 -0.5618 -1.2039  0.0448
  405MOL0     H53451  11.518   0.520   7.587 -1.0491  0.7596 -0.8667
  405MOL0     H53452  11.443   0.249   7.685 -0.8579  0.8526  1.4080
  405MOL0     H53453  11.498   0.303   7.516 -1.3693 -4.0430  0.5593
  405MOL0     H53454  11.656   0.292   7.760 -1.5659  2.1627 -0.2630
  405MOL0     H53455  11.720   0.359   7.606  1.9048 -3.0187 -0.5665
  405MOL0     H53456  11.639   0.068   7.676 -0.8829 -0.8975 -1.6752
  405MOL0     H53457  11.663   0.117   7.512  0.3671 -0.5901 -0.5825
  405MOL0     H53458  12.059   0.115   7.669  0.1053  3.3111  0.1419
  405MOL0     H53459  11.168   0.686   7.679  1.8256  3.0008  2.1321
  405MOL0     H53460  11.037   0.738   7.877 -1.1689 -1.5486 -1.6743
  406MOL0     O53461   6.119   8.764   3.294  0.6564  0.6886 -0.0076
  406MOL0     C53462   6.149   8.880   3.299  0.0564 -0.0735  0.4463
  406MOL0     O53463   6.078   8.978   3.248  0.1219 -0.0767  0.6611
  406MOL0     C53464   5.952   8.943   3.204 -0.3693 -0.5651  0.2871
  406MOL0     C53465   5.923   8.854   3.093 -0.4630 -0.1796 -0.2448
  406MOL0     C53466   5.795   8.830   3.045 -0.7083  0.3037  0.0051
  406MOL0     C53467   5.686   8.883   3.114 -0.9466 -0.2423 -0.4975
  406MOL0     O53468   5.554   8.857   3.079 -0.6722  0.2024  0.0994
  406MOL0     C53469   5.474   8.782   3.174  0.0806 -0.2029  0.5311
  406MOL0     C53470   5.326   8.816   3.145 -0.5979 -0.6032 -0.1710
  406MOL0     C53471   5.241   8.702   3.195 -0.2655  0.0442 -0.1580
  406MOL0     C53472   5.238   8.697   3.353  0.2161 -0.1905 -0.4322
  406MOL0     C53473   5.173   8.567   3.404 -0.0916 -0.0536  0.1706
  406MOL0     C53474   5.190   8.566   3.551  0.3490 -0.0270 -0.6175
  406MOL0     C53475   5.104   8.467   3.614 -0.5934  0.0079  0.4361
  406MOL0     C53476   5.169   8.327   3.621 -0.1174  0.0795 -0.4317
  406MOL0     N53477   5.096   8.218   3.685 -0.1002 -0.9375  0.8066
  406MOL0     C53478   5.069   8.209   3.822 -0.0307 -1.4832  0.2028
  406MOL0     C53479   5.002   8.093   3.842 -0.3165 -0.3026  0.1766
  406MOL0     C53480   4.940   8.022   3.970 -1.2299 -1.1837 -0.0327
  406MOL0     C53481   4.792   8.053   3.987  0.1923  0.0730 -0.2547
  406MOL0     C53482   4.754   8.051   4.138 -0.2011  1.5468  0.1136
  406MOL0     C53483   4.622   8.120   4.148  0.5723 -0.6967  0.2712
  406MOL0     O53484   4.518   8.073   4.053 -0.1142  0.3615  0.6934
  406MOL0     C53485   4.401   8.142   4.061 -0.3500  0.6901 -0.2660
  406MOL0     C53486   4.367   8.248   4.154  0.0158 -0.4815 -0.2578
  406MOL0     C53487   4.244   8.304   4.151 -0.4039 -0.5978 -0.3266
  406MOL0     C53488   4.147   8.274   4.050 -1.2391 -0.1858 -0.3799
  406MOL0     C53489   4.008   8.331   4.050 -0.6205 -0.6309 -0.5386
  406MOL0     O53490   3.916   8.277   3.959 -0.8764 -0.3257  0.0196
  406MOL0     C53491   3.806   8.335   3.920 -0.4013 -0.5152 -0.7431
  406MOL0     C53492   3.702   8.245   3.903  0.0992  0.0187  0.3019
  406MOL0     C53493   3.578   8.298   3.871 -0.1944  0.7956  0.1956
  406MOL0     C53494   3.549   8.429   3.853 -0.5642  0.3615 -0.1962
  406MOL0     O53495   3.424   8.489   3.819  0.4192 -0.7613 -0.1416
  406MOL0     C53496   3.310   8.402   3.850  0.2800 -0.3828  0.4701
  406MOL0     C53497   3.174   8.466   3.840 -0.3877 -0.6620  0.0345
  406MOL0     C53498   3.060   8.360   3.862  0.3369 -0.2935 -0.3161
  406MOL0     C53499   2.926   8.437   3.840 -0.5509  0.3747 -0.8400
  406MOL0     C53500   2.804   8.341   3.850 -0.2732 -0.5416 -0.5528
  406MOL0     C53501   2.671   8.399   3.809  0.0884  0.1503  0.2049
  406MOL0     C53502   2.557   8.307   3.844  0.4866  0.3482  0.4409
  406MOL0     C53503   2.478   8.272   3.714 -0.2658  0.1476  0.4037
  406MOL0    Cl53504   2.325   8.200   3.755 -0.1120  0.3782  0.2505
  406MOL0     C53505   3.659   8.518   3.863  0.2304  0.1145  0.1402
  406MOL0     C53506   3.788   8.472   3.895  0.2954  0.5585  0.1010
  406MOL0     O53507   3.987   8.422   4.126 -0.1729  0.0694 -0.1095
  406MOL0     C53508   4.175   8.166   3.953 -0.9845 -0.3453 -0.3797
  406MOL0     C53509   4.300   8.107   3.969 -0.2783  0.6514 -0.2210
  406MOL0     N53510   4.988   8.040   3.715  0.2132  0.0681  0.5937
  406MOL0     N53511   5.042   8.107   3.621  0.1190 -0.2357 -0.6311
  406MOL0     C53512   5.710   8.973   3.229 -0.5333 -0.1349 -0.2631
  406MOL0     C53513   5.840   9.004   3.269  0.1543  0.2007  0.7372
  406MOL0     C53514   6.291   8.899   3.349 -1.0038  0.5197  0.2506
  406MOL0     C53515   6.375   8.796   3.393  0.2428 -0.1912  0.7140
  406MOL0     C53516   6.498   8.823   3.444 -0.4252  0.6971 -1.1492
  406MOL0     C53517   6.561   8.949   3.435  0.1638 -0.0050 -0.7240
  406MOL0     O53518   6.691   8.976   3.491 -0.1193  0.0023 -0.1358
  406MOL0     C53519   6.797   9.045   3.415  0.1280  0.3121  0.9615
  406MOL0     C53520   6.835   8.946   3.298  0.3908  0.4692 -0.2441
  406MOL0     C53521   6.883   8.811   3.341 -0.5372 -0.3200  0.1795
  406MOL0     C53522   6.986   8.801   3.450 -0.4520 -0.5445 -0.2657
  406MOL0     C53523   7.061   8.676   3.465 -0.0751 -0.2221 -0.6863
  406MOL0     C53524   7.111   8.565   3.479  0.9048  0.7048  0.2990
  406MOL0     C53525   6.473   9.056   3.390  0.0991  0.1236 -0.0457
  406MOL0     C53526   6.349   9.025   3.341 -0.2472 -0.5015  0.4196
  406MOL0     H53527   6.013   8.815   3.047 -1.4659 -4.9041  1.2637
  406MOL0     H53528   5.775   8.778   2.952  0.6735 -0.0187 -0.1267
  406MOL0     H53529   5.506   8.817   3.273  2.1775 -0.8264  0.1294
  406MOL0     H53530   5.487   8.673   3.176  0.2565 -0.2875 -2.1725
  406MOL0     H53531   5.298   8.827   3.040 -3.1005 -3.1884  0.1176
  406MOL0     H53532   5.314   8.911   3.199 -1.7922 -0.9960  0.2837
  406MOL0     H53533   5.265   8.607   3.146 -4.5232 -0.1727 -2.3270
  406MOL0     H53534   5.139   8.730   3.165 -0.2454  1.0212  0.6337
  406MOL0     H53535   5.336   8.705   3.402  0.0135 -0.2520 -0.0139
  406MOL0     H53536   5.181   8.784   3.387  3.3843  2.1554 -0.5842
  406MOL0     H53537   5.235   8.488   3.359  2.6956  2.0512  0.0479
  406MOL0     H53538   5.069   8.567   3.368 -1.0654  0.1962  2.7643
  406MOL0     H53539   5.164   8.664   3.591  2.0137  0.5343 -0.8546
  406MOL0     H53540   5.291   8.546   3.587 -0.9925 -2.6816  2.0979
  406MOL0     H53541   5.090   8.503   3.717 -1.5948  2.5498 -0.4958
  406MOL0     H53542   5.007   8.475   3.563 -2.5140 -2.4633  3.2999
  406MOL0     H53543   5.263   8.342   3.675 -1.3829 -2.3338  2.8134
  406MOL0     H53544   5.195   8.295   3.520  0.1066 -1.4062  0.0673
  406MOL0     H53545   5.087   8.281   3.902 -0.5993  1.1388 -1.8760
  406MOL0     H53546   5.000   8.044   4.059  0.1485 -0.9334 -0.9998
  406MOL0     H53547   4.953   7.914   3.953 -0.7626 -0.9552 -1.2413
  406MOL0     H53548   4.733   7.974   3.939  0.5183  1.1194 -2.4878
  406MOL0     H53549   4.774   8.149   3.938 -2.5465  0.0438  0.5276
  406MOL0     H53550   4.754   7.951   4.181 -0.1911  2.2783  1.8974
  406MOL0     H53551   4.826   8.095   4.208 -2.6566  0.9895  3.2127
  406MOL0     H53552   4.642   8.227   4.138 -0.5633  0.0293  4.1414
  406MOL0     H53553   4.576   8.096   4.244 -0.6895 -1.8999 -0.5830
  406MOL0     H53554   4.434   8.284   4.231 -1.0529  3.1412 -0.8375
  406MOL0     H53555   4.210   8.373   4.227 -1.3799  1.6554 -2.6441
  406MOL0     H53556   3.707   8.139   3.928 -0.3701 -0.1312 -0.2140
  406MOL0     H53557   3.494   8.229   3.879  0.3930 -0.0653 -0.8543
  406MOL0     H53558   3.314   8.356   3.950 -1.7289  0.2417  0.8772
  406MOL0     H53559   3.310   8.321   3.777  0.6665 -0.8732  1.0076
  406MOL0     H53560   3.183   8.503   3.738  3.8917 -0.3296  0.3253
  406MOL0     H53561   3.175   8.541   3.921  1.0150 -1.4757  0.8103
  406MOL0     H53562   3.075   8.306   3.956  1.2132 -0.9375 -0.8103
  406MOL0     H53563   3.068   8.283   3.785  0.0641 -2.2978  1.5591
  406MOL0     H53564   2.917   8.506   3.924 -0.8398 -2.2659  1.4403
  406MOL0     H53565   2.930   8.504   3.753  1.8054  1.0005 -0.3193
  406MOL0     H53566   2.805   8.318   3.957 -1.0329  0.8844 -0.2143
  406MOL0     H53567   2.822   8.253   3.788 -1.8051  0.5863 -2.7217
  406MOL0     H53568   2.669   8.436   3.706 -3.1109 -0.5339 -0.0641
  406MOL0     H53569   2.652   8.488   3.870 -1.1455  0.2937 -0.3743
  406MOL0     H53570   2.583   8.219   3.903 -1.6176 -0.7986 -0.2306
  406MOL0     H53571   2.500   8.364   3.918  0.7359 -1.5620  2.1892
  406MOL0     H53572   2.536   8.203   3.652 -1.1574 -1.3075  1.1149
  406MOL0     H53573   2.462   8.366   3.661 -4.6827 -1.0274 -0.7926
  406MOL0     H53574   3.654   8.624   3.839 -1.8514  0.2675  1.1138
  406MOL0     H53575   3.875   8.535   3.902 -0.0789  1.0858  0.1080
  406MOL0     H53576   4.112   8.118   3.879  1.4013 -2.7438 -1.0506
  406MOL0     H53577   4.322   8.022   3.904 -3.6362 -1.5372  1.2424
  406MOL0     H53578   5.627   9.021   3.280  0.7819  0.0733  1.7902
  406MOL0     H53579   5.858   9.066   3.356  3.2894 -0.8011  0.9206
  406MOL0     H53580   6.333   8.696   3.398 -1.2940  0.4693  2.2070
  406MOL0     H53581   6.551   8.743   3.495 -2.4156  1.0082  1.6242
  406MOL0     H53582   6.881   9.069   3.481  2.5485  0.5024 -1.9559
  406MOL0     H53583   6.772   9.145   3.379  4.4336  0.7836 -1.4039
  406MOL0     H53584   6.758   8.938   3.221  2.3051 -2.3980 -2.0451
  406MOL0     H53585   6.920   8.996   3.249  0.0860  1.0550 -0.1894
  406MOL0     H53586   6.917   8.759   3.251 -2.8415  1.4478 -1.8559
  406MOL0     H53587   6.793   8.760   3.377 -0.7940 -0.2760 -0.3965
  406MOL0     H53588   7.064   8.876   3.433 -0.0172 -0.8329  0.3929
  406MOL0     H53589   6.940   8.828   3.545 -1.3657 -0.6014 -0.6805
  406MOL0     H53590   7.169   8.476   3.489 -0.6377 -0.2325  1.2141
  406MOL0     H53591   6.512   9.157   3.394  2.2500 -0.6868  0.8697
  406MOL0     H53592   6.277   9.101   3.313 -2.3853 -2.7883 -0.6156
  407MOL0     O53593   2.705   9.622   1.159 -0.4054  0.3723  0.7693
  407MOL0     C53594   2.716   9.708   1.067  0.1116 -0.7161  0.0357
  407MOL0     O53595   2.691   9.683   0.942  0.1519  0.2485  0.4924
  407MOL0     C53596   2.636   9.561   0.909  0.6139  0.1484  0.1113
  407MOL0     C53597   2.495   9.534   0.914  0.5826 -1.3549  0.3514
  407MOL0     C53598   2.440   9.403   0.904  0.6535 -0.2681 -0.3833
  407MOL0     C53599   2.529   9.295   0.905 -0.1774 -0.3985  0.1816
  407MOL0     O53600   2.474   9.174   0.886  0.7690 -0.3774 -0.4630
  407MOL0     C53601   2.421   9.115   1.001  0.5964  0.5235 -0.2391
  407MOL0     C53602   2.327   9.005   0.957 -0.3502 -0.3044 -0.1136
  407MOL0     C53603   2.205   9.063   0.895  0.2457 -0.6427 -0.2242
  407MOL0     C53604   2.108   8.958   0.867  0.0793  0.0569 -0.9221
  407MOL0     C53605   2.023   8.914   0.990 -1.1577  1.5325  0.9835
  407MOL0     C53606   1.908   8.995   1.023  0.4633  0.0582 -0.2093
  407MOL0     C53607   1.786   8.982   0.926  0.1982 -0.7604 -0.2736
  407MOL0     C53608   1.667   9.072   0.976 -0.4879 -0.7045  0.3694
  407MOL0     N53609   1.577   9.090   0.869 -0.4697 -0.3918  0.9984
  407MOL0     C53610   1.488   9.003   0.805  0.0522 -0.7053 -0.6582
  407MOL0     C53611   1.441   9.071   0.693  0.2239  0.6461  0.1698
  407MOL0     C53612   1.356   9.015   0.575 -0.6034  0.5139  0.3565
  407MOL0     C53613   1.211   8.982   0.603  0.0328 -0.0937  0.6700
  407MOL0     C53614   1.149   8.912   0.476  0.5208 -0.0385 -1.2248
  407MOL0     C53615   1.030   8.825   0.524 -0.0631  0.1962  0.3863
  407MOL0     O53616   0.944   8.909   0.604  0.0622 -0.7287  0.6614
  407MOL0     C53617   0.843   8.845   0.666  0.2452  0.3010  0.9293
  407MOL0     C53618   0.768   8.919   0.762 -0.1095  0.0989  0.1253
  407MOL0     C53619   0.655   8.866   0.817  0.0461  0.1566  0.3518
  407MOL0     C53620   0.612   8.735   0.787  0.6301 -0.4338 -0.5036
  407MOL0     C53621   0.485   8.691   0.849  0.2111  0.2432 -0.0450
  407MOL0     O53622   0.458   8.740   0.972  0.0053 -0.7767  0.1561
  407MOL0     C53623   0.345   8.707   1.045 -0.5374  0.0863 -0.7243
  407MOL0     C53624   0.220   8.655   1.007 -0.1968 -0.0452 -0.3786
  407MOL0     C53625   0.112   8.640   1.096 -0.3132 -0.3448 -0.4243
  407MOL0     C53626   0.137   8.677   1.227  0.3698  0.1944 -0.4069
  407MOL0     O53627   0.028   8.666   1.306  0.7855  0.6046  0.2004
  407MOL0     C53628   0.042   8.673   1.450 -0.0214 -0.0230 -0.5061
  407MOL0     C53629  -0.091   8.629   1.512 -1.2894  0.2056  0.5866
  407MOL0     C53630  -0.096   8.665   1.662  0.0038  0.7123  0.6286
  407MOL0     C53631   0.014   8.586   1.755 -0.0065 -0.8547  0.1295
  407MOL0     C53632  -0.022   8.629   1.903  0.3449  0.5449 -0.2571
  407MOL0     C53633   0.079   8.557   1.983 -0.7089 -0.2158  0.6576
  407MOL0     C53634   0.047   8.556   2.136 -0.8508 -0.2338  0.6175
  407MOL0     C53635   0.055   8.706   2.189  0.0276  0.8550  0.9391
  407MOL0    Cl53636   0.050   8.696   2.360 -0.5592 -0.2051 -0.2787
  407MOL0     C53637   0.263   8.730   1.277  0.0612 -0.2392 -0.2018
  407MOL0     C53638   0.359   8.749   1.182 -0.1984  0.6089 -0.8484
  407MOL0     O53639   0.427   8.597   0.798 -0.2658 -0.0744  0.5497
  407MOL0     C53640   0.680   8.663   0.689  0.6471 -0.6131 -0.1873
  407MOL0     C53641   0.791   8.723   0.631  0.1956  0.3370  0.4540
  407MOL0     N53642   1.490   9.198   0.694 -0.2396  0.1881 -0.2025
  407MOL0     N53643   1.570   9.208   0.801  0.4490 -0.0194 -0.0550
  407MOL0     C53644   2.669   9.316   0.904  0.0636 -0.8567  0.2249
  407MOL0     C53645   2.725   9.450   0.906  0.9106 -0.5566 -0.1587
  407MOL0     C53646   2.777   9.839   1.101  0.3424 -0.8223 -0.8627
  407MOL0     C53647   2.797   9.871   1.240 -0.8791  0.0890  0.1146
  407MOL0     C53648   2.844   9.994   1.270  0.4339 -0.4220  0.0393
  407MOL0     C53649   2.887  10.088   1.169  0.1389 -0.3757 -0.5095
  407MOL0     O53650   2.936  10.215   1.188 -0.1957  0.2991 -0.6995
  407MOL0     C53651   2.950  10.255   1.324 -0.9272 -0.1925 -0.5950
  407MOL0     C53652   2.818  10.308   1.381  0.1140 -0.0252 -0.4193
  407MOL0     C53653   2.772  10.442   1.315  0.8046 -0.0657  0.0102
  407MOL0     C53654   2.879  10.545   1.329 -0.0943  0.6098  0.4426
  407MOL0     C53655   2.816  10.670   1.295 -0.3191 -0.4778 -0.0213
  407MOL0     C53656   2.769  10.778   1.258  0.4481 -0.9668 -0.0397
  407MOL0     C53657   2.860  10.053   1.033  0.2773 -0.5545 -0.8741
  407MOL0     C53658   2.802   9.934   0.996  0.4726  0.2990 -0.0794
  407MOL0     H53659   2.420   9.613   0.919  1.8412 -0.1831  2.0723
  407MOL0     H53660   2.334   9.383   0.888  0.0582  1.4994  1.0320
  407MOL0     H53661   2.360   9.179   1.066 -1.9595 -0.2609 -1.7105
  407MOL0     H53662   2.502   9.076   1.064  0.6256  1.3929  0.2715
  407MOL0     H53663   2.296   8.949   1.045  1.6925  2.0069  2.2603
  407MOL0     H53664   2.371   8.938   0.883  0.9866 -1.0729  1.3045
  407MOL0     H53665   2.224   9.116   0.800 -1.2996 -1.6662 -1.1531
  407MOL0     H53666   2.165   9.141   0.960  3.0139 -2.0605  3.4898
  407MOL0     H53667   2.036   8.996   0.794 -0.7393 -0.2194 -0.2740
  407MOL0     H53668   2.166   8.877   0.822  1.3428  1.6104 -2.2318
  407MOL0     H53669   2.089   8.909   1.077  3.2497  0.8752 -2.0588
  407MOL0     H53670   1.990   8.813   0.964  1.3261  0.8835  0.0648
  407MOL0     H53671   1.942   9.098   1.035  1.1455 -0.3179  1.5456
  407MOL0     H53672   1.869   8.968   1.122 -1.2024 -1.1755 -1.1538
  407MOL0     H53673   1.806   9.018   0.825  0.1951 -0.1187 -0.0496
  407MOL0     H53674   1.745   8.881   0.930  0.1867 -0.7114  1.4666
  407MOL0     H53675   1.713   9.165   1.010  1.7736 -0.7972 -2.1634
  407MOL0     H53676   1.608   9.026   1.056 -1.0475 -1.1015 -0.2598
  407MOL0     H53677   1.463   8.903   0.839 -0.8351 -0.6847 -1.2120
  407MOL0     H53678   1.413   8.933   0.532  1.0872  2.0465 -0.4709
  407MOL0     H53679   1.356   9.093   0.498 -3.1018  0.3492  0.1225
  407MOL0     H53680   1.139   9.062   0.623 -0.7466 -0.8281  0.9015
  407MOL0     H53681   1.204   8.919   0.693 -0.8769  0.1585  0.7835
  407MOL0     H53682   1.119   8.991   0.407 -0.8256  2.0187  1.5342
  407MOL0     H53683   1.223   8.848   0.426  1.7404  0.4625 -0.1277
  407MOL0     H53684   1.081   8.749   0.584  2.0637  0.3974 -1.0397
  407MOL0     H53685   0.978   8.786   0.435  1.8604 -0.4520 -0.5169
  407MOL0     H53686   0.795   9.020   0.791  1.1295  0.2930 -1.5384
  407MOL0     H53687   0.603   8.915   0.899 -0.6578 -1.6633  1.0481
  407MOL0     H53688   0.204   8.630   0.902 -2.2711 -0.0988 -0.0831
  407MOL0     H53689   0.010   8.614   1.068  0.0099 -0.1398 -1.9067
  407MOL0     H53690   0.068   8.774   1.483  1.2986 -0.6613  0.4688
  407MOL0     H53691   0.127   8.617   1.490  1.4567  1.8278 -0.9129
  407MOL0     H53692  -0.098   8.521   1.502 -0.0762  0.2277 -0.7950
  407MOL0     H53693  -0.173   8.672   1.454 -0.0965 -0.5765 -1.8077
  407MOL0     H53694  -0.192   8.645   1.710 -0.4399  1.7327  0.1890
  407MOL0     H53695  -0.075   8.772   1.669  1.0783  0.7849 -2.5541
  407MOL0     H53696   0.020   8.477   1.749 -1.2191 -1.1443  2.5818
  407MOL0     H53697   0.114   8.627   1.736 -0.4744  1.1351  1.5260
  407MOL0     H53698  -0.124   8.596   1.924  0.1341  1.8932  0.9129
  407MOL0     H53699  -0.028   8.735   1.926 -0.8109  1.1751 -3.0466
  407MOL0     H53700   0.176   8.602   1.962 -0.3568 -0.8436  0.9006
  407MOL0     H53701   0.080   8.451   1.956 -1.7928 -0.2779  0.8047
  407MOL0     H53702  -0.046   8.501   2.155 -0.8513 -1.7873 -3.0211
  407MOL0     H53703   0.126   8.501   2.188 -1.1607 -0.4118  0.9065
  407MOL0     H53704  -0.027   8.765   2.148  2.1587  3.0045 -0.5164
  407MOL0     H53705   0.150   8.754   2.164 -0.7076  2.2203  0.6731
  407MOL0     H53706   0.291   8.751   1.380 -1.4216  0.5128  0.0750
  407MOL0     H53707   0.450   8.794   1.219  1.2091 -1.2065 -1.9042
  407MOL0     H53708   0.643   8.568   0.651  0.0747  0.3868 -2.3145
  407MOL0     H53709   0.844   8.670   0.553  0.8120  2.1543 -0.4268
  407MOL0     H53710   2.723   9.223   0.914 -1.4965 -1.9485 -1.0443
  407MOL0     H53711   2.827   9.485   0.913  0.8343 -0.3971  0.2240
  407MOL0     H53712   2.766   9.794   1.309 -0.0426 -1.3628 -1.0461
  407MOL0     H53713   2.851  10.007   1.378  0.1021  0.5706 -0.0498
  407MOL0     H53714   3.026  10.335   1.322  1.4234 -2.2131  1.1603
  407MOL0     H53715   2.988  10.179   1.393 -1.4446  0.3681  0.3337
  407MOL0     H53716   2.745  10.227   1.380 -0.7341  0.6975  0.9636
  407MOL0     H53717   2.827  10.336   1.486  0.4114  1.5171 -0.8167
  407MOL0     H53718   2.672  10.479   1.341 -0.7000  0.0742 -4.9131
  407MOL0     H53719   2.747  10.412   1.213 -2.0975  1.6193  0.1056
  407MOL0     H53720   2.916  10.540   1.432  0.1195 -1.3481  0.3102
  407MOL0     H53721   2.973  10.533   1.274  0.1590 -0.1852  1.0226
  407MOL0     H53722   2.725  10.871   1.229  0.9345  0.4775  3.3700
  407MOL0     H53723   2.905  10.114   0.955  1.5695 -2.8457 -2.0131
  407MOL0     H53724   2.789   9.917   0.889  0.2308  2.0820 -0.3664
  408MOL0     O53725   6.786   9.539   7.779  0.2583 -0.0906 -0.5245
  408MOL0     C53726   6.793   9.599   7.887 -0.6840 -0.5816 -0.0248
  408MOL0     O53727   6.690   9.666   7.941 -0.5963 -0.2694 -0.2439
  408MOL0     C53728   6.571   9.699   7.876 -0.1655  0.0604 -0.2595
  408MOL0     C53729   6.498   9.610   7.800  0.3312 -0.5500 -0.2433
  408MOL0     C53730   6.383   9.648   7.726 -0.6202  0.0522 -0.5180
  408MOL0     C53731   6.331   9.775   7.736 -0.3388 -0.1097  0.0998
  408MOL0     O53732   6.223   9.813   7.669 -0.1365  0.2330 -0.0731
  408MOL0     C53733   6.226   9.814   7.527  0.5128  0.2526 -0.8491
  408MOL0     C53734   6.100   9.760   7.463  0.1738 -0.5753  0.4282
  408MOL0     C53735   5.975   9.830   7.510  0.1546  0.1268 -0.2979
  408MOL0     C53736   5.858   9.766   7.435  0.3220  0.4919 -0.2514
  408MOL0     C53737   5.716   9.823   7.479 -0.0264 -0.8581  0.1087
  408MOL0     C53738   5.700   9.968   7.452 -0.4079 -0.3997 -0.2830
  408MOL0     C53739   5.549   9.998   7.429 -0.5212  0.0514  0.9044
  408MOL0     C53740   5.503  10.141   7.393 -0.7969 -0.0878  0.0493
  408MOL0     N53741   5.525  10.195   7.257 -0.0782  0.5223  0.2093
  408MOL0     C53742   5.430  10.187   7.157  1.2210  0.5490  0.0467
  408MOL0     C53743   5.487  10.237   7.044  0.6537  0.1462 -0.3491
  408MOL0     C53744   5.426  10.247   6.912  0.4858 -0.0374 -0.5267
  408MOL0     C53745   5.341  10.371   6.897  0.4368  0.6307 -0.3013
  408MOL0     C53746   5.189  10.361   6.942  1.1339 -0.6631 -0.2160
  408MOL0     C53747   5.120  10.490   6.909 -0.0488  0.5155 -0.4401
  408MOL0     O53748   5.062  10.473   6.775 -0.6690  0.2230 -1.0434
  408MOL0     C53749   4.931  10.442   6.775 -0.1125  0.6367  0.4634
  408MOL0     C53750   4.830  10.529   6.828  0.1601 -0.5024 -0.5414
  408MOL0     C53751   4.696  10.491   6.828  0.4436  0.9636 -1.5551
  408MOL0     C53752   4.658  10.363   6.783  0.4671  0.4270 -0.8623
  408MOL0     C53753   4.520  10.313   6.816 -0.5162 -0.3371  0.0833
  408MOL0     O53754   4.444  10.391   6.895  0.3644 -0.7255  0.3841
  408MOL0     C53755   4.305  10.391   6.908 -0.0092  0.0984  0.2799
  408MOL0     C53756   4.227  10.350   6.802  0.2437 -0.7665  0.1410
  408MOL0     C53757   4.090  10.349   6.814  0.7847  0.6967 -0.3004
  408MOL0     C53758   4.024  10.394   6.933  0.1550  0.1312  0.7103
  408MOL0     O53759   3.883  10.386   6.934 -0.0121 -0.0352  0.2118
  408MOL0     C53760   3.819  10.394   7.059  0.4273  0.0086  0.2980
  408MOL0     C53761   3.669  10.358   7.037 -1.4244 -0.3477 -0.5742
  408MOL0     C53762   3.647  10.241   6.949 -0.5622  0.4253 -0.1283
  408MOL0     C53763   3.494  10.185   6.956 -0.1781 -0.7228  0.2966
  408MOL0     C53764   3.463  10.135   7.097  0.1757  0.3604 -0.2651
  408MOL0     C53765   3.345  10.045   7.107  0.1912 -0.1422 -0.0250
  408MOL0     C53766   3.218  10.116   7.054 -0.1206 -0.0604 -0.5982
  408MOL0     C53767   3.101  10.039   7.108  0.1675 -0.0111 -0.4798
  408MOL0    Cl53768   2.952  10.101   7.018  0.3287  0.0719 -0.1366
  408MOL0     C53769   4.103  10.451   7.033 -0.5078 -0.4459  1.2203
  408MOL0     C53770   4.243  10.450   7.017 -0.4727  0.4514  0.2308
  408MOL0     O53771   4.488  10.209   6.775 -0.1094 -0.3733  0.2680
  408MOL0     C53772   4.753  10.286   6.717 -0.1779  0.8488  0.1601
  408MOL0     C53773   4.887  10.328   6.707 -0.2930  0.7059 -0.0894
  408MOL0     N53774   5.622  10.269   7.077 -0.3944 -0.0691 -0.1548
  408MOL0     N53775   5.643  10.241   7.207 -0.3949 -0.7477 -0.2766
  408MOL0     C53776   6.390   9.861   7.831  0.3084 -0.2274 -0.4881
  408MOL0     C53777   6.508   9.821   7.898  0.0594  0.7616  0.5166
  408MOL0     C53778   6.924   9.604   7.949 -0.6245  0.4407 -0.9272
  408MOL0     C53779   7.042   9.557   7.883 -0.4321 -0.3154 -0.2850
  408MOL0     C53780   7.166   9.561   7.948 -0.0015 -0.2997 -0.0122
  408MOL0     C53781   7.177   9.611   8.077 -0.6037  0.0329 -0.6831
  408MOL0     O53782   7.292   9.614   8.156  0.0730 -0.2788 -0.4897
  408MOL0     C53783   7.418   9.598   8.094 -1.2925  0.0783  0.4139
  408MOL0     C53784   7.530   9.629   8.192 -0.4231 -0.0127  0.2931
  408MOL0     C53785   7.660   9.579   8.129 -0.0424  1.1557  0.1033
  408MOL0     C53786   7.681   9.430   8.161  0.0764 -0.2995 -0.8985
  408MOL0     C53787   7.714   9.416   8.307  1.2026  0.9221  0.1797
  408MOL0     C53788   7.717   9.391   8.424  0.0082  0.1940 -1.1306
  408MOL0     C53789   7.068   9.654   8.150 -0.4902  0.4295  0.2283
  408MOL0     C53790   6.946   9.656   8.080  0.3623  0.4714 -0.2342
  408MOL0     H53791   6.529   9.508   7.779 -2.8013 -1.0956 -3.0311
  408MOL0     H53792   6.337   9.571   7.665  1.4224 -1.9182  0.2779
  408MOL0     H53793   6.321   9.768   7.497 -0.0005 -0.9652 -0.6415
  408MOL0     H53794   6.230   9.919   7.498  0.6226  0.9539  1.4817
  408MOL0     H53795   6.090   9.656   7.495 -1.6051  0.1489  2.4913
  408MOL0     H53796   6.109   9.756   7.354  1.8735  2.9468  0.2930
  408MOL0     H53797   5.977   9.938   7.493 -2.1698  0.4925  1.2866
  408MOL0     H53798   5.964   9.809   7.617  0.1649 -0.7543 -0.4604
  408MOL0     H53799   5.874   9.782   7.329  2.6826  1.8884  0.2557
  408MOL0     H53800   5.858   9.659   7.459  0.1545  1.2385  3.9005
  408MOL0     H53801   5.707   9.792   7.583  0.2274  0.4500  0.5304
  408MOL0     H53802   5.641   9.774   7.416  0.3736  0.4847 -1.5075
  408MOL0     H53803   5.753  10.002   7.363 -1.4660  0.8241 -0.4813
  408MOL0     H53804   5.737  10.026   7.537 -0.4050  1.3734 -1.4294
  408MOL0     H53805   5.506   9.935   7.350  3.0443 -2.7992  0.9579
  408MOL0     H53806   5.494   9.977   7.521  0.0948  0.5690  1.3956
  408MOL0     H53807   5.561  10.203   7.463 -0.1509 -2.2263  1.5035
  408MOL0     H53808   5.399  10.157   7.423 -0.8011 -0.1639  0.0742
  408MOL0     H53809   5.331  10.145   7.165  0.3700  2.3099 -0.9198
  408MOL0     H53810   5.367  10.159   6.886  3.3151 -2.8463  1.7731
  408MOL0     H53811   5.516  10.249   6.849  0.1684 -0.3533 -0.9955
  408MOL0     H53812   5.348  10.398   6.791 -0.0416 -0.1732 -0.5490
  408MOL0     H53813   5.404  10.446   6.946  1.1511  0.5638 -1.0815
  408MOL0     H53814   5.140  10.281   6.886  3.9403 -1.7034 -1.3727
  408MOL0     H53815   5.185  10.348   7.051 -0.4592  3.1195  0.3171
  408MOL0     H53816   5.189  10.575   6.919  0.3730  0.0563  0.6198
  408MOL0     H53817   5.037  10.503   6.979  0.9346  1.5375  0.5661
  408MOL0     H53818   4.854  10.628   6.865 -0.5758 -1.1835  1.9670
  408MOL0     H53819   4.622  10.556   6.873 -1.1897 -0.5058 -1.9686
  408MOL0     H53820   4.271  10.335   6.703 -0.7205  0.8696 -0.5762
  408MOL0     H53821   4.034  10.323   6.725 -0.6826  0.4296  0.6734
  408MOL0     H53822   3.826  10.494   7.104 -3.7067  0.8976 -0.6144
  408MOL0     H53823   3.853  10.320   7.132 -2.4533  0.1911  1.9618
  408MOL0     H53824   3.612  10.442   6.995 -2.5836 -1.9410 -2.3680
  408MOL0     H53825   3.638  10.338   7.140  0.5638  1.7437  0.5420
  408MOL0     H53826   3.724  10.169   6.977  1.0337  2.1046 -0.0540
  408MOL0     H53827   3.674  10.264   6.845  2.4222  0.9724  0.6906
  408MOL0     H53828   3.424  10.263   6.924 -1.1621 -0.7779  2.1610
  408MOL0     H53829   3.487  10.101   6.886  0.8352 -0.7312  0.1955
  408MOL0     H53830   3.446  10.216   7.169 -1.4187 -0.5919  0.4624
  408MOL0     H53831   3.546  10.077   7.140 -1.0395 -0.4507  1.0730
  408MOL0     H53832   3.330  10.010   7.210  0.7849 -0.1312  0.0688
  408MOL0     H53833   3.373   9.954   7.053 -0.9577 -0.3175 -0.3704
  408MOL0     H53834   3.204  10.221   7.082  1.0098 -0.6112  2.2821
  408MOL0     H53835   3.212  10.108   6.945 -2.6734 -1.3834 -0.4525
  408MOL0     H53836   3.104  10.055   7.216  3.4562  1.3247 -0.6746
  408MOL0     H53837   3.106   9.932   7.087 -2.9137  0.1908 -3.0558
  408MOL0     H53838   4.061  10.505   7.117  0.8789  1.0854  0.9662
  408MOL0     H53839   4.295  10.504   7.095  0.6445  1.9882 -1.5062
  408MOL0     H53840   4.725  10.195   6.663 -4.7321  1.8368  0.5061
  408MOL0     H53841   4.960  10.259   6.666 -1.4750 -0.9832  0.5378
  408MOL0     H53842   6.358   9.964   7.838 -1.6087 -0.5866 -2.8878
  408MOL0     H53843   6.552   9.894   7.965  4.7759 -1.7759  0.5434
  408MOL0     H53844   7.043   9.530   7.778 -0.3486  1.4832 -0.7763
  408MOL0     H53845   7.251   9.524   7.890  1.1064  1.7391  0.2001
  408MOL0     H53846   7.420   9.661   8.005 -1.8460 -0.6610 -0.1380
  408MOL0     H53847   7.419   9.494   8.060 -1.7741  0.4039 -0.6454
  408MOL0     H53848   7.530   9.739   8.199 -0.7701 -0.0127  0.3241
  408MOL0     H53849   7.504   9.576   8.284 -2.3620  0.6437  0.1724
  408MOL0     H53850   7.741   9.634   8.179  0.3404  0.1116  0.6538
  408MOL0     H53851   7.670   9.596   8.021  1.8692 -0.2979  0.0015
  408MOL0     H53852   7.587   9.380   8.139  0.7146 -1.0254 -2.1151
  408MOL0     H53853   7.750   9.379   8.092  0.4313 -0.1825 -0.6354
  408MOL0     H53854   7.739   9.372   8.527 -1.1799  6.1346  0.5939
  408MOL0     H53855   7.077   9.703   8.247 -1.6292  1.7879 -0.3215
  408MOL0     H53856   6.868   9.716   8.126  1.0710  0.7657  0.5964
  409MOL0     O53857   2.462   9.617   8.958 -0.4202  0.1175 -1.0020
  409MOL0     C53858   2.509   9.506   8.954  0.1944 -0.2156  0.4988
  409MOL0     O53859   2.442   9.391   8.966  0.2799  1.1152 -0.3555
  409MOL0     C53860   2.304   9.375   8.946  0.6691  0.7635  0.7171
  409MOL0     C53861   2.208   9.472   8.907 -0.5555 -0.1541 -0.3578
  409MOL0     C53862   2.072   9.441   8.897  0.3232 -0.1845 -0.8400
  409MOL0     C53863   2.020   9.317   8.935  0.6251  0.2592  0.2385
  409MOL0     O53864   1.889   9.272   8.925 -0.0232  0.2690 -0.5562
  409MOL0     C53865   1.777   9.358   8.878 -0.1111 -0.1835  1.5082
  409MOL0     C53866   1.658   9.265   8.833  0.3031  0.2394  0.5357
  409MOL0     C53867   1.551   9.349   8.765  0.5204  1.3519 -0.4288
  409MOL0     C53868   1.433   9.257   8.732  0.6872  0.3508  0.0949
  409MOL0     C53869   1.305   9.329   8.675 -0.1155  0.6029 -0.3086
  409MOL0     C53870   1.222   9.229   8.599  0.2396  0.1789 -0.4947
  409MOL0     C53871   1.105   9.286   8.528 -0.3538  0.3762  0.4350
  409MOL0     C53872   1.035   9.171   8.471 -0.7466  0.3872 -0.1675
  409MOL0     N53873   0.907   9.207   8.404  0.6765  0.5112  1.0560
  409MOL0     C53874   0.791   9.243   8.465 -0.2073  0.2138 -0.5251
  409MOL0     C53875   0.699   9.264   8.369  0.8459  0.6565 -0.0804
  409MOL0     C53876   0.567   9.334   8.362 -0.4804 -0.0905 -0.5633
  409MOL0     C53877   0.516   9.375   8.503  0.4092 -0.0925  0.1974
  409MOL0     C53878   0.388   9.448   8.489 -0.2863 -0.5060 -0.0160
  409MOL0     C53879   0.337   9.489   8.620  0.0214 -0.4984  0.0651
  409MOL0     O53880   0.285   9.386   8.695 -0.3089  0.6461  0.0081
  409MOL0     C53881   0.196   9.417   8.795 -0.5751  0.3427 -0.0333
  409MOL0     C53882   0.090   9.330   8.816  0.5349  0.1443 -0.5633
  409MOL0     C53883  -0.015   9.370   8.899 -0.6978  0.1109 -0.0492
  409MOL0     C53884  -0.012   9.491   8.970  0.2515 -0.4454 -0.8318
  409MOL0     C53885  -0.109   9.523   9.077 -1.0661 -0.2988  0.3562
  409MOL0     O53886  -0.089   9.644   9.146 -0.4235 -0.4083 -0.4921
  409MOL0     C53887  -0.174   9.677   9.249  0.2903  0.4391 -0.0288
  409MOL0     C53888  -0.230   9.589   9.346  0.1825  0.2153 -0.1954
  409MOL0     C53889  -0.311   9.640   9.447 -0.3981  0.4751 -0.0319
  409MOL0     C53890  -0.343   9.774   9.454 -0.6254  0.2910  0.7944
  409MOL0     O53891  -0.433   9.836   9.544  1.0540  0.1262  0.6403
  409MOL0     C53892  -0.521   9.737   9.603  0.1993 -0.8829  0.1989
  409MOL0     C53893  -0.633   9.818   9.669 -1.0323 -0.4729 -0.4272
  409MOL0     C53894  -0.725   9.720   9.739  0.0500 -0.4861 -0.3522
  409MOL0     C53895  -0.674   9.663   9.878  0.2712 -0.9006 -0.3229
  409MOL0     C53896  -0.774   9.574   9.942 -0.1508  0.2025 -0.4747
  409MOL0     C53897  -0.898   9.639   9.996 -0.8785 -0.0310  0.4556
  409MOL0     C53898  -0.969   9.569  10.112 -0.4348  0.2879  0.2481
  409MOL0     C53899  -1.060   9.675  10.185  0.3206  0.7075  0.9806
  409MOL0    Cl53900  -1.132   9.792  10.069 -0.3258 -0.1252 -0.0261
  409MOL0     C53901  -0.297   9.858   9.350 -0.2068  0.8300 -0.1685
  409MOL0     C53902  -0.204   9.813   9.248  0.5974 -0.3007  0.4253
  409MOL0     O53903  -0.192   9.436   9.088  0.8308 -0.6058 -0.0096
  409MOL0     C53904   0.106   9.577   8.950 -0.8089 -0.2323  0.2136
  409MOL0     C53905   0.200   9.542   8.857  0.4968 -0.0831 -0.5560
  409MOL0     N53906   0.752   9.223   8.245 -0.3768 -0.2601  0.7581
  409MOL0     N53907   0.877   9.191   8.267 -0.6200  0.2789 -0.1962
  409MOL0     C53908   2.107   9.223   8.971 -0.8277 -0.3385  0.3037
  409MOL0     C53909   2.250   9.249   8.975  0.3840  0.9148  0.0469
  409MOL0     C53910   2.661   9.495   8.946  0.2004  0.6999  0.0006
  409MOL0     C53911   2.729   9.373   8.917 -0.1168  0.3788 -0.1910
  409MOL0     C53912   2.872   9.372   8.928 -0.3586 -0.3867  0.3198
  409MOL0     C53913   2.952   9.487   8.949 -0.4615 -0.2592  0.1572
  409MOL0     O53914   3.087   9.498   8.951 -0.6441 -0.3338  0.9723
  409MOL0     C53915   3.175   9.397   8.905 -0.7821 -0.6352 -0.0710
  409MOL0     C53916   3.331   9.426   8.885  0.2987 -0.2332  0.1885
  409MOL0     C53917   3.366   9.507   8.759  0.0673  0.1974  0.2700
  409MOL0     C53918   3.513   9.545   8.751  0.4466 -0.9655 -0.2392
  409MOL0     C53919   3.548   9.593   8.616  0.2073  0.7521  0.1593
  409MOL0     C53920   3.561   9.621   8.502  0.3349 -0.0988 -0.3098
  409MOL0     C53921   2.876   9.606   8.968  0.6391  0.2042 -0.0683
  409MOL0     C53922   2.740   9.606   8.963 -0.5867 -0.0915  0.4472
  409MOL0     H53923   2.246   9.567   8.870 -0.7761 -1.0809 -3.2369
  409MOL0     H53924   2.003   9.504   8.843 -0.3968 -1.3242 -1.2992
  409MOL0     H53925   1.811   9.419   8.794  0.9670 -2.9336 -0.1870
  409MOL0     H53926   1.746   9.425   8.959 -3.3182  0.2258  0.1183
  409MOL0     H53927   1.621   9.206   8.917  0.9119  1.4867  1.7185
  409MOL0     H53928   1.695   9.183   8.771 -2.5959 -1.8216  1.3364
  409MOL0     H53929   1.591   9.392   8.672 -2.1406  0.2045 -2.2333
  409MOL0     H53930   1.518   9.422   8.840  1.4180  0.5990  0.7242
  409MOL0     H53931   1.466   9.173   8.670 -2.2528 -1.8329  1.2586
  409MOL0     H53932   1.391   9.208   8.820 -2.3661 -1.1132 -2.0178
  409MOL0     H53933   1.332   9.411   8.608  0.0454  2.0650  1.4598
  409MOL0     H53934   1.247   9.372   8.756  0.4990 -0.2402  0.6044
  409MOL0     H53935   1.194   9.148   8.667  0.9287  0.7190  0.4601
  409MOL0     H53936   1.296   9.202   8.523  1.7626 -0.2681  1.0818
  409MOL0     H53937   1.042   9.332   8.604 -1.6601 -0.1380 -0.2973
  409MOL0     H53938   1.141   9.352   8.449  1.6083 -1.7784 -0.6109
  409MOL0     H53939   1.011   9.103   8.554 -1.3791 -0.0696 -0.7124
  409MOL0     H53940   1.105   9.117   8.407  1.5018  2.1098  0.7390
  409MOL0     H53941   0.790   9.267   8.571  2.2901 -4.9672  0.9802
  409MOL0     H53942   0.500   9.259   8.318 -1.7620  1.0749 -0.6554
  409MOL0     H53943   0.570   9.421   8.296  0.6726 -0.4025 -0.9381
  409MOL0     H53944   0.590   9.449   8.536 -0.2856  0.3336  0.8113
  409MOL0     H53945   0.510   9.287   8.567  1.7611 -0.3013  0.0856
  409MOL0     H53946   0.408   9.536   8.427 -2.0317 -1.1667 -1.6364
  409MOL0     H53947   0.310   9.393   8.436  0.0771 -1.5237  0.4682
  409MOL0     H53948   0.262   9.564   8.594 -1.5854 -1.7824  0.8530
  409MOL0     H53949   0.416   9.541   8.675  0.8930 -2.2282  0.5330
  409MOL0     H53950   0.083   9.234   8.767  0.7197  0.2054 -0.7110
  409MOL0     H53951  -0.103   9.309   8.915 -1.8978  1.6216 -0.6651
  409MOL0     H53952  -0.200   9.485   9.351  0.1624  0.1428 -1.2772
  409MOL0     H53953  -0.350   9.567   9.518 -2.7749  0.3820 -1.3008
  409MOL0     H53954  -0.461   9.679   9.674  0.2710  0.4244  1.2443
  409MOL0     H53955  -0.572   9.676   9.528  2.8176 -4.0503  0.7294
  409MOL0     H53956  -0.682   9.885   9.598 -1.3958  0.8349  0.9798
  409MOL0     H53957  -0.582   9.880   9.744 -1.0664 -2.4703  1.3434
  409MOL0     H53958  -0.744   9.627   9.684  2.2824 -0.8004 -0.6739
  409MOL0     H53959  -0.819   9.775   9.754  1.1147  1.4387 -0.4322
  409MOL0     H53960  -0.579   9.613   9.864  0.0101 -1.2763 -0.7717
  409MOL0     H53961  -0.655   9.747   9.946 -2.6402  0.7309 -1.2947
  409MOL0     H53962  -0.731   9.542  10.037 -2.0732  1.3886  0.8658
  409MOL0     H53963  -0.797   9.486   9.881 -0.2550 -2.4761  3.0726
  409MOL0     H53964  -0.961   9.646   9.907  0.7006 -1.7150 -0.8762
  409MOL0     H53965  -0.867   9.737  10.032 -3.2222  0.6010  0.9679
  409MOL0     H53966  -1.030   9.483  10.081  0.6449  0.1734 -1.7758
  409MOL0     H53967  -0.897   9.543  10.189 -2.2950 -0.0784  1.9513
  409MOL0     H53968  -1.000   9.730  10.258 -0.3562  3.8773 -0.6692
  409MOL0     H53969  -1.145   9.628  10.234  1.4823 -0.7849  1.6579
  409MOL0     H53970  -0.324   9.961   9.370  0.9431  1.0570  0.2957
  409MOL0     H53971  -0.152   9.877   9.177  2.0158  0.2805  1.9232
  409MOL0     H53972   0.110   9.677   8.992 -1.2470 -0.7530  1.5469
  409MOL0     H53973   0.281   9.613   8.846  2.2435 -0.8610  4.5624
  409MOL0     H53974   2.067   9.123   8.989  0.9090 -1.0505  0.4285
  409MOL0     H53975   2.318   9.171   9.009 -0.4255  0.5119  0.7906
  409MOL0     H53976   2.684   9.275   8.902  0.5189 -0.1588  1.2313
  409MOL0     H53977   2.926   9.281   8.904 -1.9000 -1.5675  1.1638
  409MOL0     H53978   3.140   9.344   8.817 -1.5026 -0.4923  0.1198
  409MOL0     H53979   3.167   9.306   8.966 -0.0491 -0.9275 -0.3923
  409MOL0     H53980   3.355   9.493   8.968 -2.1454 -2.6680  3.1061
  409MOL0     H53981   3.384   9.331   8.894 -1.1175 -1.0734  0.0374
  409MOL0     H53982   3.300   9.594   8.750 -1.4005 -0.9729 -0.5333
  409MOL0     H53983   3.328   9.447   8.676 -0.9611  1.2020 -0.0092
  409MOL0     H53984   3.526   9.626   8.824 -0.4780  0.3789 -1.5176
  409MOL0     H53985   3.573   9.458   8.778  0.2193 -0.7257  1.1193
  409MOL0     H53986   3.571   9.641   8.397 -0.1084 -2.3126 -0.8172
  409MOL0     H53987   2.939   9.688   9.003  0.5100 -0.0867  0.8881
  409MOL0     H53988   2.705   9.707   8.983  2.0956  1.0468 -0.2050
  410MOL0     O53989   2.762   9.599   4.365  0.5969 -0.0278 -0.0665
  410MOL0     C53990   2.667   9.576   4.285 -0.6879  0.1627 -0.0326
  410MOL0     O53991   2.616   9.666   4.187  0.1783 -0.6035 -0.2673
  410MOL0     C53992   2.668   9.795   4.176  0.2414  0.2654 -0.1992
  410MOL0     C53993   2.804   9.829   4.179  0.4971  0.5974 -0.2267
  410MOL0     C53994   2.850   9.961   4.173  0.4657  0.3177  0.8259
  410MOL0     C53995   2.749  10.062   4.158 -0.1699  0.1144 -0.5955
  410MOL0     O53996   2.773  10.195   4.150  0.3785 -0.1658  0.4126
  410MOL0     C53997   2.915  10.233   4.117  0.1273  0.6530  0.2135
  410MOL0     C53998   2.927  10.378   4.130  0.6851 -0.6924  0.3236
  410MOL0     C53999   3.072  10.430   4.110 -0.1833  0.5071 -0.7828
  410MOL0     C54000   3.091  10.581   4.135  0.0947 -0.1214 -0.1538
  410MOL0     C54001   3.238  10.622   4.146  0.3292  0.2060  0.0135
  410MOL0     C54002   3.304  10.623   4.006  0.3530 -0.7844 -0.4473
  410MOL0     C54003   3.451  10.659   4.008 -0.0700 -0.7504  0.7393
  410MOL0     C54004   3.539  10.557   4.084 -0.3711 -0.8222  0.9251
  410MOL0     N54005   3.535  10.417   4.042  0.0271  0.3588  0.2193
  410MOL0     C54006   3.433  10.329   4.080 -0.6630 -0.4919 -0.0861
  410MOL0     C54007   3.452  10.231   3.997 -0.7045  1.2439 -0.1868
  410MOL0     C54008   3.350  10.130   3.974  0.9599 -0.4677 -0.7032
  410MOL0     C54009   3.413   9.991   3.940 -0.3273 -0.1962  0.6594
  410MOL0     C54010   3.307   9.867   3.962 -0.2296 -0.1347  0.4388
  410MOL0     C54011   3.178   9.908   3.894 -0.2079  0.1082 -0.9568
  410MOL0     O54012   3.077   9.803   3.920  0.4925 -0.2012  0.3793
  410MOL0     C54013   2.963   9.813   3.834  0.3610  0.2955 -0.1584
  410MOL0     C54014   2.932   9.918   3.739  0.7893 -0.1487  0.0322
  410MOL0     C54015   2.814   9.916   3.665  0.4005 -0.3624 -0.0984
  410MOL0     C54016   2.722   9.804   3.676  0.4100  0.6266  0.3621
  410MOL0     C54017   2.598   9.803   3.596  0.7809 -0.3401 -0.1861
  410MOL0     O54018   2.572   9.895   3.499  0.7864  0.6139 -0.4576
  410MOL0     C54019   2.494   9.849   3.397 -0.3680  0.2019 -0.2079
  410MOL0     C54020   2.379   9.923   3.374 -0.8914  0.6522  0.0113
  410MOL0     C54021   2.301   9.884   3.261 -0.2930 -0.0495 -0.3429
  410MOL0     C54022   2.343   9.780   3.171 -0.7617  0.0330 -1.1588
  410MOL0     O54023   2.267   9.750   3.060  0.6245  0.3619 -0.0771
  410MOL0     C54024   2.234   9.610   3.041  0.8682  0.2596  0.2841
  410MOL0     C54025   2.264   9.582   2.898 -0.2233 -0.0942  0.4819
  410MOL0     C54026   2.144   9.611   2.807 -0.2899 -0.9592  0.1223
  410MOL0     C54027   2.032   9.510   2.823 -0.0016 -0.2378 -0.4272
  410MOL0     C54028   1.948   9.506   2.696 -0.0657  0.5386 -0.8408
  410MOL0     C54029   1.824   9.411   2.705 -0.2207 -0.2558  0.1952
  410MOL0     C54030   1.710   9.469   2.631 -0.1861 -0.6601  0.2697
  410MOL0     C54031   1.586   9.373   2.633  0.6096 -0.2582 -0.4579
  410MOL0    Cl54032   1.642   9.215   2.557  0.0032  0.1745  0.4827
  410MOL0     C54033   2.464   9.711   3.197  0.2149 -0.8843 -0.1409
  410MOL0     C54034   2.535   9.746   3.313  0.4369  0.7501  0.1713
  410MOL0     O54035   2.523   9.705   3.617 -0.0392  0.0837  0.4082
  410MOL0     C54036   2.750   9.700   3.762 -0.0868  0.6231 -0.4761
  410MOL0     C54037   2.866   9.708   3.842  0.5302 -0.5926  0.9434
  410MOL0     N54038   3.577  10.239   3.927  0.6479  0.3185 -0.5666
  410MOL0     N54039   3.618  10.360   3.956 -0.2183  0.2621 -0.0619
  410MOL0     C54040   2.616  10.025   4.153  0.0607 -0.0299 -0.4253
  410MOL0     C54041   2.580   9.898   4.165  0.1067 -0.1135  0.4253
  410MOL0     C54042   2.599   9.450   4.284  0.0806 -0.1990 -0.7514
  410MOL0     C54043   2.502   9.417   4.199 -0.2138  0.4737 -0.1047
  410MOL0     C54044   2.442   9.282   4.192 -0.2121 -0.8296 -0.0450
  410MOL0     C54045   2.476   9.189   4.294 -0.2526  0.7581 -0.0903
  410MOL0     O54046   2.408   9.071   4.306 -0.0116 -0.2080  0.9664
  410MOL0     C54047   2.491   8.950   4.332 -0.0760  0.1143  0.0147
  410MOL0     C54048   2.435   8.828   4.262 -0.4266  0.5688  0.5359
  410MOL0     C54049   2.426   8.845   4.111 -0.2717 -0.7062 -0.2056
  410MOL0     C54050   2.494   8.729   4.044  0.7470  0.0159  0.2970
  410MOL0     C54051   2.640   8.746   4.034 -0.1002  0.2591 -1.1665
  410MOL0     C54052   2.754   8.765   4.027 -0.3963  0.6122 -1.2411
  410MOL0     C54053   2.581   9.227   4.387  0.0693  0.2837  0.5143
  410MOL0     C54054   2.642   9.351   4.378 -0.6643  0.3894 -0.4474
  410MOL0     H54055   2.866   9.741   4.182 -0.4070 -0.1493 -1.8974
  410MOL0     H54056   2.959   9.964   4.167  0.5423  0.4155  2.0464
  410MOL0     H54057   2.935  10.202   4.014 -0.7801 -0.2087  0.2859
  410MOL0     H54058   2.980  10.177   4.184 -1.2819 -1.2914  0.0369
  410MOL0     H54059   2.886  10.411   4.226 -0.1990 -2.0851  0.4581
  410MOL0     H54060   2.862  10.426   4.055 -0.7238  0.5676  2.2560
  410MOL0     H54061   3.116  10.402   4.013  0.5590  0.4324 -0.4319
  410MOL0     H54062   3.124  10.379   4.191 -0.5284 -0.3051 -1.0593
  410MOL0     H54063   3.029  10.639   4.066 -0.2284 -0.0133  0.2286
  410MOL0     H54064   3.058  10.592   4.238  1.3814 -0.0418  0.2613
  410MOL0     H54065   3.300  10.553   4.204  3.7879  1.6741 -1.6666
  410MOL0     H54066   3.245  10.719   4.196 -1.3886  0.2204  0.2892
  410MOL0     H54067   3.245  10.695   3.947  3.6477  4.9966  2.3945
  410MOL0     H54068   3.294  10.522   3.965  0.7484 -0.8085 -0.4865
  410MOL0     H54069   3.490  10.657   3.906 -2.1113 -2.5601 -0.0796
  410MOL0     H54070   3.460  10.759   4.053 -1.1402 -0.7885  1.0683
  410MOL0     H54071   3.516  10.572   4.190  0.2581  2.4978  0.6918
  410MOL0     H54072   3.640  10.596   4.072 -0.8913  0.6214  1.0138
  410MOL0     H54073   3.349  10.349   4.147 -0.0855 -3.1673  1.5777
  410MOL0     H54074   3.285  10.175   3.899  1.9294  1.2257 -0.5773
  410MOL0     H54075   3.290  10.107   4.063  1.8386 -1.7789 -0.4196
  410MOL0     H54076   3.510   9.973   3.987 -0.2096 -1.2501  0.0450
  410MOL0     H54077   3.424  10.001   3.831  1.6161 -0.4541  0.7924
  410MOL0     H54078   3.340   9.774   3.914  0.2821  1.6106 -2.9447
  410MOL0     H54079   3.300   9.848   4.069 -0.9668 -1.2709  0.2148
  410MOL0     H54080   3.190   9.938   3.789 -2.1937  1.5986 -0.8128
  410MOL0     H54081   3.134   9.993   3.946 -0.4140 -0.3693 -0.3441
  410MOL0     H54082   3.000  10.000   3.720 -1.1160  1.5392  0.1822
  410MOL0     H54083   2.799  10.001   3.599 -0.0152  1.9347  2.7106
  410MOL0     H54084   2.364  10.012   3.434  0.1852  2.1179 -1.7662
  410MOL0     H54085   2.210   9.941   3.244 -1.2839 -1.8659 -1.3907
  410MOL0     H54086   2.126   9.604   3.062  1.0454 -0.9733  0.9679
  410MOL0     H54087   2.273   9.539   3.116 -2.6174 -1.1252  1.0052
  410MOL0     H54088   2.294   9.478   2.883 -1.8930 -0.3289 -1.6998
  410MOL0     H54089   2.356   9.637   2.876 -1.0523  1.8342  1.4966
  410MOL0     H54090   2.182   9.609   2.704  0.0438  1.5241  0.1450
  410MOL0     H54091   2.105   9.712   2.822 -1.2128 -1.3779  0.6147
  410MOL0     H54092   2.084   9.416   2.844  1.0686  0.2319 -0.9205
  410MOL0     H54093   1.963   9.532   2.904  1.6489  0.9883  0.6950
  410MOL0     H54094   2.018   9.459   2.627 -0.9507 -2.3464  0.1012
  410MOL0     H54095   1.913   9.605   2.666 -0.2875 -0.0576 -2.6470
  410MOL0     H54096   1.789   9.395   2.807  0.1933 -1.7771  0.1222
  410MOL0     H54097   1.866   9.318   2.664  3.6979  1.6849 -0.7281
  410MOL0     H54098   1.673   9.564   2.672  0.2165 -0.7521  0.8587
  410MOL0     H54099   1.733   9.493   2.527 -2.4354 -0.1545 -0.1588
  410MOL0     H54100   1.508   9.418   2.571  0.5253 -1.7796 -1.5177
  410MOL0     H54101   1.544   9.361   2.733 -3.1603  1.5246 -1.6266
  410MOL0     H54102   2.491   9.629   3.131  0.6759  1.1326 -2.6269
  410MOL0     H54103   2.624   9.687   3.329 -1.0792 -0.8748  3.3234
  410MOL0     H54104   2.676   9.627   3.791  0.0305  2.1757  4.8391
  410MOL0     H54105   2.896   9.640   3.921  2.2873  1.6325  2.3249
  410MOL0     H54106   2.549  10.109   4.136  1.0433  1.0025  0.5924
  410MOL0     H54107   2.473   9.878   4.173  0.5080 -1.6172  2.9785
  410MOL0     H54108   2.459   9.486   4.127  0.2161  0.7113 -0.1362
  410MOL0     H54109   2.374   9.236   4.122 -1.4832  3.7293 -2.2239
  410MOL0     H54110   2.494   8.937   4.440 -0.7757  1.1600  0.1745
  410MOL0     H54111   2.590   8.960   4.287 -0.8230 -0.5567 -1.8771
  410MOL0     H54112   2.496   8.739   4.279  0.3849  1.0980  0.4632
  410MOL0     H54113   2.334   8.808   4.297 -0.6660  2.8105  1.3149
  410MOL0     H54114   2.476   8.940   4.088  1.9888 -1.7535  0.0571
  410MOL0     H54115   2.322   8.858   4.078 -0.7855 -0.2564  1.5088
  410MOL0     H54116   2.465   8.635   4.092 -0.8941 -1.3941 -3.1146
  410MOL0     H54117   2.459   8.707   3.943 -2.6398 -0.9122  1.5316
  410MOL0     H54118   2.861   8.758   4.022 -0.4532 -0.9161 -0.9052
  410MOL0     H54119   2.601   9.147   4.459 -0.5411  0.9927  1.4919
  410MOL0     H54120   2.730   9.379   4.436  0.9168 -1.4928 -1.8143
  411MOL0     O54121   5.624   2.994   4.890 -0.5494 -0.4265 -0.1700
  411MOL0     C54122   5.663   3.081   4.808  0.3430  0.0965 -0.3285
  411MOL0     O54123   5.590   3.193   4.773  0.0016 -0.4385  0.0237
  411MOL0     C54124   5.486   3.229   4.856  0.8073  0.3902  0.0174
  411MOL0     C54125   5.481   3.367   4.899 -0.9271  0.6269 -1.2997
  411MOL0     C54126   5.371   3.413   4.977  1.1779  0.7612  0.5745
  411MOL0     C54127   5.258   3.332   5.003 -0.2226 -0.3705 -0.6856
  411MOL0     O54128   5.149   3.390   5.065 -0.1302  0.0840 -0.3854
  411MOL0     C54129   5.066   3.307   5.152 -0.1375  0.1872 -0.2632
  411MOL0     C54130   4.970   3.394   5.243  0.5604  0.2723 -0.0512
  411MOL0     C54131   4.899   3.302   5.349 -0.3837 -0.3360  0.5154
  411MOL0     C54132   4.851   3.391   5.466 -0.9480 -0.4390  0.1130
  411MOL0     C54133   4.804   3.290   5.578  0.2241  0.2771  0.8479
  411MOL0     C54134   4.729   3.379   5.682  0.5034 -0.5393 -0.4130
  411MOL0     C54135   4.687   3.291   5.808  0.0228 -0.0216  0.1603
  411MOL0     C54136   4.589   3.183   5.781  0.5002 -0.4055  0.5321
  411MOL0     N54137   4.457   3.222   5.721 -0.1271  0.3099 -0.0316
  411MOL0     C54138   4.380   3.329   5.747  0.0171  0.6412 -0.0954
  411MOL0     C54139   4.304   3.347   5.638  0.2394  0.7796  0.1111
  411MOL0     C54140   4.209   3.456   5.612 -0.2796  0.1121 -0.2602
  411MOL0     C54141   4.064   3.437   5.651  0.3553  0.3507  0.6049
  411MOL0     C54142   3.969   3.412   5.533  0.1381  0.8074  0.2592
  411MOL0     C54143   3.825   3.405   5.575 -0.4182  0.1745  0.8998
  411MOL0     O54144   3.792   3.274   5.626 -0.5038  0.2644 -0.2792
  411MOL0     C54145   3.676   3.229   5.668  0.1550 -0.8511  0.5244
  411MOL0     C54146   3.671   3.106   5.730 -0.4033  0.0277 -0.9295
  411MOL0     C54147   3.552   3.045   5.772  0.1864 -0.8480  1.0742
  411MOL0     C54148   3.428   3.107   5.746  0.0968 -1.1240  0.0580
  411MOL0     C54149   3.299   3.045   5.778 -0.0506 -0.5847  0.8264
  411MOL0     O54150   3.189   3.119   5.756  0.5433 -0.6745 -0.2830
  411MOL0     C54151   3.074   3.062   5.799 -0.7005  0.9074  0.0147
  411MOL0     C54152   2.985   2.994   5.716  0.3488  0.2621 -0.2060
  411MOL0     C54153   2.859   2.944   5.763 -0.8625  0.1427  0.0171
  411MOL0     C54154   2.834   2.957   5.897  0.0938 -0.1916  0.0197
  411MOL0     O54155   2.711   2.911   5.945 -0.5775 -0.1524  0.0663
  411MOL0     C54156   2.604   2.879   5.851 -0.3648  0.0573 -1.0115
  411MOL0     C54157   2.459   2.877   5.908  0.1140  0.8778  0.1718
  411MOL0     C54158   2.438   2.777   6.024 -0.3155 -0.1196  0.1267
  411MOL0     C54159   2.297   2.743   6.043  0.4725 -0.5373 -0.3378
  411MOL0     C54160   2.287   2.630   6.146 -0.7603  0.0135  0.2731
  411MOL0     C54161   2.142   2.611   6.189  0.6875 -1.2834  0.5515
  411MOL0     C54162   2.111   2.529   6.312 -0.0629  0.4390 -0.1444
  411MOL0     C54163   1.975   2.454   6.290  0.0405  0.1146 -0.6510
  411MOL0    Cl54164   1.841   2.561   6.327 -0.5504  0.1336  0.1941
  411MOL0     C54165   2.922   3.006   5.992  0.0028 -0.9440 -0.9540
  411MOL0     C54166   3.039   3.073   5.942 -0.0879 -0.3619  0.4940
  411MOL0     O54167   3.298   2.923   5.813 -0.0273 -0.8582 -0.4935
  411MOL0     C54168   3.432   3.235   5.677  0.1622 -0.3712 -0.0576
  411MOL0     C54169   3.551   3.297   5.643 -0.2184 -0.0832  0.6732
  411MOL0     N54170   4.331   3.249   5.545  0.0402 -0.2517 -0.3052
  411MOL0     N54171   4.415   3.171   5.608 -0.2899  0.0339  0.4480
  411MOL0     C54172   5.263   3.196   4.956 -0.4071  0.2858 -0.0245
  411MOL0     C54173   5.376   3.146   4.887  0.5363 -0.1188  0.2856
  411MOL0     C54174   5.785   3.053   4.731 -0.8257 -0.3138  0.0977
  411MOL0     C54175   5.895   2.974   4.778 -0.4575 -0.7797 -0.9548
  411MOL0     C54176   6.001   2.956   4.691 -0.2321  0.3575 -0.4822
  411MOL0     C54177   6.001   2.996   4.555 -0.1574 -0.2577  0.0651
  411MOL0     O54178   6.112   2.962   4.482 -0.4959 -0.1390  0.5134
  411MOL0     C54179   6.122   2.979   4.341 -0.0542 -0.2868 -0.3976
  411MOL0     C54180   6.247   2.933   4.272  0.5339 -0.6470 -0.2769
  411MOL0     C54181   6.234   2.783   4.270  0.3826  0.1729 -0.1326
  411MOL0     C54182   6.356   2.719   4.202 -0.5265 -0.6431  0.0366
  411MOL0     C54183   6.339   2.577   4.204 -0.8227  0.4766  0.4322
  411MOL0     C54184   6.317   2.460   4.188 -0.1041  0.2095 -0.5656
  411MOL0     C54185   5.891   3.074   4.517 -0.5063 -0.8821  0.3315
  411MOL0     C54186   5.784   3.117   4.602 -0.0798 -0.0882  0.0223
  411MOL0     H54187   5.553   3.442   4.869 -2.5483  2.0865 -1.7588
  411MOL0     H54188   5.357   3.514   5.015 -2.0315  1.2661 -1.5707
  411MOL0     H54189   5.138   3.249   5.211  2.6758  3.4462 -0.1458
  411MOL0     H54190   5.003   3.246   5.087  0.5075  1.2483 -1.9442
  411MOL0     H54191   4.899   3.444   5.178 -1.0652 -2.0948 -0.2225
  411MOL0     H54192   5.023   3.470   5.302 -0.3242 -1.8689  3.9227
  411MOL0     H54193   4.970   3.228   5.387 -1.0000  0.1959  2.8231
  411MOL0     H54194   4.815   3.244   5.309 -0.2847  0.3865 -0.8051
  411MOL0     H54195   4.930   3.463   5.491 -0.9738 -1.0436  2.1126
  411MOL0     H54196   4.770   3.456   5.431  0.3145  0.3756 -1.4503
  411MOL0     H54197   4.889   3.234   5.618  0.9671 -0.6920 -1.8523
  411MOL0     H54198   4.733   3.217   5.538  0.7230  0.0879  0.2891
  411MOL0     H54199   4.645   3.429   5.633  1.9611  2.7647  0.1918
  411MOL0     H54200   4.797   3.455   5.722  2.2221 -2.3051  0.2007
  411MOL0     H54201   4.775   3.251   5.860 -1.8817 -0.1500  3.5557
  411MOL0     H54202   4.639   3.354   5.884 -0.1840  0.2589 -0.2045
  411MOL0     H54203   4.574   3.129   5.876  0.8563  0.2969  0.9959
  411MOL0     H54204   4.638   3.108   5.718  1.0794  0.5095 -0.1314
  411MOL0     H54205   4.370   3.369   5.848  0.0785 -1.9897  1.0487
  411MOL0     H54206   4.208   3.487   5.507 -1.9147 -1.1025 -0.6500
  411MOL0     H54207   4.242   3.543   5.669 -0.0940 -1.9047  2.9151
  411MOL0     H54208   4.042   3.530   5.704  0.0889  0.0023  1.1141
  411MOL0     H54209   4.048   3.361   5.729  1.2187 -0.5370 -0.0512
  411MOL0     H54210   3.979   3.493   5.461 -0.3734  2.1214  1.6229
  411MOL0     H54211   3.994   3.323   5.474 -0.2079 -0.5236  2.0290
  411MOL0     H54212   3.760   3.441   5.495  0.4051  2.5638  1.2121
  411MOL0     H54213   3.810   3.485   5.648 -1.1284 -0.7439  1.7892
  411MOL0     H54214   3.761   3.058   5.768 -1.8422  0.0868  2.9539
  411MOL0     H54215   3.549   2.951   5.827  0.7603 -0.9307  0.9703
  411MOL0     H54216   3.012   2.981   5.612  0.2945 -1.4377 -0.0355
  411MOL0     H54217   2.794   2.902   5.688 -0.9888 -0.5224  0.4845
  411MOL0     H54218   2.632   2.781   5.812  0.3096  0.9409 -2.8941
  411MOL0     H54219   2.603   2.945   5.763 -3.5653 -0.9949 -1.9091
  411MOL0     H54220   2.390   2.862   5.825 -0.7531  3.0295  0.4259
  411MOL0     H54221   2.438   2.980   5.941 -4.0219  1.4040 -3.1802
  411MOL0     H54222   2.470   2.819   6.119 -0.5959 -0.3791  0.3391
  411MOL0     H54223   2.486   2.680   6.010  3.5974  1.0160  3.6069
  411MOL0     H54224   2.237   2.832   6.069 -2.2442 -2.1340 -0.7255
  411MOL0     H54225   2.262   2.706   5.947 -0.2303  1.3493 -0.8518
  411MOL0     H54226   2.346   2.660   6.233 -0.4924  1.7196 -0.4707
  411MOL0     H54227   2.327   2.539   6.100 -2.1123  0.8109 -2.7152
  411MOL0     H54228   2.090   2.563   6.105 -1.5926  2.3788 -0.4074
  411MOL0     H54229   2.099   2.711   6.204  0.6574 -1.4153  1.3464
  411MOL0     H54230   2.187   2.450   6.309 -0.3730 -0.0016  1.9671
  411MOL0     H54231   2.106   2.587   6.405  1.2106  1.5088 -0.7131
  411MOL0     H54232   1.977   2.368   6.358 -0.4863  0.9540  0.4636
  411MOL0     H54233   1.963   2.415   6.189  0.1779 -1.4555 -0.0840
  411MOL0     H54234   2.885   3.013   6.094  1.1161 -0.0313 -0.5944
  411MOL0     H54235   3.099   3.139   6.004  3.1929  1.9579 -4.4690
  411MOL0     H54236   3.335   3.274   5.646  0.6959  2.1547  1.1684
  411MOL0     H54237   3.559   3.393   5.594 -0.0676 -1.2201 -1.6370
  411MOL0     H54238   5.176   3.135   4.979 -1.7833  1.7426 -1.0923
  411MOL0     H54239   5.375   3.048   4.840  2.0688 -0.1282  0.2332
  411MOL0     H54240   5.881   2.927   4.874  3.6394  1.0186  0.7130
  411MOL0     H54241   6.080   2.891   4.728 -0.6729  0.6014  0.9566
  411MOL0     H54242   6.132   3.087   4.327  2.6963 -0.3796  0.4442
  411MOL0     H54243   6.033   2.937   4.292 -0.8839 -0.3433  1.0821
  411MOL0     H54244   6.255   2.965   4.168 -2.4888 -3.8982 -1.7238
  411MOL0     H54245   6.334   2.961   4.333  0.8838 -3.3042  0.5852
  411MOL0     H54246   6.147   2.754   4.211  0.4539 -1.1011  0.3548
  411MOL0     H54247   6.220   2.754   4.375 -3.3465 -1.9887 -1.0696
  411MOL0     H54248   6.369   2.751   4.098  1.2767 -0.3928  0.3186
  411MOL0     H54249   6.450   2.735   4.255 -0.5153 -0.5400 -0.0144
  411MOL0     H54250   6.296   2.364   4.147 -1.7940  0.8657 -1.3225
  411MOL0     H54251   5.897   3.106   4.413  2.1261 -1.0498  0.3694
  411MOL0     H54252   5.710   3.180   4.555  3.0284  0.7547 -4.3027
  412MOL0     O54253  10.028  11.004   4.515  0.5956  0.0197  0.5550
  412MOL0     C54254  10.133  10.985   4.578  0.7894 -0.2693 -0.4758
  412MOL0     O54255  10.143  10.994   4.717  0.7503  1.0451  0.1831
  412MOL0     C54256  10.037  11.030   4.782  0.5278 -0.2878 -0.8450
  412MOL0     C54257   9.988  11.156   4.779 -0.1154 -1.0082  0.5839
  412MOL0     C54258   9.893  11.198   4.867  0.1661 -0.7818 -0.7173
  412MOL0     C54259   9.831  11.111   4.950 -0.8020  0.0011 -0.8834
  412MOL0     O54260   9.723  11.157   5.019  0.2911 -0.4599 -0.0243
  412MOL0     C54261   9.608  11.069   5.025 -0.2844  0.2684  0.3278
  412MOL0     C54262   9.481  11.149   5.040 -0.1226  0.0773 -0.2081
  412MOL0     C54263   9.357  11.064   5.041 -0.5586 -0.6357 -0.0810
  412MOL0     C54264   9.223  11.131   5.051 -0.6031 -0.4643 -1.0401
  412MOL0     C54265   9.115  11.025   5.017 -0.9631  0.8484 -0.3938
  412MOL0     C54266   8.977  11.093   5.020 -0.1117 -0.2142 -0.2996
  412MOL0     C54267   8.862  10.989   5.016  1.5488  0.6547  0.0493
  412MOL0     C54268   8.727  11.039   5.055 -0.1805 -0.1183  0.3612
  412MOL0     N54269   8.621  10.940   5.035 -0.1294 -0.1685 -0.9157
  412MOL0     C54270   8.598  10.838   5.117  0.3289  1.4579  0.0512
  412MOL0     C54271   8.515  10.756   5.049 -0.4289 -0.2626  0.1771
  412MOL0     C54272   8.461  10.627   5.108  0.5557  0.1369 -0.4457
  412MOL0     C54273   8.358  10.663   5.216 -0.2965  0.2171 -0.4803
  412MOL0     C54274   8.331  10.539   5.291  1.6271  0.5401  0.1554
  412MOL0     C54275   8.196  10.539   5.377 -0.2802 -0.5829  0.2313
  412MOL0     O54276   8.184  10.657   5.462 -0.2726 -0.9176  0.1822
  412MOL0     C54277   8.055  10.688   5.504 -0.2504  0.3441 -0.9730
  412MOL0     C54278   7.952  10.596   5.527  0.3483  0.3817 -0.8314
  412MOL0     C54279   7.828  10.629   5.576  0.3489 -0.0031 -0.3031
  412MOL0     C54280   7.789  10.761   5.597  0.4468  0.8451 -0.6604
  412MOL0     C54281   7.653  10.793   5.646 -0.9002 -0.0096  0.5148
  412MOL0     O54282   7.556  10.692   5.621  0.1919 -0.2110 -0.0739
  412MOL0     C54283   7.428  10.713   5.657  0.0968  0.1729 -0.4133
  412MOL0     C54284   7.378  10.666   5.781  0.3190 -0.3357 -0.3383
  412MOL0     C54285   7.242  10.683   5.826 -0.5084 -0.9955 -0.5517
  412MOL0     C54286   7.155  10.744   5.739 -0.5649 -0.2183 -0.2024
  412MOL0     O54287   7.020  10.763   5.773  0.0540 -0.6017  0.3779
  412MOL0     C54288   6.982  10.779   5.913  0.2046  0.5362 -0.5990
  412MOL0     C54289   6.827  10.781   5.913  0.1584 -0.2262 -0.1240
  412MOL0     C54290   6.758  10.819   6.048  0.2801  0.1622  0.0481
  412MOL0     C54291   6.606  10.828   6.028  0.1484 -0.7495 -0.6155
  412MOL0     C54292   6.530  10.827   6.159  0.7131 -0.6330 -0.3191
  412MOL0     C54293   6.383  10.872   6.148  0.4774  0.8993  0.1766
  412MOL0     C54294   6.292  10.759   6.102 -0.5473 -0.3346 -0.1971
  412MOL0     C54295   6.145  10.796   6.088 -0.4207 -0.3994 -0.1698
  412MOL0    Cl54296   6.059  10.643   6.049  0.0461  0.2630  0.1326
  412MOL0     C54297   7.203  10.788   5.615 -0.6483  0.5799 -0.2195
  412MOL0     C54298   7.339  10.779   5.575 -0.8430  0.0644 -1.6188
  412MOL0     O54299   7.633  10.907   5.682 -0.3706  0.0654  0.1292
  412MOL0     C54300   7.892  10.858   5.583  0.2046  0.0901 -0.5644
  412MOL0     C54301   8.024  10.823   5.536  0.2016 -0.1864 -1.3438
  412MOL0     N54302   8.467  10.826   4.934 -0.5815  0.4229 -0.1910
  412MOL0     N54303   8.539  10.937   4.933  0.2493  0.7330  0.4563
  412MOL0     C54304   9.876  10.979   4.960 -0.5422  0.3151 -0.3379
  412MOL0     C54305   9.987  10.943   4.882  0.0946 -0.8366 -0.0632
  412MOL0     C54306  10.253  10.979   4.498  0.3209 -0.3886  0.2028
  412MOL0     C54307  10.378  10.999   4.557  0.8175 -0.0238  0.3888
  412MOL0     C54308  10.493  10.994   4.480  0.0495 -0.2144  0.1844
  412MOL0     C54309  10.482  10.977   4.338 -0.7438 -0.4305  0.3857
  412MOL0     O54310  10.598  10.990   4.258  0.8384  0.0524  0.2815
  412MOL0     C54311  10.620  10.884   4.161  0.4025 -0.2432  0.2364
  412MOL0     C54312  10.750  10.917   4.085  0.1957 -0.5416 -0.6826
  412MOL0     C54313  10.736  11.034   3.995  0.6011 -0.1339 -0.0278
  412MOL0     C54314  10.825  11.029   3.881 -0.6813 -0.3678  0.4398
  412MOL0     C54315  10.965  11.027   3.926 -0.1238 -0.2437  0.7169
  412MOL0     C54316  11.074  11.056   3.966 -0.3525  0.2368 -0.2037
  412MOL0     C54317  10.360  10.943   4.283 -0.1602 -0.5883 -0.4608
  412MOL0     C54318  10.244  10.952   4.360  0.2159  0.7397 -0.0351
  412MOL0     H54319  10.039  11.214   4.704 -0.8874  0.6787  1.3143
  412MOL0     H54320   9.870  11.303   4.857  2.2715 -0.2146 -0.0302
  412MOL0     H54321   9.622  10.992   5.102 -0.9404  1.2222  1.4262
  412MOL0     H54322   9.601  11.015   4.930  1.7754 -1.5868  1.1502
  412MOL0     H54323   9.486  11.233   4.970 -2.4768  0.6432  0.2345
  412MOL0     H54324   9.485  11.197   5.138 -1.1450  1.2521 -0.7140
  412MOL0     H54325   9.366  11.010   5.136 -3.4511  0.1902  0.7828
  412MOL0     H54326   9.365  10.999   4.954  0.9607  1.2239 -1.4067
  412MOL0     H54327   9.205  11.177   5.149  2.6377  3.6423 -2.0664
  412MOL0     H54328   9.220  11.217   4.985  0.0094  1.4532  1.2872
  412MOL0     H54329   9.123  10.936   5.080  0.5218  0.4407 -1.0974
  412MOL0     H54330   9.127  11.002   4.910  1.7449 -0.3636  0.0718
  412MOL0     H54331   8.969  11.166   4.939  0.1564  0.5379  0.3425
  412MOL0     H54332   8.963  11.142   5.116 -0.2716 -0.4367 -0.2090
  412MOL0     H54333   8.856  10.949   4.915 -2.3858 -0.3213  0.5270
  412MOL0     H54334   8.885  10.909   5.087  0.1815 -0.1637 -0.4045
  412MOL0     H54335   8.703  11.126   4.992 -4.5801  0.1144  2.0146
  412MOL0     H54336   8.718  11.076   5.158  1.4913 -0.2536  0.5845
  412MOL0     H54337   8.650  10.816   5.210 -1.4248  0.6112  0.8843
  412MOL0     H54338   8.542  10.571   5.155 -1.9153 -2.4673  1.0253
  412MOL0     H54339   8.409  10.564   5.035  1.3821 -3.3258  1.7507
  412MOL0     H54340   8.267  10.707   5.173 -1.3544 -0.4494  1.0220
  412MOL0     H54341   8.398  10.745   5.277  1.0217  0.6061 -1.8003
  412MOL0     H54342   8.351  10.449   5.233  0.8451  0.7932 -0.5356
  412MOL0     H54343   8.415  10.546   5.360  2.3554  3.7517 -0.8795
  412MOL0     H54344   8.193  10.449   5.439 -0.1516 -0.5242  0.3234
  412MOL0     H54345   8.112  10.540   5.308 -1.4694  1.1411  1.6075
  412MOL0     H54346   7.971  10.490   5.514  1.6130  0.5809 -0.7352
  412MOL0     H54347   7.746  10.558   5.579 -0.5208  0.7991 -2.9132
  412MOL0     H54348   7.455  10.619   5.841  0.9491  2.4593  1.2521
  412MOL0     H54349   7.216  10.639   5.922  0.3012 -3.1567 -1.2707
  412MOL0     H54350   7.024  10.878   5.934 -2.4065  1.6180 -0.0900
  412MOL0     H54351   7.026  10.720   5.994 -3.1342  0.7606  1.5630
  412MOL0     H54352   6.789  10.684   5.878  3.3847 -1.9589  0.7558
  412MOL0     H54353   6.804  10.853   5.834 -0.6021  0.6330  0.8627
  412MOL0     H54354   6.797  10.913   6.088 -0.6840  1.3212 -1.6447
  412MOL0     H54355   6.780  10.733   6.112 -0.1331  0.2604  0.3247
  412MOL0     H54356   6.589  10.928   5.985 -1.6359  0.4795  2.5364
  412MOL0     H54357   6.567  10.764   5.949 -2.5504 -1.6402  1.2814
  412MOL0     H54358   6.580  10.885   6.237 -0.2728 -0.2330  0.0196
  412MOL0     H54359   6.532  10.721   6.188 -1.1691 -1.1345 -1.8626
  412MOL0     H54360   6.356  10.966   6.100 -3.4123  0.9002  2.0116
  412MOL0     H54361   6.364  10.897   6.252  4.6139  4.4796  0.3748
  412MOL0     H54362   6.325  10.720   6.005  0.1873  2.0281 -0.9609
  412MOL0     H54363   6.306  10.683   6.180  3.4939 -0.8312 -1.2128
  412MOL0     H54364   6.131  10.873   6.011 -2.1857 -0.8627 -0.3731
  412MOL0     H54365   6.108  10.839   6.182  0.1919 -1.7182  0.6980
  412MOL0     H54366   7.135  10.829   5.540 -0.6506  1.2161  0.1167
  412MOL0     H54367   7.374  10.807   5.476  3.8036 -1.5602 -0.7053
  412MOL0     H54368   7.859  10.952   5.626  4.2582  1.0399  0.9400
  412MOL0     H54369   8.105  10.895   5.535  2.4278 -2.4693  1.4865
  412MOL0     H54370   9.834  10.910   5.032  1.1362 -1.5098 -0.9989
  412MOL0     H54371  10.043  10.851   4.899  0.2462 -0.1018  4.5708
  412MOL0     H54372  10.373  11.039   4.658 -0.3906  2.3815 -0.5521
  412MOL0     H54373  10.591  11.009   4.522 -0.0315  0.1771  0.2420
  412MOL0     H54374  10.531  10.869   4.100 -0.6626  2.6735  0.8985
  412MOL0     H54375  10.647  10.798   4.223 -0.9162 -0.3136  0.7251
  412MOL0     H54376  10.818  10.935   4.168  1.9001  4.0766 -2.7448
  412MOL0     H54377  10.796  10.835   4.029  2.1432  1.0576 -1.5470
  412MOL0     H54378  10.758  11.129   4.043  1.8785  0.8901 -2.4563
  412MOL0     H54379  10.634  11.036   3.958 -0.1351  1.9086  1.9363
  412MOL0     H54380  10.807  10.941   3.818  1.9459  0.0342 -1.0144
  412MOL0     H54381  10.821  11.115   3.814 -0.7884 -1.1544 -0.5813
  412MOL0     H54382  11.172  11.087   3.997 -0.4916 -0.2475  0.7694
  412MOL0     H54383  10.341  10.926   4.177 -0.1913 -1.6475 -0.2928
  412MOL0     H54384  10.150  10.928   4.313  0.4071 -2.8857  1.1092
  413MOL0     O54385  10.430   1.102   2.936 -0.5303  0.8637  0.1293
  413MOL0     C54386  10.402   1.055   2.824 -0.3499  0.3474  0.3983
  413MOL0     O54387  10.277   1.009   2.785 -0.0397 -0.4117 -0.2481
  413MOL0     C54388  10.159   1.011   2.861 -0.4068  0.0106 -0.6310
  413MOL0     C54389  10.130   1.080   2.982  0.4159 -1.2440  0.0662
  413MOL0     C54390   9.998   1.084   3.035 -1.2085  0.5299 -0.4480
  413MOL0     C54391   9.904   1.009   2.979  0.4934 -0.5629 -0.1557
  413MOL0     O54392   9.768   1.003   3.008 -0.0704  0.6475  0.3707
  413MOL0     C54393   9.719   1.091   3.106  0.1403 -0.4512  0.1056
  413MOL0     C54394   9.571   1.088   3.096  0.9883  0.9889 -0.0858
  413MOL0     C54395   9.536   0.946   3.143  0.6207  0.2742  0.1251
  413MOL0     C54396   9.389   0.957   3.189  0.1612  0.1853  0.4922
  413MOL0     C54397   9.328   0.822   3.234  0.3460  0.1744  0.0906
  413MOL0     C54398   9.187   0.829   3.306 -0.2104  0.7082  0.0225
  413MOL0     C54399   9.071   0.892   3.220 -0.8951  0.6152 -0.1769
  413MOL0     C54400   9.035   0.788   3.110  0.0053 -0.5607  0.9837
  413MOL0     N54401   8.906   0.824   3.048 -0.2257  0.5430 -0.3645
  413MOL0     C54402   8.790   0.757   3.078  0.5142  0.5148  0.8217
  413MOL0     C54403   8.692   0.823   3.017 -0.1873  0.4151 -0.2907
  413MOL0     C54404   8.543   0.793   3.024 -0.9764  0.0554 -0.5449
  413MOL0     C54405   8.445   0.915   3.032  0.9297 -0.5551  0.4788
  413MOL0     C54406   8.459   0.996   3.158  0.3673 -0.2899 -0.1745
  413MOL0     C54407   8.348   1.102   3.182  0.0010 -0.2835  0.2059
  413MOL0     O54408   8.218   1.053   3.217 -0.1545  0.1109 -0.4583
  413MOL0     C54409   8.138   1.146   3.277  0.3510 -0.9060  0.6426
  413MOL0     C54410   8.151   1.286   3.257  0.1275 -0.4767  0.4716
  413MOL0     C54411   8.044   1.378   3.289 -0.5356  0.0736 -0.4470
  413MOL0     C54412   7.922   1.325   3.338  0.7664  0.7224 -0.5063
  413MOL0     C54413   7.805   1.409   3.370 -0.2431  0.4748  0.1988
  413MOL0     O54414   7.742   1.376   3.485  0.0378 -0.5040  0.0466
  413MOL0     C54415   7.608   1.394   3.507 -0.0894 -0.0969 -0.5662
  413MOL0     C54416   7.512   1.430   3.406 -0.1092 -0.8608 -0.0171
  413MOL0     C54417   7.383   1.458   3.449 -0.2953  0.1996  0.9020
  413MOL0     C54418   7.341   1.457   3.583 -0.7634 -0.1904 -0.4827
  413MOL0     O54419   7.214   1.500   3.632  0.1137  0.8723  0.4319
  413MOL0     C54420   7.118   1.523   3.529  1.0825 -0.4554  0.0580
  413MOL0     C54421   6.998   1.598   3.595 -0.2109 -0.4527  0.1787
  413MOL0     C54422   6.935   1.504   3.694 -0.4990 -0.1189  0.4224
  413MOL0     C54423   6.794   1.537   3.726  0.3538  0.7717  0.3076
  413MOL0     C54424   6.720   1.417   3.796 -0.3218 -0.5645  0.5236
  413MOL0     C54425   6.567   1.438   3.803 -0.0741 -0.0820 -0.2067
  413MOL0     C54426   6.503   1.489   3.679 -0.2873  0.0282 -0.4676
  413MOL0     C54427   6.355   1.470   3.675  0.5582  0.2850  0.3416
  413MOL0    Cl54428   6.280   1.544   3.821  0.2347  0.3800 -0.0151
  413MOL0     C54429   7.433   1.412   3.674  0.6208 -0.6712 -0.2454
  413MOL0     C54430   7.561   1.382   3.639  0.2424 -0.5753  0.3198
  413MOL0     O54431   7.771   1.498   3.293 -0.5453  0.1523  0.6961
  413MOL0     C54432   7.911   1.182   3.370  0.0655  1.0908  0.9260
  413MOL0     C54433   8.019   1.095   3.329 -0.0329  0.2249  0.0076
  413MOL0     N54434   8.742   0.943   2.963  0.5088  0.0581 -0.3685
  413MOL0     N54435   8.874   0.942   2.985  0.2635 -0.5706  0.1287
  413MOL0     C54436   9.932   0.935   2.867 -0.3505 -0.2240 -0.7975
  413MOL0     C54437  10.056   0.934   2.810  0.2997 -0.4715  0.0309
  413MOL0     C54438  10.511   1.048   2.717 -0.4931  0.0581 -0.4619
  413MOL0     C54439  10.640   1.101   2.752  0.3316  0.9130 -0.1238
  413MOL0     C54440  10.742   1.080   2.656 -0.2184  0.9698  0.0472
  413MOL0     C54441  10.717   1.020   2.529 -0.0800 -0.1016 -0.0887
  413MOL0     O54442  10.819   0.990   2.432 -0.0901 -0.1322 -0.0231
  413MOL0     C54443  10.897   0.875   2.465  0.5936  0.4170  0.0676
  413MOL0     C54444  11.045   0.906   2.489 -0.9295 -0.4951  0.0317
  413MOL0     C54445  11.117   0.962   2.362  1.2650  0.3387 -0.4826
  413MOL0     C54446  11.158   0.856   2.266  0.0128 -0.1416  0.0950
  413MOL0     C54447  11.224   0.913   2.152  0.1259 -0.0256 -0.8149
  413MOL0     C54448  11.292   0.955   2.067 -0.2276 -0.5327  0.2078
  413MOL0     C54449  10.586   0.986   2.496  0.9203 -0.0908 -0.1925
  413MOL0     C54450  10.482   0.994   2.591 -0.0455 -0.2681 -0.1693
  413MOL0     H54451  10.207   1.143   3.023 -1.2060  0.5676  0.5027
  413MOL0     H54452   9.983   1.143   3.125 -0.4872  1.2317 -0.7830
  413MOL0     H54453   9.763   1.190   3.088 -0.1558  0.1347  2.3113
  413MOL0     H54454   9.756   1.065   3.206  1.1460 -0.4858 -0.2641
  413MOL0     H54455   9.529   1.103   2.996 -1.0235  0.5515  0.6387
  413MOL0     H54456   9.540   1.167   3.165  0.3293 -0.5368  1.4596
  413MOL0     H54457   9.598   0.924   3.231 -0.2259  2.1028  1.2367
  413MOL0     H54458   9.560   0.875   3.063 -2.4623  0.5898 -1.1987
  413MOL0     H54459   9.382   1.022   3.277 -1.2363 -1.1414  1.4251
  413MOL0     H54460   9.322   0.985   3.106 -0.8557 -0.4325  1.0807
  413MOL0     H54461   9.395   0.767   3.300  0.6753  1.5510  0.9519
  413MOL0     H54462   9.306   0.757   3.149 -0.1273  0.8351 -0.3090
  413MOL0     H54463   9.199   0.877   3.404 -0.9556 -3.2715  2.2971
  413MOL0     H54464   9.156   0.727   3.332  1.9438  0.3503  1.4533
  413MOL0     H54465   8.980   0.911   3.279 -0.9055  0.1656 -0.0433
  413MOL0     H54466   9.105   0.988   3.181  1.7227 -0.6572 -1.2978
  413MOL0     H54467   9.038   0.686   3.148 -0.7888 -2.0436 -2.5294
  413MOL0     H54468   9.115   0.791   3.035 -0.8912  1.6536  0.0158
  413MOL0     H54469   8.791   0.670   3.143 -2.1706 -1.0552 -1.0152
  413MOL0     H54470   8.540   0.724   3.108  1.2940 -0.8990 -1.1741
  413MOL0     H54471   8.509   0.742   2.933 -0.8034 -1.1255  0.0394
  413MOL0     H54472   8.342   0.878   3.026 -0.8806  3.4617  2.6857
  413MOL0     H54473   8.467   0.987   2.953 -2.3225  2.2036  1.8676
  413MOL0     H54474   8.459   0.936   3.249 -1.7128  0.5828  0.4584
  413MOL0     H54475   8.552   1.052   3.171 -0.7330  1.2009  1.7303
  413MOL0     H54476   8.353   1.171   3.098  1.1852 -0.0983  0.4097
  413MOL0     H54477   8.387   1.152   3.271  2.5902 -0.8866 -0.5134
  413MOL0     H54478   8.243   1.327   3.216  0.9415 -0.4465  2.2057
  413MOL0     H54479   8.042   1.486   3.298 -1.3940  0.2640 -2.4414
  413MOL0     H54480   7.538   1.461   3.305  3.9334  0.2279  1.1573
  413MOL0     H54481   7.309   1.484   3.375  0.4305 -0.8250 -0.2311
  413MOL0     H54482   7.085   1.433   3.477 -0.7049  0.1778  0.0366
  413MOL0     H54483   7.156   1.595   3.456 -0.4529  0.8043  0.4431
  413MOL0     H54484   6.922   1.618   3.518  0.8159  1.8902 -0.3226
  413MOL0     H54485   7.026   1.697   3.632  1.7348 -0.0534 -2.1189
  413MOL0     H54486   6.992   1.511   3.787  1.5168 -2.1738 -0.5590
  413MOL0     H54487   6.942   1.398   3.667 -1.2207 -0.4349  1.4271
  413MOL0     H54488   6.799   1.629   3.784 -0.1239  1.2150 -0.3340
  413MOL0     H54489   6.746   1.559   3.630 -0.5827 -1.2725  0.2543
  413MOL0     H54490   6.764   1.394   3.893  0.4575 -2.1401 -0.1600
  413MOL0     H54491   6.738   1.321   3.746 -0.3416 -0.1728 -0.2475
  413MOL0     H54492   6.566   1.513   3.882  3.2162 -0.4981  0.3560
  413MOL0     H54493   6.522   1.346   3.843 -2.5123  0.5960 -1.1679
  413MOL0     H54494   6.526   1.596   3.681  2.0924 -0.4630  0.9289
  413MOL0     H54495   6.542   1.443   3.588 -1.0112 -0.1324 -0.7043
  413MOL0     H54496   6.322   1.365   3.680 -4.1405  1.5373  0.7624
  413MOL0     H54497   6.306   1.512   3.587 -0.2561  2.8438  1.8997
  413MOL0     H54498   7.407   1.404   3.779 -1.6658 -2.5605 -0.8752
  413MOL0     H54499   7.632   1.344   3.712 -0.0678 -4.3914 -1.1072
  413MOL0     H54500   7.814   1.154   3.411 -1.0167 -0.2680 -2.2499
  413MOL0     H54501   8.006   0.989   3.345 -0.1706  0.0250 -1.2851
  413MOL0     H54502   9.861   0.869   2.818 -0.6578 -1.5478  1.2593
  413MOL0     H54503  10.067   0.872   2.722 -3.6031 -0.4145 -0.6397
  413MOL0     H54504  10.666   1.160   2.839  0.1299  0.2529  0.3895
  413MOL0     H54505  10.845   1.109   2.673  0.7308 -1.4626 -1.0188
  413MOL0     H54506  10.892   0.797   2.388  0.3028  0.1500  0.3537
  413MOL0     H54507  10.852   0.823   2.550  0.1085  0.6284 -0.0562
  413MOL0     H54508  11.056   0.975   2.573 -1.9464 -1.3257  0.8891
  413MOL0     H54509  11.088   0.809   2.515  1.9259  0.1502 -1.8666
  413MOL0     H54510  11.208   1.015   2.390  2.5360 -1.1933 -1.5404
  413MOL0     H54511  11.049   1.029   2.309  0.9884 -0.5413 -1.2906
  413MOL0     H54512  11.221   0.780   2.314  0.4580  0.4878  0.5370
  413MOL0     H54513  11.072   0.798   2.229 -0.2349  0.5505 -0.4273
  413MOL0     H54514  11.347   0.974   1.977  1.2188  2.2274  1.5571
  413MOL0     H54515  10.569   0.950   2.395  1.0374  0.3619 -0.3761
  413MOL0     H54516  10.387   0.943   2.577  0.8379 -2.2549  0.6604
  414MOL0     O54517   6.620   9.618   3.123  0.3857 -0.1905  0.6207
  414MOL0     C54518   6.644   9.505   3.088 -0.5118  0.0591  0.1411
  414MOL0     O54519   6.579   9.434   2.982 -0.6802 -0.0383 -0.8625
  414MOL0     C54520   6.502   9.494   2.891  0.8532  0.1112 -0.1359
  414MOL0     C54521   6.508   9.439   2.764 -0.3332 -0.2637  0.1402
  414MOL0     C54522   6.424   9.489   2.658 -0.1642  0.2377 -0.3121
  414MOL0     C54523   6.331   9.599   2.687  0.4593  0.5082 -0.1216
  414MOL0     O54524   6.257   9.660   2.598  0.7184  0.6293 -0.0105
  414MOL0     C54525   6.215   9.611   2.476  0.2427  0.1194 -0.3834
  414MOL0     C54526   6.126   9.721   2.412 -0.2522  0.2084 -0.0489
  414MOL0     C54527   6.064   9.680   2.279 -0.7637 -0.0796  0.2096
  414MOL0     C54528   5.947   9.778   2.255 -0.4697  0.1286 -0.0775
  414MOL0     C54529   5.865   9.724   2.130  0.2931  0.2378 -0.1268
  414MOL0     C54530   5.752   9.820   2.080 -0.4213 -0.3462 -0.3468
  414MOL0     C54531   5.673   9.745   1.971  0.1222  0.2586 -1.0140
  414MOL0     C54532   5.567   9.832   1.912 -0.1872 -0.6777 -0.0371
  414MOL0     N54533   5.475   9.771   1.828  0.2598  0.4052 -1.2978
  414MOL0     C54534   5.389   9.829   1.736 -0.0615 -0.1012 -0.0998
  414MOL0     C54535   5.293   9.738   1.710  0.7977 -0.2779 -0.7652
  414MOL0     C54536   5.172   9.748   1.629  0.8472  0.1668  0.5522
  414MOL0     C54537   5.093   9.881   1.667 -0.3137 -0.7145  0.5939
  414MOL0     C54538   4.963   9.882   1.586 -1.7256  0.4433 -0.0829
  414MOL0     C54539   4.858   9.967   1.650  0.8456  0.9085  0.0780
  414MOL0     O54540   4.721   9.950   1.596  0.1425  0.6378  0.1277
  414MOL0     C54541   4.624  10.047   1.617 -0.0562  0.7037  0.3936
  414MOL0     C54542   4.497  10.041   1.553  0.0334 -0.3501  0.7414
  414MOL0     C54543   4.402  10.139   1.560  0.0062 -0.9836  0.2980
  414MOL0     C54544   4.431  10.264   1.630  0.3848  0.5977 -0.8374
  414MOL0     C54545   4.325  10.367   1.623 -0.2263  0.4062 -0.4608
  414MOL0     O54546   4.202  10.326   1.621  0.2495 -0.0423  0.6702
  414MOL0     C54547   4.107  10.422   1.606  0.6016  0.5916  0.5332
  414MOL0     C54548   4.089  10.489   1.479  0.5124  0.1674 -0.4052
  414MOL0     C54549   3.990  10.588   1.454 -0.4179  0.1555  0.1803
  414MOL0     C54550   3.894  10.602   1.553 -0.7015 -0.4058  0.6444
  414MOL0     O54551   3.801  10.701   1.540  0.0769  0.1190  0.8862
  414MOL0     C54552   3.729  10.748   1.649 -0.4342 -0.4598 -0.4535
  414MOL0     C54553   3.658  10.872   1.608 -0.5115  0.0211 -1.1975
  414MOL0     C54554   3.587  10.928   1.738 -0.4000 -0.0470 -0.0786
  414MOL0     C54555   3.500  11.046   1.692 -0.4416 -1.2321 -0.0810
  414MOL0     C54556   3.351  11.031   1.727 -0.1081  0.1362  0.1131
  414MOL0     C54557   3.272  11.163   1.695  0.9277 -0.0419 -0.1469
  414MOL0     C54558   3.144  11.155   1.770  0.0405 -0.0681  0.1834
  414MOL0     C54559   3.060  11.274   1.731 -0.2554  0.2319 -0.1817
  414MOL0    Cl54560   2.883  11.242   1.769 -0.1118 -0.0213  0.0873
  414MOL0     C54561   3.910  10.535   1.674  0.0149  0.1708 -1.0746
  414MOL0     C54562   4.011  10.442   1.698  0.3485 -0.2596 -0.9445
  414MOL0     O54563   4.358  10.486   1.632 -0.2324  0.2533 -0.3199
  414MOL0     C54564   4.551  10.269   1.692  0.1349 -0.2915  0.2287
  414MOL0     C54565   4.639  10.159   1.694 -0.1058 -0.7955  0.2524
  414MOL0     N54566   5.330   9.626   1.777 -0.0692  0.8263 -0.3869
  414MOL0     N54567   5.429   9.647   1.859 -0.2714 -0.2848 -0.1931
  414MOL0     C54568   6.331   9.656   2.813 -0.5389  0.5050  0.2415
  414MOL0     C54569   6.409   9.601   2.920 -0.2366 -0.4527 -0.2375
  414MOL0     C54570   6.765   9.436   3.141 -0.9147 -0.0736  0.8684
  414MOL0     C54571   6.818   9.481   3.263 -0.3887 -0.3157 -0.1629
  414MOL0     C54572   6.928   9.412   3.314 -0.2669  0.1259  0.5615
  414MOL0     C54573   6.984   9.303   3.246  0.2563 -0.0377 -0.4134
  414MOL0     O54574   7.087   9.226   3.292  0.2549 -0.4260 -0.4131
  414MOL0     C54575   7.209   9.300   3.313  0.8804  0.9643 -0.1012
  414MOL0     C54576   7.282   9.234   3.429  0.2900 -0.4588  0.8836
  414MOL0     C54577   7.233   9.276   3.566 -0.1554  0.1028 -0.1294
  414MOL0     C54578   7.313   9.188   3.665 -0.3466 -0.2203  0.0094
  414MOL0     C54579   7.458   9.222   3.672  0.4961 -0.7792  0.0098
  414MOL0     C54580   7.573   9.250   3.669 -0.0468  1.3395  0.3629
  414MOL0     C54581   6.934   9.262   3.125 -0.1780 -0.8175  0.9382
  414MOL0     C54582   6.814   9.318   3.075 -1.0852 -0.3089 -0.1528
  414MOL0     H54583   6.580   9.361   2.742  0.3193  0.1705  0.7335
  414MOL0     H54584   6.435   9.447   2.559  1.6378 -0.1271  0.0058
  414MOL0     H54585   6.151   9.527   2.505  0.2792 -0.9571 -3.1536
  414MOL0     H54586   6.297   9.581   2.410 -0.3535  0.2176 -1.1896
  414MOL0     H54587   6.184   9.814   2.404  0.3706  0.1510  2.8185
  414MOL0     H54588   6.056   9.753   2.490  0.0052 -2.6744  1.4944
  414MOL0     H54589   6.022   9.580   2.294  0.2342 -0.5888 -0.2719
  414MOL0     H54590   6.143   9.679   2.203  0.3233 -0.6883  1.3113
  414MOL0     H54591   5.878   9.787   2.340  1.4255  1.3478  1.4165
  414MOL0     H54592   5.984   9.878   2.232 -0.6612  0.8529  2.4645
  414MOL0     H54593   5.816   9.628   2.146 -0.6220  0.6921 -0.1394
  414MOL0     H54594   5.928   9.706   2.043 -1.1791 -3.5161 -0.5644
  414MOL0     H54595   5.806   9.909   2.045  1.8371 -1.6149 -0.2940
  414MOL0     H54596   5.695   9.844   2.170 -0.4665 -0.0824 -0.4427
  414MOL0     H54597   5.748   9.728   1.893 -0.8118 -0.2045 -1.8231
  414MOL0     H54598   5.639   9.651   2.015  2.8728  0.0547  0.8980
  414MOL0     H54599   5.610   9.915   1.855 -3.8492  1.0612 -0.5603
  414MOL0     H54600   5.505   9.869   1.995 -1.0877  1.3055 -1.4986
  414MOL0     H54601   5.399   9.929   1.697 -1.4073  0.3435  0.6365
  414MOL0     H54602   5.105   9.666   1.657  0.2818  0.3246 -0.3186
  414MOL0     H54603   5.198   9.743   1.523  0.3259  2.4046  0.2638
  414MOL0     H54604   5.154   9.968   1.641  0.6944 -1.6241 -0.1475
  414MOL0     H54605   5.072   9.884   1.774  0.3550  0.8539  0.7070
  414MOL0     H54606   4.978   9.913   1.482 -2.0043 -1.4810 -0.7343
  414MOL0     H54607   4.918   9.782   1.591 -3.7987  1.3397  0.6209
  414MOL0     H54608   4.889  10.069   1.629  0.9572  1.0056  0.7049
  414MOL0     H54609   4.873   9.942   1.755  2.5615 -0.9690 -0.5347
  414MOL0     H54610   4.480   9.954   1.490  1.5055 -0.3615  0.3270
  414MOL0     H54611   4.308  10.113   1.513  1.3895 -1.2876 -2.4877
  414MOL0     H54612   4.156  10.467   1.397  0.9953 -0.5324  0.1616
  414MOL0     H54613   3.997  10.648   1.363 -0.4313 -0.7039 -0.3954
  414MOL0     H54614   3.802  10.782   1.723  0.1325  0.6477 -1.4853
  414MOL0     H54615   3.671  10.671   1.701 -0.4802 -1.3472 -1.7818
  414MOL0     H54616   3.583  10.854   1.530 -1.9209 -0.5549  0.2534
  414MOL0     H54617   3.725  10.951   1.573 -0.5386  1.5656  1.9433
  414MOL0     H54618   3.667  10.960   1.805 -1.7043  2.2798  0.4976
  414MOL0     H54619   3.522  10.856   1.790 -2.0149  0.7924 -0.8619
  414MOL0     H54620   3.537  11.131   1.750 -0.9016 -0.7190 -0.5321
  414MOL0     H54621   3.520  11.072   1.588 -1.2837 -1.0251 -0.1929
  414MOL0     H54622   3.351  11.008   1.834 -0.8752  0.3274  0.1616
  414MOL0     H54623   3.319  10.952   1.660  2.4830 -0.5661 -0.4166
  414MOL0     H54624   3.251  11.172   1.589  0.4744  2.5541  0.0999
  414MOL0     H54625   3.327  11.254   1.723 -2.9323  1.1049  5.3012
  414MOL0     H54626   3.083  11.067   1.752  0.4119 -0.2482 -0.2290
  414MOL0     H54627   3.181  11.152   1.873  1.8766 -1.3991 -0.4733
  414MOL0     H54628   3.056  11.292   1.623 -3.9832  2.9567  0.1955
  414MOL0     H54629   3.094  11.366   1.780 -2.3505 -0.2949  2.4991
  414MOL0     H54630   3.832  10.544   1.749 -1.0009  0.0196 -2.0810
  414MOL0     H54631   4.002  10.373   1.780  1.5538 -0.7557 -1.2045
  414MOL0     H54632   4.576  10.365   1.736  0.6347  0.7212 -2.1230
  414MOL0     H54633   4.732  10.179   1.746 -0.2828  1.9901 -0.3443
  414MOL0     H54634   6.267   9.743   2.821 -1.2970 -0.0708  0.6251
  414MOL0     H54635   6.397   9.645   3.018 -0.1942 -0.1362 -0.3730
  414MOL0     H54636   6.780   9.571   3.311  2.2658  2.1804 -2.3564
  414MOL0     H54637   6.972   9.448   3.406 -3.1140 -1.2819  2.5791
  414MOL0     H54638   7.195   9.408   3.326  0.6632  1.2719 -2.3798
  414MOL0     H54639   7.273   9.285   3.225  1.6233  0.2600  0.5409
  414MOL0     H54640   7.285   9.127   3.410 -2.8578 -0.4169 -0.3898
  414MOL0     H54641   7.385   9.264   3.405  0.5300  0.3191  2.7167
  414MOL0     H54642   7.124   9.264   3.557 -0.4247  2.5207 -0.8731
  414MOL0     H54643   7.251   9.383   3.580 -1.4195  0.5228 -1.4944
  414MOL0     H54644   7.281   9.198   3.769  1.9299  0.1133  0.7454
  414MOL0     H54645   7.299   9.086   3.627 -3.0940  0.0748  0.0678
  414MOL0     H54646   7.675   9.283   3.671 -0.2437  2.0954 -0.7552
  414MOL0     H54647   6.988   9.182   3.076 -2.6084 -1.9118 -0.1464
  414MOL0     H54648   6.785   9.283   2.976 -1.1289 -0.1359 -0.2023
  415MOL0     O54649   4.860   6.627   0.558  0.3946  0.3299 -0.0182
  415MOL0     C54650   4.902   6.580   0.661 -0.8389 -0.7045 -0.2681
  415MOL0     O54651   4.829   6.534   0.766  0.3028 -0.0402 -0.3895
  415MOL0     C54652   4.693   6.518   0.758 -0.2971 -1.1972  0.3850
  415MOL0     C54653   4.620   6.470   0.649 -0.2734 -0.1938 -0.0450
  415MOL0     C54654   4.483   6.460   0.651 -0.7084  0.3419 -0.1105
  415MOL0     C54655   4.416   6.512   0.765  0.3278  0.5611  0.2435
  415MOL0     O54656   4.280   6.495   0.751 -1.1096  0.1709  0.5092
  415MOL0     C54657   4.212   6.585   0.837 -0.2241  0.8102  0.2944
  415MOL0     C54658   4.058   6.595   0.804  0.8887 -0.6110  0.4436
  415MOL0     C54659   3.986   6.457   0.783  0.4091 -0.2205  0.0933
  415MOL0     C54660   3.843   6.475   0.737 -0.5559  0.8333 -0.7370
  415MOL0     C54661   3.790   6.340   0.713  0.3609  0.4755  0.1439
  415MOL0     C54662   3.665   6.354   0.626 -0.3109  0.4146  0.4171
  415MOL0     C54663   3.568   6.244   0.628  0.0222  0.2405 -0.2179
  415MOL0     C54664   3.644   6.116   0.561 -0.4504  0.4263  0.7802
  415MOL0     N54665   3.534   6.016   0.560 -0.0058 -0.4800  0.3813
  415MOL0     C54666   3.480   5.960   0.674 -0.8315  0.2673  0.2310
  415MOL0     C54667   3.405   5.860   0.630  0.6544 -0.0603 -0.1259
  415MOL0     C54668   3.341   5.748   0.698  0.6764  0.2849 -0.4923
  415MOL0     C54669   3.448   5.654   0.771  0.7309 -0.4481  0.3700
  415MOL0     C54670   3.383   5.565   0.877  0.5741 -0.5871  0.1062
  415MOL0     C54671   3.492   5.500   0.973  0.1576  0.0302 -0.0558
  415MOL0     O54672   3.568   5.601   1.035  0.4458  0.1921 -0.4324
  415MOL0     C54673   3.696   5.571   1.085  0.3966  0.1827 -0.2342
  415MOL0     C54674   3.732   5.452   1.151  0.5997 -0.3907  0.0714
  415MOL0     C54675   3.858   5.430   1.199 -0.1895 -0.0193  0.1903
  415MOL0     C54676   3.960   5.525   1.173  0.7524 -0.4063 -0.3121
  415MOL0     C54677   4.100   5.494   1.215  0.2319 -0.2445 -0.2195
  415MOL0     O54678   4.128   5.368   1.255  0.5329 -0.4881 -0.3270
  415MOL0     C54679   4.251   5.344   1.299 -0.9419 -0.6826 -0.5236
  415MOL0     C54680   4.279   5.289   1.431 -0.1489 -0.2212 -0.7753
  415MOL0     C54681   4.405   5.263   1.470  0.2860 -0.0191  0.7802
  415MOL0     C54682   4.511   5.296   1.377  0.2178 -0.1979  0.2197
  415MOL0     O54683   4.636   5.275   1.424 -0.1451 -0.3856  0.4266
  415MOL0     C54684   4.709   5.397   1.430 -0.5290 -0.2408  0.1552
  415MOL0     C54685   4.828   5.387   1.531 -1.1741 -0.5633  0.4436
  415MOL0     C54686   4.946   5.304   1.479  0.0001  0.8495 -0.0169
  415MOL0     C54687   5.051   5.287   1.586 -0.2712  0.1847  0.5634
  415MOL0     C54688   5.107   5.418   1.638  0.0772 -0.8384 -0.3214
  415MOL0     C54689   5.248   5.392   1.710 -0.6243 -0.2438 -0.9406
  415MOL0     C54690   5.240   5.297   1.836  0.7060 -0.4556  0.6348
  415MOL0     C54691   5.371   5.297   1.907  0.5037 -0.2657 -0.0657
  415MOL0    Cl54692   5.362   5.424   2.039 -0.2131  0.0185  0.3730
  415MOL0     C54693   4.486   5.338   1.249  0.2513 -0.1462 -0.4180
  415MOL0     C54694   4.354   5.360   1.208 -0.2108  0.4109  0.3843
  415MOL0     O54695   4.177   5.589   1.206  0.1022  0.6584  0.5205
  415MOL0     C54696   3.927   5.650   1.100 -0.1272  0.9662 -0.6224
  415MOL0     C54697   3.795   5.663   1.061 -0.5276  0.6727 -0.4331
  415MOL0     N54698   3.413   5.862   0.493 -0.2814 -0.2768 -0.3775
  415MOL0     N54699   3.486   5.953   0.454  0.0122  0.6338 -0.3375
  415MOL0     C54700   4.485   6.575   0.876 -0.3368  1.4820  0.0447
  415MOL0     C54701   4.624   6.576   0.870 -0.3104 -0.4391 -0.0127
  415MOL0     C54702   5.042   6.588   0.676  0.1426 -0.0732 -0.4656
  415MOL0     C54703   5.109   6.547   0.786  0.2646  0.4303 -0.4638
  415MOL0     C54704   5.246   6.526   0.782  0.5282 -0.2665  0.0033
  415MOL0     C54705   5.326   6.564   0.671 -0.6829 -0.5338  0.2447
  415MOL0     O54706   5.461   6.567   0.666  0.3791  0.5730 -0.4641
  415MOL0     C54707   5.518   6.453   0.729  0.3443 -0.0431  0.1670
  415MOL0     C54708   5.662   6.431   0.710 -1.0884 -0.9288  0.9881
  415MOL0     C54709   5.747   6.545   0.784 -0.8442 -0.9329  0.5438
  415MOL0     C54710   5.886   6.570   0.725  0.2705 -0.3681  0.6382
  415MOL0     C54711   5.979   6.473   0.773  0.3540  0.9756  1.1216
  415MOL0     C54712   6.058   6.383   0.796 -0.2746  0.3206 -0.1027
  415MOL0     C54713   5.260   6.624   0.570  0.1083  0.9327 -0.4398
  415MOL0     C54714   5.118   6.632   0.567  0.4196 -0.3701  0.5135
  415MOL0     H54715   4.668   6.439   0.556  1.8970 -0.4229  1.0917
  415MOL0     H54716   4.440   6.410   0.565  1.8101 -0.7359 -0.8457
  415MOL0     H54717   4.251   6.687   0.828 -0.9666  1.0658 -0.1594
  415MOL0     H54718   4.231   6.553   0.940 -1.1198 -1.5600 -0.2172
  415MOL0     H54719   4.050   6.660   0.717 -0.4664 -0.9833  0.2804
  415MOL0     H54720   4.010   6.638   0.892  2.2659 -2.7091  2.3530
  415MOL0     H54721   3.975   6.390   0.868 -0.0024 -3.2816 -2.1994
  415MOL0     H54722   4.054   6.413   0.709  0.4698  2.0352 -1.3010
  415MOL0     H54723   3.776   6.530   0.803 -1.6964 -0.3318 -0.8643
  415MOL0     H54724   3.850   6.530   0.642 -0.2750  0.7321 -0.7764
  415MOL0     H54725   3.755   6.293   0.806  1.6661  1.0364  0.9577
  415MOL0     H54726   3.865   6.275   0.668 -0.9966 -1.0448 -0.0341
  415MOL0     H54727   3.693   6.383   0.524 -1.7996  0.3626 -0.0282
  415MOL0     H54728   3.610   6.441   0.665 -0.2501  0.0842  1.2647
  415MOL0     H54729   3.551   6.230   0.736  2.7559  0.5517  0.3068
  415MOL0     H54730   3.467   6.257   0.588 -1.3896 -2.1092  2.2082
  415MOL0     H54731   3.719   6.073   0.627 -2.1798 -0.7148  2.1067
  415MOL0     H54732   3.678   6.135   0.459 -2.2998  0.9182  0.2045
  415MOL0     H54733   3.505   5.986   0.777 -1.6135  1.5657  0.1126
  415MOL0     H54734   3.290   5.690   0.621  2.3773 -0.5552 -1.0301
  415MOL0     H54735   3.267   5.787   0.769  1.9578  0.0875  1.0041
  415MOL0     H54736   3.533   5.707   0.815  1.0544  1.7518 -2.6088
  415MOL0     H54737   3.485   5.594   0.687  1.1371 -0.0293  0.2458
  415MOL0     H54738   3.312   5.619   0.940  0.4122 -0.9738  0.2637
  415MOL0     H54739   3.324   5.485   0.831 -0.9851 -0.1926  1.3674
  415MOL0     H54740   3.559   5.431   0.920  0.8344  0.7767 -0.1865
  415MOL0     H54741   3.431   5.444   1.045 -0.7252 -0.8730 -1.4566
  415MOL0     H54742   3.655   5.381   1.180  0.9277 -0.7334  0.1063
  415MOL0     H54743   3.882   5.335   1.246 -1.8790 -0.7433 -0.3682
  415MOL0     H54744   4.197   5.266   1.497  1.0688  0.1817  0.9601
  415MOL0     H54745   4.426   5.224   1.569  0.4262 -1.3315  0.2559
  415MOL0     H54746   4.649   5.480   1.467 -4.0529 -1.1947 -2.8804
  415MOL0     H54747   4.751   5.431   1.335 -2.7291 -0.0913 -0.8155
  415MOL0     H54748   4.791   5.356   1.629 -0.3485  0.1087  0.9776
  415MOL0     H54749   4.861   5.488   1.559  0.9679 -1.1415  0.1781
  415MOL0     H54750   4.998   5.357   1.399 -0.0571 -2.5974 -2.5661
  415MOL0     H54751   4.905   5.211   1.438  0.2106  0.8758 -0.2935
  415MOL0     H54752   5.004   5.231   1.668 -2.5241  0.7465 -0.2550
  415MOL0     H54753   5.130   5.223   1.549 -0.2988  1.3365 -1.6364
  415MOL0     H54754   5.035   5.467   1.705  0.5053  3.2053 -2.5108
  415MOL0     H54755   5.121   5.481   1.550  2.1609  1.3820  1.4422
  415MOL0     H54756   5.300   5.485   1.734  1.3970 -1.3723 -0.6937
  415MOL0     H54757   5.305   5.339   1.633  2.9432  0.3628  1.0688
  415MOL0     H54758   5.161   5.321   1.908 -0.0993 -0.7986 -0.1201
  415MOL0     H54759   5.223   5.198   1.791  1.0325  0.0564 -0.6450
  415MOL0     H54760   5.463   5.311   1.848 -0.0562 -1.2179 -1.2089
  415MOL0     H54761   5.392   5.198   1.947  2.6257 -0.6097 -1.7987
  415MOL0     H54762   4.572   5.364   1.188 -0.1738  0.2718 -0.8521
  415MOL0     H54763   4.331   5.402   1.110 -0.8003  0.8501  0.7080
  415MOL0     H54764   3.998   5.730   1.081  2.4003 -2.1323 -7.0846
  415MOL0     H54765   3.781   5.746   0.993 -2.5836  0.3983 -0.4171
  415MOL0     H54766   4.448   6.621   0.967  0.9869  1.9431  0.3662
  415MOL0     H54767   4.677   6.612   0.958  0.5577  1.8905 -1.3909
  415MOL0     H54768   5.044   6.509   0.865  3.3677 -0.5432  1.8540
  415MOL0     H54769   5.296   6.481   0.867 -0.0363 -2.4792 -0.7630
  415MOL0     H54770   5.473   6.360   0.693 -0.5518 -0.0908  1.3463
  415MOL0     H54771   5.498   6.452   0.837 -0.4743  5.2399  0.3029
  415MOL0     H54772   5.677   6.332   0.752 -0.5179  0.2402  3.7140
  415MOL0     H54773   5.692   6.426   0.605 -0.1738 -0.3777  1.2144
  415MOL0     H54774   5.749   6.535   0.893  1.5429 -1.9329  0.4580
  415MOL0     H54775   5.695   6.637   0.754  0.8196 -0.4789 -1.0861
  415MOL0     H54776   5.879   6.558   0.616  0.7293  0.2054  0.5433
  415MOL0     H54777   5.919   6.668   0.760 -2.5453  1.0798 -0.4339
  415MOL0     H54778   6.132   6.306   0.794 -1.0144 -0.3804 -1.4973
  415MOL0     H54779   5.321   6.658   0.486  0.5916 -3.2896 -2.0262
  415MOL0     H54780   5.073   6.683   0.482  1.7687  4.0784  2.2084
  416MOL0     O54781   9.005  10.028   2.389  0.0340  0.5689  0.2225
  416MOL0     C54782   9.112  10.051   2.444 -0.0521  0.1267  0.1832
  416MOL0     O54783   9.121  10.121   2.565 -1.6344 -0.7927  0.0417
  416MOL0     C54784   9.006  10.173   2.618 -1.0326 -0.8787 -0.4058
  416MOL0     C54785   8.994  10.156   2.759  0.6045 -0.4012 -0.4820
  416MOL0     C54786   8.884  10.207   2.826 -0.0397  0.0683 -0.2544
  416MOL0     C54787   8.799  10.299   2.763 -0.1472 -0.3606 -0.3341
  416MOL0     O54788   8.700  10.373   2.835 -0.0336 -0.2666  0.2272
  416MOL0     C54789   8.702  10.379   2.981  0.5586 -0.3147 -0.3036
  416MOL0     C54790   8.581  10.458   3.030 -0.9456  0.5141 -0.0184
  416MOL0     C54791   8.579  10.600   2.983 -0.5393 -0.3648 -0.5318
  416MOL0     C54792   8.467  10.677   3.055 -0.6033 -0.2427 -0.3370
  416MOL0     C54793   8.473  10.825   3.015 -0.1243  0.2019 -0.0344
  416MOL0     C54794   8.385  10.909   3.108  0.0409  0.4402  0.1423
  416MOL0     C54795   8.247  10.869   3.144  0.0529 -0.6388 -0.2137
  416MOL0     C54796   8.168  10.989   3.208 -0.8506 -0.2235 -0.1835
  416MOL0     N54797   8.151  11.122   3.138  0.4143 -0.3129 -0.0404
  416MOL0     C54798   8.070  11.134   3.031  0.1175 -0.8248  0.0066
  416MOL0     C54799   8.088  11.265   2.988 -0.7632  0.0160  0.6068
  416MOL0     C54800   8.036  11.322   2.863  0.5264  0.2753 -0.0916
  416MOL0     C54801   7.882  11.343   2.881  0.4129  0.8652 -0.4969
  416MOL0     C54802   7.828  11.376   2.742 -0.4852  0.2445 -0.4886
  416MOL0     C54803   7.674  11.369   2.740 -0.4007  0.8118  0.0470
  416MOL0     O54804   7.615  11.441   2.854 -0.3719 -0.2819  0.4359
  416MOL0     C54805   7.477  11.446   2.857 -0.2911  0.2169  0.3548
  416MOL0     C54806   7.420  11.504   2.968 -0.1233 -0.2991 -0.6768
  416MOL0     C54807   7.280  11.507   2.998 -1.0619 -0.8191  0.6882
  416MOL0     C54808   7.193  11.453   2.895 -0.4378  0.3717  0.1723
  416MOL0     C54809   7.047  11.471   2.910  0.2830  0.2885  0.7126
  416MOL0     O54810   6.974  11.455   2.794  0.0473 -0.4703  0.2456
  416MOL0     C54811   6.833  11.463   2.785 -0.2474 -0.1483 -0.0865
  416MOL0     C54812   6.743  11.452   2.893  0.1734 -0.7571  0.7472
  416MOL0     C54813   6.604  11.475   2.881  0.0814  0.5477 -0.0759
  416MOL0     C54814   6.548  11.507   2.753 -0.2769  0.0148 -0.7620
  416MOL0     O54815   6.413  11.539   2.746 -0.2175  0.6153 -0.6791
  416MOL0     C54816   6.350  11.561   2.622 -0.2609 -0.5038  0.6817
  416MOL0     C54817   6.202  11.595   2.638  0.6730  0.5886 -0.0600
  416MOL0     C54818   6.128  11.623   2.509 -0.2232 -0.0381  0.6911
  416MOL0     C54819   5.974  11.652   2.527 -0.8057  0.1392 -0.5543
  416MOL0     C54820   5.887  11.530   2.546  0.5154 -0.2633 -1.3770
  416MOL0     C54821   5.916  11.413   2.450  0.3773 -0.3794  0.4932
  416MOL0     C54822   5.801  11.333   2.420 -0.2361  0.7441 -0.3022
  416MOL0     C54823   5.765  11.250   2.543 -0.1569 -0.3802 -0.4172
  416MOL0    Cl54824   5.635  11.147   2.500 -0.6752  0.4175 -0.2993
  416MOL0     C54825   6.634  11.513   2.642 -0.3112 -0.1238  0.3009
  416MOL0     C54826   6.775  11.497   2.663  0.3307 -0.1928  0.0999
  416MOL0     O54827   7.003  11.516   3.019  0.9710  0.1327 -0.0413
  416MOL0     C54828   7.248  11.400   2.773 -0.6466  0.4169 -0.1825
  416MOL0     C54829   7.386  11.388   2.762 -0.9309  0.6776  0.3287
  416MOL0     N54830   8.171  11.325   3.073 -0.1605 -0.1803 -0.8330
  416MOL0     N54831   8.227  11.235   3.150  0.2298 -0.1683 -0.2198
  416MOL0     C54832   8.811  10.322   2.631 -0.2942 -0.7157  0.1654
  416MOL0     C54833   8.918  10.266   2.559 -0.0245 -0.0631 -0.0856
  416MOL0     C54834   9.237  10.009   2.381  0.2947  0.6248  0.6096
  416MOL0     C54835   9.351   9.977   2.459  0.3703 -0.1884  0.4266
  416MOL0     C54836   9.475   9.959   2.397  0.0428 -0.6049  0.2328
  416MOL0     C54837   9.479   9.945   2.252  0.3873 -0.3011  0.0604
  416MOL0     O54838   9.592   9.913   2.188 -0.4120 -0.3880  0.3949
  416MOL0     C54839   9.727   9.973   2.211 -0.9003 -0.2177 -0.0100
  416MOL0     C54840   9.732  10.119   2.235  0.3192  0.2906  0.8559
  416MOL0     C54841   9.874  10.176   2.225  1.2558 -0.5645 -0.1399
  416MOL0     C54842   9.873  10.329   2.234  0.0708  0.4761 -0.6205
  416MOL0     C54843   9.808  10.380   2.351 -0.2658  0.9230  0.4758
  416MOL0     C54844   9.766  10.428   2.450 -0.1874  0.6678  0.2000
  416MOL0     C54845   9.364   9.977   2.181 -0.1974 -0.1318  0.9035
  416MOL0     C54846   9.247   9.998   2.243 -0.1060 -0.7922 -0.3706
  416MOL0     H54847   9.067  10.097   2.813  0.8143 -0.4480 -0.8101
  416MOL0     H54848   8.865  10.193   2.932  3.2841 -0.3742  0.3944
  416MOL0     H54849   8.790  10.436   3.011  0.3359  0.3674 -0.9247
  416MOL0     H54850   8.686  10.284   3.033  2.4539 -0.2351  0.5274
  416MOL0     H54851   8.581  10.467   3.139  0.5417  3.0924 -0.1470
  416MOL0     H54852   8.484  10.415   3.004 -1.7053  1.4659  1.1255
  416MOL0     H54853   8.564  10.603   2.874  0.4936 -1.3079 -0.7172
  416MOL0     H54854   8.675  10.647   3.007  0.2741 -1.5266 -1.3946
  416MOL0     H54855   8.373  10.625   3.034 -0.1200 -0.0952 -3.4425
  416MOL0     H54856   8.488  10.673   3.162 -2.9806  0.8822  0.2199
  416MOL0     H54857   8.429  10.845   2.917  0.0845  0.8167 -0.0036
  416MOL0     H54858   8.578  10.855   3.012  0.2637 -0.9336  1.1040
  416MOL0     H54859   8.390  11.010   3.067  0.4204  0.1625 -0.5246
  416MOL0     H54860   8.442  10.901   3.200 -0.7840  0.7587  0.6940
  416MOL0     H54861   8.191  10.835   3.057 -0.9893  0.8623 -0.1788
  416MOL0     H54862   8.245  10.781   3.209 -0.9467  0.2550  1.0142
  416MOL0     H54863   8.228  11.013   3.296  0.1755 -1.6755 -0.4518
  416MOL0     H54864   8.072  10.956   3.249  0.5443 -0.8014  2.8377
  416MOL0     H54865   8.003  11.063   2.982 -0.5675  0.2817 -0.6940
  416MOL0     H54866   8.038  11.252   2.778 -0.5679 -0.8520  0.7789
  416MOL0     H54867   8.089  11.412   2.830 -0.8033  1.4780  0.9216
  416MOL0     H54868   7.876  11.418   2.961  2.9093  1.4954 -0.8243
  416MOL0     H54869   7.838  11.251   2.921  0.9797  0.2448 -1.2746
  416MOL0     H54870   7.871  11.472   2.710 -0.2516 -0.5741 -2.8636
  416MOL0     H54871   7.872  11.306   2.670  2.1895 -1.7349  2.7466
  416MOL0     H54872   7.657  11.262   2.755  1.2969  0.5313  0.1843
  416MOL0     H54873   7.648  11.400   2.639  0.0105  2.5979  0.4512
  416MOL0     H54874   7.494  11.530   3.044 -0.9479 -1.8823  0.7310
  416MOL0     H54875   7.238  11.543   3.091  1.1144  0.3962  1.2852
  416MOL0     H54876   6.779  11.431   2.993  0.4714  1.9962  1.3149
  416MOL0     H54877   6.553  11.472   2.977 -0.4629 -0.6346 -0.3886
  416MOL0     H54878   6.357  11.477   2.552 -1.6305  0.1751 -0.2990
  416MOL0     H54879   6.402  11.643   2.573 -1.1257 -0.7296 -0.6457
  416MOL0     H54880   6.197  11.686   2.699 -6.1853  0.3638  0.4644
  416MOL0     H54881   6.158  11.511   2.693 -0.2100  0.4748 -0.9225
  416MOL0     H54882   6.137  11.544   2.433  2.1781  0.8004 -0.0014
  416MOL0     H54883   6.175  11.713   2.468  1.2060 -0.5808  1.0736
  416MOL0     H54884   5.956  11.721   2.610  1.2450  1.7732 -1.3652
  416MOL0     H54885   5.951  11.702   2.432  1.4633  0.5644 -0.9377
  416MOL0     H54886   5.783  11.559   2.532 -0.3377 -2.4406 -0.1523
  416MOL0     H54887   5.904  11.492   2.647  0.7715 -2.1896 -2.0835
  416MOL0     H54888   5.988  11.344   2.495 -0.6479  0.2365  3.2819
  416MOL0     H54889   5.955  11.449   2.354  0.0713  2.0627  1.2038
  416MOL0     H54890   5.713  11.392   2.395 -1.8876 -1.8321 -1.0429
  416MOL0     H54891   5.833  11.258   2.347 -0.0261 -0.6841  1.1919
  416MOL0     H54892   5.744  11.329   2.615  0.4524 -1.6137  1.1619
  416MOL0     H54893   5.845  11.182   2.573  0.2542  0.2543 -0.0523
  416MOL0     H54894   6.602  11.530   2.540 -1.4640 -0.6227  0.5678
  416MOL0     H54895   6.842  11.499   2.577  2.6493  1.1495  1.8021
  416MOL0     H54896   7.188  11.375   2.686 -2.1542  2.3788  0.2018
  416MOL0     H54897   7.421  11.330   2.677  0.9337 -2.5642  3.0170
  416MOL0     H54898   8.742  10.387   2.577 -0.8417 -0.5614  1.0293
  416MOL0     H54899   8.940  10.297   2.458  0.0023 -1.6845 -0.6024
  416MOL0     H54900   9.344   9.980   2.567 -0.4288 -1.4896  0.4351
  416MOL0     H54901   9.565   9.963   2.456 -1.8051 -1.4071  3.3137
  416MOL0     H54902   9.793   9.953   2.126  1.2147  1.8867  1.0287
  416MOL0     H54903   9.774   9.924   2.297  0.4705 -1.2812 -1.2918
  416MOL0     H54904   9.670  10.160   2.155 -1.2935  0.4724  2.1659
  416MOL0     H54905   9.693  10.134   2.336 -1.0771 -0.7539  0.4997
  416MOL0     H54906   9.899  10.150   2.122  3.2951  0.0310  0.1551
  416MOL0     H54907   9.948  10.132   2.294  1.6208 -0.6036 -0.5579
  416MOL0     H54908   9.973  10.372   2.240  0.4696 -0.5798  0.9445
  416MOL0     H54909   9.812  10.364   2.150 -0.8562 -0.7791 -0.4941
  416MOL0     H54910   9.752  10.472   2.547  1.4590 -0.2970  0.9159
  416MOL0     H54911   9.369   9.989   2.073  1.5332  0.6080  1.0197
  416MOL0     H54912   9.162  10.028   2.181  1.8760  2.9331 -1.6107
  417MOL0     O54913   6.936   2.345   3.865 -0.1817  0.3378  0.1501
  417MOL0     C54914   6.924   2.312   3.750 -0.7658 -0.3340  0.2726
  417MOL0     O54915   6.805   2.292   3.679  0.1672 -0.4963 -0.2829
  417MOL0     C54916   6.684   2.344   3.729  1.3802  0.6728  0.4558
  417MOL0     C54917   6.574   2.297   3.659 -0.5666  0.1041  0.0086
  417MOL0     C54918   6.448   2.342   3.691  0.0057 -0.0139 -0.8641
  417MOL0     C54919   6.420   2.436   3.797 -0.1144 -0.1786 -0.0019
  417MOL0     O54920   6.305   2.479   3.851  0.2451  0.5319 -0.3748
  417MOL0     C54921   6.189   2.437   3.786  0.3596 -0.0141  1.0192
  417MOL0     C54922   6.087   2.554   3.792 -0.2108 -0.0621 -0.1741
  417MOL0     C54923   6.030   2.581   3.940  0.1951 -0.0614 -1.3274
  417MOL0     C54924   5.941   2.459   3.974  0.4204  0.3416  0.5018
  417MOL0     C54925   5.873   2.482   4.104  0.3247 -0.7022 -0.6486
  417MOL0     C54926   5.973   2.481   4.218 -1.1173  0.2187  0.2799
  417MOL0     C54927   5.901   2.472   4.357  0.4592  0.0263  0.7249
  417MOL0     C54928   5.978   2.527   4.473 -0.5317 -0.1433  0.1478
  417MOL0     N54929   5.884   2.526   4.582  0.2623  0.2595 -0.6767
  417MOL0     C54930   5.796   2.622   4.631  0.3186 -0.1108 -1.1217
  417MOL0     C54931   5.714   2.558   4.719 -0.0459  0.9215 -0.0563
  417MOL0     C54932   5.617   2.638   4.814  0.2540  0.5342 -0.3041
  417MOL0     C54933   5.618   2.578   4.950 -0.7556 -0.2284 -0.0678
  417MOL0     C54934   5.547   2.665   5.059  0.2686  0.5589  0.9054
  417MOL0     C54935   5.397   2.686   5.018  0.0068 -0.4396 -0.1689
  417MOL0     O54936   5.335   2.742   5.128 -0.2829  0.1917 -0.9276
  417MOL0     C54937   5.207   2.786   5.098 -0.7327 -1.0079  0.1560
  417MOL0     C54938   5.157   2.891   5.175  0.3831 -0.0935 -0.9455
  417MOL0     C54939   5.022   2.936   5.152  0.0100  1.1233  0.2499
  417MOL0     C54940   4.940   2.870   5.060 -0.1277 -0.1580  0.3530
  417MOL0     C54941   4.801   2.909   5.040 -0.4199  0.4223 -0.1899
  417MOL0     O54942   4.759   3.004   5.127 -0.1758  0.0062 -0.3280
  417MOL0     C54943   4.638   3.053   5.100 -0.0174  0.7519  0.1747
  417MOL0     C54944   4.635   3.181   5.069 -0.8160 -1.0270 -0.3315
  417MOL0     C54945   4.509   3.249   5.046  0.3150 -0.1753  0.1086
  417MOL0     C54946   4.389   3.179   5.054  0.1900  0.0171 -0.0585
  417MOL0     O54947   4.271   3.243   5.047  0.1840 -0.3728  0.1376
  417MOL0     C54948   4.227   3.298   5.172  0.1424  0.2680  0.4622
  417MOL0     C54949   4.112   3.388   5.149  0.9595  0.3489  0.0341
  417MOL0     C54950   4.011   3.330   5.051  0.3961  0.4034  0.8205
  417MOL0     C54951   3.901   3.429   5.033  0.1560  0.4846 -0.1203
  417MOL0     C54952   3.868   3.435   4.877  0.1775  0.4941 -0.7486
  417MOL0     C54953   3.785   3.557   4.850  0.2034  0.1803 -0.1765
  417MOL0     C54954   3.719   3.578   4.720 -0.1938 -0.2572  0.1958
  417MOL0     C54955   3.641   3.707   4.726  0.1420  0.0022  0.6671
  417MOL0    Cl54956   3.539   3.710   4.579  0.1684 -0.0479  0.2759
  417MOL0     C54957   4.393   3.040   5.070 -0.0256  0.3424  0.8972
  417MOL0     C54958   4.517   2.980   5.097 -1.2403  0.2000  0.3582
  417MOL0     O54959   4.740   2.877   4.938 -0.0523 -0.0132 -0.2971
  417MOL0     C54960   4.988   2.757   5.001 -1.2591 -0.6515  0.2255
  417MOL0     C54961   5.116   2.717   5.011 -0.3830  0.4387  0.0786
  417MOL0     N54962   5.761   2.432   4.743  0.2965 -0.0322  0.1543
  417MOL0     N54963   5.868   2.413   4.665  0.0303  0.4412  0.2407
  417MOL0     C54964   6.540   2.493   3.855  0.6053  0.4263  0.0895
  417MOL0     C54965   6.669   2.444   3.829 -0.0016 -0.7738  0.3368
  417MOL0     C54966   7.052   2.284   3.678  0.3308  0.0770 -0.1469
  417MOL0     C54967   7.038   2.233   3.547 -0.0405 -0.4281 -0.4800
  417MOL0     C54968   7.154   2.220   3.474  0.2976  0.3055 -0.7670
  417MOL0     C54969   7.282   2.244   3.527 -0.4733  0.5349  0.0517
  417MOL0     O54970   7.383   2.214   3.443 -0.4235  0.0645  0.2544
  417MOL0     C54971   7.517   2.228   3.493  1.0788 -0.1271  0.2632
  417MOL0     C54972   7.625   2.218   3.393  0.2714 -0.0686 -0.1797
  417MOL0     C54973   7.633   2.337   3.297 -0.0113  0.2265 -0.2621
  417MOL0     C54974   7.776   2.365   3.256 -0.6762  0.1033  0.7833
  417MOL0     C54975   7.825   2.249   3.179 -0.2937  0.9643 -0.2863
  417MOL0     C54976   7.883   2.163   3.116  0.0418 -0.3110 -0.8329
  417MOL0     C54977   7.295   2.293   3.658  0.7659  0.3500 -0.8437
  417MOL0     C54978   7.180   2.315   3.732 -0.0532  0.1033  0.3795
  417MOL0     H54979   6.584   2.219   3.585  1.6539 -0.1618  0.5114
  417MOL0     H54980   6.371   2.279   3.648 -1.6025  0.7757  0.7923
  417MOL0     H54981   6.149   2.353   3.844 -1.3060  0.7294  1.0026
  417MOL0     H54982   6.204   2.413   3.681 -5.0290  1.2715 -0.3783
  417MOL0     H54983   6.009   2.515   3.726  0.8048 -5.7764  1.4883
  417MOL0     H54984   6.131   2.650   3.762 -1.0405  0.3720 -0.0221
  417MOL0     H54985   5.981   2.678   3.953 -0.2270 -0.4293  0.0290
  417MOL0     H54986   6.113   2.575   4.011 -0.5499 -1.3809 -0.5384
  417MOL0     H54987   5.860   2.463   3.900  0.3239  1.9205  0.6779
  417MOL0     H54988   5.988   2.360   3.972 -2.0640 -0.9935 -2.9635
  417MOL0     H54989   5.812   2.394   4.125  0.1272  0.0785  2.5783
  417MOL0     H54990   5.817   2.576   4.109 -1.0920 -1.5371 -0.3693
  417MOL0     H54991   6.017   2.581   4.216 -0.2509 -0.0629  2.5684
  417MOL0     H54992   6.048   2.401   4.221 -1.4788 -0.1302  3.5821
  417MOL0     H54993   5.811   2.535   4.355 -1.0296 -1.9734  1.5281
  417MOL0     H54994   5.867   2.368   4.363 -0.4039  0.2397 -0.1054
  417MOL0     H54995   6.009   2.627   4.442  0.1440 -0.5684 -0.5914
  417MOL0     H54996   6.072   2.474   4.493 -1.0050 -1.0332  0.0986
  417MOL0     H54997   5.792   2.726   4.600 -1.0914  0.0729 -0.3678
  417MOL0     H54998   5.520   2.623   4.766  1.1779 -3.2188 -1.2811
  417MOL0     H54999   5.657   2.740   4.810  3.1549 -0.5425 -1.2308
  417MOL0     H55000   5.723   2.561   4.975 -0.3529  2.0900 -0.0099
  417MOL0     H55001   5.574   2.478   4.950  0.6202 -0.8842 -1.5922
  417MOL0     H55002   5.573   2.620   5.155  0.9960 -2.5055 -0.6045
  417MOL0     H55003   5.602   2.760   5.055  1.9338 -0.4093 -2.0255
  417MOL0     H55004   5.349   2.593   4.987 -0.9902  0.1291 -0.3873
  417MOL0     H55005   5.386   2.758   4.936  0.3491 -0.3882 -0.1711
  417MOL0     H55006   5.218   2.937   5.252 -0.4137 -0.3689 -0.1333
  417MOL0     H55007   4.999   3.031   5.199  2.3618  1.9843 -0.1885
  417MOL0     H55008   4.727   3.238   5.076  0.6754 -3.2396 -0.8723
  417MOL0     H55009   4.493   3.353   5.019 -2.6755 -0.1643  1.5094
  417MOL0     H55010   4.301   3.353   5.231 -0.0611  0.0272  0.9482
  417MOL0     H55011   4.195   3.221   5.243  0.8815 -0.5010 -0.0140
  417MOL0     H55012   4.162   3.479   5.114 -0.1727 -0.3701 -4.0249
  417MOL0     H55013   4.071   3.409   5.248 -2.2247  1.3800 -1.3399
  417MOL0     H55014   3.963   3.234   5.075 -1.1748  0.0849 -2.8868
  417MOL0     H55015   4.053   3.316   4.950 -1.2097  0.5353  0.1097
  417MOL0     H55016   3.813   3.393   5.087  1.5671 -1.2113  1.1590
  417MOL0     H55017   3.929   3.529   5.068 -1.0562  0.9619 -0.4516
  417MOL0     H55018   3.814   3.347   4.842 -0.4100 -0.9691  3.3526
  417MOL0     H55019   3.953   3.441   4.808  0.0433 -0.5894 -1.0204
  417MOL0     H55020   3.844   3.647   4.869  0.8929  0.2383 -2.2650
  417MOL0     H55021   3.703   3.547   4.922  1.0176 -0.7696  0.6338
  417MOL0     H55022   3.795   3.581   4.642  0.9963 -1.2784  1.2496
  417MOL0     H55023   3.643   3.502   4.699 -0.8495  0.1467  1.0315
  417MOL0     H55024   3.710   3.791   4.729  0.2390 -0.0834  2.7746
  417MOL0     H55025   3.572   3.705   4.811 -3.7386  2.1606 -2.1254
  417MOL0     H55026   4.300   2.985   5.061  0.8186 -0.8914 -0.9142
  417MOL0     H55027   4.525   2.871   5.097 -0.7536  0.2223  1.4756
  417MOL0     H55028   4.926   2.703   4.930  0.1732  0.2249 -1.7729
  417MOL0     H55029   5.145   2.631   4.952  2.3597  0.1374  1.6874
  417MOL0     H55030   6.524   2.575   3.925 -0.0445 -0.6179  1.1927
  417MOL0     H55031   6.756   2.484   3.881  0.0456 -1.0891  0.5021
  417MOL0     H55032   6.941   2.209   3.505 -0.2829 -2.4644  1.0938
  417MOL0     H55033   7.147   2.194   3.369  2.0123  2.6811 -1.5501
  417MOL0     H55034   7.532   2.145   3.562 -1.2774 -0.9144 -0.1013
  417MOL0     H55035   7.528   2.321   3.550 -3.1414  1.4472 -1.1151
  417MOL0     H55036   7.720   2.218   3.448  0.7952 -2.4485 -0.9814
  417MOL0     H55037   7.614   2.123   3.340 -1.0691 -0.0129 -0.0233
  417MOL0     H55038   7.602   2.430   3.345 -0.6807 -1.3414  2.5396
  417MOL0     H55039   7.572   2.312   3.210 -1.4333 -0.6095  0.9290
  417MOL0     H55040   7.780   2.456   3.195  2.5552  0.9492  2.0482
  417MOL0     H55041   7.841   2.372   3.344 -1.2311 -2.4101  1.4552
  417MOL0     H55042   7.950   2.093   3.070  1.3309  0.8549 -0.7878
  417MOL0     H55043   7.391   2.299   3.707  0.4592  1.1192 -0.3157
  417MOL0     H55044   7.193   2.370   3.825 -0.2509  1.7837 -0.5615
  418MOL0     O55045   9.108   3.730   3.837  0.3616  0.0760 -0.0433
  418MOL0     C55046   9.098   3.777   3.723 -0.2757 -0.3127 -0.5408
  418MOL0     O55047   8.980   3.825   3.668 -0.2520  0.7945  0.2498
  418MOL0     C55048   8.859   3.837   3.735 -0.3743 -0.5211 -0.4555
  418MOL0     C55049   8.748   3.786   3.670  0.6078 -0.5645 -0.3300
  418MOL0     C55050   8.626   3.795   3.734  0.3505 -0.1795  0.3470
  418MOL0     C55051   8.615   3.851   3.867  0.5132  0.2748 -0.4468
  418MOL0     O55052   8.504   3.835   3.946  0.2341  0.2369  0.2871
  418MOL0     C55053   8.375   3.826   3.881  0.4353  0.6530  0.1315
  418MOL0     C55054   8.273   3.778   3.985 -0.1082  0.2717  1.0018
  418MOL0     C55055   8.211   3.885   4.078  0.8891 -1.0717 -0.0330
  418MOL0     C55056   8.140   3.838   4.201  0.1591 -0.1282 -0.4552
  418MOL0     C55057   8.096   3.948   4.298 -0.7259  0.0264 -0.2116
  418MOL0     C55058   7.964   4.012   4.246 -0.0514 -0.5492 -0.4022
  418MOL0     C55059   7.907   4.124   4.341 -0.6716  0.9080  0.0358
  418MOL0     C55060   7.764   4.157   4.321  0.4036 -0.0633 -0.0400
  418MOL0     N55061   7.678   4.040   4.353 -0.0415  1.3876  0.1470
  418MOL0     C55062   7.656   3.996   4.483 -0.2770 -0.7588  0.3594
  418MOL0     C55063   7.533   3.928   4.473  0.3691  0.1739 -0.2333
  418MOL0     C55064   7.458   3.858   4.583  0.0903 -0.9089 -0.5956
  418MOL0     C55065   7.343   3.953   4.638  0.6795  0.3446 -0.1995
  418MOL0     C55066   7.239   3.864   4.707 -0.3983  0.6711 -1.0580
  418MOL0     C55067   7.113   3.933   4.761  0.6248 -0.5430  0.3597
  418MOL0     O55068   7.030   3.969   4.649  0.3981  0.4762  0.2939
  418MOL0     C55069   6.919   4.043   4.670 -0.7368  0.5517 -0.6629
  418MOL0     C55070   6.848   4.071   4.559 -0.1224 -1.1170  0.0243
  418MOL0     C55071   6.722   4.132   4.572  0.1759 -0.7331 -0.0534
  418MOL0     C55072   6.674   4.161   4.699  0.8641 -1.0121 -0.8588
  418MOL0     C55073   6.536   4.222   4.708  0.1933  0.7266 -0.2273
  418MOL0     O55074   6.473   4.205   4.831 -0.0119 -0.7462 -0.3068
  418MOL0     C55075   6.357   4.276   4.858 -0.0737  0.0753  0.5951
  418MOL0     C55076   6.289   4.239   4.973  0.2127 -0.7113 -0.9194
  418MOL0     C55077   6.172   4.291   5.008 -0.2315  0.0224 -0.3636
  418MOL0     C55078   6.114   4.388   4.935 -0.1547  0.0000 -0.2019
  418MOL0     O55079   6.012   4.450   5.004 -0.0240  0.4900  0.1643
  418MOL0     C55080   5.917   4.516   4.917  0.0200  0.4982 -0.7972
  418MOL0     C55081   5.783   4.530   4.983  0.7109 -0.2684 -0.7259
  418MOL0     C55082   5.682   4.627   4.909 -0.2414 -1.0102  0.0172
  418MOL0     C55083   5.577   4.671   5.009  0.2113 -0.1361 -0.1722
  418MOL0     C55084   5.478   4.741   4.928 -0.0398  0.7916  0.1288
  418MOL0     C55085   5.349   4.770   4.995 -0.9518 -0.4708  0.0072
  418MOL0     C55086   5.250   4.852   4.915  0.4737  0.0960  0.0892
  418MOL0     C55087   5.117   4.855   4.991  0.3895  0.0529  0.0875
  418MOL0    Cl55088   4.976   4.923   4.887  0.2786 -0.3041 -0.0685
  418MOL0     C55089   6.168   4.441   4.817  0.3112  0.0815 -0.5173
  418MOL0     C55090   6.299   4.384   4.788  0.8581 -0.2391 -0.9652
  418MOL0     O55091   6.492   4.271   4.605  1.1064  0.2691  0.6053
  418MOL0     C55092   6.753   4.134   4.815  0.3989  0.4772 -0.2427
  418MOL0     C55093   6.878   4.075   4.805  0.0176  0.5015 -0.4964
  418MOL0     N55094   7.485   3.937   4.338  0.1932 -0.1072 -0.0616
  418MOL0     N55095   7.571   4.007   4.274 -0.1254  0.0095 -0.2825
  418MOL0     C55096   8.726   3.896   3.937 -0.0931  0.7813  0.0683
  418MOL0     C55097   8.848   3.896   3.867 -0.7201 -0.0634  0.2932
  418MOL0     C55098   9.219   3.777   3.643 -0.3280 -0.2954  0.6318
  418MOL0     C55099   9.216   3.827   3.506  0.6336  0.1652  0.7436
  418MOL0     C55100   9.337   3.828   3.430  0.4097  0.1973  0.4077
  418MOL0     C55101   9.454   3.783   3.482 -0.8235  0.3902 -0.0255
  418MOL0     O55102   9.573   3.771   3.409  0.1139  0.0443 -0.3083
  418MOL0     C55103   9.603   3.852   3.293  0.4125  0.4841  0.2492
  418MOL0     C55104   9.755   3.838   3.285  0.0609  0.1075 -0.3180
  418MOL0     C55105   9.803   3.698   3.240 -0.0794  0.5663 -0.2837
  418MOL0     C55106   9.955   3.707   3.230 -0.4313  0.1463 -0.3072
  418MOL0     C55107  10.023   3.730   3.359 -0.0744  0.2594  0.2405
  418MOL0     C55108  10.066   3.735   3.472  0.6236 -1.0560  0.0817
  418MOL0     C55109   9.455   3.727   3.614 -0.2413 -0.5853  0.0363
  418MOL0     C55110   9.338   3.727   3.697  0.1959  0.0282  0.3274
  418MOL0     H55111   8.754   3.744   3.571 -1.7517 -1.6595 -0.1017
  418MOL0     H55112   8.544   3.748   3.682 -1.0554  1.9313  0.5124
  418MOL0     H55113   8.392   3.745   3.810  0.8054 -0.5262  1.5322
  418MOL0     H55114   8.339   3.913   3.825  0.3185 -1.9601 -4.2786
  418MOL0     H55115   8.320   3.699   4.045  0.7975  0.5732  0.6978
  418MOL0     H55116   8.197   3.734   3.920  1.5707 -0.4949 -0.5074
  418MOL0     H55117   8.150   3.945   4.010  0.5459  1.4303  2.3244
  418MOL0     H55118   8.295   3.943   4.115  0.6339 -0.2680 -0.6906
  418MOL0     H55119   8.063   3.764   4.176 -0.3924  0.7555 -1.4277
  418MOL0     H55120   8.214   3.772   4.247 -0.8806 -0.8986  0.1894
  418MOL0     H55121   8.170   4.027   4.285 -0.2220 -0.5077 -0.6867
  418MOL0     H55122   8.097   3.914   4.402  1.0384 -0.1658 -0.2613
  418MOL0     H55123   7.878   3.946   4.231 -3.2054  2.4046  2.9544
  418MOL0     H55124   7.992   4.065   4.155 -1.8177 -0.2668 -0.8094
  418MOL0     H55125   7.930   4.103   4.445  1.7564  2.3997 -0.1187
  418MOL0     H55126   7.959   4.218   4.318 -0.2686  0.6150 -0.2544
  418MOL0     H55127   7.755   4.180   4.214  2.2028 -0.1647 -0.2539
  418MOL0     H55128   7.718   4.238   4.378  1.9141  1.0289 -0.3022
  418MOL0     H55129   7.729   4.024   4.558 -0.3798  3.1137 -0.7967
  418MOL0     H55130   7.532   3.837   4.660 -0.0752 -2.6063 -0.8636
  418MOL0     H55131   7.416   3.771   4.532 -2.6721  1.9023 -3.5878
  418MOL0     H55132   7.301   4.019   4.562  0.5115  0.1412 -0.2836
  418MOL0     H55133   7.388   4.020   4.713  0.2579  1.6770 -1.0957
  418MOL0     H55134   7.203   3.790   4.635 -1.1694  2.1845 -2.2973
  418MOL0     H55135   7.289   3.810   4.787 -1.2125  0.0366 -0.9694
  418MOL0     H55136   7.138   4.021   4.820 -0.7790  0.1227  0.0206
  418MOL0     H55137   7.047   3.862   4.813 -0.9272 -1.8086 -3.0252
  418MOL0     H55138   6.875   4.036   4.460  0.3630  0.1855 -0.3271
  418MOL0     H55139   6.663   4.161   4.485  1.2981 -0.4424 -0.7334
  418MOL0     H55140   6.326   4.154   5.030  0.5341  0.7618  1.1818
  418MOL0     H55141   6.122   4.263   5.101 -2.2077 -0.9043 -1.6216
  418MOL0     H55142   5.898   4.449   4.832 -1.1784  1.5937 -1.4118
  418MOL0     H55143   5.946   4.612   4.876 -1.7348  0.6441 -1.7998
  418MOL0     H55144   5.791   4.563   5.086 -3.2491  0.0749 -0.3800
  418MOL0     H55145   5.741   4.429   4.993 -0.3780  0.2756  0.3807
  418MOL0     H55146   5.643   4.571   4.824  3.0432 -1.0540 -1.6378
  418MOL0     H55147   5.738   4.716   4.878 -3.0652 -0.2031 -3.4034
  418MOL0     H55148   5.531   4.588   5.064 -0.3208  0.6903  0.6520
  418MOL0     H55149   5.618   4.744   5.079  0.0847  1.7612 -1.9833
  418MOL0     H55150   5.441   4.670   4.853  0.0592 -1.5430  2.1559
  418MOL0     H55151   5.521   4.834   4.890 -2.0731  1.3726 -0.8803
  418MOL0     H55152   5.370   4.817   5.092  0.3106 -1.4962  0.2460
  418MOL0     H55153   5.301   4.679   5.031 -1.4723 -0.2443 -0.1000
  418MOL0     H55154   5.282   4.956   4.905 -2.3535  1.2440  1.6780
  418MOL0     H55155   5.224   4.818   4.814 -1.2353 -1.0245  0.8601
  418MOL0     H55156   5.126   4.919   5.080  0.5060  2.7686 -1.7450
  418MOL0     H55157   5.097   4.753   5.024 -0.1293  0.1673  0.1424
  418MOL0     H55158   6.125   4.529   4.770 -0.2851  1.0392  1.6686
  418MOL0     H55159   6.360   4.429   4.709  2.8234  2.8071  2.0148
  418MOL0     H55160   6.708   4.151   4.913  0.0874  0.0075 -0.2984
  418MOL0     H55161   6.939   4.061   4.894 -0.4329  0.6967 -0.1523
  418MOL0     H55162   8.715   3.927   4.041  0.7862 -1.2164  0.8120
  418MOL0     H55163   8.938   3.930   3.918  0.8473 -1.3997 -1.4273
  418MOL0     H55164   9.124   3.866   3.464 -0.9959 -1.1500  2.8887
  418MOL0     H55165   9.335   3.850   3.324 -0.0443 -2.3244 -0.1552
  418MOL0     H55166   9.568   3.955   3.305  1.3438  0.8744 -0.3275
  418MOL0     H55167   9.564   3.813   3.198 -0.5646  0.4273  0.6554
  418MOL0     H55168   9.778   3.902   3.199 -0.6111 -1.1072 -1.4329
  418MOL0     H55169   9.803   3.876   3.375  1.1981  1.1704 -1.3267
  418MOL0     H55170   9.764   3.681   3.139 -0.0512  2.4410 -0.6431
  418MOL0     H55171   9.770   3.617   3.305 -1.9445  0.1197 -1.6826
  418MOL0     H55172   9.990   3.615   3.180  2.4401  2.0086 -2.0386
  418MOL0     H55173   9.977   3.790   3.163 -1.4489 -1.3130 -2.5602
  418MOL0     H55174  10.114   3.748   3.567 -1.2897 -0.2222  0.9841
  418MOL0     H55175   9.550   3.694   3.654 -0.4243  1.7731  2.6653
  418MOL0     H55176   9.329   3.683   3.796 -0.0180 -1.1185 -0.1762
  419MOL0     O55177   5.585   5.851   1.462  0.6077 -0.0531 -0.1513
  419MOL0     C55178   5.539   5.780   1.556 -0.2948 -0.2380 -0.0869
  419MOL0     O55179   5.408   5.759   1.583  0.2762 -0.4586 -0.4529
  419MOL0     C55180   5.316   5.822   1.496 -0.0925  0.2153  0.3089
  419MOL0     C55181   5.274   5.954   1.488 -0.4532 -0.1184 -0.3570
  419MOL0     C55182   5.188   6.003   1.396 -0.3327 -0.0823 -0.1151
  419MOL0     C55183   5.144   5.917   1.304  0.3285 -0.2150 -0.2489
  419MOL0     O55184   5.074   5.979   1.201 -0.1544 -0.8108  0.3259
  419MOL0     C55185   5.028   5.899   1.092 -0.4020  0.3967 -0.3119
  419MOL0     C55186   4.975   5.993   0.992  0.0083 -0.6342  0.1272
  419MOL0     C55187   4.840   6.052   1.017  0.2277 -0.8880  0.3334
  419MOL0     C55188   4.797   6.169   0.922 -0.3274  0.4234  1.0986
  419MOL0     C55189   4.651   6.159   0.875 -0.4814 -0.0825  0.3809
  419MOL0     C55190   4.617   6.042   0.782 -0.3062 -0.0669 -0.5413
  419MOL0     C55191   4.505   6.078   0.679  0.0212  0.9358  0.3089
  419MOL0     C55192   4.365   6.123   0.735 -1.7686 -0.0902 -0.2398
  419MOL0     N55193   4.262   6.134   0.629 -0.1725  0.0192 -0.1810
  419MOL0     C55194   4.281   6.175   0.500  0.8619  0.4117  0.5515
  419MOL0     C55195   4.153   6.169   0.452 -0.0788  0.1715  0.4394
  419MOL0     C55196   4.097   6.232   0.324  0.2788  0.3422 -1.0282
  419MOL0     C55197   3.968   6.311   0.357  0.2313 -0.2414 -0.7879
  419MOL0     C55198   3.927   6.397   0.238  0.0285 -0.1415 -0.3071
  419MOL0     C55199   3.793   6.464   0.266 -0.1521  0.5551 -0.3582
  419MOL0     O55200   3.701   6.350   0.281 -0.5709  0.2329  0.5874
  419MOL0     C55201   3.564   6.363   0.238 -0.3435 -0.8561  0.0854
  419MOL0     C55202   3.513   6.482   0.188 -0.9377 -1.0604  0.2198
  419MOL0     C55203   3.370   6.490   0.159 -0.4020 -0.1476 -0.3142
  419MOL0     C55204   3.287   6.374   0.177 -1.0086 -0.6714 -0.6277
  419MOL0     C55205   3.144   6.386   0.139  0.0787  1.3553 -1.2519
  419MOL0     O55206   3.104   6.492   0.061 -0.5460 -0.1288 -0.6498
  419MOL0     C55207   2.970   6.513   0.056 -0.0499 -0.1758  0.2445
  419MOL0     C55208   2.932   6.567  -0.069  0.5481  0.8060 -0.6456
  419MOL0     C55209   2.803   6.617  -0.086 -0.0890  0.4221 -0.4823
  419MOL0     C55210   2.710   6.611   0.024  0.5442 -0.1944  0.2584
  419MOL0     O55211   2.594   6.685   0.013  0.6307  0.3773  0.3434
  419MOL0     C55212   2.495   6.615  -0.061  0.3044 -0.1151  0.3456
  419MOL0     C55213   2.376   6.669   0.004  0.2774  0.2853  0.7301
  419MOL0     C55214   2.253   6.606  -0.067 -0.3588 -0.0311 -0.0296
  419MOL0     C55215   2.121   6.627   0.005 -0.1797  0.5730  0.4118
  419MOL0     C55216   2.017   6.527  -0.049  0.7203  0.8985 -0.3234
  419MOL0     C55217   1.880   6.543   0.012  0.3680  0.3555  0.4335
  419MOL0     C55218   1.778   6.445  -0.056  0.5395 -0.0293 -0.2392
  419MOL0     C55219   1.637   6.491  -0.007 -0.7346  0.0076  0.1194
  419MOL0    Cl55220   1.517   6.365  -0.034  0.3715 -0.5585 -0.2785
  419MOL0     C55221   2.748   6.549   0.145  0.3971 -0.0980 -0.5419
  419MOL0     C55222   2.877   6.503   0.159  0.1541  0.2962  0.0759
  419MOL0     O55223   3.077   6.304   0.196 -0.5560 -0.0065  0.0558
  419MOL0     C55224   3.349   6.256   0.216  0.7115  0.0921  1.0409
  419MOL0     C55225   3.479   6.253   0.249  0.0862 -0.3437 -0.7452
  419MOL0     N55226   4.065   6.127   0.553 -0.7170 -0.2243  0.3923
  419MOL0     N55227   4.133   6.109   0.660  0.0651  1.0377  0.8232
  419MOL0     C55228   5.165   5.778   1.313 -0.5634  0.1729  0.3706
  419MOL0     C55229   5.247   5.730   1.424 -0.3680  0.2548 -0.1544
  419MOL0     C55230   5.638   5.716   1.643 -0.0839  1.0628 -0.8469
  419MOL0     C55231   5.772   5.733   1.630 -0.8817 -0.3931 -0.4352
  419MOL0     C55232   5.864   5.655   1.710 -0.2136 -0.5503  0.8479
  419MOL0     C55233   5.820   5.577   1.817 -0.1004 -0.1954 -0.0909
  419MOL0     O55234   5.897   5.511   1.913 -0.6055  0.1193  0.5320
  419MOL0     C55235   6.032   5.561   1.919  0.2134 -0.2980 -0.7215
  419MOL0     C55236   6.107   5.486   2.030  0.3467  0.1713  0.0027
  419MOL0     C55237   6.138   5.343   1.997 -0.3701  0.3684  1.0086
  419MOL0     C55238   6.204   5.260   2.108 -0.2945 -0.4198 -0.0614
  419MOL0     C55239   6.116   5.247   2.223  0.6141  0.0224  0.7865
  419MOL0     C55240   6.044   5.241   2.320 -0.6766  0.3769 -0.5519
  419MOL0     C55241   5.685   5.546   1.815 -0.0174  0.9015  0.0397
  419MOL0     C55242   5.595   5.614   1.732 -0.3662 -0.7393 -0.6964
  419MOL0     H55243   5.319   6.020   1.561 -0.5335 -1.1028  0.6235
  419MOL0     H55244   5.175   6.110   1.383 -1.3033 -0.1044  0.5666
  419MOL0     H55245   4.950   5.826   1.118  0.9805  0.0597  3.6368
  419MOL0     H55246   5.110   5.841   1.050 -0.2837 -1.8307  2.6220
  419MOL0     H55247   4.980   5.942   0.895  0.0493 -0.1450 -0.1308
  419MOL0     H55248   5.044   6.077   0.982 -3.4458  2.4155  0.0718
  419MOL0     H55249   4.850   6.099   1.115 -2.3753 -0.1833  0.3322
  419MOL0     H55250   4.767   5.972   1.028 -0.6258 -0.4192 -1.5322
  419MOL0     H55251   4.814   6.265   0.971  1.4040  1.1919 -0.8413
  419MOL0     H55252   4.860   6.156   0.834 -1.5214  0.5414  0.1989
  419MOL0     H55253   4.626   6.252   0.823  0.1132  0.0731  0.3666
  419MOL0     H55254   4.583   6.148   0.960  0.1704 -0.7739  0.8162
  419MOL0     H55255   4.578   5.957   0.839  1.9035 -1.6265 -1.2258
  419MOL0     H55256   4.704   6.006   0.725  0.9823 -1.4791  2.1395
  419MOL0     H55257   4.535   6.150   0.602 -4.8884  1.8846 -1.0895
  419MOL0     H55258   4.485   5.982   0.629  0.0008  1.0579  0.0792
  419MOL0     H55259   4.389   6.224   0.771  0.7881 -0.6441 -0.1637
  419MOL0     H55260   4.341   6.054   0.817  1.0267 -1.7401 -0.6920
  419MOL0     H55261   4.364   6.221   0.447 -0.7998  1.2730 -1.5013
  419MOL0     H55262   4.083   6.145   0.259 -0.1600 -0.5636  0.2267
  419MOL0     H55263   4.166   6.303   0.278 -0.5425  0.5047 -2.0429
  419MOL0     H55264   3.976   6.373   0.446  1.0798 -0.8638 -0.4171
  419MOL0     H55265   3.891   6.235   0.374  0.3555 -0.3450 -0.6837
  419MOL0     H55266   4.011   6.467   0.228  0.3017 -0.5649 -1.1347
  419MOL0     H55267   3.916   6.336   0.148  2.9715 -2.1422  0.5350
  419MOL0     H55268   3.769   6.531   0.183 -1.1166  0.3086 -0.2981
  419MOL0     H55269   3.792   6.515   0.362 -4.1246 -0.7328  0.5182
  419MOL0     H55270   3.578   6.565   0.163 -0.7238 -1.3787 -0.2804
  419MOL0     H55271   3.337   6.588   0.125  0.5130  1.1512  2.2588
  419MOL0     H55272   3.001   6.569  -0.153  0.1115 -1.6017 -1.1286
  419MOL0     H55273   2.778   6.658  -0.183  0.7306  0.4452 -0.6981
  419MOL0     H55274   2.515   6.509  -0.043  3.3628  0.5849  1.7640
  419MOL0     H55275   2.507   6.630  -0.169  1.7202 -1.5378  0.2644
  419MOL0     H55276   2.362   6.775  -0.020 -1.0857 -0.1996 -0.8291
  419MOL0     H55277   2.366   6.641   0.109 -0.1494 -2.8087 -0.0554
  419MOL0     H55278   2.274   6.499  -0.070  2.9350  0.4394  2.1973
  419MOL0     H55279   2.248   6.630  -0.174  1.2088 -2.8560 -0.8213
  419MOL0     H55280   2.136   6.630   0.114 -0.0267  3.2243  0.3843
  419MOL0     H55281   2.099   6.729  -0.027  0.6901 -0.0391 -2.3953
  419MOL0     H55282   2.053   6.429  -0.020  0.6541  0.4815 -1.5804
  419MOL0     H55283   2.003   6.529  -0.158  1.5595 -1.5702 -0.5318
  419MOL0     H55284   1.849   6.648   0.006  0.7182  0.5458  1.6841
  419MOL0     H55285   1.895   6.522   0.119 -1.3014 -2.2559  0.2458
  419MOL0     H55286   1.792   6.452  -0.164 -1.4292  0.8705 -0.4704
  419MOL0     H55287   1.792   6.345  -0.014 -2.3321  1.0507  4.0026
  419MOL0     H55288   1.606   6.585  -0.054 -2.5870 -0.8734 -0.5255
  419MOL0     H55289   1.647   6.502   0.102  3.8926 -2.1042  0.1233
  419MOL0     H55290   2.673   6.547   0.224 -0.0370  0.5782 -0.9334
  419MOL0     H55291   2.908   6.468   0.257  2.4268  4.1121  0.9316
  419MOL0     H55292   3.289   6.166   0.210  1.4004 -0.2989 -0.4915
  419MOL0     H55293   3.522   6.161   0.290 -0.8371  0.3303  1.9495
  419MOL0     H55294   5.118   5.710   1.242  1.4188 -0.5839 -0.2883
  419MOL0     H55295   5.253   5.622   1.436 -3.3762 -0.2264 -1.9696
  419MOL0     H55296   5.807   5.814   1.567  0.8783 -0.5999  0.2144
  419MOL0     H55297   5.969   5.681   1.699 -0.4803 -0.1766 -1.0555
  419MOL0     H55298   6.019   5.666   1.945  0.3067 -0.0048 -1.8133
  419MOL0     H55299   6.093   5.555   1.829  1.7230  0.8997  0.1817
  419MOL0     H55300   6.203   5.532   2.057  0.0868  1.4415 -1.1040
  419MOL0     H55301   6.045   5.503   2.119 -1.3030  1.4251 -1.3080
  419MOL0     H55302   6.201   5.333   1.908 -4.3143 -5.2743 -1.6828
  419MOL0     H55303   6.040   5.300   1.977 -0.0175  0.3596 -0.7895
  419MOL0     H55304   6.231   5.164   2.062 -0.7489 -0.8932  0.6331
  419MOL0     H55305   6.302   5.300   2.137  0.8700 -2.1426 -1.3676
  419MOL0     H55306   5.983   5.222   2.406 -1.8402 -0.2472 -1.4908
  419MOL0     H55307   5.650   5.473   1.887  1.6090  0.5769  0.5483
  419MOL0     H55308   5.495   5.575   1.743 -0.7067 -0.5524 -2.7938
  420MOL0     O55309   1.260   4.599   7.802  0.3388 -0.6291 -0.1008
  420MOL0     C55310   1.328   4.582   7.701  0.1430  0.1773  0.2946
  420MOL0     O55311   1.285   4.607   7.575  0.4019  0.1374  0.4957
  420MOL0     C55312   1.164   4.652   7.530  1.1243  0.1069  1.3158
  420MOL0     C55313   1.080   4.722   7.617 -0.4566  0.0336 -0.3033
  420MOL0     C55314   0.963   4.781   7.563  0.5389  0.8941  0.2052
  420MOL0     C55315   0.918   4.749   7.436  0.5776  0.2301 -0.4973
  420MOL0     O55316   0.801   4.806   7.409  0.7343  0.0514  0.4202
  420MOL0     C55317   0.710   4.743   7.320  0.0731 -0.0008 -0.5333
  420MOL0     C55318   0.735   4.785   7.176  0.4582 -0.1563 -0.1887
  420MOL0     C55319   0.670   4.919   7.124 -0.6706 -0.1211  0.1134
  420MOL0     C55320   0.520   4.899   7.102 -0.0907  0.3121  0.3179
  420MOL0     C55321   0.450   5.033   7.080  0.1333  0.7347  0.1926
  420MOL0     C55322   0.296   5.016   7.075  0.2427  0.3043  0.0475
  420MOL0     C55323   0.214   5.141   7.111 -0.3092 -1.0947 -0.1023
  420MOL0     C55324   0.072   5.118   7.069  0.4519 -0.1066  0.1311
  420MOL0     N55325  -0.024   5.222   7.114 -0.6544  0.0141  0.3393
  420MOL0     C55326  -0.005   5.357   7.145 -0.3567  0.5593 -0.0430
  420MOL0     C55327  -0.122   5.390   7.203  0.6222  0.6582 -0.7424
  420MOL0     C55328  -0.148   5.526   7.270  0.6652  0.7376  0.5524
  420MOL0     C55329  -0.079   5.535   7.414  0.1592 -1.0125  0.7496
  420MOL0     C55330  -0.089   5.409   7.512  0.0170 -0.2466  0.1070
  420MOL0     C55331  -0.026   5.420   7.646  0.9140 -0.0415 -0.2894
  420MOL0     O55332  -0.108   5.350   7.743  0.0494 -0.3609  0.1502
  420MOL0     C55333  -0.225   5.401   7.787 -0.5952  1.1388 -0.0434
  420MOL0     C55334  -0.270   5.531   7.768 -0.1327  0.0817 -0.6145
  420MOL0     C55335  -0.387   5.571   7.833  0.2320  0.5557 -0.1529
  420MOL0     C55336  -0.459   5.483   7.912 -0.0806  0.5580  0.3866
  420MOL0     C55337  -0.583   5.523   7.974 -0.4519  0.0579  0.4675
  420MOL0     O55338  -0.651   5.436   8.057 -0.6488  0.4401 -0.7264
  420MOL0     C55339  -0.789   5.438   8.070 -0.2130  0.1569 -0.2483
  420MOL0     C55340  -0.888   5.511   8.005 -0.6189 -0.3729 -0.1485
  420MOL0     C55341  -1.022   5.510   8.049 -0.2202  0.3637 -0.3566
  420MOL0     C55342  -1.068   5.422   8.149 -1.1767 -0.1823 -0.8174
  420MOL0     O55343  -1.193   5.409   8.197 -0.1559 -0.1403 -0.0184
  420MOL0     C55344  -1.288   5.515   8.179  0.5247  0.4679  0.5795
  420MOL0     C55345  -1.375   5.481   8.054 -1.0350  0.1960 -0.4427
  420MOL0     C55346  -1.512   5.553   8.068  0.7061 -0.4345 -0.0735
  420MOL0     C55347  -1.610   5.506   7.958 -0.1036 -0.0689  0.2128
  420MOL0     C55348  -1.759   5.563   7.977 -0.2167 -0.4242 -0.5322
  420MOL0     C55349  -1.843   5.516   7.862 -0.4172 -0.1799  0.4855
  420MOL0     C55350  -1.978   5.579   7.867  0.2553  0.1700  0.5310
  420MOL0     C55351  -2.068   5.535   7.744 -0.2489  0.0169 -1.8413
  420MOL0    Cl55352  -2.220   5.601   7.771  0.3401 -0.2162 -0.4392
  420MOL0     C55353  -0.972   5.337   8.201  1.0082 -0.1391 -0.1248
  420MOL0     C55354  -0.836   5.346   8.164  0.4165 -0.7077 -0.0980
  420MOL0     O55355  -0.630   5.631   7.935 -0.9300 -0.0559  0.2988
  420MOL0     C55356  -0.410   5.348   7.934  1.1047  0.1072  0.0521
  420MOL0     C55357  -0.292   5.312   7.872 -0.9819 -0.4182  0.6568
  420MOL0     N55358  -0.211   5.282   7.202 -0.5319 -0.1477  0.2200
  420MOL0     N55359  -0.150   5.184   7.150 -0.2621  0.3893 -0.8145
  420MOL0     C55360   0.995   4.661   7.361  0.6211 -0.5046  0.1134
  420MOL0     C55361   1.119   4.610   7.404 -0.9047  0.3453  0.3781
  420MOL0     C55362   1.455   4.503   7.707 -0.0724  0.0742 -0.9592
  420MOL0     C55363   1.523   4.464   7.596 -0.6295  0.1446 -0.2132
  420MOL0     C55364   1.651   4.401   7.603  0.8556 -0.0676 -0.1119
  420MOL0     C55365   1.704   4.370   7.723  0.5075 -0.1968 -1.2165
  420MOL0     O55366   1.819   4.295   7.705 -0.7307  0.1824  0.0704
  420MOL0     C55367   1.872   4.236   7.824  0.2080  0.5782 -0.2399
  420MOL0     C55368   1.986   4.135   7.791 -0.8090  0.7391  0.2714
  420MOL0     C55369   1.928   3.994   7.756  1.0023  0.4953 -0.7694
  420MOL0     C55370   1.958   3.899   7.871  0.5909 -0.3943 -0.3791
  420MOL0     C55371   2.098   3.880   7.878 -0.4907  0.3506 -0.7424
  420MOL0     C55372   2.221   3.873   7.878 -0.3187 -0.3768  0.4520
  420MOL0     C55373   1.629   4.402   7.836  0.8583  0.7561 -0.7128
  420MOL0     C55374   1.504   4.466   7.835 -0.1809  0.9045  0.3676
  420MOL0     H55375   1.110   4.755   7.716 -0.0089 -1.3074  0.0290
  420MOL0     H55376   0.917   4.849   7.634  0.3506 -0.5334  1.4803
  420MOL0     H55377   0.611   4.774   7.353  0.8906  0.7931  1.3582
  420MOL0     H55378   0.704   4.634   7.324 -1.1432  0.0939  1.3340
  420MOL0     H55379   0.695   4.710   7.108  0.7994 -1.4257  0.9693
  420MOL0     H55380   0.844   4.785   7.160  0.3080 -0.2445 -1.3189
  420MOL0     H55381   0.721   4.946   7.031 -0.5477  2.9704  0.9426
  420MOL0     H55382   0.698   4.993   7.200  4.1595 -1.1948 -0.3091
  420MOL0     H55383   0.522   4.835   7.013  0.1649 -0.6192  0.9718
  420MOL0     H55384   0.479   4.839   7.184  2.3532 -1.0174  0.6633
  420MOL0     H55385   0.473   5.073   6.981 -3.3824  2.4051 -0.0874
  420MOL0     H55386   0.462   5.105   7.162  0.9720  0.7449  0.0751
  420MOL0     H55387   0.272   4.939   7.149  1.9909 -1.5174 -1.1664
  420MOL0     H55388   0.267   4.987   6.974 -0.1602  3.4739 -0.8594
  420MOL0     H55389   0.219   5.181   7.213 -0.4708  3.4371 -1.6576
  420MOL0     H55390   0.254   5.226   7.054 -2.3508 -0.9537 -1.4261
  420MOL0     H55391   0.039   5.020   7.105 -2.8720  0.3727 -1.3211
  420MOL0     H55392   0.066   5.121   6.960 -1.9839  0.2935  0.2168
  420MOL0     H55393   0.082   5.420   7.128  0.7484 -1.3050 -1.7978
  420MOL0     H55394  -0.254   5.536   7.296  1.0515  1.6054  1.8569
  420MOL0     H55395  -0.113   5.605   7.203 -0.2209  1.9426  1.4799
  420MOL0     H55396  -0.123   5.622   7.465  1.7771 -0.1372  0.7032
  420MOL0     H55397   0.023   5.558   7.381 -0.2643 -0.4378 -0.1979
  420MOL0     H55398  -0.195   5.381   7.515  0.0277 -1.5029 -4.4624
  420MOL0     H55399  -0.040   5.322   7.467  0.0579 -0.7229  1.0471
  420MOL0     H55400  -0.019   5.526   7.672 -1.9416  0.3469 -0.7576
  420MOL0     H55401   0.070   5.369   7.635 -0.2240 -1.6864 -4.5449
  420MOL0     H55402  -0.209   5.604   7.715  1.2406 -1.4845 -1.2657
  420MOL0     H55403  -0.425   5.671   7.814 -1.0696 -0.1725 -1.6243
  420MOL0     H55404  -0.862   5.565   7.914  0.6335 -0.8349 -0.0845
  420MOL0     H55405  -1.080   5.578   7.986  0.4356  0.6389 -0.6805
  420MOL0     H55406  -1.235   5.608   8.158  0.3640  0.6737  1.0792
  420MOL0     H55407  -1.355   5.528   8.265 -2.5205  1.7834 -1.8026
  420MOL0     H55408  -1.402   5.376   8.066 -0.9227  0.3319  1.3262
  420MOL0     H55409  -1.322   5.510   7.962 -2.4159  0.8521 -1.0624
  420MOL0     H55410  -1.481   5.658   8.060  3.7112 -0.9791  2.5053
  420MOL0     H55411  -1.556   5.537   8.167  1.2835 -1.7190 -0.0102
  420MOL0     H55412  -1.570   5.545   7.864 -1.5934 -0.1867 -0.4914
  420MOL0     H55413  -1.613   5.397   7.956 -2.1653 -0.0439 -0.0570
  420MOL0     H55414  -1.756   5.673   7.983  1.5958 -0.3895 -1.3061
  420MOL0     H55415  -1.796   5.528   8.073  0.3801 -2.0184 -0.8501
  420MOL0     H55416  -1.844   5.407   7.873  3.7842 -0.3205  1.0632
  420MOL0     H55417  -1.802   5.539   7.763 -2.0415 -1.0298 -0.4283
  420MOL0     H55418  -2.028   5.542   7.956 -3.9114 -0.1057 -1.6833
  420MOL0     H55419  -1.963   5.688   7.874  0.5375  0.1863 -0.1908
  420MOL0     H55420  -2.084   5.427   7.748 -2.0144  0.2756  0.3955
  420MOL0     H55421  -2.024   5.563   7.648  1.1004  0.0772 -1.2352
  420MOL0     H55422  -1.008   5.282   8.287  1.5386 -0.2058  0.0593
  420MOL0     H55423  -0.770   5.280   8.219  2.5563  1.8434  0.6205
  420MOL0     H55424  -0.440   5.267   7.999 -2.2997  1.1628 -0.0226
  420MOL0     H55425  -0.240   5.217   7.881  1.2726  0.3171 -2.4682
  420MOL0     H55426   0.962   4.627   7.263 -2.1917  2.2439 -0.0697
  420MOL0     H55427   1.186   4.545   7.350 -2.2961  0.8753 -2.1403
  420MOL0     H55428   1.478   4.481   7.499  2.8481 -2.3585 -2.4973
  420MOL0     H55429   1.693   4.373   7.507 -0.4301 -1.3724 -0.3317
  420MOL0     H55430   1.793   4.187   7.882 -0.3811 -0.6475 -1.9715
  420MOL0     H55431   1.914   4.319   7.880 -1.4678 -0.9077  3.5999
  420MOL0     H55432   2.036   4.178   7.704  1.7608 -0.7436  0.9105
  420MOL0     H55433   2.062   4.137   7.869  0.3873  0.2513 -0.8460
  420MOL0     H55434   1.981   3.954   7.669  0.9498 -0.9905 -0.1441
  420MOL0     H55435   1.819   3.999   7.745  0.8242  1.5928  1.0429
  420MOL0     H55436   1.916   3.931   7.967  2.9986 -0.3335  0.7515
  420MOL0     H55437   1.898   3.815   7.836  1.0320 -0.4172 -1.1109
  420MOL0     H55438   2.328   3.874   7.873 -0.2136  2.2979  1.4646
  420MOL0     H55439   1.664   4.379   7.936 -0.9269  1.9247  0.2363
  420MOL0     H55440   1.454   4.492   7.927 -0.2512  0.0126  0.5938
  421MOL0     O55441   6.703   8.323   7.306  0.0352  0.4262  0.9556
  421MOL0     C55442   6.753   8.238   7.382  0.6931 -0.0932 -0.7217
  421MOL0     O55443   6.685   8.123   7.435 -0.0516 -0.0824  0.0846
  421MOL0     C55444   6.551   8.120   7.413  0.4774 -0.6516  0.0080
  421MOL0     C55445   6.480   8.093   7.525  0.7354  0.1832  0.4429
  421MOL0     C55446   6.339   8.068   7.521 -0.3400  0.5749  0.3499
  421MOL0     C55447   6.279   8.065   7.397  0.0220  0.3765  0.2088
  421MOL0     O55448   6.146   8.025   7.371  0.4474  0.0954  0.4358
  421MOL0     C55449   6.056   8.032   7.485 -1.0830 -0.1053 -0.5358
  421MOL0     C55450   5.909   8.014   7.447  0.5572 -0.3437  1.1490
  421MOL0     C55451   5.845   8.145   7.397 -0.4441  0.0196  0.6643
  421MOL0     C55452   5.691   8.138   7.405  0.5344 -0.0485 -0.0077
  421MOL0     C55453   5.628   8.278   7.400  0.4604  0.4635 -0.2172
  421MOL0     C55454   5.477   8.276   7.431 -0.5885  0.7174  0.2137
  421MOL0     C55455   5.417   8.416   7.408 -0.1805  0.0476 -0.0056
  421MOL0     C55456   5.293   8.435   7.489 -0.5864  0.1967  0.0333
  421MOL0     N55457   5.170   8.379   7.435  0.4911 -0.2846  0.3910
  421MOL0     C55458   5.122   8.252   7.447  0.8513 -0.5177  0.4376
  421MOL0     C55459   5.015   8.250   7.364  0.2889  0.2228  0.0043
  421MOL0     C55460   4.913   8.137   7.353 -0.7691 -0.3569 -0.1074
  421MOL0     C55461   4.789   8.144   7.437 -0.5764 -0.0364  0.3395
  421MOL0     C55462   4.817   8.107   7.582  0.4783 -0.0105  0.1739
  421MOL0     C55463   4.698   8.132   7.672 -0.4000 -0.1673 -0.9917
  421MOL0     O55464   4.590   8.050   7.639 -0.2804 -0.6160 -0.4361
  421MOL0     C55465   4.471   8.081   7.700 -0.0931 -0.0096 -0.0022
  421MOL0     C55466   4.447   8.165   7.816  0.6821  0.0628  0.9242
  421MOL0     C55467   4.318   8.200   7.863  0.1973  0.5164 -0.8342
  421MOL0     C55468   4.208   8.149   7.793  0.5743 -0.1429 -0.2046
  421MOL0     C55469   4.068   8.183   7.829  0.2852 -0.2017 -0.0840
  421MOL0     O55470   3.964   8.140   7.749 -0.0295  0.1422 -0.5335
  421MOL0     C55471   3.836   8.161   7.784 -0.0624  0.1045 -0.2661
  421MOL0     C55472   3.736   8.204   7.693 -0.3669  0.4054  0.1020
  421MOL0     C55473   3.605   8.215   7.734 -0.3200  0.4330 -0.5770
  421MOL0     C55474   3.565   8.184   7.871  0.7357  0.0794 -1.0386
  421MOL0     O55475   3.433   8.201   7.912 -0.3115  0.6953 -0.0202
  421MOL0     C55476   3.329   8.184   7.818 -0.0434  0.3816 -0.1648
  421MOL0     C55477   3.221   8.110   7.899 -0.1174 -0.2550  1.1444
  421MOL0     C55478   3.096   8.072   7.823  0.6516 -0.2495  0.1005
  421MOL0     C55479   2.989   8.047   7.929  1.0506  0.0760  0.6721
  421MOL0     C55480   2.844   8.064   7.878 -1.0211 -0.0210 -0.5656
  421MOL0     C55481   2.753   8.033   7.995  0.0095 -0.3769  0.3574
  421MOL0     C55482   2.607   8.068   7.966 -0.4960 -0.6399 -0.4506
  421MOL0     C55483   2.537   7.949   7.896 -0.3396 -0.0404  0.1455
  421MOL0    Cl55484   2.592   7.943   7.718 -0.3283  0.2823  0.1782
  421MOL0     C55485   3.657   8.143   7.958 -0.2481  0.9478 -0.3026
  421MOL0     C55486   3.796   8.136   7.918 -0.2346  0.3383 -0.4426
  421MOL0     O55487   4.054   8.264   7.924 -0.9587  0.0684  0.1206
  421MOL0     C55488   4.232   8.064   7.682  1.1507  0.3805  0.1640
  421MOL0     C55489   4.357   8.031   7.641  0.1674  0.5375  0.2619
  421MOL0     N55490   5.005   8.367   7.295  0.1729 -0.4635 -0.0961
  421MOL0     N55491   5.097   8.444   7.337 -0.0512  0.5447 -0.7448
  421MOL0     C55492   6.357   8.103   7.285  0.6412  0.3857 -0.0564
  421MOL0     C55493   6.488   8.126   7.288 -0.0921  0.2103 -0.4185
  421MOL0     C55494   6.899   8.241   7.424 -0.2374  0.0015  0.0248
  421MOL0     C55495   6.967   8.131   7.467  0.0684 -0.2701 -1.0733
  421MOL0     C55496   7.100   8.141   7.508 -0.0557  0.1569 -0.1556
  421MOL0     C55497   7.174   8.264   7.512 -0.4767  0.9078  0.9999
  421MOL0     O55498   7.308   8.266   7.561  0.4317 -0.1060 -0.3748
  421MOL0     C55499   7.372   8.399   7.570  0.2146  0.5945  0.7784
  421MOL0     C55500   7.505   8.365   7.631  0.0482 -0.2544 -0.1411
  421MOL0     C55501   7.609   8.468   7.630 -0.3906 -0.1202 -0.4175
  421MOL0     C55502   7.683   8.478   7.497 -0.1397 -0.0531  0.0323
  421MOL0     C55503   7.785   8.581   7.512 -0.6839  0.9614  0.6076
  421MOL0     C55504   7.863   8.673   7.514  0.1097 -0.8175  0.1017
  421MOL0     C55505   7.101   8.375   7.460 -0.0142 -1.0465 -0.2847
  421MOL0     C55506   6.963   8.369   7.428  0.3475  0.3927  0.2173
  421MOL0     H55507   6.529   8.087   7.622  1.3525  1.2392  0.2192
  421MOL0     H55508   6.290   8.045   7.615 -1.3638  3.3303  0.5805
  421MOL0     H55509   6.067   8.133   7.526 -0.4267  0.7512 -2.6876
  421MOL0     H55510   6.102   7.962   7.555  0.5364  2.6777  1.3381
  421MOL0     H55511   5.853   7.972   7.531  0.6118  1.0937  1.9400
  421MOL0     H55512   5.900   7.942   7.366 -2.4381  0.4325  0.6842
  421MOL0     H55513   5.876   8.164   7.294  0.0394 -1.7070  0.4552
  421MOL0     H55514   5.883   8.228   7.457 -1.1520  0.3505  0.6558
  421MOL0     H55515   5.654   8.067   7.330 -1.7939 -0.6852  1.6208
  421MOL0     H55516   5.663   8.094   7.502 -0.4135 -0.0528 -0.2811
  421MOL0     H55517   5.657   8.326   7.307  2.0230 -0.2118 -0.1100
  421MOL0     H55518   5.677   8.346   7.471 -2.8279  0.5747  2.2023
  421MOL0     H55519   5.452   8.246   7.533 -0.4421 -2.3152 -0.5354
  421MOL0     H55520   5.433   8.203   7.364 -1.1506  0.7845  0.5054
  421MOL0     H55521   5.485   8.490   7.451  0.1196 -0.8039  1.0263
  421MOL0     H55522   5.401   8.431   7.301 -0.1294 -1.2078 -0.2077
  421MOL0     H55523   5.276   8.542   7.496  1.5936  0.5336  1.0072
  421MOL0     H55524   5.303   8.387   7.587  0.3001 -1.2554 -0.7225
  421MOL0     H55525   5.153   8.173   7.515 -0.3377  1.2571  3.2376
  421MOL0     H55526   4.955   8.039   7.377 -0.1047  0.1945  1.0950
  421MOL0     H55527   4.888   8.132   7.247  1.0031 -1.8330 -0.5002
  421MOL0     H55528   4.716   8.072   7.398  0.2748 -0.3575 -0.6953
  421MOL0     H55529   4.750   8.246   7.428  2.5848  1.2692  0.3766
  421MOL0     H55530   4.836   7.999   7.581  1.4187  0.1501 -1.1588
  421MOL0     H55531   4.906   8.153   7.627  0.3124  2.5121 -1.8680
  421MOL0     H55532   4.672   8.238   7.666  1.5902  0.3560 -1.0532
  421MOL0     H55533   4.714   8.106   7.777 -0.4270  2.5958 -0.2332
  421MOL0     H55534   4.529   8.216   7.866  0.4829  0.3605  0.9461
  421MOL0     H55535   4.294   8.272   7.940  0.0552 -1.4717  1.0834
  421MOL0     H55536   3.757   8.196   7.587  1.5751 -1.0538  0.5330
  421MOL0     H55537   3.524   8.241   7.666  0.3852 -1.9694 -2.4546
  421MOL0     H55538   3.349   8.114   7.736 -0.8249 -0.8802  0.6819
  421MOL0     H55539   3.297   8.278   7.771 -0.3160  0.5278  0.3073
  421MOL0     H55540   3.213   8.174   7.987  3.3322  1.2289  0.5392
  421MOL0     H55541   3.265   8.015   7.930 -0.5651 -0.8462  0.0452
  421MOL0     H55542   3.106   7.989   7.752  2.6644 -0.4367  0.5485
  421MOL0     H55543   3.058   8.162   7.774 -1.1698 -0.8824  0.2728
  421MOL0     H55544   2.998   7.944   7.966 -0.2082  0.2260  1.4746
  421MOL0     H55545   3.000   8.118   8.012  0.4474 -0.1365  0.9405
  421MOL0     H55546   2.824   7.990   7.801  0.1468 -1.3498  0.3600
  421MOL0     H55547   2.817   8.161   7.835  0.4036 -0.1444 -1.8098
  421MOL0     H55548   2.785   8.092   8.082 -1.3009 -2.2417  2.2097
  421MOL0     H55549   2.772   7.927   8.016  0.5785 -0.1380  1.0884
  421MOL0     H55550   2.568   8.077   8.068  0.2332 -1.1845 -0.1072
  421MOL0     H55551   2.591   8.163   7.915 -0.4941 -1.3500 -1.8247
  421MOL0     H55552   2.427   7.949   7.904 -0.3410 -1.2276  0.3213
  421MOL0     H55553   2.574   7.854   7.935 -1.0647 -0.4310 -0.0860
  421MOL0     H55554   3.626   8.118   8.058  1.7426 -2.6257 -0.4194
  421MOL0     H55555   3.860   8.091   7.993 -0.5500 -0.1884 -0.4823
  421MOL0     H55556   4.149   8.033   7.619  0.4326  0.8030  0.8837
  421MOL0     H55557   4.365   7.979   7.546  0.8616  3.1814 -1.2246
  421MOL0     H55558   6.303   8.081   7.194 -0.1570 -0.5337  0.6113
  421MOL0     H55559   6.541   8.143   7.195  0.6614  1.0427  0.1415
  421MOL0     H55560   6.915   8.036   7.474 -1.4953  0.5415 -1.1035
  421MOL0     H55561   7.148   8.052   7.547 -1.0561 -0.6280 -0.6910
  421MOL0     H55562   7.318   8.476   7.627 -0.5690  1.1903 -0.6933
  421MOL0     H55563   7.393   8.446   7.473 -0.1808  3.6654  2.0599
  421MOL0     H55564   7.486   8.337   7.735  1.3939  0.8016  0.4200
  421MOL0     H55565   7.540   8.274   7.582  0.2321 -0.6548  0.7203
  421MOL0     H55566   7.684   8.437   7.703  0.0425  0.1813 -0.7337
  421MOL0     H55567   7.562   8.562   7.659  0.2696  0.3044 -0.7046
  421MOL0     H55568   7.731   8.389   7.457 -0.5180 -0.9808  1.5777
  421MOL0     H55569   7.605   8.503   7.423 -0.3877  0.4997  0.4730
  421MOL0     H55570   7.924   8.761   7.510 -2.0004  0.6535 -1.8346
  421MOL0     H55571   7.146   8.474   7.454 -0.3524 -0.8024  0.9305
  421MOL0     H55572   6.914   8.460   7.396 -0.6842 -0.9963 -2.3972
  422MOL0     O55573   7.469   0.681   9.237  1.0832 -0.3254 -0.2115
  422MOL0     C55574   7.542   0.596   9.196 -0.5312 -0.7786  0.3913
  422MOL0     O55575   7.503   0.469   9.153  0.7897 -0.1078  0.3079
  422MOL0     C55576   7.372   0.429   9.137  0.7603 -0.2449 -0.3711
  422MOL0     C55577   7.357   0.315   9.058  0.1707  1.1254 -0.2746
  422MOL0     C55578   7.236   0.265   9.039  0.2276  0.9724  0.4537
  422MOL0     C55579   7.117   0.328   9.078 -0.8585 -0.5666 -0.3117
  422MOL0     O55580   7.005   0.272   9.042  0.2066  0.2310 -0.5909
  422MOL0     C55581   6.883   0.323   9.099  0.0488  0.3102 -0.1042
  422MOL0     C55582   6.767   0.234   9.078  0.0643  0.6226  0.1497
  422MOL0     C55583   6.638   0.290   9.128  0.5536 -0.1235 -0.2687
  422MOL0     C55584   6.504   0.205   9.113  0.3642  0.1504  1.0075
  422MOL0     C55585   6.377   0.260   9.180 -0.0299 -0.4091 -0.1849
  422MOL0     C55586   6.344   0.385   9.105 -0.0276  0.8300 -1.2265
  422MOL0     C55587   6.202   0.436   9.136 -0.0728  0.1472 -0.0213
  422MOL0     C55588   6.139   0.543   9.050  0.0289  0.4013  0.1124
  422MOL0     N55589   6.121   0.505   8.910  0.0579 -0.3454  0.0454
  422MOL0     C55590   6.062   0.393   8.869 -0.2171  0.3503  0.3461
  422MOL0     C55591   6.081   0.394   8.737  0.2375  0.1244  0.3498
  422MOL0     C55592   6.038   0.289   8.635  0.7015  0.4517  0.0919
  422MOL0     C55593   5.894   0.312   8.603  0.9064 -0.6345  0.2750
  422MOL0     C55594   5.845   0.220   8.492 -0.3588 -0.0683 -0.6283
  422MOL0     C55595   5.691   0.230   8.493  0.0780  0.2232  1.0847
  422MOL0     O55596   5.637   0.134   8.404 -0.0095  0.0309  0.0191
  422MOL0     C55597   5.508   0.102   8.418  0.2976  1.1072  0.1095
  422MOL0     C55598   5.442   0.089   8.539  0.2694 -0.4064  0.0429
  422MOL0     C55599   5.305   0.054   8.546 -0.1405 -0.6738  0.0389
  422MOL0     C55600   5.230   0.029   8.433  0.1415 -0.4574 -0.8034
  422MOL0     C55601   5.097  -0.017   8.440  0.6763 -0.0509  0.4480
  422MOL0     O55602   5.047  -0.071   8.329  0.0743  0.6144 -0.2458
  422MOL0     C55603   4.914  -0.121   8.326 -0.7458 -0.1539 -0.1649
  422MOL0     C55604   4.803  -0.043   8.365  0.4267 -0.0896  0.3101
  422MOL0     C55605   4.675  -0.081   8.330 -0.0539  0.4627 -0.4336
  422MOL0     C55606   4.652  -0.206   8.275 -0.3606  0.1979  1.4144
  422MOL0     O55607   4.525  -0.251   8.238 -0.5116 -0.5920  0.2667
  422MOL0     C55608   4.513  -0.345   8.127  0.2917 -0.3830 -0.1882
  422MOL0     C55609   4.363  -0.377   8.110 -0.6641  0.2241 -0.8056
  422MOL0     C55610   4.280  -0.249   8.112 -0.6217  0.4760 -0.2372
  422MOL0     C55611   4.134  -0.281   8.092 -0.0532 -0.0050 -1.0633
  422MOL0     C55612   4.056  -0.157   8.112 -0.3986  0.4905 -0.4990
  422MOL0     C55613   3.919  -0.175   8.067  0.0111  0.8763  0.7622
  422MOL0     C55614   3.853  -0.037   8.074 -0.1906 -0.1070 -0.0088
  422MOL0     C55615   3.702  -0.058   8.033 -0.3706 -0.4872 -0.8585
  422MOL0    Cl55616   3.603   0.099   8.034 -0.0391  0.0357  0.4417
  422MOL0     C55617   4.768  -0.279   8.224  0.1754 -0.1849 -0.3796
  422MOL0     C55618   4.895  -0.237   8.253 -0.5076  0.3706  0.6888
  422MOL0     O55619   5.040  -0.003   8.546  0.3982  0.3198 -0.2651
  422MOL0     C55620   5.297   0.028   8.315 -0.0097  0.6457 -0.2687
  422MOL0     C55621   5.431   0.057   8.309  0.1386  0.5345  0.3206
  422MOL0     N55622   6.150   0.508   8.695  0.4109  0.9141 -0.1377
  422MOL0     N55623   6.161   0.579   8.802 -0.6802 -0.7621 -0.8522
  422MOL0     C55624   7.123   0.452   9.146  0.2186 -0.1048  0.3149
  422MOL0     C55625   7.251   0.492   9.182 -0.4220  0.6832  0.0222
  422MOL0     C55626   7.682   0.629   9.186 -0.4871 -0.1270  0.2614
  422MOL0     C55627   7.734   0.757   9.221  0.1931 -0.3303 -0.3278
  422MOL0     C55628   7.870   0.787   9.233  0.0302  0.5649  0.1111
  422MOL0     C55629   7.960   0.677   9.198 -0.2970 -0.0147  0.4031
  422MOL0     O55630   8.103   0.673   9.215  0.0422  0.2416 -0.0879
  422MOL0     C55631   8.168   0.790   9.260 -0.3389  0.3268 -0.2808
  422MOL0     C55632   8.312   0.752   9.272 -0.0808  0.3029  0.3533
  422MOL0     C55633   8.374   0.755   9.130 -0.0286 -0.3888  0.0530
  422MOL0     C55634   8.524   0.731   9.106  1.1111 -0.5289 -0.3129
  422MOL0     C55635   8.620   0.824   9.173  0.3000  0.2156 -0.5989
  422MOL0     C55636   8.685   0.895   9.247 -0.0185  0.3181 -0.6044
  422MOL0     C55637   7.905   0.551   9.162  0.1205 -0.0438 -0.1747
  422MOL0     C55638   7.769   0.527   9.161  0.1241 -0.2064  0.4914
  422MOL0     H55639   7.449   0.263   9.032  0.7028  0.8307  1.9813
  422MOL0     H55640   7.217   0.174   8.983  1.2366  0.2708  1.1995
  422MOL0     H55641   6.863   0.422   9.058 -0.6984  0.9796  1.7935
  422MOL0     H55642   6.880   0.331   9.208  0.0351 -1.1893  0.0281
  422MOL0     H55643   6.786   0.142   9.134  2.7696  1.6082  1.0008
  422MOL0     H55644   6.753   0.217   8.971  1.1014 -0.9463  0.2267
  422MOL0     H55645   6.628   0.388   9.082  1.0899 -1.1760 -2.7634
  422MOL0     H55646   6.643   0.306   9.237  0.9113 -0.7324 -0.1901
  422MOL0     H55647   6.481   0.190   9.007  2.2757 -0.2847  0.6121
  422MOL0     H55648   6.523   0.104   9.149 -0.0776 -0.4195 -0.2816
  422MOL0     H55649   6.394   0.280   9.286 -0.9486 -2.2526  0.3546
  422MOL0     H55650   6.288   0.195   9.184  0.6676 -1.4083 -0.5845
  422MOL0     H55651   6.354   0.370   8.997 -0.7113  0.2994 -1.2230
  422MOL0     H55652   6.422   0.458   9.129  0.8713  0.2965 -2.4032
  422MOL0     H55653   6.131   0.354   9.123 -1.8028  1.2209  1.8399
  422MOL0     H55654   6.212   0.466   9.241  2.7640  0.6716 -0.3667
  422MOL0     H55655   6.197   0.636   9.053 -0.4813  0.7159  1.6685
  422MOL0     H55656   6.036   0.563   9.082 -0.3419  2.2023 -1.9525
  422MOL0     H55657   6.016   0.313   8.926  0.9185 -2.7650 -2.7714
  422MOL0     H55658   6.054   0.192   8.683  1.7438  0.4707 -0.1880
  422MOL0     H55659   6.105   0.295   8.549 -0.8828  0.8395 -1.1592
  422MOL0     H55660   5.890   0.415   8.565  2.1761 -0.7924 -0.3390
  422MOL0     H55661   5.831   0.307   8.693  0.3033  0.9605 -0.0197
  422MOL0     H55662   5.891   0.257   8.399  1.5570 -0.0339  0.2749
  422MOL0     H55663   5.880   0.116   8.499 -0.1019 -0.0022 -0.8751
  422MOL0     H55664   5.652   0.326   8.460 -2.9486 -1.5607 -1.0758
  422MOL0     H55665   5.654   0.219   8.596 -0.7236  1.2931  0.9224
  422MOL0     H55666   5.485   0.108   8.637 -1.3000  2.1301  0.3355
  422MOL0     H55667   5.262   0.029   8.643 -0.4639 -0.8024 -0.1375
  422MOL0     H55668   4.815   0.049   8.420  3.4275 -1.5155  2.3217
  422MOL0     H55669   4.589  -0.023   8.362 -1.4384 -0.6119 -2.0084
  422MOL0     H55670   4.571  -0.432   8.159  0.4817  0.5700  2.2915
  422MOL0     H55671   4.547  -0.302   8.032  0.6144 -0.0576  0.0710
  422MOL0     H55672   4.334  -0.454   8.182  2.5809 -0.6642 -0.2812
  422MOL0     H55673   4.358  -0.427   8.013  1.4819 -4.8614  1.3318
  422MOL0     H55674   4.321  -0.163   8.059  0.5975  0.6008  0.8645
  422MOL0     H55675   4.290  -0.208   8.213  1.3141  1.0047 -0.6003
  422MOL0     H55676   4.128  -0.311   7.987  0.9146  1.3128 -1.5226
  422MOL0     H55677   4.093  -0.351   8.165 -1.5355  1.4145 -0.4719
  422MOL0     H55678   4.107  -0.077   8.058  0.4066  0.0750 -0.3605
  422MOL0     H55679   4.056  -0.140   8.220  1.7503 -3.1566  0.2566
  422MOL0     H55680   3.874  -0.252   8.129 -1.5503  1.4567  0.3909
  422MOL0     H55681   3.929  -0.208   7.963 -0.1156 -0.2759  1.1023
  422MOL0     H55682   3.870  -0.006   8.177  0.1267  0.2756 -0.1760
  422MOL0     H55683   3.887   0.041   8.004 -1.0254 -0.0019 -0.3132
  422MOL0     H55684   3.649  -0.127   8.099  0.5840 -0.9944 -0.6027
  422MOL0     H55685   3.704  -0.092   7.929 -3.6582  0.4377 -1.3295
  422MOL0     H55686   4.762  -0.376   8.177 -2.3302 -0.5828  0.5844
  422MOL0     H55687   4.978  -0.291   8.209 -0.5911  0.6079  0.2369
  422MOL0     H55688   5.252  -0.005   8.222  2.5631 -0.6784 -1.1602
  422MOL0     H55689   5.469   0.047   8.207 -0.5775  0.7297  0.0282
  422MOL0     H55690   7.040   0.513   9.179  1.0655  0.7551  0.8812
  422MOL0     H55691   7.253   0.587   9.234 -1.0463 -1.1449  3.6912
  422MOL0     H55692   7.665   0.837   9.242  1.1471  0.7601 -1.2156
  422MOL0     H55693   7.899   0.888   9.258 -1.2351  1.3665 -1.5002
  422MOL0     H55694   8.136   0.816   9.361  1.9426  2.2311  0.0257
  422MOL0     H55695   8.150   0.872   9.190 -0.9554  0.6533  0.2541
  422MOL0     H55696   8.360   0.820   9.343  2.2116  0.1403 -0.9073
  422MOL0     H55697   8.314   0.649   9.308  0.2937  0.1399 -0.1111
  422MOL0     H55698   8.342   0.850   9.086 -2.1066 -0.4083  1.3942
  422MOL0     H55699   8.329   0.677   9.067  1.2284  0.8796 -2.5766
  422MOL0     H55700   8.544   0.626   9.133 -2.0879 -1.6238 -1.7846
  422MOL0     H55701   8.555   0.730   9.001  0.6105 -3.6380 -0.5425
  422MOL0     H55702   8.745   0.951   9.315 -1.9582 -1.1994  2.5542
  422MOL0     H55703   7.973   0.467   9.150 -1.5568 -1.4762 -0.1199
  422MOL0     H55704   7.728   0.429   9.137  0.9435 -0.0485 -1.7711
  423MOL0     O55705   6.493   1.531   9.880 -0.7546 -0.3616 -0.5632
  423MOL0     C55706   6.451   1.440   9.816  0.2497 -0.5684  0.6252
  423MOL0     O55707   6.516   1.331   9.775  0.1414  0.1239  0.3459
  423MOL0     C55708   6.649   1.321   9.805 -0.3517  0.0972 -0.0883
  423MOL0     C55709   6.732   1.353   9.705 -0.4049 -0.0661 -0.3837
  423MOL0     C55710   6.870   1.346   9.730  0.2396 -0.0884  0.1400
  423MOL0     C55711   6.918   1.325   9.863 -0.1815  0.6917  0.8087
  423MOL0     O55712   7.050   1.350   9.886 -0.5034 -0.0243  0.1186
  423MOL0     C55713   7.083   1.409  10.007  0.3235 -0.3919 -0.1252
  423MOL0     C55714   7.232   1.441  10.010 -0.2278  0.0655  0.3754
  423MOL0     C55715   7.285   1.486  10.142 -0.5177  0.1728 -0.6529
  423MOL0     C55716   7.430   1.476  10.157  0.4660  0.8019  1.1789
  423MOL0     C55717   7.484   1.528  10.289  0.2910 -0.5575  0.6005
  423MOL0     C55718   7.466   1.684  10.308 -0.6830  1.1714  0.0637
  423MOL0     C55719   7.571   1.778  10.256 -0.6674 -0.3605 -0.3844
  423MOL0     C55720   7.594   1.780  10.106  0.4670  0.4117  0.3899
  423MOL0     N55721   7.471   1.811  10.023  0.2979  0.3023 -0.3890
  423MOL0     C55722   7.404   1.934  10.022  0.1988 -0.1843 -0.6893
  423MOL0     C55723   7.301   1.921   9.934  0.0444  0.2021 -0.0917
  423MOL0     C55724   7.206   2.029   9.892 -0.4531  0.3637 -0.7754
  423MOL0     C55725   7.197   2.038   9.739 -0.0408  0.2088  0.4651
  423MOL0     C55726   7.125   2.165   9.696 -0.2670 -0.0606 -0.0278
  423MOL0     C55727   6.983   2.162   9.749 -0.1306  0.4286 -0.3948
  423MOL0     O55728   6.901   2.247   9.673  0.4682 -0.3812 -0.2890
  423MOL0     C55729   6.773   2.264   9.729  0.2220 -0.1123 -0.0671
  423MOL0     C55730   6.720   2.214   9.845 -0.2004  0.3128  0.5017
  423MOL0     C55731   6.585   2.245   9.878 -0.1838  0.1617  0.1081
  423MOL0     C55732   6.498   2.324   9.801  0.4861  0.1871  0.9729
  423MOL0     C55733   6.366   2.362   9.847 -0.2524  0.6490 -0.7560
  423MOL0     O55734   6.317   2.314   9.968  0.0821  0.4326  0.4894
  423MOL0     C55735   6.204   2.366  10.019 -0.5809 -0.6343 -0.5817
  423MOL0     C55736   6.084   2.346   9.957  0.0602 -0.0576  0.0750
  423MOL0     C55737   5.964   2.407   9.993 -0.6824  0.0551 -0.1875
  423MOL0     C55738   5.973   2.487  10.109 -0.8180 -0.7712 -1.0221
  423MOL0     O55739   5.864   2.542  10.169  0.2894  0.3561 -0.0449
  423MOL0     C55740   5.731   2.523  10.106  0.8296 -0.1810 -0.0022
  423MOL0     C55741   5.621   2.585  10.188 -0.5320  0.0691 -0.0544
  423MOL0     C55742   5.488   2.604  10.120  0.8213  0.1699 -0.6232
  423MOL0     C55743   5.378   2.659  10.220  0.5249 -0.4201  0.4696
  423MOL0     C55744   5.235   2.637  10.173 -0.2351 -0.6416 -0.2842
  423MOL0     C55745   5.147   2.710  10.265 -0.4051 -0.4373 -1.0317
  423MOL0     C55746   5.006   2.660  10.243  1.2731  0.0969 -0.2179
  423MOL0     C55747   4.913   2.773  10.290  0.0720  0.5252 -0.1462
  423MOL0    Cl55748   4.738   2.721  10.258 -0.1524 -0.0416  0.4706
  423MOL0     C55749   6.091   2.507  10.180 -0.3707  0.3667 -0.7196
  423MOL0     C55750   6.216   2.455  10.125  0.5132 -0.3128 -0.3760
  423MOL0     O55751   6.305   2.437   9.776  0.3058 -0.1249 -0.3072
  423MOL0     C55752   6.556   2.375   9.680  1.0920  0.1952  0.6050
  423MOL0     C55753   6.689   2.359   9.663  0.1530 -0.6815  0.4379
  423MOL0     N55754   7.317   1.792   9.876 -0.3815 -0.3509  0.1209
  423MOL0     N55755   7.402   1.724   9.945  0.3568  0.3178  0.3362
  423MOL0     C55756   6.821   1.288   9.960 -0.6522 -0.1258 -0.0475
  423MOL0     C55757   6.684   1.283   9.933  0.3222  0.2066  0.4509
  423MOL0     C55758   6.315   1.451   9.771  0.7654  0.8016 -0.6405
  423MOL0     C55759   6.214   1.527   9.842 -0.4987  1.0057  0.3697
  423MOL0     C55760   6.084   1.529   9.793  0.0944  0.1336 -0.5476
  423MOL0     C55761   6.042   1.458   9.685  0.1217  0.2602 -0.3629
  423MOL0     O55762   5.910   1.448   9.643  0.1671  0.3784 -0.1353
  423MOL0     C55763   5.795   1.462   9.729  0.0014 -0.3695  0.8347
  423MOL0     C55764   5.675   1.377   9.675 -0.0225  0.1865  0.4934
  423MOL0     C55765   5.646   1.392   9.529 -0.3353  0.3284 -0.4205
  423MOL0     C55766   5.520   1.308   9.498 -0.0572  0.2696  0.0166
  423MOL0     C55767   5.392   1.360   9.555 -0.3153  0.7718 -0.3454
  423MOL0     C55768   5.282   1.396   9.586 -0.3919  0.3984  0.6091
  423MOL0     C55769   6.129   1.381   9.612 -0.8059  2.0855 -0.6040
  423MOL0     C55770   6.268   1.374   9.656  0.0036  0.0227  0.0483
  423MOL0     H55771   6.683   1.390   9.616 -1.3162 -0.7134 -0.1536
  423MOL0     H55772   6.943   1.364   9.652 -1.6594 -2.9314 -2.5436
  423MOL0     H55773   7.070   1.333  10.084 -0.3458 -0.4228 -0.2654
  423MOL0     H55774   7.013   1.493  10.020  1.0971  0.1835  0.4106
  423MOL0     H55775   7.238   1.520   9.935  1.0727  0.8878  1.3046
  423MOL0     H55776   7.276   1.349   9.968 -0.6238  0.6706 -1.4898
  423MOL0     H55777   7.237   1.430  10.223 -1.2772 -0.4689 -1.5323
  423MOL0     H55778   7.236   1.583  10.148 -1.4115 -0.1735 -1.8870
  423MOL0     H55779   7.454   1.371  10.143  0.0031  0.9285 -0.9855
  423MOL0     H55780   7.471   1.542  10.080  0.6468  0.2879  0.8328
  423MOL0     H55781   7.590   1.502  10.296  0.6003 -0.3870 -2.3214
  423MOL0     H55782   7.428   1.472  10.365 -0.8194 -2.8867 -1.7765
  423MOL0     H55783   7.466   1.694  10.417 -1.7756  1.7325  0.0327
  423MOL0     H55784   7.368   1.731  10.297 -1.2099  0.7500  2.3169
  423MOL0     H55785   7.552   1.880  10.288 -0.0613 -0.7912  1.4223
  423MOL0     H55786   7.667   1.752  10.302  0.6727 -0.5905 -3.1066
  423MOL0     H55787   7.649   1.692  10.071 -0.3092  0.6100 -1.3889
  423MOL0     H55788   7.674   1.853  10.087 -0.4277  1.3790  0.2731
  423MOL0     H55789   7.421   2.022  10.084  0.8657  0.0572 -1.2014
  423MOL0     H55790   7.241   2.120   9.941 -2.0829  2.9549 -4.0176
  423MOL0     H55791   7.104   2.005   9.923  0.2933 -1.9067  0.1277
  423MOL0     H55792   7.146   1.953   9.695  0.4137 -0.1112  0.5416
  423MOL0     H55793   7.302   2.044   9.708 -0.2052  0.3454 -0.0747
  423MOL0     H55794   7.178   2.255   9.730 -1.0303  0.6300 -0.6122
  423MOL0     H55795   7.125   2.166   9.586  1.9059  1.3207 -0.0814
  423MOL0     H55796   6.982   2.197   9.853  0.9007  0.5059 -0.3999
  423MOL0     H55797   6.940   2.062   9.741  2.8874 -1.1008  1.0305
  423MOL0     H55798   6.777   2.151   9.913  3.3115  3.6871  0.9978
  423MOL0     H55799   6.540   2.217   9.973 -3.6871  0.4087 -1.3001
  423MOL0     H55800   6.067   2.286   9.868 -0.6430  4.1369 -2.8905
  423MOL0     H55801   5.878   2.376   9.935 -0.1637  0.0161 -0.9499
  423MOL0     H55802   5.704   2.417  10.100  1.3680 -0.7201  4.1545
  423MOL0     H55803   5.731   2.559  10.003 -0.4002 -1.3746 -0.4570
  423MOL0     H55804   5.658   2.680  10.227 -0.4021 -0.7614  1.9522
  423MOL0     H55805   5.609   2.529  10.281  0.6389  0.1315  0.1505
  423MOL0     H55806   5.457   2.509  10.076  1.1198  0.3934 -1.3325
  423MOL0     H55807   5.493   2.667  10.031  1.3380 -1.0910 -1.5307
  423MOL0     H55808   5.387   2.610  10.317  0.9457 -1.4981 -0.0908
  423MOL0     H55809   5.396   2.766  10.236  1.3259 -0.0367 -2.3864
  423MOL0     H55810   5.217   2.529  10.178 -0.3836 -0.7600 -2.4581
  423MOL0     H55811   5.226   2.675  10.071  3.6153  0.5785 -0.3263
  423MOL0     H55812   5.151   2.817  10.244 -2.2477 -0.0982  0.1552
  423MOL0     H55813   5.176   2.693  10.369 -0.0126 -0.7233 -1.1823
  423MOL0     H55814   4.988   2.644  10.136  2.2959  0.5779 -0.4767
  423MOL0     H55815   4.981   2.568  10.296  0.1262  0.2031 -0.5485
  423MOL0     H55816   4.922   2.866  10.233 -0.2435  1.3348  1.0787
  423MOL0     H55817   4.933   2.799  10.395  1.0484 -0.3288 -0.0971
  423MOL0     H55818   6.096   2.567  10.270 -1.0410 -2.2866  1.2041
  423MOL0     H55819   6.315   2.463  10.168  0.1351 -0.7203  0.5848
  423MOL0     H55820   6.492   2.431   9.612  3.5446  2.1452 -0.2660
  423MOL0     H55821   6.743   2.417   9.588  0.7116  0.6472  1.8236
  423MOL0     H55822   6.860   1.261  10.058 -0.1997 -0.9897 -0.4641
  423MOL0     H55823   6.610   1.233   9.995  0.1063 -0.2154 -0.1408
  423MOL0     H55824   6.232   1.591   9.928 -3.1150  5.2606 -1.9637
  423MOL0     H55825   6.007   1.583   9.846 -0.2140  0.4317 -1.2856
  423MOL0     H55826   5.762   1.566   9.722 -0.4783 -0.5249  0.6960
  423MOL0     H55827   5.825   1.441   9.832 -1.1519 -2.1541  0.8574
  423MOL0     H55828   5.702   1.272   9.687  0.1774  0.2083  0.2591
  423MOL0     H55829   5.591   1.405   9.739 -0.2485 -2.3584  1.4429
  423MOL0     H55830   5.733   1.354   9.474  1.2385  1.6822  1.0243
  423MOL0     H55831   5.628   1.493   9.492 -0.1492  0.8129  0.7720
  423MOL0     H55832   5.498   1.307   9.391 -1.5534  0.0913  0.3010
  423MOL0     H55833   5.540   1.206   9.530 -0.2328  0.5986  1.2621
  423MOL0     H55834   5.183   1.427   9.611 -2.1487 -3.2373 -1.0887
  423MOL0     H55835   6.105   1.321   9.526  3.5692 -1.7225  0.4240
  423MOL0     H55836   6.331   1.313   9.592  2.1704  2.4219 -0.2488
  424MOL0     O55837   0.584   7.563   8.465 -0.0414 -0.5275 -0.1850
  424MOL0     C55838   0.599   7.464   8.534  0.1790  0.7935 -0.1936
  424MOL0     O55839   0.508   7.385   8.604  0.2862 -0.2011  0.0499
  424MOL0     C55840   0.368   7.395   8.601 -0.3112 -0.0080 -0.1651
  424MOL0     C55841   0.304   7.297   8.676  0.6008  0.4850 -0.1194
  424MOL0     C55842   0.162   7.279   8.686  0.0649  0.3877 -0.2986
  424MOL0     C55843   0.088   7.355   8.603  0.4233  0.0910  0.7103
  424MOL0     O55844  -0.051   7.339   8.611  0.0252  0.1204 -1.0227
  424MOL0     C55845  -0.101   7.202   8.593 -1.0479 -0.0271  0.3006
  424MOL0     C55846  -0.207   7.199   8.483 -0.0460  0.8091 -0.2223
  424MOL0     C55847  -0.287   7.071   8.479 -0.2372  0.2629 -0.5644
  424MOL0     C55848  -0.407   7.077   8.386  0.6744  0.0754  0.9978
  424MOL0     C55849  -0.474   6.940   8.370 -0.0983 -0.3823 -0.1551
  424MOL0     C55850  -0.591   6.943   8.263  0.9198 -0.1628  0.2432
  424MOL0     C55851  -0.637   6.799   8.235 -0.8015  0.3797 -0.2265
  424MOL0     C55852  -0.677   6.712   8.354 -0.5680  0.3738  1.2561
  424MOL0     N55853  -0.806   6.755   8.429 -0.0944  0.5240  0.8565
  424MOL0     C55854  -0.818   6.855   8.519  0.2900  1.1541 -0.9113
  424MOL0     C55855  -0.946   6.858   8.557  0.4018 -0.4938 -0.4138
  424MOL0     C55856  -1.015   6.941   8.663  1.0336 -0.3470  0.1689
  424MOL0     C55857  -1.137   7.027   8.611  0.0326  0.0455  0.2552
  424MOL0     C55858  -1.267   6.949   8.610 -0.0097  0.3055  0.1665
  424MOL0     C55859  -1.396   7.037   8.613  0.8107  0.7246 -1.0266
  424MOL0     O55860  -1.402   7.132   8.725  0.1647 -0.7883  0.3886
  424MOL0     C55861  -1.529   7.187   8.738  0.0914 -0.7007 -0.2170
  424MOL0     C55862  -1.628   7.121   8.815 -0.3005 -0.5560  0.1462
  424MOL0     C55863  -1.742   7.187   8.844  0.0490  0.4440  0.0558
  424MOL0     C55864  -1.766   7.318   8.800 -0.7559  0.2188  0.0687
  424MOL0     C55865  -1.894   7.384   8.834 -0.3549 -0.0230  0.2759
  424MOL0     O55866  -1.985   7.306   8.909 -0.8854  0.2805  0.2322
  424MOL0     C55867  -2.124   7.331   8.910 -0.2647  1.0483  0.1678
  424MOL0     C55868  -2.189   7.448   8.951 -0.1450  0.8631 -0.2383
  424MOL0     C55869  -2.326   7.449   8.974 -0.0019  0.2225  0.2028
  424MOL0     C55870  -2.392   7.330   8.955 -0.0621  0.2610 -0.1851
  424MOL0     O55871  -2.519   7.328   8.995  0.1097 -0.2516  0.3576
  424MOL0     C55872  -2.557   7.211   9.074 -0.1574  0.2846  0.0592
  424MOL0     C55873  -2.710   7.249   9.102  0.3791 -0.1540 -0.9368
  424MOL0     C55874  -2.783   7.129   9.140  0.6153  1.0612  0.5084
  424MOL0     C55875  -2.936   7.135   9.133  0.4656  0.0622 -0.7329
  424MOL0     C55876  -3.002   7.223   9.226  0.0659 -0.3493 -1.1642
  424MOL0     C55877  -3.146   7.200   9.231  0.0807  0.0748  0.0912
  424MOL0     C55878  -3.190   7.067   9.296 -0.1813 -0.2194 -0.1371
  424MOL0     C55879  -3.343   7.043   9.296  0.6280 -0.0040  0.2406
  424MOL0    Cl55880  -3.434   7.181   9.361  0.5294  0.3483 -0.0438
  424MOL0     C55881  -2.335   7.214   8.894  0.5786 -0.0847  0.2503
  424MOL0     C55882  -2.205   7.216   8.870 -0.8299  0.4042 -0.1312
  424MOL0     O55883  -1.914   7.498   8.788 -0.7262  1.0541  0.1841
  424MOL0     C55884  -1.671   7.383   8.724  0.6880  0.3123  0.6622
  424MOL0     C55885  -1.553   7.323   8.700  0.2703  0.3884 -0.4324
  424MOL0     N55886  -1.011   6.753   8.494 -0.3756 -0.3112 -0.2638
  424MOL0     N55887  -0.932   6.697   8.406 -0.7195 -0.1892 -0.6430
  424MOL0     C55888   0.149   7.447   8.517 -0.4738  0.0967  0.0484
  424MOL0     C55889   0.287   7.467   8.510 -0.3816  0.5984 -0.3173
  424MOL0     C55890   0.746   7.429   8.540 -0.0055  0.3979  0.3488
  424MOL0     C55891   0.831   7.460   8.426  0.0605 -0.6035  0.1238
  424MOL0     C55892   0.972   7.433   8.437  0.2817 -0.4861  0.1931
  424MOL0     C55893   1.024   7.387   8.551  0.1215 -0.5704 -1.0587
  424MOL0     O55894   1.158   7.357   8.558 -0.6934  0.3308 -0.5018
  424MOL0     C55895   1.210   7.380   8.693 -0.4370 -0.4496 -0.4028
  424MOL0     C55896   1.363   7.414   8.700  0.4760  0.1116 -0.1576
  424MOL0     C55897   1.392   7.511   8.583 -0.7382  0.0652 -0.3371
  424MOL0     C55898   1.543   7.540   8.559  0.3329 -0.7916  0.2178
  424MOL0     C55899   1.617   7.419   8.536 -0.3186  0.1600  0.1083
  424MOL0     C55900   1.689   7.323   8.522 -0.9109 -0.0836  0.3511
  424MOL0     C55901   0.944   7.357   8.656 -0.1313 -0.0189 -0.4907
  424MOL0     C55902   0.808   7.371   8.650 -0.3084 -0.0755 -0.3619
  424MOL0     H55903   0.375   7.239   8.734 -1.4568 -0.6584  1.3929
  424MOL0     H55904   0.127   7.210   8.762  1.4788 -0.6707 -0.5506
  424MOL0     H55905  -0.156   7.181   8.685 -0.4373  2.3231  1.2861
  424MOL0     H55906  -0.024   7.128   8.568  1.5514  2.4344  0.5396
  424MOL0     H55907  -0.165   7.225   8.385  1.4348  0.7145  0.3699
  424MOL0     H55908  -0.282   7.277   8.502 -1.2322  0.4495 -2.9167
  424MOL0     H55909  -0.323   7.034   8.576  0.5090  0.9520 -0.0070
  424MOL0     H55910  -0.214   6.998   8.442 -0.2370  0.6302 -1.2943
  424MOL0     H55911  -0.478   7.153   8.421 -2.4199 -0.6487 -2.8987
  424MOL0     H55912  -0.374   7.117   8.290  0.8500 -0.1225  0.9755
  424MOL0     H55913  -0.520   6.907   8.463 -1.0961 -0.2076 -0.5654
  424MOL0     H55914  -0.392   6.871   8.350  0.9046 -0.0487  2.4289
  424MOL0     H55915  -0.557   6.992   8.171 -0.2151 -0.3058 -0.2613
  424MOL0     H55916  -0.679   6.999   8.296 -0.4625 -0.1712 -2.9929
  424MOL0     H55917  -0.723   6.814   8.168  0.4356 -1.0409 -2.2683
  424MOL0     H55918  -0.557   6.747   8.181 -1.2704 -0.6110  0.0079
  424MOL0     H55919  -0.593   6.709   8.424  1.6458  2.7900 -1.0711
  424MOL0     H55920  -0.685   6.608   8.321 -1.8771  0.9416 -0.3143
  424MOL0     H55921  -0.732   6.912   8.553  0.7158 -0.0852  0.1532
  424MOL0     H55922  -0.945   7.011   8.709  1.1696 -1.1191  1.1701
  424MOL0     H55923  -1.051   6.869   8.737 -2.0915 -1.1756 -1.9479
  424MOL0     H55924  -1.112   7.074   8.516 -1.3026  0.8646  0.2771
  424MOL0     H55925  -1.158   7.109   8.680 -0.2623  2.1390 -2.2063
  424MOL0     H55926  -1.276   6.897   8.514 -0.7724  2.3739 -0.9602
  424MOL0     H55927  -1.266   6.884   8.698 -1.9774  2.6664  2.1071
  424MOL0     H55928  -1.483   6.971   8.621  1.8665 -0.7841 -1.5182
  424MOL0     H55929  -1.411   7.083   8.514  1.1347 -0.3552 -1.5957
  424MOL0     H55930  -1.597   7.020   8.843  0.2007 -0.7454 -1.0176
  424MOL0     H55931  -1.822   7.138   8.899 -0.1978  0.7554 -0.0173
  424MOL0     H55932  -2.140   7.541   8.981 -0.0714  0.4910  0.8312
  424MOL0     H55933  -2.386   7.534   9.005  0.5570  0.4850  0.5912
  424MOL0     H55934  -2.489   7.205   9.160  0.2955  2.9457 -0.0119
  424MOL0     H55935  -2.547   7.116   9.021  0.8846 -0.1571  1.0104
  424MOL0     H55936  -2.754   7.282   9.008  1.2864  3.9567 -0.1142
  424MOL0     H55937  -2.713   7.333   9.172  0.6059  1.9163 -3.2756
  424MOL0     H55938  -2.753   7.101   9.242  1.1627  1.0602  0.3512
  424MOL0     H55939  -2.748   7.046   9.077 -0.3554  0.2763  0.9802
  424MOL0     H55940  -2.971   7.163   9.033 -1.1312  1.6858  0.2217
  424MOL0     H55941  -2.970   7.032   9.148  0.2835 -0.1059 -2.1101
  424MOL0     H55942  -2.976   7.326   9.200  1.7245 -0.2401  0.6458
  424MOL0     H55943  -2.965   7.204   9.327  1.0195 -1.0512 -1.6289
  424MOL0     H55944  -3.184   7.207   9.129 -0.9908 -0.0519  0.4681
  424MOL0     H55945  -3.195   7.276   9.292 -0.1130  0.8042 -0.9525
  424MOL0     H55946  -3.142   6.981   9.248 -0.2305 -0.7592  0.7577
  424MOL0     H55947  -3.146   7.065   9.396  0.4923 -2.4877 -0.4197
  424MOL0     H55948  -3.361   6.956   9.360 -0.2155  0.1248  0.1918
  424MOL0     H55949  -3.377   7.009   9.198  1.0074 -0.9300  0.4206
  424MOL0     H55950  -2.390   7.124   8.869  2.1919 -1.3991  1.2291
  424MOL0     H55951  -2.155   7.127   8.833 -3.0332  0.1262 -2.7281
  424MOL0     H55952  -1.689   7.485   8.690  0.0717 -0.2343 -0.7031
  424MOL0     H55953  -1.459   7.368   8.669  1.1920 -0.5759  0.8531
  424MOL0     H55954   0.086   7.500   8.446  1.3925 -2.3442 -3.7511
  424MOL0     H55955   0.331   7.537   8.439 -1.7864 -0.5731 -2.4300
  424MOL0     H55956   0.788   7.491   8.331 -0.7639 -3.1565 -0.4318
  424MOL0     H55957   1.044   7.452   8.357 -0.2120  2.5844  0.3532
  424MOL0     H55958   1.189   7.300   8.764 -0.1615  3.2722  4.3107
  424MOL0     H55959   1.157   7.465   8.735 -1.9292  0.0115 -2.9703
  424MOL0     H55960   1.378   7.463   8.797 -1.0397 -1.7670  1.1172
  424MOL0     H55961   1.426   7.326   8.685  0.0506 -0.1918 -0.2023
  424MOL0     H55962   1.346   7.606   8.613 -0.0797  1.1757 -2.5938
  424MOL0     H55963   1.357   7.471   8.488 -1.1529 -2.2579  0.7124
  424MOL0     H55964   1.551   7.618   8.483 -1.7448 -1.9418 -1.2822
  424MOL0     H55965   1.577   7.600   8.644 -0.4124 -0.9097  0.6077
  424MOL0     H55966   1.756   7.242   8.499 -0.0780  0.7716 -0.3628
  424MOL0     H55967   0.976   7.309   8.748  0.4906 -1.1500 -1.2837
  424MOL0     H55968   0.748   7.351   8.738  2.2806 -0.2732  1.4386
  425MOL0     O55969   3.714   1.134   8.097 -0.8391  0.3777  0.2081
  425MOL0     C55970   3.786   1.199   8.168  0.0234  0.1573  0.2064
  425MOL0     O55971   3.805   1.183   8.302 -0.3492  0.5050  0.2021
  425MOL0     C55972   3.739   1.076   8.355 -0.3876  0.2410  0.2024
  425MOL0     C55973   3.823   1.006   8.445 -0.1331 -0.4435  0.8711
  425MOL0     C55974   3.778   0.889   8.500 -0.1703 -0.8053  0.3146
  425MOL0     C55975   3.647   0.847   8.475  0.0862 -0.1553  0.6065
  425MOL0     O55976   3.587   0.737   8.532  1.1804 -0.1649 -0.1732
  425MOL0     C55977   3.668   0.617   8.560  0.8170 -0.4217  1.1304
  425MOL0     C55978   3.685   0.581   8.706  1.1961 -0.0302  0.6005
  425MOL0     C55979   3.762   0.688   8.790 -1.2529 -0.1517  0.3994
  425MOL0     C55980   3.750   0.667   8.930  0.6048 -0.2081 -0.6937
  425MOL0     C55981   3.837   0.765   9.016 -0.6277 -0.0921 -0.0204
  425MOL0     C55982   3.830   0.722   9.164 -0.0751 -0.1368  0.3804
  425MOL0     C55983   3.689   0.730   9.224  0.1305 -0.1015  0.3101
  425MOL0     C55984   3.696   0.699   9.384 -0.0705 -0.2385 -0.4004
  425MOL0     N55985   3.560   0.731   9.440  0.2167 -0.1130 -0.3063
  425MOL0     C55986   3.456   0.642   9.451  0.5427  0.5783  0.0673
  425MOL0     C55987   3.356   0.700   9.505  0.6658 -0.2401  0.0169
  425MOL0     C55988   3.226   0.631   9.525  0.5324 -0.1903 -0.1962
  425MOL0     C55989   3.101   0.725   9.480  0.4586 -0.0942 -0.1637
  425MOL0     C55990   2.976   0.653   9.534 -0.4623  0.6612  1.1742
  425MOL0     C55991   2.855   0.736   9.545 -0.3049  0.6278  0.0852
  425MOL0     O55992   2.738   0.651   9.571 -0.5550 -0.4371 -0.0674
  425MOL0     C55993   2.632   0.729   9.622  0.6674  1.1010  0.7273
  425MOL0     C55994   2.566   0.691   9.738  0.3857  0.7056  0.5073
  425MOL0     C55995   2.438   0.738   9.774  0.1499  0.4999  0.7382
  425MOL0     C55996   2.374   0.835   9.695 -0.5359  0.5002 -0.3522
  425MOL0     C55997   2.243   0.882   9.726  0.6633  0.3628 -0.5782
  425MOL0     O55998   2.176   0.964   9.638  0.1794  0.3563 -0.3330
  425MOL0     C55999   2.047   0.998   9.677 -0.6187  0.0348 -0.2127
  425MOL0     C56000   2.025   1.109   9.752  0.0653 -0.5412 -0.4042
  425MOL0     C56001   1.896   1.143   9.788 -0.8480 -0.3384 -0.2392
  425MOL0     C56002   1.782   1.069   9.744 -0.2738 -0.0976  0.5490
  425MOL0     O56003   1.644   1.093   9.762 -0.4725 -0.4127 -0.0709
  425MOL0     C56004   1.618   1.219   9.830 -0.0893  0.3229 -0.2552
  425MOL0     C56005   1.469   1.239   9.836  0.2760  0.2575  0.7765
  425MOL0     C56006   1.408   1.328   9.720 -0.1713  0.5009 -0.4455
  425MOL0     C56007   1.259   1.333   9.729  0.4995 -0.0602  0.2423
  425MOL0     C56008   1.204   1.397   9.605  0.0957 -0.7004  0.7577
  425MOL0     C56009   1.054   1.408   9.602 -0.3441  0.3963  0.4111
  425MOL0     C56010   1.014   1.464   9.468  0.3246  0.3974  0.3332
  425MOL0     C56011   0.855   1.459   9.447 -0.3084 -0.0419 -0.3612
  425MOL0    Cl56012   0.784   1.300   9.441 -0.2008 -0.0365  0.3220
  425MOL0     C56013   1.808   0.960   9.657 -0.3363 -0.0567  0.2897
  425MOL0     C56014   1.941   0.926   9.634  0.4537 -0.4311 -0.1883
  425MOL0     O56015   2.200   0.836   9.837  0.0486  0.2313 -0.2118
  425MOL0     C56016   2.438   0.874   9.576 -0.6275 -0.2033 -0.5196
  425MOL0     C56017   2.569   0.829   9.542 -1.0683 -0.4928  0.1636
  425MOL0     N56018   3.388   0.835   9.516  0.0123 -0.6023  0.3965
  425MOL0     N56019   3.513   0.852   9.479 -0.1153 -0.4501 -0.7834
  425MOL0     C56020   3.560   0.919   8.400  0.3133 -0.3885  0.5182
  425MOL0     C56021   3.611   1.026   8.335  0.2075 -0.2568 -0.1664
  425MOL0     C56022   3.864   1.311   8.110 -0.1126  0.5057  0.5337
  425MOL0     C56023   3.846   1.348   7.977  0.0876  0.0946  0.3207
  425MOL0     C56024   3.904   1.464   7.932  0.0946  1.0108 -0.3585
  425MOL0     C56025   4.002   1.545   7.996 -0.1202 -0.1216  0.2074
  425MOL0     O56026   4.047   1.661   7.933  0.0229 -0.0965 -0.8794
  425MOL0     C56027   4.143   1.735   8.012  0.1895  0.7174 -0.0311
  425MOL0     C56028   4.184   1.872   7.941  0.0618 -0.2537  0.2167
  425MOL0     C56029   4.287   1.837   7.833  0.1185 -0.0525  0.2288
  425MOL0     C56030   4.321   1.942   7.735 -0.1968 -0.4749  0.9193
  425MOL0     C56031   4.381   2.064   7.795  0.4083 -0.0591 -0.4815
  425MOL0     C56032   4.421   2.156   7.861 -0.2569 -0.2875 -0.3279
  425MOL0     C56033   4.023   1.510   8.131 -0.0981  0.3874 -0.2307
  425MOL0     C56034   3.952   1.396   8.181 -0.7378  0.2761 -0.6484
  425MOL0     H56035   3.927   1.031   8.466  0.8310 -4.4907  1.8355
  425MOL0     H56036   3.848   0.833   8.561  1.2260 -1.7054 -1.9710
  425MOL0     H56037   3.772   0.633   8.530  0.8109 -0.1324  1.2658
  425MOL0     H56038   3.634   0.528   8.505  2.2911  0.3786 -1.2726
  425MOL0     H56039   3.737   0.485   8.710 -0.1501 -0.8276 -0.0409
  425MOL0     H56040   3.582   0.582   8.744  1.2901 -0.2346  0.8621
  425MOL0     H56041   3.712   0.784   8.776 -2.1073 -0.5003  0.9409
  425MOL0     H56042   3.866   0.688   8.756 -1.0594  2.3483  0.8045
  425MOL0     H56043   3.645   0.682   8.956  0.8352 -2.0042  1.5186
  425MOL0     H56044   3.780   0.564   8.951  2.4863  0.1657 -1.3670
  425MOL0     H56045   3.785   0.860   9.004 -2.8788 -1.4221 -1.5085
  425MOL0     H56046   3.936   0.777   8.970 -0.8843  0.8013 -0.3612
  425MOL0     H56047   3.901   0.786   9.217  2.4140 -1.8243 -0.7213
  425MOL0     H56048   3.875   0.623   9.178  0.5065  0.4359  3.1514
  425MOL0     H56049   3.622   0.809   9.188 -0.9089 -2.3271 -3.2022
  425MOL0     H56050   3.641   0.639   9.185  1.0006  0.1514 -1.4466
  425MOL0     H56051   3.771   0.760   9.434  1.0126 -1.2359 -0.7544
  425MOL0     H56052   3.725   0.596   9.406 -0.9211 -0.4428 -0.1861
  425MOL0     H56053   3.459   0.536   9.430 -2.4004  0.5887 -0.8848
  425MOL0     H56054   3.217   0.595   9.628 -3.0540  1.7930  0.3444
  425MOL0     H56055   3.214   0.535   9.473 -0.8507  0.1214 -0.4907
  425MOL0     H56056   3.098   0.720   9.371  1.0255  2.8516 -0.3969
  425MOL0     H56057   3.116   0.829   9.510 -0.2441 -0.6012  2.1099
  425MOL0     H56058   2.952   0.571   9.466  2.2002 -3.0086  4.1915
  425MOL0     H56059   3.005   0.605   9.628  1.3243 -1.2655 -0.2820
  425MOL0     H56060   2.842   0.777   9.445 -1.2462 -0.5665 -0.3070
  425MOL0     H56061   2.862   0.826   9.607 -4.2765  0.2984  1.2922
  425MOL0     H56062   2.605   0.610   9.798  1.4460  0.9762  0.2066
  425MOL0     H56063   2.398   0.698   9.867  0.1516  0.5814  0.7741
  425MOL0     H56064   2.112   1.168   9.781  0.4023 -1.6188  0.8794
  425MOL0     H56065   1.871   1.222   9.858 -4.1300 -0.7728 -0.7321
  425MOL0     H56066   1.660   1.309   9.784  1.1954 -0.1501 -0.0454
  425MOL0     H56067   1.659   1.208   9.931 -0.6419  0.9292  0.0426
  425MOL0     H56068   1.435   1.290   9.927  1.6662  0.0677  1.4303
  425MOL0     H56069   1.426   1.138   9.833  1.9165 -0.4363 -0.8736
  425MOL0     H56070   1.442   1.283   9.627 -0.7857  2.0621 -1.4590
  425MOL0     H56071   1.463   1.422   9.722  0.1663  0.3202  1.6460
  425MOL0     H56072   1.213   1.238   9.756 -1.1755  0.7765  0.4886
  425MOL0     H56073   1.240   1.394   9.818 -0.9780 -0.9678  0.5746
  425MOL0     H56074   1.248   1.349   9.516  0.5362  0.1293  0.5108
  425MOL0     H56075   1.241   1.500   9.601 -3.0194  0.4940 -0.1772
  425MOL0     H56076   1.020   1.471   9.685  0.1052  2.5818 -0.9980
  425MOL0     H56077   1.013   1.307   9.613  1.1332 -0.1365  1.4040
  425MOL0     H56078   1.047   1.568   9.463  1.9315 -0.1520 -2.4643
  425MOL0     H56079   1.062   1.408   9.387 -0.4284 -0.9868  0.8101
  425MOL0     H56080   0.838   1.518   9.357 -0.2642  1.5046  0.6106
  425MOL0     H56081   0.803   1.504   9.533 -1.9101 -1.2235 -0.6498
  425MOL0     H56082   1.729   0.903   9.609  2.1668 -0.5729 -3.7098
  425MOL0     H56083   1.966   0.842   9.570  1.1882  1.8813 -3.1230
  425MOL0     H56084   2.390   0.952   9.518  0.8060  0.8612 -0.3352
  425MOL0     H56085   2.621   0.869   9.455  0.5644 -0.6983  0.9933
  425MOL0     H56086   3.459   0.884   8.378  1.2713 -2.7521 -0.4844
  425MOL0     H56087   3.539   1.089   8.286  1.6541  0.8641 -0.9238
  425MOL0     H56088   3.783   1.283   7.917  0.0768 -0.3438  0.7999
  425MOL0     H56089   3.893   1.489   7.827  1.3264 -3.1724 -1.6992
  425MOL0     H56090   4.241   1.689   8.031  0.9828  0.8688 -3.2214
  425MOL0     H56091   4.088   1.759   8.103 -0.6734 -1.2971  0.0436
  425MOL0     H56092   4.108   1.923   7.882  1.6630  2.3871  0.2928
  425MOL0     H56093   4.220   1.949   8.010 -0.3290 -0.9061  1.1800
  425MOL0     H56094   4.252   1.749   7.779 -0.6529  0.5562 -0.2843
  425MOL0     H56095   4.377   1.800   7.884 -0.6949 -1.1209  0.9158
  425MOL0     H56096   4.397   1.918   7.659  1.3934  1.0648  1.9402
  425MOL0     H56097   4.227   1.969   7.685 -0.7018 -3.4918  0.0261
  425MOL0     H56098   4.459   2.248   7.901 -3.5524  0.7093  0.8964
  425MOL0     H56099   4.087   1.573   8.192 -1.7415  0.1042  1.9279
  425MOL0     H56100   3.961   1.383   8.289 -2.5309  2.2856 -0.1865
  426MOL0     O56101  10.998   4.551   4.710  0.4681 -0.5224  0.7160
  426MOL0     C56102  11.056   4.650   4.678  0.5569  0.3018  0.7090
  426MOL0     O56103  10.988   4.767   4.642 -0.2479  0.7430  0.1030
  426MOL0     C56104  10.849   4.760   4.624  0.6530  0.3239 -0.1169
  426MOL0     C56105  10.755   4.719   4.718  0.6660  0.3531  0.4695
  426MOL0     C56106  10.618   4.726   4.698 -0.1645  0.8987 -0.3784
  426MOL0     C56107  10.567   4.766   4.575 -0.5382  0.0180  0.6264
  426MOL0     O56108  10.436   4.763   4.524  0.0587  0.6609  0.3613
  426MOL0     C56109  10.352   4.672   4.600 -0.2629 -0.6134 -0.1257
  426MOL0     C56110  10.207   4.676   4.552 -0.1375  0.0618 -0.5895
  426MOL0     C56111  10.093   4.615   4.649  0.0132 -0.3499  0.1652
  426MOL0     C56112   9.965   4.611   4.567 -0.6275 -0.5084  0.7125
  426MOL0     C56113   9.843   4.600   4.652  0.0452 -0.5711 -0.4326
  426MOL0     C56114   9.724   4.567   4.563  0.2158 -0.3706 -0.6092
  426MOL0     C56115   9.597   4.532   4.648  0.0485 -0.3509 -0.4893
  426MOL0     C56116   9.483   4.476   4.560 -0.6394 -0.3847 -0.2239
  426MOL0     N56117   9.361   4.467   4.649  0.0077  0.1255 -0.0767
  426MOL0     C56118   9.314   4.354   4.710  0.7121 -0.1930 -0.2021
  426MOL0     C56119   9.217   4.406   4.794  0.9436 -0.0361 -0.4357
  426MOL0     C56120   9.123   4.324   4.871 -0.1493 -0.4159 -0.7693
  426MOL0     C56121   8.984   4.347   4.826 -0.6417  0.5311  0.7086
  426MOL0     C56122   8.878   4.298   4.930  0.8615  0.3118 -0.0261
  426MOL0     C56123   8.737   4.368   4.903  0.0874 -0.0021 -0.1956
  426MOL0     O56124   8.641   4.347   5.007  0.2444  0.4756 -0.1250
  426MOL0     C56125   8.525   4.413   5.000  0.1583 -0.3620  0.5868
  426MOL0     C56126   8.433   4.397   5.099  0.5324  0.3805 -0.1388
  426MOL0     C56127   8.301   4.436   5.080 -0.3410  0.3180  0.6361
  426MOL0     C56128   8.249   4.491   4.963  0.4287  0.0654  0.4136
  426MOL0     C56129   8.107   4.524   4.946 -0.0323 -0.6903  0.2569
  426MOL0     O56130   8.032   4.490   5.049  0.1683 -0.6341 -0.3635
  426MOL0     C56131   7.899   4.521   5.054  0.3930 -0.2312 -0.2601
  426MOL0     C56132   7.846   4.645   5.100  0.3740  0.3127  0.2387
  426MOL0     C56133   7.704   4.666   5.113  0.3592 -0.2083  0.3997
  426MOL0     C56134   7.618   4.560   5.081  0.5072 -0.4991  0.1214
  426MOL0     O56135   7.484   4.553   5.111  0.4489  0.0448 -0.3956
  426MOL0     C56136   7.418   4.678   5.140  0.1632  0.1735  0.0445
  426MOL0     C56137   7.265   4.652   5.124  0.5414 -0.3323  0.5909
  426MOL0     C56138   7.183   4.747   5.207 -0.5610  0.1412  0.7222
  426MOL0     C56139   7.039   4.736   5.160  0.3326  0.3375 -0.5324
  426MOL0     C56140   6.954   4.840   5.240  0.0361 -0.0415 -0.1259
  426MOL0     C56141   6.811   4.817   5.187 -0.0990 -0.6270 -0.0056
  426MOL0     C56142   6.724   4.936   5.218 -0.3273  0.5189 -0.4963
  426MOL0     C56143   6.572   4.901   5.225 -0.5089 -0.6362  0.4582
  426MOL0    Cl56144   6.535   4.791   5.359  0.3490 -0.0426  0.1910
  426MOL0     C56145   7.668   4.447   5.022  0.1779  0.2094  0.1588
  426MOL0     C56146   7.806   4.426   5.012  0.4184 -0.1670  0.3847
  426MOL0     O56147   8.066   4.586   4.848 -0.1154 -0.3836  0.3784
  426MOL0     C56148   8.352   4.528   4.867 -0.5759  0.2325  0.0645
  426MOL0     C56149   8.485   4.486   4.884  0.2627 -0.2398  0.2873
  426MOL0     N56150   9.200   4.540   4.777 -0.0531 -0.4642 -0.1337
  426MOL0     N56151   9.295   4.577   4.699  0.2831 -0.0367 -0.2571
  426MOL0     C56152  10.658   4.812   4.478 -0.0594  0.3336 -0.2092
  426MOL0     C56153  10.794   4.807   4.502 -0.0059 -0.0085 -0.2717
  426MOL0     C56154  11.195   4.660   4.695  0.0058 -0.0182 -0.8237
  426MOL0     C56155  11.255   4.768   4.650  0.1881  0.2817 -0.6007
  426MOL0     C56156  11.396   4.788   4.666  1.0652  0.3089 -0.1886
  426MOL0     C56157  11.471   4.693   4.725  0.9344  0.0870 -0.1808
  426MOL0     O56158  11.608   4.685   4.716 -0.9717 -0.5129  0.3654
  426MOL0     C56159  11.688   4.757   4.612  0.8521  0.5895 -0.1055
  426MOL0     C56160  11.755   4.883   4.664 -0.3206  1.1928 -0.3976
  426MOL0     C56161  11.830   4.952   4.554  0.2301  0.3550  0.7118
  426MOL0     C56162  11.979   4.908   4.550 -0.6229  0.3751  0.3103
  426MOL0     C56163  12.059   4.960   4.665  0.8069  0.3029  0.0877
  426MOL0     C56164  12.126   5.012   4.743 -0.0742  0.8238  0.3120
  426MOL0     C56165  11.406   4.580   4.769 -0.2238  0.5307 -0.3015
  426MOL0     C56166  11.265   4.559   4.759 -0.4128  0.3026  0.0091
  426MOL0     H56167  10.791   4.688   4.816 -2.2157 -0.3661  1.3945
  426MOL0     H56168  10.546   4.694   4.772 -1.5732  2.1984 -1.1395
  426MOL0     H56169  10.355   4.711   4.702  1.4792 -0.6985 -0.1161
  426MOL0     H56170  10.394   4.572   4.614 -0.4433 -0.5884  0.6860
  426MOL0     H56171  10.194   4.624   4.456  0.7377 -0.2196 -0.5655
  426MOL0     H56172  10.175   4.779   4.533  1.8583  0.4196 -2.3973
  426MOL0     H56173  10.074   4.677   4.737  0.1164  0.7883 -0.5906
  426MOL0     H56174  10.118   4.512   4.675  0.1950 -0.9673 -2.2091
  426MOL0     H56175   9.961   4.686   4.488  1.6158  1.3750  2.2607
  426MOL0     H56176   9.973   4.515   4.515  0.0756  1.0288 -2.2017
  426MOL0     H56177   9.827   4.694   4.706 -1.1689 -1.9800  1.7902
  426MOL0     H56178   9.839   4.519   4.725 -5.3615 -0.4336 -0.1424
  426MOL0     H56179   9.742   4.484   4.494 -0.3042  1.2133 -2.7653
  426MOL0     H56180   9.699   4.658   4.507  2.2516 -0.2213 -1.3660
  426MOL0     H56181   9.627   4.464   4.728  1.6411  0.8765  0.0080
  426MOL0     H56182   9.562   4.631   4.677 -1.4937  0.1831 -3.7486
  426MOL0     H56183   9.499   4.376   4.519  0.3874 -0.7573  1.0456
  426MOL0     H56184   9.471   4.549   4.479  1.8057  2.7965  2.0240
  426MOL0     H56185   9.345   4.251   4.694 -0.8705 -0.8215  0.5797
  426MOL0     H56186   9.134   4.350   4.977  0.4870 -0.8761 -0.7146
  426MOL0     H56187   9.143   4.217   4.859 -1.8717 -0.7490 -0.8656
  426MOL0     H56188   8.964   4.286   4.737  1.6083  1.7038 -0.6915
  426MOL0     H56189   8.970   4.450   4.793 -1.6076 -0.6608 -3.1928
  426MOL0     H56190   8.853   4.191   4.929 -1.0272  0.7203 -1.4687
  426MOL0     H56191   8.913   4.325   5.030  3.3428 -2.2687 -0.0728
  426MOL0     H56192   8.698   4.326   4.810  1.8959 -0.1933 -0.9110
  426MOL0     H56193   8.767   4.472   4.886  0.2967 -0.1691 -0.8901
  426MOL0     H56194   8.455   4.355   5.196 -0.1934  0.0450 -0.1148
  426MOL0     H56195   8.239   4.405   5.163  0.0312  4.3697  2.6335
  426MOL0     H56196   7.924   4.713   5.135  1.6350 -1.9151  2.0432
  426MOL0     H56197   7.671   4.766   5.140  2.2746  0.8760 -1.0069
  426MOL0     H56198   7.452   4.757   5.072  2.7467 -1.9395 -1.3222
  426MOL0     H56199   7.440   4.707   5.243  4.2487  0.8520 -0.8408
  426MOL0     H56200   7.247   4.546   5.147  5.3293 -1.5627 -0.1872
  426MOL0     H56201   7.243   4.649   5.017 -1.1250 -2.7877  0.9264
  426MOL0     H56202   7.223   4.849   5.198  1.6372 -0.6991  0.4689
  426MOL0     H56203   7.187   4.715   5.311  0.6662 -1.0011  0.3429
  426MOL0     H56204   7.048   4.777   5.059  2.3468  3.1948  0.6506
  426MOL0     H56205   7.011   4.631   5.172  2.0733 -0.2739 -1.4868
  426MOL0     H56206   6.983   4.943   5.215 -1.0199  0.0078 -1.2218
  426MOL0     H56207   6.957   4.799   5.341  0.4215 -1.8031 -0.8253
  426MOL0     H56208   6.762   4.731   5.231 -1.4725  0.0710 -0.1076
  426MOL0     H56209   6.822   4.809   5.078 -1.6869 -1.7846 -0.1043
  426MOL0     H56210   6.755   4.958   5.321 -0.0452 -2.2309  0.0786
  426MOL0     H56211   6.747   5.025   5.159 -0.5871  1.3874  0.6684
  426MOL0     H56212   6.544   4.852   5.131  0.5741 -3.1407  1.3350
  426MOL0     H56213   6.513   4.992   5.240  0.2564 -0.3463  1.9122
  426MOL0     H56214   7.594   4.369   5.002  1.1895 -1.2858  1.9144
  426MOL0     H56215   7.848   4.331   4.979 -2.1640 -1.3734  0.2947
  426MOL0     H56216   8.321   4.578   4.776 -2.0501 -0.3482  0.2144
  426MOL0     H56217   8.549   4.487   4.796  2.2869 -0.5714  1.6722
  426MOL0     H56218  10.621   4.864   4.391 -1.1255  5.5323  2.9066
  426MOL0     H56219  10.859   4.851   4.428 -0.3447  1.1020  0.0662
  426MOL0     H56220  11.206   4.845   4.590  0.5734  0.2993 -0.8955
  426MOL0     H56221  11.446   4.874   4.622  1.9457 -0.1337 -0.0762
  426MOL0     H56222  11.624   4.778   4.527  1.2630 -1.0214 -0.8586
  426MOL0     H56223  11.769   4.694   4.572  1.1054 -0.4357  1.8770
  426MOL0     H56224  11.685   4.953   4.711  0.3990  1.1840  0.7217
  426MOL0     H56225  11.823   4.860   4.746 -0.1486  1.1903 -0.5401
  426MOL0     H56226  11.827   5.060   4.569 -0.7329  0.5456 -0.6302
  426MOL0     H56227  11.778   4.933   4.459 -1.0389  1.3094  1.1888
  426MOL0     H56228  11.988   4.800   4.558 -0.0340  0.3943 -0.0018
  426MOL0     H56229  12.033   4.943   4.461 -1.2948 -0.6745 -0.5336
  426MOL0     H56230  12.177   5.070   4.817  1.8956 -0.9835  0.4711
  426MOL0     H56231  11.457   4.499   4.818 -0.4764  1.0509  0.8585
  426MOL0     H56232  11.218   4.467   4.794 -0.7301  0.2099 -0.6409
  427MOL0     O56233   7.505   5.574   3.059 -1.1803  0.9323 -0.4886
  427MOL0     C56234   7.431   5.532   3.149 -0.8751 -0.3376  0.1266
  427MOL0     O56235   7.461   5.482   3.276  0.0415 -0.2806  0.1592
  427MOL0     C56236   7.591   5.462   3.313 -0.6168 -0.2544  0.0566
  427MOL0     C56237   7.695   5.422   3.223 -0.7652 -0.0204  1.5948
  427MOL0     C56238   7.824   5.391   3.273 -0.1615  0.5940 -0.6531
  427MOL0     C56239   7.844   5.368   3.408 -0.4231  0.4209  0.1707
  427MOL0     O56240   7.963   5.330   3.460  0.2162  0.0416 -0.8289
  427MOL0     C56241   8.081   5.390   3.406  0.1611 -0.4268 -0.3238
  427MOL0     C56242   8.192   5.382   3.515 -0.4566  0.1801  0.0540
  427MOL0     C56243   8.195   5.501   3.611  0.2005  0.2307  0.2619
  427MOL0     C56244   8.067   5.549   3.686  0.1263 -0.1499  0.0366
  427MOL0     C56245   8.106   5.647   3.788 -0.2119 -1.3324 -0.6961
  427MOL0     C56246   7.983   5.687   3.873 -0.6227 -0.2027 -0.1839
  427MOL0     C56247   8.026   5.795   3.975 -0.2648  0.1952 -0.3714
  427MOL0     C56248   7.987   5.931   3.946 -0.0640 -1.1521 -0.0653
  427MOL0     N56249   7.846   5.953   3.953  0.3268  0.8354  0.4222
  427MOL0     C56250   7.759   5.986   3.846 -0.3339  0.3768 -0.4620
  427MOL0     C56251   7.645   6.022   3.902  0.0345 -0.4171  0.0857
  427MOL0     C56252   7.523   6.068   3.830  0.1921 -0.1654 -0.0765
  427MOL0     C56253   7.397   6.000   3.883 -0.1393  0.4893  0.3391
  427MOL0     C56254   7.284   6.013   3.777  0.6922  0.4167 -0.4083
  427MOL0     C56255   7.170   5.920   3.805 -0.2181  0.2652 -0.9333
  427MOL0     O56256   7.119   5.945   3.939  0.1934 -0.5330  0.0436
  427MOL0     C56257   6.987   5.917   3.951  0.5226 -0.2938 -0.1896
  427MOL0     C56258   6.915   5.984   4.038  0.2052 -0.2771 -0.6148
  427MOL0     C56259   6.780   5.961   4.057  0.5021 -0.2999  0.1919
  427MOL0     C56260   6.709   5.876   3.971 -0.3772  0.6073  0.4356
  427MOL0     C56261   6.564   5.849   3.991  0.8328 -0.1235  0.7238
  427MOL0     O56262   6.495   5.762   3.911  0.0434 -0.5341 -0.5821
  427MOL0     C56263   6.359   5.734   3.922 -0.9288 -0.2957  0.1197
  427MOL0     C56264   6.291   5.728   3.799 -0.1856 -0.2424  0.4076
  427MOL0     C56265   6.154   5.699   3.794  0.0716  0.1436 -0.0818
  427MOL0     C56266   6.083   5.693   3.910 -0.1584  0.1217  0.2760
  427MOL0     O56267   5.944   5.683   3.905 -0.3523  1.0061  0.3067
  427MOL0     C56268   5.891   5.628   3.784  0.4424 -0.4364 -0.0256
  427MOL0     C56269   5.739   5.626   3.791  0.3590  0.5918  0.6282
  427MOL0     C56270   5.673   5.486   3.833  0.4085  0.2595 -0.5558
  427MOL0     C56271   5.518   5.507   3.861 -0.0147  0.2786 -0.0560
  427MOL0     C56272   5.450   5.374   3.895 -0.1188  0.3973 -0.7794
  427MOL0     C56273   5.391   5.364   4.040  0.7081  0.7573  0.4240
  427MOL0     C56274   5.503   5.358   4.150 -0.5852  0.1173  1.1971
  427MOL0     C56275   5.469   5.396   4.285 -0.5180  0.2158 -0.4164
  427MOL0    Cl56276   5.618   5.383   4.390  0.0150 -0.4417 -0.2833
  427MOL0     C56277   6.145   5.689   4.033 -0.5386 -0.0606 -0.3991
  427MOL0     C56278   6.285   5.722   4.040  0.3165 -0.5699 -0.1081
  427MOL0     O56279   6.512   5.911   4.080 -0.1283  0.3602 -0.1772
  427MOL0     C56280   6.776   5.806   3.869 -0.2317  0.3821 -0.1316
  427MOL0     C56281   6.914   5.825   3.868  0.1038  0.0257  0.1396
  427MOL0     N56282   7.659   6.014   4.037  0.5303  0.2429 -1.0476
  427MOL0     N56283   7.776   5.962   4.068  0.3919 -0.8194 -0.5552
  427MOL0     C56284   7.744   5.409   3.498  0.0910  0.5712  0.8146
  427MOL0     C56285   7.623   5.457   3.441  0.0290 -0.1565  0.4135
  427MOL0     C56286   7.293   5.555   3.110 -0.3183  0.2477 -0.0786
  427MOL0     C56287   7.253   5.600   2.979 -0.1369  0.2244  0.8034
  427MOL0     C56288   7.110   5.623   2.957 -0.2812  0.1161 -0.2475
  427MOL0     C56289   7.017   5.600   3.065  0.1988 -0.0621 -0.4698
  427MOL0     O56290   6.878   5.613   3.058  0.2107  0.2925  0.5889
  427MOL0     C56291   6.817   5.625   2.927  0.1825  0.0248  0.1596
  427MOL0     C56292   6.669   5.583   2.931  0.7891 -0.7094 -0.1079
  427MOL0     C56293   6.593   5.566   2.798 -0.2204 -0.5493 -0.6184
  427MOL0     C56294   6.544   5.702   2.751 -0.0002 -0.7911 -1.1734
  427MOL0     C56295   6.431   5.747   2.843  0.8446 -0.0446  0.6303
  427MOL0     C56296   6.347   5.789   2.926  0.1586  0.9631 -0.4743
  427MOL0     C56297   7.060   5.547   3.185  0.8345  0.1870  0.1718
  427MOL0     C56298   7.195   5.522   3.206  0.1344  0.2679 -0.3790
  427MOL0     H56299   7.691   5.427   3.115 -0.4206 -0.2857  1.5718
  427MOL0     H56300   7.904   5.376   3.200  0.2030  4.1031 -1.1413
  427MOL0     H56301   8.078   5.497   3.384 -1.0691 -0.7695 -2.0197
  427MOL0     H56302   8.113   5.332   3.318 -0.7588  1.9300 -2.3233
  427MOL0     H56303   8.285   5.365   3.460 -0.3771 -0.3575  0.3415
  427MOL0     H56304   8.169   5.288   3.567 -4.4967 -0.8896 -3.1690
  427MOL0     H56305   8.227   5.586   3.549 -0.4583 -0.3769 -0.9567
  427MOL0     H56306   8.269   5.485   3.690  0.3461  1.3002  0.3660
  427MOL0     H56307   7.998   5.590   3.612 -3.4119 -0.1127  3.0159
  427MOL0     H56308   8.020   5.467   3.740 -0.4596 -0.3861 -0.8197
  427MOL0     H56309   8.151   5.738   3.747 -2.9354  0.7887  0.6871
  427MOL0     H56310   8.181   5.605   3.855  1.6327  0.0159 -1.8198
  427MOL0     H56311   7.946   5.594   3.918  0.1272 -1.6591 -2.3996
  427MOL0     H56312   7.896   5.719   3.815 -0.9664 -1.4284 -0.3802
  427MOL0     H56313   7.982   5.770   4.073  0.3395 -1.7182 -0.5529
  427MOL0     H56314   8.135   5.799   3.983  0.0045 -4.1281  0.6562
  427MOL0     H56315   8.012   5.972   3.847 -0.1942 -0.6668  0.1053
  427MOL0     H56316   8.035   5.995   4.020 -1.6299 -1.2901  1.1040
  427MOL0     H56317   7.775   5.983   3.738  1.6281 -1.7591 -0.1814
  427MOL0     H56318   7.541   6.043   3.725  0.1240 -0.8002  0.0574
  427MOL0     H56319   7.509   6.176   3.836 -1.4859 -0.3784  0.6712
  427MOL0     H56320   7.368   6.041   3.980 -0.4420  0.4503  0.2661
  427MOL0     H56321   7.421   5.895   3.902  0.6305  1.1022  3.2546
  427MOL0     H56322   7.250   6.117   3.779  1.6489  0.7363  0.8144
  427MOL0     H56323   7.327   5.992   3.679 -0.8749 -1.2240 -0.8050
  427MOL0     H56324   7.202   5.816   3.811 -0.1070  0.3686  0.9474
  427MOL0     H56325   7.102   5.927   3.720  2.8317  2.8488 -3.4218
  427MOL0     H56326   6.962   6.060   4.100 -1.5003  0.3331  0.0154
  427MOL0     H56327   6.731   6.026   4.128  0.3782 -0.8336  0.6020
  427MOL0     H56328   6.354   5.724   3.710 -1.0933 -1.9730 -0.2009
  427MOL0     H56329   6.122   5.685   3.691  3.8204 -4.9498 -0.9128
  427MOL0     H56330   5.931   5.529   3.760  2.6305  0.0549  1.3228
  427MOL0     H56331   5.924   5.698   3.706  3.2901 -0.5236  1.0050
  427MOL0     H56332   5.704   5.653   3.690 -0.1321  2.1707  1.1880
  427MOL0     H56333   5.697   5.704   3.855 -1.4250  0.6953 -0.5795
  427MOL0     H56334   5.734   5.454   3.919 -0.3549  0.1519 -0.0489
  427MOL0     H56335   5.685   5.416   3.750  0.4529 -1.3474  0.7413
  427MOL0     H56336   5.499   5.574   3.946 -1.0787  1.1531 -0.9567
  427MOL0     H56337   5.464   5.552   3.778  0.3064  3.1341  1.1503
  427MOL0     H56338   5.519   5.289   3.886  0.0216  0.6829 -2.8833
  427MOL0     H56339   5.365   5.359   3.828 -1.4469  1.4168  0.6012
  427MOL0     H56340   5.324   5.280   4.059 -0.6411  1.7238  0.0877
  427MOL0     H56341   5.324   5.448   4.060 -1.5648 -1.6418  4.1636
  427MOL0     H56342   5.543   5.257   4.143 -1.7504 -0.2888 -0.2070
  427MOL0     H56343   5.588   5.422   4.126 -1.2785  0.9569  0.9212
  427MOL0     H56344   5.389   5.336   4.329  0.1976 -1.3181 -1.1162
  427MOL0     H56345   5.431   5.498   4.275  1.3442  1.0780  0.7363
  427MOL0     H56346   6.089   5.676   4.125  1.2788 -2.2520  0.4857
  427MOL0     H56347   6.328   5.729   4.140  1.2143  3.1776 -0.6044
  427MOL0     H56348   6.725   5.742   3.798 -3.3397 -0.1668  2.3507
  427MOL0     H56349   6.961   5.761   3.794 -0.4663  0.9220 -1.0428
  427MOL0     H56350   7.752   5.396   3.605 -3.2316 -1.7310  0.9253
  427MOL0     H56351   7.542   5.484   3.507 -0.2088  2.3081 -0.7990
  427MOL0     H56352   7.322   5.629   2.902 -0.4130  0.5540  0.6777
  427MOL0     H56353   7.075   5.657   2.860  0.3243  0.8293 -0.2240
  427MOL0     H56354   6.872   5.548   2.873 -0.2981 -0.9873  1.0758
  427MOL0     H56355   6.834   5.726   2.887  1.8090  0.0195  0.7891
  427MOL0     H56356   6.663   5.489   2.986 -0.0740 -0.6652 -0.1176
  427MOL0     H56357   6.616   5.657   2.992  0.7789 -1.4205  0.7636
  427MOL0     H56358   6.506   5.500   2.796 -1.4854  1.0282  0.2444
  427MOL0     H56359   6.665   5.525   2.725  0.2493 -2.8267  0.9943
  427MOL0     H56360   6.628   5.769   2.773 -0.2300 -0.9610  0.3459
  427MOL0     H56361   6.523   5.700   2.644 -1.5311 -2.4492 -0.8867
  427MOL0     H56362   6.282   5.819   3.005  0.5327 -0.7568  0.5198
  427MOL0     H56363   6.990   5.537   3.266  0.9855  0.2337  0.3084
  427MOL0     H56364   7.206   5.488   3.309 -1.0244  0.6719 -0.1090
  428MOL0     O56365   7.809   8.554   1.675  0.2092 -0.5402  0.3774
  428MOL0     C56366   7.824   8.440   1.714 -0.5501 -0.0664  0.5965
  428MOL0     O56367   7.723   8.365   1.780  0.0636  0.3155  0.0158
  428MOL0     C56368   7.596   8.421   1.792 -0.3991  0.0432  0.2427
  428MOL0     C56369   7.531   8.464   1.680 -0.5882 -0.2240 -0.2641
  428MOL0     C56370   7.401   8.513   1.680  0.3249  0.2869  0.5586
  428MOL0     C56371   7.329   8.513   1.799  0.5673  0.5698  0.3328
  428MOL0     O56372   7.200   8.569   1.818 -0.3581 -0.7965  0.4265
  428MOL0     C56373   7.140   8.644   1.710  0.2780  0.6598 -0.5584
  428MOL0     C56374   7.004   8.699   1.743  0.8553 -0.0930 -0.1366
  428MOL0     C56375   6.954   8.787   1.635 -0.6440 -1.0214  0.3878
  428MOL0     C56376   6.825   8.846   1.682  0.9517 -0.0729 -0.0116
  428MOL0     C56377   6.744   8.901   1.569 -0.2532  0.2733 -0.1834
  428MOL0     C56378   6.637   8.996   1.612  0.5103  0.0859 -0.4568
  428MOL0     C56379   6.546   9.059   1.507 -0.0165 -0.0469 -0.5875
  428MOL0     C56380   6.463   8.966   1.428 -0.0983  0.8305 -0.0274
  428MOL0     N56381   6.365   9.033   1.351  0.0346 -0.6499 -0.1547
  428MOL0     C56382   6.384   9.120   1.245  0.0374 -0.1053 -0.3336
  428MOL0     C56383   6.265   9.140   1.190  0.5842 -0.2860  0.3833
  428MOL0     C56384   6.232   9.230   1.077 -0.5257  0.0282  0.1659
  428MOL0     C56385   6.100   9.189   1.003 -0.5807  1.0959  0.3787
  428MOL0     C56386   6.030   9.298   0.921 -0.7228  0.3700  0.2773
  428MOL0     C56387   5.888   9.257   0.879  0.0156 -0.6959  0.1227
  428MOL0     O56388   5.855   9.327   0.761  0.1934 -0.8978 -0.4489
  428MOL0     C56389   5.723   9.319   0.715 -0.1703  0.6542  0.0376
  428MOL0     C56390   5.703   9.396   0.598 -0.9185  0.0827 -0.2036
  428MOL0     C56391   5.586   9.383   0.526 -0.6888 -0.0936 -0.4128
  428MOL0     C56392   5.476   9.307   0.584  0.3797 -0.3440 -0.2711
  428MOL0     C56393   5.341   9.317   0.523 -0.2303 -0.1991 -0.6996
  428MOL0     O56394   5.238   9.238   0.568  0.3142  0.7987 -0.6193
  428MOL0     C56395   5.124   9.244   0.485  1.1419  0.4073 -0.2604
  428MOL0     C56396   5.113   9.152   0.381 -0.4404 -0.1275  0.6851
  428MOL0     C56397   5.003   9.158   0.297  0.6915  0.3189 -0.6054
  428MOL0     C56398   4.902   9.257   0.322 -0.5983 -0.3654 -0.4883
  428MOL0     O56399   4.790   9.258   0.254 -0.7451 -0.3662 -0.1511
  428MOL0     C56400   4.726   9.138   0.214 -0.7821 -0.5300  0.0742
  428MOL0     C56401   4.587   9.177   0.174 -0.5763  0.1477  0.1818
  428MOL0     C56402   4.504   9.051   0.135 -0.3046 -0.4184 -0.3540
  428MOL0     C56403   4.355   9.096   0.106  0.2071  0.5471  0.2677
  428MOL0     C56404   4.260   8.967   0.083  0.6018  0.4412 -0.0632
  428MOL0     C56405   4.121   9.013   0.034 -0.6003  0.6066 -0.6315
  428MOL0     C56406   4.034   8.883   0.027 -0.4451 -0.5913 -0.6654
  428MOL0     C56407   3.891   8.918   0.003  0.3947  0.5826  0.5321
  428MOL0    Cl56408   3.886   8.993  -0.163 -0.4904  0.0204  0.5410
  428MOL0     C56409   4.917   9.352   0.425  0.1797  0.7150 -0.4687
  428MOL0     C56410   5.029   9.333   0.510 -0.4901 -1.2255  0.8059
  428MOL0     O56411   5.334   9.406   0.436 -0.0506 -0.3837 -0.4507
  428MOL0     C56412   5.506   9.229   0.694  0.1276 -0.8691  0.0898
  428MOL0     C56413   5.631   9.230   0.761 -0.2077  0.2992  0.7646
  428MOL0     N56414   6.173   9.073   1.272 -0.1480 -0.4835  0.7933
  428MOL0     N56415   6.229   9.022   1.376 -0.1150  0.1756  0.0589
  428MOL0     C56416   7.384   8.471   1.918 -0.4694  0.0187  0.3835
  428MOL0     C56417   7.518   8.421   1.913  0.5481 -0.2516  0.3567
  428MOL0     C56418   7.964   8.382   1.712 -0.0199 -0.7361  0.1408
  428MOL0     C56419   8.069   8.465   1.662 -0.8173 -0.4635 -0.4720
  428MOL0     C56420   8.196   8.417   1.664  0.4889 -0.0454 -0.4155
  428MOL0     C56421   8.233   8.288   1.715  0.2317 -1.0805  0.5018
  428MOL0     O56422   8.365   8.271   1.717 -0.1743 -0.2289 -0.4535
  428MOL0     C56423   8.430   8.152   1.772  0.0169 -0.1151  0.0798
  428MOL0     C56424   8.434   8.024   1.695  0.4291  0.2909  0.2870
  428MOL0     C56425   8.514   8.047   1.564 -0.2279  0.2583 -0.1745
  428MOL0     C56426   8.663   8.024   1.596 -0.1014  0.2878 -0.4769
  428MOL0     C56427   8.743   8.004   1.475  0.5223  0.0622 -0.2504
  428MOL0     C56428   8.818   7.997   1.381 -0.5007  0.3795 -0.5641
  428MOL0     C56429   8.125   8.202   1.756 -0.8325  0.6161  0.4138
  428MOL0     C56430   7.992   8.252   1.758 -0.3744  0.4495 -0.0902
  428MOL0     H56431   7.580   8.467   1.584 -0.3423  0.7716 -0.1246
  428MOL0     H56432   7.370   8.560   1.587 -0.2223 -1.5327 -0.2091
  428MOL0     H56433   7.120   8.575   1.628 -1.1976  0.8344 -0.3591
  428MOL0     H56434   7.201   8.725   1.668 -1.5289  2.8993  0.9403
  428MOL0     H56435   7.002   8.744   1.843  0.8149  0.0469 -0.2005
  428MOL0     H56436   6.940   8.612   1.757 -0.5305  1.2641  3.2305
  428MOL0     H56437   6.938   8.737   1.539 -2.7854 -3.6329  1.9589
  428MOL0     H56438   7.026   8.869   1.625 -1.7052  0.0352  0.9931
  428MOL0     H56439   6.767   8.774   1.741 -1.3819  0.2021 -1.8231
  428MOL0     H56440   6.841   8.927   1.754 -1.0601 -1.6969  2.4752
  428MOL0     H56441   6.700   8.815   1.518 -2.6843  1.2898  0.0578
  428MOL0     H56442   6.811   8.947   1.496  2.8813 -3.4234  0.0528
  428MOL0     H56443   6.676   9.082   1.667  0.1862 -0.1755  0.1960
  428MOL0     H56444   6.573   8.947   1.686  1.1437 -0.9285 -0.5715
  428MOL0     H56445   6.478   9.118   1.569 -0.5691  0.3559 -1.5748
  428MOL0     H56446   6.605   9.117   1.436  0.0287 -0.0159 -0.5252
  428MOL0     H56447   6.413   8.884   1.481  1.3464 -0.6359 -0.8344
  428MOL0     H56448   6.539   8.919   1.365 -0.6264 -1.6693  1.0925
  428MOL0     H56449   6.476   9.158   1.201 -0.9774  0.0782 -2.4374
  428MOL0     H56450   6.313   9.233   1.003 -1.2363 -0.3672 -0.6412
  428MOL0     H56451   6.208   9.331   1.112 -1.4978 -0.1993  0.1900
  428MOL0     H56452   6.021   9.147   1.067 -0.8025  0.2203 -0.4492
  428MOL0     H56453   6.132   9.117   0.928 -1.3404  1.9308 -0.7798
  428MOL0     H56454   6.028   9.392   0.977 -0.1227  0.5313  0.0364
  428MOL0     H56455   6.081   9.304   0.825 -1.4056  0.8608 -0.0592
  428MOL0     H56456   5.824   9.278   0.965  1.0274 -3.7629  1.7667
  428MOL0     H56457   5.898   9.150   0.861  1.4371 -0.1123 -3.4354
  428MOL0     H56458   5.783   9.466   0.577  0.5357 -0.6033  2.6325
  428MOL0     H56459   5.565   9.450   0.444  0.0048  4.1821  2.5336
  428MOL0     H56460   5.201   9.089   0.368  0.6839  1.3085  1.0896
  428MOL0     H56461   4.984   9.087   0.216 -0.6859 -0.0890  0.0474
  428MOL0     H56462   4.718   9.063   0.294 -0.1011  0.5710  1.2068
  428MOL0     H56463   4.774   9.089   0.129 -1.4350 -3.2623  1.1553
  428MOL0     H56464   4.579   9.255   0.097 -1.1053  0.7975  0.8876
  428MOL0     H56465   4.543   9.226   0.261 -0.0852  0.0791  0.4712
  428MOL0     H56466   4.499   8.974   0.213  0.7350  0.1594  0.2993
  428MOL0     H56467   4.539   9.010   0.040 -2.7790  0.4898 -1.7610
  428MOL0     H56468   4.323   9.148   0.197  0.8267  2.4179 -0.5313
  428MOL0     H56469   4.346   9.161   0.018  0.7299  2.2142  1.4024
  428MOL0     H56470   4.246   8.911   0.176 -0.9842 -0.4257 -0.7715
  428MOL0     H56471   4.293   8.898   0.004 -2.0073  0.2216 -1.0630
  428MOL0     H56472   4.118   9.064  -0.063  1.1389 -0.3509 -1.2429
  428MOL0     H56473   4.078   9.085   0.103  1.2468  1.0883  0.0850
  428MOL0     H56474   4.073   8.818  -0.053  0.8774 -0.9056  0.1965
  428MOL0     H56475   4.053   8.814   0.110  3.8620  0.4979 -0.5265
  428MOL0     H56476   3.877   8.994   0.081 -0.2149  1.5705 -0.5109
  428MOL0     H56477   3.827   8.832   0.024  2.2738 -0.5589  1.9671
  428MOL0     H56478   4.847   9.434   0.430  0.0411  0.8655 -3.2174
  428MOL0     H56479   5.053   9.415   0.576 -0.2025  1.7349 -2.6643
  428MOL0     H56480   5.426   9.169   0.736 -1.1882  1.2521  0.7556
  428MOL0     H56481   5.646   9.171   0.851  0.6288  0.9714  1.0739
  428MOL0     H56482   7.328   8.485   2.010  1.9353 -0.8370  2.0680
  428MOL0     H56483   7.557   8.379   2.006  2.6890  0.8079  0.0038
  428MOL0     H56484   8.049   8.564   1.622 -1.8438 -0.7677 -0.7546
  428MOL0     H56485   8.270   8.486   1.623  0.2258  0.7502  0.4293
  428MOL0     H56486   8.383   8.134   1.869 -0.0506  0.8564  0.2304
  428MOL0     H56487   8.534   8.184   1.785  0.3239 -1.0722  0.1049
  428MOL0     H56488   8.470   7.941   1.756 -0.2711 -0.8722 -0.8047
  428MOL0     H56489   8.334   7.985   1.670  0.1692  1.1407 -0.0650
  428MOL0     H56490   8.503   8.148   1.522 -2.4180  1.0041  1.9450
  428MOL0     H56491   8.489   7.981   1.481 -0.9553  1.2641 -0.7723
  428MOL0     H56492   8.706   8.108   1.652  1.5212  1.7052 -3.5394
  428MOL0     H56493   8.669   7.939   1.664  2.0918  1.3492  0.7695
  428MOL0     H56494   8.888   7.991   1.300 -0.8176  0.1318 -0.8191
  428MOL0     H56495   8.157   8.100   1.773 -1.2004  0.1101 -1.6766
  428MOL0     H56496   7.917   8.177   1.780  1.3283 -1.1891  0.4041
  429MOL0     O56497   8.980   1.328   4.899 -0.1128 -0.3423  0.0116
  429MOL0     C56498   9.074   1.315   4.980  0.1778  0.2967 -0.5947
  429MOL0     O56499   9.060   1.269   5.111  0.0425 -0.2610 -0.0300
  429MOL0     C56500   8.956   1.196   5.166 -0.4598  0.2198 -0.2481
  429MOL0     C56501   8.954   1.181   5.301 -0.3902 -0.7157 -0.0475
  429MOL0     C56502   8.840   1.119   5.365 -0.5295  0.3943  0.0082
  429MOL0     C56503   8.729   1.076   5.293 -0.3086  0.4771 -0.0517
  429MOL0     O56504   8.620   1.024   5.360  0.1684 -0.7043  0.2160
  429MOL0     C56505   8.517   0.957   5.287  0.0506  0.0822 -0.2271
  429MOL0     C56506   8.453   0.861   5.383  0.3166  0.0362  0.6080
  429MOL0     C56507   8.297   0.887   5.366  1.0621 -0.1075 -0.6485
  429MOL0     C56508   8.223   0.811   5.478  0.3527 -0.3519  0.3107
  429MOL0     C56509   8.077   0.867   5.487  0.1145 -0.3206  0.2078
  429MOL0     C56510   8.001   0.788   5.590  0.1752  1.5370  0.6254
  429MOL0     C56511   7.852   0.820   5.577 -0.1333  0.3009  0.1638
  429MOL0     C56512   7.803   0.958   5.639  0.0702  0.2312  0.6377
  429MOL0     N56513   7.650   0.963   5.644 -0.7092  0.2415 -0.4253
  429MOL0     C56514   7.558   0.890   5.565  0.2094 -0.5836 -0.8684
  429MOL0     C56515   7.448   0.897   5.634  0.1884 -0.5583  0.5094
  429MOL0     C56516   7.317   0.828   5.612  0.6581 -0.1756  0.2975
  429MOL0     C56517   7.240   0.887   5.490 -0.1513  0.5876 -0.0123
  429MOL0     C56518   7.163   1.012   5.528 -0.3396  0.4336  0.7014
  429MOL0     C56519   7.098   1.076   5.403  0.4252  0.2680  0.3657
  429MOL0     O56520   7.016   0.985   5.336 -0.8371  0.4412  0.3660
  429MOL0     C56521   6.880   1.009   5.337 -0.3347 -0.0680  1.0914
  429MOL0     C56522   6.835   1.137   5.287  0.3397  0.1476  0.0200
  429MOL0     C56523   6.697   1.162   5.277  0.5172 -0.3085 -0.4212
  429MOL0     C56524   6.602   1.065   5.318 -0.3879 -0.0001 -0.7272
  429MOL0     C56525   6.457   1.089   5.316  0.3391 -0.1608  0.7081
  429MOL0     O56526   6.421   1.213   5.288 -0.0540  0.0766  0.1030
  429MOL0     C56527   6.286   1.235   5.268 -0.2931 -0.0251  0.0037
  429MOL0     C56528   6.182   1.220   5.362  0.6410 -0.3768  0.0932
  429MOL0     C56529   6.045   1.252   5.336  0.6681 -0.0353 -0.3223
  429MOL0     C56530   6.016   1.302   5.207 -0.0898  1.5420 -0.5783
  429MOL0     O56531   5.895   1.357   5.168 -0.2364  0.0014  0.4193
  429MOL0     C56532   5.815   1.430   5.264 -0.2408  0.4233 -0.2205
  429MOL0     C56533   5.698   1.508   5.190 -0.0145  0.4713  0.3227
  429MOL0     C56534   5.581   1.515   5.290  1.0019  0.3226 -0.0938
  429MOL0     C56535   5.450   1.548   5.218  0.6367 -0.6199 -0.6217
  429MOL0     C56536   5.346   1.573   5.316  0.0051  0.2374  0.1570
  429MOL0     C56537   5.204   1.618   5.256 -0.2975  0.3359  0.6325
  429MOL0     C56538   5.098   1.640   5.363  1.0315  0.3556 -1.6165
  429MOL0     C56539   4.955   1.664   5.310  0.0970  0.6411 -0.4456
  429MOL0    Cl56540   4.947   1.828   5.239  0.3275 -0.1332 -0.2082
  429MOL0     C56541   6.119   1.300   5.099  0.0079 -0.6959 -0.1875
  429MOL0     C56542   6.253   1.263   5.139  0.0562 -1.3837 -0.3280
  429MOL0     O56543   6.380   0.991   5.329 -0.6320 -0.1336  0.1497
  429MOL0     C56544   6.653   0.938   5.361 -0.5913 -0.2842  0.3133
  429MOL0     C56545   6.793   0.910   5.371  0.7833 -0.0352 -0.7586
  429MOL0     N56546   7.466   0.979   5.745 -0.7241  0.4501  0.1098
  429MOL0     N56547   7.588   1.015   5.751  0.3524 -0.3707 -0.6020
  429MOL0     C56548   8.736   1.080   5.155 -0.9051  0.3674  0.0891
  429MOL0     C56549   8.856   1.130   5.090  0.6960  0.4029 -0.4773
  429MOL0     C56550   9.212   1.350   4.936 -0.7578 -1.2385  0.2126
  429MOL0     C56551   9.233   1.417   4.817  0.0675  0.7519 -0.1433
  429MOL0     C56552   9.362   1.448   4.779 -0.0472 -0.3313  0.5382
  429MOL0     C56553   9.472   1.431   4.870 -0.4715 -0.2326 -0.5989
  429MOL0     O56554   9.602   1.470   4.859 -0.0283 -0.1468 -0.4901
  429MOL0     C56555   9.640   1.535   4.736 -0.2118  0.3420  0.1039
  429MOL0     C56556   9.784   1.557   4.742  0.0580  0.8942 -0.0431
  429MOL0     C56557   9.839   1.598   4.601 -0.0348 -0.3554  0.2411
  429MOL0     C56558   9.978   1.672   4.618  0.6043 -0.2164 -0.8275
  429MOL0     C56559  10.075   1.586   4.697 -0.6873  1.0155  0.0373
  429MOL0     C56560  10.167   1.530   4.750  0.3264 -0.2322  0.5188
  429MOL0     C56561   9.438   1.377   4.997 -0.1158 -0.3808 -0.0667
  429MOL0     C56562   9.315   1.348   5.030  0.0595  0.6720  0.7202
  429MOL0     H56563   9.032   1.226   5.362  0.9201 -0.2258 -2.0050
  429MOL0     H56564   8.839   1.115   5.474  0.6635  1.1305  0.0737
  429MOL0     H56565   8.560   0.896   5.208 -0.2167  1.9037 -1.8511
  429MOL0     H56566   8.446   1.027   5.243 -0.4260 -1.0709 -1.3157
  429MOL0     H56567   8.489   0.879   5.485 -1.3935  0.1697  1.2289
  429MOL0     H56568   8.483   0.761   5.350 -2.3069 -0.8219  0.5703
  429MOL0     H56569   8.265   0.841   5.273 -0.6872 -0.1121 -0.0825
  429MOL0     H56570   8.264   0.992   5.368  2.6295  0.4048  0.2996
  429MOL0     H56571   8.204   0.704   5.463 -4.0899 -0.1663  2.7904
  429MOL0     H56572   8.280   0.833   5.569  1.3960  1.1331 -0.6618
  429MOL0     H56573   8.045   0.848   5.384  4.8333 -4.4201 -0.9071
  429MOL0     H56574   8.078   0.976   5.497 -0.3311 -0.2467 -0.4438
  429MOL0     H56575   8.040   0.813   5.689  3.7194  0.7803 -0.4704
  429MOL0     H56576   8.022   0.682   5.571  3.1674  1.6498  2.6441
  429MOL0     H56577   7.825   0.798   5.474  0.0881  0.3412  0.0972
  429MOL0     H56578   7.794   0.745   5.632  1.0004 -1.9996 -1.5975
  429MOL0     H56579   7.843   1.038   5.576 -0.3269  0.6899  0.9567
  429MOL0     H56580   7.849   0.958   5.738  1.7778  0.7593 -0.1169
  429MOL0     H56581   7.576   0.827   5.478  0.0377 -0.8549 -0.7102
  429MOL0     H56582   7.262   0.843   5.705  1.6611 -0.0594  0.8841
  429MOL0     H56583   7.336   0.721   5.600  2.6767  0.2036 -0.3506
  429MOL0     H56584   7.164   0.814   5.459  0.9744 -0.2607 -0.8525
  429MOL0     H56585   7.305   0.913   5.406  1.7458  1.1914  1.5762
  429MOL0     H56586   7.076   0.988   5.590 -2.3174  3.0181 -0.8992
  429MOL0     H56587   7.225   1.093   5.567 -0.3902  0.3120  1.0361
  429MOL0     H56588   7.172   1.117   5.334  0.0260  0.4633  0.0497
  429MOL0     H56589   7.036   1.160   5.435 -0.8152 -0.7895  0.8236
  429MOL0     H56590   6.911   1.210   5.260  0.1976  0.7615  1.2311
  429MOL0     H56591   6.654   1.254   5.236 -0.8208 -0.0561  1.4270
  429MOL0     H56592   6.213   1.164   5.450  1.0148 -1.8680 -0.9449
  429MOL0     H56593   5.976   1.242   5.419 -0.4767  0.5568 -1.1928
  429MOL0     H56594   5.880   1.499   5.318 -1.7668  0.5291  1.5724
  429MOL0     H56595   5.770   1.358   5.333 -0.5387  1.8900  1.1785
  429MOL0     H56596   5.668   1.455   5.099 -2.0186 -0.1951  1.3071
  429MOL0     H56597   5.721   1.610   5.160  0.0520  0.9513  1.9040
  429MOL0     H56598   5.593   1.583   5.375  0.5936  0.8271 -0.4312
  429MOL0     H56599   5.569   1.418   5.339  0.6652  0.1429 -0.5231
  429MOL0     H56600   5.460   1.643   5.165 -0.5844 -1.1030 -1.7566
  429MOL0     H56601   5.421   1.471   5.145  1.2753 -1.4251 -0.0393
  429MOL0     H56602   5.372   1.635   5.402  0.0264 -3.1467  2.8028
  429MOL0     H56603   5.337   1.476   5.366 -2.8831  0.5005  0.3159
  429MOL0     H56604   5.175   1.534   5.193  0.8196 -0.4609  1.1537
  429MOL0     H56605   5.206   1.712   5.199 -1.0980  0.3423  0.6040
  429MOL0     H56606   5.097   1.555   5.431  4.6523  1.1064 -0.4029
  429MOL0     H56607   5.116   1.735   5.415  0.8476  1.2017 -3.0468
  429MOL0     H56608   4.884   1.646   5.392  0.9131  0.9463  0.3530
  429MOL0     H56609   4.932   1.588   5.235  1.2184 -1.5324  1.2765
  429MOL0     H56610   6.097   1.343   5.002  2.4552  1.6738  0.1761
  429MOL0     H56611   6.331   1.264   5.064  0.8252  1.3052  0.3828
  429MOL0     H56612   6.587   0.867   5.411 -2.8204  1.8901  0.6710
  429MOL0     H56613   6.827   0.815   5.412  2.2010  1.0478  0.6756
  429MOL0     H56614   8.657   1.042   5.091 -0.4591 -1.0445  0.3423
  429MOL0     H56615   8.846   1.122   4.982  3.2762 -0.3548 -0.7376
  429MOL0     H56616   9.145   1.438   4.758 -1.0083 -2.5988  0.0494
  429MOL0     H56617   9.381   1.502   4.688  0.9081 -0.7371  0.4916
  429MOL0     H56618   9.598   1.635   4.718 -0.0088  0.2068 -1.2239
  429MOL0     H56619   9.613   1.465   4.656  1.1632 -1.1781  0.9231
  429MOL0     H56620   9.808   1.643   4.804  0.7077  0.5325  0.2227
  429MOL0     H56621   9.831   1.463   4.773 -0.9187 -0.1124 -1.4622
  429MOL0     H56622   9.769   1.671   4.559  0.8702  1.1190  1.1981
  429MOL0     H56623   9.846   1.505   4.544 -0.6693 -1.0261  1.2276
  429MOL0     H56624  10.018   1.697   4.519 -0.3942 -0.9324 -1.4271
  429MOL0     H56625   9.963   1.763   4.677 -0.6343 -0.9205 -0.0090
  429MOL0     H56626  10.244   1.473   4.798  1.4186  0.4299 -0.4248
  429MOL0     H56627   9.525   1.363   5.060  0.9358  1.9998 -0.8864
  429MOL0     H56628   9.291   1.298   5.124 -2.3343 -0.4450 -0.3994
  430MOL0     O56629   3.333   0.935   6.301  0.1427 -0.2320  0.3275
  430MOL0     C56630   3.390   1.042   6.277  0.0665 -0.2213 -0.1904
  430MOL0     O56631   3.328   1.145   6.203 -0.9310  0.2670 -0.4684
  430MOL0     C56632   3.204   1.106   6.143  0.2666 -0.2958 -0.6132
  430MOL0     C56633   3.083   1.151   6.205  0.2978  0.3715 -0.0435
  430MOL0     C56634   2.962   1.115   6.151  0.1920 -0.8210 -0.6256
  430MOL0     C56635   2.960   1.057   6.031 -0.3126  0.9773 -0.7073
  430MOL0     O56636   2.838   1.045   5.983 -0.1413 -0.5674  0.5314
  430MOL0     C56637   2.826   1.033   5.839 -0.2430 -0.4067  0.4312
  430MOL0     C56638   2.685   1.068   5.794  0.3865  0.8053  0.0216
  430MOL0     C56639   2.576   0.979   5.851 -0.6965 -0.8734  0.2115
  430MOL0     C56640   2.445   1.033   5.790  0.6291  1.0011  0.0966
  430MOL0     C56641   2.337   0.921   5.837  0.5522 -0.2944 -0.2874
  430MOL0     C56642   2.204   0.939   5.770 -0.8604  0.4346  0.3734
  430MOL0     C56643   2.107   0.871   5.858  0.0113 -0.2294  0.0955
  430MOL0     C56644   1.967   0.858   5.812  0.3096  0.2152  0.4531
  430MOL0     N56645   1.892   0.977   5.864 -0.2250 -0.3143 -0.6233
  430MOL0     C56646   1.900   1.099   5.803  0.8926 -0.5267 -0.1103
  430MOL0     C56647   1.839   1.186   5.891  0.7677  0.4156 -0.0962
  430MOL0     C56648   1.829   1.331   5.853  1.2076 -0.2295 -0.3733
  430MOL0     C56649   1.698   1.407   5.904  0.0743 -0.5620  1.3189
  430MOL0     C56650   1.698   1.424   6.056  0.4136  0.7384 -0.4300
  430MOL0     C56651   1.582   1.511   6.102 -0.2674 -0.2358 -0.7635
  430MOL0     O56652   1.460   1.439   6.069 -0.3737  0.2035 -0.2097
  430MOL0     C56653   1.339   1.475   6.120  0.5942 -0.1304  0.0679
  430MOL0     C56654   1.225   1.404   6.074  0.0511  0.1576 -0.4484
  430MOL0     C56655   1.100   1.420   6.139  0.1831  0.6077 -0.2769
  430MOL0     C56656   1.090   1.528   6.227 -0.0372 -0.3832  0.1634
  430MOL0     C56657   0.958   1.566   6.272  0.2932 -0.3224 -0.4986
  430MOL0     O56658   0.959   1.675   6.358 -0.5500  0.3969 -0.0328
  430MOL0     C56659   0.843   1.709   6.422 -0.2501  0.4300  0.4629
  430MOL0     C56660   0.765   1.623   6.492  0.8763  0.4131  0.1107
  430MOL0     C56661   0.650   1.674   6.534  0.6979  0.0465 -0.5941
  430MOL0     C56662   0.603   1.808   6.525 -0.6085 -0.2511 -0.2573
  430MOL0     O56663   0.496   1.858   6.588 -0.3684 -0.4582 -0.3444
  430MOL0     C56664   0.372   1.812   6.519 -0.1636  0.0522  0.0667
  430MOL0     C56665   0.251   1.843   6.606 -0.1733  0.3629 -0.3338
  430MOL0     C56666   0.162   1.957   6.539 -0.4684  0.3148 -0.6373
  430MOL0     C56667   0.042   1.989   6.635  0.6553 -1.2432 -0.2962
  430MOL0     C56668  -0.035   2.118   6.597 -0.4099  0.2560  0.0181
  430MOL0     C56669  -0.170   2.112   6.520 -1.2342 -0.2789 -0.3802
  430MOL0     C56670  -0.280   2.047   6.604 -0.0636  0.3123 -0.7446
  430MOL0     C56671  -0.413   2.088   6.535 -0.1885  0.6044  0.0988
  430MOL0    Cl56672  -0.546   1.985   6.594  0.2103 -0.2079  0.3779
  430MOL0     C56673   0.692   1.891   6.460  0.1154  0.1798  0.0475
  430MOL0     C56674   0.811   1.849   6.410 -0.3944  0.5065 -1.2022
  430MOL0     O56675   0.854   1.511   6.238 -0.6839 -0.8726  0.0063
  430MOL0     C56676   1.197   1.613   6.264  0.5657 -0.3344 -1.0279
  430MOL0     C56677   1.318   1.582   6.208 -0.6624 -0.0617  0.7415
  430MOL0     N56678   1.790   1.118   5.996  0.7300  0.3835 -0.3389
  430MOL0     N56679   1.825   0.992   5.981  0.5521  0.2238  0.1297
  430MOL0     C56680   3.077   1.007   5.972 -0.3208  0.4559  0.4268
  430MOL0     C56681   3.203   1.036   6.024  0.1066  0.0520  0.4353
  430MOL0     C56682   3.526   1.060   6.333 -0.3378  0.1892  0.3530
  430MOL0     C56683   3.578   1.188   6.346 -0.1183  0.1964  0.2752
  430MOL0     C56684   3.701   1.207   6.411  0.1000  0.7728 -0.2189
  430MOL0     C56685   3.779   1.104   6.453  0.1777 -0.3389 -0.1470
  430MOL0     O56686   3.912   1.114   6.495  0.3881 -0.2495 -0.0043
  430MOL0     C56687   3.971   1.242   6.487 -0.0581  1.0666 -0.4085
  430MOL0     C56688   4.125   1.227   6.492 -0.3110 -0.6391 -0.2766
  430MOL0     C56689   4.179   1.223   6.349 -0.1934  0.0587 -0.2496
  430MOL0     C56690   4.221   1.365   6.308  0.0716  0.8087  0.2798
  430MOL0     C56691   4.282   1.377   6.177  0.1689  0.1320 -0.0737
  430MOL0     C56692   4.351   1.375   6.076  1.1110  0.4201 -0.4069
  430MOL0     C56693   3.728   0.975   6.423 -0.7183  0.2862 -0.4242
  430MOL0     C56694   3.598   0.945   6.367 -0.7522  0.1514  0.9909
  430MOL0     H56695   3.088   1.194   6.304  3.0298  1.1582 -0.4442
  430MOL0     H56696   2.867   1.149   6.190  0.0228 -1.7041 -0.2517
  430MOL0     H56697   2.870   0.939   5.804 -1.0364 -0.3908 -0.6541
  430MOL0     H56698   2.887   1.114   5.798  0.1244 -1.1143 -0.4630
  430MOL0     H56699   2.680   1.063   5.684  0.5792  1.5361 -0.0248
  430MOL0     H56700   2.658   1.172   5.815 -1.2056  0.5891 -0.8192
  430MOL0     H56701   2.577   0.992   5.959 -0.2574  2.9964 -0.1279
  430MOL0     H56702   2.591   0.872   5.830  1.0296 -1.0898  2.2129
  430MOL0     H56703   2.423   1.127   5.841  0.0573  0.5318  0.7414
  430MOL0     H56704   2.447   1.059   5.684 -0.8609 -0.2943 -0.2934
  430MOL0     H56705   2.328   0.941   5.944  1.7003  1.1574 -0.4309
  430MOL0     H56706   2.370   0.820   5.813 -0.2327 -0.6872  0.2799
  430MOL0     H56707   2.210   0.901   5.667  2.5355  0.9846  0.2460
  430MOL0     H56708   2.183   1.045   5.756 -0.5602  0.1351 -3.9756
  430MOL0     H56709   2.147   0.770   5.865 -0.6886 -0.4595  0.9741
  430MOL0     H56710   2.100   0.915   5.958 -3.1728  1.9746 -0.9368
  430MOL0     H56711   1.927   0.770   5.863  0.3042  0.4508  0.8617
  430MOL0     H56712   1.959   0.856   5.703 -1.1492 -0.3167  0.5537
  430MOL0     H56713   1.952   1.132   5.713 -1.7730  0.5646 -1.3578
  430MOL0     H56714   1.833   1.345   5.745  1.5567 -1.7056 -0.5782
  430MOL0     H56715   1.912   1.393   5.887  0.4506  0.1133  0.9400
  430MOL0     H56716   1.604   1.366   5.866  0.8789 -2.3980  1.1867
  430MOL0     H56717   1.698   1.510   5.869  4.0176 -1.2631 -1.4049
  430MOL0     H56718   1.697   1.327   6.106 -1.3929  1.4408  0.9931
  430MOL0     H56719   1.790   1.479   6.079 -0.2112  0.9954  1.6944
  430MOL0     H56720   1.575   1.609   6.053 -1.6029 -1.5291 -3.4294
  430MOL0     H56721   1.586   1.522   6.210 -0.7149 -1.6994 -0.5760
  430MOL0     H56722   1.238   1.324   6.002  3.1368  0.1288  0.0005
  430MOL0     H56723   1.022   1.353   6.102 -0.4402  1.3740 -0.3698
  430MOL0     H56724   0.788   1.518   6.512 -1.4884  0.0956  1.5412
  430MOL0     H56725   0.584   1.602   6.581  3.0421 -2.4944 -0.9123
  430MOL0     H56726   0.362   1.704   6.505 -2.6492  0.1045  0.9920
  430MOL0     H56727   0.358   1.855   6.419  0.5073  0.3915  0.1057
  430MOL0     H56728   0.282   1.874   6.706  0.6938  1.1423 -0.8219
  430MOL0     H56729   0.199   1.750   6.629  1.5673 -0.8122 -0.9013
  430MOL0     H56730   0.120   1.920   6.445  0.6499  2.0295 -1.8652
  430MOL0     H56731   0.226   2.039   6.505 -0.4428  0.5016 -0.1538
  430MOL0     H56732  -0.018   1.897   6.643  0.2110 -0.9388 -0.0665
  430MOL0     H56733   0.088   2.015   6.731 -2.4611 -0.5189  1.1432
  430MOL0     H56734   0.033   2.163   6.524 -1.9296  2.1430 -0.3406
  430MOL0     H56735  -0.043   2.181   6.687  3.4115  0.3731  0.4581
  430MOL0     H56736  -0.154   2.045   6.435 -0.8859  0.0232 -0.5579
  430MOL0     H56737  -0.184   2.215   6.485  0.5471  0.6498  1.4146
  430MOL0     H56738  -0.264   1.939   6.602  0.0894  0.3459 -1.7090
  430MOL0     H56739  -0.281   2.077   6.709  2.4041  1.3816 -0.9377
  430MOL0     H56740  -0.405   2.060   6.429 -2.2389 -1.1012  0.3372
  430MOL0     H56741  -0.432   2.195   6.551 -0.1800  0.1651  3.9693
  430MOL0     H56742   0.682   1.998   6.441 -0.1754 -0.2338 -2.4185
  430MOL0     H56743   0.880   1.922   6.369 -0.5777  0.4268 -1.6608
  430MOL0     H56744   1.189   1.697   6.331  4.2392 -0.9589  0.4483
  430MOL0     H56745   1.405   1.641   6.236 -0.4152 -0.0097 -0.1071
  430MOL0     H56746   3.064   0.951   5.879 -1.7841  1.9085 -0.2998
  430MOL0     H56747   3.293   0.997   5.979 -0.5938 -1.3041  0.1499
  430MOL0     H56748   3.525   1.275   6.310  0.8435  0.7874  0.2630
  430MOL0     H56749   3.733   1.310   6.422  2.6201  0.1460 -0.9474
  430MOL0     H56750   3.939   1.310   6.567  2.4421  0.7001  1.0063
  430MOL0     H56751   3.946   1.282   6.388 -0.4382  1.1330 -0.2894
  430MOL0     H56752   4.158   1.316   6.546 -0.9622  0.0662 -1.0093
  430MOL0     H56753   4.152   1.136   6.548  0.6525  0.6042  1.3777
  430MOL0     H56754   4.107   1.180   6.279  1.3217 -1.7796 -0.7681
  430MOL0     H56755   4.274   1.169   6.349  0.7588  1.6381 -1.2861
  430MOL0     H56756   4.128   1.422   6.307 -0.1532  0.4376 -0.2415
  430MOL0     H56757   4.294   1.401   6.381  0.9376  0.8535 -0.5890
  430MOL0     H56758   4.417   1.376   5.992 -0.0324  1.2492 -1.3545
  430MOL0     H56759   3.788   0.890   6.454  2.0620  1.9756 -0.8386
  430MOL0     H56760   3.569   0.841   6.363 -0.9929  0.2557 -0.7930
  431MOL0     O56761   4.006   5.620   7.897  0.0846  0.3051  0.4896
  431MOL0     C56762   4.093   5.590   7.813 -0.7698 -0.6155  0.4223
  431MOL0     O56763   4.081   5.624   7.677 -0.5664  0.2315 -0.3202
  431MOL0     C56764   3.957   5.650   7.623 -0.1891  0.6646 -0.4732
  431MOL0     C56765   3.936   5.779   7.584  0.7440  0.3140  0.2379
  431MOL0     C56766   3.797   5.817   7.544 -0.6420 -0.1325 -0.1707
  431MOL0     C56767   3.692   5.730   7.555  0.7454 -0.4140 -0.1418
  431MOL0     O56768   3.569   5.782   7.512 -0.2361  0.1142 -0.2458
  431MOL0     C56769   3.448   5.726   7.560  0.8208 -0.3676  0.1253
  431MOL0     C56770   3.340   5.744   7.449 -0.3003  0.3506 -0.8777
  431MOL0     C56771   3.218   5.663   7.500  0.1013  0.1683 -0.3614
  431MOL0     C56772   3.098   5.692   7.407 -0.0445 -0.0114 -0.3253
  431MOL0     C56773   2.969   5.654   7.482 -0.0795 -0.2648  0.5421
  431MOL0     C56774   2.848   5.675   7.389 -0.5510 -0.5583  0.2470
  431MOL0     C56775   2.729   5.611   7.458 -0.0716 -0.3306 -0.3412
  431MOL0     C56776   2.645   5.704   7.546  0.6639 -0.5955  0.2660
  431MOL0     N56777   2.524   5.639   7.606  0.0553 -0.3148  0.1635
  431MOL0     C56778   2.420   5.590   7.541 -0.3966  0.4577  0.5694
  431MOL0     C56779   2.346   5.527   7.631 -0.0362  0.4757  0.0494
  431MOL0     C56780   2.208   5.458   7.605  0.2624 -0.5477  0.9304
  431MOL0     C56781   2.084   5.555   7.591  0.3261  0.4908  0.2189
  431MOL0     C56782   1.950   5.490   7.637  0.3335 -0.3465  0.9920
  431MOL0     C56783   1.830   5.581   7.623 -0.1592  0.6048  0.3491
  431MOL0     O56784   1.712   5.509   7.662  0.5423 -0.5834  0.4761
  431MOL0     C56785   1.591   5.573   7.680 -0.6543  0.1000  0.2105
  431MOL0     C56786   1.475   5.499   7.677  0.7538 -0.2344 -0.8979
  431MOL0     C56787   1.347   5.566   7.690  0.8314  0.2547  0.0654
  431MOL0     C56788   1.345   5.702   7.701  0.3100  0.0670  1.2211
  431MOL0     C56789   1.203   5.765   7.702 -0.9555 -0.2395  0.2143
  431MOL0     O56790   1.096   5.690   7.727 -0.2225  0.1094 -0.1118
  431MOL0     C56791   0.971   5.740   7.746 -0.1665 -0.8518 -0.1646
  431MOL0     C56792   0.942   5.850   7.833  1.0572 -0.1213 -0.3550
  431MOL0     C56793   0.807   5.890   7.864  0.3744 -0.1604 -0.2430
  431MOL0     C56794   0.712   5.803   7.823  0.1567  0.2980 -0.3315
  431MOL0     O56795   0.582   5.837   7.862  0.2539  0.0793  0.1830
  431MOL0     C56796   0.478   5.798   7.768  0.2319 -0.1359 -0.8648
  431MOL0     C56797   0.335   5.850   7.820 -0.0893  0.2720  0.5220
  431MOL0     C56798   0.227   5.808   7.715 -0.0737  0.0377 -0.5048
  431MOL0     C56799   0.086   5.860   7.762 -1.0313  0.0544 -0.3677
  431MOL0     C56800  -0.021   5.843   7.648  0.4053 -0.3892 -0.2279
  431MOL0     C56801  -0.023   5.958   7.548 -0.5677 -0.3599 -0.4949
  431MOL0     C56802  -0.008   5.905   7.405  0.4383  0.1182 -0.3445
  431MOL0     C56803   0.004   6.022   7.313  0.1093  0.2131  0.2801
  431MOL0    Cl56804  -0.008   5.961   7.144 -0.0107  0.2460  0.6333
  431MOL0     C56805   0.743   5.692   7.749 -0.6388  0.3791 -0.2286
  431MOL0     C56806   0.868   5.659   7.702  0.3513  0.0733 -1.0910
  431MOL0     O56807   1.203   5.892   7.698 -0.3367 -0.2889  0.5363
  431MOL0     C56808   1.465   5.781   7.712  1.3218 -0.1933 -1.2130
  431MOL0     C56809   1.584   5.712   7.703  0.0094  0.3766 -0.6881
  431MOL0     N56810   2.400   5.546   7.757  0.1095 -0.6154 -0.5344
  431MOL0     N56811   2.510   5.621   7.740  0.1637  0.4873 -0.0310
  431MOL0     C56812   3.724   5.596   7.587 -0.9504 -0.3254 -1.0905
  431MOL0     C56813   3.853   5.547   7.627 -0.1248  0.0095 -0.0384
  431MOL0     C56814   4.222   5.534   7.856  0.3014  0.3502  1.7735
  431MOL0     C56815   4.329   5.502   7.761  0.1176  0.6948  0.2101
  431MOL0     C56816   4.453   5.471   7.795  0.0407  0.6205 -0.4995
  431MOL0     C56817   4.487   5.461   7.934  0.7411  0.6739 -0.4299
  431MOL0     O56818   4.603   5.414   7.979  0.2213  0.3341 -0.5693
  431MOL0     C56819   4.724   5.434   7.894 -0.6500  0.5143  0.8842
  431MOL0     C56820   4.833   5.390   7.990  0.4465 -0.2292 -0.5236
  431MOL0     C56821   4.980   5.414   7.948  0.3721  1.0617  0.2227
  431MOL0     C56822   5.076   5.369   8.053 -0.2538 -0.7290 -0.8571
  431MOL0     C56823   5.216   5.399   8.009 -1.3675 -0.1695  0.4143
  431MOL0     C56824   5.321   5.391   7.961 -0.4532  0.2944 -0.3744
  431MOL0     C56825   4.380   5.480   8.025 -0.1338  1.1245 -0.0663
  431MOL0     C56826   4.249   5.512   7.985 -0.3157  0.1982 -0.6961
  431MOL0     H56827   4.016   5.852   7.584 -0.3340  1.6072 -1.9738
  431MOL0     H56828   3.775   5.921   7.523  1.4670 -0.0109 -2.1012
  431MOL0     H56829   3.416   5.768   7.656 -1.1869 -1.2418 -0.1039
  431MOL0     H56830   3.455   5.618   7.580  1.1689 -0.3819 -0.0719
  431MOL0     H56831   3.383   5.707   7.355 -0.9101 -1.5312 -0.4632
  431MOL0     H56832   3.314   5.850   7.439  3.1265  1.1261 -3.4355
  431MOL0     H56833   3.188   5.683   7.603 -1.1687  0.8746 -0.8502
  431MOL0     H56834   3.236   5.558   7.477 -2.1294 -0.8046  1.9835
  431MOL0     H56835   3.097   5.799   7.383  1.6885 -0.2230 -1.4943
  431MOL0     H56836   3.107   5.644   7.309  0.1047  1.6166 -1.1497
  431MOL0     H56837   2.953   5.703   7.578  0.4467 -0.1470  0.5743
  431MOL0     H56838   2.965   5.546   7.501 -0.1238  0.0921  2.8146
  431MOL0     H56839   2.848   5.621   7.294 -4.1072  0.3611 -0.3950
  431MOL0     H56840   2.832   5.781   7.368 -1.1125 -1.2443 -3.4120
  431MOL0     H56841   2.665   5.576   7.377  0.6304  1.3381 -1.6739
  431MOL0     H56842   2.755   5.526   7.522  3.1919 -0.0416 -1.1164
  431MOL0     H56843   2.614   5.791   7.487  0.3521 -0.7720  0.1637
  431MOL0     H56844   2.709   5.748   7.623 -1.4108  1.2985  1.0246
  431MOL0     H56845   2.401   5.608   7.436 -1.0919  1.9418  0.9282
  431MOL0     H56846   2.191   5.389   7.688  0.9046 -2.5864 -0.5453
  431MOL0     H56847   2.212   5.395   7.516 -0.8385  2.3078 -1.3064
  431MOL0     H56848   2.081   5.574   7.484  2.0362  0.6208  0.1586
  431MOL0     H56849   2.106   5.647   7.646  0.3026  1.3574 -1.1711
  431MOL0     H56850   1.924   5.398   7.584 -3.1691 -1.8237  4.7717
  431MOL0     H56851   1.955   5.457   7.741 -0.7592  1.1511  1.5571
  431MOL0     H56852   1.822   5.613   7.518 -1.2342 -0.2381  0.1585
  431MOL0     H56853   1.852   5.668   7.685 -2.8581  0.7958  1.1569
  431MOL0     H56854   1.481   5.391   7.683  1.6781 -0.1231  0.9889
  431MOL0     H56855   1.263   5.502   7.715 -0.3763  2.2853  1.4881
  431MOL0     H56856   1.023   5.917   7.863 -1.2953  2.4188  0.8411
  431MOL0     H56857   0.776   5.972   7.928  1.6995 -1.0519  1.6523
  431MOL0     H56858   0.475   5.689   7.755  2.0959 -0.3703  0.2918
  431MOL0     H56859   0.506   5.838   7.670  1.5860  0.7091 -0.1717
  431MOL0     H56860   0.335   5.957   7.840 -1.8145  0.2320  0.8942
  431MOL0     H56861   0.305   5.804   7.915 -1.0605 -0.5685 -0.1608
  431MOL0     H56862   0.229   5.698   7.707 -0.2338  0.0602 -0.8750
  431MOL0     H56863   0.243   5.835   7.611 -0.1705 -0.4125 -0.6420
  431MOL0     H56864   0.056   5.794   7.843  1.4162 -0.3838  0.2725
  431MOL0     H56865   0.087   5.962   7.802 -1.4841 -0.4906  1.0991
  431MOL0     H56866  -0.121   5.831   7.690  0.1045  0.0812 -0.7903
  431MOL0     H56867   0.008   5.747   7.603  0.9901  0.4797 -1.7875
  431MOL0     H56868   0.066   6.013   7.580 -0.9082 -0.3170  0.3977
  431MOL0     H56869  -0.108   6.025   7.563  0.4168  1.2668 -1.6918
  431MOL0     H56870   0.078   5.838   7.401  0.4575  0.1855 -1.0505
  431MOL0     H56871  -0.098   5.850   7.376  0.8414 -1.4320  1.1986
  431MOL0     H56872   0.104   6.064   7.331  1.4524 -0.6982 -3.9436
  431MOL0     H56873  -0.072   6.099   7.325 -1.7385 -1.4594 -0.0994
  431MOL0     H56874   0.662   5.626   7.720 -1.3113  0.5574  1.1286
  431MOL0     H56875   0.884   5.567   7.646  0.2024  0.1049 -1.1860
  431MOL0     H56876   1.449   5.886   7.732 -1.9961 -1.1034  2.0835
  431MOL0     H56877   1.677   5.766   7.713  0.8006 -1.0540 -0.1393
  431MOL0     H56878   3.639   5.530   7.597 -1.3359  0.2028 -0.7805
  431MOL0     H56879   3.861   5.447   7.669 -2.6890 -1.0323 -1.7455
  431MOL0     H56880   4.318   5.495   7.654 -0.8277 -0.6147  0.3661
  431MOL0     H56881   4.521   5.435   7.719 -0.5606  1.0010 -1.2262
  431MOL0     H56882   4.742   5.538   7.864  3.1558 -0.5109 -1.0242
  431MOL0     H56883   4.717   5.371   7.805 -2.1693  0.7510  0.8064
  431MOL0     H56884   4.818   5.438   8.087 -1.3248 -2.1316  0.2170
  431MOL0     H56885   4.809   5.286   8.013  1.2349 -0.3156 -0.0564
  431MOL0     H56886   4.987   5.521   7.925 -0.6750  0.7171 -1.9368
  431MOL0     H56887   4.993   5.356   7.856 -1.4543  3.1703 -1.4870
  431MOL0     H56888   5.069   5.423   8.148  2.2464 -1.9745  0.1482
  431MOL0     H56889   5.067   5.262   8.074  0.2528 -0.6533 -0.2442
  431MOL0     H56890   5.424   5.379   7.934 -0.8354 -1.7526 -1.1474
  431MOL0     H56891   4.406   5.476   8.131 -1.5173  1.8249  0.3294
  431MOL0     H56892   4.184   5.531   8.070  0.1474 -1.0199 -0.0466
  432MOL0     O56893   2.765   8.081   9.316  0.1219 -0.1138 -0.3350
  432MOL0     C56894   2.853   8.152   9.364 -0.2217  0.2097  0.7396
  432MOL0     O56895   2.835   8.278   9.421  0.5612 -0.7449  0.0040
  432MOL0     C56896   2.710   8.326   9.460 -0.2560  0.6631 -0.8084
  432MOL0     C56897   2.607   8.241   9.494  0.0092  0.2179  0.2358
  432MOL0     C56898   2.485   8.286   9.548 -0.2864  0.4562  0.0918
  432MOL0     C56899   2.463   8.421   9.569 -0.5065  0.3974  0.7928
  432MOL0     O56900   2.353   8.474   9.635  1.0231 -0.0830  0.3323
  432MOL0     C56901   2.287   8.583   9.566 -0.6852  0.1264  0.4424
  432MOL0     C56902   2.161   8.529   9.495  0.1418 -0.4247  0.1416
  432MOL0     C56903   2.046   8.489   9.592  0.4507 -0.0606 -0.7600
  432MOL0     C56904   1.925   8.474   9.507 -0.0172 -0.2195  0.0108
  432MOL0     C56905   1.797   8.433   9.586  0.4110  0.4136  0.2241
  432MOL0     C56906   1.755   8.289   9.563 -0.2409  0.8114  0.6146
  432MOL0     C56907   1.624   8.257   9.638  0.2925  0.7773  0.3664
  432MOL0     C56908   1.555   8.140   9.571  0.1562  0.5291  0.4479
  432MOL0     N56909   1.629   8.017   9.573  0.7543  0.1706 -0.5224
  432MOL0     C56910   1.722   7.985   9.476  0.2370  0.5942 -0.4739
  432MOL0     C56911   1.790   7.896   9.539  0.0152 -0.1847 -1.1079
  432MOL0     C56912   1.908   7.833   9.477 -0.7950 -0.5574  0.0980
  432MOL0     C56913   2.010   7.930   9.429 -1.2277  0.0896 -0.3894
  432MOL0     C56914   2.085   7.990   9.558  0.0640 -0.3102  0.0252
  432MOL0     C56915   2.208   7.904   9.577 -0.3920 -0.0373  0.1077
  432MOL0     O56916   2.297   7.928   9.468  0.0525 -0.5010  0.1793
  432MOL0     C56917   2.418   7.865   9.458  0.2318  0.1078 -0.0461
  432MOL0     C56918   2.492   7.880   9.335 -0.2459 -0.6727  0.8054
  432MOL0     C56919   2.617   7.814   9.314 -0.0249  1.2484  0.4435
  432MOL0     C56920   2.673   7.731   9.412  0.6010 -0.4620 -0.3905
  432MOL0     C56921   2.794   7.660   9.386 -0.6686  1.3215  0.5688
  432MOL0     O56922   2.868   7.620   9.496  0.3238  0.0381 -0.4804
  432MOL0     C56923   2.979   7.551   9.469 -0.8131  0.2392 -0.1358
  432MOL0     C56924   2.981   7.422   9.419 -0.3179  0.3508  0.2236
  432MOL0     C56925   3.109   7.351   9.399 -0.5938  0.0759 -0.8048
  432MOL0     C56926   3.229   7.420   9.438 -0.1128 -1.2788 -0.7065
  432MOL0     O56927   3.348   7.364   9.418 -0.1239  0.1104  0.2325
  432MOL0     C56928   3.418   7.341   9.541  0.5202 -0.3388 -0.3177
  432MOL0     C56929   3.558   7.298   9.511 -0.4988 -0.2627 -0.0441
  432MOL0     C56930   3.654   7.262   9.634  0.1842 -0.2773  0.4478
  432MOL0     C56931   3.782   7.178   9.590 -0.2746 -0.3777  0.1570
  432MOL0     C56932   3.829   7.111   9.710 -0.2229 -0.0347  0.0128
  432MOL0     C56933   3.963   7.027   9.707 -0.0235 -1.1841 -0.1684
  432MOL0     C56934   4.080   7.092   9.633 -0.1014 -0.3162 -0.6636
  432MOL0     C56935   4.180   6.987   9.609  0.2064  0.2842  0.0437
  432MOL0    Cl56936   4.269   6.946   9.746  0.1349  0.2126 -0.2976
  432MOL0     C56937   3.219   7.547   9.494  0.3555 -0.5823 -0.2768
  432MOL0     C56938   3.098   7.612   9.502  0.6315 -0.3872  0.2538
  432MOL0     O56939   2.830   7.639   9.268 -0.1369  0.0470 -0.1241
  432MOL0     C56940   2.599   7.722   9.537 -0.1541  0.1089 -1.0153
  432MOL0     C56941   2.475   7.781   9.555  0.0401 -0.1581 -0.1205
  432MOL0     N56942   1.731   7.867   9.665  0.0562  0.0651 -0.0275
  432MOL0     N56943   1.624   7.932   9.677 -0.0046 -0.2679 -0.9233
  432MOL0     C56944   2.570   8.508   9.527  0.5710  0.3082 -0.5063
  432MOL0     C56945   2.693   8.460   9.481 -1.0088  1.2685  0.1700
  432MOL0     C56946   2.994   8.095   9.344  0.1798 -0.6327  0.1761
  432MOL0     C56947   3.098   8.168   9.388 -0.2682 -0.4139 -0.4151
  432MOL0     C56948   3.233   8.139   9.360 -0.6463  0.6893  0.2142
  432MOL0     C56949   3.265   8.010   9.302  0.8046 -0.2567  0.0313
  432MOL0     O56950   3.397   7.985   9.292  0.4916  0.4374 -0.1466
  432MOL0     C56951   3.437   7.880   9.201  0.2746  0.7254 -0.1500
  432MOL0     C56952   3.588   7.885   9.186 -0.0729 -0.9948  0.0563
  432MOL0     C56953   3.675   7.876   9.313  0.7042  0.1358  0.6994
  432MOL0     C56954   3.626   7.762   9.408 -0.5354 -0.1909 -0.2731
  432MOL0     C56955   3.709   7.745   9.532  0.5204 -0.5405  0.0522
  432MOL0     C56956   3.791   7.724   9.617 -0.5045 -0.5416 -1.0759
  432MOL0     C56957   3.158   7.924   9.267  0.1200 -0.5130  0.0936
  432MOL0     C56958   3.024   7.972   9.278  0.1411  0.1239 -0.8137
  432MOL0     H56959   2.614   8.134   9.483 -0.2217  0.1721  0.5139
  432MOL0     H56960   2.397   8.222   9.549  1.1278 -1.6210 -1.1302
  432MOL0     H56961   2.348   8.636   9.493  0.6233  3.2819  3.5400
  432MOL0     H56962   2.263   8.659   9.641 -2.5075  0.5309 -0.4853
  432MOL0     H56963   2.190   8.445   9.430  0.1957  0.7438 -1.4011
  432MOL0     H56964   2.124   8.606   9.427 -1.7608 -0.3658  1.1862
  432MOL0     H56965   2.021   8.561   9.670  0.9272 -1.3818  0.6651
  432MOL0     H56966   2.072   8.394   9.641  0.0906  0.9416  1.4872
  432MOL0     H56967   1.915   8.571   9.457  1.4198 -0.1231 -0.1175
  432MOL0     H56968   1.945   8.403   9.427  0.5262 -0.3844  0.2922
  432MOL0     H56969   1.707   8.493   9.569 -0.7078 -0.9704  0.9670
  432MOL0     H56970   1.813   8.459   9.691  0.0499  2.4438 -0.1940
  432MOL0     H56971   1.835   8.221   9.596 -2.2979 -2.3806 -0.4444
  432MOL0     H56972   1.741   8.269   9.456  0.5135 -0.7349  0.7659
  432MOL0     H56973   1.645   8.240   9.744 -3.5816  1.4330  1.4045
  432MOL0     H56974   1.553   8.340   9.643  0.2692  0.8034 -0.2496
  432MOL0     H56975   1.536   8.177   9.469 -0.7387 -0.7581  0.1231
  432MOL0     H56976   1.459   8.126   9.621 -0.1770 -1.2699 -0.6072
  432MOL0     H56977   1.731   8.029   9.377 -0.7527  3.8420  0.7711
  432MOL0     H56978   1.873   7.765   9.399 -0.8718  0.6093 -0.9283
  432MOL0     H56979   1.947   7.769   9.556 -1.8186 -1.7389 -0.3255
  432MOL0     H56980   1.966   8.008   9.365 -2.2226 -1.4753 -1.6707
  432MOL0     H56981   2.080   7.880   9.362 -0.8159 -1.4013  1.0904
  432MOL0     H56982   2.125   8.091   9.547 -0.0847 -0.3104 -0.5847
  432MOL0     H56983   2.022   7.981   9.646  2.6322  0.0806  2.0155
  432MOL0     H56984   2.193   7.796   9.582 -2.2509  0.0999 -1.5253
  432MOL0     H56985   2.248   7.920   9.678 -1.3531 -0.9516  0.6371
  432MOL0     H56986   2.462   7.943   9.252  2.2118  1.7875  1.6489
  432MOL0     H56987   2.669   7.811   9.219  0.1448 -1.5104  0.5351
  432MOL0     H56988   2.885   7.376   9.397  0.1065 -0.6296  0.3662
  432MOL0     H56989   3.123   7.254   9.353 -0.2504  0.9552 -2.6506
  432MOL0     H56990   3.367   7.280   9.616  0.0035  0.5831  0.1053
  432MOL0     H56991   3.418   7.434   9.598  0.9345 -0.8606  0.5551
  432MOL0     H56992   3.605   7.383   9.460  1.0687 -0.8489  0.3825
  432MOL0     H56993   3.563   7.207   9.451  3.2680 -0.8121  0.8848
  432MOL0     H56994   3.587   7.207   9.701  0.0376 -0.8547 -0.1620
  432MOL0     H56995   3.687   7.355   9.682 -2.4689 -1.3914  5.0411
  432MOL0     H56996   3.773   7.105   9.510  1.7567 -1.1267  0.5635
  432MOL0     H56997   3.855   7.253   9.558 -0.5061 -1.4870 -3.3124
  432MOL0     H56998   3.742   7.058   9.750 -1.1965  0.2647 -1.6595
  432MOL0     H56999   3.845   7.199   9.773 -1.8385  0.7431 -0.6110
  432MOL0     H57000   3.937   6.928   9.668 -1.7811 -1.4227  1.4603
  432MOL0     H57001   3.996   7.005   9.809  0.0811 -2.5590 -0.4765
  432MOL0     H57002   4.045   7.131   9.537 -0.4667 -1.4316 -0.9912
  432MOL0     H57003   4.105   7.179   9.695 -1.4198 -0.9729  0.8522
  432MOL0     H57004   4.246   7.026   9.530 -0.0346 -2.3391 -1.5935
  432MOL0     H57005   4.137   6.896   9.564  1.4066 -0.3696  0.1786
  432MOL0     H57006   3.309   7.607   9.510  0.5858 -1.2981  1.3366
  432MOL0     H57007   3.083   7.714   9.535 -0.4947 -0.9398  1.5707
  432MOL0     H57008   2.643   7.670   9.622 -1.8551  1.5720  0.8853
  432MOL0     H57009   2.426   7.752   9.648 -0.8560  1.1336 -0.1551
  432MOL0     H57010   2.567   8.613   9.553 -1.1429  0.1364  0.1170
  432MOL0     H57011   2.776   8.524   9.452 -1.5828  3.2564  2.5834
  432MOL0     H57012   3.085   8.255   9.453  1.6966 -0.0462 -0.4588
  432MOL0     H57013   3.313   8.201   9.399 -0.9728  0.8804  0.5849
  432MOL0     H57014   3.389   7.877   9.103 -0.7591  3.1889  0.2085
  432MOL0     H57015   3.415   7.781   9.243 -5.1553  1.7754  0.2978
  432MOL0     H57016   3.606   7.798   9.122 -0.7944 -2.5936  1.8942
  432MOL0     H57017   3.606   7.977   9.130  0.1044 -1.3720 -0.5121
  432MOL0     H57018   3.672   7.965   9.378  1.7931  0.0967  0.8171
  432MOL0     H57019   3.775   7.856   9.273  0.4517  2.2502 -1.2144
  432MOL0     H57020   3.524   7.788   9.438 -0.6071 -0.0010 -0.6734
  432MOL0     H57021   3.616   7.666   9.355 -1.7536 -0.2980  0.1192
  432MOL0     H57022   3.874   7.691   9.676 -2.7374 -1.6617  1.6596
  432MOL0     H57023   3.161   7.822   9.229  1.5492  0.1689 -1.7904
  432MOL0     H57024   2.933   7.917   9.253 -1.2269  0.6516  2.3960
  433MOL0     O57025   8.725   4.949   4.103  0.1480  0.2945  0.0995
  433MOL0     C57026   8.762   4.955   3.984 -0.1271 -0.4457 -0.0195
  433MOL0     O57027   8.699   5.022   3.887  0.7188 -0.7264  0.4946
  433MOL0     C57028   8.611   5.129   3.922 -1.0394  0.3446  0.3785
  433MOL0     C57029   8.490   5.131   3.850  0.4775  0.6778 -0.4722
  433MOL0     C57030   8.400   5.230   3.883  0.0177  0.5762  0.0402
  433MOL0     C57031   8.426   5.324   3.980 -0.4665  0.0186 -0.3150
  433MOL0     O57032   8.325   5.405   4.013  1.1573 -0.4575 -0.7079
  433MOL0     C57033   8.312   5.430   4.153  0.2939  0.6647 -0.1097
  433MOL0     C57034   8.199   5.534   4.160 -0.1395  0.1581 -0.7270
  433MOL0     C57035   8.165   5.557   4.310 -0.2743 -0.0575 -0.7219
  433MOL0     C57036   8.045   5.649   4.312  0.6612  0.3478 -0.6280
  433MOL0     C57037   8.006   5.674   4.464  1.3886  0.4968 -0.3842
  433MOL0     C57038   7.927   5.810   4.488  0.1018 -0.2703  0.3989
  433MOL0     C57039   7.796   5.810   4.416 -0.3412  0.2816  0.3861
  433MOL0     C57040   7.726   5.951   4.417 -0.0530 -0.6126  0.0243
  433MOL0     N57041   7.586   5.923   4.382 -0.1233 -0.3458 -0.0275
  433MOL0     C57042   7.540   5.838   4.290  0.6577 -0.3216 -0.0304
  433MOL0     C57043   7.398   5.864   4.290 -0.7552 -0.3366 -0.3579
  433MOL0     C57044   7.290   5.793   4.211 -0.3709  0.4060  1.0563
  433MOL0     C57045   7.296   5.646   4.235 -0.4529  1.0414  0.5922
  433MOL0     C57046   7.217   5.558   4.131 -0.8812  0.3973 -0.0759
  433MOL0     C57047   7.071   5.601   4.135  0.3580 -0.2547  0.9690
  433MOL0     O57048   7.025   5.562   4.268  0.4434  0.1498 -0.2039
  433MOL0     C57049   6.893   5.564   4.301  0.2492  0.4345  0.0936
  433MOL0     C57050   6.796   5.647   4.237  0.3260 -1.1666  0.0154
  433MOL0     C57051   6.663   5.665   4.290  0.3216  0.7363  0.2990
  433MOL0     C57052   6.627   5.591   4.404  0.2465  0.9918 -0.5174
  433MOL0     C57053   6.492   5.600   4.462 -0.5230 -0.3591  0.4348
  433MOL0     O57054   6.408   5.690   4.402 -0.6941 -0.5571 -0.6135
  433MOL0     C57055   6.281   5.706   4.450 -0.0407 -0.5950  0.5667
  433MOL0     C57056   6.180   5.640   4.388 -0.8972  0.0861 -0.2010
  433MOL0     C57057   6.053   5.658   4.434  0.6471 -0.1190 -0.5181
  433MOL0     C57058   6.025   5.743   4.541 -0.1197  0.6766  0.5483
  433MOL0     O57059   5.900   5.772   4.589 -0.4143 -0.9058  0.3411
  433MOL0     C57060   5.790   5.694   4.560  0.5898 -0.0170  0.2270
  433MOL0     C57061   5.690   5.737   4.669 -0.0638  1.2279  0.3408
  433MOL0     C57062   5.564   5.650   4.656  0.4177 -0.1434 -0.3415
  433MOL0     C57063   5.443   5.737   4.682  0.4085  0.1265 -0.2065
  433MOL0     C57064   5.315   5.667   4.658  0.7731  0.1802  0.0776
  433MOL0     C57065   5.199   5.769   4.676 -0.0003 -0.7927 -0.4381
  433MOL0     C57066   5.065   5.713   4.672  0.4585 -1.0221 -0.2669
  433MOL0     C57067   4.955   5.809   4.722 -0.0126  0.2974 -0.6271
  433MOL0    Cl57068   4.795   5.738   4.672  0.4954  0.0778 -0.3627
  433MOL0     C57069   6.133   5.811   4.598 -0.0379 -0.6768  0.1429
  433MOL0     C57070   6.262   5.789   4.556 -0.1069 -1.1337  1.2814
  433MOL0     O57071   6.470   5.530   4.561 -0.0235 -0.3562  0.6700
  433MOL0     C57072   6.722   5.501   4.459  0.0800  0.0692  0.1843
  433MOL0     C57073   6.851   5.494   4.412  0.7614 -0.3251  0.0516
  433MOL0     N57074   7.375   5.966   4.382 -0.5734  0.1059  0.2377
  433MOL0     N57075   7.486   5.996   4.434  0.5528 -0.0632  0.0152
  433MOL0     C57076   8.550   5.331   4.041  0.0854  0.2589  0.9112
  433MOL0     C57077   8.644   5.229   4.016  0.5609  0.0739  0.4913
  433MOL0     C57078   8.877   4.878   3.936 -0.7535  0.9331  0.7297
  433MOL0     C57079   8.921   4.770   4.018  0.1848  0.1004 -0.3610
  433MOL0     C57080   9.038   4.698   3.989 -0.1636 -0.1839 -0.3098
  433MOL0     C57081   9.114   4.740   3.871 -1.0913  0.3295  0.5716
  433MOL0     O57082   9.226   4.673   3.820 -0.4681  0.0488  0.3743
  433MOL0     C57083   9.196   4.533   3.807 -0.0622 -1.1792  0.4366
  433MOL0     C57084   9.299   4.468   3.716  0.2558 -0.1227  0.1819
  433MOL0     C57085   9.446   4.516   3.745 -1.6766  0.3005 -0.0467
  433MOL0     C57086   9.545   4.481   3.641 -0.5931 -0.2463 -0.2774
  433MOL0     C57087   9.554   4.332   3.625 -0.3329 -0.4829 -0.0604
  433MOL0     C57088   9.551   4.216   3.604  0.1856 -0.4035  0.5484
  433MOL0     C57089   9.078   4.852   3.795 -0.6291 -0.5356 -0.7179
  433MOL0     C57090   8.955   4.915   3.821 -0.4954 -1.2566 -0.2425
  433MOL0     H57091   8.474   5.055   3.775 -1.8348  0.2273  0.3950
  433MOL0     H57092   8.307   5.256   3.832 -0.5482 -0.1377  0.6835
  433MOL0     H57093   8.393   5.482   4.203 -0.7343  2.7251 -0.4856
  433MOL0     H57094   8.277   5.339   4.203  2.8189 -0.5131 -0.3475
  433MOL0     H57095   8.113   5.497   4.103 -0.5446 -1.0706  0.6313
  433MOL0     H57096   8.241   5.629   4.124  5.0364 -1.6037 -0.2215
  433MOL0     H57097   8.253   5.609   4.346 -0.4666  2.0405 -3.0192
  433MOL0     H57098   8.135   5.465   4.362  0.6236  1.9952  3.8566
  433MOL0     H57099   8.071   5.744   4.264  1.8191 -0.1217 -0.9753
  433MOL0     H57100   7.965   5.605   4.253  2.2072  0.5159 -2.9978
  433MOL0     H57101   8.095   5.672   4.527 -0.5414 -0.9935  2.5105
  433MOL0     H57102   7.950   5.586   4.498  0.3452  1.1106 -0.4814
  433MOL0     H57103   7.987   5.895   4.452 -1.5994  1.1219  0.7447
  433MOL0     H57104   7.915   5.824   4.596 -0.0538  0.4907  0.2886
  433MOL0     H57105   7.817   5.778   4.314  1.0323 -3.0188  1.5794
  433MOL0     H57106   7.737   5.727   4.455 -1.8322 -1.2460 -4.3894
  433MOL0     H57107   7.767   6.020   4.343 -0.4394 -0.1459  0.2406
  433MOL0     H57108   7.725   6.008   4.510  1.3490 -0.5837  0.0444
  433MOL0     H57109   7.593   5.771   4.223  2.4598 -0.6627  1.6287
  433MOL0     H57110   7.307   5.810   4.105 -1.0953  2.0374  1.1716
  433MOL0     H57111   7.190   5.831   4.235 -0.7651  0.4302 -0.5177
  433MOL0     H57112   7.266   5.633   4.340 -0.3474 -3.2845  0.2386
  433MOL0     H57113   7.401   5.619   4.226  0.4345  4.3169 -0.5974
  433MOL0     H57114   7.258   5.583   4.033  2.1727  0.2963  1.0774
  433MOL0     H57115   7.227   5.453   4.159  0.9299  1.3386  3.3933
  433MOL0     H57116   7.018   5.548   4.055  0.5793 -1.4122  1.5709
  433MOL0     H57117   7.057   5.706   4.108  0.0570 -0.7567 -0.9056
  433MOL0     H57118   6.836   5.717   4.165  1.4773 -1.2226  0.5778
  433MOL0     H57119   6.596   5.745   4.258 -0.7116 -0.7259 -1.3566
  433MOL0     H57120   6.203   5.570   4.309  0.6617  1.0140 -0.6195
  433MOL0     H57121   5.971   5.599   4.394 -0.5650  1.5963 -0.6939
  433MOL0     H57122   5.823   5.592   4.578  0.7333 -0.0847 -0.4240
  433MOL0     H57123   5.742   5.710   4.463 -0.1022  3.1533  0.9567
  433MOL0     H57124   5.671   5.845   4.660  4.5647  2.1531 -0.8481
  433MOL0     H57125   5.731   5.714   4.768  1.6042 -2.9985 -1.1157
  433MOL0     H57126   5.561   5.575   4.735 -0.1883 -0.4500 -0.6450
  433MOL0     H57127   5.555   5.585   4.569  2.0025 -1.0917  0.1580
  433MOL0     H57128   5.449   5.760   4.788  1.7306  0.4645 -0.3328
  433MOL0     H57129   5.440   5.834   4.630  0.0909  1.6273  2.4373
  433MOL0     H57130   5.301   5.576   4.719  0.4976  0.7697  0.9194
  433MOL0     H57131   5.320   5.632   4.555 -0.7508 -2.2687  0.7463
  433MOL0     H57132   5.201   5.845   4.597  1.5285 -1.0439 -0.6584
  433MOL0     H57133   5.211   5.823   4.770  0.8459  1.8586 -1.9493
  433MOL0     H57134   5.041   5.697   4.566  1.1739  0.7153 -0.7297
  433MOL0     H57135   5.067   5.614   4.718  1.8799 -0.2550  1.4348
  433MOL0     H57136   4.981   5.899   4.665 -0.9692  0.9736 -0.0387
  433MOL0     H57137   4.960   5.828   4.830 -0.7820 -0.1305 -0.5104
  433MOL0     H57138   6.103   5.875   4.681  1.2523 -1.4399  1.2285
  433MOL0     H57139   6.350   5.837   4.598 -0.5932  1.8857 -0.8221
  433MOL0     H57140   6.704   5.457   4.556  3.1843  1.6646  1.6021
  433MOL0     H57141   6.927   5.436   4.463 -0.1515 -2.4122 -0.8601
  433MOL0     H57142   8.564   5.412   4.113  0.4803  0.1434  0.9662
  433MOL0     H57143   8.745   5.220   4.055  1.4664  1.1654 -1.4575
  433MOL0     H57144   8.863   4.724   4.098  0.9354 -2.2154 -1.0809
  433MOL0     H57145   9.077   4.610   4.037 -0.7161 -2.4288 -3.6191
  433MOL0     H57146   9.095   4.523   3.768 -1.2558 -1.7479  3.4573
  433MOL0     H57147   9.201   4.485   3.905  1.6472 -0.2090  0.8760
  433MOL0     H57148   9.298   4.360   3.728  2.9900 -0.2486 -0.0339
  433MOL0     H57149   9.287   4.492   3.610  0.8365 -1.0578 -0.1110
  433MOL0     H57150   9.480   4.473   3.840 -0.7524  2.8929  0.8859
  433MOL0     H57151   9.444   4.625   3.760 -2.9993  0.2024  0.6540
  433MOL0     H57152   9.523   4.520   3.541  2.1132  0.8615 -0.5273
  433MOL0     H57153   9.646   4.518   3.661 -1.3766  2.2686 -0.6000
  433MOL0     H57154   9.535   4.111   3.589 -2.6604  0.0957 -0.6782
  433MOL0     H57155   9.139   4.864   3.706  0.2498 -2.3670 -0.4161
  433MOL0     H57156   8.925   5.003   3.764 -0.6738 -0.4915  0.9902
  434MOL0     O57157   1.652   9.890   3.234 -0.0900  0.4856 -0.0404
  434MOL0     C57158   1.743   9.889   3.154  0.2913  0.3780 -0.0052
  434MOL0     O57159   1.769   9.792   3.059 -0.6540 -0.6488  0.0319
  434MOL0     C57160   1.668   9.708   3.038  0.5942 -0.7226 -0.0200
  434MOL0     C57161   1.634   9.612   3.130  0.0171  0.2837 -0.4252
  434MOL0     C57162   1.524   9.536   3.102  0.5170  0.9991  0.0326
  434MOL0     C57163   1.454   9.548   2.984 -0.0420  0.7561 -0.1497
  434MOL0     O57164   1.348   9.484   2.939  0.1810  0.5171 -0.1755
  434MOL0     C57165   1.327   9.346   2.984 -0.1790 -0.6090  0.0924
  434MOL0     C57166   1.193   9.347   3.063  0.2048  0.4681 -0.4957
  434MOL0     C57167   1.148   9.195   3.088  0.6974 -0.4494  0.3505
  434MOL0     C57168   1.025   9.207   3.184  0.1386 -0.6338  0.9093
  434MOL0     C57169   0.994   9.081   3.258  0.5006  0.4663 -0.9549
  434MOL0     C57170   0.961   8.961   3.172 -0.4484 -0.0042 -0.1248
  434MOL0     C57171   0.869   8.969   3.045  0.0501 -0.3137 -0.4424
  434MOL0     C57172   0.722   9.019   3.069 -0.4481 -0.3443 -0.4788
  434MOL0     N57173   0.651   8.933   3.157 -0.0677 -0.1384 -0.1174
  434MOL0     C57174   0.634   8.965   3.289 -0.3754  0.7013 -0.3637
  434MOL0     C57175   0.562   8.862   3.340 -0.5969 -0.6912  0.1422
  434MOL0     C57176   0.513   8.825   3.480 -0.0179 -0.4188  1.0499
  434MOL0     C57177   0.401   8.916   3.514 -0.4771  0.0252 -0.9333
  434MOL0     C57178   0.376   8.903   3.669  0.2448 -0.7127  0.2967
  434MOL0     C57179   0.288   9.017   3.714 -0.5945 -0.3994  0.1826
  434MOL0     O57180   0.153   8.998   3.674 -0.0939 -0.0419 -0.0084
  434MOL0     C57181   0.054   9.082   3.709  0.3439  0.3418  0.6564
  434MOL0     C57182   0.073   9.210   3.764 -0.3930  0.1412 -0.4427
  434MOL0     C57183  -0.039   9.292   3.778 -0.3675  0.3171  0.0387
  434MOL0     C57184  -0.167   9.249   3.737 -0.2419 -0.0005 -0.0997
  434MOL0     C57185  -0.281   9.350   3.735  0.0638 -0.6829 -0.7446
  434MOL0     O57186  -0.397   9.302   3.686 -0.1770  0.7404 -0.3029
  434MOL0     C57187  -0.515   9.366   3.678 -0.6021  0.1199 -0.7025
  434MOL0     C57188  -0.586   9.385   3.560  0.1316 -0.0297  0.5723
  434MOL0     C57189  -0.714   9.447   3.553 -0.1023 -0.2719  0.1688
  434MOL0     C57190  -0.761   9.492   3.674  0.0924 -0.1483 -0.6319
  434MOL0     O57191  -0.881   9.560   3.687  0.4929 -0.2686  0.9936
  434MOL0     C57192  -0.989   9.526   3.594  0.3607 -1.1949  0.2220
  434MOL0     C57193  -1.100   9.635   3.599 -0.2286 -0.2368  0.1264
  434MOL0     C57194  -1.189   9.649   3.723  0.5919 -0.4691 -0.2828
  434MOL0     C57195  -1.316   9.737   3.689  0.3857  0.3307 -0.1022
  434MOL0     C57196  -1.400   9.763   3.814 -0.9228 -0.4807  0.3822
  434MOL0     C57197  -1.538   9.827   3.794  0.1125  0.6965  0.1232
  434MOL0     C57198  -1.605   9.823   3.929 -0.2093 -1.1578 -0.5724
  434MOL0     C57199  -1.737   9.912   3.936  0.1646  0.0155 -0.1169
  434MOL0    Cl57200  -1.857   9.862   3.818 -0.0151  0.4556 -0.0367
  434MOL0     C57201  -0.698   9.466   3.794 -0.7627  1.0948 -0.1667
  434MOL0     C57202  -0.578   9.393   3.797  0.2816 -0.3152  0.4536
  434MOL0     O57203  -0.257   9.462   3.777  0.0910  0.6167 -0.5165
  434MOL0     C57204  -0.174   9.128   3.681 -0.1066  0.1360  0.1994
  434MOL0     C57205  -0.068   9.044   3.657 -0.3940  0.0025  0.1847
  434MOL0     N57206   0.532   8.769   3.242 -0.2050  0.1182 -0.1855
  434MOL0     N57207   0.588   8.821   3.133 -0.5826  0.6080  0.7757
  434MOL0     C57208   1.498   9.640   2.895  1.1551  0.0224 -0.0615
  434MOL0     C57209   1.599   9.728   2.919  0.0625 -0.4836  0.1843
  434MOL0     C57210   1.826  10.007   3.150  0.7053  0.0407  0.3017
  434MOL0     C57211   1.954   9.995   3.111 -0.2995  0.2502  0.9313
  434MOL0     C57212   2.042  10.106   3.110 -0.2147 -0.1225 -1.1018
  434MOL0     C57213   2.001  10.232   3.160  0.1368 -0.0058 -0.0427
  434MOL0     O57214   2.080  10.343   3.161  0.0983  0.4641  0.6369
  434MOL0     C57215   2.207  10.338   3.099 -0.1483 -0.7349  0.1781
  434MOL0     C57216   2.306  10.286   3.199 -0.8835  0.0389  0.8019
  434MOL0     C57217   2.302  10.366   3.332  0.2458  0.4859  0.0016
  434MOL0     C57218   2.409  10.470   3.342  0.3768 -0.5377 -0.1288
  434MOL0     C57219   2.370  10.594   3.277 -0.2568  0.4845 -0.1371
  434MOL0     C57220   2.359  10.697   3.210  0.0232  0.2416 -0.4249
  434MOL0     C57221   1.864  10.242   3.194 -0.4380 -0.0094  0.3030
  434MOL0     C57222   1.775  10.131   3.185 -0.1728  0.3998 -0.0513
  434MOL0     H57223   1.690   9.610   3.224  2.2904 -2.2329 -1.6993
  434MOL0     H57224   1.486   9.479   3.186 -0.3110  1.5993  0.0816
  434MOL0     H57225   1.410   9.310   3.046 -1.7739 -1.3054  1.9225
  434MOL0     H57226   1.330   9.282   2.896 -0.1853  0.2644 -0.5513
  434MOL0     H57227   1.111   9.386   3.002  0.9662  1.9760 -0.5969
  434MOL0     H57228   1.209   9.399   3.158 -1.8192 -3.0859  2.0300
  434MOL0     H57229   1.238   9.151   3.133  0.5469  0.7942  1.9676
  434MOL0     H57230   1.117   9.136   3.002 -0.4195  1.6969 -0.7833
  434MOL0     H57231   1.050   9.280   3.262 -0.8665 -1.8185  2.3981
  434MOL0     H57232   0.938   9.249   3.132  0.2987 -2.1396 -0.6743
  434MOL0     H57233   0.909   9.102   3.322 -0.2140 -0.7863 -1.4524
  434MOL0     H57234   1.075   9.052   3.325 -0.5726 -0.3470  0.0208
  434MOL0     H57235   0.910   8.890   3.239 -0.3598  2.3950  2.6734
  434MOL0     H57236   1.054   8.914   3.138 -0.4145  0.0042 -0.0435
  434MOL0     H57237   0.920   9.037   2.976  1.3967  0.6568  1.4222
  434MOL0     H57238   0.862   8.871   2.997  1.2963  0.5953 -2.6370
  434MOL0     H57239   0.664   9.021   2.977  1.8274  0.7319 -1.9928
  434MOL0     H57240   0.730   9.113   3.123 -0.8199 -1.9232  2.5345
  434MOL0     H57241   0.666   9.057   3.335 -1.3532  0.1842  1.4263
  434MOL0     H57242   0.595   8.845   3.550 -0.5053 -1.3746  1.9302
  434MOL0     H57243   0.474   8.723   3.480 -3.2852  0.6917 -0.5671
  434MOL0     H57244   0.308   8.885   3.464 -1.4867  1.7449 -0.2198
  434MOL0     H57245   0.419   9.022   3.493 -2.1831  0.6701  0.6063
  434MOL0     H57246   0.322   8.809   3.685  0.4862 -1.1310 -1.1820
  434MOL0     H57247   0.473   8.906   3.720  0.8139 -1.2505 -0.7391
  434MOL0     H57248   0.331   9.114   3.688  2.8942 -1.2849  2.0276
  434MOL0     H57249   0.290   9.014   3.823  0.4337 -0.2874  0.1722
  434MOL0     H57250   0.168   9.253   3.793 -0.9528  0.9098  0.2995
  434MOL0     H57251  -0.024   9.386   3.829  2.3278 -0.7660  1.4627
  434MOL0     H57252  -0.552   9.351   3.463  0.8776  2.9267 -0.3130
  434MOL0     H57253  -0.767   9.472   3.462  0.1494  2.3374  0.6670
  434MOL0     H57254  -1.040   9.439   3.636 -1.0426  0.1791  1.4997
  434MOL0     H57255  -0.951   9.513   3.492 -0.9069  1.0369 -0.5983
  434MOL0     H57256  -1.156   9.608   3.509  0.0992  0.1409 -0.1961
  434MOL0     H57257  -1.048   9.729   3.579 -0.4981 -0.7212 -3.5659
  434MOL0     H57258  -1.131   9.694   3.804  0.1919  2.3376 -1.4555
  434MOL0     H57259  -1.228   9.553   3.758 -1.3541  0.1326 -0.7106
  434MOL0     H57260  -1.298   9.823   3.623 -0.1874  0.0337 -0.6616
  434MOL0     H57261  -1.375   9.673   3.624 -2.2630  0.7508  1.7221
  434MOL0     H57262  -1.334   9.828   3.872  1.3421 -2.3171  0.0011
  434MOL0     H57263  -1.397   9.669   3.870  4.0245 -0.0396  1.3160
  434MOL0     H57264  -1.598   9.770   3.722 -1.8747  2.5683  0.2050
  434MOL0     H57265  -1.533   9.927   3.751  0.8065 -0.1993 -2.0065
  434MOL0     H57266  -1.622   9.717   3.949  0.9257 -1.4856 -1.2520
  434MOL0     H57267  -1.529   9.864   3.996 -0.6935 -0.4710 -0.4283
  434MOL0     H57268  -1.717  10.019   3.927  3.4017 -0.5117 -0.3040
  434MOL0     H57269  -1.768   9.894   4.039 -1.7961 -2.7010 -1.0709
  434MOL0     H57270  -0.745   9.491   3.889 -0.2544 -1.0384  0.7104
  434MOL0     H57271  -0.542   9.365   3.896  1.4045 -0.7216 -0.0461
  434MOL0     H57272  -0.271   9.094   3.645 -0.0275  0.4484 -0.3011
  434MOL0     H57273  -0.080   8.955   3.597  2.6050  1.7253 -3.3756
  434MOL0     H57274   1.434   9.655   2.809 -1.2190  0.9471  1.7509
  434MOL0     H57275   1.619   9.818   2.863  0.2657  0.2067  1.3448
  434MOL0     H57276   1.997   9.899   3.085 -0.4801  0.4388 -0.0804
  434MOL0     H57277   2.142  10.080   3.076 -0.5487 -3.8547  0.2904
  434MOL0     H57278   2.245  10.439   3.079 -0.1471 -0.7772 -0.0268
  434MOL0     H57279   2.221  10.282   3.006  3.4973  1.3970 -0.7644
  434MOL0     H57280   2.275  10.184   3.221 -2.4423  0.0895 -0.9037
  434MOL0     H57281   2.406  10.285   3.153 -0.9841 -0.8014  0.5867
  434MOL0     H57282   2.312  10.294   3.415 -0.2485 -0.2910 -0.5929
  434MOL0     H57283   2.204  10.410   3.351  0.3770  1.2167 -0.9362
  434MOL0     H57284   2.421  10.495   3.448  0.4521 -0.5680 -0.1304
  434MOL0     H57285   2.498  10.438   3.286 -0.1760 -0.4735 -1.0654
  434MOL0     H57286   2.337  10.774   3.139 -1.0699  0.8266  0.5012
  434MOL0     H57287   1.830  10.341   3.226 -0.7799  1.0592 -2.9445
  434MOL0     H57288   1.674  10.154   3.218  0.0652  1.4695 -0.0461
  435MOL0     O57289   1.127   6.974   8.493 -0.3319 -0.1997  0.2238
  435MOL0     C57290   1.144   6.985   8.611  1.0652 -1.2021  0.1102
  435MOL0     O57291   1.045   7.010   8.700  0.1735  0.4744 -0.7005
  435MOL0     C57292   0.906   7.005   8.682  0.2466  0.1392  0.0674
  435MOL0     C57293   0.841   7.002   8.568 -0.2602 -0.7772  0.3015
  435MOL0     C57294   0.699   6.997   8.571 -0.3763  0.4583 -0.1388
  435MOL0     C57295   0.635   6.977   8.700 -0.5479  0.0911 -0.5465
  435MOL0     O57296   0.499   6.952   8.709  0.0153  0.0241 -0.0755
  435MOL0     C57297   0.422   6.928   8.593 -0.9684 -0.5681 -0.2167
  435MOL0     C57298   0.293   6.861   8.621  1.0965 -0.3139 -0.3602
  435MOL0     C57299   0.222   6.925   8.731  0.7142 -0.5775  0.4442
  435MOL0     C57300   0.067   6.885   8.723  0.3634  0.1807 -0.0913
  435MOL0     C57301   0.005   6.898   8.863 -0.0753  0.6047 -0.2869
  435MOL0     C57302  -0.140   6.871   8.870 -0.1359 -0.0739 -0.0786
  435MOL0     C57303  -0.206   6.905   8.997  0.4140 -0.2763 -0.0815
  435MOL0     C57304  -0.362   6.868   9.010 -1.1367  0.2009 -0.3070
  435MOL0     N57305  -0.438   6.945   8.909 -0.8773  0.3696 -0.4136
  435MOL0     C57306  -0.450   7.076   8.904 -0.8012 -0.2027 -0.4217
  435MOL0     C57307  -0.536   7.098   8.804  0.4022 -1.5397  0.1879
  435MOL0     C57308  -0.572   7.238   8.750  0.2958  1.0778  0.1290
  435MOL0     C57309  -0.695   7.298   8.814  0.3413  0.0806 -0.0136
  435MOL0     C57310  -0.726   7.435   8.751 -1.0932  0.2568 -0.7800
  435MOL0     C57311  -0.843   7.507   8.818  0.5038 -0.2714 -0.1050
  435MOL0     O57312  -0.954   7.417   8.846 -0.4051  0.0566  0.5001
  435MOL0     C57313  -1.073   7.468   8.891  0.1162 -0.1774 -0.1080
  435MOL0     C57314  -1.097   7.606   8.918 -0.0824 -0.6247 -0.0018
  435MOL0     C57315  -1.216   7.643   8.976 -0.2330 -0.2852  0.0160
  435MOL0     C57316  -1.327   7.556   8.996 -0.0286  0.0392  0.8902
  435MOL0     C57317  -1.455   7.594   9.058 -0.2634 -0.2876 -0.6724
  435MOL0     O57318  -1.552   7.496   9.071  0.0907 -0.2342 -0.5245
  435MOL0     C57319  -1.669   7.528   9.123 -0.2730 -0.9101 -0.8943
  435MOL0     C57320  -1.703   7.486   9.251 -0.1801 -0.1130 -0.1323
  435MOL0     C57321  -1.828   7.521   9.297 -0.6715 -0.1345 -1.1024
  435MOL0     C57322  -1.913   7.596   9.220 -0.6072 -0.9907  0.3991
  435MOL0     O57323  -2.047   7.608   9.244 -0.0027  0.9605 -0.1310
  435MOL0     C57324  -2.123   7.496   9.294 -0.0653  0.0056  0.1862
  435MOL0     C57325  -2.267   7.531   9.316 -0.4352  0.1360 -0.1039
  435MOL0     C57326  -2.348   7.402   9.345 -0.3717  0.0124  0.2552
  435MOL0     C57327  -2.496   7.433   9.376  0.2682  0.1254  0.8228
  435MOL0     C57328  -2.553   7.299   9.446 -0.7458 -0.1091  0.1234
  435MOL0     C57329  -2.699   7.338   9.498 -0.3897  0.4436 -0.7459
  435MOL0     C57330  -2.759   7.208   9.560 -0.2100  1.0139 -1.2150
  435MOL0     C57331  -2.903   7.217   9.632 -0.5764  0.2069  0.3774
  435MOL0    Cl57332  -2.956   7.062   9.701  0.4826  0.2321  0.5551
  435MOL0     C57333  -1.869   7.652   9.103  0.1157  0.1238 -0.0385
  435MOL0     C57334  -1.744   7.622   9.057 -0.0774  0.1461 -0.4858
  435MOL0     O57335  -1.465   7.713   9.093 -0.7936  0.1056  0.0028
  435MOL0     C57336  -1.301   7.424   8.962 -0.7180  0.6204 -0.2937
  435MOL0     C57337  -1.179   7.382   8.913  0.3547  0.3581  0.4445
  435MOL0     N57338  -0.562   6.977   8.732  0.0650  0.1718 -0.6273
  435MOL0     N57339  -0.501   6.883   8.803 -0.2655 -0.4174  0.1125
  435MOL0     C57340   0.708   6.950   8.814 -0.0055 -0.5705  0.6932
  435MOL0     C57341   0.842   6.964   8.809 -0.7660 -0.1380 -0.1369
  435MOL0     C57342   1.279   6.982   8.674  0.3492  0.2937 -0.7552
  435MOL0     C57343   1.389   6.981   8.591 -0.1364 -0.0104  0.0204
  435MOL0     C57344   1.515   6.962   8.653 -0.7500 -0.6836  0.3516
  435MOL0     C57345   1.526   6.934   8.790  0.1135  0.0979  0.6388
  435MOL0     O57346   1.647   6.907   8.853 -0.0866  0.2482 -0.1366
  435MOL0     C57347   1.764   6.878   8.776 -0.1574 -0.8806  0.4771
  435MOL0     C57348   1.884   6.841   8.853 -0.5084 -0.3347 -0.5560
  435MOL0     C57349   1.959   6.970   8.902  0.2876 -0.0984 -0.4115
  435MOL0     C57350   2.083   6.936   8.990  0.3639 -0.3447 -0.6442
  435MOL0     C57351   2.144   7.063   9.034  0.2110 -0.1861 -0.2132
  435MOL0     C57352   2.203   7.162   9.076  0.1830 -0.4467  0.8908
  435MOL0     C57353   1.415   6.927   8.871  0.2026 -0.0534 -0.1647
  435MOL0     C57354   1.286   6.952   8.812  0.0321  0.5351 -0.1818
  435MOL0     H57355   0.904   7.019   8.480 -1.6108  1.1151 -0.3628
  435MOL0     H57356   0.650   7.010   8.475 -0.1474 -0.5020 -0.4030
  435MOL0     H57357   0.484   6.860   8.534  0.3912  0.0102  0.5136
  435MOL0     H57358   0.406   7.021   8.537  0.5345 -0.6177 -0.7843
  435MOL0     H57359   0.301   6.759   8.661 -0.0391  1.5640  5.7197
  435MOL0     H57360   0.228   6.875   8.535 -1.6689 -3.6313  0.9543
  435MOL0     H57361   0.238   7.033   8.722  0.1544 -0.4169  1.2860
  435MOL0     H57362   0.258   6.903   8.832 -5.7683 -0.3208  3.2664
  435MOL0     H57363   0.009   6.937   8.646  0.6343 -1.4251 -1.4252
  435MOL0     H57364   0.054   6.779   8.700  0.2876 -0.0013  0.7639
  435MOL0     H57365   0.025   7.000   8.896  0.5182 -0.0268  1.4016
  435MOL0     H57366   0.060   6.824   8.923 -0.7479  0.1680 -0.1904
  435MOL0     H57367  -0.148   6.763   8.853 -1.2431  0.1279 -0.9553
  435MOL0     H57368  -0.185   6.932   8.791  0.5867 -1.9850 -2.0660
  435MOL0     H57369  -0.144   6.862   9.076 -0.9791  0.4147  1.4349
  435MOL0     H57370  -0.211   7.013   9.017 -1.9749  0.0188 -1.8215
  435MOL0     H57371  -0.408   6.878   9.109  0.0590 -1.3396  0.4587
  435MOL0     H57372  -0.370   6.761   8.989  0.7626 -0.2133  0.7774
  435MOL0     H57373  -0.399   7.151   8.964  1.3330 -2.1477  0.3289
  435MOL0     H57374  -0.590   7.231   8.642 -1.4363 -0.4138  0.4729
  435MOL0     H57375  -0.485   7.303   8.764  3.2637 -2.2375 -1.3786
  435MOL0     H57376  -0.684   7.316   8.922 -0.7951 -0.1856  0.1640
  435MOL0     H57377  -0.777   7.227   8.801  1.1693 -0.9724  0.3924
  435MOL0     H57378  -0.637   7.498   8.762 -1.4321  0.6394 -0.2432
  435MOL0     H57379  -0.744   7.422   8.644 -2.3432 -2.6537 -0.3143
  435MOL0     H57380  -0.880   7.588   8.755  3.5326  1.5478  0.3001
  435MOL0     H57381  -0.810   7.554   8.911 -0.2409 -0.2059  0.1358
  435MOL0     H57382  -1.019   7.678   8.898  0.8773 -1.2911  1.1476
  435MOL0     H57383  -1.222   7.747   9.005 -0.5661 -0.4241  0.4538
  435MOL0     H57384  -1.633   7.422   9.303  3.6057  2.2324 -1.8927
  435MOL0     H57385  -1.871   7.493   9.393  0.6522  2.2298  0.2726
  435MOL0     H57386  -2.075   7.454   9.383 -1.2526 -1.5171  0.1488
  435MOL0     H57387  -2.114   7.418   9.218  2.1495 -0.1677  0.5621
  435MOL0     H57388  -2.308   7.589   9.234  0.3825  2.8944  1.3031
  435MOL0     H57389  -2.278   7.597   9.403 -2.9947  0.4916 -0.6142
  435MOL0     H57390  -2.312   7.351   9.435 -3.1051 -1.0400  0.8605
  435MOL0     H57391  -2.357   7.334   9.260 -0.6328 -2.0827  1.8602
  435MOL0     H57392  -2.492   7.515   9.447 -0.0361 -1.0907  2.3019
  435MOL0     H57393  -2.562   7.467   9.296 -0.8961  3.0333  2.8702
  435MOL0     H57394  -2.499   7.276   9.538  2.7727 -3.0684 -2.3908
  435MOL0     H57395  -2.548   7.213   9.378  0.0787 -1.1716  1.4645
  435MOL0     H57396  -2.764   7.369   9.416 -1.3595  0.8580  0.1595
  435MOL0     H57397  -2.682   7.419   9.569  1.3506  0.0303 -0.6410
  435MOL0     H57398  -2.767   7.136   9.478 -0.6731  3.2914 -3.2607
  435MOL0     H57399  -2.685   7.177   9.636 -0.3919 -0.2896 -1.5348
  435MOL0     H57400  -2.985   7.257   9.570 -0.1540 -0.6504 -0.7799
  435MOL0     H57401  -2.894   7.289   9.713  0.4212  0.9692 -0.3902
  435MOL0     H57402  -1.937   7.704   9.036 -0.9185 -1.0407  0.0645
  435MOL0     H57403  -1.712   7.643   8.956 -1.9611 -1.6848 -1.5520
  435MOL0     H57404  -1.373   7.344   8.967 -1.5842  1.4195  0.5127
  435MOL0     H57405  -1.163   7.276   8.895 -1.3596  0.4098 -1.7932
  435MOL0     H57406   0.654   6.915   8.901 -2.1018  1.0654  0.1539
  435MOL0     H57407   0.895   6.948   8.902 -1.8428  3.4406  1.2442
  435MOL0     H57408   1.393   6.986   8.482 -0.9035 -0.6275 -0.0384
  435MOL0     H57409   1.606   6.966   8.593 -1.0003 -0.4928 -0.0159
  435MOL0     H57410   1.781   6.973   8.725 -2.8844 -0.5640 -0.0098
  435MOL0     H57411   1.739   6.814   8.690 -0.7010  0.4916 -0.4109
  435MOL0     H57412   1.847   6.790   8.943 -0.2141  0.5742  0.1046
  435MOL0     H57413   1.944   6.776   8.789  0.2943  1.1739 -1.3974
  435MOL0     H57414   1.888   7.035   8.954 -0.6485  0.1229 -1.9043
  435MOL0     H57415   1.983   7.028   8.812  2.6794  1.6805  1.2514
  435MOL0     H57416   2.053   6.884   9.082 -3.2397  2.5412  0.1111
  435MOL0     H57417   2.154   6.883   8.927 -2.9330 -4.8232 -1.0585
  435MOL0     H57418   2.250   7.249   9.116  1.1281  0.1165 -1.3479
  435MOL0     H57419   1.418   6.915   8.978  0.3999  2.0622  0.1143
  435MOL0     H57420   1.192   6.947   8.867  0.3871  0.8817  0.4738
  436MOL0     O57421   9.240   3.383  10.255  0.3911  0.2496 -0.5527
  436MOL0     C57422   9.181   3.424  10.358 -0.7443  0.2601 -0.9431
  436MOL0     O57423   9.041   3.431  10.376 -0.2482 -0.2880 -0.0251
  436MOL0     C57424   8.969   3.441  10.258 -0.6414 -0.3508  0.0264
  436MOL0     C57425   8.839   3.387  10.252  0.4295  0.0440  1.0036
  436MOL0     C57426   8.757   3.409  10.144 -0.3695 -0.5112  0.2873
  436MOL0     C57427   8.796   3.495  10.037 -0.6388 -0.3438  0.3345
  436MOL0     O57428   8.703   3.523   9.932  0.1941  0.6160  0.0623
  436MOL0     C57429   8.764   3.539   9.809  0.3808 -0.4355  0.4823
  436MOL0     C57430   8.673   3.527   9.689  0.7135 -0.4803  0.3388
  436MOL0     C57431   8.668   3.389   9.629 -0.5315 -0.7609 -0.8149
  436MOL0     C57432   8.607   3.290   9.721  0.3186  0.0221 -0.2736
  436MOL0     C57433   8.552   3.160   9.642 -0.0072 -0.1994  0.7716
  436MOL0     C57434   8.465   3.069   9.724  0.4510  0.2774 -0.2835
  436MOL0     C57435   8.352   3.017   9.627  0.0188  0.4243  0.5498
  436MOL0     C57436   8.281   2.897   9.678 -0.2118  0.2267 -0.0191
  436MOL0     N57437   8.202   2.938   9.798 -0.0384 -0.9987  0.2438
  436MOL0     C57438   8.215   2.895   9.930 -0.2426 -0.7449 -0.1158
  436MOL0     C57439   8.120   2.961   9.999 -0.7626 -0.1470  0.3185
  436MOL0     C57440   8.095   2.951  10.140 -0.5649 -0.2200  0.1855
  436MOL0     C57441   7.976   2.871  10.165 -0.1643 -0.0136  0.3675
  436MOL0     C57442   7.957   2.844  10.315 -0.5620 -0.5709  0.3157
  436MOL0     C57443   7.894   2.963  10.379 -0.8351  0.8433  0.4705
  436MOL0     O57444   7.783   2.920  10.461 -0.3430  0.3531 -0.0061
  436MOL0     C57445   7.779   2.920  10.598 -0.1242 -0.6238 -0.1726
  436MOL0     C57446   7.660   2.967  10.661 -0.6633  0.4066  0.0566
  436MOL0     C57447   7.650   2.962  10.800 -0.8185 -0.1907 -0.4139
  436MOL0     C57448   7.744   2.889  10.874 -0.1871  0.2496 -0.3643
  436MOL0     C57449   7.733   2.877  11.019  0.2611 -0.7801  0.7433
  436MOL0     O57450   7.650   2.961  11.087 -0.1466 -0.0294 -0.8050
  436MOL0     C57451   7.645   2.968  11.227  0.5814 -0.1992 -0.1846
  436MOL0     C57452   7.756   2.942  11.310  0.4433  0.7367  0.6536
  436MOL0     C57453   7.747   2.916  11.450  0.4487  0.0509 -0.3632
  436MOL0     C57454   7.624   2.931  11.513  0.5955  0.7744  0.9185
  436MOL0     O57455   7.596   2.915  11.643 -0.4886 -0.2196  0.5466
  436MOL0     C57456   7.702   2.864  11.730 -0.3511 -0.0077 -0.1744
  436MOL0     C57457   7.644   2.800  11.853  0.0144 -0.5743  0.0431
  436MOL0     C57458   7.544   2.870  11.939  0.0276  0.2039 -0.2363
  436MOL0     C57459   7.597   2.972  12.038 -0.2369 -0.0446  0.2691
  436MOL0     C57460   7.486   3.065  12.094 -0.6706 -0.3620  0.2852
  436MOL0     C57461   7.424   3.173  12.005 -0.5629  0.6855 -0.0625
  436MOL0     C57462   7.314   3.244  12.089  0.5069 -0.6449 -0.4943
  436MOL0     C57463   7.260   3.362  12.024 -0.0544 -0.9559 -0.4758
  436MOL0    Cl57464   7.131   3.424  12.136  0.2059  0.0502 -0.0203
  436MOL0     C57465   7.513   2.967  11.429  0.5059 -0.4279  0.4492
  436MOL0     C57466   7.520   2.985  11.286 -0.5354 -0.0831  0.1290
  436MOL0     O57467   7.795   2.781  11.072  0.8547  0.3962 -0.0904
  436MOL0     C57468   7.856   2.836  10.803 -0.6588 -0.6066  0.2359
  436MOL0     C57469   7.881   2.865  10.672  0.3237 -0.7081  0.3891
  436MOL0     N57470   8.044   3.036   9.912  0.4873 -0.1302 -0.6070
  436MOL0     N57471   8.085   3.013   9.792 -0.5384  0.5632 -0.5178
  436MOL0     C57472   8.930   3.551  10.045  0.0488 -0.4095  0.5944
  436MOL0     C57473   9.007   3.521  10.152 -0.6223  0.2587  0.3741
  436MOL0     C57474   9.275   3.440  10.472  0.5086 -0.0795 -0.6537
  436MOL0     C57475   9.219   3.437  10.604  0.3856  0.5296  0.1804
  436MOL0     C57476   9.299   3.455  10.719 -0.3551 -0.4283  0.5475
  436MOL0     C57477   9.440   3.465  10.704  0.0060 -0.1970 -0.2312
  436MOL0     O57478   9.508   3.480  10.823 -0.4687  0.8257  0.4133
  436MOL0     C57479   9.654   3.513  10.833  0.3342  0.4820  0.2350
  436MOL0     C57480   9.668   3.657  10.789 -0.7337 -0.2133 -0.9032
  436MOL0     C57481   9.560   3.749  10.857  0.7679  0.0390  0.1947
  436MOL0     C57482   9.581   3.902  10.837  0.0384 -0.8207 -0.5456
  436MOL0     C57483   9.593   3.943  10.693 -0.0880  0.2734 -0.6000
  436MOL0     C57484   9.596   3.963  10.575 -0.4294 -0.2587  0.9702
  436MOL0     C57485   9.494   3.466  10.575 -0.7362 -0.1512  0.8148
  436MOL0     C57486   9.413   3.456  10.458  0.9392 -0.1036  0.0885
  436MOL0     H57487   8.806   3.324  10.333 -0.5813  1.1830  1.5154
  436MOL0     H57488   8.661   3.359  10.141 -0.5841 -0.4935 -5.6492
  436MOL0     H57489   8.851   3.473   9.797  1.0491 -0.2366  3.4204
  436MOL0     H57490   8.796   3.644   9.818  1.8874 -0.9319  1.3805
  436MOL0     H57491   8.718   3.599   9.620 -0.7642 -0.5261 -0.7067
  436MOL0     H57492   8.570   3.561   9.698  0.9904  0.6482 -0.5096
  436MOL0     H57493   8.767   3.355   9.600 -0.6537 -0.3656 -1.7079
  436MOL0     H57494   8.602   3.387   9.542 -0.2878 -1.6203 -0.9885
  436MOL0     H57495   8.679   3.265   9.799 -0.4461  1.5048  0.9627
  436MOL0     H57496   8.528   3.349   9.768  0.9433  2.0997 -1.7053
  436MOL0     H57497   8.640   3.108   9.603  1.3207  1.5752  1.2935
  436MOL0     H57498   8.493   3.200   9.559 -0.3260 -0.6825  0.7553
  436MOL0     H57499   8.426   3.117   9.814  1.3389 -0.3634  0.4577
  436MOL0     H57500   8.520   2.986   9.768 -1.0560  0.6451  2.4940
  436MOL0     H57501   8.269   3.087   9.612 -0.9499 -1.0429 -1.2407
  436MOL0     H57502   8.401   2.993   9.532 -1.8141 -2.1866  0.1679
  436MOL0     H57503   8.348   2.811   9.694 -1.1395 -0.4100  0.5330
  436MOL0     H57504   8.213   2.868   9.597  1.0571 -0.5933 -0.8232
  436MOL0     H57505   8.284   2.820   9.966  1.8089  1.9215  2.0230
  436MOL0     H57506   8.079   3.054  10.173  2.0317 -0.0673  1.2308
  436MOL0     H57507   8.184   2.906  10.185 -1.2841 -1.4413  0.4447
  436MOL0     H57508   7.996   2.774  10.119  0.0098  0.5504 -0.7784
  436MOL0     H57509   7.884   2.918  10.129 -1.2697 -2.2676  0.0832
  436MOL0     H57510   7.884   2.763  10.317  0.4686 -1.5851 -0.9722
  436MOL0     H57511   8.048   2.814  10.367  0.8837  2.3192 -0.3071
  436MOL0     H57512   7.862   3.031  10.300 -0.8757 -0.2116 -0.4392
  436MOL0     H57513   7.963   3.018  10.443 -0.8328  1.5085 -0.0978
  436MOL0     H57514   7.580   2.995  10.592 -0.4517  1.1570  0.1092
  436MOL0     H57515   7.565   3.010  10.847 -1.4240 -1.2998 -0.3390
  436MOL0     H57516   7.856   2.928  11.268 -0.9628 -2.8574 -2.0611
  436MOL0     H57517   7.837   2.874  11.494 -0.1250 -1.2127 -0.3646
  436MOL0     H57518   7.773   2.945  11.750  0.0760  0.7173 -3.8208
  436MOL0     H57519   7.759   2.785  11.681  0.3209 -0.6622  1.5895
  436MOL0     H57520   7.729   2.770  11.915 -0.0273  2.4416  1.7771
  436MOL0     H57521   7.598   2.707  11.817 -0.1824 -1.1780  1.7764
  436MOL0     H57522   7.485   2.794  11.990  0.5651 -2.1881 -2.9612
  436MOL0     H57523   7.477   2.911  11.863  0.6355  0.9747 -0.3695
  436MOL0     H57524   7.645   2.924  12.123  2.5443 -0.0377 -1.1623
  436MOL0     H57525   7.682   3.021  11.988 -1.2937 -0.1324 -1.7265
  436MOL0     H57526   7.528   3.112  12.184  0.6477 -2.1492  0.6838
  436MOL0     H57527   7.406   3.001  12.133 -0.3315 -0.1737  1.3159
  436MOL0     H57528   7.387   3.126  11.913 -0.3101 -0.8885  0.6172
  436MOL0     H57529   7.508   3.232  11.966  0.4728 -1.6886 -1.6231
  436MOL0     H57530   7.233   3.175  12.117 -0.6743  1.1250  0.6596
  436MOL0     H57531   7.358   3.279  12.183 -2.4628  0.3427  0.6712
  436MOL0     H57532   7.228   3.339  11.922 -1.7059 -0.5772 -0.0652
  436MOL0     H57533   7.341   3.435  12.028 -1.1038  0.1811  1.1980
  436MOL0     H57534   7.413   2.973  11.472  0.6855  1.6232  0.7044
  436MOL0     H57535   7.442   2.989  11.211 -3.3343 -0.0958  2.8280
  436MOL0     H57536   7.936   2.788  10.858  0.4566  1.1903  0.2531
  436MOL0     H57537   7.971   2.830  10.623  0.8175  3.1307 -1.8630
  436MOL0     H57538   8.966   3.613   9.964  3.2246  1.4065  3.1433
  436MOL0     H57539   9.105   3.568  10.154 -0.2130 -0.5947  0.6854
  436MOL0     H57540   9.112   3.433  10.620  0.7550  0.2137  3.1561
  436MOL0     H57541   9.250   3.455  10.816 -2.5139  0.9909 -0.4796
  436MOL0     H57542   9.721   3.446  10.778 -1.3679  0.6394 -2.1797
  436MOL0     H57543   9.672   3.505  10.940  0.1569 -0.2883  0.2098
  436MOL0     H57544   9.765   3.687  10.829  0.9670 -2.3135 -3.1244
  436MOL0     H57545   9.678   3.663  10.680 -1.8593 -1.0001 -1.0685
  436MOL0     H57546   9.572   3.725  10.963 -0.6997  2.8186  1.0843
  436MOL0     H57547   9.460   3.728  10.818  0.5138  1.1950  0.2035
  436MOL0     H57548   9.499   3.956  10.885 -0.4790 -1.6457 -0.4998
  436MOL0     H57549   9.677   3.932  10.881 -0.4734  1.7006 -0.9811
  436MOL0     H57550   9.587   3.998  10.474 -2.0861  0.5493  1.3684
  436MOL0     H57551   9.601   3.468  10.557 -0.6228 -1.8145  1.0767
  436MOL0     H57552   9.468   3.461  10.364  2.7840 -1.8267  1.0099
  437MOL0     O57553   7.553  11.166   9.132 -0.2033  1.1163  0.1820
  437MOL0     C57554   7.627  11.237   9.072 -0.7284 -0.7637 -0.1619
  437MOL0     O57555   7.609  11.279   8.942  0.0880 -0.3107 -0.5736
  437MOL0     C57556   7.499  11.235   8.873 -0.0751  0.8775  0.6215
  437MOL0     C57557   7.445  11.106   8.882 -0.3425 -0.3932  0.1202
  437MOL0     C57558   7.333  11.067   8.809  0.6155 -0.3889 -0.7226
  437MOL0     C57559   7.263  11.165   8.727  0.7678 -0.1638  0.5564
  437MOL0     O57560   7.155  11.129   8.660  0.1203 -0.2980 -0.2160
  437MOL0     C57561   7.048  11.090   8.750  0.1549  1.1376 -0.0976
  437MOL0     C57562   6.911  11.119   8.685 -0.0912 -0.5440 -0.3746
  437MOL0     C57563   6.896  11.270   8.656 -0.1428 -0.1511 -0.2516
  437MOL0     C57564   6.798  11.315   8.539 -0.4073  0.1785 -0.1323
  437MOL0     C57565   6.656  11.269   8.551  0.1719  0.0213  0.1530
  437MOL0     C57566   6.560  11.321   8.439  0.1223  0.1425 -0.7625
  437MOL0     C57567   6.597  11.286   8.289 -0.4845 -0.4758  0.1941
  437MOL0     C57568   6.552  11.150   8.240 -1.0858 -0.3525  0.4548
  437MOL0     N57569   6.410  11.156   8.244 -1.0282 -0.2693  0.0047
  437MOL0     C57570   6.332  11.199   8.145  0.2388 -0.8983 -0.5534
  437MOL0     C57571   6.209  11.141   8.162 -1.0882 -0.0013 -0.4850
  437MOL0     C57572   6.103  11.168   8.067 -0.0155 -0.0653 -0.6881
  437MOL0     C57573   5.975  11.224   8.138 -0.8671  0.1383 -0.1643
  437MOL0     C57574   5.887  11.113   8.189  0.1075 -0.7095  0.1197
  437MOL0     C57575   5.804  11.045   8.082  0.6305  0.4764  0.5454
  437MOL0     O57576   5.737  10.928   8.134 -0.0035  0.0586 -0.1423
  437MOL0     C57577   5.618  10.882   8.072  0.8121 -0.6003 -1.0451
  437MOL0     C57578   5.525  10.817   8.160 -0.7065 -0.9596  0.3516
  437MOL0     C57579   5.400  10.793   8.101  0.3455  0.6760 -0.0791
  437MOL0     C57580   5.367  10.805   7.969  0.1408 -1.4276 -0.3904
  437MOL0     C57581   5.226  10.789   7.923  0.4849 -0.0124  0.3403
  437MOL0     O57582   5.137  10.731   8.008 -0.0409  0.1548 -0.3219
  437MOL0     C57583   5.003  10.714   7.989 -0.1443 -0.8595 -0.1736
  437MOL0     C57584   4.920  10.817   7.935  0.4825 -0.3896  0.0034
  437MOL0     C57585   4.788  10.795   7.908 -0.0086  0.0079  1.0470
  437MOL0     C57586   4.726  10.676   7.940 -0.1384 -0.1364  0.3660
  437MOL0     O57587   4.596  10.653   7.909 -0.2556  0.6713 -0.4494
  437MOL0     C57588   4.547  10.516   7.935 -0.6725  0.2618  0.9295
  437MOL0     C57589   4.402  10.479   7.905 -0.2736  0.1683  0.2649
  437MOL0     C57590   4.336  10.557   7.790 -0.5631 -0.3540  1.0058
  437MOL0     C57591   4.189  10.520   7.772 -0.8630 -0.1681 -0.7361
  437MOL0     C57592   4.128  10.581   7.648  0.0587 -0.0129  0.5158
  437MOL0     C57593   3.977  10.553   7.642 -1.0520  0.2505  0.1547
  437MOL0     C57594   3.921  10.572   7.498  0.0771 -0.0499  0.0291
  437MOL0     C57595   3.773  10.549   7.505 -0.3084  1.0192  0.4385
  437MOL0    Cl57596   3.702  10.535   7.345 -0.3306  0.0470  0.0304
  437MOL0     C57597   4.802  10.578   8.006 -0.4098 -0.2333 -0.2931
  437MOL0     C57598   4.944  10.596   8.032  0.0007  0.0657  0.3496
  437MOL0     O57599   5.191  10.838   7.812 -0.6326 -1.0287 -0.5322
  437MOL0     C57600   5.472  10.838   7.884 -0.2494 -0.5025  0.5446
  437MOL0     C57601   5.598  10.883   7.935 -0.1626 -0.2956  0.2021
  437MOL0     N57602   6.216  11.059   8.272 -0.2474  0.9552  0.9798
  437MOL0     N57603   6.334  11.067   8.315 -0.1898 -0.1648  0.4947
  437MOL0     C57604   7.314  11.297   8.713  0.3391 -0.8822  0.0162
  437MOL0     C57605   7.430  11.328   8.783 -0.7984 -0.1221 -0.4245
  437MOL0     C57606   7.748  11.275   9.135 -0.7453 -0.4708 -0.3782
  437MOL0     C57607   7.764  11.265   9.275 -0.0549  0.6714 -0.7600
  437MOL0     C57608   7.869  11.329   9.339  0.0809  0.3874 -0.1842
  437MOL0     C57609   7.962  11.384   9.250  0.0070  0.4569  0.8182
  437MOL0     O57610   8.065  11.451   9.313 -0.1712  0.2296 -0.1174
  437MOL0     C57611   8.201  11.427   9.276  0.8015 -0.8456 -0.0081
  437MOL0     C57612   8.268  11.546   9.223  0.0479  0.1266 -0.1744
  437MOL0     C57613   8.412  11.510   9.190  0.1731 -0.9675 -0.2190
  437MOL0     C57614   8.515  11.537   9.309 -0.3349 -0.4523  0.3868
  437MOL0     C57615   8.646  11.572   9.260  0.0391  0.3434 -0.2550
  437MOL0     C57616   8.758  11.591   9.229  0.3091 -0.0147  0.4353
  437MOL0     C57617   7.955  11.391   9.114 -0.6259  1.0983  0.8591
  437MOL0     C57618   7.850  11.331   9.053 -0.4302  0.1969 -0.6566
  437MOL0     H57619   7.480  11.032   8.954 -0.9198 -0.3230  0.4806
  437MOL0     H57620   7.306  10.962   8.810 -0.7394 -0.1013  2.1099
  437MOL0     H57621   7.056  11.149   8.842  1.7798 -1.2337  1.3857
  437MOL0     H57622   7.052  10.985   8.780 -1.3533  1.7692  2.5903
  437MOL0     H57623   6.836  11.088   8.759 -0.8223  0.9550 -0.4574
  437MOL0     H57624   6.914  11.068   8.588  3.8169  0.7612 -1.1302
  437MOL0     H57625   6.994  11.313   8.635 -1.0914  2.2863  0.0285
  437MOL0     H57626   6.866  11.313   8.752 -1.9538  1.7807 -1.6063
  437MOL0     H57627   6.794  11.424   8.529  0.8600  0.0350 -5.2996
  437MOL0     H57628   6.848  11.274   8.451 -0.3190  0.0937 -0.0426
  437MOL0     H57629   6.623  11.281   8.654  1.5334  0.2939  0.5791
  437MOL0     H57630   6.660  11.163   8.523 -1.1254  0.4144 -1.6652
  437MOL0     H57631   6.550  11.428   8.457  0.8391  0.6762 -3.1534
  437MOL0     H57632   6.469  11.267   8.468  1.2546 -1.4486 -0.0035
  437MOL0     H57633   6.540  11.360   8.231  1.2785  1.3361  0.6547
  437MOL0     H57634   6.703  11.310   8.271 -0.7162  0.6570  0.2186
  437MOL0     H57635   6.584  11.071   8.308 -0.6147 -0.2844  0.3177
  437MOL0     H57636   6.587  11.142   8.136  0.9299  2.9224  0.7255
  437MOL0     H57637   6.355  11.257   8.057  0.8124 -2.9378 -1.8053
  437MOL0     H57638   6.075  11.080   8.009 -1.4378  0.1244 -0.3435
  437MOL0     H57639   6.129  11.238   7.987 -0.4756  2.2271  1.0592
  437MOL0     H57640   5.924  11.291   8.069  0.1442 -0.0570 -1.1403
  437MOL0     H57641   6.006  11.287   8.222 -0.9195 -1.9019  1.4716
  437MOL0     H57642   5.932  11.039   8.256 -1.2703 -1.4691  0.2581
  437MOL0     H57643   5.825  11.173   8.257  0.6703  0.4275 -0.3495
  437MOL0     H57644   5.872  11.009   8.005 -0.0322 -2.0863  1.0615
  437MOL0     H57645   5.727  11.109   8.038  2.1451  1.5067 -0.7058
  437MOL0     H57646   5.542  10.807   8.267  1.4083  0.6844  0.2426
  437MOL0     H57647   5.325  10.763   8.173  0.5091 -1.1560 -0.6249
  437MOL0     H57648   4.966  10.914   7.918  1.7240 -0.6217  1.7528
  437MOL0     H57649   4.724  10.870   7.862  0.6126  1.3301  2.2709
  437MOL0     H57650   4.562  10.489   8.040 -0.2302  0.2433  0.8633
  437MOL0     H57651   4.612  10.459   7.869  0.3634  0.2356  1.9338
  437MOL0     H57652   4.352  10.497   8.001 -2.4597 -4.2882  0.2033
  437MOL0     H57653   4.387  10.371   7.897  0.3071  0.1393 -0.5273
  437MOL0     H57654   4.399  10.536   7.703  0.7432  1.0988  1.5433
  437MOL0     H57655   4.345  10.666   7.800 -0.8502 -0.2296 -0.0012
  437MOL0     H57656   4.184  10.411   7.758  0.7770 -0.3406 -0.1955
  437MOL0     H57657   4.131  10.554   7.859 -0.9328 -1.9702 -0.0272
  437MOL0     H57658   4.183  10.549   7.559 -0.5416 -0.7998  0.4165
  437MOL0     H57659   4.139  10.690   7.652  1.8947 -0.0577 -1.3569
  437MOL0     H57660   3.926  10.627   7.705 -2.4085  1.0801 -1.8031
  437MOL0     H57661   3.950  10.454   7.679  1.8891 -0.9841 -0.7325
  437MOL0     H57662   3.946  10.667   7.450  1.4555 -1.0812 -1.3914
  437MOL0     H57663   3.961  10.493   7.433  1.1889  0.8031 -0.3528
  437MOL0     H57664   3.721  10.623   7.567  0.8557 -0.1266  2.9380
  437MOL0     H57665   3.755  10.452   7.553  0.5219  1.1675  1.0687
  437MOL0     H57666   4.768  10.482   8.044 -2.0979  0.8403  1.0402
  437MOL0     H57667   5.009  10.515   8.063 -1.0062 -2.1871 -2.9173
  437MOL0     H57668   5.453  10.833   7.777 -2.2827 -1.8475  0.9102
  437MOL0     H57669   5.677  10.921   7.872  0.2833  1.1287  1.5407
  437MOL0     H57670   7.265  11.368   8.647  3.7223  0.4268 -1.3193
  437MOL0     H57671   7.461  11.430   8.764 -2.3376  0.6972  1.1288
  437MOL0     H57672   7.684  11.218   9.330 -1.1440 -1.6108 -4.0290
  437MOL0     H57673   7.891  11.332   9.445  1.6159  3.1240 -0.4763
  437MOL0     H57674   8.203  11.340   9.209 -0.8345 -1.8323  1.1656
  437MOL0     H57675   8.247  11.399   9.371  0.9146  0.4598  0.3368
  437MOL0     H57676   8.208  11.583   9.139 -0.1094  1.1068  0.3571
  437MOL0     H57677   8.268  11.630   9.294 -0.0131 -0.0789  0.0691
  437MOL0     H57678   8.439  11.560   9.096  1.4820 -4.0437 -1.5930
  437MOL0     H57679   8.414  11.402   9.173 -0.8984 -0.7839 -1.7779
  437MOL0     H57680   8.488  11.615   9.380 -0.5544 -1.7871  1.8113
  437MOL0     H57681   8.535  11.448   9.369 -1.8161 -0.6400  0.6443
  437MOL0     H57682   8.863  11.597   9.210  1.0810 -1.9963  3.3306
  437MOL0     H57683   8.035  11.431   9.053 -0.9594  2.7026  1.4269
  437MOL0     H57684   7.850  11.345   8.945  4.3376 -0.2356 -0.9088
  438MOL0     O57685   0.844   9.262   2.812  0.4914 -0.3912 -0.0276
  438MOL0     C57686   0.828   9.381   2.829 -0.7789 -0.3425 -0.1052
  438MOL0     O57687   0.732   9.442   2.895  0.6305  0.0030 -0.4876
  438MOL0     C57688   0.626   9.363   2.931  0.3152 -0.3423 -0.2257
  438MOL0     C57689   0.607   9.351   3.065  0.1952  1.1189 -1.1759
  438MOL0     C57690   0.495   9.300   3.114 -0.1951 -0.6121 -0.3949
  438MOL0     C57691   0.395   9.239   3.035 -0.0233 -0.5740  0.0748
  438MOL0     O57692   0.279   9.178   3.069  0.0850  0.3931  0.5249
  438MOL0     C57693   0.280   9.103   3.183 -0.9148 -0.0673 -0.2877
  438MOL0     C57694   0.229   9.185   3.294 -0.1675 -0.0303 -0.1850
  438MOL0     C57695   0.082   9.197   3.321 -0.1105 -0.4568 -0.0403
  438MOL0     C57696   0.003   9.272   3.214  0.4038  0.4217  0.3620
  438MOL0     C57697  -0.137   9.312   3.268 -0.5109  0.0135  0.2648
  438MOL0     C57698  -0.157   9.369   3.411 -0.0432 -0.2342  0.5362
  438MOL0     C57699  -0.059   9.483   3.456 -0.2980 -0.1104 -0.5337
  438MOL0     C57700  -0.091   9.604   3.372 -0.3159 -0.4977 -0.2784
  438MOL0     N57701  -0.225   9.664   3.404 -0.2407  0.1674  0.3197
  438MOL0     C57702  -0.262   9.723   3.525 -0.7162  0.1227 -0.2520
  438MOL0     C57703  -0.396   9.730   3.523 -0.2048 -1.2657 -0.8355
  438MOL0     C57704  -0.469   9.772   3.652  0.4545  0.3023  0.1848
  438MOL0     C57705  -0.613   9.819   3.615  0.2841 -1.2921  0.0732
  438MOL0     C57706  -0.683   9.873   3.740  0.2165 -0.7196  0.6334
  438MOL0     C57707  -0.827   9.919   3.720 -0.8679  0.3393 -0.6642
  438MOL0     O57708  -0.902   9.952   3.849 -0.0799  0.4845  0.4747
  438MOL0     C57709  -1.025  10.003   3.825  0.6285 -0.6356 -0.7202
  438MOL0     C57710  -1.088  10.026   3.704  0.1030  0.0816 -0.5381
  438MOL0     C57711  -1.211  10.095   3.702 -0.3644 -0.4824  0.2546
  438MOL0     C57712  -1.267  10.145   3.823  0.1401 -0.4845  0.0765
  438MOL0     C57713  -1.389  10.240   3.809 -0.2894  0.0608 -0.5303
  438MOL0     O57714  -1.433  10.295   3.933  0.5573 -0.8162 -0.6784
  438MOL0     C57715  -1.552  10.365   3.932  0.4622  0.3286 -0.0469
  438MOL0     C57716  -1.566  10.502   3.897 -0.2833 -0.1413  0.5371
  438MOL0     C57717  -1.693  10.571   3.896 -1.1201  0.1743  0.4504
  438MOL0     C57718  -1.795  10.499   3.953  0.3697 -0.2658 -0.2623
  438MOL0     O57719  -1.907  10.572   3.969  0.2758 -0.1272  0.1347
  438MOL0     C57720  -2.033  10.522   3.925  0.0549  1.0661 -0.3611
  438MOL0     C57721  -2.153  10.618   3.947 -0.4804 -0.8356  0.0465
  438MOL0     C57722  -2.278  10.561   3.882 -0.3998  0.7165 -0.3993
  438MOL0     C57723  -2.401  10.651   3.890  0.0505 -0.0018  0.1340
  438MOL0     C57724  -2.523  10.588   3.836  0.3118 -0.0305 -0.3477
  438MOL0     C57725  -2.630  10.697   3.794 -0.0804 -0.0788 -1.2871
  438MOL0     C57726  -2.686  10.784   3.903 -0.3259 -0.0888 -0.4661
  438MOL0     C57727  -2.796  10.876   3.864  0.3485  0.3821  0.3779
  438MOL0    Cl57728  -2.728  11.028   3.796  0.0272  0.0576  0.2982
  438MOL0     C57729  -1.775  10.369   4.002  0.0738  0.4391  0.1802
  438MOL0     C57730  -1.660  10.301   3.983  0.3135  0.9823  0.6271
  438MOL0     O57731  -1.451  10.252   3.700 -0.5206  0.6826 -0.6393
  438MOL0     C57732  -1.211  10.116   3.949  0.0469  0.2656  0.8788
  438MOL0     C57733  -1.084  10.049   3.946  0.0548 -0.2612  0.2002
  438MOL0     N57734  -0.443   9.666   3.410 -0.3502  0.5129 -0.3791
  438MOL0     N57735  -0.336   9.633   3.339  0.4740  0.0916 -0.0082
  438MOL0     C57736   0.417   9.251   2.897 -0.2908 -1.0138 -0.0308
  438MOL0     C57737   0.524   9.317   2.847 -0.0173 -0.0420  1.0232
  438MOL0     C57738   0.934   9.472   2.774 -0.3704 -0.2896 -0.3477
  438MOL0     C57739   0.910   9.607   2.754 -0.5226  0.5603  1.0260
  438MOL0     C57740   1.007   9.684   2.689  0.0491  0.0675 -0.5990
  438MOL0     C57741   1.120   9.626   2.639  0.8027  0.0858  0.1825
  438MOL0     O57742   1.216   9.704   2.580  0.3937  0.1221  0.9182
  438MOL0     C57743   1.233   9.678   2.436 -0.5663  0.2465  0.1083
  438MOL0     C57744   1.382   9.668   2.400 -0.1261  0.2866  0.9680
  438MOL0     C57745   1.446   9.806   2.403 -0.4322 -0.3801  0.1289
  438MOL0     C57746   1.598   9.803   2.371 -0.3523  0.3515  0.0970
  438MOL0     C57747   1.641   9.941   2.392 -0.4888 -1.0953 -0.1996
  438MOL0     C57748   1.682  10.056   2.401  1.0273 -0.5780 -0.1040
  438MOL0     C57749   1.142   9.489   2.658 -1.2753 -0.8546 -0.1259
  438MOL0     C57750   1.052   9.412   2.719  0.7342 -0.0561 -1.3754
  438MOL0     H57751   0.670   9.399   3.139 -0.9485  0.2189  0.4168
  438MOL0     H57752   0.489   9.301   3.223  0.0420  1.7329 -0.3550
  438MOL0     H57753   0.383   9.067   3.194 -1.1456 -1.1926 -1.5588
  438MOL0     H57754   0.214   9.016   3.181  0.1514 -0.8887 -1.6172
  438MOL0     H57755   0.272   9.285   3.283  1.6617 -1.0807 -6.5242
  438MOL0     H57756   0.268   9.139   3.385  0.6166 -2.8992 -1.8470
  438MOL0     H57757   0.079   9.256   3.413  1.3173  0.2052 -0.4014
  438MOL0     H57758   0.036   9.100   3.344 -1.8964  0.1770 -0.7487
  438MOL0     H57759   0.054   9.363   3.182 -0.1384  0.8401  0.6730
  438MOL0     H57760   0.001   9.207   3.125 -0.7366 -0.4163  0.9755
  438MOL0     H57761  -0.207   9.229   3.262 -0.7909  0.1589  1.3294
  438MOL0     H57762  -0.174   9.395   3.207  0.0264  0.4474  0.5176
  438MOL0     H57763  -0.150   9.276   3.469  2.1196 -0.4323  0.0408
  438MOL0     H57764  -0.261   9.395   3.431 -0.1251 -0.5172  0.4805
  438MOL0     H57765  -0.077   9.497   3.563  1.3397  4.2716 -0.6191
  438MOL0     H57766   0.045   9.452   3.446  0.2045  2.0115 -2.6973
  438MOL0     H57767  -0.076   9.603   3.263  2.0564 -1.9750 -0.0109
  438MOL0     H57768  -0.020   9.679   3.407 -0.3113  1.1928 -3.4891
  438MOL0     H57769  -0.201   9.739   3.613 -2.3843  1.3557  0.7286
  438MOL0     H57770  -0.415   9.854   3.699  2.2576 -0.4769 -0.4459
  438MOL0     H57771  -0.476   9.684   3.717 -0.3780  0.7752  0.7559
  438MOL0     H57772  -0.678   9.743   3.569 -1.8923  1.3909 -1.6416
  438MOL0     H57773  -0.616   9.892   3.534 -0.7609 -0.1904  1.0686
  438MOL0     H57774  -0.699   9.792   3.811 -1.9539  0.4952  1.6378
  438MOL0     H57775  -0.634   9.957   3.789 -0.8807  0.1286  0.3158
  438MOL0     H57776  -0.871   9.840   3.659  2.2938 -0.5221 -2.0435
  438MOL0     H57777  -0.829  10.003   3.649 -2.9860  1.6567  0.8360
  438MOL0     H57778  -1.031  10.009   3.613  2.0423  0.4967  0.5403
  438MOL0     H57779  -1.258  10.113   3.605 -2.1065 -1.4346  0.8784
  438MOL0     H57780  -1.483  10.568   3.874 -1.6662  1.0525 -1.4008
  438MOL0     H57781  -1.708  10.677   3.874 -0.3892  0.5878  1.8510
  438MOL0     H57782  -2.054  10.428   3.977  1.5190  1.1868  0.4811
  438MOL0     H57783  -2.022  10.508   3.817  3.7512  0.9417 -0.0863
  438MOL0     H57784  -2.136  10.714   3.897  0.1332  0.1444  2.0334
  438MOL0     H57785  -2.170  10.637   4.053  0.2119 -1.0759  0.2079
  438MOL0     H57786  -2.306  10.468   3.933 -0.4640  0.3135 -1.1628
  438MOL0     H57787  -2.259  10.531   3.779 -1.5443 -0.7544 -0.2211
  438MOL0     H57788  -2.433  10.667   3.994 -0.4651 -0.5407  0.0603
  438MOL0     H57789  -2.377  10.748   3.846 -1.5998  1.2567  1.8476
  438MOL0     H57790  -2.566  10.519   3.909  2.0690 -2.6690 -1.6630
  438MOL0     H57791  -2.480  10.533   3.753  2.2926  0.0904  0.5471
  438MOL0     H57792  -2.711  10.637   3.752 -0.9510 -0.0369  0.2653
  438MOL0     H57793  -2.590  10.749   3.706  0.7824  0.9012 -0.3461
  438MOL0     H57794  -2.730  10.723   3.982  1.8478  1.6844  2.2700
  438MOL0     H57795  -2.605  10.836   3.955  1.0357 -3.6590  1.2671
  438MOL0     H57796  -2.856  10.903   3.952  0.7859 -2.6756  1.7259
  438MOL0     H57797  -2.856  10.813   3.798  0.0898 -1.0008  1.8523
  438MOL0     H57798  -1.854  10.316   4.055  0.6925 -0.3091  0.3657
  438MOL0     H57799  -1.645  10.197   4.012  1.8971  1.0227  0.0299
  438MOL0     H57800  -1.253  10.141   4.046 -0.5685 -1.2403  1.0382
  438MOL0     H57801  -1.024  10.022   4.033  0.8094 -2.0675 -0.8364
  438MOL0     H57802   0.337   9.215   2.833 -2.4192 -0.0180  1.9259
  438MOL0     H57803   0.533   9.332   2.740  0.9173  0.3912  1.1510
  438MOL0     H57804   0.810   9.646   2.770 -1.0438 -0.5280  0.4923
  438MOL0     H57805   0.993   9.788   2.663 -0.3377  0.4443  0.9841
  438MOL0     H57806   1.181   9.761   2.386  0.1963  0.5288 -0.2208
  438MOL0     H57807   1.176   9.592   2.398 -1.6441  0.8466  0.3195
  438MOL0     H57808   1.437   9.604   2.470  2.5920 -0.7625 -1.9340
  438MOL0     H57809   1.408   9.627   2.302 -0.3418  0.0040  1.0273
  438MOL0     H57810   1.442   9.849   2.503 -1.7742  1.0922 -0.5199
  438MOL0     H57811   1.380   9.869   2.343 -3.8591 -1.8444  2.0490
  438MOL0     H57812   1.646   9.740   2.447  3.7511  0.5022 -2.0855
  438MOL0     H57813   1.629   9.762   2.275  0.7013 -2.0856  1.3897
  438MOL0     H57814   1.709  10.159   2.412 -1.3289  0.0016  0.8109
  438MOL0     H57815   1.240   9.463   2.619 -1.7870 -4.0360  0.4646
  438MOL0     H57816   1.074   9.308   2.743  1.2822  0.6477  1.4617
  439MOL0     O57817   4.575   7.104   3.369  0.1107 -0.1087  0.3630
  439MOL0     C57818   4.620   7.028   3.460 -0.1616 -0.7849 -0.8076
  439MOL0     O57819   4.544   6.934   3.518 -0.3261  0.1644 -0.3830
  439MOL0     C57820   4.416   6.933   3.488 -0.1903  0.3271  0.4198
  439MOL0     C57821   4.353   6.823   3.430 -0.8136  0.5050 -0.1804
  439MOL0     C57822   4.219   6.816   3.401 -0.4094  0.3771 -0.0358
  439MOL0     C57823   4.135   6.924   3.419 -0.2367 -0.1584 -0.0093
  439MOL0     O57824   4.008   6.903   3.379  0.7199 -0.1004  0.4306
  439MOL0     C57825   3.910   7.007   3.396 -0.0865  0.1331 -0.4607
  439MOL0     C57826   3.778   6.939   3.398 -0.6439 -0.5122 -0.5291
  439MOL0     C57827   3.762   6.846   3.519 -1.3335 -0.2937  0.0642
  439MOL0     C57828   3.610   6.806   3.540  0.0110 -0.1675 -0.0208
  439MOL0     C57829   3.523   6.905   3.605  0.1822  0.2021  0.1236
  439MOL0     C57830   3.403   6.838   3.682  0.6575  0.7967 -0.1360
  439MOL0     C57831   3.307   6.944   3.741 -0.1207 -0.3556  0.0315
  439MOL0     C57832   3.177   6.898   3.800 -0.2468  0.5131 -0.1487
  439MOL0     N57833   3.054   6.972   3.761 -0.2039  0.2330  0.0204
  439MOL0     C57834   3.020   7.005   3.629 -1.2861  0.8856 -1.0530
  439MOL0     C57835   2.892   7.044   3.645  0.2636 -0.4549  0.4199
  439MOL0     C57836   2.808   7.094   3.530 -0.1609 -0.0881 -0.3321
  439MOL0     C57837   2.662   7.040   3.530  0.0510  0.1900  0.6500
  439MOL0     C57838   2.578   7.094   3.423  0.3890 -0.8244 -0.5734
  439MOL0     C57839   2.455   7.013   3.382  0.2116  0.3838 -0.6809
  439MOL0     O57840   2.343   7.099   3.353 -0.0008  0.0221  0.4947
  439MOL0     C57841   2.231   7.043   3.294 -0.9640  0.3272 -0.2218
  439MOL0     C57842   2.219   6.905   3.259  0.7654 -0.0323  0.2689
  439MOL0     C57843   2.094   6.855   3.204 -0.6189  0.3963  0.3281
  439MOL0     C57844   1.980   6.935   3.188 -0.5052 -0.9429  0.6143
  439MOL0     C57845   1.844   6.892   3.138 -0.2797 -0.3780  0.4092
  439MOL0     O57846   1.823   6.756   3.111  0.6438 -0.1093  0.1055
  439MOL0     C57847   1.692   6.718   3.095  0.2834  0.2491 -0.0057
  439MOL0     C57848   1.652   6.637   2.988 -0.4296 -1.5030  0.1819
  439MOL0     C57849   1.525   6.586   2.964  0.1182 -0.2970  0.3906
  439MOL0     C57850   1.424   6.622   3.062 -0.3039 -0.5233  0.2369
  439MOL0     O57851   1.293   6.581   3.048 -0.2029  0.3169  0.3761
  439MOL0     C57852   1.248   6.527   2.923 -0.4407 -0.5099 -0.9527
  439MOL0     C57853   1.106   6.485   2.952  0.5563 -0.3973  0.1366
  439MOL0     C57854   1.013   6.611   2.939  0.2679  0.4947  0.1978
  439MOL0     C57855   0.879   6.579   3.002 -0.6154 -1.5279  0.9488
  439MOL0     C57856   0.795   6.705   3.021  0.4472 -0.5992 -0.4927
  439MOL0     C57857   0.648   6.665   3.013 -0.0004  0.6106 -0.7713
  439MOL0     C57858   0.568   6.792   2.991  0.5411 -0.4901  0.3462
  439MOL0     C57859   0.421   6.775   2.952  0.7711  0.0517  0.4277
  439MOL0    Cl57860   0.329   6.733   3.091 -0.4683 -0.0382  0.4664
  439MOL0     C57861   1.461   6.704   3.169 -0.3554  0.1708 -0.5838
  439MOL0     C57862   1.589   6.748   3.186 -0.4047  0.4614  0.3316
  439MOL0     O57863   1.755   6.975   3.127 -0.3114 -0.6749  0.3626
  439MOL0     C57864   1.994   7.070   3.236 -0.0854  0.6280  0.0612
  439MOL0     C57865   2.116   7.116   3.286 -0.4343  0.4722 -0.0269
  439MOL0     N57866   2.845   7.027   3.773 -0.0184 -0.6918 -0.4789
  439MOL0     N57867   2.945   6.985   3.846  0.2598  0.5757 -0.2551
  439MOL0     C57868   4.191   7.035   3.494  0.0379  0.5458 -0.2575
  439MOL0     C57869   4.325   7.032   3.529 -0.1535 -0.0645  0.4262
  439MOL0     C57870   4.757   7.033   3.505  0.4771 -0.0489 -0.3289
  439MOL0     C57871   4.812   6.955   3.605 -0.9414  0.6342 -1.0754
  439MOL0     C57872   4.933   6.978   3.673  0.1055 -0.5134  0.3406
  439MOL0     C57873   5.023   7.076   3.610  0.1221  1.1315 -0.3228
  439MOL0     O57874   5.139   7.103   3.671 -0.2948 -0.0013 -0.3551
  439MOL0     C57875   5.206   7.228   3.652  0.0820  0.4771 -0.3763
  439MOL0     C57876   5.361   7.213   3.670 -0.1407 -0.2956 -0.3382
  439MOL0     C57877   5.427   7.114   3.576 -0.3083  0.1672  0.1020
  439MOL0     C57878   5.578   7.115   3.583 -0.8806  0.3141  0.7319
  439MOL0     C57879   5.616   7.068   3.715 -0.3135 -0.4419 -0.0803
  439MOL0     C57880   5.631   7.002   3.818  0.1616  0.5420  0.1463
  439MOL0     C57881   4.965   7.151   3.505 -0.7931  0.0926  0.3863
  439MOL0     C57882   4.837   7.137   3.458  0.3414  0.0999  0.9158
  439MOL0     H57883   4.400   6.733   3.392 -0.2982  0.1181  1.2914
  439MOL0     H57884   4.175   6.731   3.349  0.7240  0.5565 -1.3357
  439MOL0     H57885   3.914   7.083   3.317  3.5962  0.5523 -0.0324
  439MOL0     H57886   3.929   7.067   3.486 -0.8582  1.3890 -1.0961
  439MOL0     H57887   3.761   6.881   3.307  0.1735  1.1655 -1.8129
  439MOL0     H57888   3.702   7.018   3.409  0.0713  0.2711 -1.0669
  439MOL0     H57889   3.794   6.917   3.596 -1.5378  2.2539 -2.0740
  439MOL0     H57890   3.817   6.752   3.517 -1.9747 -0.8467  3.2645
  439MOL0     H57891   3.574   6.795   3.437  2.7921  2.8917 -1.4990
  439MOL0     H57892   3.613   6.711   3.594 -1.9530 -0.6284 -0.6593
  439MOL0     H57893   3.498   6.978   3.527 -0.3513  1.1988  1.1978
  439MOL0     H57894   3.588   6.963   3.671  1.3628  2.3198 -2.7045
  439MOL0     H57895   3.438   6.774   3.764 -2.5407 -2.5138 -1.0625
  439MOL0     H57896   3.358   6.771   3.609  3.5220 -0.3344 -0.9979
  439MOL0     H57897   3.354   7.012   3.813 -1.8772  3.0730 -1.8074
  439MOL0     H57898   3.297   7.014   3.657  1.7719 -0.2829 -0.1867
  439MOL0     H57899   3.195   6.899   3.907  1.1156  2.9155 -0.3297
  439MOL0     H57900   3.165   6.793   3.774 -1.0350 -0.2463  2.9072
  439MOL0     H57901   3.081   7.017   3.540 -0.3801 -1.4185 -0.8111
  439MOL0     H57902   2.862   7.050   3.446  0.5142 -2.9922  1.4970
  439MOL0     H57903   2.804   7.204   3.529 -1.0426 -0.1149 -1.4839
  439MOL0     H57904   2.617   7.081   3.621 -1.3195  2.0233 -0.7699
  439MOL0     H57905   2.655   6.931   3.529  0.7791  0.1382  0.5026
  439MOL0     H57906   2.535   7.190   3.455  0.4752 -1.0023  0.0840
  439MOL0     H57907   2.640   7.113   3.335  2.3233 -0.5128  0.8045
  439MOL0     H57908   2.420   6.938   3.454  1.6348  0.1482 -0.1857
  439MOL0     H57909   2.491   6.959   3.294 -0.3825  3.3108 -2.8519
  439MOL0     H57910   2.310   6.845   3.255  1.5094  0.9469  1.7429
  439MOL0     H57911   2.089   6.750   3.180  2.2051  0.3350 -0.3660
  439MOL0     H57912   1.739   6.619   2.925 -0.6564  1.5603 -1.2192
  439MOL0     H57913   1.508   6.524   2.877 -1.1309  1.8071 -0.9534
  439MOL0     H57914   1.308   6.443   2.887 -0.7378 -2.3735  2.4477
  439MOL0     H57915   1.251   6.609   2.850  0.5444  1.4266  1.1263
  439MOL0     H57916   1.105   6.458   3.058  3.3000  0.6092  0.4882
  439MOL0     H57917   1.073   6.396   2.898 -1.6146 -0.8224  1.9747
  439MOL0     H57918   0.993   6.638   2.835 -1.2195  1.1459  0.6301
  439MOL0     H57919   1.054   6.692   3.000  0.5135 -1.7531  3.2431
  439MOL0     H57920   0.821   6.516   2.935  0.4061 -1.0307 -0.4610
  439MOL0     H57921   0.898   6.524   3.095 -1.0981 -3.7767 -0.2088
  439MOL0     H57922   0.818   6.783   2.948 -1.5992 -1.7669 -2.5128
  439MOL0     H57923   0.802   6.756   3.117 -0.7145 -0.8227 -0.2739
  439MOL0     H57924   0.625   6.624   3.112  3.4817 -1.1457 -0.5141
  439MOL0     H57925   0.619   6.598   2.932  0.7574  2.4529 -2.6824
  439MOL0     H57926   0.570   6.852   3.082 -1.9024 -0.8960  0.7315
  439MOL0     H57927   0.611   6.847   2.906 -1.2165  1.3720  0.5806
  439MOL0     H57928   0.409   6.712   2.864  0.3590  1.3905 -0.5075
  439MOL0     H57929   0.392   6.875   2.918  0.4430 -1.0538 -2.8454
  439MOL0     H57930   1.395   6.721   3.254 -0.5579 -2.2965 -0.1694
  439MOL0     H57931   1.606   6.803   3.278  4.2743 -0.2399  0.0939
  439MOL0     H57932   1.916   7.144   3.220  1.2796  1.8741 -1.2037
  439MOL0     H57933   2.127   7.221   3.314 -0.5051  0.4816 -0.0315
  439MOL0     H57934   4.143   7.131   3.512 -2.7558 -0.6886 -0.5484
  439MOL0     H57935   4.364   7.117   3.586  1.2214 -0.0276 -0.5177
  439MOL0     H57936   4.754   6.871   3.642 -0.4218  1.1747  1.1191
  439MOL0     H57937   4.966   6.929   3.764  0.8825  0.3152  0.5265
  439MOL0     H57938   5.166   7.298   3.726 -1.3658 -2.3010  1.6672
  439MOL0     H57939   5.189   7.265   3.551  0.0106 -1.4085 -1.0920
  439MOL0     H57940   5.404   7.312   3.652  2.8472 -1.2791  0.7735
  439MOL0     H57941   5.380   7.193   3.776 -0.6497  0.9900  0.0196
  439MOL0     H57942   5.401   7.151   3.476  5.6283  0.3639 -1.7121
  439MOL0     H57943   5.392   7.011   3.587 -0.6243  0.3217  0.5803
  439MOL0     H57944   5.607   7.043   3.506 -0.2298 -3.5486  4.2492
  439MOL0     H57945   5.625   7.213   3.566 -3.6411  1.5172 -0.8100
  439MOL0     H57946   5.618   6.940   3.904 -1.3367  1.9177  0.9734
  439MOL0     H57947   5.024   7.232   3.463  2.5210 -0.4018  3.6660
  439MOL0     H57948   4.794   7.209   3.389 -0.0336 -0.1728  0.8634
  440MOL0     O57949   5.610   7.391   4.255 -0.4801  0.0541 -0.7626
  440MOL0     C57950   5.650   7.409   4.137 -0.9886  0.4674 -0.8408
  440MOL0     O57951   5.566   7.415   4.029 -0.0143 -0.4534  0.8403
  440MOL0     C57952   5.438   7.370   4.026 -0.0127 -1.3267 -0.0013
  440MOL0     C57953   5.322   7.448   4.037 -0.3090  0.1085 -0.8653
  440MOL0     C57954   5.196   7.389   4.035 -0.1277 -0.1339  0.0901
  440MOL0     C57955   5.191   7.246   4.058  0.5152 -2.0702 -0.7182
  440MOL0     O57956   5.079   7.167   4.087  0.5606  0.5144 -0.5435
  440MOL0     C57957   4.952   7.234   4.090 -0.0559 -0.0102  0.0570
  440MOL0     C57958   4.841   7.139   4.040  0.0584  0.0770 -0.2089
  440MOL0     C57959   4.704   7.205   4.065  0.7049 -0.1031 -0.5468
  440MOL0     C57960   4.586   7.111   4.028 -0.3922  0.3318 -0.1118
  440MOL0     C57961   4.456   7.180   4.045  0.0092  0.6504  0.0495
  440MOL0     C57962   4.344   7.091   3.998 -0.0273 -0.5302  0.5310
  440MOL0     C57963   4.223   7.177   3.956  0.2829 -0.1899 -0.0274
  440MOL0     C57964   4.100   7.090   3.924 -0.3823  0.1660 -0.3247
  440MOL0     N57965   3.989   7.171   3.869  0.6367  0.0990 -0.2825
  440MOL0     C57966   3.908   7.253   3.941 -0.5071 -0.0337  0.0253
  440MOL0     C57967   3.809   7.293   3.859 -0.1970 -0.3989  0.1984
  440MOL0     C57968   3.695   7.389   3.888 -0.1962  0.4877  0.0894
  440MOL0     C57969   3.569   7.310   3.912 -0.0110 -0.3826 -0.0569
  440MOL0     C57970   3.440   7.397   3.920 -0.1411  0.4812  0.3300
  440MOL0     C57971   3.319   7.307   3.959  0.9311 -0.7612 -0.7512
  440MOL0     O57972   3.330   7.285   4.100  0.4851  0.9370 -0.3741
  440MOL0     C57973   3.219   7.234   4.166 -0.3677 -0.2509 -0.5660
  440MOL0     C57974   3.108   7.179   4.106  0.3279 -0.9531  0.4061
  440MOL0     C57975   3.004   7.126   4.184 -0.5126  0.6119  0.4645
  440MOL0     C57976   3.005   7.123   4.322  0.0993  0.7231 -0.3479
  440MOL0     C57977   2.889   7.078   4.406 -0.8481  0.0748 -0.6278
  440MOL0     O57978   2.791   7.002   4.337 -0.2634 -0.4296  0.1461
  440MOL0     C57979   2.669   6.976   4.393  0.2246 -0.1229 -0.1799
  440MOL0     C57980   2.626   6.843   4.382 -0.0316  0.7758  0.1907
  440MOL0     C57981   2.513   6.804   4.438 -0.4125 -0.6616  0.5644
  440MOL0     C57982   2.425   6.899   4.497  0.4394  0.4770 -0.3054
  440MOL0     O57983   2.305   6.871   4.550  0.1495 -0.3002 -1.3320
  440MOL0     C57984   2.240   6.759   4.490 -0.2433  0.1085  0.1867
  440MOL0     C57985   2.092   6.759   4.539 -0.4506  0.1407  0.0191
  440MOL0     C57986   2.003   6.661   4.461 -0.1713  0.0084  0.2040
  440MOL0     C57987   1.855   6.680   4.501  0.3122  0.2312 -0.8030
  440MOL0     C57988   1.768   6.621   4.399 -0.0694  0.5394  0.1973
  440MOL0     C57989   1.797   6.478   4.362 -0.2318 -0.2933  0.3317
  440MOL0     C57990   1.672   6.403   4.307  0.4281  1.2027  0.0733
  440MOL0     C57991   1.718   6.258   4.306 -0.3675 -0.9411  0.2231
  440MOL0    Cl57992   1.728   6.183   4.468  0.3643  0.3712  0.0433
  440MOL0     C57993   2.461   7.032   4.498  0.3028 -0.1788  0.0558
  440MOL0     C57994   2.583   7.070   4.449  0.0667 -0.6568 -0.2798
  440MOL0     O57995   2.880   7.123   4.518 -0.2612  0.9477 -0.0423
  440MOL0     C57996   3.118   7.180   4.379 -0.3739  0.1142 -0.7076
  440MOL0     C57997   3.228   7.229   4.306  0.4262 -0.4798 -0.0597
  440MOL0     N57998   3.823   7.230   3.747  0.4903  0.0125  0.3209
  440MOL0     N57999   3.934   7.161   3.741 -0.1670  1.0224 -0.7536
  440MOL0     C58000   5.312   7.176   4.048 -0.2158  0.6955  0.1322
  440MOL0     C58001   5.431   7.239   4.024 -0.9350 -0.1290 -0.5288
  440MOL0     C58002   5.796   7.438   4.118 -0.0915 -0.2134  0.4419
  440MOL0     C58003   5.889   7.421   4.218  0.3792  0.6489 -0.5682
  440MOL0     C58004   6.022   7.438   4.203 -0.7940  0.3089  0.1531
  440MOL0     C58005   6.080   7.477   4.080 -0.0385 -0.3522  0.5136
  440MOL0     O58006   6.217   7.498   4.072 -0.5399 -0.6210 -0.8445
  440MOL0     C58007   6.279   7.546   3.956  0.3959 -0.3074  0.1068
  440MOL0     C58008   6.426   7.555   3.975 -1.4422  0.4541 -0.1430
  440MOL0     C58009   6.455   7.661   4.075 -0.3319  0.5498  0.2629
  440MOL0     C58010   6.607   7.680   4.088  0.2210 -0.1583  0.4702
  440MOL0     C58011   6.673   7.720   3.958  0.1740  0.1126 -0.2051
  440MOL0     C58012   6.699   7.753   3.844  0.4204 -0.0902 -0.9533
  440MOL0     C58013   5.990   7.496   3.971 -0.2596 -0.0184  0.5046
  440MOL0     C58014   5.847   7.481   3.989 -0.0067  0.2752  0.1129
  440MOL0     H58015   5.333   7.556   4.045 -1.5266  0.1483  0.9499
  440MOL0     H58016   5.116   7.461   4.020 -1.2921 -1.5986 -0.9575
  440MOL0     H58017   4.950   7.317   4.018 -2.8488  0.5010  0.5919
  440MOL0     H58018   4.924   7.265   4.191 -1.7709 -0.2456 -0.3241
  440MOL0     H58019   4.850   7.045   4.096 -0.5422 -1.2669 -2.2764
  440MOL0     H58020   4.854   7.110   3.936 -1.4153  1.9869 -0.9639
  440MOL0     H58021   4.695   7.304   4.020  3.3129 -0.0112 -1.0331
  440MOL0     H58022   4.695   7.219   4.174 -1.4869 -2.0045 -0.4198
  440MOL0     H58023   4.602   7.080   3.924  2.7946  3.2819 -0.6785
  440MOL0     H58024   4.591   7.016   4.083  1.7094  0.0385 -0.7107
  440MOL0     H58025   4.454   7.274   3.989  2.6526  1.5597  1.3217
  440MOL0     H58026   4.432   7.196   4.151 -0.3708 -2.2273  0.4720
  440MOL0     H58027   4.313   7.023   4.077 -1.0980  1.3523  1.8129
  440MOL0     H58028   4.379   7.039   3.908 -1.7096  0.9554 -1.0698
  440MOL0     H58029   4.192   7.241   4.039 -0.3635 -0.5339  0.0009
  440MOL0     H58030   4.254   7.235   3.868  0.2934  1.6493  1.1376
  440MOL0     H58031   4.077   7.036   4.016 -0.4503  1.5119  0.4813
  440MOL0     H58032   4.134   7.021   3.846 -1.9602 -0.2807 -0.6582
  440MOL0     H58033   3.930   7.293   4.039 -0.9775  3.9989 -1.3511
  440MOL0     H58034   3.682   7.458   3.804  1.1923  2.1553  1.1877
  440MOL0     H58035   3.721   7.456   3.970 -1.0186  2.1797 -0.9750
  440MOL0     H58036   3.597   7.252   4.000  2.0802 -0.5912 -0.8051
  440MOL0     H58037   3.557   7.233   3.836 -0.6895 -0.0776 -0.2630
  440MOL0     H58038   3.455   7.475   3.995  0.6609 -0.2081  0.9022
  440MOL0     H58039   3.418   7.444   3.824 -0.0787  1.5930  0.8425
  440MOL0     H58040   3.333   7.209   3.913  3.8219 -1.7889  2.0085
  440MOL0     H58041   3.221   7.351   3.936  1.9250  1.6401 -0.7075
  440MOL0     H58042   3.105   7.170   3.998  0.8899  0.4156  0.2600
  440MOL0     H58043   2.922   7.075   4.135 -3.2518  4.2209  0.8875
  440MOL0     H58044   2.690   6.772   4.331 -0.6057  0.7351 -0.4895
  440MOL0     H58045   2.487   6.699   4.432  0.8515 -0.9174 -1.1221
  440MOL0     H58046   2.292   6.666   4.514 -1.2702 -1.4198 -3.0105
  440MOL0     H58047   2.237   6.766   4.381 -1.7836  0.8255  0.2534
  440MOL0     H58048   2.053   6.861   4.541  0.1613  0.3793  0.2270
  440MOL0     H58049   2.087   6.721   4.642  2.9512 -1.9995 -0.4317
  440MOL0     H58050   2.044   6.561   4.477  1.6629  0.8972  1.4323
  440MOL0     H58051   2.004   6.698   4.359  1.4738  0.6329  0.4265
  440MOL0     H58052   1.842   6.630   4.597 -0.3080 -0.6515 -1.3323
  440MOL0     H58053   1.830   6.786   4.514  0.0825 -0.0258  0.9936
  440MOL0     H58054   1.759   6.680   4.307  1.8129 -1.2171 -1.2193
  440MOL0     H58055   1.663   6.626   4.431  0.6255  1.4188  2.5246
  440MOL0     H58056   1.816   6.423   4.454 -1.5576  0.2195  0.9294
  440MOL0     H58057   1.889   6.463   4.304  0.4408  0.2238  1.2377
  440MOL0     H58058   1.582   6.418   4.368 -1.6175  0.3121 -2.5071
  440MOL0     H58059   1.653   6.434   4.203 -0.5340 -0.9945 -0.4707
  440MOL0     H58060   1.815   6.238   4.257 -0.9565 -3.0439 -0.2027
  440MOL0     H58061   1.643   6.205   4.247 -0.5013 -0.6775  0.1556
  440MOL0     H58062   2.399   7.103   4.552  0.8137  0.9559 -0.8216
  440MOL0     H58063   2.605   7.176   4.457 -0.6753 -0.3765 -1.6638
  440MOL0     H58064   3.129   7.171   4.487 -2.8929 -1.6768 -0.4851
  440MOL0     H58065   3.315   7.281   4.344 -0.3967  0.6144  0.3854
  440MOL0     H58066   5.303   7.068   4.055  0.7001  0.6796  1.3722
  440MOL0     H58067   5.523   7.181   4.012 -2.4523 -2.5740 -1.1653
  440MOL0     H58068   5.839   7.379   4.304 -1.3780 -0.1671 -1.9339
  440MOL0     H58069   6.081   7.419   4.292 -2.1673  1.0484  1.2575
  440MOL0     H58070   6.241   7.644   3.924 -0.6733 -0.0722  1.9661
  440MOL0     H58071   6.262   7.471   3.878 -0.2574 -0.4642  0.3914
  440MOL0     H58072   6.461   7.464   4.025 -0.0212  1.3172  0.5133
  440MOL0     H58073   6.468   7.569   3.875 -1.1240 -0.0031 -0.0789
  440MOL0     H58074   6.414   7.634   4.172  1.2751 -4.5338 -0.1810
  440MOL0     H58075   6.398   7.754   4.064 -0.0403  0.8204  0.9630
  440MOL0     H58076   6.618   7.765   4.157  1.4470 -1.3334  1.7689
  440MOL0     H58077   6.654   7.593   4.133  0.0820 -0.5507 -0.1362
  440MOL0     H58078   6.732   7.783   3.747  1.4879  2.8493  0.2122
  440MOL0     H58079   6.034   7.519   3.875  1.0609 -0.7254  0.9159
  440MOL0     H58080   5.777   7.496   3.908 -2.3026 -1.8946  1.5557
  441MOL0     O58081   6.409   6.016   2.391 -0.7936 -0.5422 -0.0707
  441MOL0     C58082   6.450   6.003   2.272 -0.3859  0.3902 -0.0553
  441MOL0     O58083   6.370   5.972   2.163 -0.4915  0.3915  0.2870
  441MOL0     C58084   6.237   5.937   2.179 -0.1462 -0.3860  0.2967
  441MOL0     C58085   6.178   5.883   2.295 -0.2263  0.4190 -0.0464
  441MOL0     C58086   6.042   5.838   2.299  0.2976 -0.2894  0.5231
  441MOL0     C58087   5.961   5.849   2.184  0.6499  0.4168 -0.5127
  441MOL0     O58088   5.830   5.801   2.199 -0.4620 -0.5512  0.0139
  441MOL0     C58089   5.742   5.858   2.100  0.5725  0.3070 -0.4316
  441MOL0     C58090   5.603   5.827   2.161 -0.0539 -0.0849 -0.5504
  441MOL0     C58091   5.497   5.859   2.062 -0.2372  0.8086 -0.4676
  441MOL0     C58092   5.359   5.837   2.126  0.2278 -0.2502 -0.3834
  441MOL0     C58093   5.240   5.858   2.031 -0.0944 -0.3637 -0.0447
  441MOL0     C58094   5.240   5.750   1.915  0.6268  0.0611 -0.5655
  441MOL0     C58095   5.102   5.729   1.847 -0.1621  0.0776 -0.4943
  441MOL0     C58096   5.026   5.856   1.791 -1.5556 -0.4333  0.6003
  441MOL0     N58097   4.935   5.828   1.676  0.0116 -0.6721 -0.7170
  441MOL0     C58098   4.927   5.893   1.559  0.1700  0.3734  0.2173
  441MOL0     C58099   4.818   5.837   1.507 -0.1606  0.0706 -0.2920
  441MOL0     C58100   4.751   5.871   1.379 -0.4438  0.0632  0.0123
  441MOL0     C58101   4.600   5.878   1.405  0.2121 -0.2430 -0.4432
  441MOL0     C58102   4.520   5.903   1.279  0.0447  1.0281 -0.3061
  441MOL0     C58103   4.371   5.873   1.298  0.5244  0.8464 -0.1409
  441MOL0     O58104   4.294   5.937   1.192  0.7442 -0.5430 -0.3756
  441MOL0     C58105   4.165   5.975   1.209 -0.4680  0.0808 -0.4034
  441MOL0     C58106   4.082   5.937   1.315 -0.2260  1.2100 -0.5968
  441MOL0     C58107   3.944   5.975   1.306 -0.0611  0.4829  0.3650
  441MOL0     C58108   3.887   6.035   1.192 -0.3016  0.5839 -0.1292
  441MOL0     C58109   3.743   6.053   1.186  0.4087 -0.2845  0.5302
  441MOL0     O58110   3.690   6.053   1.060 -0.1987 -0.1316  0.4434
  441MOL0     C58111   3.553   6.051   1.046  0.4777 -0.1430 -0.0334
  441MOL0     C58112   3.477   6.170   1.059 -0.1057  0.1449  0.2215
  441MOL0     C58113   3.334   6.159   1.052 -0.6449  0.5870 -0.8533
  441MOL0     C58114   3.272   6.037   1.026  0.5450 -1.3105 -1.3740
  441MOL0     O58115   3.144   6.021   1.002 -0.1060 -0.4333  0.0688
  441MOL0     C58116   3.048   6.101   1.078 -0.1908 -0.1826  0.2212
  441MOL0     C58117   2.908   6.098   1.022 -0.1226  0.2911 -0.1118
  441MOL0     C58118   2.835   5.970   1.055 -0.2802 -0.1820 -0.4435
  441MOL0     C58119   2.696   5.966   0.989 -0.3342 -0.1127 -0.3954
  441MOL0     C58120   2.614   5.850   1.025 -0.4374  0.0777 -0.2653
  441MOL0     C58121   2.471   5.856   0.958 -0.0010 -0.9710 -0.8961
  441MOL0     C58122   2.366   5.747   0.998 -0.3540  0.8579  0.3843
  441MOL0     C58123   2.422   5.606   1.031  0.1003  0.5019 -0.8420
  441MOL0    Cl58124   2.523   5.582   1.175  0.2759  0.5071  0.3366
  441MOL0     C58125   3.347   5.923   1.007  0.2483  0.0809  0.2618
  441MOL0     C58126   3.492   5.931   1.019  0.7333  0.3608  0.5719
  441MOL0     O58127   3.676   6.073   1.287  0.0278 -0.0392 -0.2457
  441MOL0     C58128   3.975   6.075   1.086  0.7975  0.8257  0.0630
  441MOL0     C58129   4.111   6.046   1.094 -0.0036 -0.1816 -0.4763
  441MOL0     N58130   4.776   5.728   1.585 -0.3406 -0.0151 -0.1439
  441MOL0     N58131   4.843   5.734   1.688  0.8452 -0.3405 -0.6398
  441MOL0     C58132   6.013   5.902   2.068  0.2376  0.3766 -0.0769
  441MOL0     C58133   6.145   5.951   2.069 -0.3212 -0.3676 -0.4414
  441MOL0     C58134   6.592   6.011   2.246  0.3668  0.1633  0.0809
  441MOL0     C58135   6.679   6.048   2.350 -0.0684 -0.2964 -0.0034
  441MOL0     C58136   6.819   6.047   2.325 -0.1364  0.4458  0.4613
  441MOL0     C58137   6.868   6.023   2.200 -0.4813 -0.0930  0.6944
  441MOL0     O58138   7.005   6.017   2.161  0.2293 -0.4870 -0.0179
  441MOL0     C58139   7.098   6.023   2.264  0.0412  0.3476 -0.4668
  441MOL0     C58140   7.237   5.996   2.203 -0.4704 -0.4580 -0.4455
  441MOL0     C58141   7.334   5.949   2.307  0.1422 -0.0067 -1.1916
  441MOL0     C58142   7.479   5.941   2.261 -0.1708  0.4842 -0.1454
  441MOL0     C58143   7.570   5.955   2.376  1.0891 -0.1054 -0.3636
  441MOL0     C58144   7.641   5.968   2.472 -0.3380  0.3536  0.5796
  441MOL0     C58145   6.780   5.980   2.102  0.0761 -0.4081 -0.0569
  441MOL0     C58146   6.642   5.984   2.118 -0.3656 -0.5542  0.6711
  441MOL0     H58147   6.232   5.855   2.385 -0.3160 -1.8946 -0.6355
  441MOL0     H58148   5.987   5.800   2.384 -0.4481  0.3040  0.3109
  441MOL0     H58149   5.754   5.806   2.004 -0.5647  1.1798 -1.0733
  441MOL0     H58150   5.760   5.964   2.080  3.2795  0.4527  2.1084
  441MOL0     H58151   5.596   5.893   2.248  0.6094  1.9017 -1.9367
  441MOL0     H58152   5.597   5.728   2.206  0.2690  1.5685  3.5007
  441MOL0     H58153   5.510   5.786   1.982  0.2299  0.3772 -0.0020
  441MOL0     H58154   5.505   5.960   2.020  1.1661  0.8593 -0.1333
  441MOL0     H58155   5.346   5.742   2.178 -2.1786  1.4341  2.3584
  441MOL0     H58156   5.347   5.911   2.206  0.0383  0.7943 -1.3414
  441MOL0     H58157   5.247   5.962   1.997 -2.4869 -0.0867  0.1926
  441MOL0     H58158   5.146   5.850   2.086  0.1118 -1.4201  0.1612
  441MOL0     H58159   5.283   5.656   1.951  0.9930  0.6519  0.5772
  441MOL0     H58160   5.307   5.782   1.835 -2.0528  3.1181 -1.7898
  441MOL0     H58161   5.113   5.669   1.757 -0.3227  1.3662 -1.3987
  441MOL0     H58162   5.036   5.681   1.919  1.6243 -1.5199  0.1612
  441MOL0     H58163   5.101   5.924   1.750 -0.9770 -0.4639  1.5767
  441MOL0     H58164   4.964   5.911   1.861 -0.7075  3.4277 -1.3995
  441MOL0     H58165   4.997   5.975   1.542  0.0698  0.9946  2.4534
  441MOL0     H58166   4.749   5.798   1.298 -2.2410 -0.1218  0.1783
  441MOL0     H58167   4.788   5.968   1.344  0.3543  0.0703  0.8478
  441MOL0     H58168   4.581   5.955   1.481  3.7838 -1.9589  2.4832
  441MOL0     H58169   4.558   5.788   1.451  1.0950 -0.9483 -1.0059
  441MOL0     H58170   4.539   6.008   1.254 -1.6120  1.8467  1.5404
  441MOL0     H58171   4.579   5.842   1.210  2.8081  1.5639  1.4459
  441MOL0     H58172   4.345   5.916   1.396 -0.2571  1.1819 -0.4790
  441MOL0     H58173   4.350   5.766   1.292  1.7433  0.6762 -2.1940
  441MOL0     H58174   4.109   5.889   1.408 -1.8800 -0.3407 -0.8591
  441MOL0     H58175   3.880   5.963   1.393 -0.1481 -0.2497  0.2062
  441MOL0     H58176   3.536   6.261   1.059 -0.5001  0.4056 -0.2840
  441MOL0     H58177   3.271   6.246   1.066 -1.9639 -0.2038 -1.6611
  441MOL0     H58178   3.081   6.206   1.076  0.8934 -0.4785  1.5457
  441MOL0     H58179   3.042   6.077   1.184 -1.3797  2.6163  0.8918
  441MOL0     H58180   2.904   6.117   0.915 -0.8086  1.2331  0.0716
  441MOL0     H58181   2.834   6.169   1.059 -0.6061 -0.1580 -0.2031
  441MOL0     H58182   2.833   5.967   1.164  0.7670  0.4925 -0.3879
  441MOL0     H58183   2.896   5.883   1.029  0.9916  0.1495  1.2256
  441MOL0     H58184   2.641   6.056   1.017  0.2951  0.4853 -1.0384
  441MOL0     H58185   2.706   5.969   0.880 -0.1342 -1.2274 -0.4221
  441MOL0     H58186   2.588   5.860   1.131 -2.9342 -0.1447 -0.7844
  441MOL0     H58187   2.669   5.757   1.007 -0.7885 -0.2845  0.4526
  441MOL0     H58188   2.494   5.854   0.851  0.6857 -1.1072 -0.7535
  441MOL0     H58189   2.424   5.952   0.977 -1.7859 -1.5916 -1.8783
  441MOL0     H58190   2.303   5.785   1.079 -0.3976  0.7674  0.3937
  441MOL0     H58191   2.301   5.722   0.913  3.2569 -1.5022 -2.0112
  441MOL0     H58192   2.477   5.568   0.945  2.4668  0.2731  0.6686
  441MOL0     H58193   2.334   5.543   1.047 -0.4689  1.4213 -0.2398
  441MOL0     H58194   3.297   5.829   0.987  1.7075 -0.1647 -2.8896
  441MOL0     H58195   3.550   5.839   1.022 -1.4067 -1.0641  0.1984
  441MOL0     H58196   3.939   6.133   1.002  0.6883  2.5131  1.2311
  441MOL0     H58197   4.178   6.081   1.016 -1.7335  0.0548 -1.9323
  441MOL0     H58198   5.965   5.910   1.971 -1.7127  0.1461  0.8008
  441MOL0     H58199   6.189   5.993   1.978 -3.1292  1.4210 -1.0929
  441MOL0     H58200   6.640   6.069   2.450  0.1909 -0.0359  0.0430
  441MOL0     H58201   6.875   6.079   2.413 -1.2048  1.1688  0.9040
  441MOL0     H58202   7.081   5.951   2.345  1.5738  0.0230 -0.3894
  441MOL0     H58203   7.089   6.121   2.313  0.9333  0.7517 -1.0883
  441MOL0     H58204   7.233   5.917   2.128 -0.7698 -0.0971 -0.8148
  441MOL0     H58205   7.267   6.084   2.145 -1.3033 -1.2614 -2.1790
  441MOL0     H58206   7.321   5.844   2.333  3.0146 -0.6888 -2.2334
  441MOL0     H58207   7.331   6.006   2.401  0.0355 -1.7324 -0.1118
  441MOL0     H58208   7.504   5.848   2.210 -3.2752 -1.9074  2.2982
  441MOL0     H58209   7.500   6.023   2.192  0.2583 -0.0517 -0.6596
  441MOL0     H58210   7.696   5.979   2.562  0.4566 -2.1948  0.4803
  441MOL0     H58211   6.800   5.954   1.999  2.2984  2.3794 -0.4295
  441MOL0     H58212   6.577   5.956   2.035 -5.0455  2.2347  2.9985
  442MOL0     O58213   1.501   3.692   8.198  0.8612  0.2446 -0.0588
  442MOL0     C58214   1.444   3.628   8.284  0.5563  0.6543  0.0089
  442MOL0     O58215   1.315   3.590   8.291 -0.2991  0.0199  0.5386
  442MOL0     C58216   1.229   3.601   8.185 -0.0722 -0.2587 -0.2050
  442MOL0     C58217   1.265   3.582   8.045 -0.5726 -0.1524  0.0045
  442MOL0     C58218   1.162   3.574   7.948  0.6570  0.2229 -0.0426
  442MOL0     C58219   1.023   3.578   7.987 -0.0399 -0.5893  1.1189
  442MOL0     O58220   0.934   3.559   7.885 -0.1613 -0.6277  0.1825
  442MOL0     C58221   0.795   3.541   7.925 -0.3687  0.2071 -0.4827
  442MOL0     C58222   0.706   3.528   7.810  0.5853  0.2876 -0.3904
  442MOL0     C58223   0.566   3.466   7.837  0.0968 -0.2961 -0.5713
  442MOL0     C58224   0.467   3.562   7.905 -0.0911  0.5774 -0.1502
  442MOL0     C58225   0.325   3.514   7.894  0.1261 -0.3163 -0.7137
  442MOL0     C58226   0.216   3.618   7.932  0.6299  0.2648  0.3865
  442MOL0     C58227   0.087   3.562   7.973  0.2488  0.1986 -0.9709
  442MOL0     C58228   0.018   3.489   7.855  1.0406 -0.1998  0.0085
  442MOL0     N58229  -0.032   3.597   7.764  0.8012 -0.2631  0.2756
  442MOL0     C58230  -0.118   3.697   7.807  0.1335 -0.6151  0.8766
  442MOL0     C58231  -0.140   3.768   7.695  0.7335 -0.7843 -0.1958
  442MOL0     C58232  -0.239   3.887   7.684  0.7387  0.2892  0.9019
  442MOL0     C58233  -0.343   3.858   7.572 -1.2366  0.2292 -0.0628
  442MOL0     C58234  -0.410   3.724   7.566 -0.6195  0.0738  0.1154
  442MOL0     C58235  -0.510   3.701   7.688  1.0991  0.4000 -0.0252
  442MOL0     O58236  -0.453   3.730   7.818 -0.1497 -0.3579  0.0702
  442MOL0     C58237  -0.551   3.715   7.924 -0.1703  0.4059  0.3949
  442MOL0     C58238  -0.680   3.657   7.912  0.1933 -0.6360 -0.3908
  442MOL0     C58239  -0.772   3.665   8.020 -0.0941 -0.9665  0.3711
  442MOL0     C58240  -0.725   3.715   8.145 -0.2978  0.3305  0.2375
  442MOL0     C58241  -0.826   3.728   8.253  0.2272  0.3045  0.3115
  442MOL0     O58242  -0.959   3.724   8.215  0.6175  0.4280  0.5757
  442MOL0     C58243  -1.049   3.760   8.317  0.2550  0.3066  0.7058
  442MOL0     C58244  -1.073   3.894   8.338  0.3329 -0.4247  0.2931
  442MOL0     C58245  -1.172   3.939   8.425  0.6893 -0.4238 -0.2852
  442MOL0     C58246  -1.234   3.849   8.510  0.0295  0.2411 -0.6304
  442MOL0     O58247  -1.339   3.889   8.591  0.0873 -0.3873  0.0953
  442MOL0     C58248  -1.340   4.036   8.622  0.1251  0.3260 -0.6267
  442MOL0     C58249  -1.441   4.060   8.738  0.0465 -0.0580 -0.4735
  442MOL0     C58250  -1.587   4.029   8.698  0.3691  0.2744 -0.0468
  442MOL0     C58251  -1.684   4.052   8.814 -0.5285 -0.3756 -0.4729
  442MOL0     C58252  -1.824   4.000   8.790 -0.2172  0.6013  0.0374
  442MOL0     C58253  -1.847   3.858   8.720  0.5977  0.0600 -0.0979
  442MOL0     C58254  -1.780   3.746   8.813 -0.7983 -0.3641  0.7639
  442MOL0     C58255  -1.787   3.610   8.745  0.0242 -0.0652  0.0116
  442MOL0    Cl58256  -1.708   3.608   8.593  0.3131 -0.2777 -0.2214
  442MOL0     C58257  -1.206   3.715   8.493  0.5093 -0.4022  0.8420
  442MOL0     C58258  -1.117   3.668   8.395  0.0648 -0.2399 -0.2587
  442MOL0     O58259  -0.782   3.742   8.365 -0.4334  0.4972 -0.1059
  442MOL0     C58260  -0.591   3.758   8.160 -0.5704  0.3942 -0.3071
  442MOL0     C58261  -0.507   3.758   8.049 -0.4958  0.6044  0.0918
  442MOL0     N58262  -0.076   3.714   7.587 -0.6225 -0.2345 -0.1781
  442MOL0     N58263  -0.012   3.611   7.630  0.5714  0.4088 -0.5713
  442MOL0     C58264   0.992   3.605   8.120  0.4501 -0.0526  0.7790
  442MOL0     C58265   1.092   3.608   8.212  0.1773  0.4652  0.6520
  442MOL0     C58266   1.538   3.594   8.399  0.2600 -0.7348  0.9433
  442MOL0     C58267   1.488   3.516   8.503  0.7746 -0.5223 -0.2893
  442MOL0     C58268   1.566   3.461   8.599  0.4915  0.1953  0.1741
  442MOL0     C58269   1.706   3.503   8.611  0.4677  0.6014  0.1060
  442MOL0     O58270   1.789   3.474   8.713  0.0301  0.2625 -0.6976
  442MOL0     C58271   1.726   3.411   8.832  0.8618  1.2247  0.3560
  442MOL0     C58272   1.823   3.392   8.944 -0.1937 -0.0072  0.4822
  442MOL0     C58273   1.942   3.304   8.902  0.5885 -0.1103 -0.2384
  442MOL0     C58274   2.012   3.234   9.019  0.1656 -0.2921 -0.3880
  442MOL0     C58275   2.101   3.124   8.973  0.5362 -0.4036 -0.0627
  442MOL0     C58276   2.185   3.044   8.941 -0.1558 -0.3041  0.5936
  442MOL0     C58277   1.758   3.578   8.500 -0.1314  0.1311 -0.9999
  442MOL0     C58278   1.677   3.626   8.396 -0.4063 -0.5269  0.4108
  442MOL0     H58279   1.369   3.572   8.014 -0.8188  0.0681 -0.9263
  442MOL0     H58280   1.196   3.562   7.846  0.5922  0.9683 -0.1577
  442MOL0     H58281   0.765   3.636   7.970 -0.6737  1.1313 -2.5505
  442MOL0     H58282   0.778   3.459   7.996 -0.3678  0.5613 -0.0742
  442MOL0     H58283   0.750   3.465   7.732  0.0567 -0.8203  0.1833
  442MOL0     H58284   0.697   3.629   7.771 -0.0943 -0.6065 -2.7449
  442MOL0     H58285   0.558   3.381   7.906 -2.5037  0.4735  0.1931
  442MOL0     H58286   0.531   3.435   7.739  0.3760 -1.6688 -0.2494
  442MOL0     H58287   0.498   3.573   8.010 -4.4139  0.2002  1.3790
  442MOL0     H58288   0.469   3.662   7.861 -2.2216  0.8907  0.3802
  442MOL0     H58289   0.308   3.433   7.966  0.0934  1.9847  2.0191
  442MOL0     H58290   0.302   3.475   7.794  1.2788 -0.0775 -1.0911
  442MOL0     H58291   0.202   3.686   7.847 -0.0628  0.4258  0.6226
  442MOL0     H58292   0.245   3.687   8.012  6.3824 -1.4921  0.3272
  442MOL0     H58293   0.100   3.504   8.064 -1.4502  1.7706  0.3557
  442MOL0     H58294   0.028   3.651   8.000  2.0127  1.2879 -0.5524
  442MOL0     H58295  -0.067   3.437   7.900 -0.9945  0.2058 -3.0826
  442MOL0     H58296   0.086   3.411   7.821  0.8235 -0.8567  1.0249
  442MOL0     H58297  -0.167   3.713   7.902  1.0143  1.0941  1.0816
  442MOL0     H58298  -0.184   3.976   7.651 -0.7490  1.2420  0.9189
  442MOL0     H58299  -0.289   3.914   7.777 -1.6222  2.0786 -0.7596
  442MOL0     H58300  -0.299   3.873   7.473 -0.5453 -4.7614 -0.8067
  442MOL0     H58301  -0.429   3.925   7.581 -1.5589 -0.1473 -0.3138
  442MOL0     H58302  -0.478   3.722   7.480  0.7101 -2.5230 -0.9808
  442MOL0     H58303  -0.337   3.644   7.550  3.2164  3.7371 -3.1230
  442MOL0     H58304  -0.551   3.600   7.679  0.9621  0.2454  1.9427
  442MOL0     H58305  -0.596   3.768   7.674  0.5392 -0.0636  1.0878
  442MOL0     H58306  -0.733   3.626   7.822 -1.8077 -0.2223  0.5876
  442MOL0     H58307  -0.874   3.632   8.007 -0.1705 -0.6324  0.1002
  442MOL0     H58308  -1.027   3.953   8.259 -0.7403 -0.8390 -0.6673
  442MOL0     H58309  -1.201   4.043   8.417 -1.8662 -1.1567 -1.5112
  442MOL0     H58310  -1.384   4.092   8.539 -2.2055 -0.7149 -0.1681
  442MOL0     H58311  -1.246   4.086   8.649  0.4163  0.6008 -2.0349
  442MOL0     H58312  -1.428   4.164   8.769  4.6036 -0.7205  0.4424
  442MOL0     H58313  -1.417   3.993   8.821  1.9006  1.4240  0.2494
  442MOL0     H58314  -1.595   3.923   8.672  2.8465 -0.8314  3.0728
  442MOL0     H58315  -1.610   4.095   8.614 -0.2441  1.8936  1.3500
  442MOL0     H58316  -1.630   4.013   8.900 -1.9876 -0.9298  0.2261
  442MOL0     H58317  -1.689   4.162   8.813 -1.5452 -0.4107 -1.4134
  442MOL0     H58318  -1.866   4.077   8.724  1.0111  1.3939  0.1500
  442MOL0     H58319  -1.865   4.004   8.891  0.8927  0.5346  0.5019
  442MOL0     H58320  -1.795   3.868   8.624  0.7943  2.9675  0.2044
  442MOL0     H58321  -1.954   3.843   8.700  0.4935  0.3220  0.2424
  442MOL0     H58322  -1.673   3.766   8.818 -0.2885 -2.4656 -0.2356
  442MOL0     H58323  -1.837   3.736   8.906  0.2991 -0.9161  1.3946
  442MOL0     H58324  -1.893   3.595   8.724  0.0587  0.3875 -0.5067
  442MOL0     H58325  -1.746   3.535   8.814  0.2735 -0.5137 -0.6210
  442MOL0     H58326  -1.267   3.640   8.541 -0.5613  0.2990  0.6262
  442MOL0     H58327  -1.099   3.564   8.373  2.1197 -0.4488  2.0089
  442MOL0     H58328  -0.557   3.799   8.255 -2.6514  1.1012  0.1951
  442MOL0     H58329  -0.400   3.776   8.059 -0.9177  2.0037  2.8055
  442MOL0     H58330   0.887   3.604   8.146  0.9072 -2.5266  3.0704
  442MOL0     H58331   1.056   3.614   8.315 -0.1430  3.6363  0.4367
  442MOL0     H58332   1.383   3.490   8.511  0.2503  1.8444  3.8285
  442MOL0     H58333   1.509   3.398   8.667 -0.4265  0.6883 -0.1071
  442MOL0     H58334   1.694   3.310   8.804 -1.0014  1.5798  1.0181
  442MOL0     H58335   1.638   3.464   8.871 -1.0114 -0.2683 -1.5579
  442MOL0     H58336   1.862   3.490   8.972 -0.3056  0.7270 -1.7224
  442MOL0     H58337   1.768   3.347   9.027 -2.8247 -1.7432 -1.9821
  442MOL0     H58338   2.015   3.371   8.855  0.2573  0.8265  0.5578
  442MOL0     H58339   1.912   3.223   8.835  2.2289 -1.3786  0.4820
  442MOL0     H58340   2.076   3.309   9.068  0.0333 -0.6809  0.3960
  442MOL0     H58341   1.936   3.204   9.092  2.4157  0.5123  2.4745
  442MOL0     H58342   2.263   2.981   8.902 -0.3916  1.4707 -3.2300
  442MOL0     H58343   1.861   3.613   8.503 -0.4733  1.2395 -1.6966
  442MOL0     H58344   1.735   3.681   8.323  1.9049  1.0635  3.2370
  443MOL0     O58345   3.761   6.381   7.398  0.5055  0.0347  0.7609
  443MOL0     C58346   3.812   6.269   7.384 -0.6054 -0.4021  0.3411
  443MOL0     O58347   3.756   6.152   7.323  0.3206  0.2771  0.3852
  443MOL0     C58348   3.636   6.162   7.259 -0.6708 -0.4405 -0.2126
  443MOL0     C58349   3.549   6.064   7.287 -0.6551  0.9777 -0.1755
  443MOL0     C58350   3.420   6.071   7.239  0.0127  0.1062  0.0330
  443MOL0     C58351   3.381   6.177   7.150  0.0204  0.8742  1.4647
  443MOL0     O58352   3.265   6.186   7.076 -0.3006 -0.1597 -0.4931
  443MOL0     C58353   3.195   6.060   7.073  0.0406 -0.3649 -0.3650
  443MOL0     C58354   3.084   6.087   6.966 -0.0395  0.3448 -0.0198
  443MOL0     C58355   2.959   6.150   7.019  0.3985 -0.5431 -0.2229
  443MOL0     C58356   2.851   6.179   6.911 -0.0616  0.5141  0.0536
  443MOL0     C58357   2.724   6.254   6.961 -0.1826 -0.0047  0.1579
  443MOL0     C58358   2.657   6.359   6.874  0.1700 -0.0898 -0.0745
  443MOL0     C58359   2.536   6.425   6.942  0.2745 -0.2227  0.5774
  443MOL0     C58360   2.510   6.558   6.866  0.3391  0.6498  0.4832
  443MOL0     N58361   2.378   6.614   6.914 -0.2076  0.1182  0.8571
  443MOL0     C58362   2.257   6.607   6.856 -0.1716 -0.3550 -0.0919
  443MOL0     C58363   2.172   6.656   6.950  0.4283 -0.5849 -0.2091
  443MOL0     C58364   2.020   6.663   6.948  0.2266 -0.4641  0.4217
  443MOL0     C58365   1.979   6.775   6.857  0.4196 -0.3358  0.5199
  443MOL0     C58366   1.830   6.764   6.870  1.0642 -0.3244 -0.2082
  443MOL0     C58367   1.758   6.855   6.768  0.7334  0.6758 -0.3201
  443MOL0     O58368   1.624   6.851   6.810 -0.3863 -0.5726 -0.1424
  443MOL0     C58369   1.531   6.920   6.739  0.0195 -0.3326  1.2147
  443MOL0     C58370   1.539   6.974   6.616  0.7150 -0.2647  0.2202
  443MOL0     C58371   1.435   7.055   6.566 -0.2296 -0.7361 -0.7474
  443MOL0     C58372   1.316   7.090   6.640  0.2794  0.2790  0.2276
  443MOL0     C58373   1.224   7.184   6.576  0.8191  0.4831 -0.0584
  443MOL0     O58374   1.219   7.188   6.434  0.0011 -0.6098  0.5517
  443MOL0     C58375   1.138   7.293   6.389 -0.1292  0.1038  1.5503
  443MOL0     C58376   1.185   7.375   6.283 -0.7012  1.5214 -0.2805
  443MOL0     C58377   1.109   7.476   6.224  0.4813  0.2228 -0.1503
  443MOL0     C58378   0.976   7.499   6.265 -0.0273  0.4389  0.2827
  443MOL0     O58379   0.889   7.598   6.228  0.5463 -0.6555 -0.0515
  443MOL0     C58380   0.954   7.718   6.169  0.3576  0.6306 -0.0181
  443MOL0     C58381   0.856   7.829   6.182  0.5145 -0.3230 -0.4853
  443MOL0     C58382   0.909   7.948   6.109 -0.5493 -0.4126  0.5754
  443MOL0     C58383   0.856   8.081   6.155 -0.2284 -0.1915 -0.5721
  443MOL0     C58384   0.702   8.093   6.129 -0.6391  0.3747  0.0519
  443MOL0     C58385   0.671   8.102   5.978  0.0417  0.0531 -0.5362
  443MOL0     C58386   0.523   8.151   5.938 -0.3642  0.8585 -0.2916
  443MOL0     C58387   0.420   8.069   6.019 -0.1782 -0.0919  0.1044
  443MOL0    Cl58388   0.260   8.070   5.935  0.2157  0.0586  0.0392
  443MOL0     C58389   0.924   7.410   6.362  0.0816 -0.6018 -0.6700
  443MOL0     C58390   1.006   7.305   6.421  0.3116 -0.3666  0.2038
  443MOL0     O58391   1.154   7.253   6.658 -0.6396  0.0377  0.7477
  443MOL0     C58392   1.312   7.039   6.767  0.5051  0.8985 -0.1095
  443MOL0     C58393   1.417   6.961   6.818 -0.7089  0.2928  0.6310
  443MOL0     N58394   2.242   6.686   7.070  0.9298  0.2832  0.0127
  443MOL0     N58395   2.365   6.663   7.045  0.2046 -0.2915  0.0172
  443MOL0     C58396   3.485   6.267   7.109  0.2984  0.4936  0.4988
  443MOL0     C58397   3.611   6.262   7.164  1.0194 -1.0655  0.3904
  443MOL0     C58398   3.961   6.254   7.421 -0.3351  0.2191  0.7548
  443MOL0     C58399   4.028   6.355   7.477  0.4532  0.1625 -0.5266
  443MOL0     C58400   4.166   6.335   7.507 -0.3259  0.5396 -0.3949
  443MOL0     C58401   4.229   6.206   7.482  0.5276 -0.0344  0.0933
  443MOL0     O58402   4.355   6.163   7.526  0.1840  0.0643  0.0876
  443MOL0     C58403   4.444   6.264   7.567  0.9361  0.5254 -0.6155
  443MOL0     C58404   4.583   6.199   7.587  0.4436  0.4563 -0.7527
  443MOL0     C58405   4.695   6.283   7.640  0.0039  0.2113 -0.3442
  443MOL0     C58406   4.800   6.200   7.707 -0.0103 -0.1334  0.6714
  443MOL0     C58407   4.930   6.264   7.731 -1.0256  0.1748 -0.1419
  443MOL0     C58408   5.038   6.314   7.757 -0.5872  0.0710  0.3990
  443MOL0     C58409   4.157   6.108   7.416 -0.1834  0.8540  0.0016
  443MOL0     C58410   4.029   6.134   7.395  0.4533  0.6987 -0.3301
  443MOL0     H58411   3.578   5.992   7.363  1.8301  0.2688 -1.6679
  443MOL0     H58412   3.353   5.994   7.276 -2.4316  2.3877  0.6628
  443MOL0     H58413   3.147   6.035   7.168  0.9845  0.3257  0.3193
  443MOL0     H58414   3.260   5.975   7.051  1.0045  0.9731 -3.1252
  443MOL0     H58415   3.064   5.989   6.922  1.5607  0.4208 -1.0264
  443MOL0     H58416   3.125   6.148   6.884  0.1539  2.5970  1.6567
  443MOL0     H58417   2.998   6.245   7.057  1.7943 -0.2718 -2.1923
  443MOL0     H58418   2.924   6.088   7.103 -0.5702 -1.4344 -1.2487
  443MOL0     H58419   2.906   6.234   6.834  0.5277 -0.8768 -0.5451
  443MOL0     H58420   2.828   6.083   6.864 -0.2816  0.8785 -0.6022
  443MOL0     H58421   2.754   6.308   7.051  1.1672  0.4373 -0.5288
  443MOL0     H58422   2.662   6.171   6.998  0.6793 -0.8202 -0.1765
  443MOL0     H58423   2.611   6.316   6.784  0.0407 -0.4529  0.1615
  443MOL0     H58424   2.731   6.428   6.835 -0.0470 -0.2930 -0.8595
  443MOL0     H58425   2.443   6.368   6.933  0.3816 -0.5727  1.6166
  443MOL0     H58426   2.558   6.453   7.045  2.1062 -1.7145  0.6527
  443MOL0     H58427   2.504   6.534   6.760  0.6299  0.2721  0.5507
  443MOL0     H58428   2.587   6.635   6.866  0.8860  0.1176  1.1912
  443MOL0     H58429   2.228   6.578   6.756 -0.0436 -1.8251  0.2756
  443MOL0     H58430   1.981   6.673   7.050  1.6762 -2.5811  1.2505
  443MOL0     H58431   1.978   6.566   6.918  1.4873 -0.8525 -0.1678
  443MOL0     H58432   2.005   6.767   6.751 -0.7954  0.4888  0.1475
  443MOL0     H58433   2.019   6.870   6.894 -1.8031  0.9553 -0.2348
  443MOL0     H58434   1.802   6.662   6.845  2.4373 -1.3309  2.0727
  443MOL0     H58435   1.794   6.784   6.971 -0.7976 -0.2135 -0.8534
  443MOL0     H58436   1.783   6.819   6.668  2.1615  1.3569 -0.2436
  443MOL0     H58437   1.798   6.957   6.774  2.2760  0.1093 -0.6350
  443MOL0     H58438   1.628   6.955   6.556 -0.7623 -0.5799 -2.0063
  443MOL0     H58439   1.437   7.085   6.461 -1.4448 -2.7592 -1.4194
  443MOL0     H58440   1.287   7.365   6.246  0.5570  4.5942  1.8698
  443MOL0     H58441   1.167   7.538   6.157  0.6684  0.4711  0.2379
  443MOL0     H58442   0.968   7.706   6.062  3.5208  1.4779  0.2122
  443MOL0     H58443   1.056   7.736   6.203  0.6430 -0.4730 -0.2313
  443MOL0     H58444   0.839   7.853   6.287 -0.5636  1.1427 -0.9723
  443MOL0     H58445   0.768   7.798   6.126  1.0660 -1.0737 -0.9645
  443MOL0     H58446   0.884   7.952   6.003 -2.4490  0.6269  1.0171
  443MOL0     H58447   1.016   7.957   6.132 -0.8129  0.1751  1.6373
  443MOL0     H58448   0.883   8.085   6.261 -0.6858 -1.2437 -0.4044
  443MOL0     H58449   0.898   8.170   6.108 -1.5085 -0.1774 -1.7751
  443MOL0     H58450   0.682   8.185   6.185 -3.7780 -0.9174  1.2896
  443MOL0     H58451   0.652   8.007   6.175 -0.8130  0.0511 -0.7142
  443MOL0     H58452   0.689   8.005   5.931  0.0815 -0.1202 -0.1597
  443MOL0     H58453   0.742   8.169   5.927  1.9028 -1.8576 -0.5770
  443MOL0     H58454   0.504   8.255   5.967  1.2967  1.2308 -0.4228
  443MOL0     H58455   0.503   8.135   5.832 -2.2562  0.0990  0.1508
  443MOL0     H58456   0.405   8.113   6.118 -0.2853 -1.0654  0.5332
  443MOL0     H58457   0.448   7.964   6.030 -1.5384 -0.5209 -0.3659
  443MOL0     H58458   0.820   7.405   6.394  1.0816 -1.7087  2.8295
  443MOL0     H58459   0.948   7.242   6.488  0.5797  0.2250  0.9973
  443MOL0     H58460   1.232   7.056   6.838 -1.9781 -0.6282 -2.3262
  443MOL0     H58461   1.401   6.919   6.917  2.5248 -1.6743  0.4706
  443MOL0     H58462   3.452   6.346   7.041 -2.9073 -1.3825 -0.3568
  443MOL0     H58463   3.689   6.334   7.141  0.7850 -0.7183  0.6646
  443MOL0     H58464   3.978   6.448   7.500  1.5318  0.7678 -0.5277
  443MOL0     H58465   4.224   6.415   7.552  1.6813 -1.6074  1.0737
  443MOL0     H58466   4.407   6.306   7.661  1.5020 -0.9267  0.2996
  443MOL0     H58467   4.462   6.343   7.493  3.0511  2.6372  1.9435
  443MOL0     H58468   4.573   6.116   7.657 -0.4348  1.7457  0.7071
  443MOL0     H58469   4.618   6.160   7.491  0.3254 -0.3861 -0.4614
  443MOL0     H58470   4.661   6.357   7.714 -1.4735 -0.9127  0.1654
  443MOL0     H58471   4.755   6.327   7.560  1.5242 -0.2022  0.5373
  443MOL0     H58472   4.753   6.161   7.798 -2.3371  1.4392  0.2410
  443MOL0     H58473   4.824   6.111   7.648  0.9819 -0.2702  1.2511
  443MOL0     H58474   5.133   6.358   7.780 -1.2608  2.0489 -0.3847
  443MOL0     H58475   4.194   6.007   7.402 -0.5072  0.6264  0.7502
  443MOL0     H58476   3.977   6.049   7.354  0.5217  0.8860 -0.8261
  444MOL0     O58477   3.413   8.622   2.958 -0.2276  0.6043  0.5427
  444MOL0     C58478   3.485   8.679   3.034  0.2585  0.3376 -0.2575
  444MOL0     O58479   3.456   8.790   3.102 -0.3774  0.4185  0.0275
  444MOL0     C58480   3.328   8.825   3.100 -0.0361  0.1726  0.7453
  444MOL0     C58481   3.226   8.737   3.147  0.7926  0.5265  0.2412
  444MOL0     C58482   3.096   8.787   3.161  0.4691 -0.5038 -0.8086
  444MOL0     C58483   3.061   8.919   3.145  0.0707  0.3575 -0.3057
  444MOL0     O58484   2.928   8.965   3.173 -0.8344 -0.2479 -0.0461
  444MOL0     C58485   2.902   9.108   3.169  0.1733 -0.2183  0.4571
  444MOL0     C58486   2.756   9.132   3.205 -0.0710 -0.1110 -0.2780
  444MOL0     C58487   2.710   9.277   3.193 -0.2923  0.1614 -0.4852
  444MOL0     C58488   2.561   9.305   3.196  0.6575 -0.0295 -0.4250
  444MOL0     C58489   2.484   9.276   3.326 -0.2317 -0.4788  0.2610
  444MOL0     C58490   2.506   9.393   3.434  0.1411 -0.4624  0.8850
  444MOL0     C58491   2.435   9.378   3.564  0.4197  0.9530 -0.1886
  444MOL0     C58492   2.281   9.330   3.544 -0.2366 -0.2285 -0.1501
  444MOL0     N58493   2.205   9.413   3.448 -0.2385 -0.3424 -0.5575
  444MOL0     C58494   2.160   9.538   3.474  0.1780  0.3802 -0.2532
  444MOL0     C58495   2.068   9.560   3.372  0.6903  0.8032  0.7372
  444MOL0     C58496   2.015   9.689   3.329 -0.1655 -0.0465 -0.0912
  444MOL0     C58497   2.010   9.803   3.442 -0.4089  0.3592 -0.4014
  444MOL0     C58498   1.928   9.762   3.571  0.1952  0.0558  0.6355
  444MOL0     C58499   1.776   9.746   3.540 -0.3155  0.0731  0.3482
  444MOL0     O58500   1.700   9.698   3.643 -0.0565 -0.0163 -0.3449
  444MOL0     C58501   1.567   9.728   3.651 -0.3008  0.2662  0.3232
  444MOL0     C58502   1.504   9.736   3.773  0.2440 -0.5669  0.5322
  444MOL0     C58503   1.370   9.764   3.788 -0.2219  0.6730  0.4831
  444MOL0     C58504   1.293   9.788   3.673  0.2260 -0.0622 -0.0240
  444MOL0     C58505   1.155   9.816   3.689 -0.2157  0.1170 -0.2110
  444MOL0     O58506   1.096   9.824   3.810 -0.1594 -0.3539 -0.0044
  444MOL0     C58507   0.967   9.856   3.827  0.6762 -0.2379  0.1229
  444MOL0     C58508   0.917   9.919   3.945 -0.3299  0.0433  0.2204
  444MOL0     C58509   0.785   9.940   3.963  0.0391 -1.0689 -0.4131
  444MOL0     C58510   0.690   9.897   3.877  0.5992  0.5178 -0.4859
  444MOL0     O58511   0.550   9.902   3.894 -0.2361  0.9622  0.1029
  444MOL0     C58512   0.500  10.018   3.956  0.6790  0.4327  0.2906
  444MOL0     C58513   0.351   9.989   3.987  1.0901 -0.0585  0.1693
  444MOL0     C58514   0.284  10.122   4.040  0.2595 -0.3192  0.0399
  444MOL0     C58515   0.142  10.093   4.080  0.5805  0.2321 -0.5029
  444MOL0     C58516   0.055  10.229   4.096 -1.7394  0.5206 -0.0993
  444MOL0     C58517  -0.077  10.204   4.172  0.4236 -0.3704  0.2881
  444MOL0     C58518  -0.128  10.321   4.243  0.3451 -0.1187 -0.6427
  444MOL0     C58519  -0.191  10.413   4.136  0.5118 -0.0032 -0.3784
  444MOL0    Cl58520  -0.270  10.557   4.200  0.4366 -0.1323  0.2588
  444MOL0     C58521   0.734   9.834   3.764 -0.2827 -0.4339  0.2692
  444MOL0     C58522   0.866   9.808   3.738 -0.4578  0.0767 -0.3592
  444MOL0     O58523   1.102   9.863   3.585 -0.5909  0.0133 -0.8653
  444MOL0     C58524   1.355   9.788   3.546 -0.1575 -1.0037 -0.3084
  444MOL0     C58525   1.489   9.759   3.545  0.2426  0.0349  0.3260
  444MOL0     N58526   2.048   9.446   3.296 -0.6028  0.3137  0.6804
  444MOL0     N58527   2.137   9.361   3.342  0.9963 -0.0926  0.0043
  444MOL0     C58528   3.163   9.009   3.110  0.1405  0.4053 -0.8824
  444MOL0     C58529   3.296   8.965   3.091 -0.3077  0.5935  0.6185
  444MOL0     C58530   3.617   8.623   3.057 -0.0029 -0.1044 -0.3941
  444MOL0     C58531   3.725   8.688   3.118  0.0970 -0.4782  0.5817
  444MOL0     C58532   3.849   8.633   3.122  0.4227 -0.5808 -0.4675
  444MOL0     C58533   3.868   8.500   3.097  0.4333  1.3897 -0.2849
  444MOL0     O58534   3.988   8.450   3.131 -0.1363 -0.3886 -0.0285
  444MOL0     C58535   4.041   8.335   3.061 -0.8192 -0.1838 -0.2600
  444MOL0     C58536   4.192   8.323   3.095  0.0632 -0.6078  0.2389
  444MOL0     C58537   4.198   8.305   3.246  0.1574  0.9792  0.2018
  444MOL0     C58538   4.344   8.283   3.305  0.1437  0.1118  0.4430
  444MOL0     C58539   4.419   8.173   3.238 -0.9690  0.0260 -0.0223
  444MOL0     C58540   4.488   8.080   3.192 -0.0314 -0.0366  0.0063
  444MOL0     C58541   3.761   8.426   3.040  0.0993 -0.5656 -0.6064
  444MOL0     C58542   3.642   8.488   3.018  0.2371  0.3042 -0.2323
  444MOL0     H58543   3.245   8.631   3.161 -0.9123  0.1256 -0.2702
  444MOL0     H58544   3.016   8.721   3.193 -1.5074  2.2983  0.3674
  444MOL0     H58545   2.916   9.144   3.066  0.6201  0.6043  0.7941
  444MOL0     H58546   2.973   9.154   3.239 -0.9287  0.7267  0.9831
  444MOL0     H58547   2.729   9.083   3.299 -3.9613  1.2445 -0.5029
  444MOL0     H58548   2.689   9.077   3.139 -0.3558 -0.2158  0.0931
  444MOL0     H58549   2.726   9.312   3.091 -3.1753 -2.5754 -2.0304
  444MOL0     H58550   2.763   9.343   3.262 -0.2385  1.2483 -1.5282
  444MOL0     H58551   2.538   9.408   3.169 -2.3515 -0.4608  0.1905
  444MOL0     H58552   2.515   9.256   3.110  2.0823 -0.8754 -0.7524
  444MOL0     H58553   2.513   9.178   3.364  0.1343 -1.2750 -1.9162
  444MOL0     H58554   2.380   9.255   3.302 -0.1189 -1.0213  0.2335
  444MOL0     H58555   2.474   9.493   3.401  2.0821  1.1286  3.4005
  444MOL0     H58556   2.611   9.405   3.464  0.3686  2.5473 -0.6561
  444MOL0     H58557   2.482   9.307   3.631  0.2890 -0.3347 -1.4186
  444MOL0     H58558   2.441   9.469   3.625 -1.6404  0.6497  0.5257
  444MOL0     H58559   2.224   9.339   3.637  0.5745 -0.3764  0.3718
  444MOL0     H58560   2.281   9.226   3.513 -0.6950 -0.2042 -0.2295
  444MOL0     H58561   2.203   9.603   3.550  1.3554 -0.7083  0.0554
  444MOL0     H58562   1.919   9.683   3.277  0.1646 -1.8746 -0.5794
  444MOL0     H58563   2.086   9.716   3.250  0.5556  0.8562  0.8545
  444MOL0     H58564   1.969   9.889   3.387 -1.2746 -0.5196 -1.1612
  444MOL0     H58565   2.109   9.824   3.485  0.5376 -4.8942  0.6569
  444MOL0     H58566   1.958   9.663   3.607 -1.5006 -2.0700 -3.1885
  444MOL0     H58567   1.957   9.831   3.651  0.3553  0.5637  0.1401
  444MOL0     H58568   1.761   9.674   3.459 -4.1839  0.4171  0.5768
  444MOL0     H58569   1.740   9.839   3.496 -0.1604  0.1368  0.3559
  444MOL0     H58570   1.556   9.720   3.867  1.8742  0.0948 -0.2224
  444MOL0     H58571   1.336   9.767   3.891  3.9415 -1.1006  2.1395
  444MOL0     H58572   0.989   9.942   4.023 -0.0134 -1.7692  0.5284
  444MOL0     H58573   0.746   9.992   4.051 -2.9045  1.8082 -3.1576
  444MOL0     H58574   0.511  10.106   3.892  0.6932  0.8311  0.8381
  444MOL0     H58575   0.549  10.038   4.052 -0.8182  1.3850  0.9006
  444MOL0     H58576   0.330   9.916   4.065 -1.6706  0.5390  0.1171
  444MOL0     H58577   0.302   9.958   3.894 -0.7413 -0.4116  1.1951
  444MOL0     H58578   0.288  10.210   3.974  1.4964  0.1960  0.7752
  444MOL0     H58579   0.343  10.162   4.123 -0.6345  1.0546  0.0398
  444MOL0     H58580   0.098  10.027   4.004 -1.2250 -1.6043  1.9919
  444MOL0     H58581   0.135  10.034   4.171 -0.6649 -3.3919 -2.7283
  444MOL0     H58582   0.056  10.283   4.000 -2.9083 -0.2591 -0.5850
  444MOL0     H58583   0.119  10.289   4.160  0.6801 -1.9471 -0.0562
  444MOL0     H58584  -0.050  10.137   4.253 -1.1417  0.8246  1.8637
  444MOL0     H58585  -0.148  10.145   4.113  0.4532  0.8448 -1.0464
  444MOL0     H58586  -0.204  10.283   4.311 -0.3683  0.0808 -1.3212
  444MOL0     H58587  -0.041  10.365   4.294  1.4336 -2.9689  0.1312
  444MOL0     H58588  -0.265  10.354   4.081  0.2085  0.2105 -0.1962
  444MOL0     H58589  -0.116  10.445   4.062  2.1717  0.1694  1.3066
  444MOL0     H58590   0.663   9.793   3.692 -1.1907 -3.0734  2.4614
  444MOL0     H58591   0.897   9.744   3.657  0.9939  0.7766 -0.3949
  444MOL0     H58592   1.297   9.813   3.458 -0.2047  0.3188  0.0694
  444MOL0     H58593   1.528   9.749   3.444 -1.1252  1.0066 -0.3357
  444MOL0     H58594   3.150   9.116   3.101  0.4700  0.9054  2.9336
  444MOL0     H58595   3.368   9.038   3.056 -1.0224  1.6784  1.3166
  444MOL0     H58596   3.712   8.785   3.164 -0.2473  0.2789 -1.0410
  444MOL0     H58597   3.936   8.689   3.156  0.5884 -0.4440 -1.0888
  444MOL0     H58598   4.021   8.353   2.955 -3.2863  2.5991  0.5519
  444MOL0     H58599   3.985   8.248   3.097  0.1433 -0.3302  0.9560
  444MOL0     H58600   4.227   8.235   3.042 -1.1407 -0.0428 -1.5734
  444MOL0     H58601   4.257   8.405   3.065 -1.9681  0.7562 -0.6520
  444MOL0     H58602   4.141   8.218   3.279  0.4451 -0.2232 -2.2343
  444MOL0     H58603   4.164   8.390   3.306  3.3464  0.4271  3.1015
  444MOL0     H58604   4.404   8.372   3.280 -1.9391  1.5752  0.4427
  444MOL0     H58605   4.345   8.267   3.413 -0.8167 -1.8618  0.2038
  444MOL0     H58606   4.541   7.989   3.173 -0.8927 -0.6092  0.2807
  444MOL0     H58607   3.784   8.320   3.034  0.8425 -0.6566  2.2716
  444MOL0     H58608   3.561   8.426   2.980  1.1620 -0.1445 -1.5144
  445MOL0     O58609   9.128  10.142   7.386  0.4297 -0.4383  0.7070
  445MOL0     C58610   9.201  10.056   7.334 -0.2027  0.2022 -0.3305
  445MOL0     O58611   9.168   9.927   7.309 -0.2243  0.3872  0.3446
  445MOL0     C58612   9.039   9.893   7.345  0.4507  0.4209  0.0833
  445MOL0     C58613   8.925   9.942   7.296 -0.2137 -0.4949  0.3890
  445MOL0     C58614   8.799   9.910   7.341 -0.6313 -0.1085  0.3319
  445MOL0     C58615   8.790   9.812   7.445  0.7403  0.8125  0.0914
  445MOL0     O58616   8.660   9.781   7.481  0.6385 -0.6672 -0.6247
  445MOL0     C58617   8.648   9.685   7.591 -0.3863 -0.3728  0.2517
  445MOL0     C58618   8.503   9.640   7.605 -0.2769 -0.0469  0.1818
  445MOL0     C58619   8.491   9.523   7.702 -0.1037 -0.4419  0.6484
  445MOL0     C58620   8.354   9.455   7.707 -0.0494 -0.3972 -0.6120
  445MOL0     C58621   8.317   9.379   7.842 -1.5309  0.3097 -0.0886
  445MOL0     C58622   8.188   9.308   7.831  0.2029 -0.4970 -0.0407
  445MOL0     C58623   8.157   9.227   7.957  0.9424  0.2541 -0.1429
  445MOL0     C58624   8.014   9.194   7.975  0.8823 -0.1587 -0.2173
  445MOL0     N58625   7.999   9.110   8.088  0.4355  0.0817  0.2046
  445MOL0     C58626   7.910   9.126   8.194  0.5583 -0.3211 -0.1334
  445MOL0     C58627   7.939   9.028   8.280  0.3460 -0.1224 -0.7671
  445MOL0     C58628   7.892   9.013   8.421 -0.1250 -0.2360 -0.3439
  445MOL0     C58629   7.739   9.012   8.436  0.4763 -0.5351  0.1781
  445MOL0     C58630   7.681   8.888   8.359  0.0984  0.4760 -0.5848
  445MOL0     C58631   7.528   8.889   8.387  0.0170  0.0417  0.0388
  445MOL0     O58632   7.456   8.810   8.293 -0.7534 -0.0676  0.3303
  445MOL0     C58633   7.320   8.816   8.308  0.5984  0.1332  0.1052
  445MOL0     C58634   7.241   8.750   8.216  0.1555 -0.2797 -0.0752
  445MOL0     C58635   7.102   8.758   8.203  0.2824 -0.6936  0.1714
  445MOL0     C58636   7.028   8.839   8.292  0.3585 -0.8881  0.2499
  445MOL0     C58637   6.880   8.850   8.281 -0.3421  1.1353  0.5533
  445MOL0     O58638   6.810   8.781   8.184 -0.5621 -0.0594  0.3978
  445MOL0     C58639   6.676   8.794   8.176  0.4962  0.2227  0.6752
  445MOL0     C58640   6.593   8.909   8.221 -0.7390 -0.2476  0.0047
  445MOL0     C58641   6.459   8.900   8.200 -0.4010  0.1654  0.5558
  445MOL0     C58642   6.398   8.795   8.142  0.5684  0.7174  0.0776
  445MOL0     O58643   6.260   8.797   8.111  0.5660 -0.3944 -0.4160
  445MOL0     C58644   6.213   8.746   7.978 -0.3514  0.0813 -0.2510
  445MOL0     C58645   6.078   8.797   7.943  0.2665 -0.0117 -0.5329
  445MOL0     C58646   6.018   8.700   7.832 -1.1678 -0.7857  0.1007
  445MOL0     C58647   5.882   8.766   7.792  0.6123 -0.2386 -0.4336
  445MOL0     C58648   5.832   8.679   7.674  0.2703  0.9104 -0.5353
  445MOL0     C58649   5.689   8.700   7.636  0.2697  0.6608 -0.0278
  445MOL0     C58650   5.672   8.809   7.525 -0.5647  0.2922  0.0629
  445MOL0     C58651   5.534   8.788   7.452  0.3819 -0.1534 -0.0036
  445MOL0    Cl58652   5.404   8.782   7.569 -0.0123  0.3018  0.3759
  445MOL0     C58653   6.475   8.684   8.107  0.5311 -0.1385  0.3003
  445MOL0     C58654   6.611   8.691   8.112  0.1011 -0.0108 -0.4362
  445MOL0     O58655   6.832   8.926   8.364  0.2483 -0.4888 -0.4395
  445MOL0     C58656   7.107   8.921   8.380  0.3864 -0.2447 -0.4382
  445MOL0     C58657   7.245   8.900   8.390 -0.6619 -0.0656  0.2010
  445MOL0     N58658   8.041   8.954   8.227  0.5752  0.2178  0.1563
  445MOL0     N58659   8.080   9.007   8.116 -0.5487  0.2669 -0.7955
  445MOL0     C58660   8.904   9.753   7.488 -0.2875 -0.1619  0.2138
  445MOL0     C58661   9.023   9.800   7.452 -0.0534  0.7019  0.6416
  445MOL0     C58662   9.341  10.092   7.300  0.0885  0.3727  0.0410
  445MOL0     C58663   9.426  10.016   7.217 -0.2456  0.0612 -1.1551
  445MOL0     C58664   9.550  10.052   7.177 -0.8913  0.1924  0.4215
  445MOL0     C58665   9.603  10.181   7.222 -0.7460  0.0888 -0.3283
  445MOL0     O58666   9.731  10.236   7.200  0.7742 -0.5455  0.5615
  445MOL0     C58667   9.826  10.158   7.126 -0.6163  0.7661 -0.1284
  445MOL0     C58668   9.956  10.240   7.121 -0.3056 -0.1764  0.0778
  445MOL0     C58669   9.955  10.367   7.046  0.3329 -0.9942  0.0506
  445MOL0     C58670  10.093  10.428   7.046  0.0588  0.9707  0.1308
  445MOL0     C58671  10.107  10.567   6.995  0.1819  0.3162 -0.3879
  445MOL0     C58672  10.114  10.744   6.931  0.5766  0.7262 -0.1303
  445MOL0     C58673   9.518  10.258   7.296  0.7186 -0.4907 -0.1022
  445MOL0     C58674   9.382  10.219   7.338 -0.3220  0.2804  0.9872
  445MOL0     H58675   8.946  10.014   7.217 -0.0521  2.0976  2.6183
  445MOL0     H58676   8.711   9.953   7.294 -1.6650 -0.4809  1.8358
  445MOL0     H58677   8.675   9.730   7.687  2.0828  1.0402 -1.0108
  445MOL0     H58678   8.705   9.595   7.565 -4.3268 -3.2062  0.4627
  445MOL0     H58679   8.454   9.603   7.515 -0.8111 -1.0744  0.8826
  445MOL0     H58680   8.454   9.730   7.642  1.8044  0.5620  1.6530
  445MOL0     H58681   8.517   9.553   7.804  0.6685  4.1487 -0.6682
  445MOL0     H58682   8.556   9.443   7.663 -0.8994 -1.0504  0.5486
  445MOL0     H58683   8.276   9.529   7.687 -0.9721 -0.7858  1.3000
  445MOL0     H58684   8.352   9.384   7.624 -0.0110 -0.0811 -0.8855
  445MOL0     H58685   8.327   9.453   7.922 -0.5570 -0.6034  0.6536
  445MOL0     H58686   8.390   9.301   7.866 -1.8164 -0.6634 -2.1862
  445MOL0     H58687   8.192   9.243   7.743  2.4513 -1.3331  0.6163
  445MOL0     H58688   8.115   9.389   7.824 -0.7342 -1.3159 -0.1223
  445MOL0     H58689   8.225   9.141   7.946  0.4879 -0.0378 -0.7734
  445MOL0     H58690   8.190   9.283   8.045  0.5025 -1.1825  0.9747
  445MOL0     H58691   7.983   9.149   7.880  1.4145  1.4569 -1.1995
  445MOL0     H58692   7.944   9.277   7.991 -0.4397 -1.5982  2.0640
  445MOL0     H58693   7.843   9.209   8.214  3.2866  1.9262  0.3061
  445MOL0     H58694   7.929   9.106   8.464 -2.1222  0.7076 -0.5333
  445MOL0     H58695   7.947   8.930   8.467  1.3419  0.7837 -0.2030
  445MOL0     H58696   7.701   9.100   8.385 -0.6996 -0.5015  1.0700
  445MOL0     H58697   7.703   9.028   8.538 -2.5051  1.7305 -1.0953
  445MOL0     H58698   7.699   8.904   8.252 -4.9088  0.1792 -1.7307
  445MOL0     H58699   7.723   8.795   8.398 -0.5418  0.4615  0.0774
  445MOL0     H58700   7.498   8.993   8.371  3.4355  1.3850  1.5079
  445MOL0     H58701   7.506   8.859   8.490 -0.3287 -0.5309 -0.1948
  445MOL0     H58702   7.292   8.685   8.146  1.6572  1.5537 -0.7475
  445MOL0     H58703   7.039   8.700   8.136  1.8887 -0.8966 -1.2151
  445MOL0     H58704   6.643   8.999   8.257  0.1459 -0.8239  0.2539
  445MOL0     H58705   6.392   8.978   8.237 -3.9185 -1.4455 -1.8022
  445MOL0     H58706   6.199   8.638   7.973  4.6077 -0.8172 -0.2682
  445MOL0     H58707   6.288   8.765   7.900  0.8453 -1.4485  0.4744
  445MOL0     H58708   6.078   8.901   7.907  0.1719  0.9342  2.0099
  445MOL0     H58709   6.017   8.809   8.032  0.8994  0.3914 -0.1424
  445MOL0     H58710   6.006   8.599   7.874  1.1799 -1.1628 -0.0191
  445MOL0     H58711   6.077   8.695   7.740 -1.3163  0.4749 -0.0805
  445MOL0     H58712   5.815   8.739   7.874  1.8362 -0.5933  0.4701
  445MOL0     H58713   5.882   8.874   7.772 -2.3297 -0.6647 -3.7942
  445MOL0     H58714   5.839   8.574   7.705  3.5790  1.5167  1.3658
  445MOL0     H58715   5.897   8.688   7.587 -0.4016  1.4130 -0.9978
  445MOL0     H58716   5.627   8.718   7.724 -0.4934  1.9935 -0.8034
  445MOL0     H58717   5.660   8.608   7.583 -0.0352  0.5070  0.4019
  445MOL0     H58718   5.682   8.906   7.573  0.0666 -0.4662  1.5173
  445MOL0     H58719   5.747   8.808   7.445  0.1385  2.4306  0.6191
  445MOL0     H58720   5.534   8.701   7.386 -0.3566  0.2129 -0.4959
  445MOL0     H58721   5.511   8.881   7.399 -3.1982  0.2385  1.9597
  445MOL0     H58722   6.425   8.599   8.060  0.8837  1.3195 -3.0201
  445MOL0     H58723   6.647   8.603   8.059  1.0325  0.2134 -0.1890
  445MOL0     H58724   7.057   8.989   8.449 -0.2989  0.0472 -1.2194
  445MOL0     H58725   7.297   8.962   8.463  0.6646  0.5572 -1.2254
  445MOL0     H58726   8.891   9.682   7.569 -2.3723 -0.3547 -0.2280
  445MOL0     H58727   9.116   9.768   7.497  0.3955  0.7845 -0.2004
  445MOL0     H58728   9.384   9.921   7.183  1.0820 -0.1254 -2.3329
  445MOL0     H58729   9.608   9.982   7.118 -0.9956 -0.1301  0.7032
  445MOL0     H58730   9.795  10.126   7.026  0.3538  2.3638 -0.9809
  445MOL0     H58731   9.828  10.059   7.171 -1.9030  0.0368 -1.5760
  445MOL0     H58732   9.973  10.271   7.224 -3.0549  0.6391  0.3841
  445MOL0     H58733  10.030  10.169   7.082 -1.8107 -0.2181 -3.0540
  445MOL0     H58734   9.875  10.434   7.079  0.3784 -2.2316  2.9853
  445MOL0     H58735   9.935  10.343   6.941 -1.5527  2.1239 -0.4297
  445MOL0     H58736  10.137  10.431   7.147  3.7748  0.6032 -1.3199
  445MOL0     H58737  10.167  10.360   7.004  0.0728 -0.3883  2.2021
  445MOL0     H58738  10.116  10.845   6.897 -0.7231  0.9136  0.3091
  445MOL0     H58739   9.556  10.353   7.332 -0.1523 -0.7482  1.6227
  445MOL0     H58740   9.329  10.293   7.396  2.2357  1.2681  2.2147
  446MOL0     O58741   7.435   9.856   4.452  0.2550 -0.2856 -0.3378
  446MOL0     C58742   7.476   9.743   4.432  1.0394  0.2803  0.6131
  446MOL0     O58743   7.412   9.642   4.362 -0.0694  0.0567  1.0131
  446MOL0     C58744   7.275   9.638   4.352  0.1268  0.0727 -0.8001
  446MOL0     C58745   7.196   9.666   4.463 -1.2859 -0.3503  0.6353
  446MOL0     C58746   7.062   9.696   4.446 -0.7854  0.4089  0.0569
  446MOL0     C58747   6.994   9.678   4.324  0.2040 -0.0683  0.0285
  446MOL0     O58748   6.862   9.720   4.316 -0.0303 -0.0067 -0.5677
  446MOL0     C58749   6.802   9.741   4.188  0.2744  0.5585  0.3693
  446MOL0     C58750   6.748   9.602   4.143  0.5510  0.0133  0.5144
  446MOL0     C58751   6.609   9.622   4.067 -0.6548  0.2551 -0.2117
  446MOL0     C58752   6.554   9.483   4.041 -0.2092 -0.0694 -0.5206
  446MOL0     C58753   6.447   9.491   3.927  0.4727  0.3688  0.5235
  446MOL0     C58754   6.352   9.373   3.922 -0.3558  0.3620 -0.2763
  446MOL0     C58755   6.406   9.243   3.865 -0.3729 -0.0012  0.6469
  446MOL0     C58756   6.366   9.224   3.717  0.8006  0.6881 -0.0930
  446MOL0     N58757   6.219   9.191   3.692 -0.2087  1.2813 -0.0775
  446MOL0     C58758   6.182   9.055   3.691  0.6139 -0.0073 -0.2619
  446MOL0     C58759   6.058   9.060   3.636 -0.3035  0.2135 -0.4898
  446MOL0     C58760   5.970   8.937   3.634 -0.0518  0.1207 -0.5263
  446MOL0     C58761   5.819   8.978   3.644  0.1029 -0.3999  0.2500
  446MOL0     C58762   5.725   8.858   3.651 -0.2495  0.1646 -0.1999
  446MOL0     C58763   5.713   8.784   3.517 -0.5012  0.5389  0.2254
  446MOL0     O58764   5.654   8.650   3.551  0.1210  0.0456  0.4614
  446MOL0     C58765   5.652   8.565   3.443  0.6523  0.5577 -0.2358
  446MOL0     C58766   5.557   8.466   3.448  0.3424  0.4947 -0.8060
  446MOL0     C58767   5.548   8.370   3.352 -0.3047  0.1219  0.0739
  446MOL0     C58768   5.639   8.372   3.241  0.7818  0.1675 -0.7863
  446MOL0     C58769   5.628   8.281   3.122 -0.2677  0.0952 -0.3618
  446MOL0     O58770   5.565   8.155   3.136 -0.5942 -0.4072  0.2937
  446MOL0     C58771   5.572   8.047   3.041  0.1360 -0.1820 -0.7933
  446MOL0     C58772   5.623   8.061   2.917  0.5499  0.4250  0.3012
  446MOL0     C58773   5.607   7.955   2.817 -0.1995 -0.1566 -1.5748
  446MOL0     C58774   5.551   7.836   2.852  0.4223 -0.0926  0.1303
  446MOL0     O58775   5.542   7.739   2.753  0.6911 -0.3435  0.1357
  446MOL0     C58776   5.473   7.622   2.784 -0.1860 -0.6841 -0.4612
  446MOL0     C58777   5.510   7.530   2.660 -0.0230 -0.8126  0.0430
  446MOL0     C58778   5.457   7.387   2.681 -0.6679 -0.7781 -0.5166
  446MOL0     C58779   5.493   7.289   2.574  0.3673 -0.0574  0.4674
  446MOL0     C58780   5.423   7.157   2.605 -0.7518  0.9397  0.4095
  446MOL0     C58781   5.409   7.110   2.756 -0.1260  0.4997 -0.3909
  446MOL0     C58782   5.318   6.980   2.769 -0.1870 -0.2743  0.6805
  446MOL0     C58783   5.330   6.899   2.898 -0.1506  0.3508 -0.4681
  446MOL0    Cl58784   5.310   7.012   3.034 -0.0989 -0.1908  0.1398
  446MOL0     C58785   5.500   7.819   2.984 -0.1423 -0.0346  0.7897
  446MOL0     C58786   5.518   7.922   3.074  0.5399 -0.0367 -0.4460
  446MOL0     O58787   5.689   8.320   3.023 -0.6979  0.0878 -0.8691
  446MOL0     C58788   5.739   8.471   3.236  0.0785 -0.2555  0.1227
  446MOL0     C58789   5.748   8.567   3.335 -0.4060 -0.6583  0.4552
  446MOL0     N58790   6.026   9.179   3.589  0.3325  0.2519  0.2458
  446MOL0     N58791   6.121   9.258   3.620 -0.6865  0.2384 -0.2811
  446MOL0     C58792   7.073   9.635   4.213  0.7385 -0.6261 -0.1829
  446MOL0     C58793   7.215   9.614   4.225  0.8672  0.1271 -0.9431
  446MOL0     C58794   7.616   9.721   4.456 -0.0598 -0.9740  0.1382
  446MOL0     C58795   7.672   9.595   4.429  0.2004 -0.4154  0.1345
  446MOL0     C58796   7.810   9.578   4.446  0.0232 -0.2163 -0.5805
  446MOL0     C58797   7.890   9.680   4.501  1.0365  0.0913 -0.5398
  446MOL0     O58798   8.026   9.653   4.508 -1.0972  0.0989 -0.3995
  446MOL0     C58799   8.106   9.735   4.596  0.2192  0.7482 -0.0671
  446MOL0     C58800   8.178   9.853   4.522 -0.6641  0.0666  0.3041
  446MOL0     C58801   8.278   9.805   4.413 -0.7418  0.5562  0.1166
  446MOL0     C58802   8.349   9.907   4.327  0.6646  0.9265  0.1794
  446MOL0     C58803   8.365   9.864   4.189 -0.1986  0.0911  0.8731
  446MOL0     C58804   8.377   9.841   4.065  0.9513  0.9722 -0.1177
  446MOL0     C58805   7.829   9.802   4.527 -0.0718 -0.4275 -0.5665
  446MOL0     C58806   7.694   9.821   4.508 -0.0303  0.2620 -0.2205
  446MOL0     H58807   7.248   9.655   4.558 -1.4250 -1.9461  0.5479
  446MOL0     H58808   6.998   9.716   4.531 -0.8228 -1.1530  0.4255
  446MOL0     H58809   6.866   9.773   4.106  0.4476 -0.2555  0.1758
  446MOL0     H58810   6.719   9.812   4.195 -0.3543 -0.0235 -0.7580
  446MOL0     H58811   6.755   9.540   4.234  1.5062  1.5666  1.5574
  446MOL0     H58812   6.825   9.553   4.083 -1.4914  0.5495 -2.7866
  446MOL0     H58813   6.631   9.676   3.974  4.9424 -1.9494 -0.5708
  446MOL0     H58814   6.534   9.682   4.118 -2.1189 -0.6478 -1.2392
  446MOL0     H58815   6.631   9.411   4.015 -1.3382 -0.6798 -2.3411
  446MOL0     H58816   6.513   9.450   4.137  0.2449  1.8813  0.4030
  446MOL0     H58817   6.504   9.490   3.834  1.1394 -4.3578  0.7106
  446MOL0     H58818   6.397   9.588   3.934 -0.7396 -0.2275  0.3584
  446MOL0     H58819   6.264   9.405   3.866 -0.3670 -1.2051 -1.2022
  446MOL0     H58820   6.321   9.355   4.025  0.1988 -1.4776 -0.4041
  446MOL0     H58821   6.514   9.237   3.884 -0.5806  1.6181  2.6643
  446MOL0     H58822   6.367   9.161   3.925 -0.8551  0.3944  0.8833
  446MOL0     H58823   6.422   9.138   3.680 -0.8919 -0.2134 -0.6857
  446MOL0     H58824   6.387   9.314   3.658 -1.2257  0.9877 -0.4139
  446MOL0     H58825   6.228   8.966   3.734  1.3437 -0.3395 -1.6609
  446MOL0     H58826   5.995   8.886   3.727 -0.2010  0.2444 -0.4178
  446MOL0     H58827   5.996   8.872   3.549  1.2942  0.5987 -0.4920
  446MOL0     H58828   5.780   9.039   3.563  1.3703  0.3973  0.2056
  446MOL0     H58829   5.814   9.037   3.736 -1.0374 -1.6225  0.9991
  446MOL0     H58830   5.766   8.787   3.723  2.4975 -0.0106 -1.7875
  446MOL0     H58831   5.623   8.888   3.677 -0.0601 -1.0795  2.2935
  446MOL0     H58832   5.809   8.772   3.466 -1.1384 -3.3361 -0.4156
  446MOL0     H58833   5.645   8.846   3.459 -0.2220  0.1110 -0.5812
  446MOL0     H58834   5.488   8.456   3.530  0.7998 -0.1312 -0.4803
  446MOL0     H58835   5.467   8.298   3.360 -1.0185  0.9981  1.0916
  446MOL0     H58836   5.680   8.148   2.885  2.8107  0.3997  3.7758
  446MOL0     H58837   5.646   7.955   2.715  0.0086  1.2555 -1.5176
  446MOL0     H58838   5.364   7.628   2.782 -0.1048  1.1642 -1.0620
  446MOL0     H58839   5.521   7.575   2.871  2.0342  1.4252 -0.4448
  446MOL0     H58840   5.618   7.529   2.641 -0.5464 -1.5762 -3.6120
  446MOL0     H58841   5.462   7.567   2.570 -1.8375  1.2872  1.7522
  446MOL0     H58842   5.350   7.377   2.698 -1.0266  1.2420 -1.3433
  446MOL0     H58843   5.506   7.341   2.767 -0.1537 -3.3990 -2.1002
  446MOL0     H58844   5.443   7.325   2.484 -0.1417  1.0760  1.1684
  446MOL0     H58845   5.600   7.272   2.560  0.5666  0.6803  1.0079
  446MOL0     H58846   5.473   7.079   2.548 -2.9230  0.1147 -0.4479
  446MOL0     H58847   5.325   7.172   2.559  0.1246  1.7371 -1.3031
  446MOL0     H58848   5.369   7.190   2.818  2.1666  0.1133  1.7430
  446MOL0     H58849   5.500   7.079   2.808  1.2518 -0.0893 -2.9796
  446MOL0     H58850   5.218   7.003   2.733  0.4090  1.0662 -0.2312
  446MOL0     H58851   5.352   6.921   2.684  3.1252  1.2328  0.7998
  446MOL0     H58852   5.430   6.857   2.892  0.4801  1.8735 -1.3049
  446MOL0     H58853   5.258   6.817   2.906  0.8910 -0.5763 -0.4449
  446MOL0     H58854   5.450   7.730   3.020 -1.3813  0.7714  1.1035
  446MOL0     H58855   5.475   7.913   3.174 -0.3349  1.6890 -0.6314
  446MOL0     H58856   5.811   8.475   3.154  1.0816 -2.0193  0.8582
  446MOL0     H58857   5.827   8.641   3.329 -0.0873 -0.9916  0.5343
  446MOL0     H58858   7.033   9.617   4.114 -0.2654 -1.8842  0.4176
  446MOL0     H58859   7.275   9.587   4.139  1.1751 -1.3724 -0.3019
  446MOL0     H58860   7.619   9.512   4.385 -1.6528  2.2573 -3.1591
  446MOL0     H58861   7.857   9.482   4.432 -1.0991 -0.6876 -1.3419
  446MOL0     H58862   8.182   9.673   4.644 -3.0089 -1.6673  2.3398
  446MOL0     H58863   8.048   9.776   4.679 -1.0338 -2.4659  0.7985
  446MOL0     H58864   8.100   9.912   4.472 -0.1921 -0.1741 -0.7393
  446MOL0     H58865   8.231   9.911   4.599  0.5775 -1.0556  0.3278
  446MOL0     H58866   8.232   9.735   4.342 -2.7918  2.9057 -1.0238
  446MOL0     H58867   8.365   9.755   4.458  1.6070  2.9072 -1.4937
  446MOL0     H58868   8.289   9.998   4.319 -0.2746  0.1666 -2.3125
  446MOL0     H58869   8.449   9.924   4.369  0.9444  0.4316 -0.2734
  446MOL0     H58870   8.372   9.809   3.963 -2.1296  0.5066  0.0715
  446MOL0     H58871   7.891   9.880   4.570  2.0592 -1.7845 -1.0076
  446MOL0     H58872   7.653   9.917   4.539  2.4134  0.7729  1.6940
  447MOL0     O58873   7.765   2.059   7.989 -0.4725  0.3370  0.0519
  447MOL0     C58874   7.856   2.037   8.073  0.0451  0.6893 -0.8814
  447MOL0     O58875   7.849   1.939   8.174  0.4787 -0.2338 -0.8070
  447MOL0     C58876   7.747   1.844   8.176  0.8234 -1.0059  0.4587
  447MOL0     C58877   7.785   1.708   8.170  0.0974 -0.3856  0.0682
  447MOL0     C58878   7.694   1.598   8.171 -1.0560  0.0965  0.2910
  447MOL0     C58879   7.561   1.625   8.203 -1.0203 -0.4923 -0.2196
  447MOL0     O58880   7.463   1.529   8.209  0.6590  0.7781  0.3736
  447MOL0     C58881   7.496   1.403   8.272 -0.2306  0.0229 -0.4990
  447MOL0     C58882   7.382   1.318   8.314  0.2270  0.1479  0.0881
  447MOL0     C58883   7.268   1.310   8.209 -0.4805 -0.3461 -0.6764
  447MOL0     C58884   7.149   1.247   8.284  0.3214 -0.2140  0.3531
  447MOL0     C58885   7.021   1.248   8.202  0.2548  0.2777  0.7874
  447MOL0     C58886   6.911   1.177   8.276 -0.3095  0.4224  0.1191
  447MOL0     C58887   6.786   1.190   8.190 -0.6695  0.9002  0.2691
  447MOL0     C58888   6.674   1.094   8.254 -0.9896  0.0362  0.3470
  447MOL0     N58889   6.693   0.946   8.225  0.0436 -0.0148  0.3490
  447MOL0     C58890   6.626   0.844   8.287 -0.1448 -0.0132  0.2934
  447MOL0     C58891   6.648   0.741   8.208  0.6655  0.2214  0.0254
  447MOL0     C58892   6.611   0.596   8.223 -0.5663 -0.1713 -0.2139
  447MOL0     C58893   6.465   0.559   8.187 -0.2448 -0.8967  0.4687
  447MOL0     C58894   6.415   0.430   8.256  0.6831  0.1368 -0.2123
  447MOL0     C58895   6.266   0.401   8.224 -0.6073 -0.0976  1.5930
  447MOL0     O58896   6.202   0.492   8.313  0.0611  0.3545 -0.1014
  447MOL0     C58897   6.066   0.518   8.292  0.3460 -0.6044 -0.7347
  447MOL0     C58898   5.986   0.459   8.194  1.0305  0.9087  0.5694
  447MOL0     C58899   5.847   0.485   8.182  0.4435  0.1355  0.2512
  447MOL0     C58900   5.791   0.576   8.272 -0.2235  0.2373 -0.6070
  447MOL0     C58901   5.641   0.590   8.278  0.3116  0.2660 -0.7520
  447MOL0     O58902   5.569   0.501   8.194  0.1086 -0.1008  0.1894
  447MOL0     C58903   5.438   0.516   8.199 -0.2120  0.0301 -0.3684
  447MOL0     C58904   5.377   0.394   8.231  0.9236 -0.1264  0.0313
  447MOL0     C58905   5.239   0.393   8.222  0.2769 -0.1065  0.3476
  447MOL0     C58906   5.166   0.507   8.193 -0.3994 -0.3026 -0.3913
  447MOL0     O58907   5.032   0.498   8.194  0.0081 -0.2277 -0.1674
  447MOL0     C58908   4.966   0.573   8.300 -0.4064  0.8021 -1.3280
  447MOL0     C58909   4.864   0.488   8.369  0.1059  0.7118  0.0623
  447MOL0     C58910   4.743   0.453   8.281 -0.0204  0.0888  0.3802
  447MOL0     C58911   4.659   0.337   8.339 -0.0595  0.8309 -0.1269
  447MOL0     C58912   4.534   0.305   8.260 -0.0667 -0.0447 -1.0415
  447MOL0     C58913   4.416   0.236   8.332 -1.1054  0.1599 -1.0218
  447MOL0     C58914   4.310   0.200   8.229 -0.1085  0.2393 -0.3803
  447MOL0     C58915   4.193   0.124   8.287  0.3006  0.0472 -0.4683
  447MOL0    Cl58916   4.130   0.188   8.446  0.0973  0.1926  0.0702
  447MOL0     C58917   5.235   0.630   8.168 -0.2368  0.6341 -0.2575
  447MOL0     C58918   5.376   0.635   8.162  1.3362 -0.1687  0.4215
  447MOL0     O58919   5.585   0.670   8.356  0.4187  0.1712 -0.1933
  447MOL0     C58920   5.870   0.654   8.355 -0.0022  0.2318 -0.3139
  447MOL0     C58921   6.004   0.619   8.371 -0.7749 -0.1433 -0.8432
  447MOL0     N58922   6.723   0.779   8.097 -0.4328  0.0724  0.3539
  447MOL0     N58923   6.761   0.905   8.113 -0.2491 -0.2989  0.3717
  447MOL0     C58924   7.525   1.758   8.218  0.4749 -0.3115 -0.6732
  447MOL0     C58925   7.609   1.867   8.208  0.9006  0.6441 -0.0917
  447MOL0     C58926   7.980   2.114   8.088  0.6340 -0.1385  0.1162
  447MOL0     C58927   8.005   2.208   7.985  0.1935 -0.3558  0.2925
  447MOL0     C58928   8.131   2.275   7.986  0.2044 -0.2124  0.0277
  447MOL0     C58929   8.219   2.256   8.091 -0.2620  0.4664 -0.1436
  447MOL0     O58930   8.335   2.327   8.091  0.0624  0.1521  0.2462
  447MOL0     C58931   8.445   2.306   8.177 -0.2332  0.7575 -0.5722
  447MOL0     C58932   8.555   2.401   8.162  0.4207 -0.4365 -0.1776
  447MOL0     C58933   8.634   2.376   8.038  0.3532  0.6622 -0.0827
  447MOL0     C58934   8.730   2.486   8.005  0.4576 -0.8036  0.6028
  447MOL0     C58935   8.841   2.429   7.927  0.4432 -0.4443 -0.0096
  447MOL0     C58936   8.938   2.389   7.866  0.5679  0.3350 -0.2448
  447MOL0     C58937   8.194   2.159   8.187  0.2187  0.0692 -0.5082
  447MOL0     C58938   8.075   2.094   8.190 -0.0814  0.5510  0.0201
  447MOL0     H58939   7.892   1.699   8.160  0.3424  1.0978  1.1049
  447MOL0     H58940   7.735   1.498   8.179 -1.4415 -0.0003  1.1899
  447MOL0     H58941   7.559   1.413   8.360 -1.1655 -1.8145  0.4521
  447MOL0     H58942   7.557   1.346   8.201  0.5029 -2.4356  1.9007
  447MOL0     H58943   7.353   1.347   8.416 -1.4276 -0.1713 -0.2625
  447MOL0     H58944   7.432   1.221   8.316  1.7690  0.8246 -2.2285
  447MOL0     H58945   7.307   1.251   8.125 -0.9815 -1.0970 -0.3905
  447MOL0     H58946   7.229   1.406   8.175  0.7724  1.1430  1.8324
  447MOL0     H58947   7.166   1.142   8.311 -1.7510 -0.6080  0.3379
  447MOL0     H58948   7.132   1.295   8.380  0.1597 -0.5846  0.5144
  447MOL0     H58949   7.033   1.194   8.108 -0.8360  1.6781 -0.1945
  447MOL0     H58950   6.991   1.352   8.191  0.8170  0.2054 -2.1911
  447MOL0     H58951   6.890   1.233   8.368  1.9741  1.8487 -0.1361
  447MOL0     H58952   6.942   1.074   8.294  0.6117  0.2537 -2.0998
  447MOL0     H58953   6.756   1.295   8.192  1.5236  1.5810  0.3291
  447MOL0     H58954   6.800   1.168   8.084 -0.6420  1.0303  0.2450
  447MOL0     H58955   6.577   1.118   8.209 -1.0895 -2.1854 -0.7409
  447MOL0     H58956   6.666   1.111   8.362  0.9112  1.0821  0.3732
  447MOL0     H58957   6.585   0.833   8.387 -2.7322  1.9893 -0.4211
  447MOL0     H58958   6.640   0.576   8.326 -0.9930 -0.5117 -0.1613
  447MOL0     H58959   6.678   0.522   8.179 -0.3723  0.7921 -1.6098
  447MOL0     H58960   6.461   0.528   8.082  1.2321  0.0726  0.0960
  447MOL0     H58961   6.407   0.651   8.197  3.2406  1.6393 -0.5778
  447MOL0     H58962   6.477   0.349   8.217  0.3885 -1.1963  1.9380
  447MOL0     H58963   6.422   0.431   8.365 -1.5651 -0.1447 -0.0323
  447MOL0     H58964   6.236   0.296   8.237  0.2111 -0.9274 -2.0098
  447MOL0     H58965   6.243   0.418   8.119  0.2264 -2.3936  0.9726
  447MOL0     H58966   6.024   0.394   8.116  1.1471  0.8971  0.6363
  447MOL0     H58967   5.782   0.430   8.115  0.2555  0.7242 -0.0594
  447MOL0     H58968   5.440   0.311   8.261 -0.4333 -0.4905  2.0573
  447MOL0     H58969   5.169   0.311   8.230  0.7123 -0.5936 -0.7641
  447MOL0     H58970   4.915   0.659   8.255 -0.4052  1.2828 -0.4428
  447MOL0     H58971   5.030   0.619   8.376 -0.6921 -0.9228  0.0065
  447MOL0     H58972   4.824   0.529   8.463 -0.3735 -0.8453  0.5682
  447MOL0     H58973   4.921   0.397   8.388 -3.1144 -0.8528  3.8567
  447MOL0     H58974   4.789   0.423   8.186  1.8850  0.2170  1.2021
  447MOL0     H58975   4.682   0.539   8.250  0.1788  0.1645  0.1907
  447MOL0     H58976   4.716   0.246   8.362  0.0488  0.7876 -0.5663
  447MOL0     H58977   4.622   0.376   8.434  0.6447  0.6420  0.2290
  447MOL0     H58978   4.567   0.247   8.174  1.2463 -1.5465  0.4090
  447MOL0     H58979   4.502   0.399   8.215  0.2211  0.2815 -0.5803
  447MOL0     H58980   4.383   0.310   8.405 -0.4422  1.2852 -1.8351
  447MOL0     H58981   4.446   0.146   8.388 -0.9148  0.6189 -0.3650
  447MOL0     H58982   4.271   0.291   8.182 -1.8196  0.6120  1.6527
  447MOL0     H58983   4.364   0.130   8.164  0.0362 -2.7247  2.6440
  447MOL0     H58984   4.223   0.019   8.293 -0.2162 -0.1455 -1.1023
  447MOL0     H58985   4.123   0.130   8.204  0.7906 -0.9846 -0.9766
  447MOL0     H58986   5.178   0.719   8.142 -2.9158 -0.4103  1.6694
  447MOL0     H58987   5.433   0.724   8.140 -0.4296  1.5105  2.2311
  447MOL0     H58988   5.814   0.724   8.415 -2.4473 -1.6785 -0.2005
  447MOL0     H58989   6.065   0.662   8.450 -2.3041  1.0956 -0.2700
  447MOL0     H58990   7.420   1.775   8.240  0.4105 -0.1349 -1.1254
  447MOL0     H58991   7.566   1.966   8.210  0.5757  0.5232 -0.7716
  447MOL0     H58992   7.942   2.212   7.897  1.0926  1.4520 -0.3140
  447MOL0     H58993   8.159   2.346   7.909  0.0990  0.9246  1.0211
  447MOL0     H58994   8.482   2.203   8.169 -0.5155  0.6091  0.0020
  447MOL0     H58995   8.408   2.311   8.279  0.4147 -1.4470 -0.1799
  447MOL0     H58996   8.520   2.504   8.161 -3.6270 -1.6412  0.3124
  447MOL0     H58997   8.618   2.390   8.251 -0.2912 -2.0131  0.1639
  447MOL0     H58998   8.553   2.372   7.964  0.6689  1.6502 -0.5008
  447MOL0     H58999   8.678   2.277   8.048 -0.9229  0.0158 -0.5997
  447MOL0     H59000   8.677   2.558   7.942 -1.4701 -0.3469  2.6250
  447MOL0     H59001   8.775   2.533   8.094 -0.2299  0.7857  0.1478
  447MOL0     H59002   9.030   2.377   7.813  0.6363  2.7964 -0.8142
  447MOL0     H59003   8.277   2.146   8.256  1.6509  1.4981 -1.8746
  447MOL0     H59004   8.053   2.029   8.274 -0.6646 -0.7345 -1.0868
  448MOL0     O59005   5.614   0.966   9.298 -0.4425  0.1102  0.1064
  448MOL0     C59006   5.631   0.907   9.405  0.7926  0.2855 -0.7458
  448MOL0     O59007   5.544   0.824   9.467 -1.0801 -0.0113  0.0809
  448MOL0     C59008   5.437   0.798   9.386 -0.9352  0.3092  0.4964
  448MOL0     C59009   5.442   0.698   9.292  0.4944 -0.0273  0.1430
  448MOL0     C59010   5.326   0.678   9.220 -0.0862  0.9328 -0.2324
  448MOL0     C59011   5.196   0.730   9.255 -0.7751  1.1484  0.5103
  448MOL0     O59012   5.081   0.691   9.199  0.1541 -0.1805 -0.2003
  448MOL0     C59013   5.081   0.598   9.088  0.0519  0.2075 -0.0731
  448MOL0     C59014   4.929   0.579   9.051 -0.0341 -0.0209  0.3118
  448MOL0     C59015   4.889   0.689   8.949 -0.5431 -0.8597  0.0129
  448MOL0     C59016   4.742   0.661   8.897 -0.3816 -0.7125 -0.6030
  448MOL0     C59017   4.719   0.722   8.761  1.2727  0.1371 -0.2319
  448MOL0     C59018   4.567   0.721   8.727 -0.6245 -0.0302 -0.1471
  448MOL0     C59019   4.537   0.631   8.599  0.5174 -0.6872  0.4629
  448MOL0     C59020   4.384   0.625   8.578 -0.9923  1.5184 -0.5206
  448MOL0     N59021   4.318   0.759   8.584  0.0878 -0.0035 -0.2894
  448MOL0     C59022   4.352   0.857   8.497  0.6414 -0.2617 -0.5361
  448MOL0     C59023   4.261   0.956   8.521 -0.2381  0.3273  0.0159
  448MOL0     C59024   4.233   1.086   8.446 -0.7067  0.3073 -0.7393
  448MOL0     C59025   4.347   1.181   8.476  0.2739 -0.2780  0.2958
  448MOL0     C59026   4.321   1.327   8.435  0.0763  0.1818 -0.2273
  448MOL0     C59027   4.442   1.420   8.448 -0.3369  0.6976 -0.1072
  448MOL0     O59028   4.559   1.365   8.391  0.4829  0.5533  0.5443
  448MOL0     C59029   4.675   1.436   8.380  0.5544  0.6775 -0.3825
  448MOL0     C59030   4.699   1.560   8.437  0.1480  0.1415  0.4306
  448MOL0     C59031   4.822   1.616   8.444  0.3062 -0.0901  0.4058
  448MOL0     C59032   4.936   1.547   8.403  0.2680  0.3162 -0.1960
  448MOL0     C59033   5.068   1.610   8.388 -0.2499  0.1580 -0.2974
  448MOL0     O59034   5.171   1.534   8.336  0.0089 -0.0002  0.4895
  448MOL0     C59035   5.302   1.581   8.346 -0.0878  0.9070  0.3770
  448MOL0     C59036   5.358   1.640   8.465 -0.3723  0.1224  0.1488
  448MOL0     C59037   5.488   1.671   8.475 -0.1760  0.1610 -0.1276
  448MOL0     C59038   5.572   1.625   8.376 -0.6062 -0.4837  0.4773
  448MOL0     O59039   5.703   1.660   8.382 -0.2682 -0.1401  0.3882
  448MOL0     C59040   5.796   1.551   8.375 -0.0986 -0.3657 -0.2752
  448MOL0     C59041   5.901   1.568   8.493  0.5382 -0.0140 -0.0008
  448MOL0     C59042   6.022   1.483   8.469  0.2528 -0.2768 -0.5264
  448MOL0     C59043   6.151   1.524   8.549  0.0484 -0.3138 -0.1576
  448MOL0     C59044   6.271   1.439   8.544  0.3585 -0.0194  0.2118
  448MOL0     C59045   6.383   1.493   8.632  0.4645 -0.3613 -0.0692
  448MOL0     C59046   6.520   1.436   8.594  0.5286  0.1920 -0.6281
  448MOL0     C59047   6.632   1.493   8.677 -0.4159  1.5661  0.0909
  448MOL0    Cl59048   6.766   1.385   8.638 -0.1673 -0.0202  0.3564
  448MOL0     C59049   5.527   1.563   8.259  0.6073 -0.6811 -0.5831
  448MOL0     C59050   5.388   1.547   8.243 -0.4971  0.0772  0.1473
  448MOL0     O59051   5.076   1.726   8.427  0.4639  0.3264  0.0611
  448MOL0     C59052   4.923   1.416   8.352  0.2827  0.1545 -0.0659
  448MOL0     C59053   4.793   1.365   8.336 -0.1718  0.2455  0.2273
  448MOL0     N59054   4.166   0.906   8.611 -0.4856  0.4136  0.8403
  448MOL0     N59055   4.200   0.789   8.646 -0.0200  0.2176 -0.3107
  448MOL0     C59056   5.200   0.833   9.337  1.2471  0.4307 -0.6433
  448MOL0     C59057   5.314   0.868   9.406 -0.1740 -0.0185  0.0247
  448MOL0     C59058   5.757   0.943   9.474  0.3503  0.8297 -1.2031
  448MOL0     C59059   5.830   1.051   9.428  0.0347 -0.0939 -0.1252
  448MOL0     C59060   5.957   1.079   9.477 -0.4504 -0.7771 -0.0023
  448MOL0     C59061   6.011   0.998   9.574 -0.2702  0.2870  0.1787
  448MOL0     O59062   6.132   1.023   9.614 -0.7810  0.2950  0.3469
  448MOL0     C59063   6.215   0.924   9.680 -0.5655  0.4400  0.2664
  448MOL0     C59064   6.354   0.977   9.719 -0.2148 -0.3925  0.7199
  448MOL0     C59065   6.423   1.002   9.582 -0.3712 -0.3300  0.5746
  448MOL0     C59066   6.562   1.058   9.586  0.4401  0.5029  0.1135
  448MOL0     C59067   6.667   0.991   9.665 -0.3201  0.9668 -0.3493
  448MOL0     C59068   6.761   0.938   9.724  0.8468 -0.5733  0.7190
  448MOL0     C59069   5.930   0.894   9.624 -0.6318  0.3611 -0.0688
  448MOL0     C59070   5.800   0.871   9.581  0.2416 -0.0532 -0.0920
  448MOL0     H59071   5.532   0.641   9.274  0.2130 -1.0181  1.6938
  448MOL0     H59072   5.332   0.587   9.160  0.8902 -0.1349  1.4011
  448MOL0     H59073   5.117   0.499   9.118 -0.1088  0.3083  0.4734
  448MOL0     H59074   5.135   0.632   8.999 -0.7586 -1.2664 -1.1701
  448MOL0     H59075   4.877   0.610   9.142 -0.4277  2.8590 -0.8026
  448MOL0     H59076   4.892   0.481   9.017 -3.8502  0.6640  2.0254
  448MOL0     H59077   4.947   0.679   8.858 -1.9867 -0.8943 -0.9419
  448MOL0     H59078   4.892   0.785   9.001  0.6281 -0.7863 -0.1777
  448MOL0     H59079   4.736   0.552   8.883  1.3205 -1.1453  1.4874
  448MOL0     H59080   4.675   0.689   8.979  2.6993 -1.3174  2.3430
  448MOL0     H59081   4.759   0.658   8.682 -2.4286 -0.2078 -2.0272
  448MOL0     H59082   4.773   0.818   8.762 -0.0563  0.9220 -1.0290
  448MOL0     H59083   4.533   0.824   8.712 -0.1319  0.3120  0.9928
  448MOL0     H59084   4.511   0.677   8.809  0.8089 -0.9752  0.3681
  448MOL0     H59085   4.591   0.678   8.516  1.7867 -2.3525  0.2918
  448MOL0     H59086   4.578   0.530   8.604  0.9501 -0.4930  0.9207
  448MOL0     H59087   4.338   0.566   8.657  0.0498 -1.8367 -2.2136
  448MOL0     H59088   4.366   0.576   8.481 -0.2104 -0.3406  0.2097
  448MOL0     H59089   4.439   0.854   8.433  2.2449 -3.4721  1.5103
  448MOL0     H59090   4.140   1.131   8.483  0.0458  1.4838 -0.2028
  448MOL0     H59091   4.224   1.060   8.340 -0.7460 -0.6586 -0.5004
  448MOL0     H59092   4.432   1.133   8.426  0.9186  2.3281 -1.2711
  448MOL0     H59093   4.364   1.178   8.584 -1.7336 -2.7115  0.6464
  448MOL0     H59094   4.291   1.324   8.330  2.9183 -3.5914 -1.1600
  448MOL0     H59095   4.249   1.375   8.502  1.5603 -0.1754  1.7330
  448MOL0     H59096   4.459   1.444   8.553 -0.7605 -0.9639  0.3799
  448MOL0     H59097   4.414   1.513   8.398  2.6997  1.0929 -1.2453
  448MOL0     H59098   4.621   1.608   8.497 -1.6910 -1.1529 -0.8117
  448MOL0     H59099   4.827   1.718   8.482 -2.0160 -0.2726  1.3312
  448MOL0     H59100   5.286   1.651   8.546 -2.9779  0.9922 -2.1332
  448MOL0     H59101   5.523   1.730   8.559  3.0451  0.8986 -1.8246
  448MOL0     H59102   5.849   1.552   8.279  0.3015  0.3638 -0.0572
  448MOL0     H59103   5.744   1.456   8.393 -1.0764 -0.3632 -2.6971
  448MOL0     H59104   5.840   1.540   8.580 -1.3092  4.3833  0.3838
  448MOL0     H59105   5.932   1.672   8.508 -2.3710  0.5606  3.7820
  448MOL0     H59106   6.042   1.481   8.362 -2.6356  1.2611 -1.2055
  448MOL0     H59107   5.986   1.385   8.504 -0.7206  1.0348  2.4874
  448MOL0     H59108   6.177   1.621   8.508 -0.2684 -0.7192 -1.3352
  448MOL0     H59109   6.137   1.541   8.657  1.7786  1.8574 -0.1996
  448MOL0     H59110   6.306   1.437   8.441 -1.9895  1.4761 -0.6990
  448MOL0     H59111   6.236   1.339   8.573 -2.0663  1.1148  1.5442
  448MOL0     H59112   6.361   1.461   8.735 -1.1131  0.4224 -0.1365
  448MOL0     H59113   6.396   1.601   8.619  0.3888 -0.5743 -2.1353
  448MOL0     H59114   6.515   1.327   8.602  1.0066  0.1238 -1.1583
  448MOL0     H59115   6.546   1.446   8.488  2.7453  0.2671 -0.1311
  448MOL0     H59116   6.609   1.489   8.784  1.3224  3.2273  0.5775
  448MOL0     H59117   6.674   1.592   8.656  2.9574  0.1637 -0.3015
  448MOL0     H59118   5.598   1.536   8.181  3.1426  0.7385  1.0720
  448MOL0     H59119   5.357   1.499   8.151  2.1000  1.6268 -1.6738
  448MOL0     H59120   5.008   1.365   8.308  1.2832 -1.0252  2.9299
  448MOL0     H59121   4.783   1.263   8.299  3.2750 -0.5026  1.0134
  448MOL0     H59122   5.108   0.889   9.347  2.3743  2.8786 -2.7021
  448MOL0     H59123   5.301   0.943   9.484  1.6730  0.9696 -0.5704
  448MOL0     H59124   5.792   1.114   9.348 -0.7679 -0.8398 -0.3494
  448MOL0     H59125   6.005   1.171   9.445 -2.0291  1.8359  4.3176
  448MOL0     H59126   6.238   0.841   9.613 -2.9929  0.0917 -0.2367
  448MOL0     H59127   6.169   0.887   9.772 -0.8705  3.4609  1.4580
  448MOL0     H59128   6.355   1.074   9.769 -0.6230 -0.7295  1.3935
  448MOL0     H59129   6.401   0.895   9.775 -0.2196 -2.6057 -2.2691
  448MOL0     H59130   6.371   1.076   9.519 -0.2545  0.3222  1.2311
  448MOL0     H59131   6.430   0.909   9.525  1.0952 -0.8527  1.5714
  448MOL0     H59132   6.587   1.070   9.480 -0.3779  0.3026 -0.1077
  448MOL0     H59133   6.557   1.156   9.633  0.8162 -1.2180  4.1340
  448MOL0     H59134   6.840   0.907   9.789 -1.1732  1.1852  4.2536
  448MOL0     H59135   5.971   0.823   9.696 -1.1556 -1.5566 -1.5659
  448MOL0     H59136   5.740   0.789   9.620 -2.0649  1.1014 -1.0054
  449MOL0     O59137   6.335   2.906   7.855 -0.1573  0.5600  0.0516
  449MOL0     C59138   6.387   2.889   7.742 -0.0818  0.2833  0.3799
  449MOL0     O59139   6.340   2.935   7.627  0.4942  0.0450  0.1132
  449MOL0     C59140   6.234   3.015   7.623  1.2410 -0.2801  0.5241
  449MOL0     C59141   6.110   2.979   7.671  0.0311  0.2155 -0.5702
  449MOL0     C59142   5.993   3.063   7.674  0.4662 -0.0623  0.9944
  449MOL0     C59143   6.000   3.189   7.612  0.1775 -0.6977  0.4835
  449MOL0     O59144   5.886   3.267   7.580 -0.4274  0.2181 -0.0876
  449MOL0     C59145   5.768   3.250   7.660  0.4330 -0.4569 -0.6763
  449MOL0     C59146   5.653   3.297   7.577 -0.3634 -0.3667  0.1171
  449MOL0     C59147   5.529   3.287   7.672  0.4591  0.2030 -0.2551
  449MOL0     C59148   5.406   3.338   7.597 -0.3020  0.2833 -0.1372
  449MOL0     C59149   5.277   3.306   7.667  0.0859 -0.2197 -0.0388
  449MOL0     C59150   5.152   3.313   7.583  0.0687 -0.5547 -0.1562
  449MOL0     C59151   5.152   3.424   7.477 -0.2521 -0.5950  0.2911
  449MOL0     C59152   5.010   3.451   7.422 -0.1860  0.1223 -0.5059
  449MOL0     N59153   4.931   3.536   7.517 -0.8016 -0.5942  0.2321
  449MOL0     C59154   4.907   3.666   7.505 -0.0089  0.4235  0.4968
  449MOL0     C59155   4.820   3.695   7.598 -0.0446  0.2872  0.1845
  449MOL0     C59156   4.774   3.836   7.625  1.0287 -0.7632  0.2791
  449MOL0     C59157   4.844   3.904   7.740  0.1572 -0.4218 -0.6865
  449MOL0     C59158   4.849   3.833   7.874 -0.1340  0.7930 -1.0773
  449MOL0     C59159   4.712   3.781   7.937  0.2483 -0.2306  0.0521
  449MOL0     O59160   4.633   3.896   7.968  0.1378 -0.4272  0.1023
  449MOL0     C59161   4.498   3.869   7.976  0.1810  1.2030 -0.0696
  449MOL0     C59162   4.436   3.743   8.005  0.7880  0.1800  0.1814
  449MOL0     C59163   4.295   3.726   8.007  1.0724  0.1950 -0.2590
  449MOL0     C59164   4.206   3.836   7.984 -0.6223  0.2152  0.3374
  449MOL0     C59165   4.061   3.827   7.997 -0.8631  0.4993  0.0482
  449MOL0     O59166   4.013   3.702   8.044  0.0386  0.4264 -0.1174
  449MOL0     C59167   3.876   3.704   8.058  0.3640 -0.1186 -0.1172
  449MOL0     C59168   3.800   3.632   7.963 -0.0439  0.5200 -0.0696
  449MOL0     C59169   3.663   3.602   7.978  0.0841  0.1362  0.1758
  449MOL0     C59170   3.600   3.648   8.088  0.4302 -1.3511 -0.0808
  449MOL0     O59171   3.469   3.610   8.103 -0.5770 -0.9830 -0.0168
  449MOL0     C59172   3.405   3.625   8.231 -0.4671 -1.1153 -0.0999
  449MOL0     C59173   3.280   3.545   8.236 -0.7657 -0.2674  0.6109
  449MOL0     C59174   3.203   3.557   8.371  0.7647 -0.0299 -0.5265
  449MOL0     C59175   3.085   3.459   8.384 -0.4727 -0.6211  0.6950
  449MOL0     C59176   2.961   3.534   8.447  0.9008 -0.1949 -0.3324
  449MOL0     C59177   2.838   3.445   8.453  0.3624 -0.6205 -0.1722
  449MOL0     C59178   2.705   3.515   8.487 -0.0646 -0.5144 -0.2004
  449MOL0     C59179   2.667   3.646   8.411 -0.5029 -0.2925  0.3019
  449MOL0    Cl59180   2.664   3.620   8.235  0.0547  0.6085 -0.6088
  449MOL0     C59181   3.674   3.722   8.185  0.0827  0.0755  0.0314
  449MOL0     C59182   3.810   3.752   8.166  0.1157  0.7604  0.0788
  449MOL0     O59183   3.996   3.910   7.943 -0.0676  0.2453 -0.0621
  449MOL0     C59184   4.270   3.958   7.932  0.0408 -0.2441 -0.3046
  449MOL0     C59185   4.410   3.970   7.938 -0.5525 -0.6222 -1.3255
  449MOL0     N59186   4.785   3.574   7.658 -0.6950  0.1414 -0.0026
  449MOL0     N59187   4.846   3.478   7.604 -0.4426  0.2211 -0.5807
  449MOL0     C59188   6.130   3.236   7.570  0.2232  0.2019 -0.4801
  449MOL0     C59189   6.238   3.148   7.572 -0.9623 -0.5933 -0.7873
  449MOL0     C59190   6.511   2.813   7.744  0.3250  0.6241  0.6771
  449MOL0     C59191   6.585   2.799   7.620 -0.4090  1.3252 -0.0954
  449MOL0     C59192   6.709   2.731   7.622  0.1495 -0.7763  0.1232
  449MOL0     C59193   6.759   2.677   7.741 -0.1583 -0.4592  0.0151
  449MOL0     O59194   6.873   2.598   7.744 -0.2777  0.3567 -0.2268
  449MOL0     C59195   6.943   2.585   7.619 -0.1964 -0.0309  0.3232
  449MOL0     C59196   7.079   2.521   7.639 -0.4375 -0.0093  0.3575
  449MOL0     C59197   7.186   2.617   7.714  0.7956  0.6473 -0.0112
  449MOL0     C59198   7.326   2.558   7.689  0.1006  0.2139  0.3125
  449MOL0     C59199   7.435   2.631   7.761  0.2517 -0.2679  0.4897
  449MOL0     C59200   7.532   2.700   7.794 -0.1548  0.3657 -0.0355
  449MOL0     C59201   6.685   2.688   7.854  0.2087  0.2795  0.2357
  449MOL0     C59202   6.559   2.754   7.856 -0.1458 -0.2765 -0.4714
  449MOL0     H59203   6.094   2.874   7.694 -2.6981  0.9421  1.3725
  449MOL0     H59204   5.903   3.008   7.697  0.4370 -0.6197 -0.3520
  449MOL0     H59205   5.775   3.315   7.747 -0.9122  0.1799 -1.0076
  449MOL0     H59206   5.753   3.145   7.687 -1.4749 -0.3946 -1.3418
  449MOL0     H59207   5.647   3.246   7.481 -0.3581  2.2422 -1.3560
  449MOL0     H59208   5.665   3.403   7.552 -0.1942  0.4846  3.3253
  449MOL0     H59209   5.553   3.340   7.765 -2.1036 -1.7193  1.6507
  449MOL0     H59210   5.519   3.186   7.713 -0.7985  0.4686  0.1509
  449MOL0     H59211   5.419   3.447   7.591 -0.0946  0.5149  2.9502
  449MOL0     H59212   5.416   3.295   7.497  1.3747 -1.3640  0.6810
  449MOL0     H59213   5.266   3.376   7.750  2.1578 -0.9990  0.9641
  449MOL0     H59214   5.283   3.204   7.706  0.8783  0.2502  1.1172
  449MOL0     H59215   5.063   3.335   7.644 -0.9397  0.3057 -1.8631
  449MOL0     H59216   5.128   3.212   7.550 -0.5605 -1.6346  3.2331
  449MOL0     H59217   5.190   3.519   7.514  1.5936 -1.1788 -0.0184
  449MOL0     H59218   5.217   3.396   7.393 -1.6311 -2.3308 -0.2829
  449MOL0     H59219   4.953   3.358   7.413  1.9231 -1.2501 -0.4500
  449MOL0     H59220   5.024   3.496   7.323 -1.5857 -0.1374 -0.8363
  449MOL0     H59221   4.955   3.739   7.441  1.0739  0.5034  1.3633
  449MOL0     H59222   4.666   3.852   7.623  1.4613  2.6868 -0.8290
  449MOL0     H59223   4.810   3.895   7.540 -1.8345  1.4372  0.4790
  449MOL0     H59224   4.794   3.997   7.770 -0.7644 -0.8110 -0.9785
  449MOL0     H59225   4.947   3.920   7.709  1.1060  0.4522  2.5445
  449MOL0     H59226   4.912   3.747   7.847  0.3190  1.8020 -3.5271
  449MOL0     H59227   4.906   3.889   7.949 -1.1051  1.0493 -0.5182
  449MOL0     H59228   4.725   3.719   8.026 -1.3836  1.3548  1.4608
  449MOL0     H59229   4.661   3.716   7.865  3.0205 -2.9522  0.3384
  449MOL0     H59230   4.496   3.659   8.038 -0.2373 -1.1856 -1.2998
  449MOL0     H59231   4.254   3.633   8.045  0.7188 -0.5717 -2.3595
  449MOL0     H59232   3.855   3.583   7.884 -2.4061 -2.2954 -0.1342
  449MOL0     H59233   3.619   3.537   7.903  1.5712 -1.0816  0.3105
  449MOL0     H59234   3.368   3.725   8.253 -0.3612 -1.0598 -0.1776
  449MOL0     H59235   3.479   3.585   8.302  0.2787 -0.5050 -0.5154
  449MOL0     H59236   3.318   3.444   8.220  2.9709  0.7210  2.1467
  449MOL0     H59237   3.210   3.569   8.156 -0.2106 -0.6054  0.0248
  449MOL0     H59238   3.165   3.659   8.381 -2.5905 -1.2392  0.3516
  449MOL0     H59239   3.266   3.542   8.459 -1.9102  0.8190  1.6567
  449MOL0     H59240   3.057   3.432   8.282  1.7145  2.4390 -0.8588
  449MOL0     H59241   3.112   3.365   8.433  3.2530 -0.4902 -0.7311
  449MOL0     H59242   2.933   3.618   8.383 -3.1520  1.0596  2.6688
  449MOL0     H59243   2.984   3.568   8.549 -1.1732  2.3062 -0.5827
  449MOL0     H59244   2.854   3.356   8.516 -0.7860 -0.6770  0.0609
  449MOL0     H59245   2.826   3.402   8.353  0.0091  1.3962 -1.0366
  449MOL0     H59246   2.622   3.444   8.478 -1.7190  1.1397  1.3598
  449MOL0     H59247   2.710   3.548   8.591 -1.8454  1.7612 -0.7747
  449MOL0     H59248   2.747   3.720   8.426 -2.0724  1.9255 -1.5276
  449MOL0     H59249   2.572   3.687   8.448  1.6772  1.9290  4.0903
  449MOL0     H59250   3.635   3.760   8.279  1.2525 -0.4639  0.7550
  449MOL0     H59251   3.873   3.805   8.237  1.2040  1.3162 -1.2681
  449MOL0     H59252   4.211   4.045   7.902  0.3570  0.3264  0.6680
  449MOL0     H59253   4.459   4.060   7.901  2.2100 -0.8340  1.4075
  449MOL0     H59254   6.130   3.332   7.519 -2.2955 -0.0047 -1.0231
  449MOL0     H59255   6.326   3.182   7.518  0.7479 -3.1780  0.2066
  449MOL0     H59256   6.543   2.835   7.526  2.4714  3.5543 -0.6753
  449MOL0     H59257   6.751   2.717   7.523 -0.4975 -2.8686  0.0917
  449MOL0     H59258   6.957   2.682   7.569 -3.3013 -0.6460 -2.0354
  449MOL0     H59259   6.889   2.524   7.546  1.3595 -0.3264 -0.6259
  449MOL0     H59260   7.073   2.429   7.697 -2.1432 -0.7375 -0.8802
  449MOL0     H59261   7.126   2.499   7.543  0.6176  0.9850  0.6198
  449MOL0     H59262   7.158   2.621   7.820  0.0412  1.9874 -0.2410
  449MOL0     H59263   7.177   2.718   7.674 -2.4927  0.6926  0.5137
  449MOL0     H59264   7.323   2.454   7.722  1.9546 -0.2751 -0.9402
  449MOL0     H59265   7.344   2.552   7.581  0.1782 -0.2111  0.3506
  449MOL0     H59266   7.612   2.770   7.807 -1.0458  1.2730  0.7323
  449MOL0     H59267   6.707   2.629   7.943 -0.5981 -2.0845 -1.0531
  449MOL0     H59268   6.500   2.752   7.947 -2.6955  2.2107 -1.9186
  450MOL0     O59269   4.778   0.271   9.590 -0.2486  0.2862  0.2273
  450MOL0     C59270   4.848   0.359   9.641  0.0260  0.4874  0.3063
  450MOL0     O59271   4.854   0.491   9.614 -0.0114 -0.1261  0.0101
  450MOL0     C59272   4.764   0.539   9.516 -0.3814  0.5423 -0.2439
  450MOL0     C59273   4.626   0.510   9.523 -0.7593 -0.8911 -0.2489
  450MOL0     C59274   4.538   0.562   9.431  0.1924  0.3903  0.5972
  450MOL0     C59275   4.584   0.654   9.329 -0.5621 -0.7791 -0.6802
  450MOL0     O59276   4.513   0.704   9.226  0.1175  0.2352 -0.1450
  450MOL0     C59277   4.364   0.684   9.237 -0.1710  0.4510  0.6997
  450MOL0     C59278   4.285   0.743   9.115 -0.5833  0.2697 -0.4980
  450MOL0     C59279   4.298   0.888   9.088  0.1213  0.1092 -0.2204
  450MOL0     C59280   4.288   0.938   8.941  0.1946 -0.0955 -0.2712
  450MOL0     C59281   4.332   1.082   8.920 -0.3350 -0.3985  0.1452
  450MOL0     C59282   4.247   1.197   8.985 -0.1915 -0.1004  0.0376
  450MOL0     C59283   4.285   1.333   8.924 -0.4030 -0.1282  0.3776
  450MOL0     C59284   4.189   1.393   8.820 -1.0539 -1.4472  0.3435
  450MOL0     N59285   4.247   1.534   8.789 -0.2518 -0.1583 -0.6359
  450MOL0     C59286   4.358   1.601   8.840  0.4770 -0.2060 -0.4861
  450MOL0     C59287   4.382   1.697   8.752 -0.2803 -0.5717  0.0496
  450MOL0     C59288   4.503   1.794   8.759  1.0745  0.1440 -0.6587
  450MOL0     C59289   4.450   1.938   8.789 -0.1450  0.1438 -0.0794
  450MOL0     C59290   4.550   2.038   8.749 -0.7425 -0.3123  0.3390
  450MOL0     C59291   4.670   2.032   8.840  0.7442  0.3441 -0.0671
  450MOL0     O59292   4.772   2.122   8.791  0.2481 -0.1515  0.1590
  450MOL0     C59293   4.903   2.079   8.813  0.0900  0.5646  0.0821
  450MOL0     C59294   4.970   2.128   8.925 -0.0484 -0.5606 -0.0019
  450MOL0     C59295   5.110   2.114   8.939 -0.8487 -0.4580 -0.7680
  450MOL0     C59296   5.175   2.027   8.854  0.0969  0.4009  0.4725
  450MOL0     C59297   5.323   2.004   8.864  0.5119  0.1601 -0.1020
  450MOL0     O59298   5.394   1.999   8.750 -0.0169 -0.0530  0.3823
  450MOL0     C59299   5.525   1.957   8.756 -0.2075 -0.8505 -0.7346
  450MOL0     C59300   5.615   2.043   8.704 -1.1593 -0.0749 -0.1466
  450MOL0     C59301   5.747   2.001   8.700  0.2825  0.4468  0.4960
  450MOL0     C59302   5.786   1.879   8.750  1.2364 -0.1311 -0.6184
  450MOL0     O59303   5.916   1.846   8.756 -0.3594  0.2746  1.0235
  450MOL0     C59304   6.023   1.946   8.734  0.0135 -0.1725  0.4249
  450MOL0     C59305   6.158   1.866   8.737 -0.6393 -0.6413  0.6836
  450MOL0     C59306   6.280   1.960   8.735 -0.0920 -0.5817 -0.4005
  450MOL0     C59307   6.307   2.038   8.859 -0.3444  0.6929  0.1042
  450MOL0     C59308   6.452   2.096   8.865  0.2625  0.8680 -0.3046
  450MOL0     C59309   6.477   2.198   8.748 -0.2987 -0.3430  0.6471
  450MOL0     C59310   6.596   2.298   8.773  0.0822  0.4016 -0.0794
  450MOL0     C59311   6.546   2.440   8.781 -0.3262 -0.1961 -0.0199
  450MOL0    Cl59312   6.400   2.454   8.893 -0.1878 -0.0760  0.5967
  450MOL0     C59313   5.688   1.787   8.807 -0.7388  0.5429 -0.4696
  450MOL0     C59314   5.555   1.826   8.805 -0.6776 -0.4028  0.4729
  450MOL0     O59315   5.370   2.003   8.976 -0.8505 -0.3298  0.1178
  450MOL0     C59316   5.104   1.972   8.742 -0.5400  0.4987  0.0355
  450MOL0     C59317   4.967   1.997   8.724 -0.2489  0.3672 -0.4857
  450MOL0     N59318   4.291   1.690   8.650 -0.0894  0.1308  0.2521
  450MOL0     N59319   4.215   1.585   8.671 -0.7448 -0.4297  0.6010
  450MOL0     C59320   4.721   0.689   9.329  0.1167  0.2041 -0.0191
  450MOL0     C59321   4.810   0.632   9.423  0.8529  0.6110  0.6748
  450MOL0     C59322   4.961   0.311   9.726 -0.3128 -0.2305 -0.1916
  450MOL0     C59323   5.072   0.393   9.755 -0.1814 -0.4240  0.3724
  450MOL0     C59324   5.181   0.336   9.828  0.2513  0.1599 -0.6239
  450MOL0     C59325   5.178   0.202   9.872  0.4254  0.0366 -0.1679
  450MOL0     O59326   5.280   0.160   9.941 -0.6518  0.2905 -0.4784
  450MOL0     C59327   5.412   0.192   9.901 -0.3190 -0.5781  0.1631
  450MOL0     C59328   5.428   0.122   9.766  0.2367 -0.3358  1.0597
  450MOL0     C59329   5.416  -0.032   9.764  0.1652  0.1244 -0.9633
  450MOL0     C59330   5.510  -0.107   9.859  0.2067 -0.1464 -0.1729
  450MOL0     C59331   5.513  -0.251   9.834 -0.1924 -0.0747  0.5872
  450MOL0     C59332   5.498  -0.373   9.810  0.5036  0.5785 -0.5327
  450MOL0     C59333   5.059   0.123   9.853  0.4949 -0.4736  0.1773
  450MOL0     C59334   4.952   0.180   9.788  0.8080 -0.0137  1.0996
  450MOL0     H59335   4.583   0.436   9.590 -1.4672  0.4942  0.8654
  450MOL0     H59336   4.435   0.531   9.445  0.7884 -0.5858  3.3916
  450MOL0     H59337   4.327   0.731   9.329 -0.9734 -2.1408  1.7900
  450MOL0     H59338   4.340   0.577   9.239 -1.2687  0.6641 -0.0349
  450MOL0     H59339   4.179   0.716   9.120 -0.9158  1.4850 -0.7153
  450MOL0     H59340   4.333   0.691   9.032  1.1636 -0.4534  0.9148
  450MOL0     H59341   4.396   0.916   9.128  0.1075  1.0883 -0.8463
  450MOL0     H59342   4.230   0.949   9.149  0.8628  1.0850 -0.3568
  450MOL0     H59343   4.367   0.880   8.893  0.6597  0.0335  0.3200
  450MOL0     H59344   4.189   0.922   8.898 -0.6134  4.3391 -0.5565
  450MOL0     H59345   4.329   1.109   8.814 -2.7433  0.9074  0.4824
  450MOL0     H59346   4.435   1.106   8.950 -0.4802 -0.6752  0.8840
  450MOL0     H59347   4.274   1.196   9.091 -1.2695  1.7610  0.3757
  450MOL0     H59348   4.139   1.179   8.980 -0.0627 -0.7994 -0.3461
  450MOL0     H59349   4.278   1.403   9.008 -0.1532  1.0404 -0.5508
  450MOL0     H59350   4.389   1.325   8.892  0.4496  0.1789  2.8427
  450MOL0     H59351   4.080   1.397   8.828 -1.1740 -0.5579 -1.2745
  450MOL0     H59352   4.209   1.332   8.731  0.4767  0.3805 -0.6552
  450MOL0     H59353   4.418   1.577   8.927  1.2358  3.9968  0.3638
  450MOL0     H59354   4.558   1.790   8.664  1.3656  0.3804 -0.5031
  450MOL0     H59355   4.564   1.759   8.843  0.7885 -0.3942 -0.6726
  450MOL0     H59356   4.411   1.950   8.890  1.8682  1.7624  0.5796
  450MOL0     H59357   4.366   1.949   8.720 -0.6006 -1.3880  0.1927
  450MOL0     H59358   4.588   2.015   8.648 -1.0298  2.6652 -0.5390
  450MOL0     H59359   4.501   2.136   8.757  0.4690  0.4693 -1.0897
  450MOL0     H59360   4.708   1.930   8.851  1.2006  0.6732  1.6625
  450MOL0     H59361   4.643   2.059   8.943  1.2944  1.2830 -0.1628
  450MOL0     H59362   4.913   2.180   9.001  0.8781  1.3960 -0.5814
  450MOL0     H59363   5.165   2.159   9.021 -0.0879 -2.4501 -0.1081
  450MOL0     H59364   5.589   2.132   8.649 -0.9390 -1.0997 -2.0011
  450MOL0     H59365   5.819   2.053   8.638 -0.5944 -1.4571 -2.3391
  450MOL0     H59366   6.027   2.025   8.809  1.8157 -3.2410  3.8872
  450MOL0     H59367   6.023   1.988   8.633  0.5564 -1.0127  0.0666
  450MOL0     H59368   6.156   1.811   8.643 -0.1346  0.9323 -0.3014
  450MOL0     H59369   6.158   1.793   8.818 -0.4634 -3.1291 -1.4261
  450MOL0     H59370   6.269   2.023   8.646 -0.0620 -1.7283 -1.2319
  450MOL0     H59371   6.365   1.896   8.707 -0.3530  0.5969 -4.4934
  450MOL0     H59372   6.238   2.122   8.872 -0.7214  0.5282 -0.8019
  450MOL0     H59373   6.295   1.972   8.946  0.3692  3.1349  2.1858
  450MOL0     H59374   6.523   2.013   8.869 -0.5189  0.2453  1.1934
  450MOL0     H59375   6.453   2.153   8.959 -0.4726 -0.0125  0.2468
  450MOL0     H59376   6.390   2.258   8.720  0.9996  1.6585  0.7031
  450MOL0     H59377   6.503   2.143   8.657  0.3285  1.9444 -0.6108
  450MOL0     H59378   6.637   2.267   8.870 -1.8908 -0.3141  0.5598
  450MOL0     H59379   6.679   2.293   8.702 -1.5619  1.0780 -2.1157
  450MOL0     H59380   6.518   2.466   8.678 -1.5245 -2.5702 -0.3535
  450MOL0     H59381   6.634   2.502   8.802 -0.2243 -0.6310  0.8684
  450MOL0     H59382   5.709   1.694   8.861 -0.3648  1.8773  1.8296
  450MOL0     H59383   5.481   1.757   8.842 -0.9192 -1.0851 -1.2125
  450MOL0     H59384   5.147   1.907   8.666  2.5133  0.2125  1.8487
  450MOL0     H59385   4.904   1.964   8.642  0.0709 -0.6183 -0.3580
  450MOL0     H59386   4.760   0.759   9.255  2.0705  1.8270  2.3629
  450MOL0     H59387   4.915   0.656   9.416  1.3940 -1.6020  0.3437
  450MOL0     H59388   5.085   0.492   9.714 -1.8588 -0.6512 -0.8306
  450MOL0     H59389   5.263   0.401   9.856  1.6077 -2.0738  0.9319
  450MOL0     H59390   5.488   0.159   9.972  1.8625  3.3396 -0.0785
  450MOL0     H59391   5.434   0.299   9.896  0.5677 -0.7748 -0.3412
  450MOL0     H59392   5.348   0.157   9.701 -0.6302 -3.3373  0.3650
  450MOL0     H59393   5.526   0.143   9.723  0.3715  1.3014  2.0425
  450MOL0     H59394   5.424  -0.057   9.658 -0.3835 -1.4268 -0.6619
  450MOL0     H59395   5.311  -0.051   9.791  0.2182  0.0563 -0.8050
  450MOL0     H59396   5.610  -0.069   9.840  0.0898  0.0393 -0.4227
  450MOL0     H59397   5.481  -0.093   9.964 -0.5540 -3.0514  0.0872
  450MOL0     H59398   5.491  -0.480   9.807 -0.9733  0.6555 -0.5906
  450MOL0     H59399   5.048   0.022   9.893 -1.6328 -1.1836 -1.9661
  450MOL0     H59400   4.859   0.129   9.769 -0.0474  2.1627 -1.1516
  451MOL0     O59401   8.134   0.147   2.471 -0.1801 -0.2357  0.1983
  451MOL0     C59402   8.221   0.222   2.440 -0.0953 -1.0909  0.1870
  451MOL0     O59403   8.213   0.361   2.452 -0.2734 -0.9861  0.4797
  451MOL0     C59404   8.110   0.423   2.504  1.1595  0.1007  0.5339
  451MOL0     C59405   7.973   0.428   2.456 -0.1624 -0.2424  0.4919
  451MOL0     C59406   7.871   0.491   2.527  0.6794  0.5769  0.1318
  451MOL0     C59407   7.895   0.567   2.636  0.2963 -0.1887 -0.5542
  451MOL0     O59408   7.800   0.643   2.690  0.0429  0.0661 -0.3751
  451MOL0     C59409   7.667   0.579   2.701 -0.3603  0.6479 -0.3923
  451MOL0     C59410   7.595   0.688   2.777  0.5995  0.0112  0.7312
  451MOL0     C59411   7.458   0.648   2.827  1.2227 -0.1635 -1.0402
  451MOL0     C59412   7.375   0.771   2.883 -0.0167 -0.3921 -0.2034
  451MOL0     C59413   7.232   0.736   2.898  0.8421  0.3629 -0.4204
  451MOL0     C59414   7.142   0.847   2.954  0.6784  0.0214 -0.5868
  451MOL0     C59415   7.010   0.793   2.999  0.4581 -0.7256  0.4351
  451MOL0     C59416   6.925   0.890   3.078  1.2491  0.8068  0.0316
  451MOL0     N59417   6.808   0.831   3.136 -0.2290  0.1696 -0.6432
  451MOL0     C59418   6.691   0.797   3.066 -0.5831  0.3786 -0.6235
  451MOL0     C59419   6.613   0.744   3.164  0.1275 -0.0207 -0.1847
  451MOL0     C59420   6.484   0.676   3.151 -0.3056  0.3452 -0.2558
  451MOL0     C59421   6.490   0.539   3.096  0.0546 -1.1624  0.6891
  451MOL0     C59422   6.350   0.475   3.111 -1.2428 -0.0807  0.7011
  451MOL0     C59423   6.255   0.513   2.997 -0.2889  0.3970  0.0416
  451MOL0     O59424   6.144   0.411   2.982 -0.8885 -0.3408  0.0288
  451MOL0     C59425   6.034   0.406   3.057 -0.1251  0.2893 -0.2994
  451MOL0     C59426   6.000   0.502   3.155  0.4446 -0.3724 -0.2312
  451MOL0     C59427   5.874   0.505   3.201 -0.0985  0.5453 -0.3096
  451MOL0     C59428   5.775   0.413   3.171 -0.0126  0.7122  0.6882
  451MOL0     C59429   5.640   0.427   3.207  0.6278  0.9664 -0.0345
  451MOL0     O59430   5.569   0.311   3.212  0.0581  0.2080  0.0662
  451MOL0     C59431   5.432   0.305   3.236 -0.0062  0.0601  0.3891
  451MOL0     C59432   5.385   0.174   3.251  0.3238 -0.1833  0.2768
  451MOL0     C59433   5.243   0.151   3.262 -0.2500 -0.2879  0.7694
  451MOL0     C59434   5.152   0.266   3.253  0.3594  0.3461 -0.1038
  451MOL0     O59435   5.017   0.260   3.254  0.3478  0.1232  0.2106
  451MOL0     C59436   4.959   0.139   3.202 -0.2679  0.8145  0.0205
  451MOL0     C59437   4.810   0.145   3.151 -0.4057 -0.6507  0.1220
  451MOL0     C59438   4.776   0.281   3.093  0.3045  0.2238 -0.2895
  451MOL0     C59439   4.623   0.291   3.071  0.1943  0.4682 -0.9389
  451MOL0     C59440   4.582   0.425   3.020 -0.2472 -0.1499 -0.4784
  451MOL0     C59441   4.606   0.544   3.102  0.2695  0.3001 -0.9877
  451MOL0     C59442   4.565   0.531   3.248  0.2835  0.3795 -0.1379
  451MOL0     C59443   4.415   0.536   3.264  0.3997  0.2232  0.0311
  451MOL0    Cl59444   4.317   0.643   3.156  0.2827  0.0877 -0.0180
  451MOL0     C59445   5.203   0.393   3.242  0.1760  0.3546 -0.2558
  451MOL0     C59446   5.340   0.409   3.228  0.7910 -0.2231  0.0044
  451MOL0     O59447   5.600   0.537   3.235  0.4360  0.0339  0.4452
  451MOL0     C59448   5.810   0.300   3.091 -0.2117  0.2950 -0.0924
  451MOL0     C59449   5.937   0.305   3.032  0.7066  0.5218 -0.3709
  451MOL0     N59450   6.696   0.731   3.273 -0.1983 -0.2711 -0.1209
  451MOL0     N59451   6.807   0.781   3.266 -0.6648 -0.8208 -0.9357
  451MOL0     C59452   8.024   0.568   2.681  0.4230  0.5148  0.3057
  451MOL0     C59453   8.126   0.492   2.624  0.4636  0.5832  0.6815
  451MOL0     C59454   8.355   0.177   2.405 -0.2958  0.3144 -0.8843
  451MOL0     C59455   8.367   0.049   2.362 -0.1682 -0.5163 -0.8348
  451MOL0     C59456   8.483  -0.003   2.305 -0.8150 -1.1244  0.2657
  451MOL0     C59457   8.598   0.083   2.300 -0.1048 -0.2244  0.3388
  451MOL0     O59458   8.719   0.020   2.274  0.4179  0.5757  0.1938
  451MOL0     C59459   8.842   0.100   2.267  0.6937  0.1744  0.0336
  451MOL0     C59460   8.917   0.102   2.401  0.3949 -0.0335 -0.0331
  451MOL0     C59461   9.050   0.178   2.388  0.2949 -0.3992 -0.9205
  451MOL0     C59462   9.140   0.179   2.514  0.3753 -0.3180  0.3438
  451MOL0     C59463   9.209   0.058   2.533  0.7686 -1.1501 -0.1814
  451MOL0     C59464   9.263  -0.049   2.555 -0.7753  0.3496 -0.5120
  451MOL0     C59465   8.579   0.220   2.326 -0.4057  0.0487 -0.3539
  451MOL0     C59466   8.462   0.267   2.388  0.5057 -0.7579  0.7617
  451MOL0     H59467   7.948   0.380   2.361  1.9762 -0.2976 -0.0908
  451MOL0     H59468   7.775   0.489   2.476  0.4664 -1.8637  0.5062
  451MOL0     H59469   7.671   0.481   2.749  1.7430  1.0948  0.4567
  451MOL0     H59470   7.615   0.570   2.605  1.4701  0.2602 -1.4012
  451MOL0     H59471   7.588   0.767   2.701  0.7711 -0.1435  0.5516
  451MOL0     H59472   7.658   0.718   2.862  3.0549 -2.9770  0.1626
  451MOL0     H59473   7.473   0.576   2.908 -0.5864  2.5855  1.9794
  451MOL0     H59474   7.397   0.614   2.743  0.4874  0.1390 -0.6444
  451MOL0     H59475   7.422   0.790   2.980 -1.8024 -1.4532  0.9139
  451MOL0     H59476   7.375   0.866   2.828 -2.1654  0.3585  0.9785
  451MOL0     H59477   7.215   0.645   2.958 -1.0810  1.9680  1.6607
  451MOL0     H59478   7.191   0.701   2.803  0.3000  1.8883 -0.7710
  451MOL0     H59479   7.127   0.924   2.877  2.4242  1.2519  0.2290
  451MOL0     H59480   7.201   0.886   3.037  0.6911  0.2539 -0.7037
  451MOL0     H59481   6.954   0.752   2.914  1.5192 -0.9359 -0.1726
  451MOL0     H59482   7.032   0.712   3.069 -1.4256 -0.2084  1.7271
  451MOL0     H59483   6.899   0.982   3.025  0.2945  1.1404  1.0479
  451MOL0     H59484   6.984   0.926   3.163 -0.0927  3.0558  0.0920
  451MOL0     H59485   6.673   0.819   2.961  1.2831 -0.1294 -1.0996
  451MOL0     H59486   6.429   0.734   3.076  0.5064  0.1256 -1.0412
  451MOL0     H59487   6.435   0.669   3.249 -0.2829 -4.7744 -0.3344
  451MOL0     H59488   6.559   0.484   3.161  0.0890 -0.7432  1.0145
  451MOL0     H59489   6.535   0.538   2.996  0.3987 -0.6050  0.8320
  451MOL0     H59490   6.374   0.370   3.094  3.6192  1.3848 -4.5611
  451MOL0     H59491   6.305   0.498   3.208 -1.3909 -0.2682  0.6772
  451MOL0     H59492   6.322   0.511   2.910  2.6388  2.1967  2.0657
  451MOL0     H59493   6.207   0.608   3.022 -0.8807  0.6990 -2.0359
  451MOL0     H59494   6.061   0.590   3.173  0.2522  0.0884 -1.7269
  451MOL0     H59495   5.845   0.588   3.266 -0.9961 -1.2124  1.6664
  451MOL0     H59496   5.459   0.095   3.247  2.4711  1.6943  0.5774
  451MOL0     H59497   5.204   0.052   3.283 -0.7920  0.1669  2.0057
  451MOL0     H59498   4.969   0.062   3.279 -1.8942 -1.3501 -1.7836
  451MOL0     H59499   5.011   0.118   3.107  1.0273 -0.1023  0.8977
  451MOL0     H59500   4.741   0.123   3.232 -0.6863 -2.5232 -0.5694
  451MOL0     H59501   4.794   0.067   3.076  3.2526  0.7947 -2.4604
  451MOL0     H59502   4.820   0.295   2.994  0.8594  1.5455  0.1153
  451MOL0     H59503   4.809   0.362   3.158 -0.0122  0.0916  0.0360
  451MOL0     H59504   4.587   0.218   2.999 -0.1437  0.8087 -1.1177
  451MOL0     H59505   4.570   0.275   3.166  0.8240  1.6504 -0.3690
  451MOL0     H59506   4.478   0.414   2.989  0.5097 -0.6204 -3.0215
  451MOL0     H59507   4.637   0.449   2.928 -0.1283  2.3986  0.1605
  451MOL0     H59508   4.590   0.642   3.055  2.0693  1.0138 -0.1920
  451MOL0     H59509   4.715   0.549   3.109  0.3248 -0.8326 -0.7954
  451MOL0     H59510   4.604   0.436   3.287 -0.0696  0.4690  0.4390
  451MOL0     H59511   4.614   0.611   3.303  2.0725 -1.5577  1.2374
  451MOL0     H59512   4.391   0.565   3.367 -3.4412 -0.5333 -0.5028
  451MOL0     H59513   4.377   0.434   3.255 -1.7920  1.0036 -0.2828
  451MOL0     H59514   5.136   0.478   3.231 -1.3750 -1.0222 -2.1650
  451MOL0     H59515   5.365   0.513   3.210 -2.7496  0.6724 -0.4259
  451MOL0     H59516   5.735   0.223   3.075 -1.5419  0.6682  3.5101
  451MOL0     H59517   5.961   0.219   2.969 -1.8964  0.0213 -0.8149
  451MOL0     H59518   8.060   0.616   2.772  1.3626 -1.1421  0.8438
  451MOL0     H59519   8.228   0.494   2.661  1.3589  2.2828 -1.6415
  451MOL0     H59520   8.281  -0.016   2.377 -1.4291  1.5815  2.1447
  451MOL0     H59521   8.494  -0.102   2.262  2.0766 -0.7362 -0.0429
  451MOL0     H59522   8.830   0.205   2.237  0.5653 -0.1637 -1.1609
  451MOL0     H59523   8.912   0.046   2.202  2.2667 -1.6585  3.0034
  451MOL0     H59524   8.861   0.147   2.483  1.7096 -0.8099  1.3193
  451MOL0     H59525   8.943  -0.001   2.424  1.3225  0.6842  2.3857
  451MOL0     H59526   9.030   0.285   2.376 -0.9366 -0.5735 -0.5957
  451MOL0     H59527   9.105   0.136   2.303  0.9534 -1.1756 -0.1127
  451MOL0     H59528   9.217   0.255   2.497  0.4271 -0.9883 -3.1563
  451MOL0     H59529   9.088   0.198   2.608 -0.5086  0.1820 -0.2311
  451MOL0     H59530   9.311  -0.144   2.572 -0.9228  0.0883 -1.5091
  451MOL0     H59531   8.665   0.287   2.326 -0.4008  0.1193  1.6385
  451MOL0     H59532   8.446   0.365   2.431 -1.0114 -1.7026  2.5206
  452MOL0     O59533   9.462   9.992   4.789  0.1239  0.0001 -0.2945
  452MOL0     C59534   9.536  10.088   4.820 -0.3883  0.0630 -0.2971
  452MOL0     O59535   9.489  10.204   4.882 -0.4109 -0.6848 -0.6335
  452MOL0     C59536   9.361  10.220   4.917 -0.7636 -0.2533  0.2498
  452MOL0     C59537   9.251  10.165   4.843 -0.4305  0.2808  0.1315
  452MOL0     C59538   9.124  10.180   4.893 -0.6723 -0.0962  0.6761
  452MOL0     C59539   9.089  10.241   5.016 -1.0521 -0.5128 -0.3130
  452MOL0     O59540   8.961  10.268   5.045  0.3161 -0.2852  0.0787
  452MOL0     C59541   8.914  10.261   5.189 -0.5272 -0.2212 -1.2607
  452MOL0     C59542   8.762  10.269   5.193  0.2590 -0.7470 -0.9134
  452MOL0     C59543   8.694  10.158   5.124  0.6155  0.3330  0.2473
  452MOL0     C59544   8.537  10.153   5.144  0.2125 -0.4326  0.6773
  452MOL0     C59545   8.498  10.123   5.293  0.2387 -0.7565  0.8454
  452MOL0     C59546   8.345  10.134   5.314  0.1184 -0.4636  0.0334
  452MOL0     C59547   8.282  10.001   5.269  0.3825  0.1598  0.0770
  452MOL0     C59548   8.145   9.976   5.340  0.7971  0.0707  0.2880
  452MOL0     N59549   8.085   9.853   5.281  0.0957  0.2698  0.4955
  452MOL0     C59550   8.036   9.756   5.361  0.3430  0.3636  0.2039
  452MOL0     C59551   8.011   9.660   5.275  1.0485  1.3462 -0.6243
  452MOL0     C59552   7.973   9.519   5.321 -0.4902 -0.3470 -0.8388
  452MOL0     C59553   7.830   9.482   5.283 -0.1258 -0.2911 -0.4097
  452MOL0     C59554   7.800   9.341   5.322  0.2198  0.4221 -0.2176
  452MOL0     C59555   7.661   9.299   5.279 -0.2922 -0.6761 -0.6309
  452MOL0     O59556   7.640   9.319   5.137 -0.3063 -0.1064 -0.5688
  452MOL0     C59557   7.521   9.281   5.087  0.2809  0.3443  0.7114
  452MOL0     C59558   7.519   9.245   4.953  0.1131  0.0799  0.0139
  452MOL0     C59559   7.398   9.202   4.892 -0.4216 -0.5153 -0.6619
  452MOL0     C59560   7.283   9.197   4.963 -0.3689  0.0190 -0.2402
  452MOL0     C59561   7.148   9.158   4.904  0.2038 -0.5735  0.8183
  452MOL0     O59562   7.041   9.142   4.988 -0.1112 -0.3481  0.5655
  452MOL0     C59563   6.933   9.086   4.928  0.2286  0.7251 -0.2875
  452MOL0     C59564   6.854   9.162   4.851 -0.2910  0.3958 -0.5046
  452MOL0     C59565   6.740   9.109   4.797 -0.6404  0.2667  0.6999
  452MOL0     C59566   6.693   8.980   4.830  0.5534 -0.8264  0.4046
  452MOL0     O59567   6.582   8.920   4.771 -0.4750 -0.0119  0.1217
  452MOL0     C59568   6.462   8.988   4.812  1.1318  0.9128  0.3717
  452MOL0     C59569   6.337   8.906   4.775 -0.1198  0.2697 -0.0997
  452MOL0     C59570   6.309   8.777   4.849 -0.4218 -0.8778  0.0881
  452MOL0     C59571   6.157   8.735   4.834 -0.3359 -0.0372  0.7287
  452MOL0     C59572   6.106   8.724   4.687  0.3819  0.3396 -0.0790
  452MOL0     C59573   6.177   8.601   4.610 -0.2882  0.8803 -0.5978
  452MOL0     C59574   6.137   8.589   4.465  0.7840  0.2007 -0.4861
  452MOL0     C59575   6.146   8.449   4.416 -0.1899 -0.2185 -0.2133
  452MOL0    Cl59576   6.100   8.451   4.249  0.0259  0.1324  0.0012
  452MOL0     C59577   6.781   8.904   4.905 -0.5780 -0.4441  0.8061
  452MOL0     C59578   6.902   8.956   4.961 -0.0099  0.3558 -0.9340
  452MOL0     O59579   7.154   9.122   4.783  0.3849 -0.2343 -0.7676
  452MOL0     C59580   7.283   9.226   5.099  0.0071  0.3017  0.1260
  452MOL0     C59581   7.400   9.276   5.160  0.4611  0.0081  0.2199
  452MOL0     N59582   8.020   9.703   5.144 -0.1858 -0.2593  0.6247
  452MOL0     N59583   8.066   9.823   5.147  0.0780 -0.5619  0.4512
  452MOL0     C59584   9.206  10.295   5.082  0.1232 -0.6073 -1.0779
  452MOL0     C59585   9.331  10.287   5.036 -0.2816 -0.5833 -1.4102
  452MOL0     C59586   9.679  10.078   4.777 -0.0019  0.1804 -0.7171
  452MOL0     C59587   9.781  10.174   4.811 -0.3468 -0.1699  0.5415
  452MOL0     C59588   9.913  10.166   4.764  0.5003 -0.7305 -1.1508
  452MOL0     C59589   9.943  10.056   4.677  0.7553  0.5838 -0.0051
  452MOL0     O59590  10.064  10.042   4.600 -0.1170  0.1429 -0.4722
  452MOL0     C59591  10.162  10.146   4.619  0.2474  0.1173  0.6635
  452MOL0     C59592  10.281  10.122   4.529 -0.3982 -0.0155 -0.2818
  452MOL0     C59593  10.371  10.008   4.575 -0.0951  0.3518 -0.3242
  452MOL0     C59594  10.446  10.007   4.713  0.4674  0.4117 -0.6999
  452MOL0     C59595  10.507  10.135   4.725  0.3974 -0.4973 -0.6843
  452MOL0     C59596  10.548  10.247   4.726  0.4589 -0.6468 -0.4404
  452MOL0     C59597   9.839   9.960   4.644 -0.4844  0.0823  1.0039
  452MOL0     C59598   9.717   9.970   4.688  0.3146 -0.1422  0.2287
  452MOL0     H59599   9.252  10.105   4.752 -1.6599 -0.3214  0.4910
  452MOL0     H59600   9.040  10.144   4.835  1.5517  2.3768 -4.6708
  452MOL0     H59601   8.954  10.346   5.245 -2.1301  1.6406 -2.8066
  452MOL0     H59602   8.947  10.164   5.230 -1.9270 -0.4080 -0.5257
  452MOL0     H59603   8.722  10.365   5.159 -0.0014 -0.5977 -0.2125
  452MOL0     H59604   8.737  10.268   5.300  0.4843 -0.0412 -0.8551
  452MOL0     H59605   8.744  10.071   5.168  3.9211  2.9397  2.1401
  452MOL0     H59606   8.714  10.156   5.017 -1.5424 -1.7484 -0.2035
  452MOL0     H59607   8.484  10.242   5.109  1.3959 -0.3430 -1.0190
  452MOL0     H59608   8.490  10.078   5.079 -0.2645  0.1820  0.2939
  452MOL0     H59609   8.548  10.188   5.366  2.1864 -1.6335  0.3653
  452MOL0     H59610   8.531  10.024   5.326 -4.1472 -1.6933  3.1834
  452MOL0     H59611   8.306  10.226   5.270  2.8308  1.7618  1.8637
  452MOL0     H59612   8.336  10.147   5.422 -1.2895  3.3704 -0.3670
  452MOL0     H59613   8.280  10.015   5.161 -0.5084 -1.6837 -0.1923
  452MOL0     H59614   8.347   9.913   5.278  1.0836  0.5141 -1.3313
  452MOL0     H59615   8.079  10.057   5.311  1.5836 -0.4066 -3.3785
  452MOL0     H59616   8.152   9.975   5.449 -1.0405  0.1498  0.4263
  452MOL0     H59617   8.013   9.747   5.467  1.7502  0.7214  0.5563
  452MOL0     H59618   7.984   9.508   5.429 -0.0538 -0.6307 -0.9081
  452MOL0     H59619   8.040   9.448   5.271  0.1709 -1.1998  1.1232
  452MOL0     H59620   7.806   9.505   5.179 -4.3253  2.8656  0.9441
  452MOL0     H59621   7.760   9.549   5.334  1.9265  2.6199 -1.1165
  452MOL0     H59622   7.852   9.259   5.272 -0.8279 -0.7074  0.4743
  452MOL0     H59623   7.811   9.325   5.430  0.2171 -0.4913 -0.3444
  452MOL0     H59624   7.589   9.367   5.324  0.3894  0.6233 -1.4481
  452MOL0     H59625   7.630   9.197   5.306  1.6269 -1.1056  0.1232
  452MOL0     H59626   7.611   9.255   4.896  0.5718 -1.3312  0.4662
  452MOL0     H59627   7.393   9.166   4.789  2.1814 -0.5196 -0.8555
  452MOL0     H59628   6.892   9.262   4.832  0.4082  0.3189  0.4691
  452MOL0     H59629   6.677   9.172   4.735 -0.8437 -2.6996 -2.3865
  452MOL0     H59630   6.444   9.090   4.777 -0.8010  1.1627  1.9260
  452MOL0     H59631   6.464   8.996   4.921 -1.3546 -0.9165  0.6257
  452MOL0     H59632   6.338   8.885   4.668  1.1459  0.7166 -0.1865
  452MOL0     H59633   6.250   8.971   4.794  0.8451  1.5135  0.2160
  452MOL0     H59634   6.343   8.777   4.953 -0.5045  3.7308  0.3023
  452MOL0     H59635   6.377   8.708   4.797  1.5279  1.4126 -0.5651
  452MOL0     H59636   6.140   8.642   4.889  2.8532 -1.2902 -0.1576
  452MOL0     H59637   6.089   8.808   4.879 -0.7039  0.8372 -1.1575
  452MOL0     H59638   6.124   8.811   4.623  0.4172  0.7107  0.4279
  452MOL0     H59639   5.997   8.715   4.687  0.1062  2.8511 -1.5599
  452MOL0     H59640   6.133   8.511   4.654 -0.3958  1.0061 -0.4467
  452MOL0     H59641   6.286   8.603   4.614  0.0111 -1.6930 -3.4343
  452MOL0     H59642   6.041   8.639   4.447  1.2699  1.8225  1.0385
  452MOL0     H59643   6.214   8.640   4.407  1.4928 -2.2862 -1.8505
  452MOL0     H59644   6.076   8.387   4.474 -0.7032 -0.6791 -1.2968
  452MOL0     H59645   6.248   8.416   4.436 -0.5834 -0.0738  2.3181
  452MOL0     H59646   6.756   8.805   4.942  0.8522 -0.5560  1.5614
  452MOL0     H59647   6.967   8.891   5.018 -0.9880 -0.9414 -1.2518
  452MOL0     H59648   7.196   9.223   5.164  0.1317  0.0406  0.2826
  452MOL0     H59649   7.394   9.290   5.267  0.6156 -1.0536  0.3818
  452MOL0     H59650   9.205  10.341   5.180  0.6785 -1.5291 -0.6210
  452MOL0     H59651   9.421  10.321   5.086 -1.4197 -1.2592  1.2382
  452MOL0     H59652   9.757  10.261   4.872  1.1132 -0.3060  1.3535
  452MOL0     H59653   9.989  10.240   4.785  0.7113 -1.0538 -0.7566
  452MOL0     H59654  10.203  10.137   4.720  0.4847  0.4894  0.6011
  452MOL0     H59655  10.120  10.243   4.593  0.8481  0.2326  0.0864
  452MOL0     H59656  10.233  10.100   4.433 -2.6504 -2.1114  1.2225
  452MOL0     H59657  10.348  10.208   4.521 -1.9191  1.3828  1.2359
  452MOL0     H59658  10.455  10.000   4.505  0.0038 -2.9501  0.0258
  452MOL0     H59659  10.316   9.914   4.565  2.4971 -1.1344 -1.6145
  452MOL0     H59660  10.375   9.979   4.791  2.1774 -1.4233  0.2728
  452MOL0     H59661  10.523   9.932   4.727  0.1314  0.4195  1.5736
  452MOL0     H59662  10.589  10.346   4.723 -1.2468  0.0859 -2.7405
  452MOL0     H59663   9.863   9.886   4.568 -1.0349  0.9219 -0.0178
  452MOL0     H59664   9.646   9.896   4.652  1.6356 -1.0291 -0.6651
  453MOL0     O59665  10.533   7.925   8.170 -0.0171  0.0312  0.2251
  453MOL0     C59666  10.432   7.891   8.108  0.7664 -0.0080 -0.5947
  453MOL0     O59667  10.426   7.810   7.999  0.7220  0.5848 -0.7018
  453MOL0     C59668  10.538   7.766   7.939  0.3330  0.5707 -0.5203
  453MOL0     C59669  10.627   7.865   7.899  0.7686 -0.9046  1.2174
  453MOL0     C59670  10.753   7.842   7.834 -0.4874  0.1031 -0.4866
  453MOL0     C59671  10.782   7.701   7.819 -0.0119 -0.2673  0.0602
  453MOL0     O59672  10.895   7.649   7.763  0.8132 -0.4548  0.4230
  453MOL0     C59673  11.006   7.737   7.756 -0.3371 -0.6502 -0.7950
  453MOL0     C59674  11.117   7.656   7.710  0.3284  0.1410  0.5002
  453MOL0     C59675  11.246   7.738   7.694  0.5049 -0.3294 -0.1469
  453MOL0     C59676  11.370   7.675   7.620  0.2854 -0.1003  0.1926
  453MOL0     C59677  11.472   7.786   7.607  0.1480  0.1490  0.1119
  453MOL0     C59678  11.607   7.731   7.545  0.6088 -0.4086 -0.6964
  453MOL0     C59679  11.701   7.840   7.510 -0.2619 -0.6310  0.2886
  453MOL0     C59680  11.662   7.945   7.402 -0.9195  0.2869 -0.0456
  453MOL0     N59681  11.790   8.020   7.359 -0.2410 -0.2404 -0.1017
  453MOL0     C59682  11.834   8.135   7.417  0.3546  0.2983 -0.9725
  453MOL0     C59683  11.953   8.169   7.358 -0.0234  0.0283  0.6105
  453MOL0     C59684  12.036   8.297   7.387  0.2483 -0.1578 -0.6504
  453MOL0     C59685  12.127   8.280   7.510 -0.3588  0.0967  0.0605
  453MOL0     C59686  12.197   8.413   7.535  0.2144 -0.4888 -0.6570
  453MOL0     C59687  12.259   8.411   7.675 -0.0967 -0.1496  0.3989
  453MOL0     O59688  12.366   8.321   7.686 -0.3694  0.2509 -0.2547
  453MOL0     C59689  12.476   8.335   7.772  0.3903 -0.4226 -0.3839
  453MOL0     C59690  12.523   8.220   7.822 -0.2480 -0.0394  0.0925
  453MOL0     C59691  12.642   8.218   7.899 -0.1582  0.3392 -0.5012
  453MOL0     C59692  12.720   8.339   7.904 -0.1457  0.5636  1.0502
  453MOL0     C59693  12.852   8.352   7.967 -0.6251  0.4211  0.0760
  453MOL0     O59694  12.897   8.482   7.990  0.3174  0.6899  0.1834
  453MOL0     C59695  13.037   8.489   7.992  0.1304 -0.3882  0.1007
  453MOL0     C59696  13.105   8.493   8.108  0.2611 -1.0005 -0.6505
  453MOL0     C59697  13.244   8.535   8.105  0.3168  0.5499  0.0067
  453MOL0     C59698  13.309   8.540   7.978 -0.2204  0.3114  0.4237
  453MOL0     O59699  13.444   8.554   7.963 -0.0211 -0.2419 -0.2592
  453MOL0     C59700  13.538   8.508   8.078 -0.6405  0.6274  0.0414
  453MOL0     C59701  13.683   8.540   8.036  0.0356 -0.1357 -0.4324
  453MOL0     C59702  13.784   8.466   8.117 -0.0083 -0.2732  0.1400
  453MOL0     C59703  13.922   8.488   8.044  0.3568  0.4949 -0.4711
  453MOL0     C59704  14.022   8.422   8.123 -0.3162  1.0163  0.2806
  453MOL0     C59705  14.172   8.447   8.087  0.5022  0.6188 -0.1843
  453MOL0     C59706  14.211   8.588   8.109 -0.0381  0.2606 -0.3579
  453MOL0     C59707  14.361   8.605   8.098 -0.3811  0.2723 -0.0256
  453MOL0    Cl59708  14.424   8.547   7.932  0.4461  0.5699  0.1929
  453MOL0     C59709  13.237   8.528   7.860 -0.0212  0.3996 -0.2547
  453MOL0     C59710  13.103   8.502   7.875  0.2639 -0.4089  0.1335
  453MOL0     O59711  12.920   8.253   7.979 -0.6269  0.4672 -0.1189
  453MOL0     C59712  12.670   8.456   7.848  1.0892  0.0829 -0.2674
  453MOL0     C59713  12.543   8.458   7.786  0.3900 -0.5682 -0.1021
  453MOL0     N59714  11.977   8.060   7.280 -0.2216  0.0238 -0.4751
  453MOL0     N59715  11.884   7.972   7.279  0.5996 -0.7656 -0.0511
  453MOL0     C59716  10.693   7.601   7.866 -0.6211  0.1111  0.0522
  453MOL0     C59717  10.573   7.632   7.922 -0.0449  0.4085  0.8015
  453MOL0     C59718  10.301   7.932   8.161 -0.1498  0.0471  0.3027
  453MOL0     C59719  10.294   8.016   8.271 -0.0200 -0.1926 -0.0148
  453MOL0     C59720  10.176   8.052   8.326  0.0176  0.2152 -0.4401
  453MOL0     C59721  10.052   8.013   8.268  0.5069 -0.3807  0.5794
  453MOL0     O59722   9.937   8.055   8.334  0.8082  0.1419  0.4414
  453MOL0     C59723   9.813   7.981   8.311 -0.3992  0.5772 -0.5031
  453MOL0     C59724   9.693   8.039   8.393  0.4315 -0.0831 -0.3692
  453MOL0     C59725   9.691   8.199   8.390 -0.3113  0.4910 -0.1996
  453MOL0     C59726   9.555   8.254   8.431 -0.1422 -0.6060  1.1125
  453MOL0     C59727   9.522   8.218   8.567  0.3546 -0.0464 -0.5889
  453MOL0     C59728   9.502   8.178   8.682  0.6467  0.0328  0.4339
  453MOL0     C59729  10.057   7.933   8.148  0.9349 -0.6363 -0.7214
  453MOL0     C59730  10.181   7.891   8.099 -0.0169  0.3146  0.6235
  453MOL0     H59731  10.597   7.970   7.904 -1.0329 -1.2038 -1.1859
  453MOL0     H59732  10.829   7.919   7.830 -0.2724  0.5769  5.0133
  453MOL0     H59733  11.029   7.776   7.856  0.1745 -2.4977 -0.1604
  453MOL0     H59734  10.991   7.822   7.689  1.5157 -0.9680 -1.6623
  453MOL0     H59735  11.090   7.626   7.608  0.5120 -0.6051  0.6652
  453MOL0     H59736  11.139   7.569   7.773  3.0642  0.8209  0.5834
  453MOL0     H59737  11.284   7.776   7.790  2.0540  0.5519 -1.0759
  453MOL0     H59738  11.222   7.829   7.638  1.4782 -0.1822 -0.3446
  453MOL0     H59739  11.407   7.582   7.664  3.4458  0.5545 -0.8322
  453MOL0     H59740  11.345   7.652   7.516  0.8545 -1.1647  0.2786
  453MOL0     H59741  11.505   7.834   7.700  0.1068 -0.9262  0.7008
  453MOL0     H59742  11.427   7.860   7.541  0.8319  0.8260  0.3839
  453MOL0     H59743  11.588   7.664   7.461  0.2946 -1.0764 -0.0997
  453MOL0     H59744  11.647   7.670   7.627 -1.3126  1.2835  1.6552
  453MOL0     H59745  11.731   7.893   7.601 -1.9685  0.7934  0.0736
  453MOL0     H59746  11.789   7.790   7.468 -0.7995 -0.9451 -0.4745
  453MOL0     H59747  11.586   8.020   7.423 -0.7854  1.8906 -4.2756
  453MOL0     H59748  11.626   7.889   7.315  0.5601 -1.7306  0.5580
  453MOL0     H59749  11.784   8.202   7.487  2.5483  1.3285 -0.3140
  453MOL0     H59750  11.972   8.382   7.414  2.4683  0.4741  3.4887
  453MOL0     H59751  12.094   8.331   7.301 -0.9007  1.3448 -0.8715
  453MOL0     H59752  12.198   8.197   7.505  0.3734  0.5922  1.6200
  453MOL0     H59753  12.077   8.258   7.604 -0.2427  0.7500  0.2791
  453MOL0     H59754  12.274   8.435   7.460  0.6111 -3.0856 -1.1065
  453MOL0     H59755  12.128   8.497   7.540 -0.3639 -1.0203  1.8214
  453MOL0     H59756  12.181   8.373   7.742 -0.5758  2.2410  1.2900
  453MOL0     H59757  12.291   8.508   7.713  0.1281  0.0104 -0.1867
  453MOL0     H59758  12.467   8.129   7.802  1.0845 -0.5452 -1.5073
  453MOL0     H59759  12.671   8.130   7.956  1.9730  0.0093 -1.9758
  453MOL0     H59760  13.056   8.484   8.204  0.7487 -1.6529 -0.4530
  453MOL0     H59761  13.311   8.537   8.191  2.0696  1.4072 -1.3097
  453MOL0     H59762  13.533   8.401   8.102  1.2378  0.9027  1.9088
  453MOL0     H59763  13.508   8.570   8.163  1.0231 -0.3273  1.3602
  453MOL0     H59764  13.707   8.646   8.049 -0.3489  0.0000 -0.8201
  453MOL0     H59765  13.694   8.509   7.932 -0.3583  3.6745 -1.7874
  453MOL0     H59766  13.774   8.357   8.123  2.2644 -0.4798  1.3857
  453MOL0     H59767  13.796   8.522   8.210  1.7231  0.7791 -0.6531
  453MOL0     H59768  13.921   8.472   7.936 -0.8054 -0.9905 -0.2815
  453MOL0     H59769  13.934   8.596   8.053 -3.1598  0.9601 -0.0329
  453MOL0     H59770  14.014   8.316   8.098 -1.1532  0.6089  2.1176
  453MOL0     H59771  14.001   8.429   8.230  1.7329 -1.7374  0.9762
  453MOL0     H59772  14.193   8.420   7.983 -1.2831  1.7970 -0.9006
  453MOL0     H59773  14.233   8.390   8.157  2.3284  1.4953 -1.0059
  453MOL0     H59774  14.156   8.652   8.039 -0.2019  2.0988  1.3880
  453MOL0     H59775  14.169   8.616   8.206 -1.8586 -1.1209 -0.6874
  453MOL0     H59776  14.413   8.546   8.174  2.2585  1.2792 -0.9514
  453MOL0     H59777  14.391   8.710   8.112  1.7950 -0.5880  2.9434
  453MOL0     H59778  13.293   8.539   7.768 -0.7223  0.0103 -0.7407
  453MOL0     H59779  13.044   8.502   7.784 -0.6225  0.2120  0.6926
  453MOL0     H59780  12.722   8.550   7.860  0.4500  0.3257  0.7040
  453MOL0     H59781  12.497   8.545   7.741 -0.6021 -1.7359 -1.4476
  453MOL0     H59782  10.724   7.497   7.861 -0.8378  0.0781 -0.6320
  453MOL0     H59783  10.503   7.554   7.952  1.6251 -0.0891  3.8349
  453MOL0     H59784  10.375   8.060   8.328 -0.0221 -0.3515  0.1093
  453MOL0     H59785  10.181   8.114   8.415 -0.1220  0.1471 -0.3838
  453MOL0     H59786   9.828   7.877   8.341  0.7001  0.1730 -2.3082
  453MOL0     H59787   9.789   7.965   8.206 -0.3598 -1.5795 -0.2210
  453MOL0     H59788   9.599   8.009   8.344  0.0581 -1.3737  1.0432
  453MOL0     H59789   9.689   7.999   8.495 -0.9356 -0.2818 -0.4798
  453MOL0     H59790   9.731   8.236   8.295  6.1964 -0.3892  1.7033
  453MOL0     H59791   9.758   8.241   8.465 -0.3670  1.6248 -0.7602
  453MOL0     H59792   9.550   8.363   8.433  3.4493 -0.1821 -1.9056
  453MOL0     H59793   9.479   8.215   8.363  2.2933  0.4501 -2.5156
  453MOL0     H59794   9.469   8.143   8.778 -1.3700 -0.2986 -0.3306
  453MOL0     H59795   9.964   7.912   8.095 -1.3564  2.6415  1.5848
  453MOL0     H59796  10.172   7.836   8.006 -1.1113  0.5335  0.5930
  454MOL0     O59797   0.895   5.846   7.034 -0.0617  0.3435  0.5900
  454MOL0     C59798   0.966   5.920   6.965  0.1205  0.6081 -0.7198
  454MOL0     O59799   0.936   6.048   6.920  0.2640 -0.1327 -0.3687
  454MOL0     C59800   0.818   6.100   6.959  1.1003 -1.0689 -0.4676
  454MOL0     C59801   0.696   6.085   6.881 -0.3087 -0.4715  0.0749
  454MOL0     C59802   0.586   6.164   6.916  0.4818 -0.0359 -0.1824
  454MOL0     C59803   0.578   6.226   7.040  0.4654  0.0169 -0.5472
  454MOL0     O59804   0.458   6.286   7.069 -0.4875 -0.2962 -0.0877
  454MOL0     C59805   0.454   6.353   7.194 -0.1929  0.1730  0.0212
  454MOL0     C59806   0.312   6.420   7.206  0.3480 -0.1026 -1.0923
  454MOL0     C59807   0.288   6.533   7.110  0.2457 -0.6519 -0.5029
  454MOL0     C59808   0.136   6.569   7.098  0.2544 -0.4859  0.4945
  454MOL0     C59809   0.122   6.677   6.985 -0.0959  0.0657 -0.6618
  454MOL0     C59810  -0.025   6.691   6.952 -0.2350 -0.0128  0.2928
  454MOL0     C59811  -0.109   6.770   7.054 -1.1197 -1.0970 -0.0124
  454MOL0     C59812  -0.257   6.734   7.059  0.1034  0.1531  0.5209
  454MOL0     N59813  -0.341   6.779   6.941 -0.6197 -0.0165  0.2828
  454MOL0     C59814  -0.337   6.732   6.809 -0.3412  0.6334  0.4342
  454MOL0     C59815  -0.420   6.807   6.738  1.0294 -0.1426 -0.6993
  454MOL0     C59816  -0.459   6.809   6.594  0.3996  0.2386  0.9214
  454MOL0     C59817  -0.336   6.884   6.522  0.2500  0.5260 -0.6261
  454MOL0     C59818  -0.365   6.946   6.383  0.9917 -0.0678  0.0051
  454MOL0     C59819  -0.429   6.857   6.277  0.6373  0.6817 -0.5776
  454MOL0     O59820  -0.571   6.850   6.310 -0.4876 -0.5093  1.1029
  454MOL0     C59821  -0.658   6.812   6.216  0.2998  0.1841  1.0899
  454MOL0     C59822  -0.624   6.741   6.092  0.9202 -0.2582  0.4182
  454MOL0     C59823  -0.717   6.696   6.000  0.3561  0.4191  0.9390
  454MOL0     C59824  -0.855   6.727   6.013  0.0643 -0.5945 -0.3016
  454MOL0     C59825  -0.955   6.666   5.922  0.5238 -0.1713 -0.4184
  454MOL0     O59826  -0.909   6.588   5.813  0.4148 -0.5261 -0.3161
  454MOL0     C59827  -0.994   6.541   5.726 -0.2652  0.1375 -0.4068
  454MOL0     C59828  -1.052   6.416   5.748 -0.0254 -0.6375  0.1383
  454MOL0     C59829  -1.158   6.372   5.665 -0.5257  0.0899 -0.7609
  454MOL0     C59830  -1.213   6.461   5.572  0.6470 -0.0706  0.8779
  454MOL0     O59831  -1.329   6.412   5.505  0.3824 -0.6230 -0.1924
  454MOL0     C59832  -1.352   6.456   5.372 -0.3428  0.0867 -1.1718
  454MOL0     C59833  -1.478   6.389   5.315  0.5439  0.4420 -0.1535
  454MOL0     C59834  -1.601   6.391   5.401 -0.5139 -0.5955 -0.2845
  454MOL0     C59835  -1.720   6.324   5.337 -0.2479 -0.5300 -0.0391
  454MOL0     C59836  -1.827   6.291   5.443 -0.1308  0.6842  1.2312
  454MOL0     C59837  -1.938   6.207   5.373  0.1197 -0.6325  0.6208
  454MOL0     C59838  -2.047   6.178   5.471  0.1156 -0.1201 -0.0462
  454MOL0     C59839  -2.156   6.076   5.422 -0.3170 -0.0447  0.0429
  454MOL0    Cl59840  -2.267   6.152   5.304  0.0970  0.1062 -0.1011
  454MOL0     C59841  -1.150   6.576   5.540 -0.7851  1.1129  0.1451
  454MOL0     C59842  -1.034   6.615   5.612 -0.2997  1.3837 -0.7071
  454MOL0     O59843  -1.071   6.676   5.955  0.6613 -0.4323  0.0147
  454MOL0     C59844  -0.892   6.802   6.131  0.1529  0.4465  0.0540
  454MOL0     C59845  -0.795   6.834   6.227 -0.5937 -0.2521  0.0004
  454MOL0     N59846  -0.479   6.892   6.825  0.4281 -0.4240 -0.0094
  454MOL0     N59847  -0.445   6.870   6.947  0.4806  0.1789  0.9391
  454MOL0     C59848   0.691   6.218   7.124 -0.0544 -0.5888 -0.2887
  454MOL0     C59849   0.813   6.167   7.081 -0.0641 -0.4238  0.4955
  454MOL0     C59850   1.096   5.869   6.930 -0.3889 -0.3647  1.5712
  454MOL0     C59851   1.124   5.730   6.938  0.1976  0.5790 -0.7552
  454MOL0     C59852   1.253   5.680   6.900 -0.2190  0.0317  0.0702
  454MOL0     C59853   1.345   5.774   6.850  0.4529 -0.1346 -1.4904
  454MOL0     O59854   1.464   5.735   6.802 -0.0410 -0.0340  0.1878
  454MOL0     C59855   1.451   5.674   6.671 -0.0978  0.8395  0.0203
  454MOL0     C59856   1.551   5.741   6.582 -0.3601  0.3261  0.3838
  454MOL0     C59857   1.528   5.676   6.438 -0.4320 -0.2550  1.1037
  454MOL0     C59858   1.602   5.548   6.414  0.2239  0.2218  0.7901
  454MOL0     C59859   1.751   5.565   6.414  0.5402  0.0136  0.7079
  454MOL0     C59860   1.875   5.579   6.409 -0.5476  0.0616 -0.5331
  454MOL0     C59861   1.316   5.905   6.834  0.6152 -0.0529 -0.0772
  454MOL0     C59862   1.196   5.957   6.881  0.4559 -0.4243  0.3854
  454MOL0     H59863   0.698   6.019   6.795  0.2643 -0.8906  0.4082
  454MOL0     H59864   0.507   6.146   6.844  0.9116 -3.8640  0.0967
  454MOL0     H59865   0.536   6.425   7.198 -1.6895  1.9732 -0.4583
  454MOL0     H59866   0.455   6.281   7.277  0.8913  3.6579  3.2904
  454MOL0     H59867   0.296   6.460   7.307 -0.8073 -1.6814 -0.6136
  454MOL0     H59868   0.234   6.343   7.200  0.1294 -0.1250  1.0701
  454MOL0     H59869   0.330   6.499   7.014  0.8222  0.0254 -0.4952
  454MOL0     H59870   0.339   6.619   7.152 -1.9378 -0.7407  2.6963
  454MOL0     H59871   0.091   6.481   7.051  0.8073  0.3038 -1.6332
  454MOL0     H59872   0.085   6.592   7.192 -2.1671 -1.6518 -0.4586
  454MOL0     H59873   0.181   6.644   6.899  1.8092 -0.3996  0.7358
  454MOL0     H59874   0.167   6.771   7.018  2.6831 -1.4539  0.2906
  454MOL0     H59875  -0.083   6.602   6.927 -3.8166  1.1632  3.4185
  454MOL0     H59876  -0.017   6.746   6.858  2.6601 -0.5582  0.1172
  454MOL0     H59877  -0.065   6.747   7.151 -0.2114 -1.0623 -0.4070
  454MOL0     H59878  -0.083   6.871   7.021  0.0996 -2.4661 -3.7336
  454MOL0     H59879  -0.295   6.780   7.151 -0.9016  0.9154 -0.2471
  454MOL0     H59880  -0.255   6.627   7.078  1.9240  0.2520  1.0817
  454MOL0     H59881  -0.276   6.649   6.774 -1.7285 -0.0444 -0.4211
  454MOL0     H59882  -0.558   6.855   6.589 -0.3899 -1.4529  0.0394
  454MOL0     H59883  -0.478   6.708   6.556 -5.6171  1.2095  0.4306
  454MOL0     H59884  -0.258   6.808   6.508 -1.5728 -0.9928 -3.2986
  454MOL0     H59885  -0.311   6.967   6.590 -2.9488  2.4903 -1.6604
  454MOL0     H59886  -0.443   7.022   6.393 -1.8925 -2.3985 -2.7667
  454MOL0     H59887  -0.268   6.981   6.346  1.0188  0.5439  0.6200
  454MOL0     H59888  -0.387   6.757   6.268  1.2461  0.9014 -0.2124
  454MOL0     H59889  -0.411   6.908   6.182  1.3305  1.6488  0.0522
  454MOL0     H59890  -0.519   6.716   6.077  0.9811 -1.8213  2.9168
  454MOL0     H59891  -0.684   6.624   5.926  0.4378  0.3388  1.0526
  454MOL0     H59892  -1.035   6.356   5.836 -1.3982  0.4282  1.1777
  454MOL0     H59893  -1.200   6.275   5.687 -1.1054  0.6047  0.4991
  454MOL0     H59894  -1.268   6.430   5.306  0.0036 -1.3558 -0.1962
  454MOL0     H59895  -1.376   6.563   5.373 -0.8585 -0.0268 -1.0448
  454MOL0     H59896  -1.445   6.285   5.309 -2.0951 -0.5096  0.5575
  454MOL0     H59897  -1.504   6.418   5.213 -1.4348 -2.7394 -0.6855
  454MOL0     H59898  -1.615   6.496   5.428  0.7273 -0.3561 -0.5040
  454MOL0     H59899  -1.585   6.331   5.492  2.4084 -0.6724 -0.7383
  454MOL0     H59900  -1.763   6.387   5.259  0.3021  1.7169  1.3912
  454MOL0     H59901  -1.690   6.229   5.290 -1.6942 -1.2005  0.3342
  454MOL0     H59902  -1.858   6.388   5.484 -0.1139  1.5743 -0.7181
  454MOL0     H59903  -1.776   6.240   5.525  0.7997 -1.1463 -0.4125
  454MOL0     H59904  -1.893   6.115   5.334  2.6744  1.5295 -1.9925
  454MOL0     H59905  -1.983   6.264   5.291 -0.9988  0.0330  1.6754
  454MOL0     H59906  -2.009   6.137   5.566  1.0942  1.4182  0.2580
  454MOL0     H59907  -2.090   6.273   5.502 -0.0449 -0.5487  1.0955
  454MOL0     H59908  -2.211   6.047   5.512 -0.0855 -0.7915 -0.0502
  454MOL0     H59909  -2.112   5.987   5.377  3.5211  2.4534 -1.6788
  454MOL0     H59910  -1.192   6.643   5.465  1.8273  3.4873  0.6231
  454MOL0     H59911  -0.975   6.698   5.573 -2.2295  2.1600 -2.1800
  454MOL0     H59912  -0.995   6.829   6.156 -0.8072 -0.7788 -2.2758
  454MOL0     H59913  -0.826   6.894   6.313 -0.1906 -2.6926  1.9811
  454MOL0     H59914   0.685   6.249   7.228  1.2111 -2.3975  0.3632
  454MOL0     H59915   0.899   6.183   7.145  1.3878  0.9339 -1.6630
  454MOL0     H59916   1.048   5.659   6.967  1.0203 -0.6130 -1.4185
  454MOL0     H59917   1.279   5.576   6.918  0.9852  0.4707  1.0524
  454MOL0     H59918   1.351   5.676   6.626 -0.4509 -2.4061  0.4119
  454MOL0     H59919   1.476   5.568   6.686  0.2146  0.5088 -2.4708
  454MOL0     H59920   1.534   5.848   6.564  0.2309  0.1033 -1.7122
  454MOL0     H59921   1.649   5.730   6.629  0.2654 -0.5275 -1.0545
  454MOL0     H59922   1.556   5.739   6.354  0.5546 -0.3927  1.3094
  454MOL0     H59923   1.422   5.653   6.428 -0.9441  0.9308  3.1571
  454MOL0     H59924   1.572   5.477   6.492 -1.2665 -0.2018 -0.1393
  454MOL0     H59925   1.560   5.499   6.326  1.5654 -1.1126  0.8494
  454MOL0     H59926   1.979   5.598   6.398 -0.7330  0.0382 -2.5707
  454MOL0     H59927   1.393   5.974   6.803  2.2292 -1.9656 -0.5535
  454MOL0     H59928   1.178   6.064   6.873 -2.7595 -0.8991 -0.4148
  455MOL0     O59929  10.706   5.041   7.506 -0.1065 -0.8714  0.2313
  455MOL0     C59930  10.768   5.032   7.613 -0.4055  0.2050  0.3074
  455MOL0     O59931  10.712   5.022   7.739  0.8751 -0.6287 -0.7414
  455MOL0     C59932  10.576   5.032   7.758  0.3877 -0.3772  0.8106
  455MOL0     C59933  10.511   4.938   7.840  0.1640  0.6258 -0.3482
  455MOL0     C59934  10.372   4.948   7.862  0.9260 -0.6116 -0.6207
  455MOL0     C59935  10.303   5.048   7.793  0.3943 -0.0847  0.2828
  455MOL0     O59936  10.173   5.046   7.794 -0.7906 -0.2275 -0.1592
  455MOL0     C59937  10.104   5.171   7.824  0.3122  0.1694  0.0381
  455MOL0     C59938   9.988   5.166   7.913  0.9523  0.4859  0.3275
  455MOL0     C59939   9.874   5.094   7.851  0.3621  0.6735  0.4564
  455MOL0     C59940   9.762   5.078   7.951  0.7891 -0.0442 -0.6017
  455MOL0     C59941   9.629   5.028   7.892  0.0930  0.1960 -0.8999
  455MOL0     C59942   9.558   5.114   7.795 -0.1712  0.3226 -0.1586
  455MOL0     C59943   9.462   5.024   7.708  0.0373 -0.2016 -0.4488
  455MOL0     C59944   9.382   5.116   7.608 -0.6777  0.0675 -0.4362
  455MOL0     N59945   9.259   5.038   7.559  0.3440 -0.2142 -0.7060
  455MOL0     C59946   9.245   4.902   7.543  0.0339 -0.5873 -0.0234
  455MOL0     C59947   9.115   4.877   7.513  0.3115 -0.2146  0.1652
  455MOL0     C59948   9.047   4.755   7.450 -0.1837  0.5164  0.0889
  455MOL0     C59949   8.902   4.739   7.499  0.0217  0.2843  0.5447
  455MOL0     C59950   8.809   4.660   7.402 -0.3704  0.1714  0.0769
  455MOL0     C59951   8.719   4.563   7.470 -0.2161 -0.3016 -0.4086
  455MOL0     O59952   8.625   4.489   7.389 -0.3336 -0.0866 -0.4247
  455MOL0     C59953   8.545   4.401   7.452  0.3509  0.3317 -0.5205
  455MOL0     C59954   8.452   4.338   7.362 -0.3397 -0.5342 -0.3680
  455MOL0     C59955   8.358   4.244   7.413  0.3396  0.6390 -0.2220
  455MOL0     C59956   8.347   4.223   7.558 -0.4818  0.0556 -0.6861
  455MOL0     C59957   8.243   4.136   7.617  0.0939  0.5300 -0.5120
  455MOL0     O59958   8.245   4.098   7.750 -0.3075  0.4395  0.6078
  455MOL0     C59959   8.140   4.029   7.805 -0.2365  0.1790  0.0855
  455MOL0     C59960   8.067   3.928   7.739  0.1379 -0.5686  0.2100
  455MOL0     C59961   7.965   3.855   7.805 -0.5267  0.3896 -0.2666
  455MOL0     C59962   7.934   3.872   7.935 -0.4009 -0.2258  0.0305
  455MOL0     O59963   7.843   3.812   8.014  0.1039 -0.6868  0.4310
  455MOL0     C59964   7.765   3.704   7.954  0.1371  1.5400  0.4791
  455MOL0     C59965   7.653   3.663   8.054  0.2582  0.1419  0.0200
  455MOL0     C59966   7.587   3.540   8.006  0.0459  0.4955  0.3720
  455MOL0     C59967   7.471   3.499   8.109 -0.4532  0.5638  0.7293
  455MOL0     C59968   7.425   3.354   8.065 -0.4936  0.4198 -1.3882
  455MOL0     C59969   7.279   3.317   8.120 -0.0984  0.4592 -0.3474
  455MOL0     C59970   7.176   3.357   8.014  0.2259  0.1021 -0.4333
  455MOL0     C59971   7.025   3.346   8.056  0.0699  0.1866 -0.4486
  455MOL0    Cl59972   6.917   3.423   7.935  0.1952 -0.5258  0.3776
  455MOL0     C59973   8.012   3.972   8.007  0.4259 -0.1965  0.1697
  455MOL0     C59974   8.110   4.043   7.940 -1.1702 -0.4020  0.3180
  455MOL0     O59975   8.148   4.119   7.542  0.0579 -0.5752  0.8550
  455MOL0     C59976   8.442   4.287   7.638  0.0169 -1.4442 -0.5989
  455MOL0     C59977   8.540   4.373   7.587  0.1782 -0.2884 -0.3637
  455MOL0     N59978   9.050   4.999   7.513 -0.0510 -0.2843 -0.6167
  455MOL0     N59979   9.134   5.090   7.547  0.1256  0.9830  0.1617
  455MOL0     C59980  10.368   5.138   7.715  0.4353  0.1213  0.4125
  455MOL0     C59981  10.505   5.139   7.696  0.2466  0.6509 -0.1279
  455MOL0     C59982  10.918   5.039   7.615  0.6438  0.4667  0.5751
  455MOL0     C59983  10.981   5.076   7.493 -0.7176  0.8003 -0.0613
  455MOL0     C59984  11.122   5.079   7.487 -0.1549 -0.6309  0.0832
  455MOL0     C59985  11.197   5.059   7.603 -0.8298  1.0283 -0.6552
  455MOL0     O59986  11.337   5.074   7.606  0.1312 -0.2158 -0.1474
  455MOL0     C59987  11.401   4.948   7.634 -0.5272 -0.6803 -0.1655
  455MOL0     C59988  11.549   4.981   7.677  0.0559  0.9225  0.9873
  455MOL0     C59989  11.619   4.839   7.687 -0.5660  1.0986  0.4109
  455MOL0     C59990  11.763   4.855   7.743  0.1903  0.4563 -0.6416
  455MOL0     C59991  11.772   4.899   7.883  0.8173 -0.3310 -0.8174
  455MOL0     C59992  11.790   4.934   7.996  0.7383 -0.5475  0.6323
  455MOL0     C59993  11.134   5.026   7.725  0.2602 -0.1110  0.8294
  455MOL0     C59994  10.990   5.024   7.731 -0.2955 -0.0498  0.9203
  455MOL0     H59995  10.574   4.868   7.894  2.6861  0.8209 -2.8138
  455MOL0     H59996  10.316   4.888   7.933  0.2507 -0.2086 -0.8108
  455MOL0     H59997  10.068   5.207   7.728 -1.4876 -0.4899  0.4229
  455MOL0     H59998  10.171   5.243   7.872 -1.2382  1.5844  0.1743
  455MOL0     H59999   9.963   5.272   7.927  0.5512  0.2438  1.5435
  455MOL0     H60000  10.018   5.112   8.003  2.5768  1.9504  0.7188
  455MOL0     H60001   9.914   4.997   7.821  0.3460  1.2795 -1.6877
  455MOL0     H60002   9.836   5.137   7.757 -1.5632  1.2226  1.4314
  455MOL0     H60003   9.798   5.018   8.035 -0.5778  1.0868  0.8589
  455MOL0     H60004   9.737   5.177   7.990  1.1165  0.2606 -1.1431
  455MOL0     H60005   9.565   5.002   7.976  3.3733 -2.5833  1.0196
  455MOL0     H60006   9.658   4.933   7.845  2.6585  0.1843  0.4968
  455MOL0     H60007   9.632   5.165   7.733 -0.2111  0.0078 -0.4718
  455MOL0     H60008   9.502   5.185   7.857  1.1169 -0.4110  1.9498
  455MOL0     H60009   9.517   4.944   7.658 -1.9042 -2.4242  0.7618
  455MOL0     H60010   9.395   4.976   7.780 -0.4817  0.6797 -0.3248
  455MOL0     H60011   9.452   5.146   7.530  1.1210  0.2478  1.1568
  455MOL0     H60012   9.349   5.207   7.659 -1.3925  0.4514 -1.5544
  455MOL0     H60013   9.327   4.832   7.538  0.6331 -0.0155  1.3443
  455MOL0     H60014   9.107   4.665   7.469  0.2824  0.3249 -2.0657
  455MOL0     H60015   9.025   4.771   7.344 -0.8314 -2.1377 -0.2362
  455MOL0     H60016   8.855   4.835   7.525 -1.9662 -0.8264  1.2883
  455MOL0     H60017   8.909   4.689   7.596 -0.5107  0.5525  0.7252
  455MOL0     H60018   8.742   4.732   7.354  1.0202  1.2552 -0.3011
  455MOL0     H60019   8.858   4.606   7.320 -0.2458 -0.0809  0.3172
  455MOL0     H60020   8.659   4.619   7.542  0.3659  3.7395 -2.7628
  455MOL0     H60021   8.781   4.492   7.526 -0.0313  0.4293  0.3372
  455MOL0     H60022   8.456   4.353   7.255 -3.3931  3.0518 -0.1923
  455MOL0     H60023   8.275   4.201   7.357  1.3095 -1.0568 -0.4304
  455MOL0     H60024   8.079   3.908   7.633 -0.4588  1.7820 -0.3760
  455MOL0     H60025   7.905   3.786   7.746  0.2148  0.2760 -0.9079
  455MOL0     H60026   7.824   3.619   7.920 -0.5371  0.0373  2.8267
  455MOL0     H60027   7.712   3.746   7.868 -1.5848  1.4706  1.4639
  455MOL0     H60028   7.589   3.751   8.057  0.9384  0.7221 -1.5016
  455MOL0     H60029   7.702   3.648   8.151  1.7692 -0.6959 -0.8261
  455MOL0     H60030   7.663   3.462   8.002  0.3525  0.8312 -0.5570
  455MOL0     H60031   7.559   3.549   7.900  0.5489 -3.2663 -0.1889
  455MOL0     H60032   7.503   3.509   8.213 -0.3996  2.2685  0.5902
  455MOL0     H60033   7.383   3.565   8.106  0.0849  1.2966  0.7838
  455MOL0     H60034   7.501   3.289   8.109 -3.1077 -1.6875  0.3535
  455MOL0     H60035   7.424   3.339   7.956 -2.7378 -2.4693 -1.1047
  455MOL0     H60036   7.247   3.347   8.220 -2.3447  2.1655 -1.4815
  455MOL0     H60037   7.274   3.207   8.123  0.6952  0.4205 -0.2973
  455MOL0     H60038   7.211   3.457   7.985  1.1872 -0.3923 -1.0245
  455MOL0     H60039   7.190   3.294   7.926  0.2690  0.0907 -0.4187
  455MOL0     H60040   7.001   3.399   8.148 -0.5770  1.0301 -1.0927
  455MOL0     H60041   6.995   3.240   8.060  0.3029  0.1041 -0.8056
  455MOL0     H60042   8.001   3.997   8.112 -2.4039 -2.7199  0.6228
  455MOL0     H60043   8.158   4.116   8.005  0.3181 -0.5261 -0.5900
  455MOL0     H60044   8.421   4.282   7.744 -0.5370  0.7440 -0.5617
  455MOL0     H60045   8.615   4.413   7.653 -1.5185  1.2618  0.7145
  455MOL0     H60046  10.325   5.220   7.658 -0.2751  0.0165  0.7802
  455MOL0     H60047  10.546   5.207   7.622 -1.1820  0.6173 -0.9865
  455MOL0     H60048  10.925   5.100   7.404  1.7474  0.1851 -1.9056
  455MOL0     H60049  11.168   5.092   7.390  0.1621  1.9529  0.5151
  455MOL0     H60050  11.404   4.881   7.547 -1.9567 -0.2588 -0.5623
  455MOL0     H60051  11.349   4.893   7.713  0.3848  0.0174  0.9609
  455MOL0     H60052  11.599   5.041   7.601  1.3216 -0.4420  0.7021
  455MOL0     H60053  11.562   5.042   7.767  9.1190  1.6845  0.0406
  455MOL0     H60054  11.629   4.794   7.588  0.1433  3.3718 -0.6160
  455MOL0     H60055  11.564   4.770   7.752  1.1360 -1.3530 -0.6153
  455MOL0     H60056  11.809   4.756   7.736 -2.5570 -0.9407 -0.4360
  455MOL0     H60057  11.813   4.930   7.681 -0.0223  0.0422 -1.3263
  455MOL0     H60058  11.804   4.949   8.101  2.7547  0.5283  0.2721
  455MOL0     H60059  11.190   5.002   7.814 -0.0798 -2.4224  0.4863
  455MOL0     H60060  10.940   4.993   7.822 -1.5775  1.8290  0.9015
  456MOL0     O60061   2.393   5.290  11.073  0.0399  0.0644 -0.1229
  456MOL0     C60062   2.416   5.184  11.113  0.0577 -0.8882  0.6437
  456MOL0     O60063   2.319   5.083  11.138  0.1939  0.4139  0.1168
  456MOL0     C60064   2.180   5.107  11.127  0.5966  0.5570 -0.5672
  456MOL0     C60065   2.119   5.222  11.177  0.0750 -0.8877  0.1480
  456MOL0     C60066   1.976   5.243  11.168 -0.4104 -0.2498  0.2886
  456MOL0     C60067   1.896   5.151  11.097 -0.6690 -1.1042 -0.3335
  456MOL0     O60068   1.756   5.164  11.098  0.2127 -0.3043 -0.5311
  456MOL0     C60069   1.679   5.136  10.980  0.1928 -0.0682  0.0637
  456MOL0     C60070   1.538   5.197  10.993 -0.2065  0.7566 -0.5747
  456MOL0     C60071   1.456   5.128  11.103  0.5146  0.2150 -0.1443
  456MOL0     C60072   1.305   5.177  11.090 -0.5138  0.6418 -0.2474
  456MOL0     C60073   1.225   5.121  11.210  0.1139 -0.4229 -0.1355
  456MOL0     C60074   1.084   5.177  11.204 -0.1258  0.3186  0.2214
  456MOL0     C60075   0.999   5.140  11.077  0.1791  0.3605  0.5315
  456MOL0     C60076   0.876   5.228  11.077  0.3796  0.5168  0.8889
  456MOL0     N60077   0.909   5.366  11.049 -0.5570 -0.1028  0.8838
  456MOL0     C60078   0.949   5.421  10.922  0.7394 -0.6110  0.6766
  456MOL0     C60079   0.958   5.558  10.949 -0.2401 -0.1745 -0.6375
  456MOL0     C60080   0.994   5.668  10.850  0.9877  0.4111 -0.3607
  456MOL0     C60081   0.869   5.746  10.805 -0.2173  0.5415  0.0532
  456MOL0     C60082   0.748   5.662  10.754  0.1403 -0.1670 -1.0361
  456MOL0     C60083   0.638   5.739  10.685  0.4058  0.2924  0.3652
  456MOL0     O60084   0.599   5.845  10.773 -0.1058 -0.1261  0.2123
  456MOL0     C60085   0.488   5.840  10.855  0.8858 -0.1786  0.2012
  456MOL0     C60086   0.416   5.726  10.890  0.5603  0.7151  0.8380
  456MOL0     C60087   0.286   5.736  10.940 -0.3082 -0.0176 -0.5159
  456MOL0     C60088   0.225   5.860  10.965  0.0362  0.1773  0.2613
  456MOL0     C60089   0.082   5.867  11.013 -0.5375  0.3107 -0.0021
  456MOL0     O60090   0.008   5.973  10.973 -1.0174  0.5385 -0.6455
  456MOL0     C60091  -0.120   6.003  11.015 -0.5272 -0.2594  0.1663
  456MOL0     C60092  -0.182   6.105  10.947  1.3215  0.2537 -0.3462
  456MOL0     C60093  -0.308   6.155  10.986  0.5034  0.0879 -0.7929
  456MOL0     C60094  -0.372   6.096  11.094  0.8545  0.4368  0.3428
  456MOL0     O60095  -0.499   6.127  11.130  0.3328  0.0105 -0.0017
  456MOL0     C60096  -0.500   6.247  11.209 -0.0335 -0.3394 -0.5266
  456MOL0     C60097  -0.552   6.214  11.354  0.0108  0.0005 -0.3053
  456MOL0     C60098  -0.701   6.157  11.369 -0.4918 -0.1764 -0.3798
  456MOL0     C60099  -0.710   6.061  11.490  0.0367  0.7131 -0.7000
  456MOL0     C60100  -0.838   5.976  11.503 -0.0461  0.4331 -0.0162
  456MOL0     C60101  -0.945   6.048  11.571 -0.6809  0.1728 -0.4927
  456MOL0     C60102  -1.062   5.963  11.617 -0.0891 -1.1906  0.0335
  456MOL0     C60103  -1.193   6.048  11.631  0.3427  0.1345  0.0211
  456MOL0    Cl60104  -1.249   6.111  11.477  0.2774 -0.0394  0.5104
  456MOL0     C60105  -0.312   5.988  11.167  0.6376 -1.0132 -0.5478
  456MOL0     C60106  -0.183   5.955  11.128  0.2140  0.3074  0.0218
  456MOL0     O60107   0.042   5.781  11.091 -0.2071 -0.1130 -0.7395
  456MOL0     C60108   0.297   5.982  10.931 -1.0986  0.3761 -0.1366
  456MOL0     C60109   0.427   5.965  10.884 -0.3369  0.9447  0.5370
  456MOL0     N60110   0.931   5.585  11.085 -0.0587 -0.4521  0.1702
  456MOL0     N60111   0.899   5.469  11.132  0.2495  0.0340 -0.0883
  456MOL0     C60112   1.961   5.050  11.034 -0.0667  0.4340 -0.9001
  456MOL0     C60113   2.092   5.021  11.056 -0.0515 -0.0330  0.4959
  456MOL0     C60114   2.558   5.149  11.116 -0.4257  0.6294 -0.6528
  456MOL0     C60115   2.656   5.219  11.040 -0.0133 -0.0186 -0.0322
  456MOL0     C60116   2.792   5.193  11.038 -0.2524  0.0373  0.5369
  456MOL0     C60117   2.842   5.090  11.119 -0.2283 -0.5549  0.1402
  456MOL0     O60118   2.979   5.075  11.127  0.4118  0.0987 -0.4853
  456MOL0     C60119   3.037   5.130  11.244 -0.3359 -0.4227  0.4551
  456MOL0     C60120   3.166   5.059  11.273  0.0546  0.6202  0.5330
  456MOL0     C60121   3.265   5.094  11.176 -0.6436 -0.5430  0.5040
  456MOL0     C60122   3.379   4.992  11.170 -0.0152 -0.6372  0.5618
  456MOL0     C60123   3.476   5.034  11.068 -0.5604  0.1085  0.6848
  456MOL0     C60124   3.569   5.050  10.995  0.6375  0.1410 -0.6039
  456MOL0     C60125   2.747   5.031  11.208 -0.0433 -0.3097  0.1842
  456MOL0     C60126   2.608   5.052  11.199 -0.3318  0.2954 -0.9781
  456MOL0     H60127   2.178   5.295  11.232 -1.4918  1.9672 -1.7676
  456MOL0     H60128   1.936   5.324  11.228  0.9036  0.9429 -0.3922
  456MOL0     H60129   1.682   5.030  10.953 -1.3984 -0.2405  0.4584
  456MOL0     H60130   1.731   5.187  10.898  0.1762 -2.9534 -1.9068
  456MOL0     H60131   1.498   5.186  10.892  2.0090  2.4398 -1.7310
  456MOL0     H60132   1.550   5.306  11.002  1.0600  0.8551 -2.7288
  456MOL0     H60133   1.498   5.171  11.195  3.2662 -2.2001 -0.1179
  456MOL0     H60134   1.459   5.019  11.112 -0.7281  0.3428  2.8089
  456MOL0     H60135   1.297   5.286  11.097 -0.0784  0.6453  0.2301
  456MOL0     H60136   1.281   5.127  10.996  1.6298 -0.2170 -0.3913
  456MOL0     H60137   1.275   5.139  11.305 -1.1378  0.6903  0.3565
  456MOL0     H60138   1.215   5.012  11.204  3.2912 -0.7724 -0.6354
  456MOL0     H60139   1.100   5.285  11.211 -2.0749  0.6179  0.8225
  456MOL0     H60140   1.025   5.152  11.293 -1.4353  2.5893  0.0780
  456MOL0     H60141   1.052   5.158  10.983 -0.2613  0.8498  0.3705
  456MOL0     H60142   0.963   5.037  11.075 -2.2297  1.1335 -0.7415
  456MOL0     H60143   0.824   5.219  11.173  0.2627  0.3553  0.8118
  456MOL0     H60144   0.801   5.186  11.010  0.0201  0.8359  1.0892
  456MOL0     H60145   0.966   5.371  10.827 -0.0354  1.0039 -0.3541
  456MOL0     H60146   1.014   5.611  10.759 -2.6988 -0.5903 -0.7041
  456MOL0     H60147   1.082   5.725  10.882  0.0050  0.8535  1.7713
  456MOL0     H60148   0.896   5.822  10.731 -2.7811  1.9055  0.3844
  456MOL0     H60149   0.831   5.798  10.894 -0.1039  0.7146  0.0002
  456MOL0     H60150   0.795   5.588  10.689  1.6529 -0.4354  0.3243
  456MOL0     H60151   0.705   5.612  10.841  1.9200  1.4707  0.8908
  456MOL0     H60152   0.558   5.669  10.659  0.5556  0.0208  0.6253
  456MOL0     H60153   0.686   5.780  10.595  3.0430 -0.4863  1.3210
  456MOL0     H60154   0.446   5.623  10.875 -3.5202 -0.7525  1.4384
  456MOL0     H60155   0.227   5.646  10.953  0.3308  0.0031  3.7461
  456MOL0     H60156  -0.122   6.149  10.867  1.8011 -0.0381 -0.1502
  456MOL0     H60157  -0.351   6.234  10.925 -2.3194 -0.1701  0.7058
  456MOL0     H60158  -0.572   6.316  11.164 -0.2077  0.1633  0.4873
  456MOL0     H60159  -0.406   6.302  11.220 -0.9405  1.1560  0.0232
  456MOL0     H60160  -0.535   6.303  11.415 -0.2125  0.4219 -0.8518
  456MOL0     H60161  -0.485   6.133  11.383 -0.8933 -1.0614 -1.1168
  456MOL0     H60162  -0.717   6.108  11.272  1.4982  1.4095 -1.6106
  456MOL0     H60163  -0.775   6.237  11.372  2.8487  3.5760 -3.9890
  456MOL0     H60164  -0.625   5.992  11.488  0.2118  0.7270  2.1292
  456MOL0     H60165  -0.702   6.119  11.583 -0.7026  1.8096 -1.2956
  456MOL0     H60166  -0.817   5.886  11.562 -0.1846  0.7619  0.5495
  456MOL0     H60167  -0.881   5.955  11.405  1.9865  0.0143 -0.8439
  456MOL0     H60168  -0.966   6.139  11.514 -1.5352  1.6466  2.0177
  456MOL0     H60169  -0.902   6.074  11.668 -2.4648 -0.6370  0.5709
  456MOL0     H60170  -1.092   5.884  11.548 -3.6310  0.6934 -0.7645
  456MOL0     H60171  -1.033   5.920  11.714  2.8751  2.2163  0.8825
  456MOL0     H60172  -1.169   6.135  11.693 -3.0199  0.1243  1.5568
  456MOL0     H60173  -1.268   5.980  11.671 -2.4780  0.1461 -4.5216
  456MOL0     H60174  -0.357   5.950  11.258 -3.6626  1.6630 -1.2830
  456MOL0     H60175  -0.134   5.879  11.188 -2.7393  0.1346  2.4972
  456MOL0     H60176   0.252   6.078  10.952 -1.5118  0.1555  0.0010
  456MOL0     H60177   0.477   6.055  10.849  0.2899  0.0450 -0.9379
  456MOL0     H60178   1.901   4.984  10.973 -2.3285  1.7015 -0.1646
  456MOL0     H60179   2.131   4.935  11.003  1.3177  1.5795 -1.2824
  456MOL0     H60180   2.612   5.294  10.975 -0.3040  0.7779  1.0501
  456MOL0     H60181   2.849   5.257  10.972 -0.8135  0.8890  0.8594
  456MOL0     H60182   2.966   5.109  11.325  0.5570 -2.0763  0.8318
  456MOL0     H60183   3.038   5.240  11.238 -3.6839 -0.2793  0.2864
  456MOL0     H60184   3.196   5.085  11.375 -0.7068 -0.1402  0.9718
  456MOL0     H60185   3.156   4.950  11.278  0.3407  0.5432 -0.4803
  456MOL0     H60186   3.315   5.187  11.205  1.1483 -1.3203  0.0574
  456MOL0     H60187   3.225   5.105  11.074  0.5463 -1.7589 -0.1252
  456MOL0     H60188   3.428   4.983  11.268  0.4022 -4.3253  0.1638
  456MOL0     H60189   3.337   4.892  11.151  0.0759 -0.5861  0.0769
  456MOL0     H60190   3.653   5.065  10.930  1.0629 -1.4194 -0.4481
  456MOL0     H60191   2.778   4.944  11.266 -0.3990 -0.5620  0.0060
  456MOL0     H60192   2.539   4.991  11.257 -0.3682  0.5141 -0.7907
  457MOL0     O60193   9.636   5.403   7.612 -0.3506  0.6164 -0.2964
  457MOL0     C60194   9.686   5.489   7.537  0.0685 -0.1388 -0.6355
  457MOL0     O60195   9.623   5.554   7.442  0.0611 -0.3675  0.3076
  457MOL0     C60196   9.493   5.533   7.412 -1.1448  0.6889 -0.5722
  457MOL0     C60197   9.437   5.408   7.376 -0.3449  0.2409 -0.1104
  457MOL0     C60198   9.304   5.397   7.336  0.6541 -0.1340 -0.6143
  457MOL0     C60199   9.217   5.516   7.341 -0.3140  0.4857  0.2580
  457MOL0     O60200   9.087   5.509   7.300 -0.1590  0.1695 -0.6862
  457MOL0     C60201   8.988   5.581   7.371 -0.3026 -0.1039  0.0819
  457MOL0     C60202   8.850   5.585   7.305  0.2440 -0.0161 -0.3543
  457MOL0     C60203   8.735   5.585   7.403 -0.6574 -0.4228 -0.8088
  457MOL0     C60204   8.607   5.542   7.333  0.0599 -0.3067 -0.4607
  457MOL0     C60205   8.487   5.559   7.432 -0.5943  0.7190 -0.6379
  457MOL0     C60206   8.348   5.547   7.365 -0.5760  0.4211 -0.3221
  457MOL0     C60207   8.225   5.588   7.460  0.0251 -0.6201 -0.2642
  457MOL0     C60208   8.104   5.590   7.373  0.0544  0.3037 -0.5045
  457MOL0     N60209   7.983   5.581   7.460  0.1974  0.0407  0.5120
  457MOL0     C60210   7.947   5.469   7.519  1.2019  0.1858  0.2959
  457MOL0     C60211   7.835   5.498   7.576  0.3486  0.6867 -0.3022
  457MOL0     C60212   7.776   5.386   7.654 -0.0184 -0.5393  0.1520
  457MOL0     C60213   7.645   5.429   7.725  0.0635 -0.2092  0.5600
  457MOL0     C60214   7.523   5.443   7.634 -0.9719 -0.1603  0.5828
  457MOL0     C60215   7.412   5.491   7.717 -0.2878 -0.2988  0.6231
  457MOL0     O60216   7.370   5.385   7.802 -0.0961  0.6695 -0.0440
  457MOL0     C60217   7.261   5.376   7.877 -0.7572 -0.2709 -0.9566
  457MOL0     C60218   7.217   5.247   7.928  0.5925 -0.6050  0.7484
  457MOL0     C60219   7.105   5.244   8.006 -0.1203  0.3623 -0.5463
  457MOL0     C60220   7.048   5.359   8.055 -0.0072 -0.7358 -0.0937
  457MOL0     C60221   6.933   5.345   8.151  0.8183  0.0790 -0.1609
  457MOL0     O60222   6.907   5.222   8.211  0.2536 -0.1949  0.1605
  457MOL0     C60223   6.785   5.198   8.270 -0.3819 -0.0759  0.0122
  457MOL0     C60224   6.783   5.117   8.381 -0.4573 -0.2312  0.7225
  457MOL0     C60225   6.663   5.093   8.451 -0.0155  0.1790 -0.9129
  457MOL0     C60226   6.547   5.155   8.417 -0.7332  0.0138  0.0653
  457MOL0     O60227   6.425   5.143   8.478  0.0698 -0.8680  0.3981
  457MOL0     C60228   6.435   5.161   8.626  0.2829  0.2020  0.5300
  457MOL0     C60229   6.302   5.132   8.670  0.5504  0.3681  0.0330
  457MOL0     C60230   6.274   4.983   8.693  0.3930 -0.8852  0.1703
  457MOL0     C60231   6.133   4.959   8.764 -0.4086 -0.1391 -0.0837
  457MOL0     C60232   6.015   4.913   8.668  0.4623  0.5048  0.5306
  457MOL0     C60233   5.983   5.011   8.560  0.3066  0.8057 -0.6793
  457MOL0     C60234   5.857   4.974   8.476  0.2272  0.3184 -0.2551
  457MOL0     C60235   5.831   5.071   8.374 -0.9683  0.1411 -0.3445
  457MOL0    Cl60236   5.665   5.030   8.297 -0.1142  0.0340 -0.0755
  457MOL0     C60237   6.540   5.230   8.299  0.0582  0.2133  0.5399
  457MOL0     C60238   6.660   5.245   8.226  0.2418 -0.0299 -0.3604
  457MOL0     O60239   6.869   5.451   8.172 -0.9503  0.0247 -1.0040
  457MOL0     C60240   7.089   5.483   8.002 -0.2154  0.2512 -0.0834
  457MOL0     C60241   7.193   5.488   7.915 -0.4570 -0.2915 -0.0317
  457MOL0     N60242   7.799   5.633   7.556  0.0644  0.5310 -0.0437
  457MOL0     N60243   7.883   5.673   7.478 -0.1554 -0.4237  0.0438
  457MOL0     C60244   9.276   5.638   7.380 -0.1405 -0.5315 -0.2374
  457MOL0     C60245   9.414   5.642   7.411  0.6581 -0.0900 -0.2587
  457MOL0     C60246   9.825   5.526   7.568  1.1718 -0.8248  0.0514
  457MOL0     C60247   9.896   5.460   7.671  0.1487  0.7282 -0.1277
  457MOL0     C60248  10.027   5.498   7.705  0.3065  0.7822 -0.2216
  457MOL0     C60249  10.100   5.582   7.623 -0.0823 -0.4200  0.0791
  457MOL0     O60250  10.236   5.603   7.654  0.1567 -0.3366  0.2322
  457MOL0     C60251  10.305   5.705   7.571 -0.0878  0.9105  0.1552
  457MOL0     C60252  10.448   5.679   7.595 -0.6905 -0.0470 -0.3536
  457MOL0     C60253  10.494   5.558   7.517  0.3041  0.2790 -0.3100
  457MOL0     C60254  10.639   5.530   7.525 -0.4038  0.9301 -0.5308
  457MOL0     C60255  10.689   5.428   7.426 -0.2635  0.2420 -1.1785
  457MOL0     C60256  10.714   5.342   7.343 -0.6796  0.5540  0.0877
  457MOL0     C60257  10.029   5.648   7.517  0.3614  0.2791  0.4048
  457MOL0     C60258   9.892   5.625   7.489 -0.5512  1.0589 -0.6345
  457MOL0     H60259   9.499   5.318   7.368  0.3935  0.7804 -0.6319
  457MOL0     H60260   9.262   5.300   7.312  0.7206 -0.7193  1.4184
  457MOL0     H60261   9.026   5.682   7.388 -0.7628  0.5851 -2.5276
  457MOL0     H60262   8.988   5.536   7.471  2.8728  1.9349  1.1777
  457MOL0     H60263   8.850   5.494   7.244  0.6016 -0.8331  0.8192
  457MOL0     H60264   8.847   5.669   7.235  0.1234 -0.2480 -0.6279
  457MOL0     H60265   8.709   5.683   7.444  3.2242  1.5865 -2.5681
  457MOL0     H60266   8.755   5.516   7.486 -1.9693  0.0080 -0.1111
  457MOL0     H60267   8.599   5.603   7.243 -3.5451 -0.6994 -0.5294
  457MOL0     H60268   8.604   5.437   7.303 -1.0632 -0.6162  0.6765
  457MOL0     H60269   8.489   5.660   7.473  0.1428  0.9037 -1.1147
  457MOL0     H60270   8.498   5.487   7.515 -0.4108  1.1996 -0.2396
  457MOL0     H60271   8.331   5.440   7.345 -1.6799  0.4458  0.4111
  457MOL0     H60272   8.362   5.592   7.266 -1.4027  0.0649 -0.6070
  457MOL0     H60273   8.223   5.524   7.548 -2.9305 -0.3469 -0.0274
  457MOL0     H60274   8.231   5.692   7.495 -2.1660 -1.2189  2.2528
  457MOL0     H60275   8.109   5.498   7.314 -0.3714  1.7557 -2.9705
  457MOL0     H60276   8.108   5.674   7.302  0.1515  1.7696  1.1733
  457MOL0     H60277   7.992   5.371   7.509  0.1424 -0.1706 -1.4222
  457MOL0     H60278   7.851   5.346   7.723 -2.1149 -4.4534  0.4269
  457MOL0     H60279   7.759   5.300   7.588  1.8939 -1.8295  1.2259
  457MOL0     H60280   7.677   5.522   7.772  1.6982  1.1856 -2.9314
  457MOL0     H60281   7.622   5.352   7.799 -1.4323 -0.3228  0.0226
  457MOL0     H60282   7.552   5.521   7.563  0.2339  0.4580  1.7083
  457MOL0     H60283   7.497   5.356   7.573  2.4237 -0.0811 -1.2487
  457MOL0     H60284   7.329   5.527   7.657  0.0487  0.1493  0.4240
  457MOL0     H60285   7.443   5.578   7.775 -2.4012  0.2214  1.0583
  457MOL0     H60286   7.268   5.155   7.901  1.0168  0.0126 -0.6157
  457MOL0     H60287   7.053   5.152   8.032 -1.6912  1.6174  1.0202
  457MOL0     H60288   6.875   5.085   8.428  0.5253 -2.3738 -2.3583
  457MOL0     H60289   6.674   5.053   8.552  0.3850  3.7663  0.6128
  457MOL0     H60290   6.460   5.266   8.644 -1.7271  0.8349 -0.0131
  457MOL0     H60291   6.509   5.101   8.678  0.3945  0.5416  0.7645
  457MOL0     H60292   6.228   5.157   8.593 -0.8968 -2.2081  0.4547
  457MOL0     H60293   6.297   5.188   8.764 -2.0469 -2.0820  1.4970
  457MOL0     H60294   6.347   4.940   8.762  1.8997  0.0439 -0.7855
  457MOL0     H60295   6.276   4.927   8.599  1.3602 -1.7305  0.6608
  457MOL0     H60296   6.139   4.873   8.831  2.2756 -0.4004 -0.5248
  457MOL0     H60297   6.108   5.048   8.822 -0.2511  0.7841 -1.3866
  457MOL0     H60298   5.923   4.909   8.728 -1.2579  2.8283 -1.6890
  457MOL0     H60299   6.031   4.814   8.623 -2.9883 -1.3834  2.9416
  457MOL0     H60300   6.065   5.002   8.487  0.1214 -2.6768 -0.6292
  457MOL0     H60301   5.970   5.110   8.604 -0.8524  0.1278  0.5778
  457MOL0     H60302   5.881   4.874   8.438 -0.4361  0.4873 -1.1430
  457MOL0     H60303   5.772   4.978   8.545 -0.5650  1.8008 -1.2700
  457MOL0     H60304   5.910   5.071   8.298 -0.1833  0.5908  0.4653
  457MOL0     H60305   5.833   5.171   8.419 -0.6408 -0.5863  1.3196
  457MOL0     H60306   6.451   5.281   8.263  1.1182  3.5766  2.2597
  457MOL0     H60307   6.655   5.301   8.134 -0.9871  0.3395 -0.0912
  457MOL0     H60308   7.041   5.580   8.009  1.6367  1.4406 -2.5664
  457MOL0     H60309   7.220   5.582   7.868  2.0116 -0.5519  0.7167
  457MOL0     H60310   9.223   5.732   7.372 -2.4321 -1.6909  0.4946
  457MOL0     H60311   9.461   5.736   7.439 -0.3618 -0.0880  1.5954
  457MOL0     H60312   9.851   5.388   7.739 -1.3242 -0.1017 -1.8846
  457MOL0     H60313  10.072   5.449   7.791 -1.3349  0.0177  0.2509
  457MOL0     H60314  10.266   5.803   7.598 -1.1650  0.9542 -1.4014
  457MOL0     H60315  10.296   5.703   7.462  1.7099  1.4213 -0.0353
  457MOL0     H60316  10.508   5.766   7.567 -1.7032  0.3173 -1.4708
  457MOL0     H60317  10.477   5.672   7.700 -2.4598  0.4254  0.1951
  457MOL0     H60318  10.467   5.564   7.411 -0.9496  0.2896 -0.0024
  457MOL0     H60319  10.439   5.473   7.559  2.7952 -0.7247  1.1120
  457MOL0     H60320  10.699   5.618   7.503  2.0819  0.2399  2.6592
  457MOL0     H60321  10.664   5.485   7.622  1.0761 -2.7750 -2.4474
  457MOL0     H60322  10.729   5.253   7.285  1.7595  1.8768 -1.4667
  457MOL0     H60323  10.069   5.738   7.471  1.1371 -0.9139 -1.3395
  457MOL0     H60324   9.842   5.675   7.407 -2.5236  0.2070 -0.0031
  458MOL0     O60325   9.502   2.273   2.131 -0.2833 -0.1204 -1.0011
  458MOL0     C60326   9.522   2.299   2.014 -0.9131 -0.1601  0.0158
  458MOL0     O60327   9.442   2.258   1.910 -0.3575 -0.4767  0.6288
  458MOL0     C60328   9.325   2.200   1.949  0.0436  0.0056 -0.3171
  458MOL0     C60329   9.231   2.245   2.049  0.3653  0.9503 -0.5591
  458MOL0     C60330   9.107   2.180   2.066 -0.1925 -0.1513 -0.0333
  458MOL0     C60331   9.072   2.076   1.981 -0.0082  0.1168  0.2179
  458MOL0     O60332   8.937   2.051   1.983 -0.0504 -0.1762  0.2529
  458MOL0     C60333   8.879   1.955   1.892  0.1802 -0.0752  0.1981
  458MOL0     C60334   8.730   1.938   1.916 -0.8322  0.0329  0.7129
  458MOL0     C60335   8.658   1.852   1.815  0.1920  0.1318  0.2704
  458MOL0     C60336   8.507   1.879   1.825 -0.8594 -0.2350 -0.0978
  458MOL0     C60337   8.413   1.802   1.725  0.0209 -0.5882 -0.2124
  458MOL0     C60338   8.355   1.682   1.787  0.3361  0.0123 -0.0947
  458MOL0     C60339   8.280   1.585   1.682 -0.6255  0.2326  0.7723
  458MOL0     C60340   8.164   1.653   1.603 -0.3357  0.6080  0.0999
  458MOL0     N60341   8.077   1.561   1.537 -0.1689 -0.3996  0.3306
  458MOL0     C60342   7.989   1.483   1.602  0.1710 -0.4115  0.1914
  458MOL0     C60343   7.889   1.460   1.519  0.7328  0.0062 -0.7215
  458MOL0     C60344   7.762   1.394   1.563 -0.4675  0.3384  0.3705
  458MOL0     C60345   7.646   1.493   1.561 -0.1857  0.5708  0.9608
  458MOL0     C60346   7.512   1.428   1.606  0.1924  0.3987 -0.1259
  458MOL0     C60347   7.398   1.541   1.610 -0.7020  0.3243 -0.6096
  458MOL0     O60348   7.354   1.582   1.477 -0.5702 -0.2431 -0.5868
  458MOL0     C60349   7.233   1.539   1.434 -0.5528 -0.8761 -0.6151
  458MOL0     C60350   7.187   1.409   1.466  0.0681 -0.3468 -0.1308
  458MOL0     C60351   7.062   1.371   1.424 -0.2437  0.3739 -0.4913
  458MOL0     C60352   6.979   1.458   1.351  0.8416  0.6461  0.5198
  458MOL0     C60353   6.841   1.413   1.310 -0.1882 -0.3211 -0.8044
  458MOL0     O60354   6.767   1.505   1.241  0.0160 -0.0219 -0.1766
  458MOL0     C60355   6.646   1.471   1.194 -0.1891 -0.5552 -0.3003
  458MOL0     C60356   6.555   1.575   1.198 -0.0101 -0.3062  0.5196
  458MOL0     C60357   6.422   1.555   1.158  0.9150 -0.6433  0.4409
  458MOL0     C60358   6.382   1.431   1.105 -0.4023 -0.3822  0.4839
  458MOL0     O60359   6.254   1.435   1.057 -0.2048  0.0754  0.3524
  458MOL0     C60360   6.193   1.312   1.020 -0.7702 -0.1016 -0.1511
  458MOL0     C60361   6.064   1.340   0.945 -0.4013  0.8721 -1.4041
  458MOL0     C60362   5.994   1.203   0.902 -0.4273  0.5858 -0.5663
  458MOL0     C60363   5.874   1.258   0.823 -0.6848  1.0057 -0.5945
  458MOL0     C60364   5.795   1.146   0.749 -0.3877 -0.6514 -0.3783
  458MOL0     C60365   5.671   1.209   0.685  0.1000 -1.0086 -0.4955
  458MOL0     C60366   5.587   1.112   0.602  0.5391  0.5641  0.3511
  458MOL0     C60367   5.460   1.180   0.546 -0.1345  0.3628  1.0101
  458MOL0    Cl60368   5.359   1.074   0.441 -0.0393  0.2127 -0.3736
  458MOL0     C60369   6.469   1.325   1.109 -0.1816 -0.3487 -0.1595
  458MOL0     C60370   6.604   1.344   1.150  0.7185 -0.1084  0.1970
  458MOL0     O60371   6.795   1.305   1.353 -0.1562 -0.1142  0.1922
  458MOL0     C60372   7.029   1.579   1.302 -0.0636  0.0248 -0.2734
  458MOL0     C60373   7.152   1.620   1.352 -0.1384  0.0585  0.0617
  458MOL0     N60374   7.921   1.517   1.400  0.0028  0.2399  0.5335
  458MOL0     N60375   8.032   1.579   1.413  0.2602  0.6047  0.1805
  458MOL0     C60376   9.166   2.024   1.887  0.2582  0.1887  0.2055
  458MOL0     C60377   9.289   2.094   1.867 -0.5299  0.8732  0.2826
  458MOL0     C60378   9.641   2.389   1.984  0.1244 -0.0977  0.3731
  458MOL0     C60379   9.675   2.441   1.858  0.2037  0.3072 -0.2227
  458MOL0     C60380   9.771   2.535   1.838  0.8542  0.4364 -0.3035
  458MOL0     C60381   9.844   2.576   1.950  0.3604  0.6662 -0.1530
  458MOL0     O60382   9.946   2.672   1.953  0.0033 -0.5818  0.6998
  458MOL0     C60383   9.988   2.723   1.828  0.3305 -0.2952  1.0145
  458MOL0     C60384  10.098   2.826   1.835  0.2219 -0.0981  0.6235
  458MOL0     C60385  10.053   2.951   1.908 -0.2157 -0.2283  0.6686
  458MOL0     C60386  10.168   3.050   1.895 -0.8727  0.5657 -0.6030
  458MOL0     C60387  10.292   3.005   1.968 -0.3217 -0.1441 -0.6339
  458MOL0     C60388  10.394   2.995   2.033 -0.0980  0.1132 -0.3435
  458MOL0     C60389   9.821   2.517   2.077 -0.0329 -0.0771  0.0716
  458MOL0     C60390   9.721   2.428   2.093 -0.1978  0.5786 -0.1573
  458MOL0     H60391   9.251   2.330   2.114 -0.7952  0.9508 -0.1714
  458MOL0     H60392   9.027   2.210   2.133 -0.5207 -0.7158 -0.1598
  458MOL0     H60393   8.924   1.857   1.909 -2.2661 -1.3026  0.0484
  458MOL0     H60394   8.890   1.987   1.788  2.2903 -0.4207  0.2651
  458MOL0     H60395   8.689   2.039   1.919  2.8526  1.8063 -1.3145
  458MOL0     H60396   8.710   1.900   2.017  1.3566 -1.6216  0.6108
  458MOL0     H60397   8.673   1.749   1.847  1.8490 -0.2995 -1.6556
  458MOL0     H60398   8.705   1.872   1.718  1.9989 -2.5470  0.4899
  458MOL0     H60399   8.478   1.862   1.929  4.3668  0.2686  1.7373
  458MOL0     H60400   8.502   1.987   1.808 -1.0605 -0.3657 -0.9418
  458MOL0     H60401   8.475   1.782   1.638  2.0121  2.2841  0.4009
  458MOL0     H60402   8.327   1.867   1.703  0.7587 -0.0365 -1.5936
  458MOL0     H60403   8.289   1.711   1.869 -0.1734  0.4842 -0.6651
  458MOL0     H60404   8.436   1.631   1.841  0.8180 -0.6387 -1.3913
  458MOL0     H60405   8.349   1.536   1.612 -1.2567 -1.2325  1.1273
  458MOL0     H60406   8.230   1.508   1.742  0.1008 -0.3746  0.6274
  458MOL0     H60407   8.212   1.727   1.538  0.6590  0.0876  0.2139
  458MOL0     H60408   8.108   1.696   1.686  0.3023  0.5170  0.5837
  458MOL0     H60409   8.000   1.445   1.703  1.0311 -0.8363 -0.0494
  458MOL0     H60410   7.771   1.358   1.666  1.1563  1.3125  0.6059
  458MOL0     H60411   7.740   1.304   1.505  0.7879  0.3699 -0.1841
  458MOL0     H60412   7.641   1.531   1.458 -0.1318 -0.9908  0.3482
  458MOL0     H60413   7.668   1.571   1.634 -0.0451 -0.4018  1.9796
  458MOL0     H60414   7.473   1.347   1.543  0.7827 -1.1189  1.3739
  458MOL0     H60415   7.524   1.388   1.707 -1.8648  2.1942  0.9027
  458MOL0     H60416   7.439   1.631   1.657 -1.9598 -0.4345  2.1828
  458MOL0     H60417   7.323   1.497   1.677  1.2985 -2.3723  0.0126
  458MOL0     H60418   7.231   1.338   1.536  0.1747 -1.9768 -1.7698
  458MOL0     H60419   7.033   1.272   1.458  0.5005  0.1218 -0.5622
  458MOL0     H60420   6.599   1.669   1.232 -1.4105  0.4704  0.2953
  458MOL0     H60421   6.348   1.633   1.146  1.0040 -0.4837  0.9387
  458MOL0     H60422   6.166   1.259   1.112 -1.2348 -2.8684 -1.7312
  458MOL0     H60423   6.258   1.241   0.967  1.5436  0.3604  1.9232
  458MOL0     H60424   6.088   1.396   0.854 -2.0809  0.0642 -2.3764
  458MOL0     H60425   5.999   1.398   1.011 -1.6480  0.3319 -2.1416
  458MOL0     H60426   5.966   1.146   0.991 -1.6078  0.1362 -1.2111
  458MOL0     H60427   6.060   1.139   0.844  1.7929  1.1937  1.1203
  458MOL0     H60428   5.810   1.322   0.884 -1.3118 -2.0789  2.2833
  458MOL0     H60429   5.920   1.312   0.740  1.4133 -0.6567 -0.5993
  458MOL0     H60430   5.760   1.066   0.815 -0.1555 -2.6021 -2.5063
  458MOL0     H60431   5.867   1.100   0.681 -0.7163  1.2720 -2.1557
  458MOL0     H60432   5.695   1.298   0.627 -2.3879  0.1796  0.2006
  458MOL0     H60433   5.604   1.243   0.764  0.8810  1.3371 -0.7721
  458MOL0     H60434   5.642   1.056   0.525 -3.7522  0.2444 -2.8917
  458MOL0     H60435   5.551   1.030   0.665 -0.5121  1.4005  0.8636
  458MOL0     H60436   5.484   1.273   0.494  1.8040 -0.7536 -0.1885
  458MOL0     H60437   5.401   1.201   0.636 -0.8351  0.7394  0.4755
  458MOL0     H60438   6.449   1.229   1.063 -1.2316 -1.6165  2.6678
  458MOL0     H60439   6.664   1.254   1.143  2.2687  0.9900 -1.6373
  458MOL0     H60440   6.965   1.626   1.227 -0.3186 -0.7915 -0.5867
  458MOL0     H60441   7.183   1.722   1.334 -2.5029  0.9153  0.5271
  458MOL0     H60442   9.144   1.938   1.823  1.3361  0.7741 -1.0097
  458MOL0     H60443   9.354   2.065   1.784 -1.4982  0.9092 -0.5101
  458MOL0     H60444   9.612   2.399   1.780  0.4455 -2.0245  0.7638
  458MOL0     H60445   9.783   2.592   1.746  0.0619  1.5702  0.2596
  458MOL0     H60446   9.901   2.764   1.775  0.2592 -0.0928  1.2837
  458MOL0     H60447  10.019   2.643   1.759 -1.6242 -2.4167  2.4450
  458MOL0     H60448  10.179   2.774   1.887 -0.1098 -1.4771 -0.2134
  458MOL0     H60449  10.138   2.867   1.742 -2.1293  0.8323 -0.0357
  458MOL0     H60450  10.032   2.926   2.013  0.1201 -1.7523  0.3996
  458MOL0     H60451   9.957   2.984   1.869  0.3470 -0.3409 -0.8627
  458MOL0     H60452  10.190   3.068   1.789  0.0539  0.1117 -0.4971
  458MOL0     H60453  10.137   3.147   1.934 -4.3052 -0.3599 -0.6795
  458MOL0     H60454  10.492   2.991   2.076  1.3798  0.9623 -3.4009
  458MOL0     H60455   9.882   2.533   2.165  1.6435 -0.5424 -0.9576
  458MOL0     H60456   9.702   2.399   2.196 -2.7825 -1.7790 -1.1762
  459MOL0     O60457   5.202   3.225   3.381  0.4850  0.8314  0.0702
  459MOL0     C60458   5.186   3.130   3.307  0.1402  0.9599  0.6670
  459MOL0     O60459   5.065   3.113   3.237  0.1714  0.7073 -0.2560
  459MOL0     C60460   4.965   3.199   3.256 -1.5381 -0.5474  0.2480
  459MOL0     C60461   4.850   3.153   3.324 -0.1598 -0.2741  0.5397
  459MOL0     C60462   4.733   3.226   3.327 -0.9967  0.1791 -0.3794
  459MOL0     C60463   4.735   3.366   3.290 -1.1731  0.4260  0.8139
  459MOL0     O60464   4.641   3.462   3.313 -0.4209 -0.4998 -0.1650
  459MOL0     C60465   4.510   3.416   3.361  0.0355  0.6286  0.3550
  459MOL0     C60466   4.422   3.539   3.371 -0.3616  0.0451 -0.0618
  459MOL0     C60467   4.277   3.504   3.414  0.0778  0.5967 -0.6861
  459MOL0     C60468   4.218   3.643   3.457  1.3174  0.8406 -0.5357
  459MOL0     C60469   4.087   3.617   3.527 -1.0148  0.0083  0.0100
  459MOL0     C60470   4.016   3.749   3.543 -0.0725 -1.0569  0.1968
  459MOL0     C60471   3.883   3.734   3.620  0.4700 -0.5197 -0.7138
  459MOL0     C60472   3.780   3.657   3.542 -0.1315  1.0491  0.2600
  459MOL0     N60473   3.646   3.664   3.597  0.0980 -0.0917  1.1066
  459MOL0     C60474   3.586   3.559   3.662  0.0297  0.1228 -0.1132
  459MOL0     C60475   3.460   3.599   3.691 -1.0249 -0.4155  0.0648
  459MOL0     C60476   3.359   3.518   3.769  0.1788 -1.0532  0.1200
  459MOL0     C60477   3.253   3.465   3.671 -0.3171 -0.6336 -0.9445
  459MOL0     C60478   3.180   3.347   3.736 -0.0284 -0.3756  0.3028
  459MOL0     C60479   3.118   3.266   3.626 -0.0321  0.1227  0.2843
  459MOL0     O60480   3.059   3.142   3.680 -0.1029 -0.4387  0.4533
  459MOL0     C60481   2.945   3.143   3.758 -0.4143 -1.1401  0.8292
  459MOL0     C60482   2.848   3.248   3.775  0.7466  0.5898  0.3654
  459MOL0     C60483   2.733   3.228   3.845 -0.1473 -0.3478 -0.1254
  459MOL0     C60484   2.708   3.108   3.903  0.0630  0.3669  0.0721
  459MOL0     C60485   2.587   3.086   3.991 -0.6974  1.0425 -0.2580
  459MOL0     O60486   2.535   3.203   4.035 -0.3736 -0.2782  0.2426
  459MOL0     C60487   2.406   3.225   4.064 -0.6720  0.6574 -0.7768
  459MOL0     C60488   2.349   3.342   4.008 -0.2330 -0.6814 -0.7057
  459MOL0     C60489   2.217   3.366   4.031  0.3869  0.4533 -0.1620
  459MOL0     C60490   2.134   3.274   4.095 -0.0420 -0.5777  0.6693
  459MOL0     O60491   2.005   3.304   4.115 -0.0200 -0.1525 -0.3133
  459MOL0     C60492   1.976   3.350   4.260 -0.2184 -0.2219  0.5819
  459MOL0     C60493   1.823   3.358   4.297  0.2082 -0.8917 -0.8425
  459MOL0     C60494   1.804   3.449   4.425  0.3566 -0.1223 -0.2738
  459MOL0     C60495   1.660   3.519   4.427 -0.1435 -0.5721  0.3016
  459MOL0     C60496   1.649   3.630   4.533  0.5219  0.6382 -0.2599
  459MOL0     C60497   1.509   3.702   4.499 -1.0258 -0.1728 -0.4513
  459MOL0     C60498   1.470   3.802   4.616  0.0309  0.4043  0.4876
  459MOL0     C60499   1.448   3.743   4.753 -0.1399 -0.7719  0.1693
  459MOL0    Cl60500   1.377   3.581   4.754 -0.2337 -0.1888  0.2751
  459MOL0     C60501   2.188   3.165   4.156 -0.6789  0.1839  0.1431
  459MOL0     C60502   2.326   3.136   4.146  0.2968 -0.3997 -0.4081
  459MOL0     O60503   2.536   2.974   3.994  0.2367 -0.4952  0.0829
  459MOL0     C60504   2.795   3.001   3.887 -0.7750 -0.1740 -0.3658
  459MOL0     C60505   2.908   3.022   3.809  0.1787  0.0394  0.3905
  459MOL0     N60506   3.447   3.733   3.660 -0.2818  0.4445  0.4359
  459MOL0     N60507   3.558   3.773   3.609  0.0142  0.2557  0.5172
  459MOL0     C60508   4.857   3.413   3.226  0.3248  0.5378 -0.7317
  459MOL0     C60509   4.969   3.329   3.209 -0.0460 -0.9291  0.1995
  459MOL0     C60510   5.285   3.022   3.290 -0.0983  0.0621  0.0518
  459MOL0     C60511   5.259   2.911   3.206  0.6538 -0.1588  0.1819
  459MOL0     C60512   5.362   2.819   3.181  0.1685 -0.5353 -0.4410
  459MOL0     C60513   5.490   2.842   3.230 -0.3211 -0.9790 -0.0819
  459MOL0     O60514   5.592   2.761   3.202  0.5149  0.9408  0.6369
  459MOL0     C60515   5.578   2.666   3.098  0.1801 -0.6028  0.2849
  459MOL0     C60516   5.710   2.602   3.075 -0.0839  0.1233  0.3782
  459MOL0     C60517   5.722   2.532   2.945 -0.4224  0.1521  0.5481
  459MOL0     C60518   5.794   2.397   2.941  0.3926  0.2471 -0.1256
  459MOL0     C60519   5.943   2.422   2.941  0.0475 -0.1277 -0.4907
  459MOL0     C60520   6.062   2.448   2.942 -0.1816 -0.1942 -0.6981
  459MOL0     C60521   5.513   2.958   3.301  0.9395 -0.4808 -0.3451
  459MOL0     C60522   5.414   3.051   3.334 -0.9222  0.8704 -0.4258
  459MOL0     H60523   4.841   3.048   3.349 -3.4669  0.1452  1.5228
  459MOL0     H60524   4.643   3.175   3.359 -0.6161 -0.7039 -0.7027
  459MOL0     H60525   4.512   3.363   3.457  2.4571  2.1083  1.2111
  459MOL0     H60526   4.463   3.353   3.285  0.5906 -0.7239  1.0921
  459MOL0     H60527   4.431   3.603   3.283 -0.7571 -0.8261 -0.7567
  459MOL0     H60528   4.465   3.602   3.449 -1.6375  0.3416  0.4231
  459MOL0     H60529   4.279   3.431   3.496  0.7948  1.5115  0.1259
  459MOL0     H60530   4.224   3.467   3.326  0.5864 -0.3073 -0.6307
  459MOL0     H60531   4.276   3.701   3.529 -1.0768  1.1860  1.2434
  459MOL0     H60532   4.195   3.699   3.365 -0.8859 -2.0848 -1.9467
  459MOL0     H60533   4.108   3.572   3.624  1.6110 -0.9893 -0.9153
  459MOL0     H60534   4.018   3.550   3.474 -0.9511 -0.4098  0.4509
  459MOL0     H60535   3.982   3.799   3.451  0.3453  0.4678  0.8430
  459MOL0     H60536   4.082   3.814   3.601  0.9540 -1.7564 -0.1625
  459MOL0     H60537   3.901   3.687   3.717 -1.2052  1.6015  0.7263
  459MOL0     H60538   3.855   3.837   3.641  1.3781 -0.3880 -0.0772
  459MOL0     H60539   3.812   3.553   3.533 -0.8613  0.7684  0.7780
  459MOL0     H60540   3.783   3.702   3.442 -0.2787  2.8929  1.0438
  459MOL0     H60541   3.629   3.461   3.683 -1.1231 -0.8491 -1.9718
  459MOL0     H60542   3.312   3.572   3.853  0.4038 -1.7624  0.7125
  459MOL0     H60543   3.415   3.433   3.809  0.6028 -1.0797 -0.5189
  459MOL0     H60544   3.296   3.440   3.573 -2.3101 -0.7651 -1.8423
  459MOL0     H60545   3.177   3.542   3.657 -2.2997 -2.0516  1.2537
  459MOL0     H60546   3.255   3.291   3.792  0.5636  0.0224 -0.0889
  459MOL0     H60547   3.098   3.384   3.798  0.5308  1.4929  0.0038
  459MOL0     H60548   3.190   3.229   3.552  2.9904  0.9322  2.6275
  459MOL0     H60549   3.041   3.327   3.579 -0.8179 -0.3566  0.9294
  459MOL0     H60550   2.858   3.345   3.725  1.4245  0.5948  0.5148
  459MOL0     H60551   2.657   3.306   3.848  0.3608  0.2183 -1.1877
  459MOL0     H60552   2.403   3.413   3.947 -2.1979  0.0488 -1.6739
  459MOL0     H60553   2.169   3.454   3.989 -1.5598  0.6741  2.3267
  459MOL0     H60554   2.022   3.449   4.265  1.6459 -1.0906  1.8300
  459MOL0     H60555   2.035   3.286   4.327  0.6272 -0.4326 -0.3309
  459MOL0     H60556   1.786   3.258   4.323 -2.2670  0.3775  0.8253
  459MOL0     H60557   1.772   3.398   4.209 -0.6088  2.3303  0.9585
  459MOL0     H60558   1.872   3.534   4.413 -0.6897  1.1168  1.9158
  459MOL0     H60559   1.823   3.391   4.516  3.3948 -0.2602 -0.8941
  459MOL0     H60560   1.632   3.567   4.333 -0.4056  0.4214  0.8631
  459MOL0     H60561   1.578   3.448   4.440  0.3073 -1.6120 -2.1903
  459MOL0     H60562   1.725   3.709   4.530  0.2361  0.9655  0.7026
  459MOL0     H60563   1.655   3.587   4.634  0.0405 -0.9148 -0.8735
  459MOL0     H60564   1.431   3.632   4.467 -0.3486  0.3950 -3.8082
  459MOL0     H60565   1.515   3.776   4.418 -3.6732 -0.9879 -1.4912
  459MOL0     H60566   1.546   3.880   4.626 -1.4359  1.7690  1.5673
  459MOL0     H60567   1.374   3.846   4.586  0.1993 -0.3658 -1.3006
  459MOL0     H60568   1.375   3.804   4.808 -1.4926 -2.7943  0.7084
  459MOL0     H60569   1.545   3.740   4.804 -0.4281 -0.0585  0.7810
  459MOL0     H60570   2.120   3.097   4.207 -0.1012 -0.0343  0.6324
  459MOL0     H60571   2.374   3.043   4.177  0.4592  0.0508  0.7055
  459MOL0     H60572   2.773   2.904   3.929 -0.6089 -1.1236 -2.3597
  459MOL0     H60573   2.963   2.930   3.797  0.6520  0.4758 -1.0856
  459MOL0     H60574   4.870   3.517   3.200  0.0395  1.5116  2.6431
  459MOL0     H60575   5.056   3.379   3.168  0.2398  0.4415  2.3377
  459MOL0     H60576   5.163   2.897   3.159  0.7144  0.1396 -0.0339
  459MOL0     H60577   5.337   2.731   3.121  1.4070 -0.2149 -1.4728
  459MOL0     H60578   5.535   2.707   3.006 -0.4885 -1.0593  0.3901
  459MOL0     H60579   5.503   2.591   3.123 -0.0760 -0.8256 -1.0409
  459MOL0     H60580   5.794   2.672   3.073  0.3461 -0.2848 -3.4636
  459MOL0     H60581   5.720   2.534   3.161  1.0148  0.8574  0.8551
  459MOL0     H60582   5.775   2.598   2.876 -0.6991 -1.9832 -1.8625
  459MOL0     H60583   5.621   2.521   2.904  0.6338 -1.2055 -1.9619
  459MOL0     H60584   5.766   2.339   3.030  0.4262 -0.3479 -0.4934
  459MOL0     H60585   5.775   2.337   2.851 -0.0493 -0.1839  0.2457
  459MOL0     H60586   6.163   2.481   2.937 -1.0992  3.0895  0.2491
  459MOL0     H60587   5.614   2.978   3.335  0.4233 -1.5550  2.0279
  459MOL0     H60588   5.448   3.136   3.392  4.7469 -0.1930 -1.6099
  460MOL0     O60589   6.030  11.121   6.289 -0.5568  0.1904 -0.3853
  460MOL0     C60590   6.124  11.167   6.230  0.4594 -0.5206  0.7255
  460MOL0     O60591   6.124  11.210   6.099 -0.0232 -0.1853 -0.0120
  460MOL0     C60592   6.000  11.205   6.029 -0.5721  0.0914 -1.5088
  460MOL0     C60593   5.988  11.132   5.913  0.9308  0.1918  0.0500
  460MOL0     C60594   5.868  11.136   5.834  0.2280  0.3704 -0.0317
  460MOL0     C60595   5.757  11.208   5.880 -0.5396 -0.3679 -0.8018
  460MOL0     O60596   5.635  11.193   5.809 -0.2366 -0.1522  0.7689
  460MOL0     C60597   5.526  11.261   5.861  0.5213  0.0953  0.2744
  460MOL0     C60598   5.409  11.219   5.781  0.6194  0.1506 -0.0547
  460MOL0     C60599   5.279  11.297   5.833  0.2646 -0.3204  0.0905
  460MOL0     C60600   5.258  11.431   5.766 -0.6884  0.0775  0.0421
  460MOL0     C60601   5.125  11.479   5.819  0.8357  0.1700  0.3691
  460MOL0     C60602   5.070  11.590   5.735 -1.0023 -0.3739  0.6091
  460MOL0     C60603   4.930  11.649   5.783 -0.3957 -0.4546  0.5032
  460MOL0     C60604   4.888  11.785   5.725  0.0932 -1.0601 -0.0940
  460MOL0     N60605   4.856  11.771   5.579 -0.7843  0.5604  0.2697
  460MOL0     C60606   4.744  11.814   5.513 -0.3312 -0.1284 -0.5724
  460MOL0     C60607   4.768  11.801   5.377 -0.0675 -0.0804 -0.1795
  460MOL0     C60608   4.693  11.849   5.252 -0.0250 -0.0323 -0.3704
  460MOL0     C60609   4.608  11.737   5.177  0.6712  0.0299  0.0119
  460MOL0     C60610   4.458  11.734   5.224 -0.2781 -0.4592 -0.3991
  460MOL0     C60611   4.376  11.853   5.179 -0.2204  0.1088 -0.8055
  460MOL0     O60612   4.243  11.824   5.216 -0.2011 -0.1793  0.8959
  460MOL0     C60613   4.145  11.893   5.161 -0.0733 -0.1396 -0.4328
  460MOL0     C60614   4.018  11.844   5.173 -0.4514 -0.0825 -0.2095
  460MOL0     C60615   3.911  11.915   5.127  0.0326  0.2095  0.3361
  460MOL0     C60616   3.927  12.041   5.060  0.2161  0.3700 -0.4009
  460MOL0     C60617   3.803  12.103   5.003  0.2472 -0.4672  0.0861
  460MOL0     O60618   3.812  12.232   4.966  0.0336  0.1280 -0.2439
  460MOL0     C60619   3.697  12.293   4.916 -0.4964  0.7455 -0.0140
  460MOL0     C60620   3.637  12.275   4.792 -0.2931 -0.1759  1.2812
  460MOL0     C60621   3.522  12.348   4.756  0.3532  0.0465  1.0500
  460MOL0     C60622   3.466  12.440   4.841  0.6835 -0.6917 -0.1844
  460MOL0     O60623   3.343  12.493   4.813 -0.1464  0.1651  1.0162
  460MOL0     C60624   3.302  12.613   4.874  0.3994 -0.3394  0.1115
  460MOL0     C60625   3.181  12.679   4.810 -0.6028 -0.1560 -0.0396
  460MOL0     C60626   3.050  12.608   4.822  0.0371  0.1296  0.3159
  460MOL0     C60627   2.931  12.680   4.763 -0.6025 -0.0195  0.0155
  460MOL0     C60628   2.790  12.617   4.778  0.2412  0.3450  0.3181
  460MOL0     C60629   2.684  12.705   4.726  1.3663  0.5797 -0.1618
  460MOL0     C60630   2.651  12.826   4.819 -0.7990 -0.0652  0.1508
  460MOL0     C60631   2.497  12.852   4.812 -0.4709 -0.0105  0.0289
  460MOL0    Cl60632   2.433  12.909   4.654 -0.4046  0.2334  0.6592
  460MOL0     C60633   3.522  12.461   4.965  0.5331 -0.8791  1.1700
  460MOL0     C60634   3.630  12.388   4.997 -0.7150 -0.4818  0.3308
  460MOL0     O60635   3.708  12.035   4.980  0.1533 -0.0258  0.0025
  460MOL0     C60636   4.049  12.086   5.038 -0.0484 -0.2003  0.5631
  460MOL0     C60637   4.161  12.021   5.097 -0.5482 -0.2557 -0.0089
  460MOL0     N60638   4.893  11.734   5.369 -0.3110 -0.3447 -0.2627
  460MOL0     N60639   4.943  11.719   5.487  0.3390  0.2659  0.8922
  460MOL0     C60640   5.772  11.273   6.003 -0.6600 -0.1322  0.2519
  460MOL0     C60641   5.894  11.278   6.068 -0.1344 -0.0433  0.4632
  460MOL0     C60642   6.253  11.171   6.306  0.8083 -0.5614  0.2808
  460MOL0     C60643   6.279  11.095   6.422  0.1992  0.3197  0.3489
  460MOL0     C60644   6.394  11.108   6.500 -0.1161 -0.3247 -0.6721
  460MOL0     C60645   6.489  11.204   6.471 -0.4439  0.0790  0.5211
  460MOL0     O60646   6.602  11.202   6.536  0.3673 -0.0129 -0.2170
  460MOL0     C60647   6.694  11.305   6.509 -0.0100  0.1679  0.2752
  460MOL0     C60648   6.819  11.293   6.599 -0.3116 -0.1161  0.1550
  460MOL0     C60649   6.906  11.178   6.565 -0.2366 -0.8700  0.8793
  460MOL0     C60650   7.043  11.186   6.636  0.0860 -0.7699 -0.2516
  460MOL0     C60651   7.110  11.051   6.629  0.3765 -0.5042 -0.1165
  460MOL0     C60652   7.161  10.943   6.613 -0.2152 -0.7246  0.0040
  460MOL0     C60653   6.457  11.286   6.364  0.5053  1.2491  0.4005
  460MOL0     C60654   6.343  11.269   6.284  0.0396  0.2329 -0.1176
  460MOL0     H60655   6.071  11.074   5.874  2.5261  2.1603  0.3831
  460MOL0     H60656   5.876  11.084   5.739 -1.1214 -0.0050  0.0379
  460MOL0     H60657   5.538  11.370   5.869 -2.8574  0.4910  1.5709
  460MOL0     H60658   5.508  11.219   5.960  1.8412 -1.1523  0.0134
  460MOL0     H60659   5.391  11.112   5.789  0.7946  0.2172  1.4333
  460MOL0     H60660   5.427  11.255   5.679 -4.0451 -0.3548 -1.2667
  460MOL0     H60661   5.281  11.312   5.941  0.4532 -1.7719  0.3055
  460MOL0     H60662   5.195  11.232   5.808 -0.1534  0.2828 -0.0969
  460MOL0     H60663   5.346  11.495   5.782  1.1277 -2.2637  0.0772
  460MOL0     H60664   5.253  11.406   5.660  3.2468  0.0126 -0.2859
  460MOL0     H60665   5.145  11.509   5.922  1.5921  0.0284  0.2755
  460MOL0     H60666   5.048  11.402   5.832  0.4907  0.4544 -0.0080
  460MOL0     H60667   5.066  11.570   5.628 -0.8883  2.3959  0.0157
  460MOL0     H60668   5.146  11.668   5.733 -0.0462 -1.2893 -0.0590
  460MOL0     H60669   4.848  11.579   5.763 -1.0713  0.6907 -0.9224
  460MOL0     H60670   4.936  11.660   5.891 -0.7097  0.4432  0.4380
  460MOL0     H60671   4.974  11.852   5.731 -2.7875  2.8147  1.4902
  460MOL0     H60672   4.804  11.828   5.779  2.2489 -0.4116  3.0323
  460MOL0     H60673   4.661  11.869   5.557 -2.9906 -3.7569 -0.6100
  460MOL0     H60674   4.765  11.886   5.179 -1.0767 -2.3195 -2.7366
  460MOL0     H60675   4.637  11.940   5.275 -0.2795 -0.7550  2.3078
  460MOL0     H60676   4.633  11.635   5.207 -1.2267  0.6498  4.6118
  460MOL0     H60677   4.608  11.749   5.068  0.8079 -2.0090 -0.2492
  460MOL0     H60678   4.401  11.646   5.195 -2.3161  0.2500  1.1942
  460MOL0     H60679   4.471  11.742   5.333  0.6804  0.4478 -0.5597
  460MOL0     H60680   4.376  11.861   5.070 -1.9934 -0.8094 -0.9040
  460MOL0     H60681   4.394  11.950   5.227 -2.9948 -0.1734  1.0616
  460MOL0     H60682   4.006  11.746   5.218  1.2196 -0.1765  0.0924
  460MOL0     H60683   3.812  11.871   5.135 -0.2379 -0.5848 -4.3366
  460MOL0     H60684   3.675  12.199   4.725  0.9752  0.0651  1.7113
  460MOL0     H60685   3.464  12.321   4.669 -0.5899  2.8002  0.7211
  460MOL0     H60686   3.393  12.674   4.863 -1.0242  1.9392  0.3194
  460MOL0     H60687   3.271  12.592   4.977 -2.6873 -1.6641 -0.9729
  460MOL0     H60688   3.218  12.683   4.707  1.8752 -2.6594  0.6377
  460MOL0     H60689   3.183  12.782   4.848  2.9238 -0.5153  1.0867
  460MOL0     H60690   3.038  12.595   4.930  0.4588  2.0442  0.6325
  460MOL0     H60691   3.077  12.515   4.770  1.1443  0.7504 -0.2664
  460MOL0     H60692   2.919  12.779   4.809 -0.1725 -0.1884  0.5008
  460MOL0     H60693   2.952  12.699   4.658  1.6993  3.5700  0.9513
  460MOL0     H60694   2.759  12.598   4.881 -2.5894  0.5004 -0.4189
  460MOL0     H60695   2.800  12.521   4.725  0.0190 -0.1402  1.1317
  460MOL0     H60696   2.594  12.643   4.714  1.6656 -0.5292  2.5671
  460MOL0     H60697   2.697  12.753   4.628  0.7040  2.1547  0.4936
  460MOL0     H60698   2.682  12.819   4.923 -0.4891  0.5522  0.1052
  460MOL0     H60699   2.707  12.912   4.783 -3.3380  2.2278  1.3092
  460MOL0     H60700   2.479  12.935   4.882 -0.0220 -1.5183  2.0249
  460MOL0     H60701   2.448  12.769   4.864  1.1677 -0.4987  0.8382
  460MOL0     H60702   3.480  12.533   5.035 -0.7176  1.0277 -1.3744
  460MOL0     H60703   3.682  12.404   5.091  1.3611  1.3949 -1.0341
  460MOL0     H60704   4.071  12.171   4.973 -0.4186 -1.0526 -0.7132
  460MOL0     H60705   4.258  12.067   5.081 -1.5316  1.5699 -1.0515
  460MOL0     H60706   5.692  11.330   6.049 -3.1501 -2.5024 -0.8668
  460MOL0     H60707   5.897  11.349   6.151  1.2351  2.0993 -1.3178
  460MOL0     H60708   6.220  11.010   6.454  2.1112 -1.1561  0.1088
  460MOL0     H60709   6.406  11.048   6.589  0.1920 -0.4040 -0.7671
  460MOL0     H60710   6.651  11.403   6.533  0.1670  0.0637  1.0235
  460MOL0     H60711   6.719  11.300   6.402 -1.4330 -0.8660 -0.0418
  460MOL0     H60712   6.878  11.385   6.593 -0.8225  0.3246  1.5328
  460MOL0     H60713   6.783  11.280   6.701  1.8789 -1.5867  0.8200
  460MOL0     H60714   6.909  11.184   6.456 -1.3619 -0.1735  0.8739
  460MOL0     H60715   6.865  11.080   6.590  3.5381 -2.5912  0.9898
  460MOL0     H60716   7.101  11.266   6.589 -4.5468  2.1332 -1.7289
  460MOL0     H60717   7.027  11.217   6.740 -2.6799  2.6932 -1.4770
  460MOL0     H60718   7.220  10.855   6.596 -0.4368 -0.5777 -1.6138
  460MOL0     H60719   6.523  11.364   6.328  2.3351 -1.8137 -3.6820
  460MOL0     H60720   6.329  11.345   6.207  1.1079 -2.8410 -3.6730
  461MOL0     O60721   3.879   7.970   1.784  0.1543 -0.2096  0.1285
  461MOL0     C60722   3.924   7.903   1.689 -0.0625 -0.4339 -0.4453
  461MOL0     O60723   3.860   7.879   1.569  0.2605 -0.2577 -0.2343
  461MOL0     C60724   3.743   7.953   1.556  0.5698 -0.2821  0.5696
  461MOL0     C60725   3.754   8.078   1.500 -0.9119 -0.3089 -0.1592
  461MOL0     C60726   3.643   8.154   1.463 -1.0733 -0.0972 -0.1650
  461MOL0     C60727   3.512   8.099   1.486 -0.2698 -0.1351  0.6774
  461MOL0     O60728   3.398   8.170   1.440 -0.1730  0.1475 -0.2564
  461MOL0     C60729   3.290   8.097   1.381 -0.0728  0.4018 -0.0092
  461MOL0     C60730   3.171   8.076   1.474 -0.2053 -0.1621 -0.1349
  461MOL0     C60731   3.059   7.984   1.424 -0.1142  0.5287  0.0914
  461MOL0     C60732   2.925   7.997   1.498  0.8420  0.3030  0.0508
  461MOL0     C60733   2.818   7.934   1.414  0.8754  0.0154 -0.2879
  461MOL0     C60734   2.681   7.951   1.480 -0.7973 -0.9267  0.1590
  461MOL0     C60735   2.567   7.897   1.402 -0.3002  0.8415 -0.1928
  461MOL0     C60736   2.549   7.960   1.262  0.0233 -0.3936 -0.3091
  461MOL0     N60737   2.411   7.922   1.218 -0.0447  0.5256 -0.7644
  461MOL0     C60738   2.305   7.990   1.260  0.0343  0.4260 -0.1030
  461MOL0     C60739   2.202   7.956   1.182  0.3926  0.3482 -0.1141
  461MOL0     C60740   2.065   8.023   1.179 -0.5452  0.0232  0.4860
  461MOL0     C60741   1.968   7.929   1.260 -0.0821 -0.1931  0.7753
  461MOL0     C60742   1.827   7.984   1.244 -0.7527  0.4455  0.1952
  461MOL0     C60743   1.725   7.927   1.349 -0.5719  0.2286  0.2217
  461MOL0     O60744   1.619   8.013   1.373 -0.5346 -0.6672  0.8933
  461MOL0     C60745   1.636   8.136   1.442 -0.8044  0.1293 -0.0164
  461MOL0     C60746   1.755   8.196   1.491  0.1397 -0.0274 -0.4747
  461MOL0     C60747   1.742   8.326   1.552  0.0756  0.2931 -0.8126
  461MOL0     C60748   1.620   8.393   1.557 -0.3459 -0.3468 -0.8850
  461MOL0     C60749   1.610   8.529   1.610  0.2371  0.7161 -0.0982
  461MOL0     O60750   1.491   8.578   1.642 -0.1149  0.2664 -0.4961
  461MOL0     C60751   1.487   8.699   1.693  0.1730  1.1576  0.5337
  461MOL0     C60752   1.509   8.811   1.614 -0.5265  0.3994  1.1376
  461MOL0     C60753   1.515   8.937   1.668  0.2620  0.2844 -0.0939
  461MOL0     C60754   1.489   8.959   1.803  0.5974  0.3297  0.4320
  461MOL0     O60755   1.510   9.082   1.862  0.2780 -0.5699 -0.3810
  461MOL0     C60756   1.578   9.186   1.796 -0.6190 -0.1358  0.7313
  461MOL0     C60757   1.621   9.303   1.887  0.2839 -0.5130 -0.6893
  461MOL0     C60758   1.696   9.405   1.808  0.5291 -0.0751  0.0175
  461MOL0     C60759   1.748   9.527   1.889  0.2331  0.0082 -0.1767
  461MOL0     C60760   1.833   9.625   1.803 -0.6800 -0.1241  0.5504
  461MOL0     C60761   1.830   9.767   1.856  1.0738 -0.8666  0.1555
  461MOL0     C60762   1.907   9.767   1.979 -0.7991 -0.0360 -0.4617
  461MOL0     C60763   1.915   9.909   2.035  0.1659  0.2933  0.2318
  461MOL0    Cl60764   1.959   9.911   2.202  0.5169  0.1953 -0.0835
  461MOL0     C60765   1.454   8.852   1.874 -0.2446  1.4155  0.1853
  461MOL0     C60766   1.450   8.719   1.827 -0.6859 -0.3377 -0.5309
  461MOL0     O60767   1.711   8.594   1.617  0.5566 -0.1786 -0.2164
  461MOL0     C60768   1.505   8.326   1.522  0.2068  0.7179 -0.1002
  461MOL0     C60769   1.515   8.202   1.460  0.0422  0.3170  0.6868
  461MOL0     N60770   2.253   7.855   1.102  1.2679  0.1501 -0.0233
  461MOL0     N60771   2.378   7.837   1.115 -0.1441  0.0378 -0.4365
  461MOL0     C60772   3.501   7.971   1.542 -0.3380 -0.1436  0.3266
  461MOL0     C60773   3.618   7.900   1.573  0.2306 -0.2489  0.4869
  461MOL0     C60774   4.049   7.829   1.706 -0.3103  0.9782 -0.4767
  461MOL0     C60775   4.103   7.750   1.592 -1.2203  0.3356 -0.5153
  461MOL0     C60776   4.222   7.676   1.618  0.5952  0.0595 -0.3872
  461MOL0     C60777   4.285   7.681   1.746  0.0433  0.1570 -0.1431
  461MOL0     O60778   4.398   7.612   1.778 -0.3599 -0.2508  0.4274
  461MOL0     C60779   4.503   7.632   1.678 -0.1891 -0.1178  0.2000
  461MOL0     C60780   4.640   7.588   1.718  0.3053 -0.1251 -0.1691
  461MOL0     C60781   4.737   7.626   1.609 -0.1852  0.0162  0.2772
  461MOL0     C60782   4.787   7.505   1.530  0.0694 -0.3812 -0.4905
  461MOL0     C60783   4.856   7.534   1.408 -0.2555 -0.1593 -0.7098
  461MOL0     C60784   4.923   7.563   1.314  0.8555 -0.2807  0.3605
  461MOL0     C60785   4.232   7.756   1.855  0.2799 -0.3910 -0.5902
  461MOL0     C60786   4.113   7.827   1.833 -0.0970 -0.7477  0.4628
  461MOL0     H60787   3.852   8.116   1.476 -1.2302 -0.1389 -1.2163
  461MOL0     H60788   3.654   8.249   1.412  1.1008 -0.6637 -0.8691
  461MOL0     H60789   3.315   8.000   1.337 -0.1573  0.6090 -0.5182
  461MOL0     H60790   3.252   8.146   1.291 -1.0171  3.1503  1.7335
  461MOL0     H60791   3.146   8.179   1.502 -0.3177 -0.7446  2.1075
  461MOL0     H60792   3.211   8.024   1.562 -1.6046  1.5796  1.6368
  461MOL0     H60793   3.102   7.884   1.411  1.9462  1.5556 -1.5549
  461MOL0     H60794   3.037   8.015   1.322  0.1385 -3.6009 -1.3978
  461MOL0     H60795   2.950   7.946   1.592  0.5035 -0.9833 -0.5352
  461MOL0     H60796   2.899   8.102   1.515  1.3778  0.3622  0.5551
  461MOL0     H60797   2.849   7.830   1.396 -1.9383 -0.5948 -2.2331
  461MOL0     H60798   2.828   7.989   1.321  2.9854 -0.5434 -0.4456
  461MOL0     H60799   2.654   8.052   1.513 -0.6010  0.1139 -2.6201
  461MOL0     H60800   2.693   7.884   1.566  0.5684 -0.9797 -0.0566
  461MOL0     H60801   2.567   7.788   1.404 -0.8440  0.8112  2.8780
  461MOL0     H60802   2.476   7.914   1.461  0.5962  1.3654  1.0819
  461MOL0     H60803   2.623   7.931   1.187  1.6901 -0.3314  1.2415
  461MOL0     H60804   2.547   8.068   1.274 -2.2717 -0.5620  1.4987
  461MOL0     H60805   2.311   8.067   1.336  1.3250 -0.5500  0.8361
  461MOL0     H60806   2.035   8.034   1.075  0.9094  0.8545  0.1306
  461MOL0     H60807   2.065   8.121   1.229  1.2105  1.1089 -1.5110
  461MOL0     H60808   1.993   7.922   1.366 -0.6959 -2.4131  0.8210
  461MOL0     H60809   1.972   7.825   1.224 -0.1815  0.7443 -2.2377
  461MOL0     H60810   1.833   8.093   1.248 -1.8030  0.5424 -0.3167
  461MOL0     H60811   1.784   7.952   1.148 -1.7547 -2.1498  1.3913
  461MOL0     H60812   1.771   7.904   1.445 -1.9509 -1.2025  0.5762
  461MOL0     H60813   1.683   7.835   1.308  0.4464  0.1446 -0.6919
  461MOL0     H60814   1.854   8.150   1.484  0.0500 -0.2224 -0.4783
  461MOL0     H60815   1.822   8.389   1.590 -0.4955  0.3128  0.4094
  461MOL0     H60816   1.532   8.791   1.510  1.0065 -1.3073  1.7532
  461MOL0     H60817   1.526   9.019   1.598  1.4941  0.4775  0.3072
  461MOL0     H60818   1.504   9.210   1.720 -2.2448 -1.2905  1.8836
  461MOL0     H60819   1.666   9.148   1.742 -1.3743  1.1180 -1.4964
  461MOL0     H60820   1.680   9.263   1.970  0.7705  0.5644 -0.4956
  461MOL0     H60821   1.538   9.365   1.920  0.0154  0.5431 -3.0910
  461MOL0     H60822   1.627   9.440   1.731  0.0947 -4.2414 -1.7500
  461MOL0     H60823   1.788   9.369   1.763  1.9724  2.0788  1.0456
  461MOL0     H60824   1.662   9.580   1.932 -0.7356 -0.3871 -1.5732
  461MOL0     H60825   1.798   9.484   1.977 -2.2015 -1.1796  0.7308
  461MOL0     H60826   1.799   9.618   1.699 -3.0383  1.0408  1.1768
  461MOL0     H60827   1.934   9.584   1.810 -1.0262 -1.1086  0.0158
  461MOL0     H60828   1.725   9.795   1.867  0.8042 -0.5313 -2.5565
  461MOL0     H60829   1.874   9.840   1.788 -0.0478 -0.3061  0.0031
  461MOL0     H60830   1.879   9.701   2.062  3.7535  0.5931  1.9393
  461MOL0     H60831   2.010   9.736   1.960 -1.2805 -1.0097 -1.5567
  461MOL0     H60832   1.823   9.966   2.019  1.6236  2.6814 -0.1545
  461MOL0     H60833   1.992   9.963   1.978 -0.4642  0.4853 -0.4603
  461MOL0     H60834   1.440   8.872   1.979  2.2111  2.4076  0.3912
  461MOL0     H60835   1.413   8.632   1.881  2.4001  0.1585  2.7960
  461MOL0     H60836   1.406   8.372   1.526 -0.2157 -0.1214 -0.6043
  461MOL0     H60837   1.433   8.158   1.405  0.8459  0.0228 -0.3169
  461MOL0     H60838   3.403   7.931   1.566 -1.1704  1.0505 -0.8872
  461MOL0     H60839   3.611   7.799   1.612  2.8932 -1.1654 -1.0924
  461MOL0     H60840   4.047   7.739   1.500  1.3145 -1.3002 -1.9871
  461MOL0     H60841   4.270   7.606   1.550 -0.8921 -1.4323  0.0362
  461MOL0     H60842   4.502   7.737   1.647  0.9910 -0.0966  0.1674
  461MOL0     H60843   4.462   7.584   1.589  0.3020 -0.1652 -0.0059
  461MOL0     H60844   4.670   7.633   1.813 -0.1857  1.7043 -0.8532
  461MOL0     H60845   4.643   7.479   1.728 -1.8022 -0.3355 -1.1293
  461MOL0     H60846   4.824   7.677   1.652 -0.7406  1.8829 -0.6982
  461MOL0     H60847   4.704   7.698   1.534 -0.9182 -0.5160  0.0790
  461MOL0     H60848   4.849   7.448   1.600  0.4160  2.2513  1.5284
  461MOL0     H60849   4.698   7.446   1.506  0.5644 -1.2258 -0.2562
  461MOL0     H60850   4.975   7.587   1.224 -0.4444  1.1951 -0.0552
  461MOL0     H60851   4.280   7.764   1.953  1.1070  3.3264 -1.1219
  461MOL0     H60852   4.068   7.877   1.918  0.2548 -1.0459  0.8265
  462MOL0     O60853  10.212   4.879   9.892 -0.1586 -0.1189 -0.0214
  462MOL0     C60854  10.117   4.858   9.967 -0.0870 -0.2720  0.3238
  462MOL0     O60855  10.080   4.737  10.026 -0.6706  0.4578  0.4373
  462MOL0     C60856  10.144   4.626   9.978  0.3635 -0.0248 -0.3916
  462MOL0     C60857  10.204   4.539  10.072  0.4038 -0.1609 -0.4516
  462MOL0     C60858  10.242   4.416  10.030  0.4004  0.3237  0.0442
  462MOL0     C60859  10.228   4.375   9.898  0.1262 -0.9284  1.0056
  462MOL0     O60860  10.274   4.253   9.858 -0.5315 -0.1851 -0.0689
  462MOL0     C60861  10.268   4.202   9.725  0.2436 -0.5997  0.8947
  462MOL0     C60862  10.280   4.056   9.732  0.2076  0.3556  0.8866
  462MOL0     C60863  10.155   3.979   9.783 -0.4776 -0.7682 -0.1185
  462MOL0     C60864  10.185   3.856   9.869 -0.4229  0.4149  1.0569
  462MOL0     C60865  10.053   3.780   9.906 -0.8730 -0.1796  0.7537
  462MOL0     C60866  10.069   3.627   9.918  0.1311  1.0097  0.6536
  462MOL0     C60867  10.140   3.584  10.044 -0.4323  0.3129 -0.4907
  462MOL0     C60868  10.161   3.435  10.071  0.0194 -0.6227  0.7211
  462MOL0     N60869  10.032   3.376  10.111 -0.0313 -0.3052  0.1494
  462MOL0     C60870   9.973   3.374  10.232 -0.3046  0.3757  0.8543
  462MOL0     C60871   9.853   3.313  10.217 -0.3193  1.1167 -0.2123
  462MOL0     C60872   9.766   3.288  10.343 -0.2086  0.1097  0.1622
  462MOL0     C60873   9.667   3.174  10.319 -0.3252 -0.4295  0.2925
  462MOL0     C60874   9.602   3.120  10.448  0.4139  0.3310 -0.8811
  462MOL0     C60875   9.487   3.033  10.408  0.3819 -0.0117  1.3177
  462MOL0     O60876   9.451   2.936  10.504 -0.2000 -0.1874  0.2189
  462MOL0     C60877   9.353   2.965  10.600  0.0011  0.6658  0.1117
  462MOL0     C60878   9.279   3.087  10.610  0.2365 -0.2957  0.9997
  462MOL0     C60879   9.180   3.102  10.704  0.3326  0.6500 -0.2181
  462MOL0     C60880   9.160   3.006  10.802 -0.3294 -0.5981 -0.4248
  462MOL0     C60881   9.055   3.028  10.912  0.3975  0.6930  0.3968
  462MOL0     O60882   9.016   2.912  10.976 -0.4372 -0.3680  0.4444
  462MOL0     C60883   8.927   2.920  11.081  0.0280  0.4826 -0.4252
  462MOL0     C60884   8.820   3.006  11.085  0.5042 -0.1422 -0.2576
  462MOL0     C60885   8.732   3.006  11.200  0.3431 -0.2361  0.7681
  462MOL0     C60886   8.768   2.928  11.314  0.7832  0.0979  0.6538
  462MOL0     O60887   8.698   2.934  11.433 -0.0637  0.6945  0.2981
  462MOL0     C60888   8.558   2.915  11.421 -0.2414  0.0511  0.4009
  462MOL0     C60889   8.503   2.888  11.565  0.3408 -0.5914  0.0095
  462MOL0     C60890   8.353   2.859  11.572 -0.2527  0.4148 -0.3495
  462MOL0     C60891   8.323   2.853  11.719  0.1832  0.3412  0.1976
  462MOL0     C60892   8.182   2.899  11.744 -0.2998  0.0225 -0.3871
  462MOL0     C60893   8.114   2.882  11.877 -0.1327  0.0186 -1.1633
  462MOL0     C60894   8.095   2.746  11.924 -0.1015 -0.0642 -1.4196
  462MOL0     C60895   8.012   2.744  12.061  0.3042  0.1869 -0.1401
  462MOL0    Cl60896   8.112   2.769  12.203 -0.1352  0.1920  0.1644
  462MOL0     C60897   8.880   2.842  11.311 -0.3726 -0.3303  0.5647
  462MOL0     C60898   8.968   2.845  11.196 -0.1496  0.7445  0.0888
  462MOL0     O60899   9.025   3.143  10.939  0.1355 -0.3600 -0.2485
  462MOL0     C60900   9.228   2.888  10.794 -0.6022  0.3010 -0.3207
  462MOL0     C60901   9.328   2.871  10.695  0.7927  1.0552  0.4978
  462MOL0     N60902   9.845   3.270  10.083  0.1267 -0.3000 -0.2455
  462MOL0     N60903   9.952   3.310  10.017  0.6828  0.7809  0.1336
  462MOL0     C60904  10.173   4.466   9.808 -0.1890 -0.7977  0.8409
  462MOL0     C60905  10.133   4.592   9.841 -0.5736 -0.3567  0.1532
  462MOL0     C60906  10.048   4.974  10.020 -0.3803 -0.2604 -0.6388
  462MOL0     C60907  10.080   5.104   9.974 -0.0489 -0.3007  0.0574
  462MOL0     C60908  10.008   5.214  10.014  0.4913 -1.4365 -0.4908
  462MOL0     C60909   9.911   5.207  10.124 -0.4836  0.2011  0.4911
  462MOL0     O60910   9.836   5.316  10.169  0.2003  0.1300  0.1068
  462MOL0     C60911   9.827   5.442  10.095  0.0301  0.0456 -0.3289
  462MOL0     C60912   9.741   5.546  10.167 -0.8241  0.3605  0.6607
  462MOL0     C60913   9.599   5.515  10.159  0.1656  0.3951  0.4805
  462MOL0     C60914   9.515   5.596  10.257 -0.2501  0.6086 -0.0196
  462MOL0     C60915   9.567   5.603  10.397  0.6085 -0.0845 -0.0310
  462MOL0     C60916   9.605   5.609  10.512  0.7153 -0.3823  0.1273
  462MOL0     C60917   9.879   5.077  10.168  0.7030  0.3761  0.4482
  462MOL0     C60918   9.942   4.966  10.114 -0.1989  0.4697  0.1562
  462MOL0     H60919  10.225   4.558  10.177  4.3428  0.3348 -1.1607
  462MOL0     H60920  10.293   4.350  10.100  0.4867 -0.7977 -1.0250
  462MOL0     H60921  10.350   4.246   9.667  0.0272 -0.2336  0.8604
  462MOL0     H60922  10.179   4.226   9.667  0.0010  0.9859  1.8620
  462MOL0     H60923  10.368   4.024   9.788  0.4876  1.9242  1.4014
  462MOL0     H60924  10.298   4.032   9.627  2.7939 -2.2184  1.7985
  462MOL0     H60925  10.095   3.945   9.697  2.2660 -0.4370 -2.3135
  462MOL0     H60926  10.091   4.040   9.848 -0.5840  0.3431 -1.2213
  462MOL0     H60927  10.238   3.787   9.803 -2.0391  0.5550 -0.4737
  462MOL0     H60928  10.238   3.877   9.962 -1.1322 -0.2403  1.6226
  462MOL0     H60929   9.978   3.789   9.827 -1.3892  0.1930  1.2830
  462MOL0     H60930  10.004   3.820   9.995 -0.5748 -2.1212  1.8512
  462MOL0     H60931  10.125   3.579   9.837 -1.6239  1.2817 -0.7813
  462MOL0     H60932   9.967   3.588   9.919  0.5201 -0.0430  0.7533
  462MOL0     H60933  10.246   3.609  10.035  0.8603 -3.2906  2.1627
  462MOL0     H60934  10.096   3.621  10.137 -3.1891 -2.4162 -0.5556
  462MOL0     H60935  10.240   3.418  10.144  3.8042  4.4279 -1.5505
  462MOL0     H60936  10.198   3.387   9.980 -0.0601  1.4781 -0.4795
  462MOL0     H60937  10.017   3.416  10.322 -0.4632  0.7523  0.7564
  462MOL0     H60938   9.705   3.379  10.343  1.3224  1.1999  1.1312
  462MOL0     H60939   9.824   3.264  10.433  0.2451 -2.3717 -0.7047
  462MOL0     H60940   9.717   3.091  10.268 -2.1860  0.1871 -2.7739
  462MOL0     H60941   9.589   3.201  10.247 -1.9683 -3.1673  0.9070
  462MOL0     H60942   9.668   3.056  10.506 -1.0052 -1.9581 -1.6783
  462MOL0     H60943   9.563   3.201  10.512 -0.0051  0.1310 -0.8843
  462MOL0     H60944   9.514   2.984  10.314 -0.7060  0.2759  0.8463
  462MOL0     H60945   9.404   3.094  10.372  1.0233  0.4236  0.5432
  462MOL0     H60946   9.324   3.171  10.557  0.0558 -0.6815  0.2251
  462MOL0     H60947   9.134   3.199  10.713 -2.1817 -0.4753 -0.1294
  462MOL0     H60948   8.791   3.068  11.000  0.8881  2.1012  1.1587
  462MOL0     H60949   8.640   3.064  11.203  0.2219  0.0185 -2.8257
  462MOL0     H60950   8.548   2.822  11.364  0.8895 -0.1155  0.4604
  462MOL0     H60951   8.507   2.998  11.370  2.5971  0.3796 -2.1247
  462MOL0     H60952   8.517   2.981  11.621 -1.3998 -0.1732 -0.1960
  462MOL0     H60953   8.567   2.816  11.618  1.5584  1.3742  1.3385
  462MOL0     H60954   8.338   2.766  11.517 -1.3061  2.3056 -3.5262
  462MOL0     H60955   8.303   2.941  11.521  1.2308  2.7052  1.6543
  462MOL0     H60956   8.346   2.756  11.764 -0.3052 -0.7071 -1.7290
  462MOL0     H60957   8.389   2.927  11.767 -0.0038  0.5927  0.0706
  462MOL0     H60958   8.112   2.857  11.672 -0.5503  0.7217 -0.5575
  462MOL0     H60959   8.181   3.007  11.729 -0.2470  0.3200  1.4963
  462MOL0     H60960   8.012   2.921  11.868 -0.2927  0.1094  0.6933
  462MOL0     H60961   8.173   2.939  11.949 -0.0458 -0.8547 -0.5301
  462MOL0     H60962   8.032   2.693  11.852 -2.0096  1.8418 -1.2637
  462MOL0     H60963   8.187   2.692  11.949  0.0504 -1.1481 -4.0933
  462MOL0     H60964   7.957   2.649  12.068  0.6420  0.0018  0.0102
  462MOL0     H60965   7.943   2.829  12.068  0.6315  0.3857  0.7776
  462MOL0     H60966   8.917   2.790  11.399  0.6784 -0.5683 -0.0011
  462MOL0     H60967   9.056   2.780  11.198 -0.3475  0.4881  0.6143
  462MOL0     H60968   9.190   2.808  10.857 -0.0757  0.4981  0.2534
  462MOL0     H60969   9.379   2.776  10.685  1.5625  1.7232 -3.7990
  462MOL0     H60970  10.162   4.430   9.706  3.4795 -1.8948  0.6984
  462MOL0     H60971  10.099   4.659   9.763 -2.1949 -2.5727 -1.1585
  462MOL0     H60972  10.159   5.105   9.900  1.6249 -1.6341  1.7184
  462MOL0     H60973  10.029   5.312   9.972  3.4630 -0.3419  3.0270
  462MOL0     H60974   9.798   5.429   9.991  0.8517  0.3633 -0.6074
  462MOL0     H60975   9.929   5.481  10.098 -0.8374  2.4473  0.1336
  462MOL0     H60976   9.773   5.536  10.271  0.3062 -0.9727  0.2109
  462MOL0     H60977   9.778   5.642  10.128  2.9965 -1.3163 -0.2511
  462MOL0     H60978   9.581   5.407  10.161  0.8532  0.0970 -3.0194
  462MOL0     H60979   9.559   5.525  10.057 -1.4961  0.1812  1.0820
  462MOL0     H60980   9.517   5.701  10.224  1.2560  0.7651  0.4978
  462MOL0     H60981   9.416   5.549  10.261 -1.5912  3.1007 -1.4591
  462MOL0     H60982   9.651   5.619  10.608 -0.5154 -2.2412  0.9787
  462MOL0     H60983   9.814   5.053  10.252 -0.9229 -2.4353 -1.4846
  462MOL0     H60984   9.919   4.873  10.166  2.0201  0.5797  1.4665
  463MOL0     O60985  10.769   5.128   1.243 -0.3591 -0.7881 -0.5046
  463MOL0     C60986  10.740   5.028   1.179  0.2655 -1.5116  0.2031
  463MOL0     O60987  10.627   5.014   1.107  0.8016 -0.1248  0.2276
  463MOL0     C60988  10.508   5.067   1.147 -0.4735  0.0877  0.0952
  463MOL0     C60989  10.406   5.083   1.051  0.2561 -0.0742  0.4010
  463MOL0     C60990  10.289   5.138   1.089  0.0304  0.9029  0.8703
  463MOL0     C60991  10.259   5.176   1.221 -1.6296  0.6240 -0.9771
  463MOL0     O60992  10.139   5.238   1.256 -0.4245  0.3432  0.5158
  463MOL0     C60993  10.108   5.309   1.375  0.3109 -0.7355  0.2142
  463MOL0     C60994   9.977   5.384   1.364  0.6855 -0.2569  0.3170
  463MOL0     C60995   9.868   5.284   1.349  0.7848 -0.0379  0.0099
  463MOL0     C60996   9.722   5.329   1.372  0.9117  0.6071  0.6009
  463MOL0     C60997   9.640   5.201   1.358  0.1902 -0.2860  0.0520
  463MOL0     C60998   9.490   5.237   1.355 -0.2033 -0.3421  0.3655
  463MOL0     C60999   9.395   5.118   1.397 -0.0903  0.5910 -0.6374
  463MOL0     C61000   9.360   5.026   1.277 -0.2390  0.0239 -0.5023
  463MOL0     N61001   9.463   4.924   1.257 -0.6123 -0.0287  0.7523
  463MOL0     C61002   9.489   4.831   1.350  0.0705 -0.2088  0.0771
  463MOL0     C61003   9.586   4.759   1.293 -0.0958 -0.0448 -0.6147
  463MOL0     C61004   9.626   4.627   1.354  0.0195  0.2302  0.4757
  463MOL0     C61005   9.645   4.613   1.507  0.4855 -0.7447 -0.1872
  463MOL0     C61006   9.734   4.708   1.580  0.0582  0.0217 -0.0198
  463MOL0     C61007   9.778   4.653   1.718  0.1345 -0.8051  0.1208
  463MOL0     O61008   9.857   4.538   1.700  0.2274 -0.3332  0.0092
  463MOL0     C61009   9.980   4.532   1.639  0.1043  0.7175  0.5877
  463MOL0     C61010  10.029   4.404   1.586  0.4983 -0.0916  0.2711
  463MOL0     C61011  10.153   4.393   1.525 -0.7294  0.3006  0.4417
  463MOL0     C61012  10.241   4.501   1.515  0.0444 -0.0776 -0.0518
  463MOL0     C61013  10.383   4.479   1.469 -1.0146  0.5404  0.7953
  463MOL0     O61014  10.419   4.346   1.439  0.5390 -0.8010 -0.0662
  463MOL0     C61015  10.540   4.320   1.382 -0.6349  0.9550  0.7009
  463MOL0     C61016  10.655   4.326   1.457 -0.0648  0.5197  0.0615
  463MOL0     C61017  10.784   4.308   1.398  0.6100 -0.7397 -0.3303
  463MOL0     C61018  10.793   4.285   1.262  0.0106  0.5964 -0.2782
  463MOL0     O61019  10.907   4.261   1.193 -0.0357 -0.4262  0.6730
  463MOL0     C61020  11.025   4.296   1.266  0.1066  0.2059 -0.3856
  463MOL0     C61021  11.143   4.231   1.189  0.4095  0.1653 -0.2560
  463MOL0     C61022  11.272   4.275   1.249 -0.0814 -0.2488  0.9744
  463MOL0     C61023  11.384   4.250   1.139  0.5295  0.0256 -0.0361
  463MOL0     C61024  11.504   4.329   1.190  0.4256  0.2487  0.4002
  463MOL0     C61025  11.606   4.336   1.078 -0.0007  0.0954 -0.5999
  463MOL0     C61026  11.716   4.427   1.134 -0.9869  0.4981  0.6919
  463MOL0     C61027  11.857   4.403   1.069  0.1285 -0.5100 -0.3879
  463MOL0    Cl61028  11.976   4.517   1.152 -0.0829 -0.1514  0.0396
  463MOL0     C61029  10.675   4.278   1.186 -0.1826 -0.3918 -0.6884
  463MOL0     C61030  10.554   4.293   1.244  0.5714 -0.3742  0.0252
  463MOL0     O61031  10.452   4.576   1.446 -0.3583 -0.9417 -0.2772
  463MOL0     C61032  10.195   4.627   1.557 -0.2047 -0.2222 -0.3064
  463MOL0     C61033  10.067   4.636   1.606 -0.2573  0.5520  0.4280
  463MOL0     N61034   9.629   4.818   1.178 -0.5389  0.2118  0.9326
  463MOL0     N61035   9.548   4.919   1.147  0.0380 -0.5826  0.2540
  463MOL0     C61036  10.354   5.142   1.329  0.1376  0.1757  0.1709
  463MOL0     C61037  10.482   5.098   1.285  0.8947 -0.8797 -0.2784
  463MOL0     C61038  10.853   4.931   1.155  0.1806 -0.1024  0.2780
  463MOL0     C61039  10.988   4.954   1.210 -0.2952  0.0225 -0.5513
  463MOL0     C61040  11.083   4.855   1.195 -0.2009 -0.0257  0.0986
  463MOL0     C61041  11.048   4.732   1.134  0.4977 -0.6005  0.3804
  463MOL0     O61042  11.144   4.635   1.133  0.2002 -0.3491  0.4198
  463MOL0     C61043  11.166   4.556   1.009  0.7454  0.4036 -0.2023
  463MOL0     C61044  11.234   4.629   0.904  0.5649 -1.0138 -0.1389
  463MOL0     C61045  11.381   4.667   0.929 -0.3264 -0.2575  0.7523
  463MOL0     C61046  11.412   4.795   1.012 -0.3828 -0.1816  0.5453
  463MOL0     C61047  11.562   4.808   1.007  0.0583 -0.1639 -0.5611
  463MOL0     C61048  11.679   4.823   0.991 -0.3526 -0.1518  0.7142
  463MOL0     C61049  10.924   4.718   1.073  1.0632  0.3025  0.0298
  463MOL0     C61050  10.822   4.812   1.082  0.1721  0.4517  0.8525
  463MOL0     H61051  10.412   5.063   0.945 -0.0749  0.8474  0.2014
  463MOL0     H61052  10.204   5.146   1.022  0.9210 -0.4649 -0.4652
  463MOL0     H61053  10.188   5.378   1.401 -1.2973  2.1369 -1.8787
  463MOL0     H61054  10.100   5.227   1.448  1.4527 -0.3838  0.7578
  463MOL0     H61055   9.987   5.457   1.283  0.2061 -0.2263  0.2809
  463MOL0     H61056   9.959   5.442   1.455  0.0298  1.1068 -0.6465
  463MOL0     H61057   9.885   5.197   1.414  0.1955  1.7803  2.7719
  463MOL0     H61058   9.877   5.257   1.244  0.9402  0.3806 -0.0861
  463MOL0     H61059   9.697   5.378   1.467  1.6009  1.0628  0.5567
  463MOL0     H61060   9.692   5.392   1.288  1.3956 -1.0091 -0.8339
  463MOL0     H61061   9.665   5.137   1.443  0.5139  0.0622  0.2217
  463MOL0     H61062   9.671   5.150   1.267 -0.3116 -1.1590  0.3604
  463MOL0     H61063   9.456   5.265   1.255 -1.1387  0.3671  0.8675
  463MOL0     H61064   9.472   5.316   1.429  2.7285 -0.0332  0.8474
  463MOL0     H61065   9.450   5.058   1.470 -2.1122  0.5081  0.8779
  463MOL0     H61066   9.300   5.158   1.434  0.2476  0.1614  0.7296
  463MOL0     H61067   9.343   5.080   1.183 -1.9129 -1.9206 -1.4061
  463MOL0     H61068   9.265   4.975   1.296  0.2606 -1.0532 -0.7832
  463MOL0     H61069   9.419   4.812   1.431 -0.8814  0.8741 -0.4647
  463MOL0     H61070   9.722   4.599   1.310 -0.2311  1.0300 -0.6325
  463MOL0     H61071   9.557   4.546   1.332  1.2355 -0.9112  0.7469
  463MOL0     H61072   9.673   4.508   1.524  1.5885 -0.8603 -2.2807
  463MOL0     H61073   9.543   4.627   1.542  0.1008  0.9158 -1.7795
  463MOL0     H61074   9.817   4.721   1.509 -0.7224  0.5756 -0.8570
  463MOL0     H61075   9.684   4.803   1.598 -3.9366 -1.2009 -3.1546
  463MOL0     H61076   9.687   4.621   1.771 -0.6693  2.2440  0.8260
  463MOL0     H61077   9.831   4.731   1.774 -2.8402  0.0542  2.0031
  463MOL0     H61078   9.967   4.315   1.596  2.7275 -1.6232  1.3587
  463MOL0     H61079  10.198   4.297   1.498  0.5491  0.1489  2.7499
  463MOL0     H61080  10.643   4.339   1.564 -3.3258 -1.0876  0.0156
  463MOL0     H61081  10.865   4.322   1.469  0.5841  4.5059 -0.9048
  463MOL0     H61082  11.036   4.263   1.369 -1.6465  0.6074 -0.0431
  463MOL0     H61083  11.034   4.405   1.259 -0.0176  0.1340 -2.4670
  463MOL0     H61084  11.138   4.262   1.084  1.2947  0.2490 -0.2736
  463MOL0     H61085  11.134   4.123   1.205 -2.4478  0.2875 -0.4620
  463MOL0     H61086  11.289   4.216   1.340 -0.1564 -0.7191  0.6897
  463MOL0     H61087  11.265   4.381   1.271 -2.4967  0.0224 -0.7229
  463MOL0     H61088  11.417   4.147   1.121  1.0830  0.4902 -1.8278
  463MOL0     H61089  11.354   4.291   1.043 -0.8482 -0.2885  0.2337
  463MOL0     H61090  11.542   4.272   1.276 -0.8948 -1.8900 -0.3419
  463MOL0     H61091  11.477   4.432   1.212 -1.5203  0.1120 -1.0997
  463MOL0     H61092  11.566   4.384   0.988  0.8374  1.2792 -0.3645
  463MOL0     H61093  11.645   4.235   1.061 -1.3685 -0.9376  1.9215
  463MOL0     H61094  11.685   4.531   1.116 -0.8213 -0.0105 -3.5071
  463MOL0     H61095  11.733   4.406   1.240  0.2076 -1.4648  0.1646
  463MOL0     H61096  11.859   4.417   0.961  0.8407 -3.1460 -0.7692
  463MOL0     H61097  11.894   4.303   1.089  0.4600 -0.2501  0.3235
  463MOL0     H61098  10.698   4.251   1.083 -4.8198 -2.7127 -1.3748
  463MOL0     H61099  10.463   4.267   1.191  0.0389  0.0170  0.7222
  463MOL0     H61100  10.249   4.716   1.528 -1.7960 -0.1744 -3.6007
  463MOL0     H61101  10.045   4.739   1.633  2.1711  1.3475 -0.3850
  463MOL0     H61102  10.322   5.147   1.433  0.0494  0.3089  0.1380
  463MOL0     H61103  10.556   5.094   1.364  1.4699 -0.5465 -0.7901
  463MOL0     H61104  11.019   5.040   1.268  1.8429 -1.2579  0.3281
  463MOL0     H61105  11.188   4.861   1.224 -0.0766 -1.0553 -0.0797
  463MOL0     H61106  11.075   4.513   0.967 -0.3259  0.9267  1.4557
  463MOL0     H61107  11.224   4.469   1.038  0.4733 -0.9200 -3.2800
  463MOL0     H61108  11.234   4.567   0.814 -0.7230  0.6254 -1.3350
  463MOL0     H61109  11.170   4.715   0.881  0.0703 -1.5217 -0.7107
  463MOL0     H61110  11.412   4.693   0.827 -2.4520 -2.1846 -0.4778
  463MOL0     H61111  11.444   4.586   0.967  0.4908  1.1692  2.5703
  463MOL0     H61112  11.365   4.884   0.971 -1.2602  1.2354  4.2337
  463MOL0     H61113  11.381   4.783   1.116  2.6111  0.9310  1.6854
  463MOL0     H61114  11.781   4.853   0.980 -0.2643 -1.0555 -1.5141
  463MOL0     H61115  10.897   4.621   1.033 -2.2560 -0.4697  3.5496
  463MOL0     H61116  10.722   4.785   1.051 -0.9263  1.7589  3.0140
  464MOL0     O61117   1.272   3.230   6.368 -0.1558  0.4355  0.0060
  464MOL0     C61118   1.336   3.337   6.358  0.4907  0.2685 -0.3465
  464MOL0     O61119   1.267   3.460   6.346 -0.4120 -0.2615 -0.3547
  464MOL0     C61120   1.133   3.462   6.317  0.3648 -0.5257  0.0699
  464MOL0     C61121   1.088   3.502   6.189  0.3534 -0.5017  1.2586
  464MOL0     C61122   0.949   3.488   6.158 -0.8317  0.4142 -0.5949
  464MOL0     C61123   0.862   3.416   6.236 -0.6804 -0.3027 -0.4530
  464MOL0     O61124   0.733   3.394   6.215  0.3641  0.3606 -0.0760
  464MOL0     C61125   0.677   3.423   6.087  0.0656  0.1506 -0.3259
  464MOL0     C61126   0.545   3.343   6.077 -0.6831 -0.0004 -0.1467
  464MOL0     C61127   0.431   3.419   6.161 -1.0322 -0.3996  0.0977
  464MOL0     C61128   0.308   3.336   6.162  0.1843 -0.8295 -0.1900
  464MOL0     C61129   0.200   3.393   6.254  0.2001  0.0834  0.1249
  464MOL0     C61130   0.066   3.385   6.191 -0.1209  0.4854  0.1190
  464MOL0     C61131  -0.048   3.407   6.287  0.0364  0.2369 -0.2061
  464MOL0     C61132  -0.188   3.395   6.229 -0.2467 -0.0737 -0.2895
  464MOL0     N61133  -0.281   3.434   6.333  0.2177  0.1622  0.4633
  464MOL0     C61134  -0.311   3.357   6.445  0.6740  0.6082  0.0067
  464MOL0     C61135  -0.424   3.418   6.501 -0.4019  0.5687  0.3223
  464MOL0     C61136  -0.498   3.371   6.619 -0.1735 -0.5863 -0.7384
  464MOL0     C61137  -0.424   3.395   6.756 -0.0026  0.0380  0.3443
  464MOL0     C61138  -0.480   3.324   6.886  0.5436  0.0606 -0.1782
  464MOL0     C61139  -0.626   3.341   6.897  0.6962 -0.5393  0.4961
  464MOL0     O61140  -0.668   3.475   6.888  0.1753 -0.3006 -0.4146
  464MOL0     C61141  -0.778   3.508   6.962  0.2661 -0.9853 -0.5024
  464MOL0     C61142  -0.852   3.433   7.046  0.4519  0.1286 -0.2772
  464MOL0     C61143  -0.957   3.493   7.116 -0.4740  0.7388  0.4643
  464MOL0     C61144  -0.990   3.627   7.115 -0.1611 -1.0735 -1.0965
  464MOL0     C61145  -1.100   3.680   7.200 -0.0135 -0.3580  0.0375
  464MOL0     O61146  -1.161   3.587   7.269  0.4050 -0.5088  1.1240
  464MOL0     C61147  -1.260   3.615   7.362  0.9059 -0.4081  0.9332
  464MOL0     C61148  -1.246   3.538   7.474 -0.1416  0.2835  0.4880
  464MOL0     C61149  -1.328   3.541   7.585  0.9542 -0.8899  0.7936
  464MOL0     C61150  -1.435   3.636   7.579 -0.2311  0.1341  0.2228
  464MOL0     O61151  -1.520   3.647   7.688  0.0447  0.0214  0.1228
  464MOL0     C61152  -1.645   3.723   7.671 -0.5031  0.5731  0.2028
  464MOL0     C61153  -1.728   3.726   7.801 -0.2591  0.4655 -0.3832
  464MOL0     C61154  -1.783   3.589   7.834  0.7075  0.2855 -0.6563
  464MOL0     C61155  -1.863   3.590   7.971  0.2678 -0.6254  0.3260
  464MOL0     C61156  -1.927   3.463   8.011 -0.3732  0.3024  1.1658
  464MOL0     C61157  -2.024   3.478   8.129  0.1202  0.0819 -1.2265
  464MOL0     C61158  -2.084   3.347   8.164 -0.1162 -0.2591 -0.4612
  464MOL0     C61159  -2.153   3.352   8.305 -1.0783  0.0579 -0.4999
  464MOL0    Cl61160  -2.186   3.180   8.351  0.0422 -0.5059 -0.2772
  464MOL0     C61161  -1.460   3.710   7.458 -0.0255 -0.1383  0.1763
  464MOL0     C61162  -1.373   3.702   7.347  0.1264  0.3202  0.0460
  464MOL0     O61163  -1.135   3.796   7.191  0.3691 -0.1124  1.4960
  464MOL0     C61164  -0.915   3.707   7.025 -0.0899  0.1688  0.8633
  464MOL0     C61165  -0.799   3.653   6.956 -0.0161 -0.5211 -0.7845
  464MOL0     N61166  -0.468   3.525   6.424  0.1596  0.2850  0.3081
  464MOL0     N61167  -0.389   3.527   6.316 -0.3880  0.4564 -0.7022
  464MOL0     C61168   0.906   3.388   6.365 -0.2093  0.2904 -0.3944
  464MOL0     C61169   1.037   3.407   6.404 -0.4465 -0.2909  0.1473
  464MOL0     C61170   1.482   3.340   6.387 -0.6760  0.0712 -0.6938
  464MOL0     C61171   1.570   3.446   6.347  0.7447 -0.5542 -0.6971
  464MOL0     C61172   1.703   3.422   6.359 -0.5417  0.3899  0.0946
  464MOL0     C61173   1.757   3.309   6.416 -0.5292  0.1208 -0.5390
  464MOL0     O61174   1.900   3.294   6.430  0.6900  0.2412  0.6077
  464MOL0     C61175   1.951   3.165   6.466 -0.0599 -0.4435 -0.5593
  464MOL0     C61176   2.098   3.157   6.440  0.8204  0.6111 -0.2159
  464MOL0     C61177   2.131   3.180   6.291 -0.3822  0.0377  0.1482
  464MOL0     C61178   2.281   3.171   6.270  0.3734  0.4177 -0.2307
  464MOL0     C61179   2.362   3.270   6.335 -0.6793  0.3220  0.6267
  464MOL0     C61180   2.421   3.361   6.389 -0.3350  1.0119  0.5469
  464MOL0     C61181   1.669   3.220   6.470 -0.3342 -0.2268 -0.6181
  464MOL0     C61182   1.533   3.225   6.450  0.0148  0.3207  0.3012
  464MOL0     H61183   1.143   3.557   6.113 -1.0509 -1.0693 -0.1962
  464MOL0     H61184   0.928   3.513   6.054 -0.8044  0.7519 -0.5209
  464MOL0     H61185   0.730   3.371   6.007  0.8958  1.3528 -0.5744
  464MOL0     H61186   0.649   3.525   6.060  0.8010 -0.3794 -3.3763
  464MOL0     H61187   0.560   3.244   6.121 -2.2155  0.5228  1.6756
  464MOL0     H61188   0.518   3.339   5.971  1.4818  1.8545 -0.8514
  464MOL0     H61189   0.400   3.515   6.119  1.0482 -0.1002 -0.8842
  464MOL0     H61190   0.461   3.456   6.260 -2.3563  2.2660 -0.3924
  464MOL0     H61191   0.277   3.331   6.057  3.2710  1.3471 -1.3568
  464MOL0     H61192   0.335   3.239   6.204  0.4775  0.6591  3.3586
  464MOL0     H61193   0.216   3.498   6.282 -0.1667  0.3292 -0.5521
  464MOL0     H61194   0.192   3.346   6.352 -1.4430  5.1376  2.7709
  464MOL0     H61195   0.052   3.290   6.139  1.5088  0.4726 -0.3448
  464MOL0     H61196   0.068   3.458   6.110 -0.8544 -0.0789 -0.4184
  464MOL0     H61197  -0.043   3.340   6.373 -2.7077  0.7915  0.4720
  464MOL0     H61198  -0.037   3.510   6.322  1.5286 -0.1236  0.4656
  464MOL0     H61199  -0.201   3.288   6.208  1.7641 -1.3108  3.6933
  464MOL0     H61200  -0.192   3.445   6.132  2.7610 -0.2218 -0.5784
  464MOL0     H61201  -0.258   3.268   6.478  2.3457  2.0404  1.3931
  464MOL0     H61202  -0.526   3.266   6.625 -0.4084 -0.4646  0.8693
  464MOL0     H61203  -0.593   3.425   6.626  1.3139  1.9762  3.5701
  464MOL0     H61204  -0.416   3.503   6.769  5.9241 -0.1053  0.3079
  464MOL0     H61205  -0.324   3.359   6.732  0.1285  1.4257 -1.3626
  464MOL0     H61206  -0.457   3.217   6.891  3.3449  0.6379  1.5971
  464MOL0     H61207  -0.428   3.363   6.974  0.4758 -2.6846  1.1811
  464MOL0     H61208  -0.659   3.293   6.990  0.0051 -1.5743 -0.2615
  464MOL0     H61209  -0.678   3.274   6.827 -1.5098  0.7950  0.7815
  464MOL0     H61210  -0.846   3.325   7.052 -1.6015 -0.1417 -1.7971
  464MOL0     H61211  -1.019   3.438   7.186 -0.4120 -1.8858 -1.4201
  464MOL0     H61212  -1.158   3.476   7.478  0.8968  1.2739 -3.0241
  464MOL0     H61213  -1.304   3.480   7.671 -1.2568 -1.6849  0.9124
  464MOL0     H61214  -1.713   3.687   7.593 -1.9728  1.9837  0.7809
  464MOL0     H61215  -1.623   3.829   7.656 -0.8632  0.5562 -0.4477
  464MOL0     H61216  -1.810   3.798   7.796 -0.3419  0.3298 -1.0410
  464MOL0     H61217  -1.667   3.750   7.888 -2.5312 -1.1936  1.8199
  464MOL0     H61218  -1.695   3.525   7.843 -0.4763 -1.1740  1.5815
  464MOL0     H61219  -1.843   3.562   7.747  1.0741  2.5091 -1.6771
  464MOL0     H61220  -1.798   3.622   8.053 -2.9634  1.6458  2.2388
  464MOL0     H61221  -1.944   3.663   7.963  1.4601  0.5828 -1.5653
  464MOL0     H61222  -1.839   3.403   8.035  1.0184  2.0277  0.6649
  464MOL0     H61223  -1.988   3.422   7.930 -0.3499  0.8540  0.8656
  464MOL0     H61224  -2.085   3.567   8.108  0.2537  0.5688  0.2933
  464MOL0     H61225  -1.962   3.502   8.216  0.7297  1.3414 -1.9818
  464MOL0     H61226  -2.152   3.313   8.085 -0.4923  1.7037 -1.0397
  464MOL0     H61227  -1.998   3.280   8.166  1.1664  1.3098 -0.8406
  464MOL0     H61228  -2.246   3.409   8.308 -0.5086  0.9896  1.9213
  464MOL0     H61229  -2.079   3.390   8.376  0.0479 -0.6266 -1.2735
  464MOL0     H61230  -1.542   3.781   7.455  0.5171  0.7648  3.3179
  464MOL0     H61231  -1.394   3.763   7.260  1.1884 -1.1797 -1.3238
  464MOL0     H61232  -0.943   3.812   7.023  0.3058  0.2950 -1.7238
  464MOL0     H61233  -0.741   3.726   6.901 -1.4353  2.3798  1.3114
  464MOL0     H61234   0.841   3.335   6.433  0.2087  1.2333  0.7795
  464MOL0     H61235   1.061   3.372   6.505  1.0864  0.4724  0.0785
  464MOL0     H61236   1.513   3.528   6.305 -1.4784 -1.1272  0.9556
  464MOL0     H61237   1.759   3.504   6.314 -0.2256  0.2159  0.1610
  464MOL0     H61238   1.895   3.085   6.417 -2.1012 -0.6786  1.9329
  464MOL0     H61239   1.943   3.154   6.575 -0.2146  1.2803 -0.3612
  464MOL0     H61240   2.153   3.228   6.502 -0.6993  1.3244  0.3557
  464MOL0     H61241   2.125   3.060   6.482 -0.9778  0.4115  0.5333
  464MOL0     H61242   2.086   3.274   6.258 -1.1315 -0.8209 -1.3494
  464MOL0     H61243   2.085   3.097   6.237  0.8263 -0.2860 -0.4211
  464MOL0     H61244   2.310   3.070   6.301 -0.0235 -0.1650 -1.6690
  464MOL0     H61245   2.294   3.175   6.161 -1.2997 -0.3981 -0.4904
  464MOL0     H61246   2.475   3.429   6.452 -2.7000  2.7815  0.8063
  464MOL0     H61247   1.709   3.138   6.529  1.0936  1.8981  1.5368
  464MOL0     H61248   1.480   3.134   6.477 -1.6024  1.7311  2.1878
  465MOL0     O61249   6.134   0.982   5.623  0.2927 -0.4961  0.2218
  465MOL0     C61250   6.144   0.893   5.705 -0.0656 -0.0226 -0.2713
  465MOL0     O61251   6.045   0.850   5.784  0.5447  0.0383  0.2843
  465MOL0     C61252   5.912   0.898   5.766 -0.2630  0.6238 -0.0435
  465MOL0     C61253   5.847   0.901   5.889 -0.7897 -0.5439 -0.5255
  465MOL0     C61254   5.711   0.937   5.882  0.2643 -0.1654  0.0729
  465MOL0     C61255   5.639   0.965   5.765 -0.2006  0.3463  0.3029
  465MOL0     O61256   5.513   1.017   5.782  0.6237 -0.4355 -0.2370
  465MOL0     C61257   5.412   0.934   5.703  0.0432  0.1278  0.7769
  465MOL0     C61258   5.279   0.996   5.716  0.6022 -0.2671  0.6477
  465MOL0     C61259   5.172   0.894   5.688 -1.0552  0.8396 -0.3715
  465MOL0     C61260   5.038   0.951   5.663 -0.5019  0.1899 -0.8751
  465MOL0     C61261   4.979   1.012   5.786  0.0422 -1.0353  0.1364
  465MOL0     C61262   4.824   1.021   5.768 -0.6485  0.3180 -0.0049
  465MOL0     C61263   4.778   1.099   5.640 -0.6636  0.1700  0.0628
  465MOL0     C61264   4.634   1.134   5.656  0.1179  0.2510  0.2511
  465MOL0     N61265   4.539   1.025   5.682 -0.5759 -0.3827 -0.7758
  465MOL0     C61266   4.423   1.036   5.758 -0.8302  0.0631  0.1536
  465MOL0     C61267   4.364   0.918   5.738  0.2800 -1.2193 -0.6220
  465MOL0     C61268   4.240   0.875   5.810  0.2711 -0.4939  0.1705
  465MOL0     C61269   4.106   0.866   5.722 -0.3682 -0.7962 -0.4128
  465MOL0     C61270   4.096   0.758   5.616  0.1471  0.5876  0.5511
  465MOL0     C61271   3.992   0.777   5.505  0.4505 -0.4203 -0.2720
  465MOL0     O61272   3.868   0.774   5.571  0.4507 -0.7958 -0.1038
  465MOL0     C61273   3.750   0.794   5.508 -0.2514 -0.6854 -0.4178
  465MOL0     C61274   3.642   0.759   5.590 -0.4650 -0.1091 -0.6551
  465MOL0     C61275   3.508   0.801   5.546 -0.0609  0.1674  0.7037
  465MOL0     C61276   3.491   0.862   5.417  0.8672 -0.5066 -0.5433
  465MOL0     C61277   3.352   0.881   5.364  0.0657 -0.0463 -0.5815
  465MOL0     O61278   3.342   0.941   5.238 -0.2464 -0.1621 -0.4972
  465MOL0     C61279   3.227   0.962   5.164  0.6599 -0.3390  0.1857
  465MOL0     C61280   3.090   0.967   5.201 -0.8497  0.1646  0.1666
  465MOL0     C61281   2.995   1.009   5.111  0.4769  0.5134 -0.6349
  465MOL0     C61282   3.024   1.054   4.982  0.3765  0.8956 -0.1581
  465MOL0     O61283   2.933   1.124   4.921 -0.5405 -0.5895  0.3807
  465MOL0     C61284   2.796   1.097   4.911  0.8628  0.8481 -0.3657
  465MOL0     C61285   2.775   0.995   4.798 -0.0123  0.3083  0.2061
  465MOL0     C61286   2.624   0.944   4.790 -0.8474  0.1995  1.0033
  465MOL0     C61287   2.521   1.049   4.744  0.8030  0.3299 -0.1670
  465MOL0     C61288   2.378   0.995   4.757 -0.0416  0.1854 -0.0808
  465MOL0     C61289   2.269   1.096   4.799  0.5797  0.2986  0.1613
  465MOL0     C61290   2.258   1.202   4.687 -0.1963  0.0128 -0.0312
  465MOL0     C61291   2.122   1.277   4.659  0.0081  0.3228  0.4202
  465MOL0    Cl61292   2.011   1.158   4.573  0.1358 -0.2655 -0.3317
  465MOL0     C61293   3.155   1.053   4.939  0.1265 -0.5235  0.5119
  465MOL0     C61294   3.256   1.016   5.031 -0.1133 -0.1603 -0.2747
  465MOL0     O61295   3.254   0.835   5.426 -0.2396 -0.0316  0.2443
  465MOL0     C61296   3.606   0.889   5.345  0.1416 -0.4503 -0.6242
  465MOL0     C61297   3.732   0.864   5.391 -0.4769 -0.1284  0.4441
  465MOL0     N61298   4.430   0.843   5.655  0.4038  0.4526 -0.1201
  465MOL0     N61299   4.540   0.902   5.617  0.2510  0.0779  0.1202
  465MOL0     C61300   5.709   0.952   5.639  0.3455 -0.5555 -0.9702
  465MOL0     C61301   5.840   0.925   5.644 -0.4391  0.1457 -0.0085
  465MOL0     C61302   6.270   0.819   5.716 -0.3575 -0.8648  0.6012
  465MOL0     C61303   6.384   0.873   5.653  0.3417  0.0604 -0.1799
  465MOL0     C61304   6.503   0.819   5.692  0.2758 -0.8467  0.9513
  465MOL0     C61305   6.517   0.707   5.769  0.4973 -0.1146  0.1475
  465MOL0     O61306   6.645   0.664   5.783  0.1998 -0.2777 -0.3315
  465MOL0     C61307   6.683   0.566   5.879 -0.2043  0.1424  0.2762
  465MOL0     C61308   6.813   0.494   5.835 -0.5072 -0.1362  0.0412
  465MOL0     C61309   6.923   0.602   5.830  0.3326 -0.5211  0.1595
  465MOL0     C61310   7.061   0.540   5.818  0.0169  0.6641 -0.0032
  465MOL0     C61311   7.100   0.453   5.927  0.2791  0.6447 -1.0175
  465MOL0     C61312   7.137   0.396   6.023 -0.8815  0.3594 -0.0336
  465MOL0     C61313   6.404   0.648   5.816 -1.1448 -0.0451 -0.1769
  465MOL0     C61314   6.281   0.707   5.792 -0.2491 -0.7896 -0.4229
  465MOL0     H61315   5.896   0.872   5.981 -3.1184  2.0994  1.7140
  465MOL0     H61316   5.649   0.944   5.972 -1.8762 -2.1807 -1.1276
  465MOL0     H61317   5.415   0.829   5.732  2.3557 -0.6534 -1.8762
  465MOL0     H61318   5.436   0.938   5.596  2.9974  0.7635  1.4015
  465MOL0     H61319   5.263   1.081   5.648 -2.4776 -1.6587 -0.5237
  465MOL0     H61320   5.268   1.038   5.817 -0.4088  1.5777 -0.1722
  465MOL0     H61321   5.172   0.818   5.766  0.7768  0.9390 -0.2414
  465MOL0     H61322   5.200   0.835   5.600 -0.7339  0.0826  0.2237
  465MOL0     H61323   5.042   1.025   5.583 -0.6688  2.8719  1.4332
  465MOL0     H61324   4.966   0.873   5.636 -0.4679 -0.6269  1.1915
  465MOL0     H61325   5.006   1.116   5.806 -1.5888 -0.8666  1.5898
  465MOL0     H61326   5.017   0.958   5.873  0.1463  0.0146  0.7514
  465MOL0     H61327   4.780   1.057   5.862 -0.6199 -1.3087  0.6851
  465MOL0     H61328   4.778   0.921   5.768  0.8293 -0.3970 -1.1123
  465MOL0     H61329   4.830   1.195   5.643 -2.0660  0.9758 -0.3522
  465MOL0     H61330   4.808   1.040   5.552 -0.5541 -0.1284  0.2956
  465MOL0     H61331   4.606   1.164   5.555  2.6430 -2.0526 -1.2434
  465MOL0     H61332   4.604   1.210   5.730 -0.3121 -2.4639  3.1014
  465MOL0     H61333   4.399   1.122   5.819  1.3251  3.1853 -3.0469
  465MOL0     H61334   4.215   0.946   5.889  0.0893 -1.0491  0.6209
  465MOL0     H61335   4.252   0.776   5.855 -4.1978 -0.6480  1.4977
  465MOL0     H61336   4.083   0.958   5.668 -0.8999 -1.5144 -1.4649
  465MOL0     H61337   4.026   0.867   5.797  0.6560 -1.7524  0.7271
  465MOL0     H61338   4.194   0.756   5.568 -0.1569  0.6719 -0.0754
  465MOL0     H61339   4.073   0.666   5.671  1.2698  0.0750  0.2135
  465MOL0     H61340   3.995   0.688   5.442 -0.2693 -1.5476  1.1988
  465MOL0     H61341   4.006   0.867   5.446 -2.2699 -0.4968 -1.1944
  465MOL0     H61342   3.664   0.711   5.685  1.5665  0.9832 -0.5195
  465MOL0     H61343   3.417   0.766   5.593  0.4970 -0.8523  1.0747
  465MOL0     H61344   3.056   0.944   5.301  0.4308  0.9866  0.8235
  465MOL0     H61345   2.901   1.015   5.165  2.3664  0.0318  3.0213
  465MOL0     H61346   2.751   1.193   4.886 -0.4192  0.8478  1.6800
  465MOL0     H61347   2.742   1.065   5.001 -1.6454 -0.1477 -2.1236
  465MOL0     H61348   2.835   0.907   4.825 -0.0448 -0.0161 -0.7440
  465MOL0     H61349   2.810   1.025   4.698  1.4901 -2.0176 -0.0466
  465MOL0     H61350   2.591   0.906   4.887  1.9129  1.3128  2.4958
  465MOL0     H61351   2.623   0.866   4.713 -1.4281  0.3345  0.8671
  465MOL0     H61352   2.533   1.137   4.807  1.1682  0.6504 -0.6831
  465MOL0     H61353   2.547   1.082   4.644  1.1162  2.7621  0.6475
  465MOL0     H61354   2.384   0.919   4.835 -0.3124  0.2191 -0.0271
  465MOL0     H61355   2.351   0.950   4.662  0.1594  0.7842 -0.4297
  465MOL0     H61356   2.295   1.146   4.893 -1.1649 -0.2549  0.9892
  465MOL0     H61357   2.180   1.035   4.814 -0.7854  1.0983 -3.6735
  465MOL0     H61358   2.330   1.281   4.711  1.0364 -2.1905  4.6555
  465MOL0     H61359   2.288   1.157   4.592 -1.8350  0.3272 -0.7325
  465MOL0     H61360   2.144   1.366   4.598  0.7125 -1.0686 -1.4500
  465MOL0     H61361   2.079   1.319   4.750  1.5981 -0.0141  1.3541
  465MOL0     H61362   3.169   1.100   4.842 -2.1408  1.8002  1.2013
  465MOL0     H61363   3.358   1.030   4.997 -0.2710  1.4178 -0.1668
  465MOL0     H61364   3.607   0.945   5.251  2.3956  0.5829 -0.0592
  465MOL0     H61365   3.816   0.908   5.339  1.6512 -2.3458  1.7628
  465MOL0     H61366   5.656   0.962   5.545 -1.3534 -0.6918 -0.0722
  465MOL0     H61367   5.894   0.909   5.551  1.3181 -1.1577  1.1630
  465MOL0     H61368   6.384   0.965   5.596 -2.4285  0.5346  0.4120
  465MOL0     H61369   6.599   0.864   5.672 -0.6026  1.1096  0.9051
  465MOL0     H61370   6.603   0.491   5.891 -0.4236  0.3936  0.3920
  465MOL0     H61371   6.701   0.613   5.976  0.2301 -0.6047  0.5728
  465MOL0     H61372   6.842   0.423   5.913 -1.5082  0.6678  1.1791
  465MOL0     H61373   6.810   0.441   5.739  1.0484  2.0161 -1.2910
  465MOL0     H61374   6.914   0.671   5.915 -1.0452 -2.1969  1.4322
  465MOL0     H61375   6.908   0.669   5.745  0.6993 -1.0006 -0.2877
  465MOL0     H61376   7.061   0.480   5.726  1.5874  0.5963  0.0090
  465MOL0     H61377   7.137   0.617   5.800  0.2094  0.5918  0.5009
  465MOL0     H61378   7.177   0.338   6.104 -2.6073 -1.0001 -0.0948
  465MOL0     H61379   6.400   0.574   5.895 -2.5394  1.8412  1.5977
  465MOL0     H61380   6.202   0.668   5.854  1.4103 -2.4501  0.7556
  466MOL0     O61381   4.116   9.842   4.315 -0.6187 -0.0855 -0.0281
  466MOL0     C61382   4.168   9.741   4.270 -0.5111 -0.2125  0.0469
  466MOL0     O61383   4.134   9.609   4.302 -0.1352 -0.3436  0.6068
  466MOL0     C61384   4.023   9.582   4.385 -0.4684  0.4618  0.5358
  466MOL0     C61385   4.043   9.596   4.528  0.0533 -0.2929 -0.2261
  466MOL0     C61386   3.941   9.603   4.619  0.2154  0.6808  0.2709
  466MOL0     C61387   3.812   9.579   4.573 -1.1606 -0.1800 -0.3728
  466MOL0     O61388   3.729   9.577   4.682  0.0826 -0.0460  0.3124
  466MOL0     C61389   3.585   9.543   4.666 -0.4711 -0.4081 -0.3108
  466MOL0     C61390   3.559   9.392   4.655  0.5468  0.7781 -0.1598
  466MOL0     C61391   3.405   9.356   4.629  0.1993 -0.4077  0.2399
  466MOL0     C61392   3.331   9.379   4.754 -0.5373  0.0965 -1.0643
  466MOL0     C61393   3.181   9.370   4.745 -0.0319  0.5027  0.4507
  466MOL0     C61394   3.123   9.514   4.707 -0.2345 -1.0103  0.2884
  466MOL0     C61395   2.975   9.518   4.658 -0.5722  0.1582 -0.0803
  466MOL0     C61396   2.877   9.502   4.782  0.2259 -0.8044 -0.3376
  466MOL0     N61397   2.738   9.515   4.748  0.1087  0.0765  0.9220
  466MOL0     C61398   2.666   9.633   4.734  0.5302 -0.7529 -0.1329
  466MOL0     C61399   2.529   9.586   4.712  0.1652 -0.0164 -0.2121
  466MOL0     C61400   2.412   9.679   4.713  0.1972  0.2347  0.7977
  466MOL0     C61401   2.275   9.632   4.668 -0.4697 -0.4570 -0.8273
  466MOL0     C61402   2.202   9.567   4.781  0.7904  0.5112  0.5815
  466MOL0     C61403   2.059   9.516   4.755 -0.1538 -0.8480  0.3235
  466MOL0     O61404   1.999   9.466   4.870 -0.2385  0.3070 -0.5428
  466MOL0     C61405   1.864   9.430   4.848  0.1745 -0.0055 -0.0588
  466MOL0     C61406   1.834   9.302   4.798 -0.3425  0.1912 -0.1203
  466MOL0     C61407   1.702   9.256   4.805  0.4503  0.6125 -0.0129
  466MOL0     C61408   1.591   9.337   4.845  0.3088 -0.4021 -0.2343
  466MOL0     C61409   1.455   9.280   4.856  0.3682 -1.7136 -0.6687
  466MOL0     O61410   1.433   9.157   4.806 -0.0937  0.5365 -1.0783
  466MOL0     C61411   1.302   9.105   4.808 -0.2094 -0.2980 -0.8019
  466MOL0     C61412   1.236   9.110   4.687 -0.2665  0.0791 -0.0054
  466MOL0     C61413   1.100   9.067   4.677 -0.5193  0.3866  0.4866
  466MOL0     C61414   1.029   9.032   4.789 -0.2051 -0.0286  0.0061
  466MOL0     O61415   0.887   9.019   4.798  0.2852 -0.0229  0.3705
  466MOL0     C61416   0.820   9.147   4.784  0.3571  0.8232  0.0150
  466MOL0     C61417   0.843   9.246   4.896 -0.3276  1.0832 -0.9667
  466MOL0     C61418   0.813   9.387   4.852 -0.8065 -1.0247  1.0596
  466MOL0     C61419   0.796   9.481   4.975  0.0866 -0.0243  0.5326
  466MOL0     C61420   0.744   9.617   4.913 -0.8437  0.0429 -0.1998
  466MOL0     C61421   0.700   9.705   5.034  0.8953  0.8355  0.1183
  466MOL0     C61422   0.554   9.697   5.082  0.0791 -0.8528 -0.0251
  466MOL0     C61423   0.450   9.716   4.970 -0.3586 -0.7913 -0.2326
  466MOL0    Cl61424   0.279   9.714   5.043 -0.2819 -0.3472 -0.1087
  466MOL0     C61425   1.099   9.005   4.906 -0.4507 -0.0732 -0.5746
  466MOL0     C61426   1.237   9.047   4.920 -0.3837  0.4357 -0.1269
  466MOL0     O61427   1.373   9.351   4.915 -0.3716 -0.5968  0.0031
  466MOL0     C61428   1.623   9.474   4.876 -0.3439  0.3428 -0.1227
  466MOL0     C61429   1.755   9.522   4.869  0.7244  0.2347  0.6374
  466MOL0     N61430   2.529   9.448   4.725 -0.4275  0.4499 -0.3608
  466MOL0     N61431   2.652   9.407   4.741  0.9024  0.5992 -0.7111
  466MOL0     C61432   3.790   9.557   4.439 -0.2263  0.3017  0.3748
  466MOL0     C61433   3.891   9.569   4.340  0.0957 -0.4608 -0.5306
  466MOL0     C61434   4.275   9.765   4.176 -0.9026  1.1085  0.3098
  466MOL0     C61435   4.321   9.663   4.089 -0.2830  0.5099  0.2235
  466MOL0     C61436   4.422   9.694   3.998 -0.1243 -0.4095 -0.6577
  466MOL0     C61437   4.468   9.828   3.988 -0.2485  0.6541  1.1046
  466MOL0     O61438   4.551   9.875   3.892 -0.5024  0.2670  0.0434
  466MOL0     C61439   4.601   9.796   3.788 -1.3917  0.0826  0.2353
  466MOL0     C61440   4.713   9.857   3.709  0.2429  0.4574  0.9207
  466MOL0     C61441   4.829   9.914   3.803  0.8429  0.4168  0.2684
  466MOL0     C61442   4.915  10.027   3.735 -0.2617 -0.6806  0.5041
  466MOL0     C61443   4.996  10.102   3.827  0.4039 -0.0192 -0.1388
  466MOL0     C61444   5.061  10.142   3.921 -0.0794  0.0406 -0.1303
  466MOL0     C61445   4.435   9.921   4.085 -0.3376  0.6039  1.0300
  466MOL0     C61446   4.328   9.894   4.171  0.3747  0.4636 -0.1485
  466MOL0     H61447   4.143   9.605   4.568 -0.5507 -1.6901  1.7855
  466MOL0     H61448   3.959   9.627   4.723 -1.3162 -2.0302  1.2881
  466MOL0     H61449   3.546   9.583   4.572  1.5071  1.0732 -0.5573
  466MOL0     H61450   3.526   9.584   4.748  0.5164 -0.3274  0.3733
  466MOL0     H61451   3.587   9.338   4.746 -2.1438 -0.7527 -0.1119
  466MOL0     H61452   3.615   9.348   4.572  2.2052 -1.0574  1.8477
  466MOL0     H61453   3.394   9.253   4.595  0.8351 -0.1335 -0.8801
  466MOL0     H61454   3.367   9.421   4.549  0.2841 -0.3548  0.2421
  466MOL0     H61455   3.366   9.308   4.830  2.5953  0.7697 -1.7667
  466MOL0     H61456   3.352   9.480   4.790  0.3864 -0.3533 -0.2736
  466MOL0     H61457   3.141   9.319   4.832 -1.4202  0.3468 -0.2429
  466MOL0     H61458   3.150   9.308   4.661 -1.2410 -0.0564  1.2875
  466MOL0     H61459   3.194   9.541   4.628 -1.3564 -0.2297 -0.4796
  466MOL0     H61460   3.135   9.581   4.793 -2.9868  2.8966 -2.0408
  466MOL0     H61461   2.951   9.617   4.620 -1.7888  0.6131  1.7724
  466MOL0     H61462   2.959   9.448   4.574  0.9117  0.3309 -0.5406
  466MOL0     H61463   2.910   9.576   4.856 -0.5735  2.0732 -2.6632
  466MOL0     H61464   2.897   9.404   4.825 -0.6474 -0.5139  0.7969
  466MOL0     H61465   2.696   9.736   4.749 -2.0358 -0.0578  0.7849
  466MOL0     H61466   2.453   9.753   4.643 -1.1106 -1.6116 -2.1394
  466MOL0     H61467   2.412   9.723   4.813  2.9142  2.3455 -0.0150
  466MOL0     H61468   2.284   9.572   4.577 -1.0928  0.5740 -1.5964
  466MOL0     H61469   2.225   9.726   4.641 -0.5438 -0.3048 -0.1750
  466MOL0     H61470   2.254   9.476   4.812 -1.8593 -1.0050  0.9408
  466MOL0     H61471   2.196   9.638   4.865  1.3679  0.4879  0.6408
  466MOL0     H61472   2.057   9.452   4.666  1.2137  0.6292 -0.8340
  466MOL0     H61473   2.000   9.606   4.737 -0.1857 -1.4852 -3.5600
  466MOL0     H61474   1.915   9.235   4.771  0.8091  1.6652 -0.4588
  466MOL0     H61475   1.682   9.158   4.764  1.5171  0.9121 -1.3181
  466MOL0     H61476   1.283   9.156   4.602  0.2001  1.3276  0.9086
  466MOL0     H61477   1.045   9.093   4.587  0.6317  0.6440 -0.1633
  466MOL0     H61478   0.713   9.127   4.772  0.2850  0.3462  1.3358
  466MOL0     H61479   0.848   9.190   4.687 -0.8389 -1.3293 -1.3597
  466MOL0     H61480   0.949   9.244   4.924  0.2071 -1.8684 -2.7628
  466MOL0     H61481   0.770   9.226   4.975  1.3609 -1.1007  0.1405
  466MOL0     H61482   0.723   9.386   4.790 -0.6664 -1.6060  0.8512
  466MOL0     H61483   0.902   9.415   4.793 -1.0037 -1.9851  0.2755
  466MOL0     H61484   0.722   9.441   5.046 -0.2596  0.4726  0.4607
  466MOL0     H61485   0.893   9.489   5.024 -0.2115 -1.6438  1.4734
  466MOL0     H61486   0.669   9.614   4.833 -0.4901  1.5130 -0.6196
  466MOL0     H61487   0.827   9.665   4.862  1.3039 -2.3204  0.8476
  466MOL0     H61488   0.715   9.807   4.998  2.7009  0.2188 -1.0862
  466MOL0     H61489   0.771   9.697   5.117 -0.6065  0.7653  1.4514
  466MOL0     H61490   0.539   9.596   5.121  2.4087 -1.0297  0.6093
  466MOL0     H61491   0.534   9.772   5.160 -0.1743 -1.5045  0.5436
  466MOL0     H61492   0.470   9.636   4.897 -0.7177  0.2133 -1.4803
  466MOL0     H61493   0.472   9.803   4.907 -0.0619 -0.8992 -0.2784
  466MOL0     H61494   1.040   8.960   4.985 -1.1644 -0.4529 -1.3131
  466MOL0     H61495   1.284   9.034   5.017 -0.0812  0.8771 -0.2118
  466MOL0     H61496   1.546   9.549   4.894 -2.1373 -1.2360 -0.9145
  466MOL0     H61497   1.770   9.628   4.883 -0.5141  0.6122 -0.7074
  466MOL0     H61498   3.693   9.527   4.403  1.4462 -1.8451 -2.8625
  466MOL0     H61499   3.874   9.577   4.233 -1.7948 -1.5872 -0.3706
  466MOL0     H61500   4.290   9.559   4.097 -2.1254  1.1172  1.6168
  466MOL0     H61501   4.459   9.623   3.924  1.7300  0.5822 -0.7410
  466MOL0     H61502   4.523   9.765   3.718  0.7600 -1.4287 -1.6372
  466MOL0     H61503   4.646   9.710   3.838 -0.2652  0.6300  0.1926
  466MOL0     H61504   4.759   9.772   3.656  1.7573  1.1745  1.0275
  466MOL0     H61505   4.671   9.937   3.648  2.9623  3.4028  2.6270
  466MOL0     H61506   4.898   9.835   3.832  2.5491  0.7256 -2.5268
  466MOL0     H61507   4.777   9.960   3.887 -0.6041 -2.7688  1.2501
  466MOL0     H61508   4.977   9.971   3.665 -0.6226 -0.3886 -0.0583
  466MOL0     H61509   4.849  10.102   3.689 -1.8822 -1.9993  0.5993
  466MOL0     H61510   5.114  10.189   4.001 -0.2539 -0.9712  0.6039
  466MOL0     H61511   4.477  10.021   4.086 -0.6207  0.7388  0.1874
  466MOL0     H61512   4.290   9.955   4.252 -1.8965 -0.6817 -0.2637
  467MOL0     O61513   8.012   3.642   2.470 -0.8446  0.2766 -0.4169
  467MOL0     C61514   8.074   3.543   2.510 -0.5240 -0.2997  0.0454
  467MOL0     O61515   8.040   3.457   2.596  0.2845  0.3703 -0.3696
  467MOL0     C61516   7.933   3.485   2.682 -0.2630  0.1174  0.0854
  467MOL0     C61517   7.865   3.365   2.719  0.8021 -0.1801 -0.7473
  467MOL0     C61518   7.763   3.368   2.814 -0.1742 -0.0438  0.1474
  467MOL0     C61519   7.713   3.492   2.862  0.5790 -0.5418 -0.0436
  467MOL0     O61520   7.608   3.482   2.956  0.3074  1.0500  0.1526
  467MOL0     C61521   7.493   3.572   2.945 -0.5442  0.7526  0.2507
  467MOL0     C61522   7.394   3.536   3.054  0.0556 -0.6134 -0.1043
  467MOL0     C61523   7.246   3.563   3.020 -0.5513  0.3391  0.2238
  467MOL0     C61524   7.166   3.504   3.134 -0.3940 -0.5531  0.7222
  467MOL0     C61525   7.023   3.523   3.102 -0.1864 -0.5843  0.0883
  467MOL0     C61526   6.937   3.489   3.220  0.1679 -0.1522  0.6423
  467MOL0     C61527   6.792   3.496   3.182 -0.4256 -0.3870 -0.3263
  467MOL0     C61528   6.744   3.396   3.069  0.6211  0.4896 -0.1719
  467MOL0     N61529   6.599   3.419   3.033 -0.4517 -0.2446 -0.3689
  467MOL0     C61530   6.558   3.462   2.912  0.2134  0.5567  0.4824
  467MOL0     C61531   6.425   3.462   2.920  0.2691 -0.3892  0.1220
  467MOL0     C61532   6.329   3.535   2.821 -0.0416 -0.0263 -0.0312
  467MOL0     C61533   6.314   3.682   2.859  0.4630  0.3553  0.2728
  467MOL0     C61534   6.226   3.762   2.763  0.2023  0.0079  0.8660
  467MOL0     C61535   6.221   3.904   2.797 -0.6550 -0.3274 -0.0219
  467MOL0     O61536   6.139   3.978   2.703  0.7550  0.2906 -0.1700
  467MOL0     C61537   6.119   4.114   2.720  0.5009  0.3863 -0.8398
  467MOL0     C61538   6.018   4.165   2.636 -1.5052  0.1049 -0.0105
  467MOL0     C61539   5.995   4.306   2.636 -0.1297 -0.0105 -0.3019
  467MOL0     C61540   6.057   4.388   2.735 -0.4580  0.2779 -0.2061
  467MOL0     C61541   6.036   4.533   2.741  0.1634 -0.4735  0.0571
  467MOL0     O61542   5.948   4.590   2.659 -0.3667 -0.1657  0.7205
  467MOL0     C61543   5.901   4.718   2.677  0.6350 -0.0259  0.4785
  467MOL0     C61544   5.992   4.826   2.705 -0.4474 -0.0537 -0.5177
  467MOL0     C61545   5.952   4.959   2.706  0.3862 -0.3858 -0.5177
  467MOL0     C61546   5.811   4.992   2.685  0.2643 -0.0466  0.0107
  467MOL0     O61547   5.775   5.123   2.674 -0.2609 -0.1556  0.0736
  467MOL0     C61548   5.634   5.151   2.685 -0.0310 -0.6500 -0.0493
  467MOL0     C61549   5.618   5.298   2.716  0.0088 -0.7738 -0.0875
  467MOL0     C61550   5.479   5.349   2.706  0.6157 -0.5614  0.5301
  467MOL0     C61551   5.486   5.495   2.648 -0.9141  0.3420 -0.0056
  467MOL0     C61552   5.344   5.553   2.618 -0.7579  0.5528  0.0682
  467MOL0     C61553   5.267   5.468   2.509 -0.5173 -0.4385 -0.0230
  467MOL0     C61554   5.153   5.552   2.469  0.3563  0.1937  0.2971
  467MOL0     C61555   5.072   5.486   2.350  0.5896 -0.2272 -0.4365
  467MOL0    Cl61556   4.947   5.602   2.290  0.3427  0.1345 -0.1793
  467MOL0     C61557   5.723   4.883   2.658  0.1766 -0.6188 -0.1619
  467MOL0     C61558   5.771   4.748   2.648  0.5431 -0.7313 -0.1038
  467MOL0     O61559   6.105   4.594   2.823 -0.0991 -0.1587  0.5580
  467MOL0     C61560   6.141   4.327   2.832 -0.0915  0.0051  0.2692
  467MOL0     C61561   6.174   4.189   2.820 -0.8239 -0.7263  0.6899
  467MOL0     N61562   6.388   3.429   3.054  0.1502 -0.5296  1.5294
  467MOL0     N61563   6.489   3.400   3.119 -0.2202 -0.0680 -0.0358
  467MOL0     C61564   7.788   3.611   2.827  1.3947  0.1835  0.0692
  467MOL0     C61565   7.897   3.602   2.739  0.1359 -0.1580 -0.8403
  467MOL0     C61566   8.208   3.523   2.451  0.2568 -0.8762 -0.3101
  467MOL0     C61567   8.254   3.606   2.343  0.2834  0.4250 -0.3176
  467MOL0     C61568   8.379   3.585   2.279  0.9812  0.2635 -0.0217
  467MOL0     C61569   8.461   3.475   2.320 -0.2409 -0.0222  0.1999
  467MOL0     O61570   8.577   3.453   2.238 -0.4341 -0.1072 -0.2701
  467MOL0     C61571   8.660   3.352   2.283 -0.0392 -0.1922  0.2267
  467MOL0     C61572   8.763   3.340   2.172 -0.1058  0.0521  0.2609
  467MOL0     C61573   8.850   3.214   2.210  0.5196  0.1656  0.3388
  467MOL0     C61574   8.968   3.184   2.112  0.6153  0.1842  0.4225
  467MOL0     C61575   9.052   3.303   2.103  0.4942 -0.4269 -0.5612
  467MOL0     C61576   9.127   3.394   2.104 -0.1904  0.1622 -0.0815
  467MOL0     C61577   8.411   3.384   2.425  0.1915  0.3867 -0.2338
  467MOL0     C61578   8.289   3.411   2.485 -0.1005 -0.5340 -0.9554
  467MOL0     H61579   7.900   3.270   2.681  0.4801 -0.2402 -0.8968
  467MOL0     H61580   7.718   3.276   2.850  0.1240  0.8854  3.1779
  467MOL0     H61581   7.444   3.538   2.854 -1.3772 -4.4990  2.2757
  467MOL0     H61582   7.521   3.678   2.950 -0.4813  0.7770 -0.5728
  467MOL0     H61583   7.413   3.590   3.147  0.6647 -1.5345  0.3190
  467MOL0     H61584   7.408   3.430   3.076 -1.5387 -1.3385 -2.3015
  467MOL0     H61585   7.210   3.516   2.928  0.6374  1.6142 -0.9426
  467MOL0     H61586   7.238   3.672   3.013  2.3703  0.5235 -2.0651
  467MOL0     H61587   7.182   3.396   3.135  0.0943 -0.4899  0.2114
  467MOL0     H61588   7.186   3.542   3.234 -0.1667  2.0443 -0.2378
  467MOL0     H61589   7.003   3.466   3.010 -0.0761  0.8821 -0.8724
  467MOL0     H61590   7.004   3.630   3.095  1.3023 -0.3477 -0.8992
  467MOL0     H61591   6.956   3.568   3.293 -2.2513  0.0972  1.0852
  467MOL0     H61592   6.964   3.393   3.265  4.4150  1.2243  1.5170
  467MOL0     H61593   6.740   3.480   3.276 -1.4247 -0.1437 -0.8243
  467MOL0     H61594   6.765   3.597   3.152 -0.1442  0.4448  2.0056
  467MOL0     H61595   6.754   3.290   3.094 -1.1687  0.0157 -1.2717
  467MOL0     H61596   6.806   3.410   2.980 -0.6094 -1.1430 -1.3612
  467MOL0     H61597   6.616   3.482   2.822  0.9056 -2.3331  0.1930
  467MOL0     H61598   6.232   3.486   2.811 -0.0051  0.0792 -1.0175
  467MOL0     H61599   6.377   3.532   2.723 -2.1826 -0.8237 -1.1152
  467MOL0     H61600   6.413   3.727   2.872  0.7571  0.3477 -1.7098
  467MOL0     H61601   6.268   3.680   2.958  0.6308 -0.6969  0.3507
  467MOL0     H61602   6.271   3.735   2.667  1.1418 -1.2541  1.6257
  467MOL0     H61603   6.127   3.714   2.766  1.0097 -1.7805  0.4459
  467MOL0     H61604   6.323   3.941   2.800 -0.1248 -1.6705 -0.6462
  467MOL0     H61605   6.177   3.918   2.896  1.3723  1.9839  0.6533
  467MOL0     H61606   5.967   4.105   2.560 -2.0932  0.9555 -0.3005
  467MOL0     H61607   5.933   4.336   2.553  2.7641 -0.6524 -2.8823
  467MOL0     H61608   6.098   4.802   2.718 -0.5364 -0.2061 -0.0524
  467MOL0     H61609   6.028   5.036   2.711  2.6522 -2.4149 -1.6283
  467MOL0     H61610   5.579   5.091   2.758 -0.6018 -1.2391 -0.9261
  467MOL0     H61611   5.590   5.123   2.589 -0.9672 -0.3820  0.2964
  467MOL0     H61612   5.682   5.355   2.648  0.5726  0.0752  1.1012
  467MOL0     H61613   5.647   5.317   2.820 -1.3884 -0.5896  0.2907
  467MOL0     H61614   5.425   5.340   2.801  1.9506  4.3388  2.0594
  467MOL0     H61615   5.438   5.291   2.623  2.4563  1.2811 -1.8471
  467MOL0     H61616   5.537   5.565   2.715  1.2926 -0.6251 -0.5729
  467MOL0     H61617   5.543   5.491   2.555 -1.4585  1.3965 -0.3995
  467MOL0     H61618   5.353   5.658   2.590  0.6097  0.3631 -0.2522
  467MOL0     H61619   5.288   5.547   2.711 -1.5651 -2.7651 -0.5062
  467MOL0     H61620   5.235   5.374   2.555 -1.2848  0.8117  2.1670
  467MOL0     H61621   5.328   5.461   2.419 -2.0608  4.3993 -1.8102
  467MOL0     H61622   5.096   5.573   2.559  2.1118  0.6184  1.3612
  467MOL0     H61623   5.183   5.642   2.415 -0.2910 -0.9876 -2.1910
  467MOL0     H61624   5.017   5.395   2.377  0.8634 -0.4183 -0.5101
  467MOL0     H61625   5.143   5.458   2.271  1.6493 -1.4822  0.8920
  467MOL0     H61626   5.620   4.904   2.629  0.1927 -3.0895 -2.3475
  467MOL0     H61627   5.706   4.664   2.624  1.0226 -1.9099  2.4666
  467MOL0     H61628   6.201   4.380   2.905  0.3087 -1.6636  1.2128
  467MOL0     H61629   6.250   4.153   2.888 -0.9691 -0.4664  0.9927
  467MOL0     H61630   7.757   3.698   2.884  0.2536 -0.6262  0.7314
  467MOL0     H61631   7.953   3.694   2.726 -2.8649  1.7709 -1.0948
  467MOL0     H61632   8.190   3.681   2.298  0.7600  1.0126 -0.0219
  467MOL0     H61633   8.407   3.653   2.198 -2.6482  0.6719 -1.1453
  467MOL0     H61634   8.608   3.258   2.304 -0.8670  0.7202  2.6455
  467MOL0     H61635   8.700   3.391   2.377 -1.0825  0.7312  0.3060
  467MOL0     H61636   8.713   3.316   2.078  2.2390  0.1924 -1.1242
  467MOL0     H61637   8.823   3.431   2.163 -1.1622  0.6705 -0.8324
  467MOL0     H61638   8.779   3.131   2.219 -1.0719  1.6834  2.8805
  467MOL0     H61639   8.892   3.232   2.309  0.6589  0.0124  0.3075
  467MOL0     H61640   9.031   3.103   2.150  2.2536  1.2037  0.0224
  467MOL0     H61641   8.935   3.157   2.011  1.7795 -0.7479  0.2687
  467MOL0     H61642   9.215   3.452   2.123  0.0961 -0.7541  1.6993
  467MOL0     H61643   8.468   3.296   2.453 -2.0776 -1.4009 -0.9069
  467MOL0     H61644   8.250   3.340   2.557 -2.1927 -0.1350 -1.6127
  468MOL0     O61645  10.488   5.854   6.107 -0.2796  0.2019  0.8449
  468MOL0     C61646  10.561   5.808   6.017  0.0816  0.2377 -0.0422
  468MOL0     O61647  10.521   5.758   5.898 -0.5253 -0.0973 -0.2645
  468MOL0     C61648  10.387   5.735   5.879 -0.8714 -0.1117 -0.4620
  468MOL0     C61649  10.357   5.601   5.854  0.1842 -0.8670 -0.8158
  468MOL0     C61650  10.216   5.561   5.847 -0.4000 -1.6525  0.0342
  468MOL0     C61651  10.116   5.662   5.859  0.0439  0.4937 -0.6188
  468MOL0     O61652   9.981   5.636   5.847 -0.4468  0.1098  0.2038
  468MOL0     C61653   9.939   5.574   5.724  0.1550 -0.7384  0.8563
  468MOL0     C61654   9.787   5.586   5.708  0.0391 -0.7300  0.2055
  468MOL0     C61655   9.710   5.500   5.813  0.1219  0.5162 -0.8193
  468MOL0     C61656   9.561   5.520   5.789  0.3416 -0.1574 -0.1593
  468MOL0     C61657   9.491   5.414   5.879 -0.4553  0.4104  1.0113
  468MOL0     C61658   9.343   5.442   5.883  0.7473 -0.4515 -0.9095
  468MOL0     C61659   9.276   5.431   5.742  0.2139 -0.3742  0.7598
  468MOL0     C61660   9.124   5.431   5.762  0.3306  0.0682  0.4425
  468MOL0     N61661   9.074   5.293   5.803  0.2296 -0.0110 -0.8202
  468MOL0     C61662   9.075   5.242   5.930  0.1030 -0.5793 -0.0377
  468MOL0     C61663   9.040   5.116   5.907  0.1275  0.7099  0.0044
  468MOL0     C61664   9.007   5.022   6.010 -0.4691  0.2105 -0.3739
  468MOL0     C61665   8.860   5.028   6.049 -0.1428  0.3555  0.4834
  468MOL0     C61666   8.804   5.170   6.072  0.8535 -0.5293  0.1925
  468MOL0     C61667   8.658   5.176   6.132 -0.2092  0.1375 -0.1818
  468MOL0     O61668   8.583   5.068   6.084 -0.1200 -0.2431 -0.6131
  468MOL0     C61669   8.463   5.054   6.144  0.2930  0.6299  1.3794
  468MOL0     C61670   8.398   5.137   6.245 -0.7676  0.6216  0.5171
  468MOL0     C61671   8.266   5.109   6.289  0.2556 -0.7495  0.1732
  468MOL0     C61672   8.195   4.998   6.237  0.1696  0.3745  0.3537
  468MOL0     C61673   8.071   4.945   6.293 -0.0056  0.0949  0.1063
  468MOL0     O61674   8.021   4.830   6.241  0.6702  0.7308 -0.1050
  468MOL0     C61675   7.894   4.777   6.278  0.1064 -0.1645  0.8174
  468MOL0     C61676   7.784   4.856   6.319 -0.6439  0.5760  0.6777
  468MOL0     C61677   7.661   4.785   6.358 -0.2755  0.6956  1.0161
  468MOL0     C61678   7.655   4.644   6.357 -0.4451  0.4247 -0.2432
  468MOL0     O61679   7.528   4.588   6.392 -1.0538  0.3268  0.2841
  468MOL0     C61680   7.522   4.446   6.420 -0.5560  0.4569  0.8436
  468MOL0     C61681   7.381   4.401   6.462  0.0099  0.0520  0.0149
  468MOL0     C61682   7.313   4.481   6.575 -0.3861  0.0174 -0.2741
  468MOL0     C61683   7.163   4.461   6.578  0.2589 -0.1529 -0.6495
  468MOL0     C61684   7.102   4.511   6.711 -0.3531 -0.2922  0.7557
  468MOL0     C61685   6.961   4.457   6.720 -0.6472  0.2657  0.4900
  468MOL0     C61686   6.883   4.521   6.838  0.6486 -0.9747  0.6341
  468MOL0     C61687   6.754   4.436   6.858  1.1171 -0.1721 -0.3327
  468MOL0    Cl61688   6.658   4.518   6.993  0.0710 -0.2549  0.1508
  468MOL0     C61689   7.764   4.572   6.322 -0.1422 -0.0558  0.3310
  468MOL0     C61690   7.883   4.638   6.277  1.0561  0.1756  0.2541
  468MOL0     O61691   8.023   4.997   6.390 -0.3450 -0.0943  0.2005
  468MOL0     C61692   8.262   4.915   6.149  0.0192 -0.3679  1.0911
  468MOL0     C61693   8.387   4.946   6.098  0.1209 -0.1028  0.3655
  468MOL0     N61694   9.029   5.083   5.780 -0.7159 -0.1948  0.2562
  468MOL0     N61695   9.059   5.185   5.714 -0.2181 -0.4827 -0.3824
  468MOL0     C61696  10.153   5.794   5.876 -0.4318 -1.0783 -0.3144
  468MOL0     C61697  10.290   5.834   5.886 -0.0053  0.1728 -0.6634
  468MOL0     C61698  10.711   5.818   6.050 -0.0232  0.0433 -0.7436
  468MOL0     C61699  10.753   5.880   6.168 -0.7330 -0.0369 -0.5381
  468MOL0     C61700  10.885   5.888   6.198  0.0594  0.6938  0.8244
  468MOL0     C61701  10.982   5.853   6.106  0.0929  0.1971  0.3668
  468MOL0     O61702  11.110   5.880   6.152 -0.2572  0.3569 -0.7633
  468MOL0     C61703  11.219   5.821   6.083  0.6240  0.2705  0.2823
  468MOL0     C61704  11.339   5.840   6.172  0.2359  1.1265 -0.2192
  468MOL0     C61705  11.461   5.801   6.104 -0.3539 -0.5190 -0.0008
  468MOL0     C61706  11.586   5.824   6.184 -0.1507 -0.5551 -0.6764
  468MOL0     C61707  11.605   5.729   6.297 -0.2638 -0.8590 -0.3072
  468MOL0     C61708  11.619   5.655   6.394 -0.6839  0.7402 -0.0591
  468MOL0     C61709  10.945   5.784   5.991 -0.1592  0.4489 -0.3215
  468MOL0     C61710  10.809   5.766   5.964 -0.0093  0.8310  0.5063
  468MOL0     H61711  10.432   5.522   5.852  0.0445 -1.0405  0.3198
  468MOL0     H61712  10.192   5.456   5.830 -0.2668 -1.5140 -1.0798
  468MOL0     H61713   9.968   5.469   5.717  1.5013 -0.3204 -0.5283
  468MOL0     H61714   9.984   5.628   5.640 -0.0800 -2.9889 -0.8230
  468MOL0     H61715   9.759   5.560   5.605 -3.7572  0.7604  0.7191
  468MOL0     H61716   9.762   5.692   5.708 -0.6637 -0.8446 -1.9263
  468MOL0     H61717   9.731   5.533   5.915  0.1771  3.3796 -1.6694
  468MOL0     H61718   9.737   5.394   5.807 -0.8832  0.0604  1.6857
  468MOL0     H61719   9.517   5.615   5.823 -1.7626 -1.4281  0.8732
  468MOL0     H61720   9.535   5.496   5.685 -0.3061 -1.4967  0.2967
  468MOL0     H61721   9.528   5.420   5.982  1.4092  1.7073  0.3323
  468MOL0     H61722   9.516   5.312   5.849 -0.3617  0.2559  1.6139
  468MOL0     H61723   9.317   5.536   5.931  0.2858  0.1274 -2.2405
  468MOL0     H61724   9.305   5.367   5.952 -0.3838  1.3346  0.5094
  468MOL0     H61725   9.302   5.513   5.675 -2.0780 -1.0064 -1.0087
  468MOL0     H61726   9.308   5.346   5.681  0.1935  1.1311 -1.4806
  468MOL0     H61727   9.072   5.447   5.668  3.0306 -0.8793 -1.3163
  468MOL0     H61728   9.104   5.508   5.838  0.8520  2.1358 -1.4304
  468MOL0     H61729   9.075   5.295   6.025  0.6692 -1.1774  0.3056
  468MOL0     H61730   9.081   5.034   6.090  0.5965 -2.4290 -0.8444
  468MOL0     H61731   9.017   4.919   5.974 -1.1575  0.1914 -0.5201
  468MOL0     H61732   8.849   4.959   6.133  3.3218 -0.9330  0.0648
  468MOL0     H61733   8.802   4.995   5.962 -0.1495  1.7028 -0.0379
  468MOL0     H61734   8.874   5.215   6.143 -0.8167 -0.2253  1.7209
  468MOL0     H61735   8.816   5.227   5.979 -0.7584 -3.5611 -2.0596
  468MOL0     H61736   8.611   5.268   6.097  0.7547  0.8540  0.3846
  468MOL0     H61737   8.658   5.170   6.241  1.5472 -0.6967 -0.1945
  468MOL0     H61738   8.437   5.224   6.297  0.2016  2.7770 -3.4350
  468MOL0     H61739   8.219   5.165   6.369 -2.6987 -1.7916 -0.6884
  468MOL0     H61740   7.793   4.964   6.312  0.6896  0.3992 -2.0209
  468MOL0     H61741   7.570   4.844   6.370  0.9621  2.9693 -0.1297
  468MOL0     H61742   7.597   4.414   6.494  0.3654  0.8031  0.0814
  468MOL0     H61743   7.548   4.390   6.329  1.5994  1.5204  0.7292
  468MOL0     H61744   7.379   4.293   6.477  0.8855 -0.2296 -1.6399
  468MOL0     H61745   7.318   4.431   6.378 -0.6099 -0.2298  0.3744
  468MOL0     H61746   7.339   4.587   6.571  0.9042 -0.1753  1.6689
  468MOL0     H61747   7.361   4.450   6.668  0.0335 -0.5739 -0.6764
  468MOL0     H61748   7.116   4.511   6.492  0.4286  0.5857 -0.3234
  468MOL0     H61749   7.158   4.353   6.566  1.5315 -0.6841  2.7239
  468MOL0     H61750   7.103   4.620   6.714  1.9132 -0.1692 -1.3670
  468MOL0     H61751   7.158   4.470   6.796  1.9981  1.1115 -0.0359
  468MOL0     H61752   6.960   4.348   6.735 -0.5318  0.2300  0.2432
  468MOL0     H61753   6.909   4.482   6.627  0.7341  1.6415  0.0428
  468MOL0     H61754   6.949   4.518   6.926  2.5759 -2.3419 -0.7781
  468MOL0     H61755   6.850   4.623   6.813 -1.6917 -1.3427  1.9743
  468MOL0     H61756   6.768   4.339   6.906  0.9064  0.5259  1.1921
  468MOL0     H61757   6.693   4.420   6.769 -1.3749 -4.0849  1.7909
  468MOL0     H61758   7.766   4.463   6.322 -0.4389 -0.0799  1.8302
  468MOL0     H61759   7.960   4.575   6.233 -1.2551 -2.1620 -0.6968
  468MOL0     H61760   8.206   4.832   6.108 -2.7300  1.2733  1.3029
  468MOL0     H61761   8.425   4.882   6.019  2.7521  0.4580  1.0690
  468MOL0     H61762  10.069   5.858   5.900 -0.5536 -0.3006 -2.6033
  468MOL0     H61763  10.325   5.927   5.929 -1.3190 -0.1988  1.3648
  468MOL0     H61764  10.683   5.924   6.237  3.0158  3.0647  1.7110
  468MOL0     H61765  10.921   5.926   6.293  0.1491  1.0007  0.6690
  468MOL0     H61766  11.234   5.872   5.987 -1.1487  2.8571  1.2579
  468MOL0     H61767  11.200   5.717   6.055  0.9222  1.3318 -4.8088
  468MOL0     H61768  11.348   5.942   6.211  0.3435  0.6344  1.0960
  468MOL0     H61769  11.310   5.777   6.256 -1.4660  2.9967  0.6816
  468MOL0     H61770  11.464   5.879   6.027  1.0032 -0.2149  0.3302
  468MOL0     H61771  11.461   5.699   6.065  1.0410 -0.6608  0.3039
  468MOL0     H61772  11.674   5.799   6.123 -1.0194 -1.7729 -1.4737
  468MOL0     H61773  11.596   5.926   6.223 -1.2457 -1.0670  1.0507
  468MOL0     H61774  11.632   5.593   6.481 -0.2764  0.4503 -0.3194
  468MOL0     H61775  11.024   5.746   5.927  1.3713  1.6825  0.7632
  468MOL0     H61776  10.777   5.716   5.873  1.6121  0.5172  0.0908
  469MOL0     O61777   4.456   0.339   7.821 -0.5733  0.6854 -0.3441
  469MOL0     C61778   4.442   0.233   7.875 -0.4522  0.1446 -0.1631
  469MOL0     O61779   4.338   0.149   7.866  0.6985 -0.8764  0.4306
  469MOL0     C61780   4.224   0.198   7.808 -0.8066  0.3238 -0.3143
  469MOL0     C61781   4.113   0.214   7.897  0.0992 -0.2844  0.0576
  469MOL0     C61782   3.985   0.235   7.842  0.2842 -0.6009 -0.0280
  469MOL0     C61783   3.971   0.254   7.699  0.2429 -0.4659 -0.6699
  469MOL0     O61784   3.850   0.282   7.635  0.1678 -0.1276  0.7875
  469MOL0     C61785   3.730   0.240   7.711  0.7635 -0.1204  0.3853
  469MOL0     C61786   3.622   0.207   7.610 -0.1435  0.2746 -0.5790
  469MOL0     C61787   3.486   0.239   7.670 -0.0785  0.3178  0.7644
  469MOL0     C61788   3.370   0.246   7.571  0.5105  0.0593 -0.3487
  469MOL0     C61789   3.327   0.125   7.485 -0.0961  0.6887  0.3509
  469MOL0     C61790   3.404   0.136   7.346 -0.1450 -0.1580 -0.6775
  469MOL0     C61791   3.378   0.021   7.257  0.5903 -0.1832 -0.4501
  469MOL0     C61792   3.232   0.012   7.209 -0.1314 -0.7696  0.0694
  469MOL0     N61793   3.226  -0.102   7.116  0.7810  0.3307 -0.1251
  469MOL0     C61794   3.214  -0.100   6.977 -0.0895  0.1049  0.1333
  469MOL0     C61795   3.233  -0.236   6.948 -0.0289  0.0885  0.0351
  469MOL0     C61796   3.221  -0.310   6.821 -0.9593  0.2135 -0.8456
  469MOL0     C61797   3.069  -0.323   6.779 -0.4807  0.1431 -0.2315
  469MOL0     C61798   3.059  -0.402   6.641  0.3586  0.0419 -0.3228
  469MOL0     C61799   2.905  -0.421   6.611 -0.4612 -0.5306 -0.3655
  469MOL0     O61800   2.833  -0.480   6.721  0.5620 -0.0284  0.4934
  469MOL0     C61801   2.695  -0.500   6.699 -0.9166 -0.3473  0.5732
  469MOL0     C61802   2.634  -0.479   6.575  0.0742 -0.3242 -0.0730
  469MOL0     C61803   2.491  -0.480   6.563 -0.3876  0.0046 -0.1718
  469MOL0     C61804   2.424  -0.503   6.680 -0.1420  0.5021  0.7967
  469MOL0     C61805   2.281  -0.513   6.667  0.0376 -0.4802  0.4269
  469MOL0     O61806   2.212  -0.458   6.562 -0.3229  0.6506 -0.8697
  469MOL0     C61807   2.069  -0.484   6.555 -0.9107  0.9382 -0.3241
  469MOL0     C61808   2.014  -0.548   6.442 -0.3200 -0.0104  0.0448
  469MOL0     C61809   1.880  -0.557   6.431  1.3595  0.1510 -0.1605
  469MOL0     C61810   1.784  -0.499   6.518 -0.4557 -0.0078  0.5302
  469MOL0     O61811   1.646  -0.491   6.489  0.3868  0.8859 -0.1742
  469MOL0     C61812   1.603  -0.536   6.358 -0.2898  0.5381 -0.3055
  469MOL0     C61813   1.463  -0.478   6.323 -0.1163  0.2330  0.1172
  469MOL0     C61814   1.407  -0.556   6.203 -0.5727 -0.0959 -0.1519
  469MOL0     C61815   1.255  -0.525   6.197  0.5287  0.3298 -0.2571
  469MOL0     C61816   1.197  -0.575   6.074 -0.3589 -0.3462  0.1469
  469MOL0     C61817   1.055  -0.523   6.049 -0.1597  0.0628  1.1188
  469MOL0     C61818   0.984  -0.586   5.936  0.3959 -0.4380 -0.5235
  469MOL0     C61819   0.829  -0.563   5.952 -0.6378 -0.0492  0.2225
  469MOL0    Cl61820   0.798  -0.387   5.970  0.0709 -0.0228 -0.2334
  469MOL0     C61821   1.846  -0.423   6.626  0.8047 -0.3386  0.0408
  469MOL0     C61822   1.984  -0.414   6.640  0.9618  0.2928  0.3469
  469MOL0     O61823   2.225  -0.566   6.764 -0.2963  0.3324  0.0544
  469MOL0     C61824   2.486  -0.536   6.800 -0.1926 -0.1209  0.3826
  469MOL0     C61825   2.622  -0.528   6.812 -0.4144  1.4585  0.0571
  469MOL0     N61826   3.255  -0.314   7.061 -0.3787 -0.0540 -0.3565
  469MOL0     N61827   3.262  -0.230   7.161  0.2235  0.4779  0.1980
  469MOL0     C61828   4.086   0.263   7.618  0.1898  0.6369  0.5099
  469MOL0     C61829   4.211   0.227   7.674 -0.2563  0.3245 -0.4117
  469MOL0     C61830   4.581   0.182   7.922  0.0037  0.3696 -0.1571
  469MOL0     C61831   4.696   0.261   7.934 -0.6569 -1.2674 -0.1748
  469MOL0     C61832   4.822   0.220   7.966 -0.1915  0.0246 -0.5809
  469MOL0     C61833   4.846   0.085   7.974  0.4867  0.5460 -0.4167
  469MOL0     O61834   4.960   0.017   7.998  0.0090  0.1702  0.4924
  469MOL0     C61835   5.074   0.103   7.997  0.4021 -0.5758  0.5010
  469MOL0     C61836   5.184   0.011   7.969  0.0248  0.2596 -1.0351
  469MOL0     C61837   5.314   0.094   7.971 -0.4246 -0.0148 -0.0649
  469MOL0     C61838   5.443   0.007   7.931  0.2833  0.9768 -0.8788
  469MOL0     C61839   5.571   0.077   7.965  0.8968  0.1824 -0.2613
  469MOL0     C61840   5.673   0.143   7.980 -0.0853 -0.0779  0.2633
  469MOL0     C61841   4.738   0.004   7.965 -0.0216 -0.0169  0.7336
  469MOL0     C61842   4.607   0.043   7.944  0.1642 -1.3081  0.1337
  469MOL0     H61843   4.135   0.196   8.002 -0.4659 -4.6838 -0.3797
  469MOL0     H61844   3.902   0.255   7.910  0.0786  0.2851 -0.5152
  469MOL0     H61845   3.710   0.329   7.772  0.3087  1.4707 -1.9366
  469MOL0     H61846   3.751   0.150   7.770  1.0581  0.2854  0.9125
  469MOL0     H61847   3.630   0.101   7.584  0.4290 -0.6911  2.9725
  469MOL0     H61848   3.633   0.271   7.521  0.3033 -0.2175 -0.8813
  469MOL0     H61849   3.494   0.335   7.722 -3.7574  1.7481 -0.9507
  469MOL0     H61850   3.462   0.168   7.749 -1.6506 -0.9457 -0.7605
  469MOL0     H61851   3.285   0.272   7.635  0.5983 -3.7972  1.5923
  469MOL0     H61852   3.397   0.325   7.500  2.0862  1.8233  2.0609
  469MOL0     H61853   3.219   0.134   7.471  0.0679 -1.2710 -3.6024
  469MOL0     H61854   3.348   0.026   7.528  1.9796 -1.1245 -4.1972
  469MOL0     H61855   3.513   0.144   7.357 -0.4951  3.5170  1.9952
  469MOL0     H61856   3.371   0.227   7.295  0.4737 -0.0284 -0.8569
  469MOL0     H61857   3.443   0.027   7.169  0.6888 -0.6316 -0.4116
  469MOL0     H61858   3.391  -0.075   7.307  0.2647  0.3702  0.7140
  469MOL0     H61859   3.199   0.098   7.149  1.1564 -2.6049 -3.5318
  469MOL0     H61860   3.170   0.001   7.298 -0.5810  2.2270  0.2458
  469MOL0     H61861   3.213  -0.016   6.909  1.6982 -0.8208 -1.1210
  469MOL0     H61862   3.284  -0.400   6.825  1.0005  1.5120 -1.0839
  469MOL0     H61863   3.272  -0.248   6.747 -1.2822  1.9225  0.3084
  469MOL0     H61864   3.022  -0.226   6.758  0.5083  0.6924  0.0381
  469MOL0     H61865   3.019  -0.381   6.857  0.6430  0.3362  0.6583
  469MOL0     H61866   3.105  -0.342   6.562  3.5730  0.9635  2.0721
  469MOL0     H61867   3.109  -0.499   6.651 -2.5225 -1.4451  1.0543
  469MOL0     H61868   2.910  -0.489   6.526  0.6191 -1.9433  0.7752
  469MOL0     H61869   2.872  -0.319   6.590 -0.1680 -0.4697 -0.5318
  469MOL0     H61870   2.698  -0.458   6.489 -0.2402  2.7476  0.3262
  469MOL0     H61871   2.446  -0.469   6.465  0.9234  1.1108 -0.6973
  469MOL0     H61872   2.087  -0.600   6.380  1.7718 -0.3699  2.6234
  469MOL0     H61873   1.849  -0.632   6.358 -0.6229  0.4316  0.3349
  469MOL0     H61874   1.598  -0.643   6.334 -2.0910  0.8766 -1.6408
  469MOL0     H61875   1.666  -0.493   6.280  1.9308 -1.1956  0.4218
  469MOL0     H61876   1.483  -0.376   6.290  4.1641 -0.5016 -0.1036
  469MOL0     H61877   1.399  -0.500   6.409  1.0300  0.2376  1.0046
  469MOL0     H61878   1.409  -0.664   6.218 -3.0418 -0.4347 -1.7438
  469MOL0     H61879   1.452  -0.524   6.109  1.7718  0.6910  1.1430
  469MOL0     H61880   1.204  -0.557   6.288 -2.8335 -1.2006 -2.4755
  469MOL0     H61881   1.249  -0.416   6.200  1.0576  0.3810 -0.7484
  469MOL0     H61882   1.196  -0.683   6.089  0.3484 -0.1310  2.1497
  469MOL0     H61883   1.263  -0.555   5.989  0.2843  3.5850  1.3727
  469MOL0     H61884   1.056  -0.415   6.032  0.1710  0.3344  2.6942
  469MOL0     H61885   0.993  -0.531   6.139 -2.6785 -0.5829 -0.5386
  469MOL0     H61886   1.015  -0.536   5.844  2.9949 -0.1727  0.4101
  469MOL0     H61887   1.000  -0.694   5.940  0.5970 -0.3822  0.3642
  469MOL0     H61888   0.797  -0.619   6.040  1.5849 -2.3600 -0.3088
  469MOL0     H61889   0.785  -0.603   5.861  1.5482 -1.2181 -0.4033
  469MOL0     H61890   1.777  -0.357   6.678 -1.7961 -1.9404 -1.2413
  469MOL0     H61891   2.028  -0.358   6.722 -0.7262 -2.5523  3.4175
  469MOL0     H61892   2.434  -0.567   6.890  1.1676  0.8042  1.5311
  469MOL0     H61893   2.668  -0.549   6.908 -1.9801 -0.3953  0.4708
  469MOL0     H61894   4.071   0.275   7.511  1.8638 -1.0606  0.0369
  469MOL0     H61895   4.297   0.221   7.607 -0.6342 -0.3220 -0.8552
  469MOL0     H61896   4.685   0.368   7.926  0.6498 -1.0375  0.7616
  469MOL0     H61897   4.896   0.295   7.991 -2.0614  1.4984  0.7931
  469MOL0     H61898   5.086   0.154   8.093 -0.2325  0.5208  0.0144
  469MOL0     H61899   5.069   0.174   7.914  1.1771 -2.2788 -1.0817
  469MOL0     H61900   5.205  -0.072   8.037  1.6111 -1.1401 -3.0961
  469MOL0     H61901   5.165  -0.028   7.868  0.9020 -1.5852 -0.5312
  469MOL0     H61902   5.324   0.144   8.068  2.8240 -1.0831  0.2842
  469MOL0     H61903   5.316   0.176   7.898 -1.6452  4.3704  4.3565
  469MOL0     H61904   5.445  -0.080   7.997  1.0265  2.4024  1.0873
  469MOL0     H61905   5.437  -0.026   7.827  3.2366 -1.3237 -0.4548
  469MOL0     H61906   5.757   0.204   8.007  0.6630 -1.8180  2.1592
  469MOL0     H61907   4.757  -0.103   7.966 -0.9733 -0.2164 -0.1727
  469MOL0     H61908   4.531  -0.034   7.934 -0.0259 -1.1681  0.4819
  470MOL0     O61909   7.038   5.271   4.584 -0.5432  0.3168 -0.1003
  470MOL0     C61910   7.152   5.318   4.568 -0.1515  1.0132 -0.4324
  470MOL0     O61911   7.200   5.437   4.614 -0.1681  1.0806 -0.0271
  470MOL0     C61912   7.141   5.521   4.702 -0.3174  0.3013 -0.7038
  470MOL0     C61913   7.001   5.528   4.737 -0.1719  1.1746  0.5264
  470MOL0     C61914   6.958   5.608   4.839 -0.2692  0.6392 -1.1040
  470MOL0     C61915   7.050   5.688   4.912 -0.0631  0.0491  0.7038
  470MOL0     O61916   6.995   5.790   4.982 -0.6709  0.5981  0.3183
  470MOL0     C61917   7.076   5.894   5.019 -0.3999 -0.1960 -0.6926
  470MOL0     C61918   6.998   5.971   5.123  0.9421 -0.9612 -0.4530
  470MOL0     C61919   7.080   6.060   5.218  0.1725 -0.1907  1.1075
  470MOL0     C61920   7.137   6.180   5.137  0.5397 -0.2307  0.6234
  470MOL0     C61921   7.028   6.288   5.083  0.5631  0.2024  0.0744
  470MOL0     C61922   6.977   6.378   5.200  0.6844 -0.3326  0.4188
  470MOL0     C61923   6.853   6.321   5.270 -0.1248  0.6431  0.5129
  470MOL0     C61924   6.815   6.383   5.404  0.4529 -0.9692 -0.8109
  470MOL0     N61925   6.692   6.322   5.454  0.0807 -0.5098 -0.2973
  470MOL0     C61926   6.567   6.367   5.419 -0.7953 -0.0149 -0.1547
  470MOL0     C61927   6.481   6.277   5.483  0.5046  0.9384  0.2422
  470MOL0     C61928   6.338   6.252   5.457  0.0995 -0.3206  0.0782
  470MOL0     C61929   6.255   6.196   5.574 -0.2248  0.5099  0.1179
  470MOL0     C61930   6.168   6.078   5.529  0.1865  0.3019  1.0085
  470MOL0     C61931   6.085   6.030   5.648 -0.6583  0.1885 -0.2404
  470MOL0     O61932   5.997   5.920   5.604  0.9982  0.1009  0.2892
  470MOL0     C61933   5.857   5.931   5.622 -0.4096  0.3945 -0.6118
  470MOL0     C61934   5.783   5.867   5.519 -0.4815  0.3452  0.2152
  470MOL0     C61935   5.645   5.847   5.529  0.9567  0.0525 -0.0485
  470MOL0     C61936   5.582   5.902   5.641 -0.1229 -0.4755  0.3465
  470MOL0     C61937   5.435   5.884   5.659  0.4770 -0.1771  0.3495
  470MOL0     O61938   5.382   5.947   5.774  0.6875  0.1936  0.1881
  470MOL0     C61939   5.248   5.934   5.794 -0.2231  0.1842 -0.8211
  470MOL0     C61940   5.156   6.036   5.777 -0.8077  0.6356  1.0160
  470MOL0     C61941   5.020   6.032   5.821 -0.1795 -0.1369 -0.0378
  470MOL0     C61942   4.974   5.912   5.870 -0.2149  0.0553  0.0193
  470MOL0     O61943   4.848   5.889   5.916 -0.1244  0.3366  0.1649
  470MOL0     C61944   4.729   5.959   5.871 -1.4293  0.2948 -0.1937
  470MOL0     C61945   4.604   5.864   5.866  0.3665 -0.5447 -0.6988
  470MOL0     C61946   4.507   5.927   5.778 -0.3205 -0.1040 -0.0283
  470MOL0     C61947   4.391   5.824   5.755  0.1345 -0.3189 -0.1282
  470MOL0     C61948   4.270   5.884   5.680 -0.0221 -0.0867 -0.9119
  470MOL0     C61949   4.307   5.907   5.535  0.2369 -0.4898 -0.6426
  470MOL0     C61950   4.194   5.961   5.452 -0.2308  0.5087 -0.1622
  470MOL0     C61951   4.212   5.948   5.303 -1.0346  1.3145  0.3607
  470MOL0    Cl61952   4.359   6.046   5.254  0.7560  0.0050 -0.3824
  470MOL0     C61953   5.069   5.797   5.882  0.1056  0.1259 -0.3984
  470MOL0     C61954   5.206   5.811   5.843 -1.0480 -0.5254 -0.3475
  470MOL0     O61955   5.372   5.813   5.576  0.1651 -0.1815  0.0157
  470MOL0     C61956   5.649   5.978   5.736 -0.5314  0.1144 -0.4920
  470MOL0     C61957   5.785   5.993   5.725  0.2972 -0.4384 -0.1768
  470MOL0     N61958   6.552   6.182   5.553 -0.4398  0.9938 -0.4011
  470MOL0     N61959   6.676   6.208   5.529 -1.1180  0.6830 -0.7356
  470MOL0     C61960   7.178   5.686   4.868 -0.6980  0.0313  0.9014
  470MOL0     C61961   7.228   5.606   4.766  0.7472  0.2909  0.0781
  470MOL0     C61962   7.242   5.231   4.493 -0.7166 -0.4003  0.3634
  470MOL0     C61963   7.364   5.285   4.433  0.0136  0.3379 -0.1511
  470MOL0     C61964   7.447   5.196   4.366 -0.1041  0.0371 -0.0851
  470MOL0     C61965   7.423   5.057   4.368  0.1571 -0.1569  0.5213
  470MOL0     O61966   7.514   4.977   4.300  0.6239 -0.4318  0.3004
  470MOL0     C61967   7.509   4.834   4.303  0.1215  0.4613 -0.0844
  470MOL0     C61968   7.646   4.784   4.243  0.2146  0.1754  0.1843
  470MOL0     C61969   7.664   4.634   4.250 -0.0594  0.2367 -0.2768
  470MOL0     C61970   7.799   4.594   4.319  0.5750  0.1731 -0.1405
  470MOL0     C61971   7.918   4.631   4.234  0.3381 -0.1287  0.2839
  470MOL0     C61972   8.008   4.655   4.154  0.8495  0.9064  0.8692
  470MOL0     C61973   7.308   5.009   4.423  0.3025 -0.5134 -0.9266
  470MOL0     C61974   7.218   5.094   4.492  0.9815 -0.2893 -0.0482
  470MOL0     H61975   6.926   5.465   4.690 -0.8472  1.0875  1.6778
  470MOL0     H61976   6.855   5.603   4.872  0.4724 -0.4265  1.2619
  470MOL0     H61977   7.106   5.958   4.935  0.5794  0.6304  0.2535
  470MOL0     H61978   7.168   5.854   5.063 -0.6908 -0.1095  0.0063
  470MOL0     H61979   6.945   5.905   5.193 -1.1393  0.4250 -0.6185
  470MOL0     H61980   6.921   6.032   5.074  0.2749 -1.0267  0.4791
  470MOL0     H61981   7.156   5.989   5.254  0.3279 -1.4340 -1.4887
  470MOL0     H61982   7.020   6.097   5.302  0.6476  0.5742  1.1243
  470MOL0     H61983   7.206   6.238   5.199 -1.0629  2.4369  0.0690
  470MOL0     H61984   7.190   6.145   5.048 -1.6196 -0.8468 -0.4990
  470MOL0     H61985   6.939   6.249   5.032  0.5704 -0.6350  0.6812
  470MOL0     H61986   7.081   6.360   5.019  1.1589  1.5376  1.9880
  470MOL0     H61987   6.948   6.475   5.157  0.5206 -0.5371  0.0637
  470MOL0     H61988   7.065   6.400   5.262  1.5882 -0.9389 -0.6088
  470MOL0     H61989   6.770   6.328   5.199  0.1467 -0.5537  0.0589
  470MOL0     H61990   6.859   6.216   5.300  0.1842  0.6047  0.3287
  470MOL0     H61991   6.790   6.489   5.388 -4.7130 -1.3984  2.0200
  470MOL0     H61992   6.889   6.371   5.483 -1.5188 -0.0384  1.3057
  470MOL0     H61993   6.536   6.436   5.341 -3.5460 -1.2455 -0.2670
  470MOL0     H61994   6.316   6.188   5.371 -1.3674 -2.1409  1.7100
  470MOL0     H61995   6.307   6.353   5.429 -0.4882 -0.9448 -1.6711
  470MOL0     H61996   6.187   6.270   5.616 -2.2109 -2.2753  2.2064
  470MOL0     H61997   6.313   6.164   5.662  0.9824  2.0778 -0.0634
  470MOL0     H61998   6.107   6.112   5.445  2.6422  0.2751 -0.8922
  470MOL0     H61999   6.227   6.000   5.480 -4.9762 -2.1641 -2.1574
  470MOL0     H62000   6.017   6.108   5.684 -0.5656 -0.6801  1.9715
  470MOL0     H62001   6.149   6.006   5.734  1.7064  1.1687 -1.6529
  470MOL0     H62002   5.830   5.812   5.439  0.1961 -1.0965  1.5513
  470MOL0     H62003   5.592   5.804   5.445  0.1563 -1.6653  1.2845
  470MOL0     H62004   5.197   6.129   5.739 -1.1414  0.6667  0.7241
  470MOL0     H62005   4.953   6.117   5.806 -1.0788 -1.2628 -3.0922
  470MOL0     H62006   4.747   6.011   5.777  0.1234  3.8279  1.8681
  470MOL0     H62007   4.712   6.045   5.936 -1.8648  0.3769 -0.4103
  470MOL0     H62008   4.557   5.859   5.965  0.1547  0.8367 -0.7013
  470MOL0     H62009   4.625   5.764   5.827  0.9706 -0.2330 -1.1971
  470MOL0     H62010   4.555   5.937   5.680 -2.2790  0.0639 -1.0428
  470MOL0     H62011   4.457   6.019   5.811 -2.2688 -0.8024 -0.8370
  470MOL0     H62012   4.422   5.737   5.696 -1.6455 -0.3018 -1.1419
  470MOL0     H62013   4.348   5.785   5.848 -0.6356 -2.2564 -1.2296
  470MOL0     H62014   4.230   5.973   5.731  1.4426  0.2753 -0.3245
  470MOL0     H62015   4.194   5.806   5.687  2.7464 -3.0619 -1.7193
  470MOL0     H62016   4.332   5.804   5.505  0.2134 -2.2201  4.2983
  470MOL0     H62017   4.391   5.976   5.542  0.2206 -0.6247  1.3699
  470MOL0     H62018   4.109   5.910   5.497  1.9592 -1.7653  1.7150
  470MOL0     H62019   4.190   6.067   5.481 -1.5021 -0.0989  2.1436
  470MOL0     H62020   4.118   5.986   5.262 -0.2289  0.6262 -2.3375
  470MOL0     H62021   4.229   5.846   5.267  0.9738  1.1072  1.7433
  470MOL0     H62022   5.046   5.703   5.930 -0.9722  0.1147 -0.9146
  470MOL0     H62023   5.279   5.731   5.849 -1.0266 -0.4397  0.7264
  470MOL0     H62024   5.603   6.015   5.827  0.3585  0.5809 -0.2179
  470MOL0     H62025   5.848   6.057   5.787 -0.9364  2.4513 -1.6904
  470MOL0     H62026   7.253   5.745   4.919 -2.4988  1.8155  1.6639
  470MOL0     H62027   7.333   5.621   4.740  0.5467 -1.2262 -1.8135
  470MOL0     H62028   7.373   5.393   4.433  0.4810  0.3023 -0.5278
  470MOL0     H62029   7.533   5.237   4.314  1.0356 -0.9269  0.9701
  470MOL0     H62030   7.427   4.800   4.239  0.5378 -0.7700  0.0127
  470MOL0     H62031   7.495   4.795   4.404 -0.6745  1.6713  0.2878
  470MOL0     H62032   7.651   4.797   4.134 -0.7611 -2.3673 -0.2546
  470MOL0     H62033   7.724   4.855   4.270  1.2392  0.0002 -2.0880
  470MOL0     H62034   7.669   4.586   4.152 -1.7999  0.6037 -0.5832
  470MOL0     H62035   7.584   4.588   4.307  2.0199 -1.2771  1.5756
  470MOL0     H62036   7.794   4.635   4.421 -1.9783 -0.3802  0.0383
  470MOL0     H62037   7.809   4.488   4.342  1.2957  0.3947  0.6190
  470MOL0     H62038   8.090   4.666   4.086 -0.3243  0.3242 -0.6969
  470MOL0     H62039   7.282   4.904   4.409  0.7410 -0.9044  0.8680
  470MOL0     H62040   7.125   5.046   4.522  1.0632 -0.2619  0.2514
  471MOL0     O62041   7.584   1.762   6.343 -0.6231 -0.5542  0.5980
  471MOL0     C62042   7.686   1.724   6.403  0.2530  0.5337 -0.4928
  471MOL0     O62043   7.680   1.680   6.532 -0.5406  0.9490  0.3741
  471MOL0     C62044   7.561   1.657   6.602 -0.0291 -0.3096 -0.4574
  471MOL0     C62045   7.568   1.574   6.713  0.2889  0.0738 -0.5149
  471MOL0     C62046   7.467   1.538   6.799  0.4129 -0.4737  0.0202
  471MOL0     C62047   7.343   1.601   6.785 -0.2770  0.2259  0.1883
  471MOL0     O62048   7.227   1.578   6.852 -0.4296  1.4421 -0.0936
  471MOL0     C62049   7.207   1.442   6.893 -0.4835  0.1641  0.2743
  471MOL0     C62050   7.064   1.431   6.947 -0.1469 -0.4075 -0.6326
  471MOL0     C62051   6.967   1.466   6.834  0.5167  1.2184 -0.8671
  471MOL0     C62052   6.832   1.419   6.876 -0.6566  0.0796 -0.3555
  471MOL0     C62053   6.714   1.440   6.772 -0.6856 -0.2996 -0.0350
  471MOL0     C62054   6.678   1.585   6.723 -0.2978  0.0798 -0.3037
  471MOL0     C62055   6.677   1.689   6.838 -0.8003 -0.8885  0.5762
  471MOL0     C62056   6.552   1.679   6.921  0.7029  0.2459 -0.2604
  471MOL0     N62057   6.417   1.721   6.856  0.3901 -0.1073  1.2590
  471MOL0     C62058   6.382   1.857   6.841 -1.3468  0.6703 -0.3347
  471MOL0     C62059   6.253   1.860   6.808  0.4926 -0.4239  0.1270
  471MOL0     C62060   6.170   1.985   6.787 -0.1845  0.2140  0.2546
  471MOL0     C62061   6.053   1.982   6.890  0.2765 -1.0763 -0.4292
  471MOL0     C62062   5.947   2.077   6.857  0.7396 -0.5366  0.0849
  471MOL0     C62063   5.831   2.099   6.962  0.2199 -0.3962  0.0727
  471MOL0     O62064   5.729   2.185   6.901 -0.3811 -0.0200  0.2462
  471MOL0     C62065   5.595   2.173   6.928 -0.5198  0.1413  0.1426
  471MOL0     C62066   5.544   2.104   7.036  0.1953  0.6982 -0.1520
  471MOL0     C62067   5.418   2.124   7.080  0.5263 -0.2524  0.1630
  471MOL0     C62068   5.326   2.195   6.992  0.8254  0.2361  0.1581
  471MOL0     C62069   5.185   2.210   7.030 -0.3234  0.3334  0.3833
  471MOL0     O62070   5.144   2.140   7.144  0.0579 -0.6706 -0.0585
  471MOL0     C62071   5.015   2.152   7.190 -0.0840 -0.2351  0.2284
  471MOL0     C62072   4.929   2.045   7.183  0.7015  0.4695 -0.7446
  471MOL0     C62073   4.790   2.057   7.219 -0.4557 -0.5809 -0.0928
  471MOL0     C62074   4.737   2.183   7.254  0.5272  0.4606 -0.2766
  471MOL0     O62075   4.608   2.214   7.293  0.5885  0.8368 -0.6517
  471MOL0     C62076   4.499   2.123   7.266  0.3026  0.2730 -0.0906
  471MOL0     C62077   4.365   2.192   7.296  0.5261 -0.0364  0.2369
  471MOL0     C62078   4.283   2.140   7.408  0.3225  0.4182  0.3150
  471MOL0     C62079   4.146   2.215   7.414 -0.3377  0.2485 -0.3008
  471MOL0     C62080   4.044   2.145   7.325  0.2948  0.0459 -0.1943
  471MOL0     C62081   3.903   2.202   7.343  0.0371 -0.4213 -0.4628
  471MOL0     C62082   3.794   2.143   7.250 -0.4744  0.2739 -0.3740
  471MOL0     C62083   3.686   2.237   7.229 -0.0651 -0.1304 -0.2809
  471MOL0    Cl62084   3.606   2.261   7.379 -0.4477 -0.2372 -0.2392
  471MOL0     C62085   4.829   2.287   7.258  0.5983  0.2537 -0.6268
  471MOL0     C62086   4.965   2.277   7.227 -0.3533  0.9776 -0.4605
  471MOL0     O62087   5.110   2.265   6.945 -0.7419  0.1377  0.4958
  471MOL0     C62088   5.377   2.267   6.878 -0.3067 -0.9673 -0.6089
  471MOL0     C62089   5.516   2.255   6.848  0.2305  1.2730  0.1143
  471MOL0     N62090   6.210   1.725   6.803 -0.2910 -0.5070  1.3078
  471MOL0     N62091   6.306   1.646   6.848  0.1207  0.2189  0.6187
  471MOL0     C62092   7.332   1.695   6.682 -0.3298  0.3412  0.1470
  471MOL0     C62093   7.432   1.715   6.582 -0.2645  0.2717  0.3881
  471MOL0     C62094   7.820   1.738   6.345  0.0976  0.3310 -0.5162
  471MOL0     C62095   7.932   1.710   6.417 -0.7785 -0.0548 -0.3639
  471MOL0     C62096   8.056   1.723   6.347  0.5241  0.7624 -0.1520
  471MOL0     C62097   8.068   1.764   6.218 -0.2095 -1.0556 -0.2369
  471MOL0     O62098   8.190   1.771   6.173  0.0773  0.2624  0.4209
  471MOL0     C62099   8.214   1.856   6.058 -0.2839 -0.0533 -0.0506
  471MOL0     C62100   8.359   1.827   6.011 -0.3311 -0.0002 -0.7435
  471MOL0     C62101   8.467   1.884   6.109  0.5410  0.8313 -0.2466
  471MOL0     C62102   8.610   1.921   6.055 -0.0639  0.3345  1.0611
  471MOL0     C62103   8.660   1.795   6.001 -1.0151  0.6369  0.2186
  471MOL0     C62104   8.678   1.681   5.961 -0.2051 -0.4954 -0.4157
  471MOL0     C62105   7.954   1.805   6.152  0.6802 -0.1863  0.6408
  471MOL0     C62106   7.827   1.783   6.212 -0.2250 -0.4013  0.1795
  471MOL0     H62107   7.657   1.513   6.726  1.1077  0.8582 -2.2232
  471MOL0     H62108   7.490   1.466   6.877  2.5061  0.0463 -0.0760
  471MOL0     H62109   7.264   1.403   6.978  1.6499 -1.4158 -1.7413
  471MOL0     H62110   7.215   1.370   6.810 -1.2645 -1.2457  1.3705
  471MOL0     H62111   7.053   1.501   7.030 -1.9480  1.2536 -2.1677
  471MOL0     H62112   7.054   1.329   6.984  1.8626 -0.8204 -1.0697
  471MOL0     H62113   6.993   1.408   6.745 -0.4083 -1.2320  0.3724
  471MOL0     H62114   6.961   1.574   6.819  1.9462  1.5370  0.5076
  471MOL0     H62115   6.829   1.313   6.900 -0.2986  0.1710  0.1120
  471MOL0     H62116   6.804   1.473   6.967 -4.7933 -1.4088 -0.5470
  471MOL0     H62117   6.631   1.403   6.833 -1.4915  0.8959 -0.3721
  471MOL0     H62118   6.719   1.375   6.684 -1.3589  0.0554 -0.3483
  471MOL0     H62119   6.582   1.581   6.671 -1.3395 -0.3908  1.5802
  471MOL0     H62120   6.750   1.613   6.645  0.3644 -0.8212 -0.0349
  471MOL0     H62121   6.761   1.696   6.908 -0.5056  0.0365  0.1420
  471MOL0     H62122   6.672   1.787   6.790  0.2778 -1.3029 -0.4348
  471MOL0     H62123   6.561   1.738   7.013 -1.8838  0.1761  0.1281
  471MOL0     H62124   6.540   1.578   6.960 -0.7671  0.4224 -0.2041
  471MOL0     H62125   6.448   1.943   6.852  0.2982 -0.4074 -1.3018
  471MOL0     H62126   6.139   1.983   6.682  0.3600 -4.1917 -0.0128
  471MOL0     H62127   6.224   2.078   6.806 -0.6002  0.4910  0.0974
  471MOL0     H62128   6.095   2.007   6.988  0.2907  0.2381 -0.7582
  471MOL0     H62129   6.007   1.883   6.903 -2.1427  0.3034  3.1022
  471MOL0     H62130   5.985   2.176   6.832  1.7920 -0.8686  0.2932
  471MOL0     H62131   5.898   2.026   6.774 -0.9789 -1.7585  1.7539
  471MOL0     H62132   5.878   2.149   7.047 -0.3507  1.5866 -0.7422
  471MOL0     H62133   5.796   2.001   6.996  1.0043 -0.7477 -0.0983
  471MOL0     H62134   5.615   2.048   7.097  2.5493  3.5151 -0.0698
  471MOL0     H62135   5.382   2.081   7.172 -1.4871 -1.4058 -1.0854
  471MOL0     H62136   4.972   1.951   7.150 -1.4380 -0.3154 -1.4151
  471MOL0     H62137   4.727   1.969   7.226 -0.4206 -0.8624 -2.5395
  471MOL0     H62138   4.498   2.037   7.332  1.7633  0.4308  0.1659
  471MOL0     H62139   4.495   2.091   7.161 -1.5274  1.7605 -0.5439
  471MOL0     H62140   4.310   2.186   7.202  3.3126  0.8830 -1.5564
  471MOL0     H62141   4.387   2.298   7.307  2.0589 -0.2172 -0.8829
  471MOL0     H62142   4.350   2.155   7.493  2.8457  3.0811 -1.9275
  471MOL0     H62143   4.255   2.035   7.397 -1.7577  0.9575  0.1519
  471MOL0     H62144   4.106   2.209   7.516 -0.4924  2.2396 -0.2150
  471MOL0     H62145   4.166   2.316   7.377  2.1384 -0.1738 -0.3123
  471MOL0     H62146   4.035   2.044   7.367 -2.1000  0.9165  1.6601
  471MOL0     H62147   4.082   2.138   7.223  1.9588  1.8949  0.2325
  471MOL0     H62148   3.906   2.308   7.316 -0.5870 -0.6471 -1.4956
  471MOL0     H62149   3.873   2.194   7.448 -2.8383 -0.9566 -1.2280
  471MOL0     H62150   3.838   2.137   7.150 -0.3324  0.8807 -0.3555
  471MOL0     H62151   3.769   2.044   7.290 -1.2038  0.6446  0.0980
  471MOL0     H62152   3.619   2.210   7.146  1.9126 -1.6400 -1.4878
  471MOL0     H62153   3.723   2.335   7.199 -0.1456  0.3445  1.1167
  471MOL0     H62154   4.781   2.382   7.279 -4.0231 -2.0193  0.4847
  471MOL0     H62155   5.029   2.364   7.224  0.4057  0.5326  1.3520
  471MOL0     H62156   5.317   2.325   6.809 -1.8047 -0.0547  1.3642
  471MOL0     H62157   5.574   2.294   6.765  4.0638 -0.1939  1.8876
  471MOL0     H62158   7.234   1.741   6.678 -1.2875 -1.7048 -2.1731
  471MOL0     H62159   7.419   1.787   6.502 -2.2144  0.9440  1.2565
  471MOL0     H62160   7.919   1.681   6.521 -1.0213 -2.5423 -1.0064
  471MOL0     H62161   8.146   1.697   6.401 -0.1226 -0.3962  0.3970
  471MOL0     H62162   8.200   1.960   6.090 -0.4713  0.3643 -1.4384
  471MOL0     H62163   8.145   1.832   5.977 -0.1195 -2.3537  0.4362
  471MOL0     H62164   8.381   1.720   6.012  0.3427 -0.2812  5.9727
  471MOL0     H62165   8.381   1.864   5.911 -0.1586 -0.1625 -0.7669
  471MOL0     H62166   8.478   1.819   6.196 -0.2706  2.3802  1.0736
  471MOL0     H62167   8.423   1.976   6.147 -2.1432 -0.3979 -0.1504
  471MOL0     H62168   8.613   1.998   5.977 -0.1343  0.0559  0.7820
  471MOL0     H62169   8.678   1.958   6.133  1.7916  2.2859 -1.3097
  471MOL0     H62170   8.707   1.580   5.940 -0.0437 -0.3802 -0.7594
  471MOL0     H62171   7.958   1.842   6.050  1.2788 -1.0597  0.3360
  471MOL0     H62172   7.736   1.803   6.155 -0.2607  1.0600  0.7143
  472MOL0     O62173   2.191   5.597   9.607 -0.8530  0.0220 -0.1191
  472MOL0     C62174   2.234   5.714   9.602 -0.8193 -0.1214  1.1091
  472MOL0     O62175   2.164   5.830   9.548  0.6390  0.1491 -0.0706
  472MOL0     C62176   2.030   5.808   9.525  0.7216 -0.2963 -0.0325
  472MOL0     C62177   1.995   5.764   9.398  0.1341  0.2500  0.0467
  472MOL0     C62178   1.858   5.735   9.361 -0.0409  0.0251 -0.0700
  472MOL0     C62179   1.757   5.764   9.451  1.3692 -0.8961  0.2998
  472MOL0     O62180   1.627   5.753   9.400 -0.0830 -0.5158 -0.1733
  472MOL0     C62181   1.540   5.867   9.419  0.3924 -0.8440 -0.1598
  472MOL0     C62182   1.435   5.864   9.309  0.1163  0.4203 -0.5887
  472MOL0     C62183   1.327   5.965   9.348  0.0442 -0.6801 -0.2776
  472MOL0     C62184   1.208   5.963   9.250  1.4701 -0.1311  0.6300
  472MOL0     C62185   1.122   5.845   9.273  0.0906 -0.1590 -0.1553
  472MOL0     C62186   0.971   5.871   9.270 -0.4086 -0.1871  0.1070
  472MOL0     C62187   0.908   5.877   9.127  0.3686  0.4823 -0.4398
  472MOL0     C62188   0.908   5.744   9.058  1.4210  0.2543 -0.4085
  472MOL0     N62189   0.846   5.758   8.930  0.1765 -0.3577 -0.1709
  472MOL0     C62190   0.876   5.853   8.834  0.4471 -0.5479  0.1711
  472MOL0     C62191   0.795   5.814   8.730 -0.2449  0.0206 -0.0423
  472MOL0     C62192   0.781   5.898   8.603  0.1183  0.8631  0.0332
  472MOL0     C62193   0.628   5.916   8.582 -0.3520 -0.2886  0.1403
  472MOL0     C62194   0.607   6.043   8.499 -0.5403  0.0768  0.2932
  472MOL0     C62195   0.459   6.077   8.485  0.5715  0.2249  0.1049
  472MOL0     O62196   0.386   5.971   8.415 -0.2519  0.0125  0.2195
  472MOL0     C62197   0.264   5.996   8.356 -0.2672  0.3516 -0.3238
  472MOL0     C62198   0.206   5.900   8.267 -0.5893  0.8094 -0.2477
  472MOL0     C62199   0.085   5.934   8.197  0.0311  0.2865  0.4823
  472MOL0     C62200   0.028   6.061   8.202  0.3026 -0.5493 -0.0969
  472MOL0     C62201  -0.093   6.092   8.115  0.1275  0.0997  0.9986
  472MOL0     O62202  -0.145   5.978   8.049 -0.2941  0.3401 -0.4623
  472MOL0     C62203  -0.239   5.994   7.952 -0.9553  0.9560  0.4253
  472MOL0     C62204  -0.351   5.909   7.937 -0.2416  0.1124 -0.4695
  472MOL0     C62205  -0.429   5.925   7.827  0.3812 -0.2358  0.1262
  472MOL0     C62206  -0.405   6.020   7.720  0.1494 -0.5075 -0.6847
  472MOL0     O62207  -0.486   6.025   7.610 -0.4321  0.0133 -0.4057
  472MOL0     C62208  -0.469   6.122   7.502  0.3778  0.0932 -0.5124
  472MOL0     C62209  -0.384   6.064   7.394 -0.1310 -0.7519  0.2310
  472MOL0     C62210  -0.467   5.977   7.303 -0.3145 -0.1186 -0.0273
  472MOL0     C62211  -0.382   5.913   7.195 -1.2984  0.4776  0.3368
  472MOL0     C62212  -0.455   5.832   7.099 -0.0685 -0.4366 -0.2867
  472MOL0     C62213  -0.533   5.721   7.162 -0.6025 -0.5325  0.1753
  472MOL0     C62214  -0.593   5.629   7.048  0.0730 -0.8445 -0.1112
  472MOL0     C62215  -0.700   5.528   7.083  0.5885 -0.4796  0.4113
  472MOL0    Cl62216  -0.850   5.611   7.154 -0.2991 -0.1506 -0.0443
  472MOL0     C62217  -0.284   6.098   7.742 -0.0468  0.1971 -0.2037
  472MOL0     C62218  -0.204   6.081   7.850 -0.6934  0.0712 -0.0603
  472MOL0     O62219  -0.149   6.201   8.126  0.0377 -0.0280 -0.1070
  472MOL0     C62220   0.076   6.154   8.300  0.1757  1.1286 -0.6038
  472MOL0     C62221   0.184   6.113   8.382 -0.6037  0.4224  0.0735
  472MOL0     N62222   0.713   5.711   8.769 -0.7830 -0.3202  0.5081
  472MOL0     N62223   0.753   5.671   8.882  0.3224  0.1521 -0.0185
  472MOL0     C62224   1.787   5.823   9.575 -0.4225 -0.2544  0.9123
  472MOL0     C62225   1.921   5.844   9.610 -0.3787 -0.5325 -0.7411
  472MOL0     C62226   2.381   5.737   9.640  0.2421 -0.7558  0.1477
  472MOL0     C62227   2.454   5.654   9.731  0.4199 -0.6070  0.4235
  472MOL0     C62228   2.581   5.683   9.772 -0.5142 -0.0993 -0.8091
  472MOL0     C62229   2.642   5.809   9.729  0.3024  1.1728  0.4092
  472MOL0     O62230   2.764   5.858   9.774  0.3324 -0.2956 -0.1333
  472MOL0     C62231   2.822   5.805   9.891  0.8748 -0.3433  0.1785
  472MOL0     C62232   2.899   5.683   9.873 -0.4503  0.2030 -0.5869
  472MOL0     C62233   2.999   5.684   9.757 -0.2926 -0.2396  0.4497
  472MOL0     C62234   3.082   5.553   9.743 -0.1505 -0.1103 -0.0832
  472MOL0     C62235   3.189   5.536   9.847  0.3992  0.6495  0.4146
  472MOL0     C62236   3.266   5.511   9.936  0.3183  0.7981 -0.3806
  472MOL0     C62237   2.566   5.895   9.648 -0.1909  0.7600  1.0838
  472MOL0     C62238   2.438   5.863   9.600 -0.2309 -0.5221 -0.2895
  472MOL0     H62239   2.070   5.761   9.320  0.0536  1.8092 -0.1183
  472MOL0     H62240   1.829   5.702   9.262  1.6274 -3.7987  0.5529
  472MOL0     H62241   1.588   5.964   9.409  0.1170 -0.8321 -1.4811
  472MOL0     H62242   1.472   5.848   9.503 -3.0507 -0.1923 -2.5546
  472MOL0     H62243   1.392   5.763   9.307  0.1956  0.2015  2.5627
  472MOL0     H62244   1.472   5.885   9.208  0.1750 -1.3293 -0.9678
  472MOL0     H62245   1.376   6.062   9.334  1.1003 -1.1586  0.0214
  472MOL0     H62246   1.295   5.955   9.452  2.3714 -0.0441  0.5522
  472MOL0     H62247   1.147   6.053   9.258 -1.4928 -1.8055 -1.3725
  472MOL0     H62248   1.244   5.965   9.147  1.9650 -0.1252  0.7993
  472MOL0     H62249   1.147   5.791   9.365  0.1734 -0.7110 -0.4993
  472MOL0     H62250   1.156   5.772   9.199  1.6197 -2.3456  2.5007
  472MOL0     H62251   0.957   5.972   9.311 -0.0789  0.7837 -2.0187
  472MOL0     H62252   0.917   5.794   9.327 -2.1992  0.7885 -0.1894
  472MOL0     H62253   0.805   5.914   9.135 -0.9503 -3.0019  0.7064
  472MOL0     H62254   0.967   5.950   9.071  0.2996  1.6323  0.9515
  472MOL0     H62255   0.851   5.664   9.105  1.5885  0.4468  0.1307
  472MOL0     H62256   1.013   5.719   9.039  1.4677  1.2112 -1.5514
  472MOL0     H62257   0.936   5.944   8.843  0.3928 -0.1791 -2.2767
  472MOL0     H62258   0.824   5.840   8.521  3.5570 -0.2068  2.3395
  472MOL0     H62259   0.845   5.987   8.610 -0.2031  0.9896  1.9792
  472MOL0     H62260   0.580   5.923   8.680 -1.5377 -0.4900 -0.4134
  472MOL0     H62261   0.584   5.829   8.532  1.0525 -0.0963 -1.5263
  472MOL0     H62262   0.655   6.124   8.556 -1.6300 -0.7156  2.4390
  472MOL0     H62263   0.653   6.043   8.399  1.1578  1.7295  1.0139
  472MOL0     H62264   0.449   6.171   8.430  1.4685 -0.4047 -1.1849
  472MOL0     H62265   0.413   6.086   8.584 -1.2214  1.0782 -0.7534
  472MOL0     H62266   0.244   5.799   8.261  0.4320  0.7429  4.2647
  472MOL0     H62267   0.050   5.856   8.131  1.4140  0.8429 -0.9531
  472MOL0     H62268  -0.379   5.843   8.019 -1.1736 -1.0427 -1.6822
  472MOL0     H62269  -0.522   5.873   7.807 -1.7328  3.4447 -0.4576
  472MOL0     H62270  -0.420   6.213   7.538 -0.3213  0.0040  0.7059
  472MOL0     H62271  -0.569   6.148   7.467 -0.4649 -0.2079  1.5822
  472MOL0     H62272  -0.296   6.015   7.437 -0.8648 -0.3528  2.3313
  472MOL0     H62273  -0.354   6.149   7.331 -0.0331 -0.3259  0.8368
  472MOL0     H62274  -0.547   6.039   7.260  0.4503  0.6989 -0.3110
  472MOL0     H62275  -0.506   5.895   7.364  1.4322 -1.4559 -0.6312
  472MOL0     H62276  -0.310   5.976   7.141  1.6686 -1.5920  1.5725
  472MOL0     H62277  -0.317   5.852   7.259 -2.6885 -1.7727 -0.2876
  472MOL0     H62278  -0.379   5.796   7.029  1.1600  1.6906 -0.1340
  472MOL0     H62279  -0.530   5.899   7.056 -2.1738 -0.9301  2.3293
  472MOL0     H62280  -0.623   5.757   7.213 -0.4224 -2.3483  1.8647
  472MOL0     H62281  -0.464   5.667   7.227  1.0001  2.0317  0.7309
  472MOL0     H62282  -0.640   5.690   6.971  0.1957  2.0145  1.9311
  472MOL0     H62283  -0.505   5.572   7.014  0.8779  0.2469  0.0852
  472MOL0     H62284  -0.661   5.455   7.154  0.9561 -3.3620 -2.5265
  472MOL0     H62285  -0.728   5.471   6.994 -2.8576 -0.6456  1.4299
  472MOL0     H62286  -0.258   6.177   7.673 -1.2869 -0.4459 -1.4471
  472MOL0     H62287  -0.112   6.137   7.867  0.3416 -1.8355  0.9971
  472MOL0     H62288   0.032   6.250   8.321  1.0649  1.4574 -0.1902
  472MOL0     H62289   0.205   6.184   8.461  1.0019 -2.1323  2.1297
  472MOL0     H62290   1.717   5.863   9.648 -0.7356 -0.6923  0.8613
  472MOL0     H62291   1.932   5.887   9.708 -0.3241  0.3648 -1.1359
  472MOL0     H62292   2.405   5.563   9.765 -1.5632 -0.0334 -0.7495
  472MOL0     H62293   2.633   5.619   9.843 -1.7372  1.9040  2.0645
  472MOL0     H62294   2.742   5.781   9.962 -0.8511 -2.6725 -2.3203
  472MOL0     H62295   2.877   5.885   9.940  0.8770 -0.0461 -0.3013
  472MOL0     H62296   2.957   5.675   9.966  2.4015  0.0332 -2.2799
  472MOL0     H62297   2.834   5.595   9.864 -0.3924  0.2714 -1.7049
  472MOL0     H62298   3.070   5.766   9.769  0.0975 -0.4664 -0.3154
  472MOL0     H62299   2.945   5.694   9.663  0.4570 -4.5913 -0.6573
  472MOL0     H62300   3.016   5.466   9.743  0.2153 -0.4080 -1.2461
  472MOL0     H62301   3.144   5.555   9.653  1.3910 -1.5376  0.8861
  472MOL0     H62302   3.333   5.491  10.017 -1.0845  0.1962  0.6758
  472MOL0     H62303   2.616   5.988   9.623 -0.6968 -0.0543 -3.8572
  472MOL0     H62304   2.381   5.942   9.551  3.0696  1.9400 -0.4900
  473MOL0     O62305   8.510   1.893   4.551 -0.4558 -0.0643 -0.1936
  473MOL0     C62306   8.495   1.916   4.430 -0.4281 -0.2213 -0.0020
  473MOL0     O62307   8.371   1.944   4.372  0.2182 -0.2086 -1.2208
  473MOL0     C62308   8.263   1.919   4.450 -0.0310 -0.7894  0.2240
  473MOL0     C62309   8.237   1.987   4.567 -0.1526  0.2768 -0.2927
  473MOL0     C62310   8.111   1.971   4.636  0.8852 -0.2848 -0.3263
  473MOL0     C62311   8.015   1.885   4.584 -0.9624 -0.4786  1.5536
  473MOL0     O62312   7.908   1.873   4.659 -0.7460 -0.3355  0.2197
  473MOL0     C62313   7.816   1.767   4.634 -1.2869 -0.3046  0.2350
  473MOL0     C62314   7.693   1.784   4.713 -0.0858  0.9019 -0.6054
  473MOL0     C62315   7.731   1.779   4.870  1.0050  0.7853  0.1385
  473MOL0     C62316   7.773   1.639   4.904 -0.6603  0.1892 -0.4470
  473MOL0     C62317   7.778   1.616   5.053  0.1144  0.6684 -1.0203
  473MOL0     C62318   7.853   1.734   5.123  0.4585 -0.0177 -0.1078
  473MOL0     C62319   7.877   1.700   5.269  0.0991 -0.0788 -0.4828
  473MOL0     C62320   7.976   1.794   5.347  0.0789  0.3779  0.6774
  473MOL0     N62321   7.930   1.930   5.344  0.7328 -0.5516  0.4487
  473MOL0     C62322   8.002   2.038   5.310 -0.2299 -0.2752  0.0855
  473MOL0     C62323   7.907   2.135   5.305  0.1125  0.5158  0.2286
  473MOL0     C62324   7.925   2.259   5.223  0.8007 -0.2029 -0.2739
  473MOL0     C62325   8.029   2.354   5.295  0.2070 -0.1546  0.9862
  473MOL0     C62326   8.100   2.441   5.189  0.5869 -0.2290 -0.0888
  473MOL0     C62327   8.213   2.524   5.249  0.0795  0.9147 -0.0862
  473MOL0     O62328   8.268   2.623   5.158  0.5987 -0.5736 -0.3657
  473MOL0     C62329   8.392   2.676   5.181 -0.6655  0.0729 -0.0531
  473MOL0     C62330   8.446   2.756   5.080  0.3610 -0.3644 -0.2878
  473MOL0     C62331   8.577   2.798   5.069 -0.0091 -0.1655  0.1069
  473MOL0     C62332   8.668   2.765   5.167  0.1518  0.1987 -0.7088
  473MOL0     C62333   8.804   2.817   5.164  0.5840  0.4428 -0.2975
  473MOL0     O62334   8.847   2.872   5.044  0.3055  0.3581  0.2656
  473MOL0     C62335   8.970   2.935   5.013  0.2077 -1.3468  0.1613
  473MOL0     C62336   8.979   3.003   4.888 -0.8783 -0.0733 -0.2253
  473MOL0     C62337   9.099   3.064   4.844  0.2614  0.0052 -0.6742
  473MOL0     C62338   9.212   3.055   4.929  0.2308 -0.2317  0.1795
  473MOL0     O62339   9.326   3.120   4.884  0.0635  0.5917 -0.6413
  473MOL0     C62340   9.447   3.058   4.897 -0.8036  1.0896 -0.4269
  473MOL0     C62341   9.533   3.076   4.769  0.5203 -0.4113  0.0225
  473MOL0     C62342   9.689   3.045   4.792 -0.1125  0.1785 -0.4044
  473MOL0     C62343   9.769   3.155   4.862 -0.9019  0.4445 -0.4636
  473MOL0     C62344   9.919   3.118   4.889  0.0342  0.8335 -0.1511
  473MOL0     C62345  10.011   3.206   4.819  0.1907 -0.0344  0.4104
  473MOL0     C62346  10.150   3.177   4.869 -0.6446 -0.4445 -0.8291
  473MOL0     C62347  10.248   3.235   4.761  0.0931 -0.8542 -0.4806
  473MOL0    Cl62348  10.418   3.183   4.781 -0.2322 -0.0526 -0.1209
  473MOL0     C62349   9.204   2.984   5.055 -0.1820  0.4356  0.3001
  473MOL0     C62350   9.080   2.923   5.093  0.4398 -0.2148  0.4628
  473MOL0     O62351   8.861   2.820   5.276  0.2696  0.4971  0.7995
  473MOL0     C62352   8.617   2.686   5.273 -0.2636  0.1116 -0.0416
  473MOL0     C62353   8.480   2.638   5.282 -0.4303 -0.4657 -0.4045
  473MOL0     N62354   7.790   2.085   5.352 -0.1319 -0.4606 -0.2272
  473MOL0     N62355   7.804   1.959   5.389  0.6278 -0.6947  1.1746
  473MOL0     C62356   8.031   1.834   4.454  0.3117 -0.0110  0.0947
  473MOL0     C62357   8.156   1.857   4.384 -0.2134 -0.4375  0.3259
  473MOL0     C62358   8.610   1.926   4.340  0.7175 -0.4289 -0.7307
  473MOL0     C62359   8.748   1.896   4.387  0.2675 -0.6694  0.8605
  473MOL0     C62360   8.860   1.919   4.293  0.4537  0.4892 -0.3612
  473MOL0     C62361   8.840   1.991   4.173  0.1440  0.3452  0.1228
  473MOL0     O62362   8.942   2.020   4.078 -1.2246 -0.4553  0.7607
  473MOL0     C62363   9.055   2.101   4.129 -0.3529  0.1824  0.1869
  473MOL0     C62364   9.126   2.150   4.000 -0.3252 -0.2045  0.6007
  473MOL0     C62365   9.026   2.218   3.903 -0.4796 -0.3745  0.1429
  473MOL0     C62366   9.097   2.318   3.803 -0.0193  0.5848  0.8034
  473MOL0     C62367   9.143   2.230   3.688 -0.0891 -0.0734  0.5231
  473MOL0     C62368   9.198   2.156   3.601 -0.2389 -0.8516 -0.1774
  473MOL0     C62369   8.703   2.021   4.135 -0.9494  0.9374 -0.1566
  473MOL0     C62370   8.593   1.991   4.220 -0.4425 -0.2716 -0.0844
  473MOL0     H62371   8.310   2.046   4.622 -1.1391  0.3879  0.9462
  473MOL0     H62372   8.111   2.019   4.733  1.8957  0.9997 -0.9203
  473MOL0     H62373   7.862   1.667   4.642 -1.7875 -0.4893  0.9284
  473MOL0     H62374   7.781   1.773   4.531 -0.8342  0.2421  0.1075
  473MOL0     H62375   7.630   1.698   4.687  0.1088 -0.0130  1.6956
  473MOL0     H62376   7.647   1.880   4.689  1.1403  1.2602 -1.6585
  473MOL0     H62377   7.643   1.808   4.929  1.5038  2.9562 -0.0732
  473MOL0     H62378   7.814   1.846   4.894  0.0492  2.2759 -0.5212
  473MOL0     H62379   7.709   1.561   4.862  2.3307 -2.8052  0.1302
  473MOL0     H62380   7.876   1.620   4.873 -0.3968 -0.8992  0.9646
  473MOL0     H62381   7.833   1.526   5.081 -0.3558  0.7675  0.2732
  473MOL0     H62382   7.680   1.600   5.099  0.7013 -1.2403 -0.3223
  473MOL0     H62383   7.792   1.824   5.121 -1.0401 -0.9946  0.1631
  473MOL0     H62384   7.951   1.755   5.080 -0.1760  1.0024 -1.1080
  473MOL0     H62385   7.779   1.687   5.314 -0.5105 -0.1629 -1.7838
  473MOL0     H62386   7.924   1.601   5.273  0.8616  0.1653 -2.1954
  473MOL0     H62387   8.078   1.791   5.307 -0.5964 -2.6763 -1.1286
  473MOL0     H62388   7.993   1.769   5.452 -0.3478  0.3131  0.7349
  473MOL0     H62389   8.108   2.035   5.286  0.2694  1.5814  1.7562
  473MOL0     H62390   7.823   2.296   5.212  0.4749 -0.9512  0.1523
  473MOL0     H62391   7.968   2.220   5.130  0.5858 -0.8656 -0.1012
  473MOL0     H62392   8.099   2.276   5.325  1.5085 -0.4306 -2.3066
  473MOL0     H62393   7.980   2.407   5.376 -1.8544  1.5526 -1.2303
  473MOL0     H62394   8.145   2.375   5.115  0.8290 -0.6453  0.4225
  473MOL0     H62395   8.027   2.505   5.138  0.4026  0.3557  0.8743
  473MOL0     H62396   8.288   2.462   5.298  1.4790  2.4266 -0.2060
  473MOL0     H62397   8.173   2.575   5.337  0.7563 -0.1963  0.8978
  473MOL0     H62398   8.390   2.792   4.994  2.3657  0.2990 -1.3821
  473MOL0     H62399   8.604   2.851   4.978  1.9029 -3.8966 -1.7554
  473MOL0     H62400   8.888   3.011   4.829  0.7759  1.4730 -2.8088
  473MOL0     H62401   9.115   3.103   4.744 -2.9502 -4.4390 -3.2727
  473MOL0     H62402   9.452   2.952   4.923 -0.8880  1.4393  1.0727
  473MOL0     H62403   9.503   3.112   4.974  1.3748 -0.3051 -0.9266
  473MOL0     H62404   9.513   3.173   4.723  0.6239  0.2264  1.2907
  473MOL0     H62405   9.509   2.998   4.696  4.6508 -1.3362 -0.5871
  473MOL0     H62406   9.738   3.042   4.694 -0.3042  2.2244 -0.6181
  473MOL0     H62407   9.703   2.950   4.844 -0.6348 -0.2848 -1.1040
  473MOL0     H62408   9.766   3.245   4.800  1.9977 -0.2636 -1.7971
  473MOL0     H62409   9.719   3.169   4.958  0.6751 -3.1025  1.0583
  473MOL0     H62410   9.937   3.014   4.862  0.8223  1.5959 -2.7612
  473MOL0     H62411   9.928   3.133   4.997 -0.5222  1.1313 -0.1431
  473MOL0     H62412   9.999   3.313   4.837  1.3231  0.0589  0.6801
  473MOL0     H62413   9.999   3.185   4.712 -1.0257 -0.5121  0.6264
  473MOL0     H62414  10.168   3.232   4.961 -1.2170  2.1139 -2.1621
  473MOL0     H62415  10.169   3.069   4.874 -0.9213 -0.4438  0.7606
  473MOL0     H62416  10.239   3.344   4.763  0.9013 -0.8014  1.3795
  473MOL0     H62417  10.212   3.197   4.664  0.0500 -1.2054 -0.3295
  473MOL0     H62418   9.288   2.964   5.120  0.2989 -3.7660 -1.2746
  473MOL0     H62419   9.079   2.879   5.192 -1.0918 -1.6098 -0.1396
  473MOL0     H62420   8.685   2.666   5.356  1.0790  1.7293 -0.6968
  473MOL0     H62421   8.460   2.567   5.361  0.0577  0.3041  0.4247
  473MOL0     H62422   7.949   1.782   4.406 -1.2217  1.3836  1.0694
  473MOL0     H62423   8.162   1.824   4.281 -0.0628 -0.9255  0.4868
  473MOL0     H62424   8.775   1.855   4.484  3.4633 -1.9703 -0.4174
  473MOL0     H62425   8.963   1.890   4.316  0.1568 -0.6668 -0.4208
  473MOL0     H62426   9.119   2.035   4.189  0.7304  0.0621 -1.0474
  473MOL0     H62427   9.016   2.185   4.187 -0.9546 -0.1998  0.3409
  473MOL0     H62428   9.204   2.222   4.026 -0.2271 -0.4661  1.0363
  473MOL0     H62429   9.180   2.071   3.947  0.8264  0.3665  0.9009
  473MOL0     H62430   8.964   2.283   3.965 -1.0150 -0.1829 -0.5828
  473MOL0     H62431   8.967   2.141   3.854 -1.5506 -0.4612  1.5044
  473MOL0     H62432   9.033   2.393   3.755  0.4086  0.3092 -0.2390
  473MOL0     H62433   9.172   2.383   3.848 -2.5177  4.3801 -0.0128
  473MOL0     H62434   9.241   2.091   3.527  3.1454 -1.3227  2.0018
  473MOL0     H62435   8.690   2.067   4.038  5.9549  0.0139 -2.0420
  473MOL0     H62436   8.490   2.007   4.190 -1.0512 -3.0493  0.2472
  474MOL0     O62437  10.647  11.136   3.595  0.0791 -0.9576  0.4038
  474MOL0     C62438  10.658  11.038   3.526  0.3119  0.7164  0.3487
  474MOL0     O62439  10.563  10.948   3.496  0.0941  0.3069  0.7479
  474MOL0     C62440  10.429  10.964   3.507 -0.1803 -0.1697 -0.0540
  474MOL0     C62441  10.354  11.066   3.572 -0.0495  0.4288 -0.9155
  474MOL0     C62442  10.214  11.055   3.578  0.3864 -0.7195  0.1269
  474MOL0     C62443  10.135  10.971   3.499 -0.9243  0.3006 -0.6609
  474MOL0     O62444   9.994  10.964   3.504 -1.3509  0.7465  0.3102
  474MOL0     C62445   9.913  11.072   3.551  0.0162  0.3931  0.0561
  474MOL0     C62446   9.896  11.167   3.436  0.3090 -0.0668 -0.0457
  474MOL0     C62447   9.786  11.138   3.334  0.6075  0.1020  0.0475
  474MOL0     C62448   9.651  11.148   3.403  0.3096 -1.1546 -0.3206
  474MOL0     C62449   9.566  11.153   3.272  0.3572  0.4066  0.6378
  474MOL0     C62450   9.412  11.153   3.298  0.3423 -0.5322  0.0309
  474MOL0     C62451   9.349  11.037   3.380  0.4752 -0.8863  0.6800
  474MOL0     C62452   9.197  11.051   3.377 -0.4306  0.8599 -0.0419
  474MOL0     N62453   9.154  11.173   3.446 -0.6818  0.4032  0.4968
  474MOL0     C62454   9.157  11.173   3.587  0.3244 -0.1514 -0.1089
  474MOL0     C62455   9.145  11.301   3.611 -0.2464  0.0101  0.9685
  474MOL0     C62456   9.111  11.352   3.744  0.1806  0.2794 -0.3599
  474MOL0     C62457   8.959  11.326   3.776 -0.7619  0.0478 -0.0728
  474MOL0     C62458   8.876  11.447   3.739  0.2449 -0.7352  0.0767
  474MOL0     C62459   8.764  11.460   3.846 -0.5776  0.1514  0.0653
  474MOL0     O62460   8.667  11.563   3.804 -0.0704 -0.0180  0.0981
  474MOL0     C62461   8.535  11.552   3.840  0.6170 -0.0047 -0.5819
  474MOL0     C62462   8.446  11.637   3.784  0.0994  0.4908  0.4321
  474MOL0     C62463   8.305  11.628   3.803 -0.1021  0.7294 -0.0831
  474MOL0     C62464   8.256  11.539   3.899  0.3458  0.3136 -0.4525
  474MOL0     C62465   8.110  11.527   3.937 -0.9416  0.0729 -0.3015
  474MOL0     O62466   8.023  11.627   3.900 -0.1912  0.1920 -0.3706
  474MOL0     C62467   7.882  11.625   3.903 -0.4483 -0.1687 -0.5663
  474MOL0     C62468   7.800  11.541   3.977  0.3424 -0.4667 -0.0652
  474MOL0     C62469   7.658  11.566   3.999 -0.1358 -0.1822  1.1172
  474MOL0     C62470   7.609  11.677   3.925  0.6194  0.5191  0.3777
  474MOL0     O62471   7.483  11.704   3.915 -0.1672  0.0886  0.1885
  474MOL0     C62472   7.390  11.608   3.952 -0.3355  0.1900  0.3534
  474MOL0     C62473   7.251  11.643   3.911  0.0035 -0.1509  0.2126
  474MOL0     C62474   7.150  11.525   3.910  0.3612  0.4418  0.3118
  474MOL0     C62475   7.014  11.578   3.970 -0.2387  0.5889 -0.5857
  474MOL0     C62476   6.910  11.466   3.962  0.1175 -0.1532  0.2519
  474MOL0     C62477   6.843  11.446   3.831 -0.0622  0.1952  0.7090
  474MOL0     C62478   6.732  11.341   3.835 -0.1931 -0.2706 -0.9998
  474MOL0     C62479   6.620  11.376   3.935  0.2946 -0.7813 -0.1849
  474MOL0    Cl62480   6.463  11.282   3.908  0.4018  0.2143  0.2261
  474MOL0     C62481   7.693  11.759   3.851 -0.6069  0.8326 -0.1125
  474MOL0     C62482   7.825  11.732   3.837  0.4685 -0.1076 -0.9752
  474MOL0     O62483   8.077  11.424   3.988 -0.1333  0.3963 -0.1530
  474MOL0     C62484   8.354  11.457   3.970  0.7083 -0.0865 -0.0448
  474MOL0     C62485   8.489  11.469   3.938 -0.0534  0.4528 -0.6407
  474MOL0     N62486   9.140  11.371   3.494 -0.7940  0.7710 -0.0301
  474MOL0     N62487   9.147  11.292   3.393  0.1693  0.5654 -0.0086
  474MOL0     C62488  10.211  10.880   3.429  0.4679 -0.3787  0.6685
  474MOL0     C62489  10.352  10.871   3.437 -0.3265  0.5040 -0.0158
  474MOL0     C62490  10.802  11.011   3.492  0.2588 -0.0991 -0.5622
  474MOL0     C62491  10.832  10.905   3.406  0.2382 -1.1791  0.5548
  474MOL0     C62492  10.964  10.884   3.367  0.3275 -0.0983 -0.1688
  474MOL0     C62493  11.070  10.951   3.411  1.3918 -0.2305 -1.4270
  474MOL0     O62494  11.194  10.928   3.368  0.2580  0.2556  0.1879
  474MOL0     C62495  11.300  11.002   3.422  0.1861 -0.7413 -0.4510
  474MOL0     C62496  11.443  10.947   3.385  0.2181 -1.0908  0.7439
  474MOL0     C62497  11.492  10.837   3.480 -0.4294  0.1672 -0.4436
  474MOL0     C62498  11.643  10.834   3.486 -0.7543  0.0886 -0.0122
  474MOL0     C62499  11.700  10.704   3.534 -0.9710  0.7103 -0.5628
  474MOL0     C62500  11.738  10.603   3.589  0.0124 -0.3015 -0.0363
  474MOL0     C62501  11.037  11.055   3.509  0.6192 -0.2393  0.0169
  474MOL0     C62502  10.909  11.091   3.548  0.5371  0.3411  0.7622
  474MOL0     H62503  10.406  11.146   3.625  0.8442 -0.1557 -0.8853
  474MOL0     H62504  10.167  11.125   3.646  0.9639 -0.8311  0.6434
  474MOL0     H62505   9.955  11.118   3.641 -0.6793 -0.8143  1.0209
  474MOL0     H62506   9.820  11.025   3.582  0.8338 -1.4481 -0.1268
  474MOL0     H62507   9.991  11.186   3.387  2.0295  1.6823  3.5615
  474MOL0     H62508   9.860  11.264   3.473 -0.9821 -1.4420  2.5913
  474MOL0     H62509   9.789  11.048   3.271  2.0276  0.2852 -0.1773
  474MOL0     H62510   9.786  11.224   3.267  0.7512  0.0038 -0.0808
  474MOL0     H62511   9.617  11.065   3.465  1.4947 -0.6533  1.0575
  474MOL0     H62512   9.631  11.240   3.458 -0.2364 -1.2510 -0.3504
  474MOL0     H62513   9.578  11.059   3.216 -0.4067 -0.7419  2.3328
  474MOL0     H62514   9.591  11.237   3.206  1.5950 -0.0968  0.4437
  474MOL0     H62515   9.355  11.153   3.205 -0.2163 -2.9975  0.2803
  474MOL0     H62516   9.401  11.249   3.348  0.8671  0.4399 -1.6489
  474MOL0     H62517   9.378  10.941   3.335  1.7997 -1.0857  1.8855
  474MOL0     H62518   9.390  11.030   3.481 -2.0277  1.8029  2.0439
  474MOL0     H62519   9.151  10.965   3.426 -3.1081  1.5453 -1.1434
  474MOL0     H62520   9.158  11.054   3.275  0.3526 -0.2683 -0.3874
  474MOL0     H62521   9.139  11.093   3.659 -2.2616 -1.6086 -2.2097
  474MOL0     H62522   9.143  11.455   3.762  2.2662 -0.3410 -0.2573
  474MOL0     H62523   9.170  11.292   3.815 -0.9832 -0.0740  0.3420
  474MOL0     H62524   8.947  11.301   3.882 -1.9133  1.5349  0.1799
  474MOL0     H62525   8.927  11.236   3.724 -0.7034 -0.9178  1.4993
  474MOL0     H62526   8.928  11.542   3.723 -0.5670 -0.4108 -0.7121
  474MOL0     H62527   8.824  11.436   3.643 -1.1698  0.3722  0.6776
  474MOL0     H62528   8.814  11.498   3.936  2.1905 -0.4276 -1.1125
  474MOL0     H62529   8.722  11.361   3.865 -0.0093 -0.7600 -2.8706
  474MOL0     H62530   8.485  11.708   3.711  0.2644 -1.5313 -1.5443
  474MOL0     H62531   8.230  11.686   3.751 -1.1961 -0.6301 -0.0742
  474MOL0     H62532   7.843  11.457   4.031  0.1756  0.7390  2.0666
  474MOL0     H62533   7.597  11.485   4.039 -1.3550  0.1015 -0.0869
  474MOL0     H62534   7.388  11.583   4.058 -1.0894  2.2316  0.8797
  474MOL0     H62535   7.421  11.519   3.898 -0.4402  1.1254 -1.3281
  474MOL0     H62536   7.250  11.683   3.810  0.8662  0.7797  0.5560
  474MOL0     H62537   7.215  11.720   3.980 -0.7468 -0.4587  0.1665
  474MOL0     H62538   7.180  11.437   3.967  0.2078 -0.4401 -0.9091
  474MOL0     H62539   7.132  11.489   3.808 -0.2468  1.8064 -0.0840
  474MOL0     H62540   7.029  11.608   4.074 -1.7790 -0.2083 -0.0933
  474MOL0     H62541   6.986  11.672   3.920  0.7027  1.5923  0.7230
  474MOL0     H62542   6.835  11.488   4.038 -0.8130 -0.8377 -0.4377
  474MOL0     H62543   6.952  11.369   3.990 -0.5272 -1.0885 -1.7969
  474MOL0     H62544   6.922  11.413   3.762 -1.5031 -0.8878 -0.4871
  474MOL0     H62545   6.804  11.544   3.802 -2.8624 -0.7877  0.8731
  474MOL0     H62546   6.694  11.341   3.732 -0.3574  1.1492 -0.9682
  474MOL0     H62547   6.778  11.247   3.864 -0.5838 -0.6056 -1.4548
  474MOL0     H62548   6.591  11.482   3.928  1.4700 -0.4503 -0.3704
  474MOL0     H62549   6.649  11.344   4.036  0.6470 -2.8818 -0.9012
  474MOL0     H62550   7.648  11.832   3.785  0.0749  0.5601 -0.8940
  474MOL0     H62551   7.889  11.805   3.789  3.4123 -1.1334  1.0548
  474MOL0     H62552   8.323  11.379   4.039  1.5940 -2.4807 -2.2086
  474MOL0     H62553   8.571  11.432   3.998  0.4999  3.0937  0.3658
  474MOL0     H62554  10.147  10.819   3.365 -1.3189  0.4437  1.5857
  474MOL0     H62555  10.402  10.800   3.372 -2.2663 -0.0949 -0.9579
  474MOL0     H62556  10.756  10.844   3.357 -0.2604 -0.3362  0.2596
  474MOL0     H62557  10.987  10.816   3.285 -0.5748 -0.4099 -0.1799
  474MOL0     H62558  11.299  11.000   3.532 -1.5069 -2.0942 -0.4349
  474MOL0     H62559  11.292  11.107   3.392  0.5332 -0.6112 -0.0979
  474MOL0     H62560  11.440  10.914   3.281 -0.8178  1.2691 -0.0425
  474MOL0     H62561  11.518  11.025   3.375 -1.2331  0.2815  0.1452
  474MOL0     H62562  11.462  10.739   3.441  1.1530 -0.7249  0.4725
  474MOL0     H62563  11.458  10.860   3.581  3.2103  1.3499  0.6606
  474MOL0     H62564  11.672  10.859   3.383  2.3341 -1.5710  0.3405
  474MOL0     H62565  11.677  10.912   3.554  0.7301 -0.8247  0.3449
  474MOL0     H62566  11.773  10.514   3.636  2.9118  0.5812 -0.3553
  474MOL0     H62567  11.116  11.121   3.543 -0.4610  0.5135  1.1775
  474MOL0     H62568  10.882  11.171   3.616  0.0431 -1.4264  2.7401
  475MOL0     O62569   6.307   7.259   5.722 -0.4065  0.1176 -0.1931
  475MOL0     C62570   6.354   7.152   5.752  0.1642 -0.3177 -0.4331
  475MOL0     O62571   6.283   7.050   5.798  0.7150  0.7605  0.3184
  475MOL0     C62572   6.147   7.037   5.772 -0.7454 -0.0690  0.0014
  475MOL0     C62573   6.070   6.990   5.875 -0.5534 -0.3740 -0.2940
  475MOL0     C62574   5.928   6.965   5.857 -0.9282 -0.7599 -0.6903
  475MOL0     C62575   5.864   7.005   5.737 -0.4265 -0.2380 -0.4501
  475MOL0     O62576   5.726   6.981   5.742 -0.1570  0.0875  0.3517
  475MOL0     C62577   5.673   6.896   5.639 -0.1046  0.2011 -0.6943
  475MOL0     C62578   5.539   6.835   5.675 -0.5694 -0.5129  0.7740
  475MOL0     C62579   5.436   6.939   5.712  0.2536  0.8599 -0.0205
  475MOL0     C62580   5.305   6.862   5.739  0.2692 -0.4502  0.1758
  475MOL0     C62581   5.182   6.954   5.756  0.3912  0.8753 -0.0246
  475MOL0     C62582   5.063   6.877   5.794  0.2015  0.4055  0.6400
  475MOL0     C62583   4.944   6.950   5.729 -0.0719 -0.8375 -0.4712
  475MOL0     C62584   4.803   6.896   5.767 -0.8362 -0.0438 -0.3345
  475MOL0     N62585   4.687   6.965   5.716 -0.1635  0.0092  0.2136
  475MOL0     C62586   4.571   7.011   5.779 -0.1844  0.4745  0.4178
  475MOL0     C62587   4.502   7.051   5.669 -0.2995 -0.8182 -0.3079
  475MOL0     C62588   4.368   7.112   5.666  1.1709  0.6780  0.2051
  475MOL0     C62589   4.254   7.004   5.691  0.0395 -0.7530  0.1050
  475MOL0     C62590   4.118   7.054   5.644  0.3929 -0.0319 -0.1939
  475MOL0     C62591   4.002   6.988   5.719 -0.4675  0.0954 -0.6098
  475MOL0     O62592   3.887   7.047   5.657 -0.2411  0.1179  0.3873
  475MOL0     C62593   3.769   7.046   5.723 -0.1679 -0.4263  0.0860
  475MOL0     C62594   3.687   7.164   5.718 -0.4787 -0.2456  0.6395
  475MOL0     C62595   3.573   7.183   5.793 -0.4330  0.5375 -0.1937
  475MOL0     C62596   3.524   7.080   5.886  0.5903 -1.1622  0.9929
  475MOL0     C62597   3.404   7.100   5.967  0.1066 -0.8416 -0.2714
  475MOL0     O62598   3.314   7.192   5.920 -0.0942  0.3666  0.3834
  475MOL0     C62599   3.184   7.204   5.961  0.3221  0.0084 -0.6457
  475MOL0     C62600   3.098   7.099   6.005  0.1035  0.9576 -0.0015
  475MOL0     C62601   2.963   7.123   6.022  0.2764  0.0634 -0.0076
  475MOL0     C62602   2.906   7.248   5.988 -0.1903 -0.5525  0.3526
  475MOL0     O62603   2.770   7.280   5.984 -0.8300 -0.0941 -1.0385
  475MOL0     C62604   2.704   7.294   6.117 -0.1004  0.8967  0.3699
  475MOL0     C62605   2.550   7.300   6.099 -0.2567  0.3197  0.6404
  475MOL0     C62606   2.512   7.427   6.028  0.9168  0.0629 -0.4514
  475MOL0     C62607   2.356   7.443   6.021  0.4104  0.4546  0.5320
  475MOL0     C62608   2.333   7.585   5.954 -0.7231  0.9378 -0.2287
  475MOL0     C62609   2.188   7.618   5.916  0.2411 -0.5713  0.4879
  475MOL0     C62610   2.118   7.517   5.831  0.4094  0.6964  0.1446
  475MOL0     C62611   1.980   7.552   5.788 -0.7080 -0.8887 -0.2331
  475MOL0    Cl62612   1.924   7.415   5.684  0.1431 -0.2686  0.1235
  475MOL0     C62613   2.987   7.346   5.945 -0.2083  0.4160 -0.3715
  475MOL0     C62614   3.122   7.322   5.930  0.1132  0.4352  0.7118
  475MOL0     O62615   3.386   7.027   6.073  0.0705 -0.2443  1.0885
  475MOL0     C62616   3.604   6.966   5.894 -0.3458  0.0872 -0.5363
  475MOL0     C62617   3.728   6.955   5.824  0.6502 -0.1513 -0.5563
  475MOL0     N62618   4.555   7.018   5.554  0.1731  0.0807  0.0262
  475MOL0     N62619   4.676   6.979   5.578 -0.0469 -0.4065 -0.2866
  475MOL0     C62620   5.943   7.049   5.635 -0.7013 -0.7362 -0.1479
  475MOL0     C62621   6.090   7.062   5.646  0.1620 -0.5772 -0.1929
  475MOL0     C62622   6.502   7.134   5.750 -0.5972 -0.7450  0.0233
  475MOL0     C62623   6.597   7.241   5.745  0.0852 -0.3645  0.3808
  475MOL0     C62624   6.732   7.219   5.741 -0.2930  0.7871  0.0012
  475MOL0     C62625   6.789   7.088   5.755 -0.2185 -0.3638 -0.3642
  475MOL0     O62626   6.923   7.071   5.758  0.3079 -0.3949  0.3851
  475MOL0     C62627   6.980   6.970   5.844 -0.1639  0.3975 -0.4316
  475MOL0     C62628   7.111   7.013   5.902  0.0760  0.0512 -0.3010
  475MOL0     C62629   7.183   7.089   5.804  0.2565 -0.7597  0.0403
  475MOL0     C62630   7.323   7.114   5.862 -0.5177  0.3275 -0.9594
  475MOL0     C62631   7.411   7.187   5.772 -0.0701 -0.2726  0.1853
  475MOL0     C62632   7.504   7.239   5.714 -0.2543 -0.3139  0.1337
  475MOL0     C62633   6.693   6.987   5.762 -0.3680 -1.2009  0.4779
  475MOL0     C62634   6.556   7.005   5.758  0.6019 -0.5243  0.9307
  475MOL0     H62635   6.123   6.977   5.969 -2.1661 -1.1222  0.5711
  475MOL0     H62636   5.878   6.925   5.945  0.2143  0.0037  0.3329
  475MOL0     H62637   5.743   6.816   5.610  1.3290  1.8848 -2.1180
  475MOL0     H62638   5.662   6.962   5.553 -1.8559 -0.5652 -1.1119
  475MOL0     H62639   5.548   6.764   5.757 -0.5498 -0.5129  0.7721
  475MOL0     H62640   5.500   6.784   5.586  1.0320  1.2500 -1.0232
  475MOL0     H62641   5.412   7.016   5.638 -0.3895  2.7861  2.0454
  475MOL0     H62642   5.473   6.992   5.800 -1.2244  1.5358  0.2330
  475MOL0     H62643   5.276   6.814   5.645 -0.7155  0.2635  0.1003
  475MOL0     H62644   5.320   6.784   5.814 -1.5048 -1.2001 -0.1936
  475MOL0     H62645   5.157   7.016   5.670  2.1346 -0.8994 -1.9224
  475MOL0     H62646   5.193   7.028   5.836 -2.7942  2.1780 -0.6380
  475MOL0     H62647   5.042   6.875   5.902  0.2876 -3.1874  0.7111
  475MOL0     H62648   5.067   6.770   5.770 -0.1819  0.9541 -2.1576
  475MOL0     H62649   4.944   7.050   5.774  2.4585 -0.2595 -1.5927
  475MOL0     H62650   4.958   6.947   5.621 -0.7236 -2.6229 -0.5364
  475MOL0     H62651   4.799   6.895   5.876 -0.1851 -1.9001 -0.2965
  475MOL0     H62652   4.807   6.789   5.743  0.5996  0.2585 -1.6586
  475MOL0     H62653   4.537   7.006   5.882 -2.7829  1.2433 -0.2998
  475MOL0     H62654   4.360   7.157   5.567 -5.4785 -1.5633 -0.7557
  475MOL0     H62655   4.355   7.191   5.740  2.4422  1.6147 -0.5295
  475MOL0     H62656   4.255   6.979   5.797 -0.0797 -0.7462  0.1080
  475MOL0     H62657   4.287   6.910   5.645  2.4007 -1.0757  2.2591
  475MOL0     H62658   4.115   7.160   5.671 -0.2195 -0.1006  0.0199
  475MOL0     H62659   4.096   7.041   5.537 -3.9360  0.3338  0.4680
  475MOL0     H62660   4.020   6.998   5.826  3.0065  1.0764 -1.1680
  475MOL0     H62661   4.003   6.879   5.712 -0.9628 -0.0162  0.8047
  475MOL0     H62662   3.737   7.243   5.665 -0.8841 -0.8114 -0.6234
  475MOL0     H62663   3.524   7.280   5.798  2.0648  1.8271  0.9385
  475MOL0     H62664   3.141   7.002   6.030 -1.5398  0.5363  1.3390
  475MOL0     H62665   2.888   7.057   6.064  0.5961 -0.6166 -0.5022
  475MOL0     H62666   2.738   7.390   6.157 -0.1551 -0.2836  3.4659
  475MOL0     H62667   2.743   7.210   6.174 -2.1373 -0.9505 -0.7822
  475MOL0     H62668   2.518   7.307   6.203 -1.2364 -2.6207  0.6197
  475MOL0     H62669   2.495   7.214   6.061 -0.1904  1.4591 -2.3378
  475MOL0     H62670   2.544   7.420   5.924 -0.4248 -1.4412 -0.7962
  475MOL0     H62671   2.564   7.516   6.065 -0.2573  1.0507 -1.0778
  475MOL0     H62672   2.308   7.364   5.963  0.6369 -1.2436  2.5578
  475MOL0     H62673   2.314   7.436   6.121 -1.0952  0.3114 -0.0820
  475MOL0     H62674   2.385   7.592   5.858 -0.4639 -0.9986 -0.2629
  475MOL0     H62675   2.370   7.662   6.022  2.9068 -1.9671  1.3929
  475MOL0     H62676   2.188   7.712   5.860 -0.3607  0.0295  1.4397
  475MOL0     H62677   2.127   7.631   6.007  0.2766  3.7418  0.1160
  475MOL0     H62678   2.169   7.494   5.737 -0.4750  2.3209 -0.7930
  475MOL0     H62679   2.111   7.423   5.886  1.6663  0.0284 -0.8095
  475MOL0     H62680   1.980   7.652   5.744  0.6374 -2.2764 -3.6767
  475MOL0     H62681   1.917   7.559   5.878  0.1304  0.1528  0.2972
  475MOL0     H62682   2.944   7.443   5.920 -0.0027  0.2352 -1.4724
  475MOL0     H62683   3.180   7.398   5.879  2.7329 -1.5462  0.5514
  475MOL0     H62684   3.568   6.894   5.966  0.7909  0.7725  0.7840
  475MOL0     H62685   3.787   6.870   5.857  0.9277  0.4452  0.5387
  475MOL0     H62686   5.889   7.088   5.550  1.3134  0.8597 -0.7801
  475MOL0     H62687   6.140   7.111   5.563  0.9031  1.4906  1.3828
  475MOL0     H62688   6.576   7.348   5.742  3.9052  0.5117  0.1831
  475MOL0     H62689   6.806   7.296   5.722  3.1597 -2.5666 -1.4741
  475MOL0     H62690   7.003   6.883   5.782  0.8844 -0.5182  1.1539
  475MOL0     H62691   6.903   6.929   5.911 -0.2903  0.6934 -0.3904
  475MOL0     H62692   7.096   7.063   5.999 -0.3014 -1.3424  0.3925
  475MOL0     H62693   7.169   6.923   5.930 -0.0186  0.7138  2.3058
  475MOL0     H62694   7.140   7.189   5.791 -0.8787 -1.3626 -1.0822
  475MOL0     H62695   7.168   7.043   5.706 -1.9502  1.1586 -0.6137
  475MOL0     H62696   7.309   7.159   5.960  1.1819  0.8145 -0.9131
  475MOL0     H62697   7.356   7.012   5.884 -1.9742  0.4474  2.3432
  475MOL0     H62698   7.584   7.280   5.657 -1.3825 -1.0165 -2.0896
  475MOL0     H62699   6.722   6.883   5.750 -1.4841 -1.6465  1.4685
  475MOL0     H62700   6.490   6.919   5.747 -0.0810 -0.3554  3.2440
  476MOL0     O62701   1.982   4.524   4.721  0.3430 -0.3909 -0.4639
  476MOL0     C62702   2.039   4.561   4.622  0.0773 -0.2039 -0.5471
  476MOL0     O62703   1.976   4.620   4.520  0.9194  0.8051  0.2568
  476MOL0     C62704   1.836   4.627   4.522  0.4200 -0.5243 -1.0822
  476MOL0     C62705   1.754   4.554   4.436 -0.6356 -0.0704 -0.7175
  476MOL0     C62706   1.614   4.558   4.459  0.8319  0.0362 -0.2077
  476MOL0     C62707   1.560   4.646   4.550  0.3741  0.0827 -0.7883
  476MOL0     O62708   1.421   4.648   4.563 -0.4360 -0.7117 -0.2889
  476MOL0     C62709   1.356   4.719   4.669  1.3454 -0.4845  0.2020
  476MOL0     C62710   1.207   4.724   4.642 -0.5649  0.5555  0.8843
  476MOL0     C62711   1.148   4.594   4.708 -0.7382 -0.5809  0.2364
  476MOL0     C62712   0.988   4.585   4.696  0.3393 -0.1078  0.2099
  476MOL0     C62713   0.933   4.457   4.760 -0.6653  0.6272 -0.6398
  476MOL0     C62714   0.787   4.446   4.717 -0.7056  0.7180 -0.6363
  476MOL0     C62715   0.727   4.314   4.779  0.8101 -0.3288  0.2883
  476MOL0     C62716   0.575   4.330   4.766 -0.0802 -0.5340 -0.5380
  476MOL0     N62717   0.501   4.247   4.857 -0.1902 -0.4722 -0.6502
  476MOL0     C62718   0.489   4.105   4.860 -0.1883 -0.3359  0.2161
  476MOL0     C62719   0.410   4.080   4.959  0.9425 -0.4041 -0.5834
  476MOL0     C62720   0.380   3.937   5.007 -0.1812 -0.5397 -0.6005
  476MOL0     C62721   0.318   3.859   4.888  0.4072  0.2522 -0.4130
  476MOL0     C62722   0.287   3.713   4.919 -0.6682 -0.0085 -0.0088
  476MOL0     C62723   0.216   3.698   5.051  0.3577  0.2410 -0.4274
  476MOL0     O62724   0.168   3.566   5.054 -0.3001 -0.1146 -0.6457
  476MOL0     C62725   0.036   3.550   5.071  0.0568  0.1076 -0.4268
  476MOL0     C62726  -0.044   3.569   4.959 -0.9692  0.1192  0.2278
  476MOL0     C62727  -0.188   3.557   4.972 -0.2375  0.0560  0.0609
  476MOL0     C62728  -0.248   3.520   5.095 -0.2549  0.2522  0.0509
  476MOL0     C62729  -0.401   3.514   5.108 -0.7308 -0.0177 -0.1575
  476MOL0     O62730  -0.445   3.460   5.220 -0.3322  0.3187  0.1610
  476MOL0     C62731  -0.577   3.437   5.236 -0.2966  0.2168  0.7898
  476MOL0     C62732  -0.628   3.455   5.363 -0.2108 -0.1550 -0.0461
  476MOL0     C62733  -0.762   3.430   5.383 -0.2811 -0.4070 -0.5151
  476MOL0     C62734  -0.842   3.377   5.282 -0.0568 -0.0202  0.0061
  476MOL0     O62735  -0.977   3.362   5.289 -0.6702 -0.5603  0.0061
  476MOL0     C62736  -1.011   3.226   5.325 -0.1212 -0.0209 -0.5431
  476MOL0     C62737  -1.166   3.221   5.308 -0.1077  0.2321  0.0841
  476MOL0     C62738  -1.224   3.076   5.328  0.2009  0.1096 -0.8535
  476MOL0     C62739  -1.373   3.064   5.310  0.6263 -0.4943  0.0238
  476MOL0     C62740  -1.417   2.924   5.328  0.0513 -0.6676  0.2692
  476MOL0     C62741  -1.569   2.926   5.331  0.2175  0.2150 -0.1585
  476MOL0     C62742  -1.639   2.948   5.471 -0.2649  0.5687 -0.1587
  476MOL0     C62743  -1.792   2.986   5.461 -0.1236 -0.0761 -0.4920
  476MOL0    Cl62744  -1.878   2.860   5.364  0.2204 -0.1491  0.0845
  476MOL0     C62745  -0.792   3.356   5.160  0.3473  0.0837 -1.0937
  476MOL0     C62746  -0.662   3.381   5.138  0.2438 -0.3903 -0.2063
  476MOL0     O62747  -0.475   3.561   5.015 -0.8816 -0.3962 -0.2894
  476MOL0     C62748  -0.159   3.492   5.203 -0.0241  0.2042  0.1000
  476MOL0     C62749  -0.021   3.512   5.190  0.1993  1.2327 -0.6335
  476MOL0     N62750   0.386   4.200   5.023 -0.1162 -0.1334 -0.3338
  476MOL0     N62751   0.434   4.298   4.957  0.5089 -0.4024  0.2338
  476MOL0     C62752   1.648   4.724   4.628 -0.0019 -0.1243  0.6859
  476MOL0     C62753   1.781   4.715   4.613 -0.0375  0.3475  0.3571
  476MOL0     C62754   2.183   4.575   4.622  0.4017  0.4349  0.1228
  476MOL0     C62755   2.258   4.595   4.502 -0.0097 -0.5300  0.1433
  476MOL0     C62756   2.398   4.602   4.502  1.0056  1.4359  0.6902
  476MOL0     C62757   2.471   4.581   4.624 -0.1808  0.4417 -0.6306
  476MOL0     O62758   2.611   4.593   4.631 -0.3815  0.0202 -0.3724
  476MOL0     C62759   2.686   4.575   4.512 -0.1504  0.2286  0.8247
  476MOL0     C62760   2.831   4.556   4.538 -0.3266 -0.8103  0.9379
  476MOL0     C62761   2.899   4.523   4.406 -0.6268 -0.1873  0.0379
  476MOL0     C62762   3.057   4.530   4.427 -0.3205  0.1244 -0.6415
  476MOL0     C62763   3.117   4.479   4.305 -1.0741  0.4329  0.4832
  476MOL0     C62764   3.183   4.421   4.224  0.8189 -0.5167  0.1412
  476MOL0     C62765   2.393   4.560   4.736  0.8565  0.0386 -0.5943
  476MOL0     C62766   2.253   4.567   4.746 -0.1695  0.7070  0.1316
  476MOL0     H62767   1.786   4.483   4.361  0.2005  1.8887 -2.2884
  476MOL0     H62768   1.540   4.497   4.408  1.1886 -0.4811 -0.1176
  476MOL0     H62769   1.397   4.821   4.675  3.3641 -1.2571  0.5310
  476MOL0     H62770   1.378   4.676   4.767  0.7881  1.6283  1.3131
  476MOL0     H62771   1.197   4.717   4.533  2.3343  0.7462  0.5231
  476MOL0     H62772   1.153   4.808   4.686 -0.4962  1.1723 -0.1552
  476MOL0     H62773   1.170   4.591   4.815 -0.4102 -1.6308  0.1536
  476MOL0     H62774   1.208   4.516   4.661  0.7772  1.2340 -0.9940
  476MOL0     H62775   0.939   4.669   4.747  0.6420 -0.6906  1.4949
  476MOL0     H62776   0.957   4.602   4.593  1.7277  0.9931 -0.0500
  476MOL0     H62777   0.942   4.457   4.869 -0.2344  2.2811 -0.6423
  476MOL0     H62778   0.987   4.367   4.727  1.2543  1.4117  0.1889
  476MOL0     H62779   0.782   4.445   4.608 -0.4245 -2.0394 -0.6826
  476MOL0     H62780   0.731   4.529   4.762  0.0121 -0.5910  2.9894
  476MOL0     H62781   0.764   4.223   4.731  1.0213 -1.5570  2.6476
  476MOL0     H62782   0.751   4.313   4.885 -0.0457 -1.5166  0.4804
  476MOL0     H62783   0.545   4.306   4.664  2.0812 -0.2648 -1.2796
  476MOL0     H62784   0.542   4.435   4.764  2.6218  0.4520  1.3239
  476MOL0     H62785   0.534   4.031   4.794 -0.2455  0.8500 -1.1971
  476MOL0     H62786   0.325   3.937   5.102  1.1435 -2.0312  0.2112
  476MOL0     H62787   0.471   3.888   5.044  1.3291  0.3891 -2.8675
  476MOL0     H62788   0.398   3.864   4.814  1.3096 -0.0549  0.5117
  476MOL0     H62789   0.228   3.913   4.856  0.6448  0.4651 -0.7290
  476MOL0     H62790   0.226   3.663   4.843 -2.3464 -0.6184  1.6798
  476MOL0     H62791   0.385   3.664   4.923 -0.6548 -0.0107 -0.3444
  476MOL0     H62792   0.140   3.776   5.054  0.5468  0.4030  1.8292
  476MOL0     H62793   0.282   3.716   5.137  1.9803  3.2735 -2.1535
  476MOL0     H62794   0.002   3.594   4.864 -4.3810  1.4034 -1.2321
  476MOL0     H62795  -0.256   3.589   4.895 -0.8703  2.4440  1.4912
  476MOL0     H62796  -0.564   3.491   5.442 -1.0491 -0.3331  0.7334
  476MOL0     H62797  -0.807   3.450   5.480 -0.8950 -0.4798 -0.7799
  476MOL0     H62798  -0.986   3.189   5.425 -2.0356 -1.5531 -0.5713
  476MOL0     H62799  -0.963   3.174   5.242  1.3336  1.7835 -0.9010
  476MOL0     H62800  -1.191   3.236   5.202  2.4489 -0.9449 -0.7642
  476MOL0     H62801  -1.207   3.293   5.379  0.6525 -0.5139  1.3111
  476MOL0     H62802  -1.197   3.045   5.430  0.5462  2.6394 -0.1148
  476MOL0     H62803  -1.170   3.018   5.252  0.0434 -1.2996  0.0525
  476MOL0     H62804  -1.425   3.132   5.379 -0.4112  1.1853 -2.2636
  476MOL0     H62805  -1.391   3.108   5.211 -0.4926  2.0451  1.2483
  476MOL0     H62806  -1.383   2.883   5.423 -0.1022 -0.5306  0.3862
  476MOL0     H62807  -1.389   2.864   5.242  0.7715 -0.1849  0.1644
  476MOL0     H62808  -1.589   2.825   5.296  0.9948 -0.1508  0.4346
  476MOL0     H62809  -1.605   2.991   5.251  1.6666 -1.6754 -2.4692
  476MOL0     H62810  -1.641   2.853   5.524 -2.4942  0.4520 -0.3689
  476MOL0     H62811  -1.573   3.020   5.521 -1.0358  2.1169 -1.2696
  476MOL0     H62812  -1.810   3.083   5.415 -0.5400  0.9247  1.6504
  476MOL0     H62813  -1.838   2.980   5.560 -0.3060 -1.6695 -0.6401
  476MOL0     H62814  -0.864   3.329   5.084  0.8753 -2.7079 -0.7290
  476MOL0     H62815  -0.620   3.364   5.040  2.1221  0.3670  0.4182
  476MOL0     H62816  -0.198   3.462   5.299  0.0645 -0.9324 -0.2095
  476MOL0     H62817   0.048   3.500   5.273 -1.6582  0.4307  0.8790
  476MOL0     H62818   1.608   4.794   4.701 -2.1041 -0.0064 -0.5061
  476MOL0     H62819   1.848   4.776   4.673 -1.3707  0.4405  1.8367
  476MOL0     H62820   2.205   4.606   4.409  2.9448 -1.4780 -1.7868
  476MOL0     H62821   2.448   4.605   4.405 -1.7068 -0.4198 -0.8850
  476MOL0     H62822   2.667   4.659   4.444 -0.5302 -1.1471 -0.8276
  476MOL0     H62823   2.664   4.479   4.466  1.1508 -0.4011  1.4768
  476MOL0     H62824   2.870   4.643   4.592 -1.0283 -0.1753  0.4538
  476MOL0     H62825   2.841   4.469   4.603  3.2668 -0.5292  0.9485
  476MOL0     H62826   2.871   4.594   4.328 -0.5475 -0.1241  0.0662
  476MOL0     H62827   2.885   4.421   4.369  3.3842 -1.2797  0.9915
  476MOL0     H62828   3.098   4.629   4.449 -0.0947  0.2113 -1.4399
  476MOL0     H62829   3.083   4.464   4.511  1.9753  0.7488 -0.8028
  476MOL0     H62830   3.214   4.374   4.133  1.5504  1.7857 -0.8761
  476MOL0     H62831   2.453   4.548   4.826  1.0106 -2.8389 -0.9842
  476MOL0     H62832   2.207   4.538   4.840 -0.9493 -2.7054 -1.1553
  477MOL0     O62833   3.172   9.066   4.832 -0.4891  0.3311 -0.0938
  477MOL0     C62834   3.200   8.997   4.734  0.2122 -0.4482  0.1854
  477MOL0     O62835   3.124   8.915   4.674 -0.1342  0.1316  0.3410
  477MOL0     C62836   2.986   8.929   4.682 -0.6764  0.1679  0.4029
  477MOL0     C62837   2.921   9.044   4.700 -0.0915 -0.9222  0.3529
  477MOL0     C62838   2.789   9.067   4.725  0.4244 -0.2333 -0.0145
  477MOL0     C62839   2.698   8.963   4.698 -0.2616  0.5847 -0.9852
  477MOL0     O62840   2.557   8.969   4.729  0.0543  0.7709  0.5397
  477MOL0     C62841   2.507   9.089   4.784  0.3113 -0.3141 -0.4219
  477MOL0     C62842   2.361   9.087   4.782 -0.1791  0.1681  0.7879
  477MOL0     C62843   2.313   9.097   4.630 -0.1360 -0.3175  0.9738
  477MOL0     C62844   2.166   9.132   4.618  0.1771  0.5290  0.0060
  477MOL0     C62845   2.118   9.143   4.477 -0.0538 -0.0775  0.6377
  477MOL0     C62846   1.980   9.196   4.470 -0.2643 -0.2265 -0.3553
  477MOL0     C62847   1.932   9.183   4.323 -0.1137  0.2338 -0.0985
  477MOL0     C62848   1.858   9.051   4.283  0.0119 -0.9220 -0.6379
  477MOL0     N62849   1.749   9.022   4.373 -0.2609 -0.7874 -0.5053
  477MOL0     C62850   1.693   8.898   4.406  0.3243  0.6505  0.3403
  477MOL0     C62851   1.592   8.918   4.492  0.1391 -0.5397  0.5456
  477MOL0     C62852   1.504   8.822   4.557  0.8136 -0.1929 -0.2056
  477MOL0     C62853   1.379   8.796   4.473 -0.4333 -0.0768 -0.0039
  477MOL0     C62854   1.288   8.687   4.532  0.1041  0.0856  0.3470
  477MOL0     C62855   1.186   8.731   4.634 -0.0623  0.6534 -0.3257
  477MOL0     O62856   1.101   8.619   4.664  0.8231  0.1836  0.0598
  477MOL0     C62857   0.970   8.640   4.689 -0.9312 -0.0295 -0.2366
  477MOL0     C62858   0.890   8.699   4.599 -0.0665  0.4550  0.2279
  477MOL0     C62859   0.756   8.722   4.636 -0.1310  0.4951 -0.0151
  477MOL0     C62860   0.704   8.684   4.761  0.5440  0.1980 -0.1113
  477MOL0     C62861   0.555   8.692   4.779 -0.5310 -0.5089 -1.0703
  477MOL0     O62862   0.505   8.627   4.891  0.2227  0.0813  0.1432
  477MOL0     C62863   0.365   8.641   4.915 -0.6867  0.8037  1.1946
  477MOL0     C62864   0.297   8.516   4.936 -0.4791 -0.3787 -0.3345
  477MOL0     C62865   0.158   8.520   4.934  0.4496  0.1998  0.2876
  477MOL0     C62866   0.083   8.640   4.924  0.0063 -0.1081 -0.5379
  477MOL0     O62867  -0.055   8.621   4.920  0.0663  0.4526 -0.0380
  477MOL0     C62868  -0.141   8.722   4.964 -0.3692  0.2879 -0.2241
  477MOL0     C62869  -0.280   8.677   4.926  0.6181 -0.3504 -0.0456
  477MOL0     C62870  -0.405   8.768   4.945  0.4568  0.5171 -0.1880
  477MOL0     C62871  -0.542   8.695   4.935 -0.4141  0.3181  0.1007
  477MOL0     C62872  -0.657   8.790   4.961 -0.2218  0.7767 -0.0474
  477MOL0     C62873  -0.675   8.839   5.103  0.0728  0.0397  0.7175
  477MOL0     C62874  -0.721   8.733   5.204 -0.8013  0.4949  0.1852
  477MOL0     C62875  -0.735   8.788   5.343  0.4147  0.2012 -0.1447
  477MOL0    Cl62876  -0.743   8.652   5.466  0.3069 -0.1101 -0.2272
  477MOL0     C62877   0.155   8.764   4.934 -0.1319 -0.2307 -0.2638
  477MOL0     C62878   0.300   8.768   4.926  0.0884  0.7944  0.2959
  477MOL0     O62879   0.491   8.759   4.703 -0.1728  0.3176 -0.0837
  477MOL0     C62880   0.785   8.619   4.852  0.3858 -0.0871  0.1325
  477MOL0     C62881   0.930   8.613   4.815 -0.1022 -0.1203  0.8162
  477MOL0     N62882   1.577   9.058   4.501  0.0264 -0.5613 -0.5338
  477MOL0     N62883   1.673   9.116   4.437 -0.0880 -0.8694 -0.0049
  477MOL0     C62884   2.762   8.834   4.668 -0.5220 -0.2985 -0.9871
  477MOL0     C62885   2.902   8.818   4.668 -0.1307 -0.5832  0.1606
  477MOL0     C62886   3.341   8.991   4.693  0.2588 -0.2390 -0.3872
  477MOL0     C62887   3.449   9.015   4.784  0.6448 -0.0669 -0.9934
  477MOL0     C62888   3.585   9.014   4.740  0.3169 -0.2453  0.4493
  477MOL0     C62889   3.616   8.984   4.603  0.2569  0.0097 -0.4086
  477MOL0     O62890   3.752   8.985   4.566 -0.0267 -0.0694 -0.1204
  477MOL0     C62891   3.789   8.992   4.424  0.3431 -0.2836  0.2857
  477MOL0     C62892   3.940   9.008   4.398 -0.6772 -0.0815  0.5999
  477MOL0     C62893   3.988   9.140   4.459  0.1781  0.4885  1.2030
  477MOL0     C62894   4.133   9.146   4.476 -0.1715  0.1795  0.8760
  477MOL0     C62895   4.210   9.162   4.353 -0.5079 -0.2047  0.4241
  477MOL0     C62896   4.284   9.175   4.256 -0.0882 -0.2462 -0.2072
  477MOL0     C62897   3.510   8.953   4.513  0.6980 -0.4547  0.6272
  477MOL0     C62898   3.380   8.958   4.559 -0.0765 -0.3839 -0.0823
  477MOL0     H62899   2.980   9.134   4.710 -0.7724 -0.4638  0.3028
  477MOL0     H62900   2.754   9.156   4.776  0.4824 -1.3186  2.0083
  477MOL0     H62901   2.546   9.169   4.721 -1.0447 -0.0049 -0.9196
  477MOL0     H62902   2.551   9.102   4.884  0.3191 -0.2152 -0.4378
  477MOL0     H62903   2.321   9.173   4.837  1.9201  0.3931  2.1087
  477MOL0     H62904   2.310   9.011   4.842  1.7020 -0.0334  2.2411
  477MOL0     H62905   2.344   9.007   4.577 -1.4584 -0.8783  1.1126
  477MOL0     H62906   2.360   9.181   4.579  0.2622 -1.4277 -0.5659
  477MOL0     H62907   2.099   9.065   4.673 -0.7188  1.0092 -0.4807
  477MOL0     H62908   2.151   9.227   4.670  3.1934 -0.0584  2.2486
  477MOL0     H62909   2.130   9.042   4.436  1.4421  0.8047 -1.3058
  477MOL0     H62910   2.180   9.216   4.424 -0.8329  1.7548  2.1823
  477MOL0     H62911   1.980   9.300   4.504 -3.9260  0.1514 -1.0482
  477MOL0     H62912   1.911   9.142   4.536 -0.5953 -1.7360 -1.8894
  477MOL0     H62913   1.855   9.258   4.301 -0.0139  0.8028  1.3774
  477MOL0     H62914   2.019   9.192   4.257  0.4874 -1.4070  0.4133
  477MOL0     H62915   1.932   8.972   4.292 -1.5249 -2.3495 -0.0719
  477MOL0     H62916   1.824   9.058   4.179 -2.4378 -0.0903  0.1260
  477MOL0     H62917   1.725   8.803   4.364  1.6207  0.2808  2.0274
  477MOL0     H62918   1.461   8.868   4.647 -2.3899  0.1349 -1.7471
  477MOL0     H62919   1.555   8.728   4.575 -0.9287 -1.3786 -1.1693
  477MOL0     H62920   1.410   8.752   4.378 -2.3966  0.4435 -0.9437
  477MOL0     H62921   1.315   8.883   4.460 -1.6928 -0.8127  0.9740
  477MOL0     H62922   1.232   8.647   4.448  0.0633 -0.2133  0.5147
  477MOL0     H62923   1.349   8.604   4.568  0.5610 -0.1072 -0.8308
  477MOL0     H62924   1.128   8.810   4.586 -0.8532  1.3381  1.6558
  477MOL0     H62925   1.238   8.774   4.720 -2.9633  1.6783  1.0411
  477MOL0     H62926   0.931   8.726   4.502  0.3476 -0.8804  0.0134
  477MOL0     H62927   0.693   8.781   4.570 -2.3436 -1.6254  0.0432
  477MOL0     H62928   0.363   8.429   4.938 -0.4481 -0.4525 -2.3785
  477MOL0     H62929   0.112   8.422   4.948 -1.9416  0.8850 -1.7582
  477MOL0     H62930  -0.118   8.821   4.924  0.0994 -0.0333 -0.7620
  477MOL0     H62931  -0.145   8.724   5.073 -1.3676 -0.8433 -0.2186
  477MOL0     H62932  -0.304   8.578   4.966 -3.1490  1.0340  1.6202
  477MOL0     H62933  -0.264   8.669   4.818  0.8109  0.0716 -0.0485
  477MOL0     H62934  -0.409   8.834   4.858 -2.6331 -2.1479 -2.3308
  477MOL0     H62935  -0.409   8.821   5.041 -0.3690 -0.7723  0.5201
  477MOL0     H62936  -0.555   8.648   4.837 -2.1290  0.9887 -0.0395
  477MOL0     H62937  -0.548   8.618   5.013  1.3348  1.8918  1.8815
  477MOL0     H62938  -0.747   8.733   4.936  0.0051  0.6307 -0.5503
  477MOL0     H62939  -0.640   8.876   4.896  1.1971  0.1232 -0.5934
  477MOL0     H62940  -0.744   8.923   5.095  0.4576  0.1414 -3.1110
  477MOL0     H62941  -0.578   8.874   5.139 -0.3269  1.8716  0.1001
  477MOL0     H62942  -0.818   8.691   5.176  0.2826 -1.4109 -0.9645
  477MOL0     H62943  -0.652   8.648   5.214 -2.3995 -0.7094  1.3974
  477MOL0     H62944  -0.831   8.838   5.329 -1.0008 -2.5849 -0.9172
  477MOL0     H62945  -0.657   8.858   5.376  0.8201  1.3391 -3.1744
  477MOL0     H62946   0.095   8.855   4.930 -2.0277 -1.4833 -1.8885
  477MOL0     H62947   0.356   8.858   4.902  4.0486 -2.1110 -2.6271
  477MOL0     H62948   0.758   8.582   4.950  0.1099 -0.3691 -0.0465
  477MOL0     H62949   1.008   8.577   4.882  0.9713  1.4331  0.4517
  477MOL0     H62950   2.703   8.745   4.650 -3.0011  1.7392 -4.0267
  477MOL0     H62951   2.953   8.723   4.660 -0.6304 -1.0328  1.9103
  477MOL0     H62952   3.429   9.023   4.890 -0.6411  0.1313 -1.2353
  477MOL0     H62953   3.654   9.042   4.818 -0.7884  0.3914  1.2279
  477MOL0     H62954   3.732   9.071   4.374  2.1652  0.0540 -1.3988
  477MOL0     H62955   3.753   8.894   4.389  1.7410 -0.3176 -1.1549
  477MOL0     H62956   3.979   8.924   4.456 -0.8368  0.8492  2.1216
  477MOL0     H62957   3.952   9.006   4.290 -1.7058 -1.1556  0.4840
  477MOL0     H62958   3.951   9.164   4.560  1.5886  1.0963  1.5959
  477MOL0     H62959   3.953   9.223   4.397 -2.3253  1.2245  3.3692
  477MOL0     H62960   4.148   9.240   4.529 -0.7431  0.8830 -0.1864
  477MOL0     H62961   4.176   9.069   4.542 -0.0618  0.6997  1.4241
  477MOL0     H62962   4.347   9.202   4.173 -2.5663  0.8612 -1.8428
  477MOL0     H62963   3.527   8.927   4.410 -1.0940  1.1270 -0.1347
  477MOL0     H62964   3.314   8.930   4.478 -1.1073  1.1381  0.1735
  478MOL0     O62965  10.844   6.328   1.416  0.2048 -0.1379 -0.4871
  478MOL0     C62966  10.824   6.367   1.299  0.5471  0.2186 -0.0596
  478MOL0     O62967  10.700   6.374   1.243 -0.1367  0.0398 -0.0579
  478MOL0     C62968  10.595   6.304   1.299 -0.3533  0.3628 -0.1350
  478MOL0     C62969  10.478   6.372   1.325 -0.4953 -0.6677  0.3640
  478MOL0     C62970  10.366   6.308   1.377  0.3734  0.3482  1.0159
  478MOL0     C62971  10.373   6.171   1.408  1.0572  0.2664  0.7805
  478MOL0     O62972  10.270   6.105   1.473  0.1307  0.0167  0.4373
  478MOL0     C62973  10.138   6.109   1.429  1.1316  0.3124  0.1325
  478MOL0     C62974  10.033   6.133   1.540 -0.3502  0.1206  0.2618
  478MOL0     C62975   9.906   6.184   1.487 -0.2954 -0.4297  0.5272
  478MOL0     C62976   9.793   6.161   1.587 -0.4663 -0.0397  0.2033
  478MOL0     C62977   9.673   6.246   1.548  0.0325  0.3678 -0.0894
  478MOL0     C62978   9.562   6.226   1.654 -0.3156  0.0396  0.0536
  478MOL0     C62979   9.428   6.266   1.595  0.2860  0.4074  0.6657
  478MOL0     C62980   9.318   6.228   1.689  1.2367  0.2017 -0.2438
  478MOL0     N62981   9.183   6.263   1.635 -0.8083  0.3273 -0.0924
  478MOL0     C62982   9.129   6.199   1.530 -0.5330 -0.3759 -0.2197
  478MOL0     C62983   9.019   6.266   1.491 -0.0593 -0.4575 -0.1097
  478MOL0     C62984   8.916   6.262   1.388 -0.4406 -0.1402 -0.4224
  478MOL0     C62985   8.971   6.178   1.269  0.0265 -0.0758  0.4843
  478MOL0     C62986   8.873   6.202   1.154 -1.0400  0.3230 -0.3368
  478MOL0     C62987   8.922   6.116   1.037  0.6609  0.2715  0.5402
  478MOL0     O62988   8.935   5.973   1.076 -0.0578 -0.4083  0.8029
  478MOL0     C62989   8.824   5.888   1.070 -0.1943 -0.5684 -0.5015
  478MOL0     C62990   8.701   5.922   1.026  0.6800 -0.4878  0.0861
  478MOL0     C62991   8.592   5.833   1.026  0.0038  1.0053 -0.5613
  478MOL0     C62992   8.607   5.703   1.070 -0.4193 -0.1946  0.1704
  478MOL0     C62993   8.494   5.612   1.079  0.0470 -0.1730 -0.1585
  478MOL0     O62994   8.377   5.646   1.025  0.6660  0.4063  0.2020
  478MOL0     C62995   8.273   5.560   1.034 -0.4837 -0.6965  0.8639
  478MOL0     C62996   8.244   5.482   1.145  0.1960  0.1862  0.4779
  478MOL0     C62997   8.143   5.390   1.149 -0.5732 -0.0005 -0.0778
  478MOL0     C62998   8.070   5.367   1.027  0.3975  0.6820 -0.3099
  478MOL0     O62999   7.972   5.271   1.024  0.7961  0.3654  0.2598
  478MOL0     C63000   7.883   5.260   0.916  0.3337 -0.2220 -0.0889
  478MOL0     C63001   7.787   5.140   0.940 -0.0154  0.2748 -0.4648
  478MOL0     C63002   7.696   5.180   1.062 -0.0182  0.2510 -0.2550
  478MOL0     C63003   7.598   5.064   1.073 -0.1635  0.6789  0.6523
  478MOL0     C63004   7.495   5.075   1.192  0.0697 -0.0808  0.3994
  478MOL0     C63005   7.357   5.019   1.150 -0.3319 -0.5443 -0.8400
  478MOL0     C63006   7.275   5.018   1.282 -0.2378 -0.0842 -0.7639
  478MOL0     C63007   7.138   4.992   1.245  0.9881  0.1169 -0.3731
  478MOL0    Cl63008   7.025   5.025   1.385 -0.0593 -0.2068  0.2265
  478MOL0     C63009   8.076   5.466   0.927 -0.2058 -0.0542 -0.7264
  478MOL0     C63010   8.184   5.552   0.932 -0.0675 -0.1344 -0.0035
  478MOL0     O63011   8.522   5.504   1.130  0.0443 -0.2876 -0.3309
  478MOL0     C63012   8.732   5.664   1.126  0.7220  0.0228 -0.4028
  478MOL0     C63013   8.850   5.759   1.118  0.8785  0.1648  0.5767
  478MOL0     N63014   9.012   6.370   1.588  0.0151  0.3270  0.4020
  478MOL0     N63015   9.102   6.362   1.678 -0.0025 -0.6285  0.1359
  478MOL0     C63016  10.490   6.102   1.380  0.4176 -0.1684  0.5494
  478MOL0     C63017  10.602   6.166   1.331 -0.2269 -0.5950 -0.4926
  478MOL0     C63018  10.945   6.405   1.221  0.3920  0.6995  0.7477
  478MOL0     C63019  10.933   6.399   1.076 -0.1092  1.1396 -0.8489
  478MOL0     C63020  11.032   6.448   0.997 -0.2576 -0.1557  0.8755
  478MOL0     C63021  11.155   6.499   1.052  0.1779  0.7441  1.0468
  478MOL0     O63022  11.251   6.526   0.958 -0.2283 -1.1160 -0.6620
  478MOL0     C63023  11.233   6.657   0.902 -0.3372 -0.4387  0.0685
  478MOL0     C63024  11.268   6.766   1.006 -0.2364 -0.8252 -0.6197
  478MOL0     C63025  11.416   6.811   1.005 -0.2567 -0.1974  0.2995
  478MOL0     C63026  11.499   6.692   1.043 -0.8381  0.3036  0.1101
  478MOL0     C63027  11.637   6.722   1.021 -0.5781  0.6597 -0.3518
  478MOL0     C63028  11.762   6.731   1.013  0.7140 -0.0743 -0.9219
  478MOL0     C63029  11.176   6.478   1.183 -0.8446 -0.3630 -0.1969
  478MOL0     C63030  11.078   6.441   1.273 -0.4416  0.5024  0.6610
  478MOL0     H63031  10.456   6.476   1.304 -1.8818 -0.7816  1.1196
  478MOL0     H63032  10.277   6.363   1.406 -0.0549  0.8509 -1.0606
  478MOL0     H63033  10.119   6.021   1.366  1.8332  0.4398 -0.2710
  478MOL0     H63034  10.119   6.192   1.360 -1.6921 -0.7754 -0.5370
  478MOL0     H63035  10.079   6.212   1.600 -0.1630  1.3769 -1.4893
  478MOL0     H63036  10.002   6.046   1.600 -4.5761  2.3619  1.7204
  478MOL0     H63037   9.871   6.129   1.399  0.9366  0.8177 -0.7966
  478MOL0     H63038   9.910   6.290   1.462 -3.7963 -0.5531 -1.0511
  478MOL0     H63039   9.768   6.057   1.610  1.2124  0.1118  3.2022
  478MOL0     H63040   9.835   6.200   1.680  1.3589  3.4518 -1.8689
  478MOL0     H63041   9.639   6.219   1.447 -2.6450 -0.2008  0.8831
  478MOL0     H63042   9.707   6.350   1.547 -1.7414  1.0916  2.8738
  478MOL0     H63043   9.587   6.291   1.738 -2.0325 -0.9552  1.3979
  478MOL0     H63044   9.555   6.121   1.685 -1.7527  0.3855  0.9972
  478MOL0     H63045   9.439   6.374   1.585  0.5517  0.3946  0.8068
  478MOL0     H63046   9.414   6.222   1.495  1.6534 -2.6977  1.7049
  478MOL0     H63047   9.337   6.287   1.779  0.7466 -0.0901  0.0591
  478MOL0     H63048   9.325   6.121   1.713 -1.0045  0.2123  0.7086
  478MOL0     H63049   9.170   6.115   1.476 -0.5893 -2.3245  2.5801
  478MOL0     H63050   8.890   6.360   1.348  0.2485  1.2375  2.2480
  478MOL0     H63051   8.826   6.213   1.426  1.4812 -2.4528  1.5114
  478MOL0     H63052   8.967   6.073   1.298 -1.7105 -0.2483 -0.3051
  478MOL0     H63053   9.075   6.204   1.247 -0.0470  0.0880  0.3301
  478MOL0     H63054   8.778   6.162   1.191 -2.0005 -1.3369 -4.0815
  478MOL0     H63055   8.862   6.308   1.134 -1.5665  0.8238  2.2803
  478MOL0     H63056   9.022   6.143   1.004  0.0085 -1.1216 -3.0548
  478MOL0     H63057   8.854   6.133   0.953 -1.3705  0.6305  2.1541
  478MOL0     H63058   8.692   6.027   0.999 -3.7542 -1.5150 -3.6387
  478MOL0     H63059   8.495   5.865   0.987 -1.6267  1.6526  3.4842
  478MOL0     H63060   8.307   5.498   1.232  1.6139  0.4993 -0.5751
  478MOL0     H63061   8.123   5.329   1.237  2.0411 -1.7532 -0.5751
  478MOL0     H63062   7.941   5.254   0.824 -0.4174  1.2775 -0.6993
  478MOL0     H63063   7.821   5.350   0.912  0.5568 -0.1238 -2.2528
  478MOL0     H63064   7.855   5.059   0.969 -0.5708 -0.0180  0.0620
  478MOL0     H63065   7.739   5.114   0.846  1.1469  2.1868 -1.6418
  478MOL0     H63066   7.654   5.281   1.057 -1.6011 -0.3023  0.9929
  478MOL0     H63067   7.755   5.182   1.155 -0.3496 -1.4045  0.0168
  478MOL0     H63068   7.536   5.066   0.983 -0.3166  1.8824  0.7643
  478MOL0     H63069   7.650   4.968   1.084 -0.2361  0.4812 -0.6017
  478MOL0     H63070   7.479   5.178   1.226  1.9520 -0.3918  2.4624
  478MOL0     H63071   7.537   5.017   1.275  0.2000 -0.2811  0.1953
  478MOL0     H63072   7.368   4.913   1.123  0.7524 -1.3285  2.2749
  478MOL0     H63073   7.305   5.083   1.078  0.1034 -0.5408 -1.1560
  478MOL0     H63074   7.309   4.948   1.359 -2.8333  0.9530  1.4908
  478MOL0     H63075   7.281   5.119   1.325 -1.2737 -0.8362  1.2455
  478MOL0     H63076   7.120   4.890   1.210 -2.0060 -0.0755  1.4401
  478MOL0     H63077   7.106   5.061   1.166  0.2833 -1.6346 -1.6891
  478MOL0     H63078   8.014   5.478   0.839 -2.5586 -2.2059  0.5217
  478MOL0     H63079   8.204   5.606   0.840 -1.4914  0.8398  0.2234
  478MOL0     H63080   8.751   5.567   1.172 -2.0730 -0.8589 -0.9049
  478MOL0     H63081   8.941   5.721   1.163  0.6710  1.8693  2.5887
  478MOL0     H63082  10.507   5.996   1.397 -0.2749 -0.4644 -0.4887
  478MOL0     H63083  10.693   6.107   1.318  0.2122  0.0451 -0.3518
  478MOL0     H63084  10.846   6.373   1.017  1.5302 -0.3708 -2.7393
  478MOL0     H63085  11.017   6.453   0.890  0.1862 -0.2909  0.8021
  478MOL0     H63086  11.129   6.672   0.871 -0.1224 -2.3743 -1.8530
  478MOL0     H63087  11.272   6.669   0.800  0.4365 -1.6223  0.2117
  478MOL0     H63088  11.211   6.853   0.972  2.3402  0.6557 -1.4456
  478MOL0     H63089  11.230   6.741   1.105 -1.5595  1.5706 -0.4569
  478MOL0     H63090  11.433   6.893   1.075 -0.5865 -0.9834  1.3400
  478MOL0     H63091  11.436   6.855   0.907 -1.8215 -0.7831 -0.3213
  478MOL0     H63092  11.485   6.662   1.147 -1.5846 -0.3229 -0.1633
  478MOL0     H63093  11.474   6.614   0.970 -0.6223 -1.2297  1.6104
  478MOL0     H63094  11.867   6.752   1.015  0.8888 -0.6860 -2.4418
  478MOL0     H63095  11.276   6.489   1.224 -1.3532  1.9322  0.6176
  478MOL0     H63096  11.098   6.417   1.377 -0.0705  0.5880  0.6111
  479MOL0     O63097   5.728   6.364  10.503 -0.4683  0.0330 -0.4242
  479MOL0     C63098   5.757   6.319  10.617 -0.4063 -0.2131  0.5170
  479MOL0     O63099   5.690   6.227  10.683  0.3702 -0.1021 -0.8028
  479MOL0     C63100   5.566   6.191  10.645  0.1891 -0.2260  0.3978
  479MOL0     C63101   5.453   6.246  10.712  0.5727  0.0897 -0.1627
  479MOL0     C63102   5.323   6.217  10.672 -0.3496 -0.0987 -0.5135
  479MOL0     C63103   5.294   6.142  10.556  0.2492 -0.2299  0.6634
  479MOL0     O63104   5.156   6.122  10.523 -0.3656  0.6200 -0.0037
  479MOL0     C63105   5.135   6.056  10.397 -0.3521 -0.1064  0.0705
  479MOL0     C63106   4.990   6.042  10.373 -0.2642 -0.5925 -0.5955
  479MOL0     C63107   4.925   6.178  10.339 -0.4651  0.0048 -0.4602
  479MOL0     C63108   4.960   6.217  10.194 -0.1350 -0.3560 -0.3875
  479MOL0     C63109   4.853   6.315  10.151  0.6965 -0.4201 -0.1752
  479MOL0     C63110   4.870   6.367  10.012  0.0558 -0.3036  0.2507
  479MOL0     C63111   4.966   6.487  10.014  0.4205  0.1225  0.3021
  479MOL0     C63112   4.993   6.534   9.869  0.1749  0.4339 -0.8565
  479MOL0     N63113   5.073   6.649   9.881  0.3523 -0.3266  0.3714
  479MOL0     C63114   5.204   6.643   9.926  0.0332 -0.1459 -0.0672
  479MOL0     C63115   5.261   6.755   9.880  0.1482  0.3603  0.0259
  479MOL0     C63116   5.400   6.810   9.876 -0.0679  0.5336 -0.6392
  479MOL0     C63117   5.470   6.828  10.015  0.0326  0.7883  0.0003
  479MOL0     C63118   5.550   6.703  10.069 -0.2931 -0.2143  0.3285
  479MOL0     C63119   5.692   6.698  10.025  0.2436 -0.2388  0.6358
  479MOL0     O63120   5.766   6.815  10.072 -0.1430  1.5184 -0.3118
  479MOL0     C63121   5.906   6.816  10.066 -0.4896 -0.3948 -0.5321
  479MOL0     C63122   5.999   6.734  10.003 -0.5532 -0.4739 -0.2022
  479MOL0     C63123   6.137   6.767  10.008  0.7484  0.4043 -0.8093
  479MOL0     C63124   6.185   6.881  10.080 -0.2955 -0.5303  0.0013
  479MOL0     C63125   6.335   6.920  10.057  0.4080 -0.4729  0.1500
  479MOL0     O63126   6.414   6.850   9.978 -0.0784 -1.1032  0.3143
  479MOL0     C63127   6.537   6.897   9.951 -0.2842  0.0936 -0.4734
  479MOL0     C63128   6.580   6.911   9.818  0.0435 -0.0179  0.3820
  479MOL0     C63129   6.715   6.951   9.794 -0.0836  0.3364  0.1058
  479MOL0     C63130   6.804   6.990   9.898 -0.2898  0.1316  0.4623
  479MOL0     O63131   6.928   7.039   9.859  0.6136 -0.1753  0.5216
  479MOL0     C63132   7.019   7.088   9.953  0.1331  0.2478  0.1176
  479MOL0     C63133   7.122   7.164   9.877 -0.0849 -0.5213  0.1691
  479MOL0     C63134   7.090   7.286   9.795  0.5014 -0.1065 -0.6453
  479MOL0     C63135   7.002   7.385   9.873 -0.2122 -0.0528  0.2053
  479MOL0     C63136   6.975   7.515   9.801 -0.5703 -0.6426  0.0457
  479MOL0     C63137   6.902   7.499   9.661 -0.7065  0.2242  0.0408
  479MOL0     C63138   6.763   7.439   9.654  0.1081  0.5619 -0.5933
  479MOL0     C63139   6.697   7.448   9.519  0.0693 -0.1972 -0.5236
  479MOL0    Cl63140   6.798   7.373   9.391 -0.1460 -0.3554 -0.6015
  479MOL0     C63141   6.761   6.972  10.028 -0.0742 -0.1595 -0.3120
  479MOL0     C63142   6.635   6.922  10.056 -0.4290 -0.5995 -0.5719
  479MOL0     O63143   6.370   7.014  10.125  0.1123 -0.4176 -0.4068
  479MOL0     C63144   6.089   6.960  10.149  1.3262 -0.6076  0.5948
  479MOL0     C63145   5.951   6.930  10.139  0.0840  0.1417 -0.0448
  479MOL0     N63146   5.171   6.832   9.816 -0.7183  0.0642 -0.1831
  479MOL0     N63147   5.057   6.766   9.816 -0.1126  0.7948 -1.0130
  479MOL0     C63148   5.408   6.093  10.492 -0.2449  0.3229 -0.3951
  479MOL0     C63149   5.538   6.111  10.530 -0.3104  0.0525  0.1005
  479MOL0     C63150   5.883   6.366  10.682 -0.3109  0.5134 -0.5768
  479MOL0     C63151   5.914   6.325  10.811 -0.3742 -0.0182 -1.0895
  479MOL0     C63152   6.044   6.366  10.859 -0.3310 -0.5626 -0.0491
  479MOL0     C63153   6.140   6.439  10.792  0.0003 -0.6022 -0.8609
  479MOL0     O63154   6.263   6.467  10.856  0.0372  0.1535 -0.2875
  479MOL0     C63155   6.346   6.571  10.798  0.2545  0.5217  0.5278
  479MOL0     C63156   6.301   6.708  10.849 -0.7690 -0.4095 -0.0304
  479MOL0     C63157   6.387   6.818  10.786  0.8595 -0.0793 -0.8029
  479MOL0     C63158   6.379   6.954  10.867 -0.4791  0.3726 -0.0330
  479MOL0     C63159   6.244   7.003  10.907 -0.2635  0.2519 -0.4455
  479MOL0     C63160   6.130   7.027  10.935 -0.0282  0.3880  0.6887
  479MOL0     C63161   6.102   6.466  10.660  0.0724  0.5653  1.1316
  479MOL0     C63162   5.982   6.429  10.604 -0.0991  0.1522  0.3179
  479MOL0     H63163   5.462   6.292  10.809  0.6359 -1.0463  0.3851
  479MOL0     H63164   5.254   6.254  10.747  1.7470 -0.2602  1.6291
  479MOL0     H63165   5.182   5.959  10.378  2.3819  0.9141  1.0694
  479MOL0     H63166   5.187   6.127  10.331  2.3694 -0.2892  1.8326
  479MOL0     H63167   4.948   6.003  10.466  2.1349 -0.5397  0.5801
  479MOL0     H63168   4.972   5.970  10.292  2.1880 -0.2949 -1.5081
  479MOL0     H63169   4.944   6.259  10.411  0.7413 -0.8987  0.2787
  479MOL0     H63170   4.818   6.158  10.349 -0.2929 -0.7547 -0.0960
  479MOL0     H63171   5.057   6.268  10.196 -0.3237  0.0021 -0.0480
  479MOL0     H63172   4.975   6.129  10.132  2.8668 -0.1117 -0.1742
  479MOL0     H63173   4.834   6.395  10.223 -2.2394 -1.9310  0.8806
  479MOL0     H63174   4.760   6.258  10.147  0.3307  0.0405  1.2786
  479MOL0     H63175   4.770   6.403   9.985 -0.6840 -0.0438  3.0639
  479MOL0     H63176   4.888   6.292   9.935  0.0309  0.8590 -0.9293
  479MOL0     H63177   4.918   6.567  10.072 -2.2435 -1.6189  0.7030
  479MOL0     H63178   5.054   6.454  10.070  0.8368  0.8295  0.0809
  479MOL0     H63179   4.896   6.549   9.820 -0.3815  1.9704  0.6109
  479MOL0     H63180   5.046   6.450   9.823 -1.9503 -0.4760 -1.7874
  479MOL0     H63181   5.251   6.557   9.972 -0.5832 -0.1499  0.5720
  479MOL0     H63182   5.394   6.912   9.835 -3.4217  0.3167 -1.0186
  479MOL0     H63183   5.461   6.754   9.806 -0.9120  2.8262 -3.4246
  479MOL0     H63184   5.387   6.843  10.086 -1.3258  0.4958 -1.4639
  479MOL0     H63185   5.539   6.912  10.018  1.2552 -0.1902  0.1791
  479MOL0     H63186   5.538   6.704  10.178 -2.6102 -0.2598  0.1173
  479MOL0     H63187   5.508   6.610  10.030 -0.1191  0.3537 -1.2599
  479MOL0     H63188   5.702   6.702   9.916 -1.5749 -0.1340  0.4498
  479MOL0     H63189   5.735   6.604  10.061 -0.8530 -1.4136 -1.0185
  479MOL0     H63190   5.971   6.642   9.952  3.0902 -3.3617  2.5050
  479MOL0     H63191   6.207   6.701   9.957  1.1797  1.7509 -2.0079
  479MOL0     H63192   6.510   6.877   9.742 -1.9828 -0.6615  2.4489
  479MOL0     H63193   6.757   6.962   9.695 -1.8256  0.1190 -0.7023
  479MOL0     H63194   7.061   7.002  10.007  0.7796 -0.9932 -2.2356
  479MOL0     H63195   6.973   7.163  10.019  0.7884  2.3194 -1.6724
  479MOL0     H63196   7.170   7.092   9.809  0.1055 -0.9051  0.7007
  479MOL0     H63197   7.194   7.198   9.953 -2.0427 -0.8261  2.2748
  479MOL0     H63198   7.019   7.249   9.719 -0.1055 -1.7243  0.6625
  479MOL0     H63199   7.181   7.333   9.756  1.2884 -0.6555  0.4907
  479MOL0     H63200   6.906   7.355   9.915 -0.2492  1.8782  1.6680
  479MOL0     H63201   7.055   7.399   9.968 -0.4228  0.9867  0.1920
  479MOL0     H63202   7.063   7.572   9.770 -1.6099  1.4499  0.7946
  479MOL0     H63203   6.923   7.575   9.876  0.9083 -0.7722  1.2315
  479MOL0     H63204   6.975   7.457   9.592 -0.8574 -1.3547  0.7914
  479MOL0     H63205   6.876   7.597   9.620 -2.7630 -1.1351 -2.1474
  479MOL0     H63206   6.766   7.335   9.689  1.4436  0.3889 -1.1889
  479MOL0     H63207   6.705   7.507   9.718 -2.1436  0.8230 -2.7630
  479MOL0     H63208   6.688   7.555   9.496  0.5304  0.1951  0.9552
  479MOL0     H63209   6.600   7.398   9.523 -0.5116  0.9344  0.4129
  479MOL0     H63210   6.831   6.995  10.107 -0.8159 -2.7124  1.1923
  479MOL0     H63211   6.610   6.916  10.162 -0.9306 -0.2271 -0.6635
  479MOL0     H63212   6.126   7.047  10.202 -2.3865 -0.3655  3.1450
  479MOL0     H63213   5.877   6.981  10.200 -0.3544 -0.6661  0.1060
  479MOL0     H63214   5.390   6.024  10.410  0.0613  0.3767 -0.5085
  479MOL0     H63215   5.623   6.064  10.483 -0.4715 -1.0783  0.8957
  479MOL0     H63216   5.842   6.266  10.867 -0.2214  0.2406 -0.6227
  479MOL0     H63217   6.072   6.340  10.960  1.8696  3.7430  0.7065
  479MOL0     H63218   6.344   6.554  10.690 -3.5839 -1.2531  0.7246
  479MOL0     H63219   6.448   6.555  10.836 -0.3378 -1.5021  1.4059
  479MOL0     H63220   6.194   6.726  10.836 -0.4309 -0.1926 -3.9150
  479MOL0     H63221   6.331   6.706  10.954 -0.6424  1.0275 -0.0177
  479MOL0     H63222   6.351   6.845  10.686  2.3649  5.2978 -0.1814
  479MOL0     H63223   6.492   6.786  10.790  0.3632 -1.7669  2.8941
  479MOL0     H63224   6.433   6.952  10.962 -2.2482 -0.5707  0.9952
  479MOL0     H63225   6.433   7.032  10.812  0.6884 -0.0291  0.5066
  479MOL0     H63226   6.034   7.063  10.966 -0.8613 -1.1763 -0.0271
  479MOL0     H63227   6.164   6.531  10.599 -1.8820  0.6980 -0.8705
  479MOL0     H63228   5.964   6.450  10.499 -0.4028  2.1649  0.7295
  480MOL0     O63229   1.393   3.542   3.608  0.1512 -0.2061 -0.8749
  480MOL0     C63230   1.453   3.462   3.685  0.9627 -0.1651  0.4105
  480MOL0     O63231   1.395   3.384   3.778  0.3283  0.4962  0.3445
  480MOL0     C63232   1.259   3.369   3.791 -0.0294 -0.1726 -0.0207
  480MOL0     C63233   1.162   3.448   3.726 -0.2606  0.3071  0.8253
  480MOL0     C63234   1.028   3.422   3.754 -0.1676  0.0161 -0.1015
  480MOL0     C63235   0.991   3.313   3.833 -0.0442  0.5179 -0.0655
  480MOL0     O63236   0.860   3.274   3.844 -0.6908 -0.5521  0.0566
  480MOL0     C63237   0.796   3.328   3.961  0.0189  0.3513  0.5486
  480MOL0     C63238   0.699   3.231   4.025 -0.2239  0.1320 -0.8811
  480MOL0     C63239   0.617   3.303   4.130  0.3996  0.1225  0.0794
  480MOL0     C63240   0.531   3.194   4.199  0.2185 -0.3987  0.1464
  480MOL0     C63241   0.440   3.253   4.309 -0.0397  0.2666 -0.2305
  480MOL0     C63242   0.365   3.141   4.376 -0.0426  0.4202  0.5186
  480MOL0     C63243   0.232   3.196   4.431 -0.4181 -0.3248 -0.6167
  480MOL0     C63244   0.241   3.296   4.541 -0.6221 -0.2892 -0.5510
  480MOL0     N63245   0.115   3.367   4.547  1.0368 -1.1649 -0.3827
  480MOL0     C63246  -0.009   3.318   4.585  0.2700  0.0086  0.3590
  480MOL0     C63247  -0.087   3.433   4.600 -0.9038  0.4875  0.1801
  480MOL0     C63248  -0.234   3.436   4.622  0.1196 -0.3204 -0.7884
  480MOL0     C63249  -0.343   3.359   4.540 -0.6765  0.5706 -0.1364
  480MOL0     C63250  -0.485   3.425   4.547 -0.1047  0.1550  0.5129
  480MOL0     C63251  -0.595   3.334   4.493 -0.2373  0.9464 -0.2622
  480MOL0     O63252  -0.719   3.410   4.490 -0.0603  0.3224 -0.0033
  480MOL0     C63253  -0.830   3.353   4.440  0.6663 -0.0201  1.7062
  480MOL0     C63254  -0.954   3.416   4.453 -0.3628 -0.1938  0.2787
  480MOL0     C63255  -1.071   3.356   4.423  0.9389 -0.6351  0.0113
  480MOL0     C63256  -1.081   3.234   4.354 -0.1273 -0.1104  0.0172
  480MOL0     C63257  -1.214   3.179   4.317  0.3706 -0.1541  0.4418
  480MOL0     O63258  -1.330   3.238   4.363 -0.5264 -0.4834 -0.2657
  480MOL0     C63259  -1.458   3.176   4.362 -1.1503 -0.0214 -0.5457
  480MOL0     C63260  -1.567   3.267   4.405 -0.1598  0.1028  0.2404
  480MOL0     C63261  -1.691   3.218   4.436 -0.3521 -0.0064  0.3862
  480MOL0     C63262  -1.720   3.084   4.419 -0.9139  0.7172 -0.4387
  480MOL0     O63263  -1.845   3.033   4.421  0.7850 -0.0552  0.4308
  480MOL0     C63264  -1.955   3.122   4.425 -0.5326  0.2250 -0.0314
  480MOL0     C63265  -2.079   3.042   4.420  1.3277  0.2982 -0.0534
  480MOL0     C63266  -2.201   3.110   4.350 -1.2338  0.0293  0.0159
  480MOL0     C63267  -2.327   3.023   4.377  0.7371  0.0537 -0.1029
  480MOL0     C63268  -2.446   3.096   4.320  0.4082 -0.2489  0.4978
  480MOL0     C63269  -2.573   3.004   4.324 -0.1826  0.0632 -1.0423
  480MOL0     C63270  -2.583   2.898   4.220 -0.0606  1.3681  1.1513
  480MOL0     C63271  -2.693   2.803   4.250 -0.3363  0.6837 -0.5972
  480MOL0    Cl63272  -2.848   2.872   4.214  0.1226 -0.8197  0.0759
  480MOL0     C63273  -1.617   2.999   4.363  0.4127  0.0417  0.1897
  480MOL0     C63274  -1.489   3.046   4.348 -0.1917 -0.2209 -0.3666
  480MOL0     O63275  -1.218   3.070   4.252  0.2311  0.0088 -0.8380
  480MOL0     C63276  -0.961   3.162   4.341  0.6397 -0.6589  0.9769
  480MOL0     C63277  -0.838   3.223   4.378 -0.1283 -0.7847  0.3978
  480MOL0     N63278  -0.007   3.548   4.568  0.7454  1.3190 -0.8084
  480MOL0     N63279   0.109   3.507   4.546 -0.0167  0.2816 -0.0098
  480MOL0     C63280   1.087   3.235   3.899  0.3672 -0.3969 -0.5677
  480MOL0     C63281   1.220   3.272   3.890  0.5751 -0.5383 -0.3328
  480MOL0     C63282   1.601   3.465   3.692  0.0949 -0.6229  0.7426
  480MOL0     C63283   1.658   3.425   3.810 -0.5934  0.0511  0.7128
  480MOL0     C63284   1.802   3.427   3.822 -0.6772  0.2848 -0.4527
  480MOL0     C63285   1.875   3.465   3.713 -1.0486 -0.7929  0.0757
  480MOL0     O63286   2.012   3.460   3.732 -0.0428 -0.0015 -0.5424
  480MOL0     C63287   2.101   3.487   3.626  0.2848  0.1747  0.3490
  480MOL0     C63288   2.242   3.451   3.670 -0.0828 -0.3265 -0.6942
  480MOL0     C63289   2.333   3.431   3.551  0.6621 -0.2713  0.0057
  480MOL0     C63290   2.476   3.399   3.600 -0.5627  0.4109  0.2391
  480MOL0     C63291   2.568   3.424   3.485 -0.1153 -0.0143  0.0532
  480MOL0     C63292   2.660   3.440   3.405 -0.4907 -0.5486  0.1169
  480MOL0     C63293   1.813   3.508   3.600  0.4069  0.3582 -0.0848
  480MOL0     C63294   1.675   3.508   3.585 -0.2838  0.1777 -0.1640
  480MOL0     H63295   1.171   3.519   3.644  0.1620  0.8648  1.3433
  480MOL0     H63296   0.954   3.478   3.697  1.3436 -1.0468 -3.3334
  480MOL0     H63297   0.739   3.414   3.925 -3.0653 -1.3848  0.9483
  480MOL0     H63298   0.871   3.362   4.033 -2.2253  2.5820  2.0100
  480MOL0     H63299   0.764   3.154   4.066  0.2426 -0.3200 -2.3983
  480MOL0     H63300   0.626   3.186   3.957  0.0686 -3.2797  0.8611
  480MOL0     H63301   0.549   3.370   4.076 -0.3731 -0.8302 -0.1559
  480MOL0     H63302   0.684   3.358   4.196 -0.2958  1.0052  0.0736
  480MOL0     H63303   0.462   3.147   4.128 -0.1872  0.9861 -0.4143
  480MOL0     H63304   0.584   3.111   4.246  0.4191  0.3121  1.2340
  480MOL0     H63305   0.367   3.317   4.258 -1.5492 -0.7355  0.5826
  480MOL0     H63306   0.493   3.323   4.374 -0.4946  0.0637  0.3778
  480MOL0     H63307   0.432   3.087   4.444 -0.6512 -1.5724 -0.3954
  480MOL0     H63308   0.343   3.057   4.308  0.5864 -2.0101  3.1323
  480MOL0     H63309   0.184   3.248   4.348  0.1777  1.4623  0.1142
  480MOL0     H63310   0.178   3.111   4.474  1.8395 -0.6380  1.8466
  480MOL0     H63311   0.324   3.366   4.527  0.8868 -1.9006 -0.0173
  480MOL0     H63312   0.257   3.245   4.637 -0.4236  0.8980  0.0569
  480MOL0     H63313  -0.029   3.211   4.594  0.3254 -0.1620 -1.2368
  480MOL0     H63314  -0.256   3.542   4.605  0.2692 -0.1346  0.1053
  480MOL0     H63315  -0.262   3.402   4.722  0.3415 -0.8916 -0.9189
  480MOL0     H63316  -0.348   3.260   4.586  0.0334  0.8823  0.6295
  480MOL0     H63317  -0.322   3.363   4.433 -0.2295  1.5766 -0.0228
  480MOL0     H63318  -0.505   3.444   4.653  1.1391 -0.2504  0.8380
  480MOL0     H63319  -0.494   3.509   4.478  1.7368  0.8802  1.0915
  480MOL0     H63320  -0.607   3.253   4.566  0.4599  1.0471 -0.0274
  480MOL0     H63321  -0.552   3.289   4.403  3.8042 -0.8963  2.2586
  480MOL0     H63322  -0.957   3.515   4.495 -1.5830  0.2043 -0.6690
  480MOL0     H63323  -1.161   3.412   4.445 -0.5156 -2.8842  0.0081
  480MOL0     H63324  -1.556   3.374   4.419 -3.1746  0.9853 -2.9439
  480MOL0     H63325  -1.761   3.297   4.463  1.6572  2.2878 -0.8153
  480MOL0     H63326  -1.949   3.188   4.338 -0.0052  3.4280  2.2263
  480MOL0     H63327  -1.945   3.185   4.514  1.8477 -0.3936  0.2124
  480MOL0     H63328  -2.114   3.008   4.518 -2.3567  1.9179 -0.6209
  480MOL0     H63329  -2.050   2.950   4.369  0.2563  0.4695 -1.0047
  480MOL0     H63330  -2.180   3.118   4.243  0.8623  1.1145  0.4551
  480MOL0     H63331  -2.225   3.212   4.381 -2.5135  0.2315 -1.4924
  480MOL0     H63332  -2.312   2.923   4.335  3.1991  0.0897  0.5405
  480MOL0     H63333  -2.333   2.997   4.483 -0.2957  0.7938  0.0351
  480MOL0     H63334  -2.426   3.138   4.222 -2.0432 -0.5902 -0.2221
  480MOL0     H63335  -2.470   3.189   4.372 -2.6101 -0.5543 -0.1190
  480MOL0     H63336  -2.658   3.071   4.320 -1.2198 -1.2116 -1.0549
  480MOL0     H63337  -2.574   2.946   4.417  0.8536  0.4218 -0.7929
  480MOL0     H63338  -2.605   2.938   4.120  0.1152 -2.4256 -0.5953
  480MOL0     H63339  -2.485   2.851   4.211 -0.8609 -0.0293 -1.2539
  480MOL0     H63340  -2.693   2.775   4.356 -4.3058  0.4771 -0.4820
  480MOL0     H63341  -2.689   2.711   4.191  0.0837  0.4304 -0.1780
  480MOL0     H63342  -1.657   2.906   4.326 -0.6792  1.3129 -2.0601
  480MOL0     H63343  -1.415   2.968   4.329  0.9221  0.5377  0.6799
  480MOL0     H63344  -0.956   3.063   4.298 -1.1369  0.1251 -1.1852
  480MOL0     H63345  -0.740   3.184   4.352  0.4647  0.4404  0.7151
  480MOL0     H63346   1.064   3.155   3.968 -0.1679 -0.5952 -0.9629
  480MOL0     H63347   1.297   3.213   3.939  1.9200 -0.9572 -2.7784
  480MOL0     H63348   1.621   3.377   3.900 -2.6144  0.2521  0.0340
  480MOL0     H63349   1.846   3.394   3.915  0.6081 -0.8156 -1.4049
  480MOL0     H63350   2.094   3.595   3.607 -1.9401 -0.0756 -0.6629
  480MOL0     H63351   2.066   3.437   3.535 -0.4764  3.2428 -1.1843
  480MOL0     H63352   2.287   3.529   3.732 -1.2141 -0.1417 -0.0686
  480MOL0     H63353   2.231   3.363   3.734  0.5608 -0.0778 -0.2332
  480MOL0     H63354   2.336   3.517   3.484  0.0871 -2.9313 -3.7206
  480MOL0     H63355   2.291   3.351   3.489 -0.0042  0.9586 -1.1534
  480MOL0     H63356   2.511   3.463   3.681  0.4545  2.3388 -1.6414
  480MOL0     H63357   2.477   3.293   3.628  1.6148  0.4442  0.4605
  480MOL0     H63358   2.734   3.465   3.332  0.7222 -3.4581  0.2113
  480MOL0     H63359   1.867   3.535   3.510 -1.4782  1.1099 -1.0475
  480MOL0     H63360   1.626   3.526   3.490 -2.8198  1.0433  1.2059
  481MOL0     O63361   8.861   6.885   5.834 -0.0814 -0.3255 -0.5149
  481MOL0     C63362   8.888   6.927   5.723 -0.0512 -0.9906  0.4088
  481MOL0     O63363   8.795   6.939   5.623 -0.0735  0.0174 -0.0442
  481MOL0     C63364   8.685   6.862   5.608 -0.2795  0.2884 -0.2453
  481MOL0     C63365   8.662   6.737   5.673  0.0998 -0.6828  0.0081
  481MOL0     C63366   8.551   6.650   5.649  0.2874  0.5054  0.1496
  481MOL0     C63367   8.448   6.701   5.574  1.3955  0.4540  0.6085
  481MOL0     O63368   8.342   6.620   5.545  0.3040 -0.2272  0.3626
  481MOL0     C63369   8.223   6.688   5.508 -0.1504  0.0928  0.0955
  481MOL0     C63370   8.103   6.595   5.499 -0.7525  0.2357 -0.3770
  481MOL0     C63371   8.096   6.531   5.360 -0.1488  0.0337 -0.2566
  481MOL0     C63372   7.991   6.430   5.350 -0.1521  0.4030 -0.2079
  481MOL0     C63373   7.854   6.492   5.367 -0.4626 -0.2524 -0.0159
  481MOL0     C63374   7.745   6.432   5.283  0.4235  0.0567  0.4418
  481MOL0     C63375   7.611   6.511   5.289  0.4096 -0.0312  0.5058
  481MOL0     C63376   7.560   6.531   5.432 -0.5975 -0.0607  0.1508
  481MOL0     N63377   7.429   6.584   5.425  0.0456 -0.3162 -0.2527
  481MOL0     C63378   7.406   6.726   5.427 -0.4683 -0.0518 -0.2393
  481MOL0     C63379   7.277   6.731   5.433  0.0185  0.2267 -0.2471
  481MOL0     C63380   7.192   6.857   5.454 -0.1280 -0.4551  0.2337
  481MOL0     C63381   7.065   6.849   5.367 -0.0527  1.0066  0.2944
  481MOL0     C63382   6.982   6.980   5.377  0.4139  0.2222 -0.3365
  481MOL0     C63383   6.833   6.951   5.368  0.3873  0.2562  0.0074
  481MOL0     O63384   6.783   6.851   5.454  0.4316  0.2733 -0.1766
  481MOL0     C63385   6.648   6.821   5.454 -0.0987  0.1005  1.1455
  481MOL0     C63386   6.554   6.909   5.393  0.7532  0.5137 -0.2565
  481MOL0     C63387   6.416   6.884   5.397 -0.3653 -0.5702 -0.5072
  481MOL0     C63388   6.381   6.761   5.455  0.1694 -0.7472  0.4392
  481MOL0     C63389   6.234   6.735   5.484  0.3571 -0.1709  0.3044
  481MOL0     O63390   6.215   6.632   5.568 -0.3834 -0.0740  0.5631
  481MOL0     C63391   6.089   6.598   5.602 -0.1659  1.7428 -0.0042
  481MOL0     C63392   6.027   6.499   5.517 -0.2499 -0.1683 -0.3583
  481MOL0     C63393   5.900   6.455   5.556  0.3415  0.2968 -0.5258
  481MOL0     C63394   5.821   6.516   5.651  0.2081  0.2495 -0.0454
  481MOL0     O63395   5.695   6.484   5.696  0.6603 -0.0634 -0.2895
  481MOL0     C63396   5.618   6.387   5.627 -0.4845  0.9669 -0.0069
  481MOL0     C63397   5.514   6.343   5.721  0.4924  0.5228 -0.2780
  481MOL0     C63398   5.403   6.449   5.734 -0.5052 -0.5805 -0.7475
  481MOL0     C63399   5.271   6.395   5.791 -0.6691  0.2371  0.1111
  481MOL0     C63400   5.165   6.511   5.812 -0.8434  0.3716  0.0906
  481MOL0     C63401   5.048   6.444   5.888 -0.4521  0.6174 -0.0284
  481MOL0     C63402   4.938   6.542   5.917  0.4802  0.0138  0.3287
  481MOL0     C63403   4.840   6.485   6.005  0.6890 -0.5326  0.3390
  481MOL0    Cl63404   4.685   6.538   5.952  0.2881  0.7200  0.2327
  481MOL0     C63405   5.891   6.617   5.725 -0.6235 -0.2646 -0.1569
  481MOL0     C63406   6.023   6.658   5.707  0.4170 -0.0613 -0.1821
  481MOL0     O63407   6.148   6.812   5.452 -0.8969 -0.2315  0.6229
  481MOL0     C63408   6.473   6.677   5.509 -0.2998  0.6736 -0.1063
  481MOL0     C63409   6.605   6.712   5.512 -0.7578  0.8083  0.2971
  481MOL0     N63410   7.222   6.602   5.426 -0.4150  0.2265 -0.4435
  481MOL0     N63411   7.313   6.511   5.431  0.1504  0.6348  0.0427
  481MOL0     C63412   8.471   6.823   5.504  0.3103 -0.1851 -0.1432
  481MOL0     C63413   8.579   6.900   5.526 -0.2839 -0.3322 -0.1904
  481MOL0     C63414   9.023   6.984   5.697 -0.5234 -0.0089  0.1699
  481MOL0     C63415   9.125   6.961   5.791 -0.2798 -0.0992 -0.4819
  481MOL0     C63416   9.258   7.012   5.769 -0.1733 -0.4274 -0.2326
  481MOL0     C63417   9.279   7.085   5.648 -0.3496 -0.1813 -0.2921
  481MOL0     O63418   9.411   7.125   5.619  0.7400  0.9768 -0.4876
  481MOL0     C63419   9.445   7.169   5.485  0.5501  0.0186 -0.6635
  481MOL0     C63420   9.600   7.178   5.488  0.3141 -0.6280 -0.3878
  481MOL0     C63421   9.664   7.237   5.363 -0.0388 -0.5828 -0.1895
  481MOL0     C63422   9.816   7.237   5.372  0.1099  0.0689  0.8966
  481MOL0     C63423   9.884   7.273   5.245  0.5831  0.2830 -0.1199
  481MOL0     C63424   9.926   7.310   5.135 -0.5498  0.0171  0.7221
  481MOL0     C63425   9.170   7.114   5.562  0.2371 -0.1046 -0.2390
  481MOL0     C63426   9.043   7.066   5.586  0.4463 -0.0813 -0.9515
  481MOL0     H63427   8.746   6.692   5.727  1.4167 -0.8752 -2.0774
  481MOL0     H63428   8.558   6.549   5.689  1.3682  0.2744 -0.5817
  481MOL0     H63429   8.237   6.730   5.408  1.0650  0.5922  0.4564
  481MOL0     H63430   8.203   6.764   5.584 -1.0505  2.4924 -2.3993
  481MOL0     H63431   8.010   6.645   5.526  0.3628  0.7605  2.8868
  481MOL0     H63432   8.108   6.515   5.573  0.2618 -0.1420 -0.8340
  481MOL0     H63433   8.188   6.483   5.326 -0.9097 -0.0764 -2.2768
  481MOL0     H63434   8.089   6.603   5.279  2.7863 -1.2620 -1.8130
  481MOL0     H63435   8.008   6.384   5.252  1.2030 -0.0831  0.2246
  481MOL0     H63436   8.007   6.346   5.419 -0.4498  1.3523  1.0528
  481MOL0     H63437   7.862   6.599   5.346  1.6896 -0.3942 -0.1788
  481MOL0     H63438   7.829   6.477   5.472 -3.3357 -0.5710 -0.6573
  481MOL0     H63439   7.729   6.332   5.324 -1.3950  0.0362 -0.2075
  481MOL0     H63440   7.783   6.422   5.181  1.6624 -2.2553  1.0633
  481MOL0     H63441   7.634   6.601   5.232 -0.8508  1.1298  1.7597
  481MOL0     H63442   7.531   6.454   5.240  0.4030  0.0627  0.4087
  481MOL0     H63443   7.631   6.594   5.487 -0.1524  0.0434 -0.5243
  481MOL0     H63444   7.557   6.434   5.483 -1.3259 -0.9199 -1.4347
  481MOL0     H63445   7.475   6.810   5.429 -0.1445 -0.0431 -4.2821
  481MOL0     H63446   7.252   6.940   5.415 -0.5411 -1.3510 -2.5764
  481MOL0     H63447   7.153   6.877   5.554 -0.2959 -1.1789  0.3138
  481MOL0     H63448   7.007   6.763   5.401 -0.1013  0.8407 -0.2048
  481MOL0     H63449   7.097   6.833   5.264  0.9778  3.4236  0.1621
  481MOL0     H63450   6.998   7.043   5.465 -0.6429  1.8131 -1.2351
  481MOL0     H63451   7.014   7.038   5.290  0.2026  2.0885  0.7764
  481MOL0     H63452   6.807   6.925   5.265  0.9618  1.3586 -0.4359
  481MOL0     H63453   6.781   7.044   5.396 -0.2497 -0.0680 -0.0964
  481MOL0     H63454   6.586   7.003   5.349  0.0633  1.8932  2.0240
  481MOL0     H63455   6.344   6.951   5.350 -0.6886 -0.0069  0.7461
  481MOL0     H63456   6.077   6.443   5.438  0.9993  0.8321 -0.3082
  481MOL0     H63457   5.869   6.369   5.496  1.7880  1.6635 -3.4600
  481MOL0     H63458   5.674   6.300   5.591 -2.0687 -1.2480  2.5094
  481MOL0     H63459   5.557   6.428   5.545 -1.3899  0.0920  0.1945
  481MOL0     H63460   5.549   6.325   5.823 -1.1168 -0.2927  0.1561
  481MOL0     H63461   5.470   6.251   5.684 -0.7686  1.1089 -0.2759
  481MOL0     H63462   5.383   6.479   5.631 -0.5699  1.2799 -0.2251
  481MOL0     H63463   5.435   6.534   5.795  0.0633 -1.4625  0.2354
  481MOL0     H63464   5.218   6.328   5.723 -0.8672 -3.2827  3.4108
  481MOL0     H63465   5.296   6.340   5.882 -2.4062  0.2847  0.6650
  481MOL0     H63466   5.126   6.536   5.713  2.7906  0.9291 -1.3535
  481MOL0     H63467   5.210   6.600   5.857  1.8742  0.0995 -1.8295
  481MOL0     H63468   5.084   6.399   5.981  0.6116  0.1283 -0.6609
  481MOL0     H63469   5.017   6.361   5.823  2.8269 -0.1863 -0.7269
  481MOL0     H63470   4.981   6.634   5.960  2.2221 -1.1231  1.1311
  481MOL0     H63471   4.894   6.570   5.821  0.6245  1.6162  0.6856
  481MOL0     H63472   4.844   6.510   6.112 -0.2509 -0.7782  0.4375
  481MOL0     H63473   4.822   6.379   5.983 -1.9025  0.0006 -0.4266
  481MOL0     H63474   5.835   6.664   5.805  1.0247 -0.0693  0.9280
  481MOL0     H63475   6.078   6.727   5.771 -0.9055  0.7778  0.0729
  481MOL0     H63476   6.440   6.585   5.556 -3.4112  2.5853  1.7559
  481MOL0     H63477   6.689   6.665   5.564  0.3541  1.2784 -1.0101
  481MOL0     H63478   8.397   6.860   5.433 -0.4793 -1.6975 -0.1564
  481MOL0     H63479   8.585   7.000   5.485  1.5469 -0.2494  0.1575
  481MOL0     H63480   9.108   6.909   5.884  0.0540 -0.8365 -0.8171
  481MOL0     H63481   9.340   6.979   5.832  0.0342 -0.7194 -0.6468
  481MOL0     H63482   9.406   7.270   5.466  0.5880  0.5004  1.5244
  481MOL0     H63483   9.411   7.098   5.410 -0.1658 -0.6860  0.3115
  481MOL0     H63484   9.630   7.243   5.571 -2.5057 -0.8417  0.9188
  481MOL0     H63485   9.629   7.075   5.510 -0.6265 -1.0103 -0.8751
  481MOL0     H63486   9.619   7.334   5.341  0.5479 -0.6481 -1.7778
  481MOL0     H63487   9.632   7.175   5.280  1.3987 -1.7733  0.0989
  481MOL0     H63488   9.841   7.316   5.444 -0.1219  0.3903  0.6302
  481MOL0     H63489   9.851   7.140   5.408 -1.2779 -1.9894 -2.7526
  481MOL0     H63490   9.954   7.346   5.038  1.0084 -0.7788  0.8427
  481MOL0     H63491   9.183   7.188   5.484  2.4872 -0.0955  0.0583
  481MOL0     H63492   8.967   7.088   5.512 -0.1389 -1.4064 -0.7774
  482MOL0     O63493   2.840   6.815   9.010 -0.0807 -0.3484 -0.6403
  482MOL0     C63494   2.927   6.842   9.084 -0.2444  0.4814  1.0875
  482MOL0     O63495   2.938   6.960   9.159  0.7904  0.5090 -0.6891
  482MOL0     C63496   2.836   7.057   9.145 -0.3210  0.0462 -0.4544
  482MOL0     C63497   2.710   7.038   9.207 -0.4477  0.0027 -0.2434
  482MOL0     C63498   2.610   7.133   9.189 -0.5267  0.8343 -0.2891
  482MOL0     C63499   2.627   7.246   9.118 -0.1386 -0.2826  0.1171
  482MOL0     O63500   2.522   7.320   9.094 -0.6271  0.1074  0.1223
  482MOL0     C63501   2.531   7.458   9.049 -0.7593 -0.3285 -0.5322
  482MOL0     C63502   2.401   7.518   9.069  0.3255  0.1655 -0.5326
  482MOL0     C63503   2.381   7.657   8.992  0.2569  0.0165 -1.2348
  482MOL0     C63504   2.277   7.744   9.054 -0.0403 -0.2833 -0.3662
  482MOL0     C63505   2.282   7.877   8.976  0.1779 -0.2766 -0.7212
  482MOL0     C63506   2.190   7.991   9.020  0.3199 -0.3378 -0.4461
  482MOL0     C63507   2.037   7.963   9.014 -0.0406 -0.2204 -0.3803
  482MOL0     C63508   1.971   8.106   9.052  0.6505  0.4414 -0.2863
  482MOL0     N63509   1.827   8.090   9.029  0.2551  0.5965  1.0795
  482MOL0     C63510   1.777   8.058   8.900 -0.2327  0.1735  0.1423
  482MOL0     C63511   1.660   8.001   8.917 -0.2182  0.3200 -0.1623
  482MOL0     C63512   1.563   7.949   8.812  1.0492  0.2764  0.5079
  482MOL0     C63513   1.547   8.062   8.704 -0.5886  0.2743 -0.6570
  482MOL0     C63514   1.492   8.194   8.760  0.0508 -0.3427 -0.1711
  482MOL0     C63515   1.337   8.171   8.775  0.8384 -0.5052 -0.4711
  482MOL0     O63516   1.282   8.288   8.831 -0.0173  0.0938  0.0112
  482MOL0     C63517   1.147   8.309   8.843  0.8479 -0.2158  0.6399
  482MOL0     C63518   1.054   8.205   8.830 -0.4451  0.0936 -0.2540
  482MOL0     C63519   0.914   8.242   8.837 -0.1150  0.4262  0.2790
  482MOL0     C63520   0.869   8.379   8.863 -0.8476 -0.5189 -0.0176
  482MOL0     C63521   0.722   8.408   8.870  0.4723 -0.2357 -0.6083
  482MOL0     O63522   0.687   8.535   8.910 -0.4665 -0.5898 -1.0501
  482MOL0     C63523   0.559   8.590   8.898 -0.8148  0.4808 -0.1283
  482MOL0     C63524   0.536   8.697   8.981  0.6586 -0.5023 -0.2916
  482MOL0     C63525   0.411   8.760   8.978  0.3845 -1.0267 -0.4149
  482MOL0     C63526   0.311   8.723   8.885  0.2181 -0.0993  0.0675
  482MOL0     O63527   0.200   8.805   8.881 -0.7279 -0.3178  0.3813
  482MOL0     C63528   0.074   8.763   8.826 -0.3653  0.2123  0.1380
  482MOL0     C63529  -0.029   8.853   8.890  0.1221  0.4056  0.0422
  482MOL0     C63530  -0.165   8.810   8.862  0.3542  0.0069 -0.0846
  482MOL0     C63531  -0.276   8.863   8.953 -0.4021 -0.3270  0.0985
  482MOL0     C63532  -0.305   9.013   8.940 -0.1443  0.2916 -0.2028
  482MOL0     C63533  -0.431   9.073   9.000 -0.1393  0.1382 -0.8698
  482MOL0     C63534  -0.437   9.041   9.152 -0.3576 -0.3839 -0.0212
  482MOL0     C63535  -0.569   9.053   9.231  0.0476 -0.2831 -0.0579
  482MOL0    Cl63536  -0.678   8.927   9.170  0.0068  0.1125  0.0701
  482MOL0     C63537   0.335   8.614   8.803 -0.3302 -0.5325 -0.3133
  482MOL0     C63538   0.460   8.548   8.812  0.7909  0.1157 -0.9425
  482MOL0     O63539   0.639   8.313   8.864  0.1587  0.0699  0.0781
  482MOL0     C63540   0.973   8.478   8.869  0.1295  0.4075  0.0021
  482MOL0     C63541   1.105   8.438   8.870  0.4512 -0.8866  0.2888
  482MOL0     N63542   1.632   7.997   9.057 -0.1049  0.1577  0.3056
  482MOL0     N63543   1.741   8.033   9.123  1.0236  0.5212  0.1056
  482MOL0     C63544   2.752   7.265   9.051 -0.1347  0.4610 -0.5085
  482MOL0     C63545   2.857   7.177   9.077 -0.2207 -0.0594  0.2022
  482MOL0     C63546   3.047   6.750   9.093  0.0369 -1.1022 -0.6952
  482MOL0     C63547   3.136   6.750   9.207 -0.0081 -0.1555 -0.1911
  482MOL0     C63548   3.251   6.671   9.217 -0.4766  0.6723 -0.1214
  482MOL0     C63549   3.283   6.583   9.112  0.3336 -0.0350 -0.7250
  482MOL0     O63550   3.399   6.510   9.104  0.3474 -0.0245  0.1178
  482MOL0     C63551   3.501   6.509   9.204 -0.3237 -0.0948 -0.2853
  482MOL0     C63552   3.591   6.634   9.199  0.5820 -0.0495 -0.1673
  482MOL0     C63553   3.661   6.664   9.060 -0.4080 -0.2258  0.0462
  482MOL0     C63554   3.739   6.546   9.003 -0.9258  0.4557 -1.0295
  482MOL0     C63555   3.836   6.482   9.092  0.0264  0.3119  0.8506
  482MOL0     C63556   3.919   6.433   9.166 -0.7983 -0.0063  1.0432
  482MOL0     C63557   3.205   6.580   8.997 -0.4073 -0.6996 -0.4906
  482MOL0     C63558   3.090   6.663   8.987  0.0354  1.0791  0.7357
  482MOL0     H63559   2.689   6.953   9.270  0.3282 -1.6364 -2.0809
  482MOL0     H63560   2.511   7.110   9.228 -0.4007 -3.5378 -2.0622
  482MOL0     H63561   2.553   7.470   8.943  1.4621  3.1802  0.1578
  482MOL0     H63562   2.615   7.505   9.101  0.5152 -1.5526 -1.3991
  482MOL0     H63563   2.374   7.514   9.175  2.4634 -3.8717  0.0494
  482MOL0     H63564   2.335   7.443   9.026  0.7479 -1.2906  1.2317
  482MOL0     H63565   2.363   7.636   8.886 -0.4797  2.2411 -1.6167
  482MOL0     H63566   2.479   7.708   8.994 -0.1963  0.9236 -1.4508
  482MOL0     H63567   2.176   7.704   9.047 -0.9369  1.5732  1.2223
  482MOL0     H63568   2.290   7.767   9.160 -3.2310  0.3229 -0.0018
  482MOL0     H63569   2.255   7.854   8.872 -2.4285  0.2833 -0.2588
  482MOL0     H63570   2.384   7.915   8.977 -0.0144  0.2790  0.9263
  482MOL0     H63571   2.212   8.070   8.947 -1.1975 -3.6121 -4.8972
  482MOL0     H63572   2.216   8.026   9.120 -0.0274 -2.6895  0.5270
  482MOL0     H63573   2.003   7.941   8.913 -5.0294 -0.6627  1.1141
  482MOL0     H63574   2.013   7.874   9.073 -1.2374 -0.7754 -1.6598
  482MOL0     H63575   2.017   8.176   8.981 -1.5177  0.5630 -1.6799
  482MOL0     H63576   1.981   8.134   9.157 -0.6078  2.3799 -0.6234
  482MOL0     H63577   1.823   8.058   8.802 -1.8617 -3.8177 -0.8249
  482MOL0     H63578   1.468   7.907   8.847  2.7795 -0.5753  4.7278
  482MOL0     H63579   1.607   7.860   8.766  0.6276  0.6444 -0.6412
  482MOL0     H63580   1.486   8.025   8.621 -0.0723  0.8618 -1.3044
  482MOL0     H63581   1.649   8.085   8.670 -0.5675 -1.9645 -2.3499
  482MOL0     H63582   1.527   8.232   8.857 -0.7927  1.0367 -0.3751
  482MOL0     H63583   1.524   8.261   8.680 -2.1818  1.1755  0.1365
  482MOL0     H63584   1.307   8.086   8.838  0.9030 -0.6365 -0.6188
  482MOL0     H63585   1.294   8.149   8.677 -2.6412 -2.9448  1.3723
  482MOL0     H63586   1.079   8.100   8.825 -3.3378 -0.6686 -0.7363
  482MOL0     H63587   0.843   8.160   8.830  1.0229 -0.4852 -1.0580
  482MOL0     H63588   0.627   8.722   9.035 -0.0282  1.7528 -0.0955
  482MOL0     H63589   0.399   8.848   9.040  2.4341 -2.2306  1.8868
  482MOL0     H63590   0.058   8.660   8.859 -1.4118  0.3141 -0.0051
  482MOL0     H63591   0.069   8.766   8.717  0.5678  0.0647  0.0839
  482MOL0     H63592  -0.010   8.952   8.848  0.2129  0.1279 -0.5691
  482MOL0     H63593  -0.012   8.858   8.998  0.9667 -3.2349  0.1932
  482MOL0     H63594  -0.166   8.701   8.868  2.6009 -0.2145 -2.1455
  482MOL0     H63595  -0.184   8.829   8.756 -3.7909 -3.9401 -0.3560
  482MOL0     H63596  -0.363   8.799   8.934  1.5422 -2.9454 -0.5798
  482MOL0     H63597  -0.250   8.836   9.055  0.0327 -1.3041 -0.2532
  482MOL0     H63598  -0.326   9.027   8.833 -0.9491  2.0521  0.1532
  482MOL0     H63599  -0.219   9.069   8.978 -0.3936  1.7904 -1.6711
  482MOL0     H63600  -0.521   9.039   8.948  0.5868 -1.1581 -1.3226
  482MOL0     H63601  -0.428   9.181   8.984  0.7103 -0.0600 -2.1978
  482MOL0     H63602  -0.386   8.948   9.181  1.8378  0.4145 -1.1370
  482MOL0     H63603  -0.369   9.116   9.194  2.2598 -1.4026 -2.1488
  482MOL0     H63604  -0.607   9.154   9.210  0.5094 -0.1593 -0.2987
  482MOL0     H63605  -0.561   9.038   9.340 -0.6485 -2.6373 -0.2691
  482MOL0     H63606   0.258   8.564   8.746 -0.7140 -0.2466 -0.0492
  482MOL0     H63607   0.472   8.465   8.744 -0.6316 -1.5098  0.6667
  482MOL0     H63608   0.948   8.582   8.884 -3.2877 -0.0028 -1.7735
  482MOL0     H63609   1.175   8.516   8.897  0.7871 -1.3310  0.7099
  482MOL0     H63610   2.761   7.354   8.989 -1.7669  0.2831 -1.0714
  482MOL0     H63611   2.955   7.195   9.035 -1.3004 -2.3819 -3.8366
  482MOL0     H63612   3.115   6.821   9.286 -1.3665  0.5966 -1.1965
  482MOL0     H63613   3.318   6.691   9.300  0.9032  0.9212 -1.2421
  482MOL0     H63614   3.573   6.432   9.177  1.7549  1.9560 -0.9737
  482MOL0     H63615   3.470   6.490   9.307  2.4182 -0.4046  0.5771
  482MOL0     H63616   3.533   6.721   9.230  0.6686 -0.2770  0.6380
  482MOL0     H63617   3.670   6.625   9.273 -0.3688  2.0304  1.1935
  482MOL0     H63618   3.727   6.748   9.084  1.5492 -2.3447  2.7522
  482MOL0     H63619   3.583   6.685   8.987  0.7188  4.8219 -0.0547
  482MOL0     H63620   3.668   6.472   8.965 -4.5285  2.1975  1.7254
  482MOL0     H63621   3.801   6.584   8.921  1.7140 -0.2295  0.5586
  482MOL0     H63622   3.999   6.394   9.225 -1.2786 -0.2265  1.5581
  482MOL0     H63623   3.242   6.515   8.919  1.0562 -1.2951  0.6453
  482MOL0     H63624   3.022   6.656   8.902 -1.0634 -1.8310  1.7529
  483MOL0     O63625   1.904   6.630   6.539 -0.5041 -0.4395 -0.4675
  483MOL0     C63626   1.901   6.515   6.493 -0.7587 -0.0591  0.1482
  483MOL0     O63627   1.805   6.465   6.410  0.6113  0.0663 -0.2925
  483MOL0     C63628   1.685   6.532   6.373  0.2442  0.3305  0.1674
  483MOL0     C63629   1.611   6.596   6.476 -0.9569  0.7259  0.3351
  483MOL0     C63630   1.498   6.676   6.447 -0.7180 -0.0571  0.2773
  483MOL0     C63631   1.456   6.689   6.315  0.0281 -0.5441 -0.0333
  483MOL0     O63632   1.355   6.774   6.276  0.0415  0.5938 -0.3935
  483MOL0     C63633   1.230   6.780   6.346 -0.8816 -1.2729  0.3964
  483MOL0     C63634   1.132   6.847   6.259  0.5420  0.2128 -0.7498
  483MOL0     C63635   1.080   6.747   6.150  0.1872 -0.5008 -0.9929
  483MOL0     C63636   0.927   6.764   6.122 -0.1374  1.4931 -0.4298
  483MOL0     C63637   0.843   6.660   6.205 -0.3763 -0.3427  0.2205
  483MOL0     C63638   0.690   6.655   6.190  0.4335  0.1872 -0.3145
  483MOL0     C63639   0.650   6.612   6.042  0.0569 -0.3365 -1.2504
  483MOL0     C63640   0.506   6.560   6.048 -0.0192 -0.1864 -0.3437
  483MOL0     N63641   0.412   6.674   6.062  0.0019 -0.6365  0.8578
  483MOL0     C63642   0.369   6.749   5.951  0.5871 -0.1417 -0.8936
  483MOL0     C63643   0.294   6.845   6.011 -1.1207 -1.5162 -0.2982
  483MOL0     C63644   0.231   6.967   5.957  0.0635 -0.4121  0.2057
  483MOL0     C63645   0.336   7.049   5.883  0.0949  0.2945 -0.1723
  483MOL0     C63646   0.268   7.168   5.812 -0.2819  0.1463  0.8437
  483MOL0     C63647   0.375   7.265   5.747  0.0661 -0.2747  0.2349
  483MOL0     O63648   0.456   7.198   5.655  0.0162  0.3439 -0.6675
  483MOL0     C63649   0.557   7.275   5.606  0.3240 -0.2885 -1.0030
  483MOL0     C63650   0.621   7.234   5.493  0.5094 -0.0863  1.0758
  483MOL0     C63651   0.743   7.271   5.446  0.4190 -0.0982 -0.0321
  483MOL0     C63652   0.820   7.360   5.533  0.4863  1.0192  0.6784
  483MOL0     C63653   0.963   7.390   5.504 -0.2884 -0.2207  0.0365
  483MOL0     O63654   1.042   7.289   5.473 -0.4231  0.0863 -0.2498
  483MOL0     C63655   1.174   7.313   5.447 -1.1069 -0.7212 -0.3560
  483MOL0     C63656   1.209   7.390   5.332 -0.4404  0.0188  0.0937
  483MOL0     C63657   1.341   7.417   5.308  0.6647 -0.4260  0.0810
  483MOL0     C63658   1.445   7.371   5.392  0.6315  0.8456 -0.1608
  483MOL0     O63659   1.576   7.392   5.354  0.3078 -0.1131 -0.6175
  483MOL0     C63660   1.657   7.442   5.464  0.0291 -0.0186 -0.9266
  483MOL0     C63661   1.609   7.582   5.493 -0.1722 -0.1841 -0.2865
  483MOL0     C63662   1.709   7.639   5.591 -0.3374 -0.5749 -0.6039
  483MOL0     C63663   1.686   7.791   5.613 -1.0943  0.2947  0.1617
  483MOL0     C63664   1.764   7.866   5.727  0.3444 -0.1389 -0.0602
  483MOL0     C63665   1.715   7.815   5.866 -0.5997 -0.0687 -0.0147
  483MOL0     C63666   1.770   7.890   5.989  0.7310 -0.1595 -0.3232
  483MOL0     C63667   1.691   7.851   6.114  0.2276 -0.3757 -0.4415
  483MOL0    Cl63668   1.715   7.671   6.152  0.1057  0.0290 -0.1744
  483MOL0     C63669   1.409   7.284   5.501 -0.1210  0.8871  0.7126
  483MOL0     C63670   1.271   7.261   5.525  0.2040  0.2284 -1.1081
  483MOL0     O63671   1.000   7.509   5.525  0.3563 -0.1699 -0.0181
  483MOL0     C63672   0.752   7.422   5.638 -0.6095 -0.5359  0.9420
  483MOL0     C63673   0.628   7.377   5.679 -0.5229 -0.4007  0.7020
  483MOL0     N63674   0.308   6.837   6.149 -0.2324 -0.4851 -0.3649
  483MOL0     N63675   0.378   6.733   6.174  0.5912 -0.4416  0.1421
  483MOL0     C63676   1.520   6.616   6.211  0.2719  0.4447 -0.0931
  483MOL0     C63677   1.635   6.538   6.246  0.1593  0.7876 -0.0321
  483MOL0     C63678   2.018   6.443   6.528 -0.7527  0.5099  0.1427
  483MOL0     C63679   2.015   6.307   6.562 -1.0261  0.2952 -0.1526
  483MOL0     C63680   2.136   6.243   6.605  0.1397  0.6776  0.2882
  483MOL0     C63681   2.259   6.311   6.593 -0.4271  0.0724  0.1687
  483MOL0     O63682   2.382   6.269   6.636  0.0821  0.7113 -0.3095
  483MOL0     C63683   2.406   6.133   6.682 -0.1582  0.2008  0.0001
  483MOL0     C63684   2.505   6.079   6.567  0.1757  0.4526 -0.7652
  483MOL0     C63685   2.611   5.985   6.616 -0.5321  0.6257  0.5200
  483MOL0     C63686   2.694   5.940   6.495  0.4162 -0.2051 -0.2870
  483MOL0     C63687   2.800   5.846   6.541  0.3461  0.3928  0.3598
  483MOL0     C63688   2.871   5.752   6.576  0.3698  0.3781  0.5086
  483MOL0     C63689   2.258   6.442   6.549 -0.8986 -1.0173  0.2655
  483MOL0     C63690   2.144   6.509   6.515  0.2786  0.6590 -0.2508
  483MOL0     H63691   1.659   6.575   6.572  3.4404  0.5505 -1.6280
  483MOL0     H63692   1.448   6.734   6.523  0.7641  1.1655  0.3531
  483MOL0     H63693   1.238   6.843   6.435 -0.0620  1.1265 -1.2308
  483MOL0     H63694   1.210   6.677   6.376 -0.0931 -1.8629 -1.0092
  483MOL0     H63695   1.166   6.939   6.211  0.1332 -1.0432 -3.7097
  483MOL0     H63696   1.049   6.872   6.326  3.0559  0.4712  2.5409
  483MOL0     H63697   1.089   6.646   6.192 -0.1436  0.3963  1.4146
  483MOL0     H63698   1.146   6.757   6.063  4.1310  0.4074  1.8184
  483MOL0     H63699   0.899   6.867   6.146 -0.4538  1.3874 -0.3448
  483MOL0     H63700   0.905   6.755   6.015 -1.7762 -0.4404  0.0096
  483MOL0     H63701   0.855   6.659   6.313 -1.1250 -1.0979  0.3143
  483MOL0     H63702   0.870   6.559   6.172 -0.9315  0.1026 -1.7719
  483MOL0     H63703   0.651   6.755   6.211 -1.7210 -0.7795  0.5672
  483MOL0     H63704   0.651   6.590   6.269 -0.1183  1.0459  0.1375
  483MOL0     H63705   0.659   6.704   5.983  0.0104 -0.8273 -2.0467
  483MOL0     H63706   0.715   6.536   5.997  0.8425 -0.5614  0.2142
  483MOL0     H63707   0.494   6.504   6.141 -1.4700 -0.8643 -0.9200
  483MOL0     H63708   0.469   6.496   5.967 -1.5958  1.6790 -1.1682
  483MOL0     H63709   0.385   6.730   5.845  2.3985  1.7253 -1.0060
  483MOL0     H63710   0.192   7.031   6.037  0.3726  1.9675 -1.4341
  483MOL0     H63711   0.158   6.933   5.883  1.3899  2.7948 -2.8422
  483MOL0     H63712   0.403   6.986   5.824  0.0891  1.5676 -1.5699
  483MOL0     H63713   0.400   7.083   5.964  0.3268  0.5895 -0.4808
  483MOL0     H63714   0.197   7.134   5.736  0.5094 -1.5759  0.8293
  483MOL0     H63715   0.207   7.230   5.878  1.3564  1.5949  1.0763
  483MOL0     H63716   0.437   7.303   5.828 -2.0863  1.3407  1.2307
  483MOL0     H63717   0.328   7.350   5.696 -0.5589 -1.3188 -0.9784
  483MOL0     H63718   0.564   7.163   5.435  2.1760 -0.7834  0.2310
  483MOL0     H63719   0.781   7.236   5.351 -1.5192 -1.3100 -0.4181
  483MOL0     H63720   1.127   7.418   5.267 -0.9700  1.3504  1.2794
  483MOL0     H63721   1.372   7.468   5.217  2.0596 -3.0890 -1.0690
  483MOL0     H63722   1.762   7.434   5.436  1.0890 -1.5187  2.9567
  483MOL0     H63723   1.654   7.377   5.552 -0.9948  1.0355 -0.1504
  483MOL0     H63724   1.518   7.571   5.554 -0.1423 -0.4960 -0.2987
  483MOL0     H63725   1.597   7.655   5.412 -0.5796  1.3780  1.1102
  483MOL0     H63726   1.814   7.621   5.566 -0.2265 -1.8649  0.6207
  483MOL0     H63727   1.701   7.586   5.687  0.0992  0.5147  0.0498
  483MOL0     H63728   1.713   7.835   5.516 -1.3586 -0.2687 -0.1750
  483MOL0     H63729   1.580   7.813   5.627 -0.8723  0.7883  1.1037
  483MOL0     H63730   1.745   7.973   5.714  1.3955 -0.1280 -1.7485
  483MOL0     H63731   1.870   7.848   5.712  0.2662  0.1347 -1.0625
  483MOL0     H63732   1.739   7.709   5.868  1.3656  0.2055 -2.7468
  483MOL0     H63733   1.609   7.841   5.854 -0.3512  0.8177 -0.4238
  483MOL0     H63734   1.872   7.859   6.012  1.1620  0.4199 -1.3878
  483MOL0     H63735   1.764   7.999   5.984  1.8086 -0.0474  0.4356
  483MOL0     H63736   1.585   7.873   6.099  0.5605  0.4919 -1.7211
  483MOL0     H63737   1.733   7.909   6.197  0.8036  0.2907 -1.1820
  483MOL0     H63738   1.489   7.236   5.556 -0.9094 -3.3417 -1.4332
  483MOL0     H63739   1.245   7.196   5.608 -1.1691  0.2765 -1.4748
  483MOL0     H63740   0.805   7.495   5.697  1.5941 -2.4590  1.5161
  483MOL0     H63741   0.608   7.415   5.779 -0.1628 -0.7619  0.9156
  483MOL0     H63742   1.485   6.628   6.109 -0.7485 -1.9650 -0.0958
  483MOL0     H63743   1.690   6.482   6.172 -1.1797 -1.4884  0.6003
  483MOL0     H63744   1.917   6.261   6.568  0.0564 -1.9974  1.4419
  483MOL0     H63745   2.126   6.146   6.653  0.1829  1.5877  2.1992
  483MOL0     H63746   2.317   6.069   6.687  1.7042 -2.6350 -0.5116
  483MOL0     H63747   2.453   6.152   6.778  1.2851 -2.1528 -0.1700
  483MOL0     H63748   2.436   6.024   6.502 -0.4643  1.2697 -0.7964
  483MOL0     H63749   2.552   6.159   6.509 -0.6594  0.7003 -1.1301
  483MOL0     H63750   2.579   5.896   6.671  2.4472  0.2459  1.8441
  483MOL0     H63751   2.684   6.047   6.669 -0.6593  1.7054 -0.5216
  483MOL0     H63752   2.640   5.884   6.419  1.2104  0.1590 -1.1393
  483MOL0     H63753   2.741   6.024   6.443 -1.2914 -0.4294 -2.3239
  483MOL0     H63754   2.945   5.677   6.593  2.1216  1.5291 -1.5420
  483MOL0     H63755   2.348   6.502   6.558 -0.1145 -1.7653 -1.9014
  483MOL0     H63756   2.143   6.613   6.484  1.8242  0.4195 -1.1877
  484MOL0     O63757   8.506   6.188   1.193  0.3767 -0.0943  0.3708
  484MOL0     C63758   8.425   6.155   1.288  0.0289  0.5640 -0.2789
  484MOL0     O63759   8.322   6.230   1.338  0.0192 -0.5043  0.1494
  484MOL0     C63760   8.276   6.347   1.282  0.7288  0.5710  0.4919
  484MOL0     C63761   8.133   6.360   1.273 -0.6926  0.5174 -0.4833
  484MOL0     C63762   8.085   6.477   1.218 -0.4364  0.3821  0.0545
  484MOL0     C63763   8.161   6.579   1.164  0.6276  0.8299 -0.7261
  484MOL0     O63764   8.086   6.688   1.118  0.5976  0.2164  0.4219
  484MOL0     C63765   8.170   6.804   1.090  0.5215  0.3514  0.3606
  484MOL0     C63766   8.060   6.908   1.055  0.8457  0.7999  0.3093
  484MOL0     C63767   7.983   6.870   0.924  0.8648  0.9603 -0.8725
  484MOL0     C63768   7.876   6.968   0.884  0.1074  0.5858  0.2972
  484MOL0     C63769   7.817   6.915   0.746  0.0689 -0.2660  0.4733
  484MOL0     C63770   7.756   7.033   0.664  0.4874 -0.0553 -0.2128
  484MOL0     C63771   7.610   7.051   0.718 -0.6158 -0.8957 -0.0741
  484MOL0     C63772   7.510   6.983   0.630 -0.5936  0.6450 -0.6731
  484MOL0     N63773   7.378   6.994   0.671  0.2191  0.1596  0.1646
  484MOL0     C63774   7.273   7.058   0.616  0.4413  0.0753  0.4274
  484MOL0     C63775   7.162   7.010   0.682 -0.1428  0.1844  0.3724
  484MOL0     C63776   7.018   7.028   0.634 -0.3046  0.2197 -0.0107
  484MOL0     C63777   6.983   7.179   0.618 -1.3825 -0.7412 -0.6605
  484MOL0     C63778   6.844   7.185   0.574  0.8201 -0.2805  0.2317
  484MOL0     C63779   6.785   7.325   0.590 -0.3437  0.7814  0.5023
  484MOL0     O63780   6.656   7.347   0.530  0.3828 -0.4094 -0.0449
  484MOL0     C63781   6.556   7.399   0.604 -0.6967  0.4101 -0.3020
  484MOL0     C63782   6.499   7.522   0.560 -0.8520 -0.0901  0.2314
  484MOL0     C63783   6.398   7.581   0.624 -0.7210 -0.6798  0.5389
  484MOL0     C63784   6.349   7.518   0.747 -0.3576 -0.1320  0.7239
  484MOL0     C63785   6.241   7.561   0.824  0.6779 -0.9755  0.2513
  484MOL0     O63786   6.172   7.470   0.903 -0.2311 -0.5481  0.8255
  484MOL0     C63787   6.062   7.525   0.967  0.0181 -0.2658  0.1249
  484MOL0     C63788   6.074   7.548   1.106  0.3027 -0.3176 -0.1983
  484MOL0     C63789   5.966   7.615   1.174  0.2126 -0.2419  0.3156
  484MOL0     C63790   5.846   7.643   1.102 -0.2214  0.5033  0.9240
  484MOL0     O63791   5.733   7.702   1.149  0.6282  0.6870  0.8727
  484MOL0     C63792   5.764   7.806   1.237  0.9290  0.2865 -0.2302
  484MOL0     C63793   5.647   7.890   1.273 -0.1568  0.0522 -0.4310
  484MOL0     C63794   5.539   7.834   1.365  0.2311 -0.3908 -1.1930
  484MOL0     C63795   5.432   7.946   1.393 -0.6343  0.3098  0.6563
  484MOL0     C63796   5.348   7.987   1.272 -0.0509 -0.2205 -0.2829
  484MOL0     C63797   5.263   7.865   1.213 -0.6342 -0.3780 -0.0557
  484MOL0     C63798   5.189   7.905   1.084  0.3855  1.1488  0.1276
  484MOL0     C63799   5.092   7.797   1.038  0.1222  0.3156  0.3424
  484MOL0    Cl63800   4.997   7.843   0.893 -0.0736  0.6410  0.1957
  484MOL0     C63801   5.836   7.602   0.967 -0.3350  0.0725  0.4469
  484MOL0     C63802   5.941   7.548   0.901  0.3446  0.1396  0.4444
  484MOL0     O63803   6.211   7.678   0.809 -0.6556 -0.3020 -0.1776
  484MOL0     C63804   6.406   7.398   0.791  0.4964  0.6327 -0.4326
  484MOL0     C63805   6.515   7.338   0.726  0.6255 -0.2116 -0.4070
  484MOL0     N63806   7.198   6.925   0.782  0.4603  0.7376  0.6547
  484MOL0     N63807   7.329   6.926   0.778  0.7586  0.9417  0.6387
  484MOL0     C63808   8.298   6.553   1.158  0.3221 -0.3850  0.0563
  484MOL0     C63809   8.356   6.441   1.220 -0.2842  0.8891 -0.9098
  484MOL0     C63810   8.447   6.036   1.376 -0.2289 -0.7354 -0.9322
  484MOL0     C63811   8.566   5.960   1.361  0.8210 -0.1818  0.7600
  484MOL0     C63812   8.590   5.841   1.428 -0.5708  0.1182  0.0522
  484MOL0     C63813   8.484   5.785   1.501 -0.6953  0.3809 -0.7364
  484MOL0     O63814   8.482   5.657   1.553  0.1826  0.5163  0.0312
  484MOL0     C63815   8.600   5.572   1.579 -0.2280  0.1746 -0.2927
  484MOL0     C63816   8.689   5.622   1.701  0.0121 -0.4393 -0.3207
  484MOL0     C63817   8.686   5.521   1.819  0.1909  0.1700 -0.7498
  484MOL0     C63818   8.710   5.590   1.951  0.4251 -0.1828 -0.1457
  484MOL0     C63819   8.726   5.506   2.068  0.0322 -0.4553  0.2259
  484MOL0     C63820   8.735   5.443   2.171 -1.0326  0.0270 -0.2165
  484MOL0     C63821   8.373   5.861   1.523 -0.0584 -0.3838 -1.2382
  484MOL0     C63822   8.349   5.982   1.458  0.1566 -0.2055 -0.8297
  484MOL0     H63823   8.073   6.279   1.314  1.5174 -2.2541 -2.2980
  484MOL0     H63824   7.978   6.490   1.210 -0.5016 -0.4363 -0.4991
  484MOL0     H63825   8.240   6.781   1.009 -0.9385 -1.9386 -0.3624
  484MOL0     H63826   8.235   6.833   1.174 -1.2864  1.9859  1.2523
  484MOL0     H63827   8.103   7.007   1.039  3.6044  0.3511  3.7668
  484MOL0     H63828   7.995   6.929   1.140 -0.0503 -0.3779 -0.0594
  484MOL0     H63829   7.926   6.777   0.934  2.3311 -0.2107 -2.6102
  484MOL0     H63830   8.060   6.854   0.847  2.1353 -0.7890  0.6893
  484MOL0     H63831   7.798   6.977   0.961 -0.5739 -1.3107 -0.1094
  484MOL0     H63832   7.932   7.061   0.876 -0.7900  1.2684  1.4776
  484MOL0     H63833   7.747   6.832   0.755  0.2072 -0.4199  0.1439
  484MOL0     H63834   7.890   6.867   0.680  0.6775 -0.3912  1.2142
  484MOL0     H63835   7.752   7.016   0.556  0.2184  1.1843 -0.4108
  484MOL0     H63836   7.812   7.126   0.678 -1.6215  1.3507 -0.7047
  484MOL0     H63837   7.596   7.024   0.823 -2.1789  0.7480  0.1873
  484MOL0     H63838   7.590   7.159   0.710  0.9667 -0.5040  0.8207
  484MOL0     H63839   7.535   6.877   0.633 -1.1438  0.5054 -0.8710
  484MOL0     H63840   7.517   7.011   0.525 -0.6119 -0.4408 -0.9760
  484MOL0     H63841   7.262   7.107   0.520  0.5021 -1.6564 -0.5116
  484MOL0     H63842   6.951   6.989   0.711 -0.5359 -1.4685 -1.0253
  484MOL0     H63843   7.002   6.965   0.546 -1.1721 -0.6195  0.7286
  484MOL0     H63844   7.046   7.233   0.546 -0.7621  0.0231  0.4185
  484MOL0     H63845   6.996   7.224   0.717 -0.3623 -0.4896 -0.8970
  484MOL0     H63846   6.845   7.156   0.468 -3.6565  0.4528 -0.2532
  484MOL0     H63847   6.769   7.124   0.625 -0.9287 -0.3092 -2.1541
  484MOL0     H63848   6.853   7.391   0.536 -0.4396 -0.5511 -1.3199
  484MOL0     H63849   6.785   7.344   0.698 -1.9556  2.6086  0.2368
  484MOL0     H63850   6.544   7.561   0.469  1.7496 -1.5989  0.7458
  484MOL0     H63851   6.372   7.676   0.579  2.0026 -0.1543 -0.1064
  484MOL0     H63852   6.169   7.513   1.145 -1.8256 -3.4001  2.8095
  484MOL0     H63853   5.968   7.636   1.281 -1.0474  0.2211  0.2660
  484MOL0     H63854   5.851   7.865   1.207 -0.5560  1.4515 -2.6626
  484MOL0     H63855   5.778   7.746   1.327 -0.3767  0.4064  0.0734
  484MOL0     H63856   5.622   7.924   1.172  1.9070  1.4363 -0.5434
  484MOL0     H63857   5.684   7.985   1.312  1.4419  0.0152 -1.7582
  484MOL0     H63858   5.567   7.788   1.460  0.3289  0.6133 -0.7251
  484MOL0     H63859   5.496   7.747   1.316  1.9253 -0.7276 -2.1501
  484MOL0     H63860   5.355   7.911   1.463 -3.2684  0.7673 -1.8129
  484MOL0     H63861   5.475   8.039   1.432 -2.0251  1.7211 -1.0367
  484MOL0     H63862   5.409   8.026   1.190  0.5744 -3.0286 -1.2669
  484MOL0     H63863   5.274   8.057   1.311 -0.0410 -0.5408  0.3257
  484MOL0     H63864   5.188   7.815   1.274  1.1838 -4.0019 -0.5152
  484MOL0     H63865   5.344   7.798   1.183  0.3787  0.3576  0.9652
  484MOL0     H63866   5.143   8.004   1.090 -1.8287  0.1696  0.4605
  484MOL0     H63867   5.263   7.916   1.005 -0.4056  1.4751 -0.5924
  484MOL0     H63868   5.016   7.759   1.108 -1.8238  1.8510 -0.8147
  484MOL0     H63869   5.159   7.715   1.012 -0.3616 -0.0647  0.2629
  484MOL0     H63870   5.738   7.606   0.920 -0.4278 -3.0576  0.1978
  484MOL0     H63871   5.928   7.510   0.800 -0.5415  0.0291  0.5885
  484MOL0     H63872   6.381   7.339   0.878 -1.3652  0.4025 -1.0630
  484MOL0     H63873   6.569   7.250   0.760  2.9869  1.3391  0.1237
  484MOL0     H63874   8.363   6.625   1.110 -2.0366  1.4845 -0.5302
  484MOL0     H63875   8.463   6.421   1.213 -0.2508  0.2676  1.0483
  484MOL0     H63876   8.642   5.998   1.294  0.1161 -1.4840 -0.8588
  484MOL0     H63877   8.689   5.808   1.402 -1.1053  1.2611 -4.1603
  484MOL0     H63878   8.666   5.560   1.492 -0.3836 -1.1857 -0.2461
  484MOL0     H63879   8.552   5.480   1.612 -1.7314  0.4552 -1.5759
  484MOL0     H63880   8.793   5.626   1.668 -0.5202 -0.3813 -2.0667
  484MOL0     H63881   8.652   5.715   1.747 -0.3424  0.0466 -1.5548
  484MOL0     H63882   8.762   5.446   1.795  0.0028 -0.1361 -0.3882
  484MOL0     H63883   8.585   5.480   1.811 -0.2119  1.3564 -2.1116
  484MOL0     H63884   8.804   5.646   1.953 -0.1901  0.8760  0.2965
  484MOL0     H63885   8.624   5.657   1.965  1.0590  0.8887 -1.1740
  484MOL0     H63886   8.739   5.400   2.269 -1.6535  2.0980  0.7771
  484MOL0     H63887   8.300   5.811   1.586  0.7970  0.6291  0.6508
  484MOL0     H63888   8.252   6.031   1.468  1.0949  1.7508 -0.8233
  485MOL0     O63889   2.464   2.293   0.928 -0.0119 -0.2553  0.0284
  485MOL0     C63890   2.530   2.233   1.009 -0.5721 -0.0067 -0.1395
  485MOL0     O63891   2.478   2.168   1.119 -0.0088  0.7371 -0.2896
  485MOL0     C63892   2.337   2.155   1.126 -0.4487  0.1618  0.4412
  485MOL0     C63893   2.266   2.089   1.026 -0.5008 -1.1199 -0.5279
  485MOL0     C63894   2.131   2.067   1.036  0.1888 -0.7692  0.4982
  485MOL0     C63895   2.059   2.131   1.137 -0.0762  0.1373  0.0561
  485MOL0     O63896   1.927   2.099   1.138  0.7575  0.1929 -0.5398
  485MOL0     C63897   1.871   2.048   1.266  0.7247  0.4357  0.3589
  485MOL0     C63898   1.739   1.970   1.239  0.0706  0.0225  0.3003
  485MOL0     C63899   1.627   1.981   1.351 -0.3661  0.9534 -0.2013
  485MOL0     C63900   1.499   1.893   1.314 -0.4531  0.0674 -0.0525
  485MOL0     C63901   1.392   1.886   1.418  1.0879  0.4354 -0.6411
  485MOL0     C63902   1.281   1.793   1.380  0.0119 -0.3054 -0.2671
  485MOL0     C63903   1.169   1.784   1.495 -0.3281 -0.2496  0.3159
  485MOL0     C63904   1.086   1.658   1.493  0.9936 -0.0869 -0.0432
  485MOL0     N63905   1.035   1.632   1.368  0.1273  0.8720  0.5358
  485MOL0     C63906   1.087   1.537   1.291 -0.0618 -0.2997  0.3364
  485MOL0     C63907   1.032   1.568   1.171  0.3043  0.0439  0.2855
  485MOL0     C63908   1.075   1.489   1.046  0.1457  0.4175 -0.4270
  485MOL0     C63909   1.178   1.560   0.954 -0.1610  0.4339 -0.3646
  485MOL0     C63910   1.297   1.601   1.033 -0.8243 -0.0520 -0.2268
  485MOL0     C63911   1.406   1.664   0.955  0.2713  0.4949  0.0652
  485MOL0     O63912   1.530   1.662   1.029  0.8418  0.1269  0.4610
  485MOL0     C63913   1.646   1.692   0.955  0.5144  0.4074  0.2901
  485MOL0     C63914   1.752   1.607   0.953  0.7980  0.4093  0.8766
  485MOL0     C63915   1.872   1.646   0.893  0.0156  0.0814  0.1641
  485MOL0     C63916   1.885   1.766   0.826  0.6051  0.3954  0.5701
  485MOL0     C63917   2.006   1.790   0.754  0.7309  0.4517 -0.5907
  485MOL0     O63918   2.115   1.706   0.769 -0.8800 -0.4631 -0.0189
  485MOL0     C63919   2.243   1.743   0.730  0.6492 -0.1325 -0.1809
  485MOL0     C63920   2.283   1.882   0.705 -0.7027  0.5809 -0.2757
  485MOL0     C63921   2.406   1.913   0.644  0.2623 -0.7102  0.2886
  485MOL0     C63922   2.496   1.814   0.620 -0.1310  0.4069  0.1567
  485MOL0     O63923   2.623   1.842   0.570 -0.1744 -0.1830  0.5190
  485MOL0     C63924   2.706   1.953   0.612  0.6189  0.1609  0.1703
  485MOL0     C63925   2.854   1.937   0.586  0.5221 -0.6524  0.3946
  485MOL0     C63926   2.929   1.828   0.660  0.6906  0.1187 -0.1420
  485MOL0     C63927   2.859   1.690   0.630 -0.0464 -0.0884 -0.1345
  485MOL0     C63928   2.944   1.571   0.681  0.2752 -0.3327 -1.0759
  485MOL0     C63929   3.071   1.556   0.598  0.3087 -0.3123 -0.2393
  485MOL0     C63930   3.198   1.617   0.656  0.0048  0.1365 -0.1946
  485MOL0     C63931   3.318   1.592   0.564 -0.9270  0.0254 -0.3535
  485MOL0    Cl63932   3.290   1.665   0.400 -0.1973 -0.1446  0.1890
  485MOL0     C63933   2.460   1.677   0.636 -0.1297  0.7950 -0.1029
  485MOL0     C63934   2.335   1.645   0.686  0.0467  0.6179 -0.3048
  485MOL0     O63935   2.007   1.887   0.686  0.2046 -0.1523 -0.1969
  485MOL0     C63936   1.769   1.848   0.808  0.0282 -0.2672  0.4300
  485MOL0     C63937   1.653   1.810   0.876  0.0214  0.1270 -0.5943
  485MOL0     N63938   0.951   1.676   1.188 -0.0373 -0.0651 -0.5598
  485MOL0     N63939   0.955   1.715   1.306  0.6992 -0.3973 -0.7891
  485MOL0     C63940   2.126   2.200   1.240  0.4507 -0.0157  0.6184
  485MOL0     C63941   2.265   2.202   1.233 -0.3502  0.5643  0.4969
  485MOL0     C63942   2.674   2.209   0.987  0.5037  0.4007 -0.9550
  485MOL0     C63943   2.744   2.124   1.068 -0.7110  0.3374 -0.2505
  485MOL0     C63944   2.878   2.098   1.038 -0.1471  0.1944  0.0735
  485MOL0     C63945   2.942   2.154   0.929 -0.0701  0.6857  0.2412
  485MOL0     O63946   3.063   2.129   0.893 -0.6311  0.0961  0.4814
  485MOL0     C63947   3.161   2.054   0.975  0.0113 -0.6169  1.1444
  485MOL0     C63948   3.300   2.080   0.922  0.1646 -0.2440 -0.4082
  485MOL0     C63949   3.325   2.019   0.782 -0.1922 -0.4736 -1.1387
  485MOL0     C63950   3.469   2.053   0.733  1.4100 -0.2020 -0.0109
  485MOL0     C63951   3.488   1.993   0.599  0.7707 -0.9234 -0.1073
  485MOL0     C63952   3.508   1.928   0.501 -0.2906 -0.4583  0.0198
  485MOL0     C63953   2.875   2.249   0.851 -0.2265  0.2405 -0.0766
  485MOL0     C63954   2.739   2.273   0.882  1.5429  0.3014 -0.3985
  485MOL0     H63955   2.326   2.059   0.941 -0.3544  0.5829 -1.0668
  485MOL0     H63956   2.074   2.025   0.954 -0.3781  1.0346 -0.0664
  485MOL0     H63957   1.852   2.132   1.332  1.5495  1.1646 -0.3109
  485MOL0     H63958   1.947   1.984   1.313  0.4202 -1.5615 -1.6562
  485MOL0     H63959   1.751   1.862   1.223  2.2773  0.6944 -4.2866
  485MOL0     H63960   1.693   2.002   1.146  0.5090 -2.4328 -0.8504
  485MOL0     H63961   1.604   2.086   1.368 -0.4727  0.8941  0.0275
  485MOL0     H63962   1.660   1.953   1.451  1.7212  2.8878 -0.2758
  485MOL0     H63963   1.461   1.929   1.218 -1.5655  0.2071  0.4200
  485MOL0     H63964   1.529   1.789   1.302  0.0395  0.1589  0.3568
  485MOL0     H63965   1.352   1.985   1.439 -0.3902 -0.2277 -0.1985
  485MOL0     H63966   1.438   1.852   1.512  0.8424  0.3556 -0.5480
  485MOL0     H63967   1.322   1.694   1.359  0.7407  0.2671 -1.6091
  485MOL0     H63968   1.237   1.824   1.285  1.9494 -0.1616 -1.1539
  485MOL0     H63969   1.216   1.788   1.593  0.4411 -1.0042 -0.0045
  485MOL0     H63970   1.106   1.873   1.494 -3.1623 -1.9952 -3.3848
  485MOL0     H63971   1.007   1.659   1.568 -0.3457 -2.6736 -1.2589
  485MOL0     H63972   1.152   1.582   1.538  0.3187 -0.4303  0.3788
  485MOL0     H63973   1.153   1.454   1.316  0.9292  0.1109 -0.8336
  485MOL0     H63974   0.989   1.467   0.981 -1.9066 -0.7471  2.4599
  485MOL0     H63975   1.123   1.393   1.064 -0.8469 -0.2400 -1.1683
  485MOL0     H63976   1.118   1.645   0.919  0.4778  0.1598 -2.2553
  485MOL0     H63977   1.204   1.497   0.869 -0.8886  0.6450 -0.7584
  485MOL0     H63978   1.269   1.678   1.105 -0.0895 -0.0350  0.0562
  485MOL0     H63979   1.340   1.512   1.079 -2.1433 -1.2874 -1.2925
  485MOL0     H63980   1.372   1.760   0.913 -2.5963  0.5845  2.3181
  485MOL0     H63981   1.438   1.603   0.870  0.9785  0.5457  0.2888
  485MOL0     H63982   1.749   1.510   1.002 -0.1781 -2.1119 -3.6250
  485MOL0     H63983   1.956   1.578   0.893  0.4771  0.6073  1.8517
  485MOL0     H63984   2.222   1.965   0.741 -2.5853 -0.6466 -0.5120
  485MOL0     H63985   2.437   2.015   0.623  0.2268 -1.0899 -1.8378
  485MOL0     H63986   2.692   1.961   0.720 -1.1664  0.1398 -0.0300
  485MOL0     H63987   2.668   2.046   0.568 -0.8812 -0.2451  0.5412
  485MOL0     H63988   2.905   2.030   0.614 -1.4112  0.6561 -0.2230
  485MOL0     H63989   2.858   1.937   0.476  1.1520 -0.1868  0.4122
  485MOL0     H63990   2.942   1.841   0.768 -1.4551 -4.0052  0.8403
  485MOL0     H63991   3.027   1.834   0.613 -0.0909 -0.4151 -1.9426
  485MOL0     H63992   2.768   1.689   0.690 -0.1380  1.9595 -0.1684
  485MOL0     H63993   2.830   1.680   0.525  0.2900 -3.0912 -0.0267
  485MOL0     H63994   2.892   1.475   0.690  2.4547 -1.4085  1.3982
  485MOL0     H63995   2.962   1.602   0.784 -2.8224 -0.1419 -0.4939
  485MOL0     H63996   3.048   1.604   0.503 -4.1992 -1.7904 -0.1258
  485MOL0     H63997   3.082   1.449   0.578 -3.1087 -0.9305  0.6585
  485MOL0     H63998   3.178   1.723   0.675  0.2363  0.5174 -1.9279
  485MOL0     H63999   3.230   1.569   0.749 -0.2114  0.7389  0.1928
  485MOL0     H64000   3.335   1.484   0.563  0.3560  0.2043  0.3491
  485MOL0     H64001   3.407   1.646   0.598 -1.4060 -0.2046  1.3788
  485MOL0     H64002   2.531   1.597   0.615 -3.5120 -1.8654 -2.4249
  485MOL0     H64003   2.315   1.540   0.704 -0.9538  0.8340 -0.0956
  485MOL0     H64004   1.778   1.938   0.747  2.7973 -1.6547 -1.4102
  485MOL0     H64005   1.560   1.864   0.861  0.2560  0.6297 -0.2323
  485MOL0     H64006   2.063   2.237   1.320  1.3292  1.0867  0.8253
  485MOL0     H64007   2.316   2.263   1.307  0.9262 -0.2236  0.3020
  485MOL0     H64008   2.707   2.084   1.162 -0.1271 -0.6742 -0.4358
  485MOL0     H64009   2.929   2.028   1.104  1.0208  1.0480  0.1032
  485MOL0     H64010   3.132   1.949   0.971 -0.6142 -0.4300 -2.4454
  485MOL0     H64011   3.166   2.100   1.074  1.7194 -0.3526  0.9705
  485MOL0     H64012   3.318   2.188   0.925 -1.8181  0.1117  0.6613
  485MOL0     H64013   3.364   2.027   0.993  0.6135  2.4774  1.3497
  485MOL0     H64014   3.251   2.060   0.713 -0.8242 -1.1853 -0.8897
  485MOL0     H64015   3.315   1.910   0.784  1.5038 -0.6498 -0.7533
  485MOL0     H64016   3.478   2.161   0.721  0.4053  0.0076  0.9114
  485MOL0     H64017   3.538   2.011   0.806  1.4619  0.8693  0.5843
  485MOL0     H64018   3.509   1.878   0.406 -2.1270 -2.2151  0.8429
  485MOL0     H64019   2.931   2.292   0.769  2.8545 -2.6408  0.2950
  485MOL0     H64020   2.679   2.327   0.810 -0.3054 -2.3348 -0.9842
  486MOL0     O64021   9.704  10.187   1.814 -0.3033 -0.9151  0.2473
  486MOL0     C64022   9.704  10.309   1.823 -0.5546 -0.8820  0.1184
  486MOL0     O64023   9.601  10.388   1.864 -0.4662  0.3645 -0.2804
  486MOL0     C64024   9.479  10.334   1.899 -0.2285 -0.7610  0.0129
  486MOL0     C64025   9.416  10.224   1.839 -0.2199 -0.1285  0.3793
  486MOL0     C64026   9.291  10.175   1.886  0.3026  0.8264 -0.6856
  486MOL0     C64027   9.226  10.247   1.986  0.2157  0.1610 -0.8858
  486MOL0     O64028   9.097  10.210   2.016  0.3121  0.4722  0.4948
  486MOL0     C64029   9.009  10.325   2.027  0.1060  0.7274 -0.6292
  486MOL0     C64030   8.860  10.275   2.023 -1.2430 -0.5411 -1.0843
  486MOL0     C64031   8.750  10.365   2.069 -0.1183 -0.2231 -0.0619
  486MOL0     C64032   8.750  10.393   2.221  0.8490 -0.1830  0.1518
  486MOL0     C64033   8.636  10.484   2.260 -0.3334  0.1334 -0.0626
  486MOL0     C64034   8.656  10.628   2.219 -0.8099  0.3177  0.3617
  486MOL0     C64035   8.530  10.716   2.237  0.7476  1.1090  0.7313
  486MOL0     C64036   8.402  10.681   2.144 -0.1439  0.1298 -1.3041
  486MOL0     N64037   8.311  10.799   2.122  0.3913 -0.2371  0.0138
  486MOL0     C64038   8.304  10.878   2.009  0.2939  0.3029 -0.0387
  486MOL0     C64039   8.206  10.970   2.026 -0.2608  0.2332  0.1611
  486MOL0     C64040   8.179  11.098   1.950 -0.2262  0.1345 -1.0688
  486MOL0     C64041   8.192  11.226   2.037 -0.5351  0.1215  0.5793
  486MOL0     C64042   8.151  11.351   1.957  0.4116 -0.2856  0.1445
  486MOL0     C64043   8.008  11.404   1.985  0.0778 -0.4157 -0.3591
  486MOL0     O64044   7.984  11.511   1.885 -0.1157  0.8105  0.3348
  486MOL0     C64045   7.872  11.584   1.903 -0.3464 -0.2015 -0.6691
  486MOL0     C64046   7.792  11.576   2.013 -0.0413 -0.0183  0.4523
  486MOL0     C64047   7.659  11.627   2.010  0.0959  0.0813 -0.4629
  486MOL0     C64048   7.614  11.714   1.907  0.0091  0.4468  0.8479
  486MOL0     C64049   7.477  11.771   1.906  0.9630 -0.5666 -0.5636
  486MOL0     O64050   7.407  11.759   2.026  0.4667  0.3761 -0.2170
  486MOL0     C64051   7.286  11.820   2.029 -0.8522 -0.4003 -1.0388
  486MOL0     C64052   7.268  11.957   2.012 -0.8127 -0.4745 -0.3384
  486MOL0     C64053   7.143  12.010   1.989 -0.1664  0.8165 -0.4490
  486MOL0     C64054   7.031  11.930   2.022 -0.3311  0.2858 -0.0595
  486MOL0     O64055   6.915  12.006   2.015  1.2363  0.0076  0.0289
  486MOL0     C64056   6.819  11.960   1.914 -0.5486  0.1084  0.4849
  486MOL0     C64057   6.716  12.076   1.872  0.0731  0.3102  0.3195
  486MOL0     C64058   6.788  12.200   1.808 -0.2936  0.9907  0.3899
  486MOL0     C64059   6.690  12.319   1.771 -0.7848 -0.1978 -0.6521
  486MOL0     C64060   6.752  12.454   1.723  0.3226  0.0324 -0.6512
  486MOL0     C64061   6.887  12.483   1.794 -0.1168 -0.0542  0.5415
  486MOL0     C64062   6.931  12.628   1.770 -0.5051 -0.2289  0.6722
  486MOL0     C64063   7.058  12.660   1.854  0.3177 -0.2885  0.1021
  486MOL0    Cl64064   7.183  12.535   1.837  0.1410  0.0889 -0.2947
  486MOL0     C64065   7.046  11.792   2.044  0.2645  0.3211  0.4592
  486MOL0     C64066   7.173  11.739   2.049  0.1894 -0.5346 -0.7640
  486MOL0     O64067   7.441  11.826   1.804  0.6481  0.1155  0.5120
  486MOL0     C64068   7.709  11.731   1.798 -0.0946  0.9062 -0.1644
  486MOL0     C64069   7.828  11.660   1.797 -0.1430  0.3052 -0.8225
  486MOL0     N64070   8.151  10.944   2.150 -0.4244 -0.3241 -0.4858
  486MOL0     N64071   8.212  10.846   2.207 -0.2144  0.3807 -0.0377
  486MOL0     C64072   9.290  10.358   2.053 -0.4233 -0.5528  0.1736
  486MOL0     C64073   9.423  10.390   2.012  0.4214  0.2301  0.5763
  486MOL0     C64074   9.827  10.384   1.796  0.1717  0.2682 -0.0663
  486MOL0     C64075   9.944  10.309   1.781 -0.6803 -0.7845 -0.1481
  486MOL0     C64076  10.067  10.376   1.766  0.3781  0.4251  0.2069
  486MOL0     C64077  10.076  10.517   1.763  0.3780  0.0696 -0.1353
  486MOL0     O64078  10.201  10.575   1.758  0.2797  0.1307 -0.4141
  486MOL0     C64079  10.207  10.698   1.688  0.8241  0.0961  0.2542
  486MOL0     C64080  10.347  10.740   1.670 -0.5147  0.0009 -0.9824
  486MOL0     C64081  10.424  10.761   1.805 -0.1328  0.0678 -0.2151
  486MOL0     C64082  10.576  10.814   1.787  0.1889 -0.8239  0.3488
  486MOL0     C64083  10.572  10.952   1.723  0.0743  0.0607 -0.2320
  486MOL0     C64084  10.577  11.064   1.677 -0.7105 -0.4393 -0.1416
  486MOL0     C64085   9.958  10.584   1.782 -0.6600 -0.6683 -0.4466
  486MOL0     C64086   9.837  10.518   1.786  0.3106  0.3831  0.4499
  486MOL0     H64087   9.470  10.188   1.752  1.8919  0.3717  1.4069
  486MOL0     H64088   9.246  10.090   1.835  0.5610  1.6426 -2.3338
  486MOL0     H64089   9.049  10.397   1.955  2.5367 -0.9519 -1.0644
  486MOL0     H64090   9.033  10.367   2.125  0.3324 -1.9404  0.5558
  486MOL0     H64091   8.859  10.184   2.085 -0.9806 -0.4990 -1.0166
  486MOL0     H64092   8.846  10.236   1.922  1.1675 -0.1347 -1.6242
  486MOL0     H64093   8.651  10.325   2.046  1.7706 -4.8717 -1.2629
  486MOL0     H64094   8.778  10.459   2.019  0.8419  0.7921  2.2493
  486MOL0     H64095   8.742  10.292   2.263 -0.9714  0.0127  0.3343
  486MOL0     H64096   8.844  10.438   2.254  0.3002  1.4335 -0.4180
  486MOL0     H64097   8.633  10.468   2.368  1.2933  3.6063  0.6103
  486MOL0     H64098   8.541  10.457   2.212 -0.8167  5.3756 -2.7520
  486MOL0     H64099   8.690  10.633   2.115  1.2820 -0.4048  0.9455
  486MOL0     H64100   8.741  10.671   2.274 -0.7979  0.0912  0.5236
  486MOL0     H64101   8.501  10.720   2.342  1.4598 -0.2105  1.0087
  486MOL0     H64102   8.570  10.814   2.210  1.6467  0.7749  0.8080
  486MOL0     H64103   8.335  10.601   2.179 -0.7077 -0.0492 -2.7340
  486MOL0     H64104   8.433  10.634   2.050  1.5811  2.9672 -2.2586
  486MOL0     H64105   8.363  10.874   1.918 -0.0532 -3.4787 -0.2795
  486MOL0     H64106   8.079  11.073   1.915  0.3002 -2.3941 -0.9490
  486MOL0     H64107   8.250  11.100   1.867 -0.5989 -2.3530 -1.5378
  486MOL0     H64108   8.298  11.232   2.063 -0.2382  0.2859 -0.6220
  486MOL0     H64109   8.135  11.217   2.130  0.1409 -2.0707  0.8640
  486MOL0     H64110   8.218  11.434   1.981 -0.4119 -0.2508  2.6120
  486MOL0     H64111   8.153  11.324   1.851 -0.3544 -0.2778  0.1199
  486MOL0     H64112   8.013  11.447   2.085  3.0960  0.5282 -0.8121
  486MOL0     H64113   7.932  11.325   1.984 -0.0251 -0.5790  3.9101
  486MOL0     H64114   7.827  11.524   2.101 -1.2628 -1.1651  0.2962
  486MOL0     H64115   7.607  11.601   2.101 -0.1841  3.0979  0.3464
  486MOL0     H64116   7.349  12.029   2.000 -1.7511  0.6481 -0.1466
  486MOL0     H64117   7.124  12.115   1.972 -0.1355  0.5352 -2.4403
  486MOL0     H64118   6.765  11.878   1.962  0.9150 -1.2493 -0.0785
  486MOL0     H64119   6.874  11.920   1.828  1.8652 -0.1835  2.0788
  486MOL0     H64120   6.654  12.089   1.961 -2.2429 -1.1148 -0.9768
  486MOL0     H64121   6.651  12.020   1.803  0.9798 -4.0463  2.6309
  486MOL0     H64122   6.841  12.160   1.721 -0.8372 -2.4045  1.4915
  486MOL0     H64123   6.870  12.227   1.875  0.1240 -1.1891  0.8321
  486MOL0     H64124   6.617  12.292   1.693 -0.9531 -0.5872 -0.3595
  486MOL0     H64125   6.637  12.343   1.863 -1.3169 -0.9028 -0.7642
  486MOL0     H64126   6.690  12.543   1.739  3.5291  2.9042 -2.9209
  486MOL0     H64127   6.772  12.467   1.617 -2.9500  0.5173 -1.3042
  486MOL0     H64128   6.955  12.410   1.747 -0.9317 -1.4966  1.5342
  486MOL0     H64129   6.881  12.462   1.901 -2.0951  1.4200  0.7658
  486MOL0     H64130   6.942  12.652   1.664  0.7538  3.2243  1.4299
  486MOL0     H64131   6.857  12.700   1.807 -0.5603  0.3901 -0.5868
  486MOL0     H64132   7.027  12.671   1.958 -2.5499  0.5013 -0.7542
  486MOL0     H64133   7.101  12.753   1.815  2.2423 -0.6747  1.1795
  486MOL0     H64134   6.957  11.731   2.060  0.8003 -0.7940 -0.6077
  486MOL0     H64135   7.181  11.632   2.064 -1.4319 -0.5650  0.0902
  486MOL0     H64136   7.681  11.786   1.709  0.7172  1.3620 -0.1492
  486MOL0     H64137   7.901  11.673   1.718 -0.5520  0.8381 -1.1133
  486MOL0     H64138   9.254  10.414   2.139  1.9080  1.2495  0.0833
  486MOL0     H64139   9.485  10.465   2.060 -0.0909  2.1988 -1.6605
  486MOL0     H64140   9.946  10.201   1.783  0.8554 -0.8194 -1.3178
  486MOL0     H64141  10.160  10.327   1.738  0.9337  2.3157 -1.5095
  486MOL0     H64142  10.157  10.782   1.736  1.9044  0.5729  0.5913
  486MOL0     H64143  10.165  10.680   1.589  1.3103  4.6317 -1.0442
  486MOL0     H64144  10.399  10.671   1.602 -2.0253  0.6606 -2.9069
  486MOL0     H64145  10.353  10.833   1.613  0.2448  0.6405  0.1076
  486MOL0     H64146  10.426  10.663   1.854  2.0636  1.5503  2.9137
  486MOL0     H64147  10.365  10.833   1.862  1.1839  1.0949 -0.1257
  486MOL0     H64148  10.632  10.815   1.880  0.7822  2.7337  0.1026
  486MOL0     H64149  10.627  10.748   1.716  1.1629 -1.5425  1.6932
  486MOL0     H64150  10.574  11.165   1.642  1.3493 -0.5162 -0.6701
  486MOL0     H64151   9.961  10.693   1.783 -2.3222 -0.5469  2.7147
  486MOL0     H64152   9.744  10.573   1.798 -0.9716 -1.2062 -1.4145
  487MOL0     O64153   5.726   1.609   6.112  0.0630  0.1284 -0.2669
  487MOL0     C64154   5.770   1.614   6.227  0.0145 -0.2657  0.1273
  487MOL0     O64155   5.698   1.654   6.331  0.2746  0.5327 -0.0157
  487MOL0     C64156   5.573   1.692   6.312  0.5236 -0.0004 -0.4880
  487MOL0     C64157   5.544   1.821   6.271 -0.4417 -0.3930  0.7103
  487MOL0     C64158   5.410   1.868   6.262 -0.1776  1.2083 -0.6953
  487MOL0     C64159   5.304   1.779   6.296 -0.0329 -0.0681  0.6379
  487MOL0     O64160   5.176   1.833   6.297  0.1299 -0.2495  0.1819
  487MOL0     C64161   5.070   1.778   6.366  0.2159  0.2794 -0.0239
  487MOL0     C64162   4.982   1.679   6.279 -0.0209  0.4855 -0.2630
  487MOL0     C64163   4.855   1.624   6.349 -0.7370  0.5256 -0.0045
  487MOL0     C64164   4.751   1.736   6.341 -0.6924  0.2736 -0.1180
  487MOL0     C64165   4.614   1.683   6.389 -0.3326  0.3500 -0.0006
  487MOL0     C64166   4.501   1.768   6.334  0.8859  0.1034  0.7396
  487MOL0     C64167   4.366   1.700   6.374 -0.2754  0.0598  0.5675
  487MOL0     C64168   4.315   1.737   6.514 -0.5088  0.3400 -0.3784
  487MOL0     N64169   4.184   1.695   6.552 -0.4919  0.0405  0.2568
  487MOL0     C64170   4.072   1.769   6.521  0.2384 -0.8407 -0.6281
  487MOL0     C64171   3.965   1.690   6.553 -0.0178 -0.0394  0.0300
  487MOL0     C64172   3.816   1.726   6.548  0.5079 -0.2912  0.3093
  487MOL0     C64173   3.713   1.615   6.581  0.0167 -0.5638 -0.4430
  487MOL0     C64174   3.571   1.666   6.586 -0.0449  0.7566 -0.0947
  487MOL0     C64175   3.476   1.558   6.613 -0.0255 -0.7759 -0.2480
  487MOL0     O64176   3.348   1.608   6.646  0.4491 -1.0091  0.2389
  487MOL0     C64177   3.244   1.530   6.609 -0.1007  0.0071 -0.1226
  487MOL0     C64178   3.202   1.505   6.484  0.3792  0.0765  0.1433
  487MOL0     C64179   3.082   1.433   6.455 -0.0517 -0.6106 -0.4630
  487MOL0     C64180   3.013   1.373   6.557  0.3000  0.7393  0.1971
  487MOL0     C64181   2.883   1.300   6.534  0.0150  0.0435  0.2784
  487MOL0     O64182   2.813   1.253   6.642 -0.2438  0.3733  0.0465
  487MOL0     C64183   2.688   1.194   6.646 -0.1036  0.6076  0.2089
  487MOL0     C64184   2.605   1.168   6.537  0.0527 -0.4841 -0.0665
  487MOL0     C64185   2.473   1.120   6.555  0.7800  0.1617 -0.3591
  487MOL0     C64186   2.428   1.078   6.690  0.3376 -0.2215  0.1384
  487MOL0     O64187   2.307   1.010   6.714 -0.1497 -0.5967  0.5660
  487MOL0     C64188   2.199   1.039   6.631 -0.4009  0.6031  0.8056
  487MOL0     C64189   2.079   0.974   6.691  0.2395 -0.2468 -0.4586
  487MOL0     C64190   1.970   0.945   6.584  0.3058 -0.0137 -0.0560
  487MOL0     C64191   2.017   0.851   6.468  0.0187 -0.3383 -0.2628
  487MOL0     C64192   1.895   0.809   6.398  0.8848 -0.4874 -0.6326
  487MOL0     C64193   1.912   0.724   6.279 -0.3184  0.1019 -0.3479
  487MOL0     C64194   1.794   0.699   6.198  0.1909  0.0394  0.5549
  487MOL0     C64195   1.808   0.574   6.111 -0.0396  0.0555  0.7623
  487MOL0    Cl64196   1.944   0.559   6.008 -0.4370 -0.0819 -0.1362
  487MOL0     C64197   2.515   1.100   6.797  0.8936  0.0533  0.0826
  487MOL0     C64198   2.647   1.155   6.775  1.1513 -0.7354  0.3276
  487MOL0     O64199   2.847   1.291   6.411  0.6904 -0.7215 -0.9421
  487MOL0     C64200   3.064   1.391   6.689 -0.0202 -0.6727 -0.2886
  487MOL0     C64201   3.173   1.481   6.711  0.2263  0.3618 -0.9519
  487MOL0     N64202   4.018   1.564   6.571 -0.4706 -0.1387  0.0078
  487MOL0     N64203   4.153   1.569   6.588  0.0378 -0.0050  0.3361
  487MOL0     C64204   5.335   1.641   6.332 -0.1744  0.3098 -0.1374
  487MOL0     C64205   5.469   1.598   6.348 -0.1386 -0.0096  0.5559
  487MOL0     C64206   5.914   1.578   6.245 -0.5239  0.0149 -0.3623
  487MOL0     C64207   5.961   1.530   6.369 -0.0192  0.3743 -0.2951
  487MOL0     C64208   6.099   1.513   6.386  0.0416 -0.4850  0.5455
  487MOL0     C64209   6.189   1.507   6.280 -0.3871 -0.5943 -0.5102
  487MOL0     O64210   6.322   1.490   6.285  0.2665  0.7261  0.1535
  487MOL0     C64211   6.377   1.434   6.414  0.6069 -1.0653  0.4024
  487MOL0     C64212   6.505   1.358   6.388 -0.3782 -0.7585  0.5025
  487MOL0     C64213   6.639   1.445   6.373 -0.5146  0.2307 -0.2735
  487MOL0     C64214   6.761   1.368   6.317 -0.7221 -0.4645 -0.8684
  487MOL0     C64215   6.732   1.325   6.179 -0.5589  0.3314  0.2205
  487MOL0     C64216   6.709   1.290   6.063  0.5076 -0.3302 -0.0766
  487MOL0     C64217   6.140   1.548   6.160  0.3270  0.4937  0.0923
  487MOL0     C64218   6.008   1.585   6.147  0.3141 -0.7681  0.9046
  487MOL0     H64219   5.623   1.892   6.251 -2.1106  1.8187  1.5337
  487MOL0     H64220   5.386   1.973   6.250 -1.6805  0.8252 -1.1585
  487MOL0     H64221   5.004   1.857   6.402  1.0815  0.7354  0.6064
  487MOL0     H64222   5.112   1.724   6.452 -1.2634  0.3488  0.7679
  487MOL0     H64223   5.041   1.588   6.265 -2.1356 -1.1792  1.1790
  487MOL0     H64224   4.964   1.725   6.181  2.6513  2.7503  0.1856
  487MOL0     H64225   4.883   1.587   6.448 -0.1759 -1.1304 -0.7425
  487MOL0     H64226   4.822   1.539   6.288  1.9416 -0.9204  0.4511
  487MOL0     H64227   4.782   1.816   6.409 -0.6609 -1.2492  1.7381
  487MOL0     H64228   4.745   1.769   6.237  0.7039 -1.3517 -0.7765
  487MOL0     H64229   4.609   1.674   6.498  2.4527 -0.8905  0.1222
  487MOL0     H64230   4.601   1.584   6.343  0.1020  0.1930  0.2097
  487MOL0     H64231   4.511   1.763   6.225 -1.7512 -0.7143  0.4668
  487MOL0     H64232   4.500   1.871   6.371  1.2121  0.3477  0.0797
  487MOL0     H64233   4.298   1.745   6.301 -0.4109  0.9719  1.2235
  487MOL0     H64234   4.373   1.594   6.352 -1.5220  0.0909 -0.0801
  487MOL0     H64235   4.319   1.846   6.513  2.8131  0.3080 -0.8623
  487MOL0     H64236   4.387   1.703   6.590  1.9964  2.3722 -1.6769
  487MOL0     H64237   4.076   1.876   6.502  0.7351 -0.0993  2.8532
  487MOL0     H64238   3.796   1.749   6.443  2.2874 -1.1811 -0.2754
  487MOL0     H64239   3.795   1.808   6.617 -0.5263 -1.0824  0.9807
  487MOL0     H64240   3.752   1.573   6.674  1.5451  0.5619 -0.5403
  487MOL0     H64241   3.707   1.541   6.501 -0.4097 -0.8058 -0.1923
  487MOL0     H64242   3.559   1.742   6.665  0.0054 -0.5451  1.2074
  487MOL0     H64243   3.547   1.712   6.490  1.7021  1.2309 -0.3385
  487MOL0     H64244   3.508   1.501   6.700  1.0772 -0.5959 -0.5262
  487MOL0     H64245   3.482   1.480   6.537  1.7402 -0.5289 -0.3852
  487MOL0     H64246   3.261   1.543   6.400  0.5107  1.8788  1.0100
  487MOL0     H64247   3.058   1.419   6.350 -1.9474  0.9170 -0.2756
  487MOL0     H64248   2.637   1.191   6.436  0.4782 -0.2610  0.1178
  487MOL0     H64249   2.406   1.102   6.471  2.6589 -1.4907 -1.5896
  487MOL0     H64250   2.213   0.989   6.535 -1.1558  0.1543  0.9153
  487MOL0     H64251   2.181   1.147   6.625 -0.4290  0.5923  0.6987
  487MOL0     H64252   2.058   1.036   6.778  1.8974  0.0938 -0.2539
  487MOL0     H64253   2.107   0.876   6.730 -0.2233 -0.3317 -0.3354
  487MOL0     H64254   1.945   1.045   6.546  0.7043  1.1277  2.4613
  487MOL0     H64255   1.887   0.896   6.635 -0.8353  0.3757 -1.4683
  487MOL0     H64256   2.081   0.902   6.395  1.9819 -1.2724  0.7313
  487MOL0     H64257   2.076   0.766   6.502 -1.9189 -0.9866  1.7346
  487MOL0     H64258   1.845   0.900   6.366  0.9735 -0.5280 -0.8920
  487MOL0     H64259   1.836   0.754   6.473  0.7586 -0.1327 -0.4720
  487MOL0     H64260   1.947   0.627   6.315  2.9080  1.9623  2.0684
  487MOL0     H64261   1.989   0.757   6.208 -0.3543 -0.4139 -0.6336
  487MOL0     H64262   1.705   0.702   6.262 -0.5183  0.7632 -0.4290
  487MOL0     H64263   1.787   0.784   6.129 -2.1790 -1.2100 -0.8749
  487MOL0     H64264   1.711   0.552   6.064 -0.0265 -3.0056  1.9614
  487MOL0     H64265   1.816   0.499   6.190  0.3074  0.3156  0.9698
  487MOL0     H64266   2.479   1.080   6.897 -0.1330  1.4466  0.0241
  487MOL0     H64267   2.721   1.172   6.853 -0.6336  0.7275  1.8226
  487MOL0     H64268   3.007   1.358   6.775  0.1420 -2.2456 -0.7522
  487MOL0     H64269   3.206   1.504   6.812 -1.7954 -0.3324 -0.0835
  487MOL0     H64270   5.247   1.579   6.341  0.9118 -1.5263 -1.4228
  487MOL0     H64271   5.486   1.500   6.391 -0.9899 -0.1970  0.4854
  487MOL0     H64272   5.892   1.533   6.453  1.3778 -0.8767  0.9428
  487MOL0     H64273   6.133   1.476   6.482 -1.9364 -0.6779  1.2289
  487MOL0     H64274   6.302   1.368   6.460  0.1568 -1.5779 -0.9919
  487MOL0     H64275   6.401   1.520   6.476  1.3791 -0.4076 -0.7798
  487MOL0     H64276   6.512   1.294   6.476 -1.3959 -0.0380  1.1282
  487MOL0     H64277   6.494   1.304   6.294 -4.2788  1.9140 -0.8513
  487MOL0     H64278   6.664   1.485   6.472 -1.0172  0.1473 -0.1079
  487MOL0     H64279   6.629   1.532   6.308  1.9396 -0.5514 -1.8357
  487MOL0     H64280   6.842   1.440   6.307 -0.7752 -0.4761 -1.3926
  487MOL0     H64281   6.798   1.284   6.377 -0.0052 -0.2326 -0.9797
  487MOL0     H64282   6.674   1.246   5.972 -0.0621 -0.6183  0.2759
  487MOL0     H64283   6.199   1.536   6.070 -0.9819  0.8016 -0.8273
  487MOL0     H64284   5.971   1.604   6.046  0.0059 -4.0439  0.2849
  488MOL0     O64285   4.508   4.045   4.704 -0.0814 -0.0301  0.6694
  488MOL0     C64286   4.616   4.099   4.683  0.6095 -0.1684  0.3213
  488MOL0     O64287   4.633   4.235   4.684  0.0814 -0.8257 -0.5820
  488MOL0     C64288   4.538   4.309   4.748  0.0206 -0.3456  0.0376
  488MOL0     C64289   4.410   4.330   4.697  0.7714  1.3920  0.1254
  488MOL0     C64290   4.309   4.382   4.779  0.2930 -0.6797  0.4810
  488MOL0     C64291   4.334   4.442   4.902 -0.0749 -0.1912 -0.8432
  488MOL0     O64292   4.238   4.515   4.970  0.1137 -1.1422  0.7110
  488MOL0     C64293   4.217   4.509   5.107  0.3320 -0.3913  0.1202
  488MOL0     C64294   4.106   4.607   5.145 -0.5418 -0.5069 -0.1557
  488MOL0     C64295   4.087   4.644   5.290  0.1142  0.2805  0.7225
  488MOL0     C64296   3.959   4.718   5.327 -0.0009  0.4010 -0.4418
  488MOL0     C64297   3.830   4.628   5.305  0.1121  0.2974  0.1516
  488MOL0     C64298   3.712   4.682   5.378 -0.0582 -0.0775  0.4888
  488MOL0     C64299   3.592   4.591   5.359 -0.5926 -0.1792  0.0781
  488MOL0     C64300   3.464   4.663   5.410 -0.7320  0.3307 -0.4978
  488MOL0     N64301   3.339   4.590   5.376  0.0850 -0.5389 -0.8993
  488MOL0     C64302   3.260   4.525   5.465  0.1590 -0.2693  0.2513
  488MOL0     C64303   3.146   4.494   5.400  0.3801  0.1353 -0.0468
  488MOL0     C64304   3.030   4.424   5.462 -0.1205 -0.7730  0.7289
  488MOL0     C64305   2.906   4.507   5.503  0.9405 -0.0857  0.3305
  488MOL0     C64306   2.774   4.428   5.500 -0.5319  0.3611  0.8482
  488MOL0     C64307   2.658   4.527   5.520  0.4756 -0.2405 -0.4464
  488MOL0     O64308   2.530   4.460   5.514 -0.2960  0.1836 -0.2417
  488MOL0     C64309   2.416   4.536   5.518 -0.2018  0.1522  0.7953
  488MOL0     C64310   2.293   4.476   5.482 -0.3131 -0.1431  0.1229
  488MOL0     C64311   2.178   4.546   5.481 -0.5006 -0.5267 -0.3754
  488MOL0     C64312   2.178   4.679   5.515 -0.3329  0.1285 -0.1575
  488MOL0     C64313   2.060   4.757   5.505  0.1759  0.0691  0.0679
  488MOL0     O64314   2.082   4.890   5.497  0.4013 -0.2927 -0.1586
  488MOL0     C64315   1.969   4.965   5.506  0.2305  1.0105  0.1269
  488MOL0     C64316   1.899   4.995   5.391  0.6824  0.5311  0.3215
  488MOL0     C64317   1.778   5.080   5.399  0.0696  0.6760  0.0143
  488MOL0     C64318   1.728   5.110   5.526 -0.0788 -0.6744 -0.4855
  488MOL0     O64319   1.605   5.183   5.538 -0.5065 -0.2694  0.6305
  488MOL0     C64320   1.495   5.187   5.440  0.0946  0.5922  0.1530
  488MOL0     C64321   1.446   5.046   5.394 -0.1857 -0.0212  0.2467
  488MOL0     C64322   1.427   4.939   5.512  0.4702  0.0476 -0.0598
  488MOL0     C64323   1.328   4.983   5.614  0.0569 -0.8090 -0.4980
  488MOL0     C64324   1.185   5.014   5.556 -0.3542 -0.5709 -0.0482
  488MOL0     C64325   1.073   4.980   5.656  0.0614 -0.4672  0.2703
  488MOL0     C64326   1.041   4.829   5.685 -0.8536 -0.3708  0.3260
  488MOL0     C64327   0.975   4.800   5.813  0.9688 -0.1515 -0.8493
  488MOL0    Cl64328   0.817   4.875   5.797  0.3074  0.3221  0.0876
  488MOL0     C64329   1.803   5.081   5.643 -0.1408  0.5329 -0.3609
  488MOL0     C64330   1.927   5.011   5.633 -0.2554  0.0300  0.0844
  488MOL0     O64331   1.950   4.700   5.497  0.1885 -0.1109  0.2464
  488MOL0     C64332   2.300   4.744   5.550  0.4695 -0.4358 -0.3846
  488MOL0     C64333   2.413   4.674   5.547 -0.1953  0.1242 -0.4218
  488MOL0     N64334   3.157   4.533   5.270 -0.7337 -0.2504  0.2075
  488MOL0     N64335   3.281   4.584   5.257  0.7404 -0.3624  0.1755
  488MOL0     C64336   4.466   4.430   4.952 -0.1907  0.6037 -0.3194
  488MOL0     C64337   4.565   4.361   4.877 -0.0385  0.5064 -0.6103
  488MOL0     C64338   4.731   4.013   4.652  0.0859 -0.3389 -0.3617
  488MOL0     C64339   4.726   3.874   4.658 -0.0480  0.5398 -0.0044
  488MOL0     C64340   4.841   3.803   4.648 -0.0528 -0.1696  0.1692
  488MOL0     C64341   4.971   3.853   4.636 -0.5056 -1.4785  0.1015
  488MOL0     O64342   5.096   3.786   4.620  0.9757  0.5240 -0.2224
  488MOL0     C64343   5.092   3.647   4.638  0.4888  0.7644  0.1405
  488MOL0     C64344   5.217   3.586   4.573  0.8786  0.6260  0.0896
  488MOL0     C64345   5.266   3.450   4.627 -0.3383  1.0701 -0.7038
  488MOL0     C64346   5.358   3.368   4.536 -0.7088 -0.2306  0.7529
  488MOL0     C64347   5.498   3.410   4.548  0.4106  0.3249  0.0530
  488MOL0     C64348   5.611   3.452   4.557 -1.2218  0.9408 -0.3121
  488MOL0     C64349   4.973   3.988   4.620  0.4299 -0.4017 -0.1750
  488MOL0     C64350   4.854   4.070   4.622 -0.2390 -0.4881 -1.0532
  488MOL0     H64351   4.386   4.298   4.596 -0.0514  1.5234  0.2722
  488MOL0     H64352   4.205   4.397   4.752  0.0538 -1.3692  1.0051
  488MOL0     H64353   4.311   4.540   5.153  0.3566  0.0449 -0.2248
  488MOL0     H64354   4.185   4.411   5.144 -3.5332  1.6312  2.7379
  488MOL0     H64355   4.010   4.570   5.108 -0.7648  0.3594 -0.4542
  488MOL0     H64356   4.117   4.701   5.092 -0.3242  0.9537  2.3064
  488MOL0     H64357   4.179   4.697   5.316  0.5799  0.3662 -0.9925
  488MOL0     H64358   4.098   4.545   5.335  1.8619  0.0983 -0.0410
  488MOL0     H64359   3.975   4.749   5.430 -1.0334 -2.0184  0.5146
  488MOL0     H64360   3.953   4.810   5.267 -0.3712  1.5905  1.3231
  488MOL0     H64361   3.858   4.527   5.333  0.9167 -0.0720 -1.7847
  488MOL0     H64362   3.795   4.629   5.201  0.4522 -1.4682 -0.0021
  488MOL0     H64363   3.691   4.780   5.333 -3.1128  0.0173  1.8540
  488MOL0     H64364   3.738   4.691   5.484  0.2804 -2.5676  0.6672
  488MOL0     H64365   3.583   4.580   5.250 -2.1272 -0.1320  0.1847
  488MOL0     H64366   3.615   4.494   5.403  3.5671 -0.0963 -1.3996
  488MOL0     H64367   3.456   4.764   5.368 -1.3989  0.8504  0.8178
  488MOL0     H64368   3.473   4.680   5.518 -0.0119  1.8276 -0.7703
  488MOL0     H64369   3.276   4.506   5.571  0.3970  0.6369  0.3832
  488MOL0     H64370   3.061   4.369   5.551  1.6665 -3.0489 -1.1665
  488MOL0     H64371   3.007   4.357   5.379  0.8085 -0.6428  0.3437
  488MOL0     H64372   2.893   4.585   5.428  0.2810 -0.3870  0.1231
  488MOL0     H64373   2.931   4.545   5.602  1.1539 -0.9592  0.6219
  488MOL0     H64374   2.767   4.379   5.403  3.0804 -0.1910  0.7384
  488MOL0     H64375   2.771   4.354   5.580 -1.5060 -0.5820 -0.0301
  488MOL0     H64376   2.663   4.604   5.442  1.7094 -1.2022 -1.3619
  488MOL0     H64377   2.664   4.579   5.616 -2.0728  0.7949 -0.7760
  488MOL0     H64378   2.302   4.375   5.443  2.6441  0.9575 -2.4286
  488MOL0     H64379   2.081   4.505   5.453 -0.3244  0.2408 -2.2552
  488MOL0     H64380   1.940   4.943   5.306 -0.4269 -1.6734  1.0588
  488MOL0     H64381   1.738   5.108   5.302  0.7920 -1.3954 -0.9363
  488MOL0     H64382   1.525   5.238   5.348 -1.5598 -1.0638 -1.3789
  488MOL0     H64383   1.406   5.239   5.476 -0.7055 -0.1197 -0.7391
  488MOL0     H64384   1.520   5.006   5.325 -0.3654  0.5632 -0.2950
  488MOL0     H64385   1.355   5.045   5.333  0.7387 -0.3753 -1.1569
  488MOL0     H64386   1.523   4.918   5.560  0.2147 -0.8641  0.0711
  488MOL0     H64387   1.392   4.844   5.472  0.8289  0.1028 -0.5148
  488MOL0     H64388   1.329   4.908   5.693 -0.4648  2.7236  3.1942
  488MOL0     H64389   1.366   5.073   5.663  0.4951 -0.1991 -1.8959
  488MOL0     H64390   1.180   4.954   5.465 -2.6163  0.0239 -0.3769
  488MOL0     H64391   1.183   5.121   5.534  1.0214 -0.7386 -1.1023
  488MOL0     H64392   0.984   5.032   5.619  1.6197  0.9537 -1.7079
  488MOL0     H64393   1.110   5.038   5.740 -0.3700  2.2045 -1.2653
  488MOL0     H64394   0.976   4.789   5.607 -0.8220 -2.4852  1.3251
  488MOL0     H64395   1.133   4.770   5.682  0.2993  1.4023 -2.2371
  488MOL0     H64396   1.029   4.844   5.898 -0.4700  1.7288 -0.8543
  488MOL0     H64397   0.970   4.691   5.816 -1.4793 -0.0762 -0.0739
  488MOL0     H64398   1.783   5.108   5.747 -0.9394 -0.0584 -0.3481
  488MOL0     H64399   1.970   4.976   5.727 -0.7035  0.6278  0.5208
  488MOL0     H64400   2.307   4.852   5.564  0.5963 -0.2817 -1.5369
  488MOL0     H64401   2.498   4.733   5.578  0.4742 -1.0527  0.0402
  488MOL0     H64402   4.494   4.486   5.041 -0.9536 -1.0536  0.9982
  488MOL0     H64403   4.657   4.335   4.927  0.2352  1.1279 -0.7830
  488MOL0     H64404   4.628   3.832   4.679  0.1799 -0.2599 -0.4900
  488MOL0     H64405   4.820   3.697   4.644 -1.3249 -0.0896  2.5227
  488MOL0     H64406   5.006   3.600   4.590  1.1929  0.8083 -1.2160
  488MOL0     H64407   5.084   3.617   4.742  0.0471 -0.1732 -0.1535
  488MOL0     H64408   5.199   3.577   4.465  0.5386 -0.4765  0.2264
  488MOL0     H64409   5.297   3.659   4.588  0.9464  0.5811 -0.0535
  488MOL0     H64410   5.182   3.382   4.646 -0.4624  1.2792 -0.5039
  488MOL0     H64411   5.316   3.480   4.719 -2.2890 -0.9550  1.1475
  488MOL0     H64412   5.339   3.261   4.546  0.3244 -0.7236 -1.6946
  488MOL0     H64413   5.326   3.393   4.434  1.2233  0.6252  0.3075
  488MOL0     H64414   5.710   3.493   4.566 -1.3029  0.9160  0.9207
  488MOL0     H64415   5.073   4.021   4.596 -0.0886 -1.4829 -4.8307
  488MOL0     H64416   4.866   4.176   4.604  0.6931 -0.0151  1.9146
  489MOL0     O64417   3.311  10.957   8.883 -0.2503 -0.2192  0.1336
  489MOL0     C64418   3.342  11.009   8.776  0.0400  0.0730  0.2968
  489MOL0     O64419   3.253  11.023   8.669  0.5709  0.0027  0.4526
  489MOL0     C64420   3.124  10.978   8.685  0.2361 -0.1226 -0.1196
  489MOL0     C64421   3.037  11.028   8.776  0.2818  0.4322  0.2081
  489MOL0     C64422   2.898  10.994   8.773  0.2230  0.0083 -0.6170
  489MOL0     C64423   2.840  10.918   8.669 -0.5864 -0.1154 -0.1124
  489MOL0     O64424   2.713  10.870   8.665 -0.7867 -0.4220  0.1626
  489MOL0     C64425   2.632  10.872   8.783  0.5142  0.0891  0.6019
  489MOL0     C64426   2.500  10.818   8.741  0.2353 -0.4252  0.5895
  489MOL0     C64427   2.383  10.830   8.840  0.6959 -0.3661  0.5713
  489MOL0     C64428   2.243  10.806   8.763 -1.3514 -0.5676 -0.2987
  489MOL0     C64429   2.134  10.763   8.856  0.0870 -0.2251 -0.6830
  489MOL0     C64430   2.013  10.707   8.782 -0.5206  0.1444  0.0367
  489MOL0     C64431   1.902  10.654   8.872 -0.2499 -0.2639  0.4841
  489MOL0     C64432   1.798  10.581   8.802  0.8683 -0.4716  0.3094
  489MOL0     N64433   1.675  10.557   8.883  0.3945  0.2976  0.6036
  489MOL0     C64434   1.676  10.477   8.994 -0.8533 -0.7054 -0.9938
  489MOL0     C64435   1.543  10.479   9.030 -0.4996  0.4508 -0.1939
  489MOL0     C64436   1.497  10.396   9.154 -0.2584 -0.1059 -0.1874
  489MOL0     C64437   1.445  10.497   9.265 -0.0840  0.6715  0.3887
  489MOL0     C64438   1.429  10.413   9.395  0.0125 -0.2661  0.2057
  489MOL0     C64439   1.377  10.493   9.520 -1.0083  0.0405 -0.0973
  489MOL0     O64440   1.260  10.577   9.497 -0.2175 -0.0926 -0.6982
  489MOL0     C64441   1.144  10.539   9.564  0.2625 -0.0306  0.8639
  489MOL0     C64442   1.113  10.413   9.625  0.2748 -0.5015  0.3783
  489MOL0     C64443   0.986  10.396   9.675 -0.0649  0.5768  0.0014
  489MOL0     C64444   0.887  10.496   9.673 -0.1177 -0.5297 -0.4968
  489MOL0     C64445   0.753  10.471   9.731 -0.0747 -0.2006  0.1094
  489MOL0     O64446   0.684  10.587   9.766  0.1920 -0.0448  0.1989
  489MOL0     C64447   0.558  10.569   9.824  0.7029 -0.6426  0.8981
  489MOL0     C64448   0.450  10.522   9.752  0.2855  1.2677 -0.6286
  489MOL0     C64449   0.325  10.501   9.814 -1.2231 -0.4931 -1.1053
  489MOL0     C64450   0.318  10.530   9.952 -0.2097  0.4717  0.3153
  489MOL0     O64451   0.198  10.497  10.007 -0.2432  0.1787 -1.0046
  489MOL0     C64452   0.151  10.579  10.117 -0.2804 -0.1204  0.3758
  489MOL0     C64453   0.009  10.542  10.159  0.5913  1.2358 -0.7079
  489MOL0     C64454  -0.042  10.648  10.248  0.5720 -0.5875  0.6920
  489MOL0     C64455  -0.183  10.626  10.291 -0.2105  0.0619 -0.0955
  489MOL0     C64456  -0.217  10.735  10.388  0.5122  0.1179  0.1381
  489MOL0     C64457  -0.135  10.733  10.518  0.0201  0.5455 -0.1981
  489MOL0     C64458  -0.227  10.766  10.635  0.1919  0.1567  0.1047
  489MOL0     C64459  -0.280  10.907  10.643  0.7886 -0.0339  0.1036
  489MOL0    Cl64460  -0.150  11.019  10.697 -0.3634 -0.2672  0.0288
  489MOL0     C64461   0.430  10.572  10.029  0.2072 -0.0408  0.5162
  489MOL0     C64462   0.546  10.595   9.954 -0.6521  0.4495  0.1084
  489MOL0     O64463   0.721  10.355   9.745  0.2127  0.3139 -0.1910
  489MOL0     C64464   0.925  10.621   9.628 -0.4251  0.2486  0.1902
  489MOL0     C64465   1.049  10.636   9.565  0.1578  0.2847  0.0167
  489MOL0     N64466   1.469  10.558   8.945 -0.1709  0.2891  0.1201
  489MOL0     N64467   1.548  10.600   8.854 -0.9723 -0.5820 -0.7227
  489MOL0     C64468   2.927  10.872   8.575 -0.6960 -0.6045  0.2499
  489MOL0     C64469   3.068  10.903   8.579  0.5494 -0.0197  0.4214
  489MOL0     C64470   3.471  11.070   8.767 -0.4843  0.0816  0.0850
  489MOL0     C64471   3.577  11.043   8.856 -0.6039  0.0568 -0.6359
  489MOL0     C64472   3.699  11.097   8.861 -0.8886 -0.5041  1.1878
  489MOL0     C64473   3.744  11.187   8.752 -0.3020 -0.0428 -0.1165
  489MOL0     O64474   3.871  11.235   8.748  0.2874 -0.8324 -0.4486
  489MOL0     C64475   3.874  11.374   8.705  0.9168  0.2777 -0.1583
  489MOL0     C64476   3.966  11.461   8.789 -0.2734 -0.4085 -1.0468
  489MOL0     C64477   3.943  11.474   8.940  1.2307 -0.0910  0.4781
  489MOL0     C64478   4.050  11.545   9.018  0.5942  0.4576  0.3381
  489MOL0     C64479   4.081  11.668   8.950 -0.3918 -0.2860  1.1494
  489MOL0     C64480   4.120  11.763   8.878 -0.4229  0.2810 -0.0058
  489MOL0     C64481   3.648  11.207   8.649  0.0104  0.6993  0.1881
  489MOL0     C64482   3.519  11.147   8.654 -0.1374  0.9651 -0.1752
  489MOL0     H64483   3.075  11.085   8.861  6.1468 -1.7589 -0.5432
  489MOL0     H64484   2.841  11.034   8.857  1.4071  0.1039  0.1576
  489MOL0     H64485   2.604  10.975   8.805 -2.1675 -0.5198  0.3479
  489MOL0     H64486   2.668  10.831   8.878 -0.0179 -0.7168  0.4668
  489MOL0     H64487   2.513  10.712   8.721  2.1093 -0.1331  0.0854
  489MOL0     H64488   2.476  10.864   8.645  2.5143 -1.3072 -0.4654
  489MOL0     H64489   2.395  10.932   8.876  0.6103 -0.6107  1.3114
  489MOL0     H64490   2.392  10.754   8.918 -0.9050  0.6633  1.7995
  489MOL0     H64491   2.202  10.892   8.708 -0.6244 -1.8233 -3.0072
  489MOL0     H64492   2.259  10.730   8.686 -1.2738 -1.6837  0.7932
  489MOL0     H64493   2.098  10.853   8.906  0.2417 -2.5171  4.1140
  489MOL0     H64494   2.165  10.693   8.933  1.3463  0.3969 -0.6021
  489MOL0     H64495   2.041  10.624   8.717 -1.7599 -0.1582 -0.1365
  489MOL0     H64496   1.981  10.782   8.710 -1.3741  0.0698  0.3243
  489MOL0     H64497   1.942  10.587   8.948 -1.8162  0.1052  1.6782
  489MOL0     H64498   1.853  10.737   8.924 -0.9585  1.0425 -2.0572
  489MOL0     H64499   1.840  10.494   8.751 -1.0477 -1.2651  0.0150
  489MOL0     H64500   1.765  10.648   8.722 -0.9142 -1.8991 -0.2134
  489MOL0     H64501   1.759  10.430   9.046  0.1976  0.5759 -1.4778
  489MOL0     H64502   1.584  10.338   9.187  1.4843  2.1308 -0.5604
  489MOL0     H64503   1.417  10.331   9.119  0.1935 -0.6541 -0.2057
  489MOL0     H64504   1.353  10.541   9.228  0.1268 -0.2120 -1.2785
  489MOL0     H64505   1.527  10.569   9.263 -2.5653  3.6743 -1.0353
  489MOL0     H64506   1.372  10.321   9.383 -0.6339 -0.0107  1.2219
  489MOL0     H64507   1.533  10.385   9.412 -0.0653 -1.6945 -1.4833
  489MOL0     H64508   1.453  10.567   9.547 -0.6688 -0.2237 -0.3154
  489MOL0     H64509   1.364  10.422   9.602  0.0286 -0.7899 -0.6306
  489MOL0     H64510   1.188  10.335   9.628 -0.7503 -1.5294 -0.0362
  489MOL0     H64511   0.954  10.299   9.709  1.2124  0.1538  0.0625
  489MOL0     H64512   0.453  10.496   9.647 -2.6207  0.1108 -0.5006
  489MOL0     H64513   0.248  10.445   9.763 -1.8167 -3.3358  2.5438
  489MOL0     H64514   0.148  10.681  10.077 -1.5904 -0.2706  0.0245
  489MOL0     H64515   0.220  10.581  10.202 -1.1828 -0.9593  1.1650
  489MOL0     H64516   0.013  10.447  10.212 -1.4824  1.3162 -0.3080
  489MOL0     H64517  -0.052  10.523  10.070  3.3336 -4.1009 -1.8465
  489MOL0     H64518  -0.043  10.739  10.187 -1.1794  0.0369  1.5794
  489MOL0     H64519   0.031  10.677  10.324  3.8017 -1.2178 -1.9359
  489MOL0     H64520  -0.255  10.627  10.209 -0.7628  0.6943  0.3889
  489MOL0     H64521  -0.180  10.533  10.348 -0.8167  1.3929  2.2692
  489MOL0     H64522  -0.324  10.725  10.408  0.3963 -0.9125 -0.8536
  489MOL0     H64523  -0.215  10.833  10.340  1.7902 -0.4729 -1.1040
  489MOL0     H64524  -0.050  10.802  10.509 -1.3778  2.1946 -1.4949
  489MOL0     H64525  -0.101  10.631  10.537 -1.5767 -0.0887 -0.6542
  489MOL0     H64526  -0.307  10.693  10.650 -2.4376  2.4321 -1.8161
  489MOL0     H64527  -0.164  10.757  10.724 -1.5387  1.8479  1.6236
  489MOL0     H64528  -0.361  10.902  10.717  1.1017 -0.3044  0.4277
  489MOL0     H64529  -0.320  10.929  10.544  0.2441  2.5502  0.8061
  489MOL0     H64530   0.430  10.575  10.137 -0.5276  1.7070  0.5012
  489MOL0     H64531   0.641  10.627   9.993 -0.4543  0.0804 -0.0610
  489MOL0     H64532   0.852  10.701   9.626  0.4077  1.0414 -1.9575
  489MOL0     H64533   1.088  10.730   9.527  1.8707  0.0897  1.2237
  489MOL0     H64534   2.884  10.820   8.490 -1.4426  0.5893 -0.1389
  489MOL0     H64535   3.129  10.874   8.494 -0.6603 -0.6850 -0.2569
  489MOL0     H64536   3.559  10.979   8.943  1.3837  0.3246  0.0279
  489MOL0     H64537   3.769  11.063   8.937  2.4614 -0.2746 -1.5371
  489MOL0     H64538   3.774  11.414   8.724 -0.2863 -3.6150  3.0716
  489MOL0     H64539   3.898  11.387   8.599  0.2802 -0.7654 -0.4482
  489MOL0     H64540   4.063  11.411   8.798  0.4488  1.2481  1.2530
  489MOL0     H64541   3.965  11.557   8.737 -2.9872 -0.7541 -1.7791
  489MOL0     H64542   3.943  11.373   8.982 -0.2314 -0.1103  0.4831
  489MOL0     H64543   3.846  11.525   8.947  1.1563  0.1356 -1.5099
  489MOL0     H64544   4.010  11.579   9.114 -0.8949 -0.1279 -0.0477
  489MOL0     H64545   4.135  11.478   9.033 -0.5590 -1.8401 -2.4580
  489MOL0     H64546   4.168  11.842   8.824  1.4121 -0.6501  0.1571
  489MOL0     H64547   3.675  11.260   8.558  0.0844 -0.2488 -0.3540
  489MOL0     H64548   3.448  11.162   8.574 -0.7212 -0.4119  0.0564
  490MOL0     O64549   7.817   7.509   7.980  0.0862 -0.2508  0.0057
  490MOL0     C64550   7.857   7.626   7.989  0.3600  0.1503 -0.7898
  490MOL0     O64551   7.778   7.733   8.029  0.2914 -0.2209  0.3742
  490MOL0     C64552   7.652   7.719   8.076  0.7102 -0.8987  0.2530
  490MOL0     C64553   7.620   7.725   8.211  0.0795  0.3037 -0.3449
  490MOL0     C64554   7.482   7.728   8.253  0.3024  0.9545  0.5805
  490MOL0     C64555   7.377   7.724   8.162  0.0373  0.5528 -0.3301
  490MOL0     O64556   7.246   7.709   8.202 -0.2629  0.0424 -1.0505
  490MOL0     C64557   7.148   7.756   8.112 -0.5865 -0.5364  0.4553
  490MOL0     C64558   7.019   7.794   8.186 -0.3616 -0.6018  0.6260
  490MOL0     C64559   6.945   7.682   8.249  0.0515 -0.0256 -1.2596
  490MOL0     C64560   6.820   7.739   8.313 -0.6169  0.3457 -0.3388
  490MOL0     C64561   6.722   7.634   8.361 -0.4227  0.2869  0.2486
  490MOL0     C64562   6.612   7.701   8.434 -0.3286 -0.2158  0.3998
  490MOL0     C64563   6.497   7.606   8.488 -0.7844  0.0286  0.0887
  490MOL0     C64564   6.388   7.689   8.552  0.1929 -0.2423 -0.4198
  490MOL0     N64565   6.303   7.608   8.641 -0.7064  0.0597 -0.1919
  490MOL0     C64566   6.198   7.518   8.607  0.0041  1.0247 -0.1785
  490MOL0     C64567   6.146   7.469   8.721  0.0040  0.5461  0.1694
  490MOL0     C64568   6.041   7.359   8.730  0.1288  0.4491 -0.0903
  490MOL0     C64569   5.908   7.424   8.725  0.1420 -0.4516 -0.0119
  490MOL0     C64570   5.797   7.317   8.715  0.0323  1.4327  0.2494
  490MOL0     C64571   5.661   7.380   8.695  0.5400 -0.1360 -0.0540
  490MOL0     O64572   5.578   7.266   8.662 -0.1223  0.4529 -0.0385
  490MOL0     C64573   5.439   7.288   8.663 -0.1560  0.6335 -0.3167
  490MOL0     C64574   5.379   7.412   8.663 -0.1214 -0.5870 -0.2007
  490MOL0     C64575   5.242   7.429   8.668  0.1435  0.1701  0.3965
  490MOL0     C64576   5.158   7.314   8.659 -0.3064 -0.1344 -0.7199
  490MOL0     C64577   5.011   7.324   8.675  0.8770  0.0427  0.3335
  490MOL0     O64578   4.934   7.204   8.685 -0.3195 -0.1702  0.3704
  490MOL0     C64579   4.807   7.225   8.719  0.4063 -0.2007  0.0979
  490MOL0     C64580   4.720   7.290   8.639 -0.0973  0.1774  0.3168
  490MOL0     C64581   4.585   7.307   8.681 -0.0240  0.5923  0.1681
  490MOL0     C64582   4.539   7.232   8.791 -0.3230 -0.7862  0.6243
  490MOL0     O64583   4.407   7.238   8.824  0.3850 -0.1155 -0.9273
  490MOL0     C64584   4.323   7.171   8.723 -0.4904  0.3402 -0.6512
  490MOL0     C64585   4.183   7.222   8.746  0.1576  0.3098 -0.2886
  490MOL0     C64586   4.162   7.372   8.703 -0.1387  0.1406 -0.0309
  490MOL0     C64587   4.009   7.392   8.690 -0.0764  0.8832 -0.0196
  490MOL0     C64588   3.981   7.539   8.681  0.6045 -0.0396  0.1435
  490MOL0     C64589   3.982   7.604   8.826  0.4477  0.2661  0.7467
  490MOL0     C64590   3.931   7.752   8.822 -0.2148 -0.2526 -0.1703
  490MOL0     C64591   3.889   7.796   8.956 -0.2615  0.1570  0.6211
  490MOL0    Cl64592   4.024   7.830   9.065 -0.5299  0.0196 -0.2607
  490MOL0     C64593   4.623   7.157   8.868 -0.5819 -1.0994  0.1792
  490MOL0     C64594   4.755   7.166   8.831 -0.8115 -0.3359 -0.3860
  490MOL0     O64595   4.966   7.443   8.684  0.1641  0.2631 -0.1930
  490MOL0     C64596   5.216   7.190   8.634  0.1432  0.4044 -0.6137
  490MOL0     C64597   5.352   7.179   8.644 -0.2373  0.0755  0.3252
  490MOL0     N64598   6.211   7.525   8.826  0.0026  0.7414  0.5832
  490MOL0     N64599   6.308   7.602   8.779 -0.1041 -0.0666  0.0219
  490MOL0     C64600   7.414   7.720   8.027  0.0169  0.8776  0.2969
  490MOL0     C64601   7.547   7.718   7.982 -0.1802  0.3904 -0.3230
  490MOL0     C64602   7.994   7.645   7.944 -0.7678 -0.8708 -0.2816
  490MOL0     C64603   8.075   7.548   7.884 -0.0519 -0.1993  0.3136
  490MOL0     C64604   8.205   7.576   7.838 -0.1426 -1.0174  0.6649
  490MOL0     C64605   8.268   7.697   7.869  0.8302 -0.5857  0.1731
  490MOL0     O64606   8.393   7.709   7.821  0.2210 -0.1882 -0.3483
  490MOL0     C64607   8.473   7.824   7.871  0.1905 -0.1012 -0.2177
  490MOL0     C64608   8.605   7.834   7.785 -0.1986  0.0870  0.2169
  490MOL0     C64609   8.694   7.957   7.822  0.3127  0.6061  0.3737
  490MOL0     C64610   8.837   7.952   7.760 -0.4323 -0.3258  0.4880
  490MOL0     C64611   8.908   8.080   7.781  0.3956 -0.1126 -0.1193
  490MOL0     C64612   8.978   8.181   7.787  0.2735 -0.6569 -0.2729
  490MOL0     C64613   8.189   7.799   7.932  0.2876  0.1024 -0.3598
  490MOL0     C64614   8.054   7.773   7.963 -1.0313  0.0361  0.9295
  490MOL0     H64615   7.695   7.716   8.289 -1.0169 -0.2887  0.6783
  490MOL0     H64616   7.457   7.718   8.358 -0.1809  1.6157  0.5326
  490MOL0     H64617   7.135   7.680   8.034  1.3497  1.0712 -1.5633
  490MOL0     H64618   7.186   7.842   8.056 -1.6742  0.1896  0.8110
  490MOL0     H64619   6.949   7.835   8.113  0.9368 -0.7060 -0.7346
  490MOL0     H64620   7.058   7.870   8.255  2.1215 -0.1977 -1.0691
  490MOL0     H64621   6.999   7.639   8.334 -0.7912  2.5514  0.7226
  490MOL0     H64622   6.912   7.611   8.173 -1.1700 -0.8902  0.0283
  490MOL0     H64623   6.851   7.803   8.396 -0.5450  0.9361 -0.8135
  490MOL0     H64624   6.768   7.803   8.241 -0.4319 -1.6728 -2.3886
  490MOL0     H64625   6.773   7.559   8.422  0.0038 -0.9328 -1.5067
  490MOL0     H64626   6.681   7.577   8.276 -1.6437 -2.8157  2.7187
  490MOL0     H64627   6.565   7.773   8.367  0.1233 -0.8006 -0.5773
  490MOL0     H64628   6.652   7.756   8.519 -0.5064  0.3018  0.1502
  490MOL0     H64629   6.467   7.549   8.400  1.1282 -1.8171  0.5631
  490MOL0     H64630   6.545   7.536   8.557 -2.3629  0.4988  1.7428
  490MOL0     H64631   6.333   7.727   8.466 -1.0444  0.8113  0.8057
  490MOL0     H64632   6.442   7.760   8.616  0.4165 -2.1994  1.6955
  490MOL0     H64633   6.171   7.505   8.503 -0.3699  1.3011 -0.1134
  490MOL0     H64634   6.037   7.303   8.824 -0.4857 -2.0223 -1.4932
  490MOL0     H64635   6.057   7.284   8.652 -2.9791  0.3364 -0.7535
  490MOL0     H64636   5.905   7.485   8.634  3.0945 -3.2979 -2.2617
  490MOL0     H64637   5.894   7.488   8.812  1.0998  1.8299 -1.4707
  490MOL0     H64638   5.810   7.260   8.622  0.2393  1.6205  0.1636
  490MOL0     H64639   5.778   7.250   8.799 -3.0127  0.3464 -1.1382
  490MOL0     H64640   5.668   7.453   8.613  4.2860 -2.2216 -1.8848
  490MOL0     H64641   5.621   7.417   8.790  0.6325 -0.7237  0.2133
  490MOL0     H64642   5.437   7.504   8.659 -0.5038 -0.3019  0.6872
  490MOL0     H64643   5.205   7.531   8.669  0.2393  0.2022  0.6842
  490MOL0     H64644   4.761   7.342   8.553 -1.4695  1.9073  0.6397
  490MOL0     H64645   4.509   7.363   8.628 -0.4363  0.4721  0.6222
  490MOL0     H64646   4.325   7.065   8.746  0.3142  0.7768  1.5413
  490MOL0     H64647   4.352   7.189   8.619 -0.6863  0.1078 -0.7463
  490MOL0     H64648   4.151   7.220   8.850 -0.4869  4.2551 -0.2563
  490MOL0     H64649   4.123   7.152   8.688  2.7074 -2.3541  0.0616
  490MOL0     H64650   4.212   7.407   8.612  2.4379  0.2723  1.3490
  490MOL0     H64651   4.210   7.441   8.773 -0.3214  0.9328 -0.6669
  490MOL0     H64652   3.963   7.358   8.596 -2.4644  2.1727  0.5969
  490MOL0     H64653   3.957   7.342   8.772  2.6667 -0.8130  0.8013
  490MOL0     H64654   3.881   7.548   8.636  0.4904 -2.1719 -0.1506
  490MOL0     H64655   4.055   7.576   8.610 -0.0152  0.6151 -0.1694
  490MOL0     H64656   4.084   7.600   8.867  1.4839 -3.8159 -1.6890
  490MOL0     H64657   3.923   7.546   8.897  0.9567  0.5917  1.4459
  490MOL0     H64658   4.007   7.823   8.788 -2.2482  2.2066  0.1298
  490MOL0     H64659   3.838   7.766   8.765  0.8582  0.8184 -1.7425
  490MOL0     H64660   3.820   7.721   8.996 -1.0314 -0.1700 -1.2072
  490MOL0     H64661   3.826   7.885   8.943  0.6166  0.4850 -1.9411
  490MOL0     H64662   4.588   7.103   8.956 -1.1539 -0.6706  0.2220
  490MOL0     H64663   4.823   7.121   8.903  1.6417  3.9773  0.2941
  490MOL0     H64664   5.151   7.110   8.598  1.1223 -0.6919 -0.0146
  490MOL0     H64665   5.389   7.078   8.630 -5.5190 -1.8701 -2.8798
  490MOL0     H64666   7.348   7.709   7.942  0.8056 -1.6689 -0.0633
  490MOL0     H64667   7.576   7.697   7.880 -0.7817  0.1041 -0.4363
  490MOL0     H64668   8.036   7.448   7.868  0.9510 -0.3809 -1.1756
  490MOL0     H64669   8.264   7.493   7.798 -1.3668 -0.0356 -3.7474
  490MOL0     H64670   8.501   7.817   7.976 -1.0277  2.8493  0.3876
  490MOL0     H64671   8.413   7.915   7.866 -0.2222 -0.3617 -0.0216
  490MOL0     H64672   8.664   7.742   7.796 -1.1118 -0.3756  1.4963
  490MOL0     H64673   8.581   7.847   7.679 -1.0403  2.4202  0.6546
  490MOL0     H64674   8.703   7.957   7.931 -1.0977 -0.8602  0.5232
  490MOL0     H64675   8.645   8.048   7.786 -0.9072 -0.9612 -2.2627
  490MOL0     H64676   8.900   7.875   7.804  0.6616  0.3925  0.2109
  490MOL0     H64677   8.847   7.939   7.651 -1.0782  1.4287  0.1772
  490MOL0     H64678   9.017   8.279   7.801 -2.0539  0.6642 -2.1579
  490MOL0     H64679   8.228   7.896   7.962  0.1795  0.2980 -0.8402
  490MOL0     H64680   8.002   7.859   8.004 -3.4504 -0.4120 -0.9169
  491MOL0     O64681   0.374   0.839   0.722 -0.7418  0.2963 -0.3958
  491MOL0     C64682   0.407   0.736   0.780  0.8977 -0.2483 -0.0646
  491MOL0     O64683   0.322   0.626   0.794 -0.9133  0.5993 -0.0362
  491MOL0     C64684   0.206   0.623   0.731 -0.3624 -0.2586 -0.5397
  491MOL0     C64685   0.164   0.698   0.618  0.2368  0.3059 -0.4876
  491MOL0     C64686   0.043   0.671   0.563 -0.1941  0.4751 -0.1461
  491MOL0     C64687  -0.052   0.588   0.624 -0.3485  0.3345  0.2170
  491MOL0     O64688  -0.187   0.570   0.589 -0.6856  0.8548 -0.0828
  491MOL0     C64689  -0.235   0.579   0.451  0.6338  0.0266  0.4787
  491MOL0     C64690  -0.345   0.471   0.432  0.3699  1.0594  1.2775
  491MOL0     C64691  -0.301   0.343   0.502  0.7289 -0.4773 -0.0968
  491MOL0     C64692  -0.376   0.222   0.455  0.6512 -0.0074  0.0293
  491MOL0     C64693  -0.517   0.217   0.517  0.4622 -0.1948  0.1060
  491MOL0     C64694  -0.581   0.077   0.513  0.6252 -0.6286  0.0701
  491MOL0     C64695  -0.657   0.035   0.639  0.7640 -0.3568 -0.7701
  491MOL0     C64696  -0.776   0.125   0.657  0.2523 -0.1297  0.1367
  491MOL0     N64697  -0.876   0.081   0.749  0.2804  0.5223 -0.7560
  491MOL0     C64698  -0.959  -0.029   0.735 -0.6771  0.2302  0.2669
  491MOL0     C64699  -1.036  -0.025   0.851 -0.4457 -0.6201  0.0815
  491MOL0     C64700  -1.144  -0.116   0.905 -0.8419  0.1956  0.1750
  491MOL0     C64701  -1.289  -0.078   0.868 -0.2863 -0.6067  0.1000
  491MOL0     C64702  -1.395  -0.155   0.937 -0.4549  0.0902 -0.0316
  491MOL0     C64703  -1.535  -0.113   0.884  0.3468 -0.0176 -0.4976
  491MOL0     O64704  -1.583  -0.005   0.956 -0.3336 -0.0803 -0.5592
  491MOL0     C64705  -1.717   0.019   0.948  0.5115  0.0571 -0.1671
  491MOL0     C64706  -1.773   0.083   1.060  0.3378  0.7121 -0.3742
  491MOL0     C64707  -1.908   0.110   1.061 -0.1161 -0.0385  1.1967
  491MOL0     C64708  -1.985   0.089   0.952 -0.1837 -0.6186 -0.1237
  491MOL0     C64709  -2.124   0.131   0.948  0.2066  0.7823  0.5919
  491MOL0     O64710  -2.192   0.104   0.830  0.5857 -0.3034 -0.0405
  491MOL0     C64711  -2.332   0.118   0.815 -1.0502 -0.4111  0.8752
  491MOL0     C64712  -2.368   0.148   0.687  0.7511  0.5795 -0.4979
  491MOL0     C64713  -2.503   0.151   0.642  0.1783  1.1352  0.1406
  491MOL0     C64714  -2.601   0.102   0.724  0.6913 -0.3216 -0.4214
  491MOL0     O64715  -2.735   0.101   0.670 -0.2421 -0.2291  0.0856
  491MOL0     C64716  -2.827   0.013   0.738 -0.2658 -0.0715  0.1646
  491MOL0     C64717  -2.967   0.053   0.681 -1.0157  0.2431 -0.5237
  491MOL0     C64718  -3.082  -0.049   0.716 -0.9427 -0.5630  0.6448
  491MOL0     C64719  -3.205   0.001   0.641  0.6599 -0.2637 -0.6733
  491MOL0     C64720  -3.335  -0.073   0.695 -0.6198 -0.1243  0.2060
  491MOL0     C64721  -3.361  -0.026   0.843 -0.3566  0.2437 -0.5666
  491MOL0     C64722  -3.480  -0.103   0.902 -1.2200 -0.2141 -0.5527
  491MOL0     C64723  -3.519  -0.057   1.044 -0.0334  0.4958 -0.2407
  491MOL0    Cl64724  -3.376  -0.064   1.153  0.7688  0.1146  0.1267
  491MOL0     C64725  -2.559   0.063   0.858  0.5192  0.3714  0.3958
  491MOL0     C64726  -2.430   0.085   0.896 -0.5508  0.3632  0.3901
  491MOL0     O64727  -2.170   0.172   1.053 -0.1201  0.6745  0.3932
  491MOL0     C64728  -1.931   0.029   0.835 -0.7459  0.1337 -0.0827
  491MOL0     C64729  -1.794   0.003   0.829 -0.4681 -0.1035 -0.0970
  491MOL0     N64730  -0.991   0.080   0.933 -0.7026 -0.2287  0.5265
  491MOL0     N64731  -0.894   0.140   0.870 -0.5856 -0.1103  0.2663
  491MOL0     C64732  -0.012   0.510   0.735  0.4848 -0.0453 -1.5790
  491MOL0     C64733   0.115   0.540   0.788 -0.8572  0.0681  0.6506
  491MOL0     C64734   0.539   0.724   0.829 -0.6851  0.4307  0.0183
  491MOL0     C64735   0.632   0.823   0.818  0.1708 -1.0983 -0.0543
  491MOL0     C64736   0.767   0.803   0.848 -1.1855  0.4097 -0.4658
  491MOL0     C64737   0.810   0.681   0.902 -0.7013  0.3231 -0.6524
  491MOL0     O64738   0.946   0.661   0.934  0.6276 -0.6104 -1.1053
  491MOL0     C64739   1.028   0.609   0.836  0.0225 -0.7912  0.2037
  491MOL0     C64740   1.130   0.510   0.894  0.2121 -0.1067 -0.0447
  491MOL0     C64741   1.063   0.413   0.995 -0.2650  0.4366 -0.2245
  491MOL0     C64742   1.170   0.334   1.075  0.1883  1.2933 -0.5510
  491MOL0     C64743   1.132   0.196   1.113  0.5696  1.1874  0.0626
  491MOL0     C64744   1.105   0.077   1.135 -0.7727  0.7098 -0.2574
  491MOL0     C64745   0.711   0.576   0.919 -0.5195  0.5187 -0.1950
  491MOL0     C64746   0.586   0.602   0.882  0.4011 -0.9014  0.6269
  491MOL0     H64747   0.224   0.775   0.570  0.3385 -0.4551 -1.6120
  491MOL0     H64748   0.020   0.724   0.472  0.1563  0.4543 -0.2464
  491MOL0     H64749  -0.163   0.566   0.370  1.0554  0.8155  0.7098
  491MOL0     H64750  -0.283   0.677   0.443 -0.6371 -0.6042  0.0136
  491MOL0     H64751  -0.350   0.463   0.323 -0.2600  2.2382  1.2086
  491MOL0     H64752  -0.441   0.510   0.466 -0.1273  0.0393  1.1157
  491MOL0     H64753  -0.310   0.350   0.611 -0.7144 -3.8260  0.1157
  491MOL0     H64754  -0.198   0.322   0.472  1.1993  1.8236 -0.3223
  491MOL0     H64755  -0.399   0.230   0.349  0.7689 -0.5227 -0.0374
  491MOL0     H64756  -0.326   0.126   0.471  0.0257 -0.2816  0.3539
  491MOL0     H64757  -0.579   0.288   0.461 -2.5971 -2.2686  0.6241
  491MOL0     H64758  -0.518   0.257   0.619  0.5203 -1.1348  0.4833
  491MOL0     H64759  -0.507  -0.002   0.493 -1.7234 -3.3477  1.4058
  491MOL0     H64760  -0.656   0.076   0.434  0.8720 -2.6908 -0.1953
  491MOL0     H64761  -0.690  -0.069   0.637  1.2267 -0.5805  0.9113
  491MOL0     H64762  -0.583   0.042   0.720 -0.5449  1.9342  0.3384
  491MOL0     H64763  -0.835   0.139   0.565 -0.9428 -0.1745  0.8704
  491MOL0     H64764  -0.730   0.219   0.690  0.2717  0.4814 -1.5094
  491MOL0     H64765  -0.967  -0.093   0.647  1.5112  1.5947 -1.0231
  491MOL0     H64766  -1.135  -0.122   1.014 -1.9730  1.7107  0.3888
  491MOL0     H64767  -1.115  -0.210   0.857 -0.0504 -0.5281  1.9808
  491MOL0     H64768  -1.297  -0.089   0.759 -2.2892  0.1625  0.1287
  491MOL0     H64769  -1.312   0.025   0.896 -0.2403 -0.4405 -0.4584
  491MOL0     H64770  -1.379  -0.262   0.918 -0.2841 -0.4591  2.8044
  491MOL0     H64771  -1.400  -0.145   1.046 -3.3358 -1.8306  0.1278
  491MOL0     H64772  -1.603  -0.197   0.872  0.5715 -0.7715  2.7722
  491MOL0     H64773  -1.528  -0.085   0.778 -0.9083 -0.5263 -0.7395
  491MOL0     H64774  -1.705   0.107   1.141  0.4951 -2.0284  0.4213
  491MOL0     H64775  -1.947   0.161   1.149 -0.8247  0.2465  0.7300
  491MOL0     H64776  -2.286   0.166   0.617  0.0562 -1.5646 -1.9588
  491MOL0     H64777  -2.520   0.178   0.539  0.7566  1.5158  0.1458
  491MOL0     H64778  -2.825   0.030   0.846 -1.7321  1.1015  0.0351
  491MOL0     H64779  -2.809  -0.091   0.708  0.1444  1.0377 -4.1834
  491MOL0     H64780  -2.960   0.066   0.573  1.7899  3.9436 -0.1183
  491MOL0     H64781  -2.981   0.153   0.724  2.8524  1.7236 -2.2400
  491MOL0     H64782  -3.105  -0.039   0.823  0.2286 -1.4094  0.9995
  491MOL0     H64783  -3.062  -0.154   0.691  0.1659 -0.2193  0.0440
  491MOL0     H64784  -3.223   0.109   0.646  1.0018 -0.1192 -2.1136
  491MOL0     H64785  -3.186  -0.036   0.540 -0.9221 -0.2613 -1.0017
  491MOL0     H64786  -3.309  -0.179   0.693 -0.8918 -0.2183  1.0841
  491MOL0     H64787  -3.421  -0.045   0.633 -2.1092 -0.4443  2.0203
  491MOL0     H64788  -3.384   0.079   0.822 -2.7135 -0.5052 -2.1459
  491MOL0     H64789  -3.276  -0.033   0.911 -1.5084 -1.2835  0.7997
  491MOL0     H64790  -3.558  -0.083   0.829  0.0191  1.7004 -1.4557
  491MOL0     H64791  -3.440  -0.205   0.902 -1.2649 -0.2497 -2.1496
  491MOL0     H64792  -3.588  -0.135   1.078  1.4390  0.0814  1.9854
  491MOL0     H64793  -3.565   0.040   1.064 -0.0515  0.5816 -0.6837
  491MOL0     H64794  -2.624   0.027   0.937 -1.4410  0.1502 -1.2463
  491MOL0     H64795  -2.407   0.075   1.001 -1.3043 -0.2615  0.5040
  491MOL0     H64796  -1.988   0.031   0.743  0.3853  2.2526 -0.8184
  491MOL0     H64797  -1.737  -0.011   0.737 -0.7824 -0.9005 -0.1701
  491MOL0     H64798  -0.086   0.447   0.784  0.6822  0.9269  0.0699
  491MOL0     H64799   0.151   0.497   0.881 -0.3658  0.1238  0.4854
  491MOL0     H64800   0.610   0.922   0.780  1.6425 -0.7677 -0.1075
  491MOL0     H64801   0.843   0.875   0.821 -1.2709  0.0686 -1.6683
  491MOL0     H64802   1.074   0.690   0.778 -3.6447 -0.0947 -2.0433
  491MOL0     H64803   0.968   0.553   0.764  0.8938 -2.5186  0.7849
  491MOL0     H64804   1.192   0.453   0.824  2.0750 -0.1244  1.5207
  491MOL0     H64805   1.204   0.563   0.956  1.4088 -1.9317  0.1756
  491MOL0     H64806   1.000   0.339   0.944 -1.1364  1.5093 -0.7323
  491MOL0     H64807   0.999   0.454   1.073 -0.2103  0.6206 -0.2779
  491MOL0     H64808   1.260   0.314   1.016 -0.2447 -3.1897 -0.0160
  491MOL0     H64809   1.190   0.386   1.169 -1.6651  1.4968 -0.2224
  491MOL0     H64810   1.083  -0.026   1.153 -1.0030  1.0717  1.7193
  491MOL0     H64811   0.741   0.480   0.960 -0.2916 -0.4981 -2.6205
  491MOL0     H64812   0.523   0.514   0.892  0.8253 -1.2964 -0.0622
  492MOL0     O64813   7.102   5.150   3.878  0.1624 -1.0147  0.1638
  492MOL0     C64814   7.186   5.106   3.954 -0.8113  0.1344  0.8963
  492MOL0     O64815   7.176   5.088   4.088  0.3867  0.3046  0.2122
  492MOL0     C64816   7.052   5.115   4.140 -0.7450 -0.2358 -0.6998
  492MOL0     C64817   6.979   5.235   4.123 -0.2303  0.0204 -0.5158
  492MOL0     C64818   6.861   5.258   4.195 -0.0086 -0.0450 -0.4877
  492MOL0     C64819   6.814   5.162   4.288 -0.2873 -0.0185 -0.5052
  492MOL0     O64820   6.696   5.198   4.348 -0.2101 -0.1803 -0.0969
  492MOL0     C64821   6.677   5.124   4.474 -0.3487 -0.2318  1.0896
  492MOL0     C64822   6.542   5.172   4.532 -0.4542  0.5254  0.6407
  492MOL0     C64823   6.427   5.169   4.433  0.3863 -0.0816  0.5624
  492MOL0     C64824   6.295   5.190   4.509  0.3540 -0.3358 -0.8424
  492MOL0     C64825   6.178   5.261   4.440  0.7840  0.1456  0.0598
  492MOL0     C64826   6.124   5.188   4.321  0.4380 -0.0508 -1.0316
  492MOL0     C64827   6.023   5.282   4.249  0.2896 -0.4743  0.3186
  492MOL0     C64828   5.940   5.207   4.138  0.1137 -0.1807 -0.3386
  492MOL0     N64829   6.017   5.187   4.018  0.2449  0.3639  0.0129
  492MOL0     C64830   6.071   5.283   3.928 -0.2275 -0.2198  0.0073
  492MOL0     C64831   6.128   5.213   3.829  0.5485  0.1539 -0.0523
  492MOL0     C64832   6.174   5.265   3.693 -0.0995  0.2595  0.5347
  492MOL0     C64833   6.086   5.229   3.575 -0.3800  0.1910 -0.4846
  492MOL0     C64834   5.939   5.277   3.580  0.6558  0.1841 -0.0186
  492MOL0     C64835   5.849   5.226   3.463 -0.4012 -0.1124  0.0781
  492MOL0     O64836   5.740   5.318   3.445 -0.1754 -0.2347  0.3814
  492MOL0     C64837   5.642   5.280   3.345 -0.3576 -0.2823  0.0681
  492MOL0     C64838   5.515   5.346   3.356  0.4109  0.2758 -0.0968
  492MOL0     C64839   5.414   5.328   3.261 -1.0632  0.5571 -0.5570
  492MOL0     C64840   5.434   5.239   3.151  0.1280  0.5785 -0.2774
  492MOL0     C64841   5.326   5.221   3.058 -0.0650  0.8908  0.8675
  492MOL0     O64842   5.203   5.278   3.079 -0.1769  0.3907 -0.2444
  492MOL0     C64843   5.106   5.259   2.984 -0.3138 -0.7594  0.3170
  492MOL0     C64844   5.113   5.312   2.855  0.0240  0.0353  0.5600
  492MOL0     C64845   5.014   5.287   2.765  0.9958  0.4336 -0.4209
  492MOL0     C64846   4.896   5.218   2.799 -0.1079  0.2351  0.2112
  492MOL0     O64847   4.788   5.183   2.719 -0.2579 -0.0634  0.5882
  492MOL0     C64848   4.831   5.126   2.598  0.0767  0.2550  0.0576
  492MOL0     C64849   4.716   5.091   2.513  0.5542 -0.2014 -0.4773
  492MOL0     C64850   4.619   5.210   2.496 -0.2368 -0.1071  0.0738
  492MOL0     C64851   4.492   5.170   2.434  1.1111  0.2557 -0.2308
  492MOL0     C64852   4.404   5.291   2.414 -0.4482  0.5735  0.5451
  492MOL0     C64853   4.279   5.258   2.340 -0.0379 -0.1033  0.4312
  492MOL0     C64854   4.198   5.388   2.326  0.2192  0.2709 -0.3340
  492MOL0     C64855   4.055   5.358   2.283  0.6106 -0.7625 -0.1335
  492MOL0    Cl64856   4.050   5.243   2.143 -0.1486 -0.3848  0.1300
  492MOL0     C64857   4.888   5.174   2.937  0.0378  0.4130 -0.4979
  492MOL0     C64858   4.989   5.194   3.032 -0.4179  0.7015 -0.5244
  492MOL0     O64859   5.345   5.136   2.968  0.5637 -0.4645 -0.0508
  492MOL0     C64860   5.561   5.164   3.150  0.2844 -0.3910  0.0046
  492MOL0     C64861   5.663   5.195   3.245  0.3451 -0.0925  0.3435
  492MOL0     N64862   6.111   5.080   3.860 -0.2965 -0.1063 -0.3215
  492MOL0     N64863   6.054   5.061   3.973  0.5169 -0.0102  0.6706
  492MOL0     C64864   6.891   5.040   4.301 -0.2106  0.0125 -0.0500
  492MOL0     C64865   7.011   5.023   4.235 -0.1377  0.0770 -0.8257
  492MOL0     C64866   7.326   5.089   3.910 -0.3718 -0.3935  0.2850
  492MOL0     C64867   7.422   5.021   3.988  0.5996  0.5559 -0.2866
  492MOL0     C64868   7.560   5.007   3.940  0.3270 -0.4594 -0.0801
  492MOL0     C64869   7.595   5.048   3.824 -0.9755 -0.3137  0.2072
  492MOL0     O64870   7.725   5.008   3.786  0.4045 -0.2566 -0.8772
  492MOL0     C64871   7.766   5.038   3.649 -0.1954 -0.1569  0.6527
  492MOL0     C64872   7.905   4.973   3.621  0.2127  0.1575  0.7511
  492MOL0     C64873   7.996   5.058   3.697  0.0134 -0.4784 -0.0771
  492MOL0     C64874   8.143   5.032   3.669 -0.0709 -0.8787  0.0200
  492MOL0     C64875   8.181   4.912   3.742 -0.1135 -0.3762 -0.4765
  492MOL0     C64876   8.238   4.824   3.806 -0.2044  0.3461 -0.0562
  492MOL0     C64877   7.503   5.129   3.741  0.3048  0.5091  0.1088
  492MOL0     C64878   7.363   5.134   3.779 -0.6588 -0.6367 -0.3359
  492MOL0     H64879   7.013   5.309   4.053 -1.6269  2.0936  0.8755
  492MOL0     H64880   6.814   5.356   4.188  1.5229  0.7974  0.6244
  492MOL0     H64881   6.760   5.135   4.545  0.0597 -2.1930  0.9586
  492MOL0     H64882   6.677   5.016   4.457 -1.1208  0.1354 -1.5418
  492MOL0     H64883   6.547   5.274   4.571 -1.6450  1.1501 -0.7455
  492MOL0     H64884   6.513   5.102   4.612  1.8310 -1.4025 -0.0798
  492MOL0     H64885   6.420   5.074   4.380 -0.4507 -0.9516  2.1672
  492MOL0     H64886   6.449   5.250   4.363 -0.8976 -0.7288 -0.6436
  492MOL0     H64887   6.252   5.092   4.533 -1.4667  0.7817  0.7969
  492MOL0     H64888   6.325   5.243   4.600 -0.6266 -1.4930  0.2056
  492MOL0     H64889   6.208   5.357   4.398 -0.3864 -0.1907 -1.6475
  492MOL0     H64890   6.097   5.270   4.513  1.4339 -0.3590  0.8512
  492MOL0     H64891   6.066   5.102   4.354  0.5630  0.8865  1.8595
  492MOL0     H64892   6.205   5.159   4.254  2.5413  2.0382  0.4715
  492MOL0     H64893   5.945   5.321   4.315 -0.6978  0.2500 -1.2270
  492MOL0     H64894   6.078   5.365   4.204  1.3895 -1.4032 -0.1123
  492MOL0     H64895   5.852   5.269   4.117 -1.8378 -2.6421 -0.0038
  492MOL0     H64896   5.905   5.108   4.170 -0.7713 -1.4111 -4.4653
  492MOL0     H64897   6.065   5.391   3.917 -1.0560 -0.1739  0.7040
  492MOL0     H64898   6.279   5.235   3.685  0.1750  0.6681  2.2088
  492MOL0     H64899   6.183   5.374   3.692 -3.6883  0.6727  0.2327
  492MOL0     H64900   6.081   5.123   3.551 -1.6769  0.3539 -1.0166
  492MOL0     H64901   6.144   5.277   3.495  2.4059 -1.0568  0.6332
  492MOL0     H64902   5.892   5.236   3.669  1.5402  2.7584  1.7571
  492MOL0     H64903   5.945   5.386   3.595  0.4288  0.2648 -0.5116
  492MOL0     H64904   5.816   5.122   3.470 -0.4645 -0.0110  1.5419
  492MOL0     H64905   5.903   5.231   3.367 -2.3804  0.6197 -1.0489
  492MOL0     H64906   5.496   5.407   3.443 -3.1615 -2.2471  1.1478
  492MOL0     H64907   5.320   5.382   3.262 -1.4067  0.0714  2.8783
  492MOL0     H64908   5.207   5.353   2.821  1.1762 -0.7581  2.6458
  492MOL0     H64909   5.021   5.322   2.662 -1.0512  0.3231 -0.6356
  492MOL0     H64910   4.885   5.032   2.615 -0.9892 -0.2086  1.0118
  492MOL0     H64911   4.901   5.199   2.556  0.5657  0.4387  1.1631
  492MOL0     H64912   4.664   5.014   2.570 -0.3446  1.0137  0.4019
  492MOL0     H64913   4.762   5.045   2.425  1.3531 -2.3998  0.9988
  492MOL0     H64914   4.663   5.299   2.450  0.7163  0.0500  1.2348
  492MOL0     H64915   4.595   5.259   2.591 -1.3879 -1.0400  0.2855
  492MOL0     H64916   4.508   5.116   2.340 -1.8996  0.2219 -0.8107
  492MOL0     H64917   4.448   5.095   2.500 -1.9579 -0.9400 -3.3426
  492MOL0     H64918   4.460   5.368   2.360  0.7576 -0.4668  0.2485
  492MOL0     H64919   4.380   5.323   2.516  0.3164  0.8048  0.6643
  492MOL0     H64920   4.214   5.181   2.382 -1.3029  2.0688  2.6901
  492MOL0     H64921   4.314   5.221   2.242 -0.7888 -1.2714  0.5758
  492MOL0     H64922   4.201   5.446   2.419 -2.2587 -0.8044  0.5160
  492MOL0     H64923   4.242   5.451   2.249 -0.4640 -1.0888 -1.9014
  492MOL0     H64924   4.003   5.449   2.252  1.1442 -0.3029  0.2896
  492MOL0     H64925   3.997   5.319   2.367 -0.6205 -0.4775 -0.8190
  492MOL0     H64926   4.806   5.109   2.968  0.5576 -0.9777 -1.8999
  492MOL0     H64927   4.990   5.152   3.132  1.0867  3.3998  0.7006
  492MOL0     H64928   5.567   5.086   3.074  1.0643 -3.0239  2.6081
  492MOL0     H64929   5.757   5.142   3.234  0.1913  0.1403 -3.2602
  492MOL0     H64930   6.860   4.965   4.372  1.6460 -1.0766 -0.3164
  492MOL0     H64931   7.079   4.945   4.268 -0.0364  0.4336 -0.1610
  492MOL0     H64932   7.393   4.996   4.089 -1.2824  1.9445 -0.4418
  492MOL0     H64933   7.633   4.946   3.991 -0.6200 -2.5699 -1.1404
  492MOL0     H64934   7.772   5.145   3.630  1.2275 -0.6794 -2.3686
  492MOL0     H64935   7.700   4.998   3.572  1.3805  1.5340 -1.7338
  492MOL0     H64936   7.916   4.870   3.656 -1.7988 -0.5070 -0.4000
  492MOL0     H64937   7.916   4.970   3.512 -0.9074 -0.4708  0.6494
  492MOL0     H64938   7.966   5.064   3.802 -0.0035 -1.2370 -0.0278
  492MOL0     H64939   7.981   5.161   3.666  2.3690 -0.3849 -1.1097
  492MOL0     H64940   8.154   5.016   3.561 -0.0799 -1.9922  0.1799
  492MOL0     H64941   8.206   5.119   3.692  2.5711 -2.5096 -0.6485
  492MOL0     H64942   8.268   4.732   3.852 -1.0339  0.9696  1.8446
  492MOL0     H64943   7.532   5.177   3.648  0.5261  3.2155  1.4465
  492MOL0     H64944   7.293   5.172   3.705 -2.6706 -1.8865  0.8271
  493MOL0     O64945   2.223   3.989   7.329  0.9624  0.7511 -0.0162
  493MOL0     C64946   2.170   3.907   7.252 -0.8935  0.5945  0.8681
  493MOL0     O64947   2.237   3.797   7.200 -0.1706  1.0036  1.0544
  493MOL0     C64948   2.372   3.811   7.163  0.8597 -0.0050 -1.0213
  493MOL0     C64949   2.477   3.735   7.232  0.3173 -1.2932 -0.1397
  493MOL0     C64950   2.611   3.766   7.215 -0.3172 -0.3395  0.1467
  493MOL0     C64951   2.645   3.879   7.140  0.3217 -1.2251 -0.1179
  493MOL0     O64952   2.775   3.928   7.131  0.4141 -0.1866  0.2956
  493MOL0     C64953   2.857   3.909   7.249 -0.8165  0.3345  0.7382
  493MOL0     C64954   2.983   3.992   7.234 -0.0606 -0.0712 -0.3468
  493MOL0     C64955   3.079   3.914   7.150 -0.0419 -0.1283  0.7639
  493MOL0     C64956   3.210   3.995   7.138  0.1474 -0.5003  0.0162
  493MOL0     C64957   3.325   3.925   7.051 -0.5205 -0.8535 -0.2371
  493MOL0     C64958   3.468   3.981   7.070  0.0552 -0.9394  0.9659
  493MOL0     C64959   3.527   3.967   7.208 -0.7720  0.5700  0.1346
  493MOL0     C64960   3.678   4.018   7.206  0.2547  0.6451  0.2709
  493MOL0     N64961   3.769   3.913   7.144  0.1842 -0.3933  0.2622
  493MOL0     C64962   3.904   3.921   7.124 -0.1878  0.0370  0.3118
  493MOL0     C64963   3.948   3.797   7.084 -0.2097  0.0537  0.0676
  493MOL0     C64964   4.088   3.760   7.029  0.3603  0.1652 -0.5929
  493MOL0     C64965   4.202   3.744   7.130 -0.1210 -0.1910 -0.6243
  493MOL0     C64966   4.159   3.656   7.251  0.0357  0.8953  0.3883
  493MOL0     C64967   4.096   3.522   7.227  0.5885  0.2953 -0.6417
  493MOL0     O64968   4.088   3.460   7.360 -0.6334  0.2288  0.0293
  493MOL0     C64969   3.974   3.446   7.435  0.9973  0.2506  0.2961
  493MOL0     C64970   3.861   3.521   7.399 -0.0600  0.6734  0.0777
  493MOL0     C64971   3.743   3.513   7.474  0.0490  0.0877  0.2481
  493MOL0     C64972   3.736   3.436   7.589  0.0030 -0.1871 -0.1613
  493MOL0     C64973   3.600   3.419   7.649 -0.1752  0.0889  0.8175
  493MOL0     O64974   3.509   3.522   7.620 -0.6918  0.6636  0.2122
  493MOL0     C64975   3.381   3.498   7.661 -0.8152 -0.6394 -0.2746
  493MOL0     C64976   3.332   3.585   7.756 -0.5209  0.6055 -0.1770
  493MOL0     C64977   3.202   3.562   7.804  0.2432  0.0387  0.6062
  493MOL0     C64978   3.121   3.465   7.743  0.2836 -0.8084  0.3480
  493MOL0     O64979   2.998   3.449   7.797  0.3195 -0.1851  0.6507
  493MOL0     C64980   2.985   3.429   7.940  0.3773  0.3711 -0.6184
  493MOL0     C64981   2.890   3.325   7.985 -0.3525 -0.2005 -0.0114
  493MOL0     C64982   2.742   3.361   7.949 -0.1866  0.6614  0.1132
  493MOL0     C64983   2.657   3.247   8.010  0.2423  0.5416  0.2132
  493MOL0     C64984   2.508   3.248   7.979  0.0600  0.0092  0.1612
  493MOL0     C64985   2.441   3.386   8.027  0.4998  0.0596 -0.3036
  493MOL0     C64986   2.295   3.371   8.040  0.1749 -0.3384  0.4446
  493MOL0     C64987   2.223   3.510   8.023  0.1201 -0.4197  1.2129
  493MOL0    Cl64988   2.290   3.631   8.132  0.1677 -0.3195 -0.0496
  493MOL0     C64989   3.166   3.386   7.647  0.0296 -0.0257  0.8199
  493MOL0     C64990   3.300   3.396   7.609  0.3082 -0.0054 -1.0752
  493MOL0     O64991   3.575   3.321   7.725  0.1225 -0.0735 -0.2117
  493MOL0     C64992   3.847   3.359   7.626  0.1243 -0.7293  0.3529
  493MOL0     C64993   3.965   3.368   7.553  0.2886  0.7116  0.5604
  493MOL0     N64994   3.838   3.719   7.056  0.1440  1.1077 -0.3628
  493MOL0     N64995   3.745   3.784   7.113  0.0835  0.4880  0.2455
  493MOL0     C64996   2.552   3.949   7.070  0.5066 -0.7328 -0.3073
  493MOL0     C64997   2.409   3.912   7.072 -0.0421 -0.7614 -0.1062
  493MOL0     C64998   2.033   3.926   7.207  0.2321 -0.3450 -0.5635
  493MOL0     C64999   1.975   4.053   7.222 -0.0746 -0.3146 -0.0400
  493MOL0     C65000   1.852   4.085   7.167  0.4454  0.1786 -0.8021
  493MOL0     C65001   1.789   3.982   7.094 -0.3543  0.0353  0.6796
  493MOL0     O65002   1.671   4.015   7.039  0.5030 -0.1030  0.1076
  493MOL0     C65003   1.582   3.910   7.015  0.3281 -0.5385  0.3970
  493MOL0     C65004   1.453   3.961   6.970 -0.3467 -0.3322  0.6786
  493MOL0     C65005   1.457   4.023   6.828 -0.4236 -0.2859  0.0828
  493MOL0     C65006   1.316   4.060   6.777  0.7485 -0.5651  0.5926
  493MOL0     C65007   1.343   4.129   6.650 -0.2924  0.0820  0.0340
  493MOL0     C65008   1.371   4.170   6.537  0.2230  0.7181 -1.0729
  493MOL0     C65009   1.847   3.851   7.084  0.5306 -0.3747  0.2960
  493MOL0     C65010   1.962   3.825   7.149 -0.2057 -0.0937  0.2709
  493MOL0     H65011   2.427   3.672   7.305 -0.2300 -0.8808 -0.1463
  493MOL0     H65012   2.684   3.718   7.280 -0.8033  2.3819  2.8795
  493MOL0     H65013   2.888   3.805   7.262 -0.2010  0.5305  0.8693
  493MOL0     H65014   2.804   3.926   7.344 -0.1492  0.7567  1.0453
  493MOL0     H65015   3.030   4.013   7.330 -1.7096 -0.0772  0.4973
  493MOL0     H65016   2.960   4.085   7.181  2.1820  0.1455 -1.0318
  493MOL0     H65017   3.035   3.900   7.050  1.1268  0.3507  0.1612
  493MOL0     H65018   3.105   3.814   7.187  0.0415 -1.5637 -2.7022
  493MOL0     H65019   3.192   4.096   7.100  1.3195 -0.1236  0.4298
  493MOL0     H65020   3.249   4.011   7.239  3.6777  4.7767 -1.7851
  493MOL0     H65021   3.290   3.923   6.947  1.1396  1.2811 -0.9042
  493MOL0     H65022   3.343   3.818   7.063 -0.8477 -0.8555  0.2778
  493MOL0     H65023   3.467   4.088   7.045  3.3210 -0.0235  3.9571
  493MOL0     H65024   3.530   3.941   6.989 -0.7921  1.5868 -1.0654
  493MOL0     H65025   3.470   4.041   7.266  2.4787  2.3677  1.2820
  493MOL0     H65026   3.511   3.869   7.253  1.0620  0.7054  1.1868
  493MOL0     H65027   3.706   4.047   7.307 -2.3093  2.4120  0.5777
  493MOL0     H65028   3.694   4.115   7.157  0.0293  1.0044  0.9025
  493MOL0     H65029   3.968   4.009   7.126  0.0174 -0.1174  0.6906
  493MOL0     H65030   4.114   3.834   6.952 -2.1733  0.1466 -1.5500
  493MOL0     H65031   4.087   3.668   6.969  1.2840 -1.8311  2.2333
  493MOL0     H65032   4.229   3.843   7.167  2.2653 -0.6856 -0.8405
  493MOL0     H65033   4.296   3.701   7.095  0.8620  0.7687  0.7366
  493MOL0     H65034   4.252   3.646   7.308 -0.6985  1.6449  1.7571
  493MOL0     H65035   4.088   3.706   7.317 -2.3135 -0.7364 -0.7745
  493MOL0     H65036   4.162   3.467   7.159  3.9680  0.7884  1.9358
  493MOL0     H65037   3.998   3.523   7.179  1.4536  0.8122 -2.4869
  493MOL0     H65038   3.861   3.581   7.308  0.5509 -1.5440 -1.4730
  493MOL0     H65039   3.658   3.573   7.443  0.3340 -0.5405 -1.9622
  493MOL0     H65040   3.399   3.661   7.796  1.4202 -0.4255 -1.3066
  493MOL0     H65041   3.155   3.619   7.883  0.3870 -0.3698  0.9865
  493MOL0     H65042   2.961   3.526   7.984  1.7369  0.8656 -0.9221
  493MOL0     H65043   3.084   3.404   7.981  0.5975 -0.3422 -1.5504
  493MOL0     H65044   2.897   3.316   8.093  0.9570 -0.3606 -0.0935
  493MOL0     H65045   2.914   3.228   7.939  0.9824 -1.0100  2.2707
  493MOL0     H65046   2.739   3.364   7.840  0.9242  1.4708  0.0763
  493MOL0     H65047   2.720   3.460   7.991  1.4125  0.5272  1.3826
  493MOL0     H65048   2.688   3.148   7.975  0.7275  1.4425 -2.0773
  493MOL0     H65049   2.666   3.252   8.119  0.2482 -1.3797  0.3268
  493MOL0     H65050   2.457   3.163   8.025 -0.5121  0.5892  0.6127
  493MOL0     H65051   2.479   3.240   7.873 -2.4146  2.6582  0.5220
  493MOL0     H65052   2.456   3.460   7.948 -1.4324 -0.4914 -1.2473
  493MOL0     H65053   2.491   3.427   8.115  0.8406  1.5125 -1.1511
  493MOL0     H65054   2.265   3.311   7.954  1.7795 -2.4026  1.2516
  493MOL0     H65055   2.261   3.324   8.133 -0.1745 -0.5509  0.2144
  493MOL0     H65056   2.116   3.493   8.038  0.0030 -1.8895 -0.9693
  493MOL0     H65057   2.246   3.539   7.921  1.9065  1.3179  2.0374
  493MOL0     H65058   3.104   3.307   7.607 -0.7106  0.6380  0.6373
  493MOL0     H65059   3.344   3.328   7.537  0.4670 -2.4836  1.1858
  493MOL0     H65060   3.848   3.298   7.716  1.6115 -2.2916 -0.6515
  493MOL0     H65061   4.058   3.324   7.586 -1.7654 -2.8795  2.1428
  493MOL0     H65062   2.578   4.025   6.997  1.3739 -0.8282 -0.1113
  493MOL0     H65063   2.334   3.964   7.013  0.7592 -2.2652 -2.6243
  493MOL0     H65064   2.009   4.128   7.293  0.3121  0.4755 -1.0460
  493MOL0     H65065   1.797   4.175   7.193  2.7055  1.3489  0.2235
  493MOL0     H65066   1.571   3.850   7.106 -1.2355 -0.4059  0.3193
  493MOL0     H65067   1.621   3.844   6.937  2.1353 -0.6165  1.3007
  493MOL0     H65068   1.381   3.878   6.970 -0.5950 -0.1199  1.3958
  493MOL0     H65069   1.410   4.036   7.037 -3.3806 -1.5735  0.3239
  493MOL0     H65070   1.506   3.954   6.759  1.4399  0.7239  0.3532
  493MOL0     H65071   1.522   4.110   6.832  2.2767 -2.1484 -0.4319
  493MOL0     H65072   1.255   3.969   6.767  3.0282 -2.0298 -1.2061
  493MOL0     H65073   1.267   4.129   6.846  0.2882  0.3452 -0.6122
  493MOL0     H65074   1.381   4.200   6.435 -1.5922  0.9442 -1.2160
  493MOL0     H65075   1.805   3.777   7.017  1.0339  2.0336 -2.9392
  493MOL0     H65076   2.005   3.727   7.132 -2.2771 -1.1579  0.8149
  494MOL0     O65077   5.446   0.616   3.955  0.4802  0.6364 -0.2027
  494MOL0     C65078   5.445   0.639   4.073  0.7239  0.4052 -0.2799
  494MOL0     O65079   5.343   0.707   4.143  0.1997 -0.5036 -0.3095
  494MOL0     C65080   5.215   0.733   4.096 -0.3576  0.1661  0.4047
  494MOL0     C65081   5.134   0.837   4.157 -0.5607 -0.5603  0.2877
  494MOL0     C65082   5.009   0.864   4.104  0.4904  0.2142  0.0813
  494MOL0     C65083   4.947   0.795   4.001  0.1099  0.6534 -0.2635
  494MOL0     O65084   4.822   0.820   3.946 -0.4441 -0.4988 -0.6847
  494MOL0     C65085   4.772   0.957   3.952  0.0278  0.4351 -0.1816
  494MOL0     C65086   4.624   0.956   3.912  0.3310  0.2969 -0.0408
  494MOL0     C65087   4.560   1.095   3.935  0.8904  0.3450  0.4058
  494MOL0     C65088   4.424   1.118   3.878  0.0743 -0.8107  0.9236
  494MOL0     C65089   4.355   1.250   3.925 -0.3947 -0.3583 -0.1399
  494MOL0     C65090   4.225   1.279   3.857  0.1231  0.1694 -0.0508
  494MOL0     C65091   4.146   1.402   3.903 -0.2678 -0.3814  0.3223
  494MOL0     C65092   4.013   1.410   3.828 -0.2161  0.2054 -0.7778
  494MOL0     N65093   4.025   1.468   3.695 -0.4857 -0.0502 -1.1783
  494MOL0     C65094   4.019   1.401   3.579 -0.3427  0.4750  0.1156
  494MOL0     C65095   4.012   1.498   3.483  0.0598 -0.6600  0.0215
  494MOL0     C65096   4.007   1.470   3.333  0.3479  0.5685 -0.0720
  494MOL0     C65097   4.115   1.378   3.291  0.4256 -0.7375  0.1721
  494MOL0     C65098   4.109   1.338   3.138  0.7295 -0.6555 -0.7786
  494MOL0     C65099   3.988   1.254   3.094 -0.0447 -0.7207 -0.2426
  494MOL0     O65100   4.013   1.203   2.964  0.1079 -0.1933 -0.0895
  494MOL0     C65101   3.912   1.125   2.913  0.2748 -0.0913  1.0288
  494MOL0     C65102   3.953   1.061   2.802  0.0278  0.5310 -0.2056
  494MOL0     C65103   3.856   0.981   2.732  0.2666  0.2747  0.1543
  494MOL0     C65104   3.732   0.942   2.790  0.5698 -1.2670 -0.5092
  494MOL0     C65105   3.626   0.869   2.725 -0.2118  0.6406  0.3534
  494MOL0     O65106   3.512   0.849   2.788 -0.3617  0.4566  0.4758
  494MOL0     C65107   3.407   0.786   2.725  0.4545 -0.4165  0.1862
  494MOL0     C65108   3.280   0.861   2.728 -0.6519  0.1817  0.3368
  494MOL0     C65109   3.169   0.804   2.680  0.2651  0.6809 -0.8153
  494MOL0     C65110   3.180   0.673   2.630 -0.0641  0.3931 -0.1596
  494MOL0     O65111   3.071   0.602   2.599  0.1739 -0.0062  1.0919
  494MOL0     C65112   2.941   0.647   2.623 -0.2513  0.7909 -0.2055
  494MOL0     C65113   2.894   0.587   2.752 -0.3931 -0.0235  0.3127
  494MOL0     C65114   2.759   0.640   2.799 -0.4410 -0.2778  0.1262
  494MOL0     C65115   2.709   0.567   2.928 -0.4465  0.3661 -0.1043
  494MOL0     C65116   2.561   0.601   2.946  1.0382 -0.0698  0.1019
  494MOL0     C65117   2.500   0.544   3.074 -0.5165 -0.0314  0.3923
  494MOL0     C65118   2.349   0.567   3.083  0.1325  0.1028 -0.0652
  494MOL0     C65119   2.277   0.522   3.212  0.3050  0.0483 -0.2015
  494MOL0    Cl65120   2.107   0.576   3.215  0.2352  0.0421 -0.1264
  494MOL0     C65121   3.304   0.602   2.620 -0.3719  0.0948  0.3914
  494MOL0     C65122   3.412   0.655   2.676  0.0424 -0.7868  1.2035
  494MOL0     O65123   3.649   0.825   2.612  0.0288  0.4506  0.7731
  494MOL0     C65124   3.701   1.009   2.917 -0.5715  0.4568  0.3215
  494MOL0     C65125   3.789   1.103   2.971  0.3090 -0.2774  0.5020
  494MOL0     N65126   4.007   1.623   3.546 -0.2998 -0.2142  0.6305
  494MOL0     N65127   4.022   1.599   3.671 -0.0203 -0.5798  0.2530
  494MOL0     C65128   5.021   0.695   3.943  0.8482  0.0283 -0.6964
  494MOL0     C65129   5.151   0.659   3.987  0.2221  0.7340 -0.4752
  494MOL0     C65130   5.558   0.616   4.156 -0.8417 -0.2255  0.9209
  494MOL0     C65131   5.688   0.614   4.095  0.5316 -0.2791  0.1452
  494MOL0     C65132   5.805   0.595   4.171  0.9522  0.1888 -0.6146
  494MOL0     C65133   5.806   0.576   4.308 -0.5217  0.2718 -0.2687
  494MOL0     O65134   5.931   0.552   4.368 -0.0420  0.6257 -0.1600
  494MOL0     C65135   5.934   0.518   4.509  0.2541  0.0315  0.6931
  494MOL0     C65136   6.076   0.484   4.551  0.1415 -0.1707  0.2840
  494MOL0     C65137   6.163   0.606   4.508 -1.2846 -0.1265  0.9263
  494MOL0     C65138   6.297   0.610   4.584  0.0779 -0.3770 -0.2062
  494MOL0     C65139   6.363   0.745   4.560  0.4578 -0.1607  0.0163
  494MOL0     C65140   6.430   0.841   4.573  0.1546  0.6114 -0.6606
  494MOL0     C65141   5.685   0.594   4.375  0.1695 -0.3775 -0.4289
  494MOL0     C65142   5.560   0.624   4.300 -0.3728 -0.1503 -0.6074
  494MOL0     H65143   5.180   0.908   4.225 -1.9936  1.0116 -0.3110
  494MOL0     H65144   4.958   0.949   4.149 -0.5287  0.7433 -1.9419
  494MOL0     H65145   4.824   1.028   3.887 -0.8126  2.7945  1.5607
  494MOL0     H65146   4.768   0.994   4.055  0.7690 -1.6579  0.6388
  494MOL0     H65147   4.574   0.875   3.967 -0.4338  0.4592 -0.4850
  494MOL0     H65148   4.616   0.942   3.804 -1.7122  2.3384 -0.2277
  494MOL0     H65149   4.623   1.169   3.885  0.8268  1.3883  1.8188
  494MOL0     H65150   4.555   1.121   4.041 -1.3933 -1.0103  0.6823
  494MOL0     H65151   4.436   1.120   3.770 -1.5430 -4.1690  0.5654
  494MOL0     H65152   4.358   1.032   3.895 -0.4547 -0.1884  2.1626
  494MOL0     H65153   4.433   1.322   3.901  0.4907 -0.6603  1.6418
  494MOL0     H65154   4.335   1.244   4.032 -0.6396  0.2004 -0.1514
  494MOL0     H65155   4.157   1.196   3.875 -0.4161  0.8036  0.8905
  494MOL0     H65156   4.241   1.279   3.748 -0.3726 -1.0675 -0.1332
  494MOL0     H65157   4.117   1.375   4.005 -3.0642 -1.9240 -0.7649
  494MOL0     H65158   4.209   1.491   3.891 -0.9144  0.2892  1.6353
  494MOL0     H65159   3.943   1.468   3.888 -0.8128 -1.9450  0.7177
  494MOL0     H65160   3.974   1.308   3.822  2.2486 -0.8361 -0.3089
  494MOL0     H65161   4.039   1.297   3.558 -1.8656  0.0701  0.5892
  494MOL0     H65162   4.023   1.555   3.265 -0.3737  0.1626 -0.7572
  494MOL0     H65163   3.908   1.430   3.313 -0.0948  0.0660  2.6890
  494MOL0     H65164   4.103   1.290   3.355 -2.1651 -1.0134 -0.5705
  494MOL0     H65165   4.214   1.420   3.311  0.9839 -2.2356  0.6860
  494MOL0     H65166   4.108   1.430   3.080 -2.0933  1.1276  1.7883
  494MOL0     H65167   4.206   1.288   3.123  1.3325 -0.1984  1.1884
  494MOL0     H65168   3.901   1.321   3.095 -0.3433 -1.0793 -1.3841
  494MOL0     H65169   3.975   1.170   3.163  0.1188  0.1410  0.8621
  494MOL0     H65170   4.049   1.082   2.757  0.5458 -1.6285 -0.2052
  494MOL0     H65171   3.888   0.940   2.636  1.7796  0.7577  0.4288
  494MOL0     H65172   3.267   0.954   2.783 -0.9450 -0.0288  0.6196
  494MOL0     H65173   3.070   0.848   2.691 -1.7588 -3.4464 -0.4782
  494MOL0     H65174   2.868   0.610   2.551 -2.2547  1.1029  1.5865
  494MOL0     H65175   2.926   0.755   2.622  3.3674  1.4114 -0.8489
  494MOL0     H65176   2.964   0.605   2.834 -1.1313 -2.0487  1.4510
  494MOL0     H65177   2.896   0.478   2.743 -0.2146  0.0852 -1.1553
  494MOL0     H65178   2.679   0.622   2.727  1.6788 -2.0229 -1.9493
  494MOL0     H65179   2.765   0.747   2.818 -2.0833 -0.5149  2.3652
  494MOL0     H65180   2.714   0.458   2.926 -5.8604 -0.2067  1.5643
  494MOL0     H65181   2.771   0.597   3.013  0.4511  3.6264 -1.7218
  494MOL0     H65182   2.506   0.564   2.859  1.8174 -0.1545 -0.3623
  494MOL0     H65183   2.551   0.709   2.955 -0.7809 -0.0666 -1.2292
  494MOL0     H65184   2.550   0.591   3.159  0.8968 -1.7708  0.5863
  494MOL0     H65185   2.533   0.441   3.089  0.8193  0.2601 -0.3735
  494MOL0     H65186   2.330   0.675   3.088  2.3252  0.4737  1.7147
  494MOL0     H65187   2.299   0.526   2.995 -1.6188  3.6118 -0.8840
  494MOL0     H65188   2.326   0.568   3.299 -1.9645  1.4372  0.4264
  494MOL0     H65189   2.286   0.413   3.210  1.0766  0.0967 -2.7766
  494MOL0     H65190   3.307   0.508   2.567  4.1143 -0.6693  1.5952
  494MOL0     H65191   3.504   0.598   2.682 -1.0452 -2.7841  0.2412
  494MOL0     H65192   3.603   0.998   2.963 -0.2995 -0.0690  0.7912
  494MOL0     H65193   3.755   1.139   3.067 -0.8579 -0.4198  0.1509
  494MOL0     H65194   4.985   0.632   3.862  0.6289 -0.6897 -0.0541
  494MOL0     H65195   5.212   0.581   3.942  3.1537  1.4158  2.0323
  494MOL0     H65196   5.700   0.612   3.988  0.6440  0.9208  0.1246
  494MOL0     H65197   5.888   0.596   4.101 -1.9197 -0.5735 -4.3427
  494MOL0     H65198   5.877   0.425   4.518 -0.8028  0.6916  0.9941
  494MOL0     H65199   5.889   0.598   4.568  0.9753  3.0813 -2.4926
  494MOL0     H65200   6.067   0.475   4.659 -0.0389  1.3079  0.4126
  494MOL0     H65201   6.116   0.386   4.526 -1.1024 -0.8286  0.7958
  494MOL0     H65202   6.107   0.698   4.522 -1.4872 -0.3287  1.4644
  494MOL0     H65203   6.182   0.608   4.400  1.1383  2.4786  1.2899
  494MOL0     H65204   6.278   0.608   4.692  2.4711 -0.4898  0.2609
  494MOL0     H65205   6.364   0.526   4.563  2.3828  1.6552 -1.4429
  494MOL0     H65206   6.490   0.930   4.579 -3.4557  3.1550  1.4543
  494MOL0     H65207   5.672   0.589   4.483  0.6725  0.3508 -0.3307
  494MOL0     H65208   5.469   0.643   4.355  0.6808 -1.6607  1.8416
  495MOL0     O65209   0.496   0.725   6.286  0.0193 -0.3630 -0.2533
  495MOL0     C65210   0.450   0.738   6.400 -0.1053 -0.5111 -0.1092
  495MOL0     O65211   0.522   0.766   6.504  0.2294  0.4042 -0.7301
  495MOL0     C65212   0.656   0.788   6.492 -0.1420  0.4235 -0.1185
  495MOL0     C65213   0.720   0.877   6.407  0.4550 -0.6704 -0.1083
  495MOL0     C65214   0.857   0.900   6.403 -0.2970  0.3262 -0.4930
  495MOL0     C65215   0.941   0.827   6.487  0.1887 -0.8303 -0.6166
  495MOL0     O65216   1.073   0.846   6.476 -0.2221  0.5571  0.2574
  495MOL0     C65217   1.173   0.749   6.517  0.1309 -0.1774 -0.4841
  495MOL0     C65218   1.312   0.800   6.493 -0.1437  0.3240 -0.8976
  495MOL0     C65219   1.367   0.873   6.622  0.2214  0.2648  0.2546
  495MOL0     C65220   1.503   0.942   6.609 -0.0642 -0.1625  0.5834
  495MOL0     C65221   1.487   1.059   6.514 -0.0049 -0.5370 -0.2532
  495MOL0     C65222   1.615   1.154   6.486  0.9193  0.4907  0.3409
  495MOL0     C65223   1.584   1.280   6.398 -0.3029  0.2442 -1.2333
  495MOL0     C65224   1.535   1.393   6.496  0.7367 -0.3784  1.3427
  495MOL0     N65225   1.413   1.370   6.571  0.5811  1.0567  0.1860
  495MOL0     C65226   1.297   1.373   6.498 -0.3241 -1.0195 -0.8565
  495MOL0     C65227   1.203   1.347   6.592 -0.5691  0.4343  0.0284
  495MOL0     C65228   1.062   1.322   6.563  0.1938 -0.3571 -0.0522
  495MOL0     C65229   1.024   1.176   6.563 -0.8851 -0.4809 -0.9622
  495MOL0     C65230   0.978   1.119   6.695 -0.4017 -0.0812 -0.2491
  495MOL0     C65231   0.869   1.195   6.764  0.1766  0.4513 -0.1538
  495MOL0     O65232   0.751   1.189   6.675 -0.5712 -0.8283 -0.2562
  495MOL0     C65233   0.634   1.260   6.692 -0.5985 -0.1160 -0.3192
  495MOL0     C65234   0.632   1.383   6.757 -0.0110  0.6425 -0.0987
  495MOL0     C65235   0.508   1.446   6.784  0.0677  0.7574 -1.1347
  495MOL0     C65236   0.385   1.399   6.721 -0.9356  0.1775 -1.0338
  495MOL0     C65237   0.255   1.460   6.737  0.1274  0.4840  0.0030
  495MOL0     O65238   0.247   1.559   6.834 -0.2064  0.0644  0.0824
  495MOL0     C65239   0.136   1.633   6.864 -0.5117  0.5744 -0.6294
  495MOL0     C65240   0.003   1.598   6.832 -0.7135 -0.5723  0.0564
  495MOL0     C65241  -0.102   1.690   6.859 -1.1642  0.3512  1.0540
  495MOL0     C65242  -0.079   1.807   6.930  0.0215  0.2582  0.6101
  495MOL0     O65243  -0.186   1.882   6.971 -0.4929 -0.6487 -0.1256
  495MOL0     C65244  -0.183   1.945   7.098  0.3493 -0.0542 -0.5267
  495MOL0     C65245  -0.320   2.024   7.135 -0.5401 -0.4889  0.1018
  495MOL0     C65246  -0.372   2.097   7.012  0.1895  1.3933  0.4022
  495MOL0     C65247  -0.495   2.183   7.039  0.1187 -0.0403  0.6797
  495MOL0     C65248  -0.633   2.109   7.044 -0.5037  0.4133  0.5187
  495MOL0     C65249  -0.752   2.213   7.051  0.2878  0.0649  0.2539
  495MOL0     C65250  -0.757   2.296   7.181  0.9785  0.4163  0.1580
  495MOL0     C65251  -0.901   2.341   7.210 -0.3553  0.4869  0.4551
  495MOL0    Cl65252  -0.903   2.461   7.335  0.0054 -0.0349 -0.5432
  495MOL0     C65253   0.053   1.836   6.960  0.6265 -0.2738  1.3262
  495MOL0     C65254   0.159   1.750   6.926 -0.4290 -1.2136 -0.3156
  495MOL0     O65255   0.161   1.408   6.678 -1.3267 -0.1898 -0.4308
  495MOL0     C65256   0.400   1.277   6.647 -0.7150  0.6359 -1.0863
  495MOL0     C65257   0.516   1.206   6.645 -0.3799  0.7166  0.2114
  495MOL0     N65258   1.268   1.323   6.714 -0.5480  0.0616  0.6845
  495MOL0     N65259   1.390   1.346   6.702  0.0595 -0.1676 -0.0051
  495MOL0     C65260   0.878   0.747   6.583  0.6221  0.0371 -0.1292
  495MOL0     C65261   0.743   0.723   6.588  0.6591  0.1018 -0.5038
  495MOL0     C65262   0.304   0.733   6.412 -0.7547 -0.1941 -0.4295
  495MOL0     C65263   0.248   0.727   6.548  0.2733 -0.5478 -0.2709
  495MOL0     C65264   0.110   0.722   6.563  0.2472 -0.2493 -0.3029
  495MOL0     C65265   0.026   0.729   6.452 -0.0691 -0.1534 -0.3349
  495MOL0     O65266  -0.111   0.732   6.464 -0.0069  0.5968 -0.1445
  495MOL0     C65267  -0.184   0.703   6.583  0.0403 -0.5105  0.9403
  495MOL0     C65268  -0.209   0.839   6.659 -0.0466  0.5220 -0.3029
  495MOL0     C65269  -0.110   0.864   6.780  0.7713  0.1082 -0.3558
  495MOL0     C65270  -0.167   0.975   6.862 -0.0596  0.5410 -0.4166
  495MOL0     C65271  -0.130   1.102   6.802  0.1866 -0.5047  1.6613
  495MOL0     C65272  -0.103   1.213   6.758 -0.6012 -0.6328  0.3053
  495MOL0     C65273   0.081   0.741   6.320  0.7737  1.0458 -0.0198
  495MOL0     C65274   0.221   0.743   6.302  0.2143 -0.4987 -0.3057
  495MOL0     H65275   0.667   0.928   6.327 -1.8054 -1.7019  0.6543
  495MOL0     H65276   0.904   0.955   6.322  0.0017  0.6914 -0.0689
  495MOL0     H65277   1.159   0.652   6.468 -0.0974  0.2105 -1.2059
  495MOL0     H65278   1.167   0.732   6.624  2.8015  1.0863 -0.0483
  495MOL0     H65279   1.305   0.862   6.403  2.0326  1.4556 -0.3628
  495MOL0     H65280   1.377   0.718   6.461  0.9399  2.2378 -4.1314
  495MOL0     H65281   1.379   0.798   6.701  0.7058  0.3154  0.2326
  495MOL0     H65282   1.292   0.949   6.644 -1.5644 -0.1795 -3.5804
  495MOL0     H65283   1.550   0.974   6.703  0.7191 -3.6476  1.5287
  495MOL0     H65284   1.569   0.866   6.567  0.0151 -0.1794  0.7364
  495MOL0     H65285   1.412   1.128   6.553  0.8334  0.0607  0.3210
  495MOL0     H65286   1.461   1.020   6.415  0.7131 -1.0653 -0.2457
  495MOL0     H65287   1.695   1.095   6.439  1.4214  0.4754  1.1976
  495MOL0     H65288   1.663   1.190   6.577  0.2347 -0.0080  0.9060
  495MOL0     H65289   1.681   1.321   6.369 -0.3768  1.5014  0.1595
  495MOL0     H65290   1.513   1.269   6.315 -0.8408  2.6910 -1.1793
  495MOL0     H65291   1.537   1.483   6.435 -0.9785 -1.4686 -0.4168
  495MOL0     H65292   1.613   1.401   6.574 -0.1640 -0.6839  2.3001
  495MOL0     H65293   1.287   1.388   6.391  1.6616  1.5029 -0.7814
  495MOL0     H65294   1.040   1.371   6.467  3.1977  2.6585  0.6242
  495MOL0     H65295   0.988   1.375   6.624 -2.8698 -1.3506 -2.6205
  495MOL0     H65296   1.093   1.110   6.510 -2.3902 -1.6433 -1.5756
  495MOL0     H65297   0.934   1.175   6.501 -2.1953  1.4469  0.7742
  495MOL0     H65298   0.935   1.019   6.683 -2.0246  0.4299  0.8870
  495MOL0     H65299   1.064   1.114   6.762  0.3578  2.3498 -0.9263
  495MOL0     H65300   0.903   1.295   6.794 -2.1662  0.8670  1.3564
  495MOL0     H65301   0.849   1.135   6.853 -0.9040 -1.1397 -1.3869
  495MOL0     H65302   0.721   1.425   6.802  0.6724 -0.1579 -0.6682
  495MOL0     H65303   0.518   1.538   6.841  2.3984  0.3839 -0.8365
  495MOL0     H65304  -0.019   1.511   6.771 -0.3570  1.8746 -3.9991
  495MOL0     H65305  -0.203   1.664   6.828 -0.6982  0.9188 -1.1155
  495MOL0     H65306  -0.094   2.008   7.107  1.9931 -2.5341  4.1000
  495MOL0     H65307  -0.169   1.868   7.174 -0.6785  2.1942  2.0956
  495MOL0     H65308  -0.305   2.100   7.213  0.5190 -1.7886  1.2108
  495MOL0     H65309  -0.403   1.965   7.174 -1.9844  1.8376  0.7842
  495MOL0     H65310  -0.410   2.021   6.944 -1.7205  1.4349  1.3448
  495MOL0     H65311  -0.302   2.158   6.955 -0.7654 -0.0750 -2.4888
  495MOL0     H65312  -0.471   2.243   7.127  4.5779 -0.3485 -0.1004
  495MOL0     H65313  -0.511   2.249   6.953  5.0072 -2.3606 -2.4764
  495MOL0     H65314  -0.644   2.048   7.134 -1.4174  2.3149  1.7882
  495MOL0     H65315  -0.648   2.048   6.954  1.2096  2.1405 -1.0206
  495MOL0     H65316  -0.844   2.156   7.038  0.2907 -0.0424  0.6967
  495MOL0     H65317  -0.747   2.279   6.964 -1.1353 -1.1886 -0.8264
  495MOL0     H65318  -0.727   2.238   7.269 -4.1569  1.2368  2.8437
  495MOL0     H65319  -0.689   2.381   7.169 -0.2497  1.5804  1.1974
  495MOL0     H65320  -0.962   2.254   7.236  1.6618 -0.7717  1.2023
  495MOL0     H65321  -0.941   2.391   7.121 -0.6133  1.2969  1.0166
  495MOL0     H65322   0.079   1.925   7.017 -0.7066 -0.2739  1.9717
  495MOL0     H65323   0.261   1.781   6.945 -0.4680 -1.2939  0.0440
  495MOL0     H65324   0.319   1.223   6.599  1.0505 -1.1878 -2.1348
  495MOL0     H65325   0.539   1.106   6.610  1.3660  0.3760  2.1163
  495MOL0     H65326   0.948   0.719   6.660 -1.7742 -0.1672  2.1041
  495MOL0     H65327   0.699   0.658   6.662  1.4113 -1.6567 -1.5245
  495MOL0     H65328   0.314   0.715   6.633  1.2823  2.4296 -0.5314
  495MOL0     H65329   0.067   0.711   6.662  0.9483  2.2270  0.3444
  495MOL0     H65330  -0.146   0.623   6.647  1.8340 -0.4568 -0.0058
  495MOL0     H65331  -0.284   0.672   6.552  1.0793 -1.6104 -1.4760
  495MOL0     H65332  -0.211   0.924   6.590 -3.3397  0.2861 -0.6628
  495MOL0     H65333  -0.311   0.833   6.698  1.1374 -3.3689  2.7803
  495MOL0     H65334  -0.007   0.890   6.755  0.9896 -0.7722 -0.3958
  495MOL0     H65335  -0.100   0.771   6.837  0.6646  0.8192  0.8502
  495MOL0     H65336  -0.274   0.958   6.871 -0.3216  1.7659 -0.9439
  495MOL0     H65337  -0.130   0.973   6.965 -2.9383  0.4535  0.6936
  495MOL0     H65338  -0.067   1.300   6.708  0.2815 -1.0366  0.2151
  495MOL0     H65339   0.013   0.759   6.237  0.0459  1.6004  0.6743
  495MOL0     H65340   0.248   0.766   6.200 -1.9926  0.6480 -0.6847
  496MOL0     O65341   3.626   8.077   5.344  0.5924  0.5007 -0.4512
  496MOL0     C65342   3.646   8.173   5.413  1.0628 -0.2131 -0.7238
  496MOL0     O65343   3.581   8.204   5.530 -0.4136  0.5309  0.3606
  496MOL0     C65344   3.456   8.159   5.549 -0.0234 -0.1349  0.6513
  496MOL0     C65345   3.433   8.035   5.604  0.1037 -0.3194 -0.2542
  496MOL0     C65346   3.310   7.986   5.629  1.2660 -0.3853 -0.2538
  496MOL0     C65347   3.205   8.059   5.571 -0.1799  0.8480  0.5379
  496MOL0     O65348   3.075   8.010   5.561 -0.6818  0.3882  0.6842
  496MOL0     C65349   3.019   7.951   5.682 -0.4338  0.1002  0.1911
  496MOL0     C65350   2.883   7.890   5.655  0.6347  0.8219 -0.1962
  496MOL0     C65351   2.789   7.990   5.602  0.4953 -0.2329 -0.4326
  496MOL0     C65352   2.649   7.928   5.587  0.4063  1.0920 -0.1374
  496MOL0     C65353   2.548   8.032   5.538 -0.7480  0.2070 -0.4506
  496MOL0     C65354   2.569   8.077   5.401  0.1591  0.3008  0.1278
  496MOL0     C65355   2.444   8.139   5.335 -0.0552 -0.1529 -0.2893
  496MOL0     C65356   2.468   8.164   5.187  0.0745 -0.4139 -0.1389
  496MOL0     N65357   2.367   8.231   5.116  0.1673  0.6195  0.0822
  496MOL0     C65358   2.260   8.169   5.065  1.0551 -0.3884  0.3105
  496MOL0     C65359   2.204   8.270   4.996 -0.5912  0.5111 -0.2981
  496MOL0     C65360   2.084   8.262   4.906 -0.6090 -0.1953 -0.9520
  496MOL0     C65361   1.961   8.341   4.964 -0.2310  0.7972 -0.1251
  496MOL0     C65362   1.834   8.348   4.873  0.0981 -0.2680  0.0485
  496MOL0     C65363   1.711   8.380   4.955  0.2183  0.3541  0.7848
  496MOL0     O65364   1.601   8.386   4.866  0.3681 -0.4022  0.0410
  496MOL0     C65365   1.474   8.343   4.901 -0.8063 -0.0424  0.0642
  496MOL0     C65366   1.376   8.335   4.804 -0.0843  0.1432 -0.7925
  496MOL0     C65367   1.243   8.291   4.839  0.1980  0.5115  0.0412
  496MOL0     C65368   1.211   8.259   4.976 -0.1508  0.1660 -0.4356
  496MOL0     C65369   1.080   8.203   5.021  0.1896  0.6686 -0.7739
  496MOL0     O65370   0.995   8.172   4.929  0.0408 -0.3569 -0.4198
  496MOL0     C65371   0.873   8.131   4.965  0.2357  0.0967 -0.4040
  496MOL0     C65372   0.783   8.220   5.019  0.1644  0.5413  0.3055
  496MOL0     C65373   0.660   8.173   5.061  0.4165  0.4503  0.0755
  496MOL0     C65374   0.620   8.045   5.047 -0.3811 -0.1090 -0.2772
  496MOL0     O65375   0.489   8.027   5.081 -0.1834 -0.2504 -0.3004
  496MOL0     C65376   0.424   7.898   5.044 -0.4419 -0.0355 -0.2747
  496MOL0     C65377   0.270   7.914   5.073 -1.0390 -0.3112  0.0720
  496MOL0     C65378   0.200   7.994   4.960  0.7022 -0.0208 -0.0666
  496MOL0     C65379   0.065   8.041   4.995  0.2006  0.0282 -0.3808
  496MOL0     C65380  -0.007   8.110   4.876 -0.1432  0.5778 -0.1522
  496MOL0     C65381  -0.151   8.145   4.911 -0.2230  0.1581  0.2768
  496MOL0     C65382  -0.170   8.235   5.037  0.1987 -0.1303  0.3580
  496MOL0     C65383  -0.325   8.256   5.052 -0.1240 -0.2061  0.3294
  496MOL0    Cl65384  -0.422   8.278   4.902 -0.0528  0.1925 -0.3337
  496MOL0     C65385   0.708   7.960   4.974  0.6886 -0.3915 -1.2300
  496MOL0     C65386   0.826   8.004   4.928  0.1130 -0.1831 -0.1815
  496MOL0     O65387   1.068   8.190   5.144 -0.1788 -0.1882 -0.0280
  496MOL0     C65388   1.311   8.275   5.072 -0.5264 -0.5849 -0.6120
  496MOL0     C65389   1.439   8.319   5.032  0.1011 -0.6688 -0.4430
  496MOL0     N65390   2.269   8.389   5.025  0.2902  0.4648  0.4803
  496MOL0     N65391   2.369   8.362   5.102  0.0021  0.7583 -0.7496
  496MOL0     C65392   3.224   8.176   5.506  0.9177  0.6820 -0.1528
  496MOL0     C65393   3.349   8.231   5.498  0.5966  0.3290 -0.3858
  496MOL0     C65394   3.775   8.246   5.384  0.2527 -0.3620 -0.4605
  496MOL0     C65395   3.823   8.344   5.477 -0.2124 -0.1438 -0.0168
  496MOL0     C65396   3.951   8.393   5.464  0.4275  0.9923 -0.5347
  496MOL0     C65397   4.029   8.360   5.353 -0.3470 -0.2071  0.2820
  496MOL0     O65398   4.157   8.422   5.334  1.0032  0.2562  0.6353
  496MOL0     C65399   4.213   8.404   5.207  0.1624 -0.7398  0.2936
  496MOL0     C65400   4.323   8.510   5.191 -0.7602  0.4113 -0.0949
  496MOL0     C65401   4.418   8.475   5.077  0.5162  0.3566  0.9330
  496MOL0     C65402   4.536   8.570   5.055 -0.3980 -0.8565 -0.8521
  496MOL0     C65403   4.598   8.566   4.923  0.2961  0.9272 -0.2282
  496MOL0     C65404   4.626   8.562   4.805 -0.2284 -0.3945 -1.0167
  496MOL0     C65405   3.979   8.270   5.257  0.3226 -0.2909  0.3645
  496MOL0     C65406   3.853   8.217   5.275  0.6752  0.0671  0.5112
  496MOL0     H65407   3.523   7.986   5.641 -0.3085 -1.1737 -0.3487
  496MOL0     H65408   3.288   7.892   5.679  0.9239 -0.1682  0.0111
  496MOL0     H65409   3.003   8.029   5.757 -0.5957 -0.7364  1.0448
  496MOL0     H65410   3.084   7.869   5.713 -1.6045 -1.3920 -1.1566
  496MOL0     H65411   2.847   7.846   5.749 -0.8057  0.0543 -1.0709
  496MOL0     H65412   2.893   7.812   5.579  1.0553  1.7264 -1.0933
  496MOL0     H65413   2.833   8.031   5.510 -0.6046  0.8634 -0.4952
  496MOL0     H65414   2.778   8.083   5.658 -2.9222 -0.2606 -0.8548
  496MOL0     H65415   2.647   7.845   5.516  0.3880  1.4035 -0.5088
  496MOL0     H65416   2.609   7.888   5.680 -4.4721 -1.4555 -2.8903
  496MOL0     H65417   2.543   8.115   5.608  0.0527 -0.7160  0.7438
  496MOL0     H65418   2.450   7.984   5.537 -0.9427  0.6145 -1.7192
  496MOL0     H65419   2.603   7.995   5.336 -1.3339  1.8566 -2.8562
  496MOL0     H65420   2.646   8.154   5.402 -0.1233  0.6903 -2.0255
  496MOL0     H65421   2.353   8.078   5.339 -0.3715  0.3273 -0.0238
  496MOL0     H65422   2.425   8.236   5.382 -0.9384 -1.6433  2.6767
  496MOL0     H65423   2.473   8.066   5.139 -3.8653 -0.7319 -0.2532
  496MOL0     H65424   2.562   8.219   5.177  1.1492 -2.3901 -1.7432
  496MOL0     H65425   2.234   8.064   5.069 -0.4755  0.0139  3.5146
  496MOL0     H65426   2.048   8.161   4.884 -3.0826  0.5052 -0.3941
  496MOL0     H65427   2.104   8.305   4.808  0.8442  1.3446 -0.0409
  496MOL0     H65428   1.997   8.439   4.997  3.9375 -0.9394  1.0816
  496MOL0     H65429   1.930   8.287   5.055  0.0092 -0.6270 -0.8558
  496MOL0     H65430   1.858   8.407   4.784  0.1571 -0.9093 -0.3755
  496MOL0     H65431   1.815   8.244   4.844 -3.4304  0.5125 -0.8785
  496MOL0     H65432   1.722   8.470   5.016 -1.2413 -1.1311  3.4184
  496MOL0     H65433   1.701   8.293   5.020  2.1850 -0.0592  0.6009
  496MOL0     H65434   1.394   8.338   4.697 -2.3918 -1.5349 -1.3097
  496MOL0     H65435   1.162   8.269   4.770  1.5317  0.6233 -1.6466
  496MOL0     H65436   0.807   8.324   5.041  1.8158  0.3625 -0.5206
  496MOL0     H65437   0.592   8.244   5.107  1.1208  1.4791 -0.4337
  496MOL0     H65438   0.475   7.827   5.111  1.6475  0.0189 -1.7237
  496MOL0     H65439   0.438   7.881   4.937 -0.9056 -0.1812 -0.3133
  496MOL0     H65440   0.275   7.962   5.171 -0.4358  0.2015 -0.2004
  496MOL0     H65441   0.229   7.813   5.076 -2.3932  0.2309  0.9844
  496MOL0     H65442   0.193   7.937   4.867  0.6228 -0.5754  0.2781
  496MOL0     H65443   0.263   8.078   4.928  1.3431 -0.3293  0.3681
  496MOL0     H65444   0.014   7.952   5.033  1.6569 -1.3029 -1.3839
  496MOL0     H65445   0.077   8.111   5.079  0.1929  0.0238 -0.3762
  496MOL0     H65446  -0.016   8.043   4.790  0.7946 -0.3125  0.4285
  496MOL0     H65447   0.048   8.198   4.841 -0.6972  1.3925  0.9604
  496MOL0     H65448  -0.217   8.058   4.905 -0.5600  0.3671  0.8190
  496MOL0     H65449  -0.189   8.208   4.830 -3.1923 -4.4547 -2.3796
  496MOL0     H65450  -0.131   8.190   5.128  4.1754  0.7662 -0.7384
  496MOL0     H65451  -0.113   8.327   5.025 -0.5319  0.4051  0.8996
  496MOL0     H65452  -0.339   8.357   5.091  0.0077  1.2499 -3.0461
  496MOL0     H65453  -0.357   8.178   5.121 -0.0055 -2.4510 -1.9849
  496MOL0     H65454   0.663   7.870   4.932 -4.1800  1.0396  0.2203
  496MOL0     H65455   0.878   7.932   4.866 -0.1893  0.7775 -1.6048
  496MOL0     H65456   1.293   8.247   5.176  0.7790  2.6493  0.6194
  496MOL0     H65457   1.517   8.327   5.107 -3.7303  1.3058  3.8363
  496MOL0     H65458   3.139   8.218   5.454 -0.1719 -0.2418  0.8345
  496MOL0     H65459   3.379   8.315   5.436  1.5097 -1.0790 -1.9334
  496MOL0     H65460   3.770   8.375   5.566  0.3426  0.9555 -0.0577
  496MOL0     H65461   3.979   8.468   5.537  1.2398 -0.2565  0.4690
  496MOL0     H65462   4.138   8.431   5.132 -0.3994  2.0265  1.7147
  496MOL0     H65463   4.250   8.306   5.177  1.2104  0.3734 -2.3742
  496MOL0     H65464   4.278   8.609   5.185 -2.6863 -0.4691 -0.8690
  496MOL0     H65465   4.387   8.498   5.279 -2.3933 -4.4142  0.7365
  496MOL0     H65466   4.357   8.481   4.987 -1.3362  0.9581  2.1723
  496MOL0     H65467   4.463   8.376   5.080  1.7401  0.8925  3.1789
  496MOL0     H65468   4.500   8.672   5.066  1.3172 -0.0796 -2.0516
  496MOL0     H65469   4.599   8.547   5.142 -1.3234  0.8811  0.3295
  496MOL0     H65470   4.644   8.583   4.701 -0.1945  0.8467 -0.7863
  496MOL0     H65471   4.044   8.234   5.177 -0.6042 -0.0697 -0.4988
  496MOL0     H65472   3.810   8.154   5.198 -0.5586  1.5968 -0.1038
  497MOL0     O65473   7.082   5.587   6.540 -0.0106  0.0631  0.1406
  497MOL0     C65474   7.106   5.524   6.442 -0.4671  1.8573 -0.2668
  497MOL0     O65475   7.033   5.426   6.385  0.1435 -0.1024 -0.2730
  497MOL0     C65476   6.927   5.370   6.443  0.3352 -0.0251  0.5199
  497MOL0     C65477   6.834   5.313   6.363  0.6169 -0.0589  0.0745
  497MOL0     C65478   6.724   5.250   6.425 -0.4145 -0.1491 -0.5933
  497MOL0     C65479   6.702   5.250   6.564 -0.3568  0.1537  0.3059
  497MOL0     O65480   6.594   5.189   6.630  0.8341 -0.1012  0.0998
  497MOL0     C65481   6.505   5.098   6.559  0.1870  0.5767 -0.3758
  497MOL0     C65482   6.376   5.067   6.639  0.1452 -0.2396  0.5739
  497MOL0     C65483   6.277   4.972   6.568  0.1559 -0.4606 -0.6327
  497MOL0     C65484   6.152   4.948   6.655 -0.5857 -0.1309 -0.1625
  497MOL0     C65485   6.062   4.839   6.588  0.6466  0.6670  0.9346
  497MOL0     C65486   5.917   4.858   6.618  1.3029 -0.1078 -0.5903
  497MOL0     C65487   5.831   4.741   6.575  0.1355 -0.3822  0.4800
  497MOL0     C65488   5.813   4.756   6.416 -0.3748 -0.2892 -1.1463
  497MOL0     N65489   5.711   4.667   6.357  0.0224 -1.0908 -0.7638
  497MOL0     C65490   5.572   4.691   6.337 -0.4406 -0.1731  0.3196
  497MOL0     C65491   5.523   4.570   6.295  0.4206  0.1551 -0.1486
  497MOL0     C65492   5.392   4.539   6.249  0.4885  0.1389 -0.1059
  497MOL0     C65493   5.306   4.654   6.212  0.0883 -1.1463  0.5925
  497MOL0     C65494   5.171   4.605   6.155 -0.6422  0.0695  0.4437
  497MOL0     C65495   5.076   4.727   6.146 -0.4761 -0.0822  0.0532
  497MOL0     O65496   5.021   4.752   6.280 -0.5118  0.4219 -0.1432
  497MOL0     C65497   4.889   4.735   6.315 -0.0179  0.4259  0.2545
  497MOL0     C65498   4.831   4.811   6.419  0.5689 -0.4224  0.3376
  497MOL0     C65499   4.700   4.795   6.455 -0.1336  0.0054 -0.0282
  497MOL0     C65500   4.614   4.708   6.388  0.1666  0.2037  0.2354
  497MOL0     C65501   4.465   4.694   6.416  0.2053 -0.5052 -0.8014
  497MOL0     O65502   4.394   4.596   6.344 -0.7644  0.0758  0.1893
  497MOL0     C65503   4.263   4.583   6.368  0.1961 -0.0285  0.0820
  497MOL0     C65504   4.228   4.465   6.439 -0.2586  0.3876  0.6255
  497MOL0     C65505   4.092   4.439   6.471  1.0194  0.2392  0.6019
  497MOL0     C65506   3.998   4.531   6.424  0.3077  0.5207  0.0679
  497MOL0     O65507   3.870   4.505   6.462 -0.0838 -0.0169 -0.1610
  497MOL0     C65508   3.770   4.587   6.412 -0.0018  1.2656 -0.1054
  497MOL0     C65509   3.642   4.544   6.467  0.3770 -0.6393  0.0173
  497MOL0     C65510   3.515   4.616   6.408 -0.2357  0.0356 -0.1405
  497MOL0     C65511   3.390   4.570   6.480  0.5251 -0.1240 -0.3098
  497MOL0     C65512   3.388   4.600   6.634 -1.4442  0.5369  1.3677
  497MOL0     C65513   3.256   4.590   6.710  0.5076 -0.3343  0.7665
  497MOL0     C65514   3.161   4.706   6.662 -0.1173  0.2286  0.4922
  497MOL0     C65515   3.061   4.740   6.772 -0.3629 -0.3010 -0.5615
  497MOL0    Cl65516   2.931   4.850   6.717 -0.1426  0.5141 -0.2239
  497MOL0     C65517   4.035   4.650   6.354 -0.5193  0.2724 -0.5198
  497MOL0     C65518   4.170   4.673   6.329  0.3367 -0.0017 -0.4927
  497MOL0     O65519   4.414   4.786   6.492 -0.4831 -0.6367  0.0810
  497MOL0     C65520   4.676   4.623   6.289  0.3631  0.4989  0.6387
  497MOL0     C65521   4.813   4.638   6.250  0.0134 -0.6712  0.4781
  497MOL0     N65522   5.624   4.478   6.281 -0.2320 -0.3204 -0.0302
  497MOL0     N65523   5.734   4.546   6.321 -0.2054 -0.3785  1.2910
  497MOL0     C65524   6.795   5.313   6.640 -0.2254  0.2581  0.5759
  497MOL0     C65525   6.907   5.369   6.582  0.0346 -0.7388  0.0132
  497MOL0     C65526   7.224   5.566   6.368 -0.2050 -0.3304 -0.1184
  497MOL0     C65527   7.338   5.603   6.437 -0.0794 -0.7382 -0.4074
  497MOL0     C65528   7.462   5.624   6.372  0.6692 -0.0899 -0.0650
  497MOL0     C65529   7.474   5.627   6.236 -0.4582 -0.3682  0.6199
  497MOL0     O65530   7.588   5.654   6.162 -0.3414 -0.9342 -0.9568
  497MOL0     C65531   7.706   5.660   6.244 -0.8682  0.0912  0.4970
  497MOL0     C65532   7.818   5.717   6.160  0.6514 -0.1387 -0.4935
  497MOL0     C65533   7.843   5.615   6.041 -0.1454  0.0816 -0.2140
  497MOL0     C65534   7.942   5.680   5.941 -0.6237 -0.4393  1.2484
  497MOL0     C65535   7.942   5.601   5.822  0.5542 -0.1398 -0.4360
  497MOL0     C65536   7.932   5.541   5.712 -0.8629 -0.0015  0.5161
  497MOL0     C65537   7.358   5.605   6.167  0.4843 -1.0502  0.2075
  497MOL0     C65538   7.237   5.576   6.227 -0.4342  0.5034 -0.0584
  497MOL0     H65539   6.847   5.325   6.256  2.6543 -0.8264  0.1953
  497MOL0     H65540   6.656   5.203   6.355  0.6829  1.6952 -3.0575
  497MOL0     H65541   6.554   5.003   6.538 -1.4939 -0.9521  2.0330
  497MOL0     H65542   6.469   5.148   6.468 -1.6052  1.9737  0.9975
  497MOL0     H65543   6.324   5.162   6.653  0.3058 -0.0169 -0.2595
  497MOL0     H65544   6.397   5.027   6.739 -4.2272 -0.1926  1.6927
  497MOL0     H65545   6.335   4.880   6.560  2.4547  0.8992 -0.2849
  497MOL0     H65546   6.243   5.013   6.472 -1.8302 -1.7352 -0.5626
  497MOL0     H65547   6.180   4.908   6.753  0.7479 -0.9940 -0.8627
  497MOL0     H65548   6.098   5.042   6.665 -1.6172 -0.7040 -0.2742
  497MOL0     H65549   6.097   4.739   6.618 -2.4956 -1.3046 -1.3864
  497MOL0     H65550   6.074   4.844   6.480  0.7704  0.5737  0.9434
  497MOL0     H65551   5.880   4.955   6.585  0.7699 -0.0425  0.1580
  497MOL0     H65552   5.907   4.861   6.727 -1.0506 -1.2266 -0.7099
  497MOL0     H65553   5.877   4.642   6.579 -0.3691 -0.9464 -3.4138
  497MOL0     H65554   5.731   4.750   6.620 -0.7923 -0.4024 -1.4630
  497MOL0     H65555   5.905   4.739   6.359  0.8361 -0.7389  0.8496
  497MOL0     H65556   5.797   4.863   6.401  1.7883  0.4516  1.1297
  497MOL0     H65557   5.520   4.786   6.348  1.9444  1.1925  0.4107
  497MOL0     H65558   5.336   4.470   6.313  0.6583  0.9023  0.8832
  497MOL0     H65559   5.415   4.491   6.153  1.8744 -1.6294  1.0513
  497MOL0     H65560   5.371   4.708   6.143  1.8618 -2.9859  0.7353
  497MOL0     H65561   5.288   4.718   6.299  0.2198 -0.8928  0.4357
  497MOL0     H65562   5.196   4.560   6.059 -2.8995 -0.2689 -0.0319
  497MOL0     H65563   5.128   4.516   6.202 -0.1559 -0.5399 -0.2428
  497MOL0     H65564   4.997   4.704   6.073  1.2386  2.5146 -2.8800
  497MOL0     H65565   5.120   4.824   6.120 -0.5382  0.5464  2.1457
  497MOL0     H65566   4.899   4.882   6.464  0.1839  0.4976 -0.4955
  497MOL0     H65567   4.664   4.872   6.523 -1.5271 -0.8474  0.2310
  497MOL0     H65568   4.306   4.393   6.458  1.7899  1.2249 -3.4455
  497MOL0     H65569   4.069   4.353   6.532  0.6897 -0.4953 -0.5130
  497MOL0     H65570   3.765   4.589   6.303 -3.3301  3.3921 -0.0446
  497MOL0     H65571   3.788   4.690   6.445 -0.5781  0.9038  1.4262
  497MOL0     H65572   3.649   4.569   6.573 -1.1695  0.0469 -0.0146
  497MOL0     H65573   3.623   4.437   6.451 -3.2447 -0.1446  0.0609
  497MOL0     H65574   3.507   4.591   6.302  2.0300  0.1365 -0.4019
  497MOL0     H65575   3.530   4.723   6.424 -1.3626  0.2009 -0.1527
  497MOL0     H65576   3.308   4.610   6.421 -0.4176 -1.0751  0.3252
  497MOL0     H65577   3.381   4.461   6.477 -1.6410  0.0261 -0.9099
  497MOL0     H65578   3.420   4.704   6.640  2.6629 -0.5330  0.7537
  497MOL0     H65579   3.462   4.537   6.684  0.5842  1.1513 -0.7124
  497MOL0     H65580   3.277   4.612   6.815 -2.2382  1.5620  1.0039
  497MOL0     H65581   3.208   4.492   6.706  0.3973 -0.2787  0.7249
  497MOL0     H65582   3.220   4.797   6.647 -1.7036  1.3532  0.9274
  497MOL0     H65583   3.105   4.684   6.570  0.5670 -2.4953  0.6241
  497MOL0     H65584   3.108   4.797   6.853 -0.7046  0.4412 -0.8802
  497MOL0     H65585   3.021   4.645   6.809  1.5689 -0.9711 -0.0453
  497MOL0     H65586   3.961   4.727   6.331 -0.2851  0.7906  0.4162
  497MOL0     H65587   4.202   4.767   6.285  0.7980  0.1171  0.0743
  497MOL0     H65588   4.619   4.540   6.248 -0.4461  2.3331 -2.2478
  497MOL0     H65589   4.858   4.570   6.179 -1.5079 -0.6750 -0.5381
  497MOL0     H65590   6.789   5.312   6.748 -0.7269 -2.0353  0.5853
  497MOL0     H65591   6.975   5.415   6.654 -2.8847  0.9566  1.9123
  497MOL0     H65592   7.354   5.596   6.544  2.1939  0.9790 -0.5508
  497MOL0     H65593   7.539   5.648   6.444  0.9899 -0.4760 -0.2739
  497MOL0     H65594   7.742   5.561   6.275 -0.3651  0.7850  2.2852
  497MOL0     H65595   7.704   5.718   6.336 -0.4334 -1.6365  1.6560
  497MOL0     H65596   7.789   5.817   6.124 -2.4436 -1.6538 -2.6280
  497MOL0     H65597   7.906   5.728   6.224 -0.0224 -1.0886  0.6386
  497MOL0     H65598   7.749   5.576   6.000 -0.3195 -0.9570  1.0947
  497MOL0     H65599   7.887   5.530   6.094  1.3958  2.3736  2.4299
  497MOL0     H65600   7.901   5.780   5.921 -0.5971 -0.8139 -0.7816
  497MOL0     H65601   8.045   5.697   5.974 -0.3521 -1.7401  1.1064
  497MOL0     H65602   7.907   5.489   5.622  2.2926 -2.7199  0.9904
  497MOL0     H65603   7.369   5.617   6.060 -1.1716 -1.0144  0.0179
  497MOL0     H65604   7.151   5.550   6.166 -0.1230  1.8001 -1.0796
  498MOL0     O65605   9.068  11.111   1.811  0.6138 -0.7467  0.4229
  498MOL0     C65606   9.119  11.168   1.901  0.0969 -0.0961  0.3984
  498MOL0     O65607   9.078  11.284   1.964 -0.3974 -0.1116 -0.1411
  498MOL0     C65608   8.953  11.329   1.917  0.2024 -0.5233  1.2312
  498MOL0     C65609   8.953  11.461   1.882 -0.3278 -0.1666 -0.0208
  498MOL0     C65610   8.836  11.507   1.832 -0.1262 -0.4386 -0.0301
  498MOL0     C65611   8.716  11.425   1.802 -0.3166  0.7374  0.6151
  498MOL0     O65612   8.622  11.480   1.733  0.3408  0.7649  0.3002
  498MOL0     C65613   8.487  11.435   1.743 -0.2891  0.5661  0.6816
  498MOL0     C65614   8.393  11.533   1.675  0.2684  0.2020  0.7398
  498MOL0     C65615   8.368  11.651   1.770 -0.7929 -0.5600 -0.4008
  498MOL0     C65616   8.275  11.747   1.713  0.6755 -0.5613 -0.7826
  498MOL0     C65617   8.263  11.871   1.802  0.2764 -1.3489  0.6311
  498MOL0     C65618   8.140  11.965   1.754  0.0168  0.1538  0.1258
  498MOL0     C65619   8.137  12.094   1.844 -0.8758 -0.3393  0.5941
  498MOL0     C65620   8.033  12.196   1.809  0.7024 -0.1950  0.1562
  498MOL0     N65621   8.041  12.314   1.895  0.1127  0.1635 -0.4381
  498MOL0     C65622   7.990  12.307   2.017 -0.2337 -1.0983 -0.1944
  498MOL0     C65623   8.009  12.433   2.063 -0.2206 -0.3253 -0.1445
  498MOL0     C65624   7.933  12.479   2.187  0.0465 -0.0295 -0.6953
  498MOL0     C65625   8.019  12.432   2.317  0.2012 -0.1016  0.1743
  498MOL0     C65626   7.972  12.475   2.451  0.2073  0.0825 -0.4453
  498MOL0     C65627   7.856  12.389   2.518  0.6455  0.2646  0.0257
  498MOL0     O65628   7.722  12.427   2.473  0.4877  0.2845 -0.0383
  498MOL0     C65629   7.607  12.428   2.551  0.5871 -0.2602 -0.3335
  498MOL0     C65630   7.612  12.391   2.689  0.6063  0.6681 -0.3756
  498MOL0     C65631   7.494  12.394   2.765  0.0134  0.4396  0.2121
  498MOL0     C65632   7.369  12.419   2.697 -0.0466  0.1381 -0.4493
  498MOL0     C65633   7.244  12.411   2.767  0.6104 -0.4291 -0.0938
  498MOL0     O65634   7.134  12.467   2.705  1.0025  0.3066  0.0319
  498MOL0     C65635   7.003  12.441   2.746 -0.5812 -0.3534 -0.4836
  498MOL0     C65636   6.911  12.404   2.652 -0.5327  1.2784 -0.0643
  498MOL0     C65637   6.779  12.382   2.683  0.5983  0.6407  0.1737
  498MOL0     C65638   6.737  12.400   2.812  0.5306  0.0337 -1.1130
  498MOL0     O65639   6.601  12.391   2.839  1.0292  0.1045  0.1968
  498MOL0     C65640   6.557  12.407   2.976  0.0712  0.8453 -0.7471
  498MOL0     C65641   6.399  12.424   2.978 -0.1442  0.4237  0.0357
  498MOL0     C65642   6.335  12.388   3.115 -0.0066  0.2944  0.0119
  498MOL0     C65643   6.351  12.234   3.147 -0.3245  0.2277  0.1049
  498MOL0     C65644   6.257  12.183   3.259 -0.2382 -0.0677 -0.7516
  498MOL0     C65645   6.104  12.213   3.237 -0.3199  0.0236  0.0453
  498MOL0     C65646   6.024  12.125   3.327 -0.3954  0.8002  0.0111
  498MOL0     C65647   5.877  12.166   3.345  0.4655 -0.0946  0.3338
  498MOL0    Cl65648   5.786  12.151   3.194  0.2742  0.0151 -0.0336
  498MOL0     C65649   6.829  12.420   2.916 -0.2541  0.1230 -0.1443
  498MOL0     C65650   6.965  12.443   2.881  0.0048 -0.5697 -0.0944
  498MOL0     O65651   7.241  12.357   2.876 -0.1280 -0.4350 -0.1713
  498MOL0     C65652   7.367  12.455   2.561 -0.9943  1.2346 -0.4319
  498MOL0     C65653   7.486  12.460   2.483 -0.0537  0.2909  0.3795
  498MOL0     N65654   8.070  12.507   1.967 -0.1181  0.4054 -0.2051
  498MOL0     N65655   8.076  12.436   1.859 -0.1414 -0.9607 -0.1900
  498MOL0     C65656   8.733  11.290   1.833  1.3439 -0.2544  0.9667
  498MOL0     C65657   8.842  11.245   1.899 -0.8746  0.4622  0.4225
  498MOL0     C65658   9.221  11.086   1.968  0.6167 -0.2834 -0.0315
  498MOL0     C65659   9.241  10.950   1.938 -0.4869  1.0419 -0.0182
  498MOL0     C65660   9.360  10.882   1.983  0.9566 -0.6905 -0.6617
  498MOL0     C65661   9.453  10.949   2.062 -0.4562  0.0273  0.1428
  498MOL0     O65662   9.573  10.893   2.106  0.1313 -0.2575  0.3912
  498MOL0     C65663   9.597  10.750   2.085 -0.1444 -0.0462  0.4989
  498MOL0     C65664   9.721  10.689   2.159 -0.0527 -0.2374  0.4473
  498MOL0     C65665   9.837  10.785   2.149 -0.1641 -0.2956  0.8947
  498MOL0     C65666   9.956  10.730   2.224  0.3159 -0.3016  0.1462
  498MOL0     C65667  10.074  10.812   2.190 -0.2455  0.7397  0.0945
  498MOL0     C65668  10.152  10.894   2.152 -0.6288  0.5734 -0.1046
  498MOL0     C65669   9.423  11.079   2.107  0.3562 -0.3364  0.5074
  498MOL0     C65670   9.317  11.144   2.058  0.0619  0.2547 -0.2387
  498MOL0     H65671   9.035  11.526   1.909  1.0707 -1.0433 -1.9610
  498MOL0     H65672   8.835  11.611   1.799  4.7538 -0.2585 -0.3607
  498MOL0     H65673   8.456  11.420   1.847  1.0465  0.0885  1.0319
  498MOL0     H65674   8.477  11.335   1.699 -1.2712  0.4322  1.1694
  498MOL0     H65675   8.294  11.488   1.663  0.9401 -0.9753 -0.7353
  498MOL0     H65676   8.442  11.564   1.582  1.6708  1.7621  1.9381
  498MOL0     H65677   8.464  11.700   1.789 -1.1226  0.4653 -1.2693
  498MOL0     H65678   8.329  11.623   1.868 -0.6663 -0.4640 -0.3218
  498MOL0     H65679   8.313  11.776   1.614 -1.0270  0.7770 -1.0994
  498MOL0     H65680   8.174  11.705   1.703  0.6565 -0.3944 -1.3528
  498MOL0     H65681   8.355  11.929   1.799 -1.2351  1.1647  0.2413
  498MOL0     H65682   8.254  11.851   1.910 -0.8154 -1.2974  0.5669
  498MOL0     H65683   8.047  11.908   1.757  0.0002  0.1151 -0.8458
  498MOL0     H65684   8.161  11.987   1.649  1.5359 -0.4895  0.2746
  498MOL0     H65685   8.147  12.061   1.948 -1.8503 -1.1576  0.4387
  498MOL0     H65686   8.236  12.131   1.815  0.1973 -1.3738  2.6661
  498MOL0     H65687   7.929  12.161   1.808  0.8053 -0.5566 -1.4630
  498MOL0     H65688   8.045  12.227   1.704 -1.1779  0.8785  0.1972
  498MOL0     H65689   7.937  12.226   2.065 -0.3660  0.8627  3.2573
  498MOL0     H65690   7.833  12.437   2.183 -0.4094  1.0632 -1.0843
  498MOL0     H65691   7.930  12.589   2.187  2.7792  0.1285 -1.1608
  498MOL0     H65692   8.126  12.455   2.318  0.7940 -2.5184  2.3731
  498MOL0     H65693   8.024  12.323   2.316 -0.0719 -0.2254 -3.7280
  498MOL0     H65694   8.044  12.470   2.533 -2.2223 -1.2473  1.7728
  498MOL0     H65695   7.942  12.580   2.442 -0.4601 -0.2545 -2.8982
  498MOL0     H65696   7.864  12.404   2.626 -4.3369  1.7637  0.4520
  498MOL0     H65697   7.868  12.283   2.494  2.7037  0.9777 -2.5361
  498MOL0     H65698   7.701  12.374   2.749  0.1001  0.4413  0.3178
  498MOL0     H65699   7.500  12.382   2.873 -1.4016  0.9011  0.3540
  498MOL0     H65700   6.936  12.392   2.547 -1.1098  0.2668 -0.1036
  498MOL0     H65701   6.701  12.369   2.608 -0.3620  0.0432  1.2498
  498MOL0     H65702   6.595  12.496   3.028  1.2871 -0.2249  0.2646
  498MOL0     H65703   6.587  12.316   3.029 -0.9451 -0.3716 -2.1823
  498MOL0     H65704   6.354  12.362   2.899 -0.7894  2.0277 -0.9079
  498MOL0     H65705   6.372  12.529   2.961  0.3990  0.3160 -1.7405
  498MOL0     H65706   6.230  12.415   3.101 -0.2831 -1.0978 -0.7951
  498MOL0     H65707   6.370  12.448   3.199  0.9423 -0.3839  0.1123
  498MOL0     H65708   6.330  12.171   3.060 -0.0274 -4.8074  3.3122
  498MOL0     H65709   6.455  12.211   3.174 -0.7709  1.6188  3.6355
  498MOL0     H65710   6.290  12.220   3.357  0.9369 -1.3021 -0.6510
  498MOL0     H65711   6.269  12.074   3.265 -6.5242 -1.0921  0.1700
  498MOL0     H65712   6.071  12.185   3.136  1.4356  0.1129 -0.5937
  498MOL0     H65713   6.092  12.318   3.264 -0.1944  0.1176 -0.2579
  498MOL0     H65714   6.030  12.025   3.283  2.3590  0.9325 -0.0866
  498MOL0     H65715   6.074  12.127   3.424  0.1307  2.4297 -0.2744
  498MOL0     H65716   5.869  12.266   3.390 -3.8050 -0.6371  1.2049
  498MOL0     H65717   5.831  12.094   3.413 -0.0765 -0.9407 -0.8944
  498MOL0     H65718   6.807  12.426   3.022  0.5071 -1.3074  0.1255
  498MOL0     H65719   7.036  12.474   2.958 -1.1704  2.5648 -0.1281
  498MOL0     H65720   7.279  12.480   2.502 -0.1804  0.7987 -1.8984
  498MOL0     H65721   7.479  12.486   2.378  3.1310  2.9038  0.6648
  498MOL0     H65722   8.648  11.223   1.823 -0.2864  1.8778 -0.4327
  498MOL0     H65723   8.846  11.139   1.922  1.5271  0.5755  0.8473
  498MOL0     H65724   9.167  10.894   1.880  0.5246  0.4592 -0.7953
  498MOL0     H65725   9.384  10.788   1.933  0.2996  0.0690 -2.4997
  498MOL0     H65726   9.602  10.731   1.977  2.3148  0.6457  0.4454
  498MOL0     H65727   9.507  10.698   2.121 -0.3115 -1.0759 -1.2984
  498MOL0     H65728   9.708  10.668   2.265  1.7562  0.0390  0.7520
  498MOL0     H65729   9.746  10.589   2.121  0.7634  0.6022 -1.3044
  498MOL0     H65730   9.817  10.884   2.190 -2.2372 -0.4362  0.3545
  498MOL0     H65731   9.854  10.790   2.041  0.5418 -1.7723  0.9136
  498MOL0     H65732   9.944  10.753   2.330  0.9481  3.6156 -0.4946
  498MOL0     H65733   9.975  10.629   2.188  0.2324  0.9310 -3.8475
  498MOL0     H65734  10.221  10.971   2.122 -3.7845  3.4821 -0.4344
  498MOL0     H65735   9.503  11.138   2.151  0.6177 -0.3884  0.1110
  498MOL0     H65736   9.307  11.250   2.075  0.9984  0.6479 -1.9310
  499MOL0     O65737   7.260  11.063   9.817 -0.1081 -0.3296  0.6966
  499MOL0     C65738   7.307  11.004   9.714  0.0785 -0.1486  0.3948
  499MOL0     O65739   7.242  10.916   9.639  0.2514  0.1501  0.3829
  499MOL0     C65740   7.109  10.888   9.667 -1.0636 -0.0898 -0.2448
  499MOL0     C65741   7.076  10.790   9.759  0.3565  0.0032 -0.4771
  499MOL0     C65742   6.945  10.765   9.796  0.3966  0.1211 -0.7027
  499MOL0     C65743   6.841  10.843   9.736 -0.5939 -0.2152 -0.3455
  499MOL0     O65744   6.709  10.829   9.771  0.6973 -1.2354 -0.1747
  499MOL0     C65745   6.649  10.705   9.817 -0.8559 -0.3356 -0.2309
  499MOL0     C65746   6.522  10.674   9.737  0.0550 -0.4050 -0.4703
  499MOL0     C65747   6.562  10.616   9.599  0.1389  0.4479 -0.4446
  499MOL0     C65748   6.435  10.553   9.531 -0.2284 -0.6174  0.1515
  499MOL0     C65749   6.483  10.500   9.393 -0.1480  0.1188 -0.5197
  499MOL0     C65750   6.362  10.503   9.304 -0.3062 -0.2277  1.0409
  499MOL0     C65751   6.392  10.439   9.163  0.2520 -1.0484 -0.3808
  499MOL0     C65752   6.411  10.278   9.173  1.0409  0.0421  0.9358
  499MOL0     N65753   6.418  10.210   9.041 -0.4146  0.2428  0.1947
  499MOL0     C65754   6.533  10.177   8.978  0.2537 -0.1686  0.4132
  499MOL0     C65755   6.504  10.093   8.876 -0.2345  0.4994 -0.4717
  499MOL0     C65756   6.597  10.032   8.777  0.2756  0.2320 -0.0909
  499MOL0     C65757   6.724  10.111   8.757  0.9487 -0.1337 -0.6925
  499MOL0     C65758   6.829  10.044   8.660  0.6436  0.5013 -0.5687
  499MOL0     C65759   6.957  10.131   8.654  0.3008  0.1674 -0.4816
  499MOL0     O65760   7.005  10.166   8.788 -0.0329 -0.3602 -0.0988
  499MOL0     C65761   7.132  10.222   8.786 -0.4383  0.0207 -0.3852
  499MOL0     C65762   7.243  10.140   8.809 -0.6872 -0.4977  0.1850
  499MOL0     C65763   7.374  10.189   8.794 -0.1284 -0.0740  0.5930
  499MOL0     C65764   7.400  10.325   8.764  0.8659 -0.3084  0.8736
  499MOL0     C65765   7.531  10.384   8.758  0.4217 -0.9208 -0.1264
  499MOL0     O65766   7.544  10.515   8.721  0.1481 -0.2176 -0.2970
  499MOL0     C65767   7.676  10.559   8.721  0.0174  0.1630 -0.1304
  499MOL0     C65768   7.766  10.541   8.607  1.1154 -0.1656 -0.2487
  499MOL0     C65769   7.895  10.586   8.623  0.5340 -0.1381  0.0750
  499MOL0     C65770   7.954  10.614   8.752  0.7074 -0.6342 -0.1572
  499MOL0     O65771   8.092  10.624   8.752  0.6920  0.3313 -0.5913
  499MOL0     C65772   8.151  10.655   8.873 -0.5827  0.3196  0.3337
  499MOL0     C65773   8.305  10.675   8.845  0.1479 -1.1848  0.0461
  499MOL0     C65774   8.392  10.727   8.968 -0.1607 -0.5134 -0.0241
  499MOL0     C65775   8.541  10.727   8.929 -0.0865 -0.7350 -0.5017
  499MOL0     C65776   8.623  10.795   9.038 -0.6675 -0.3125 -0.4899
  499MOL0     C65777   8.776  10.780   9.010  0.4856  0.4897 -0.4276
  499MOL0     C65778   8.867  10.863   9.102 -0.6998  0.1779 -0.7226
  499MOL0     C65779   9.015  10.826   9.074  1.3044 -1.9841 -0.2365
  499MOL0    Cl65780   9.117  10.957   9.131  0.1311 -0.5518  0.1126
  499MOL0     C65781   7.864  10.627   8.860 -0.1409  0.0825  0.2770
  499MOL0     C65782   7.728  10.597   8.844 -0.5320  0.1256 -0.1137
  499MOL0     O65783   7.625  10.310   8.791  0.8090 -0.3966 -0.4526
  499MOL0     C65784   7.283  10.402   8.746 -0.4622 -0.1126  0.3816
  499MOL0     C65785   7.153  10.359   8.755  0.0321  0.6302 -1.1923
  499MOL0     N65786   6.362  10.077   8.883 -0.5329  0.4691  0.3046
  499MOL0     N65787   6.316  10.136   8.990 -0.4620 -0.1802 -0.6016
  499MOL0     C65788   6.876  10.939   9.647 -0.0968  0.3180 -0.5805
  499MOL0     C65789   7.009  10.965   9.611 -0.2051 -0.2277  0.3741
  499MOL0     C65790   7.440  11.045   9.668  0.3737 -0.4453  0.4704
  499MOL0     C65791   7.519  11.121   9.759 -0.6968  0.5502  0.6657
  499MOL0     C65792   7.656  11.137   9.729  0.2066 -0.8124 -0.1479
  499MOL0     C65793   7.717  11.086   9.620 -0.4509 -1.6552  0.4045
  499MOL0     O65794   7.857  11.119   9.616  0.2215  0.5953  0.0201
  499MOL0     C65795   7.947  11.046   9.527  0.1971  0.1147  0.4485
  499MOL0     C65796   8.084  11.035   9.582  0.4671  0.3767 -0.4947
  499MOL0     C65797   8.155  11.166   9.617 -0.8542  0.4461  0.0775
  499MOL0     C65798   8.312  11.151   9.613  0.5043 -0.2891 -0.8952
  499MOL0     C65799   8.366  11.282   9.636 -0.3943  0.0890 -0.3690
  499MOL0     C65800   8.401  11.401   9.667 -0.2632  0.1954  0.3890
  499MOL0     C65801   7.642  11.012   9.524  0.4839 -0.2675 -0.7009
  499MOL0     C65802   7.507  10.999   9.552 -0.1220  0.4271  0.4933
  499MOL0     H65803   7.159  10.737   9.805 -1.8010 -2.7766  0.5088
  499MOL0     H65804   6.921  10.699   9.879  0.3823  1.3179  0.2758
  499MOL0     H65805   6.627  10.712   9.923  0.0251  1.9967 -0.1493
  499MOL0     H65806   6.720  10.622   9.805 -2.1615 -1.5612  0.1518
  499MOL0     H65807   6.463  10.764   9.719 -1.6355 -1.2338  0.6368
  499MOL0     H65808   6.457  10.613   9.801  0.1379  0.2396  0.2377
  499MOL0     H65809   6.632  10.533   9.615 -0.1781  0.1584 -0.5526
  499MOL0     H65810   6.616  10.686   9.535  3.7116 -1.6908 -0.0379
  499MOL0     H65811   6.394  10.472   9.593 -2.2531  1.1432  1.2181
  499MOL0     H65812   6.363  10.634   9.522 -0.8533 -1.1214  0.5123
  499MOL0     H65813   6.521  10.397   9.401 -1.2514 -0.2373  0.5406
  499MOL0     H65814   6.561  10.564   9.351 -1.2725  1.8907 -0.0107
  499MOL0     H65815   6.336  10.609   9.294  1.4582  0.1275 -0.1317
  499MOL0     H65816   6.276  10.447   9.342 -0.9551  0.9080  1.3084
  499MOL0     H65817   6.299  10.457   9.109  1.9077  0.8845 -2.7648
  499MOL0     H65818   6.467  10.484   9.098 -0.1932 -0.9520 -0.8378
  499MOL0     H65819   6.328  10.230   9.226  0.1960 -0.8994 -1.1211
  499MOL0     H65820   6.504  10.253   9.223  1.4175 -0.4765 -0.0011
  499MOL0     H65821   6.630  10.219   9.003  1.3170 -0.4169 -2.8272
  499MOL0     H65822   6.541  10.015   8.684 -1.3859 -3.3689  1.3518
  499MOL0     H65823   6.624   9.931   8.810 -0.1787  0.7256  1.8618
  499MOL0     H65824   6.781  10.112   8.850 -0.3838  0.7854  0.1469
  499MOL0     H65825   6.711  10.211   8.715  2.2827  1.2884  1.9886
  499MOL0     H65826   6.845   9.945   8.704 -0.1717  0.4606 -0.3486
  499MOL0     H65827   6.785  10.046   8.560  0.3704 -0.6132 -0.4827
  499MOL0     H65828   6.922  10.224   8.607  0.0364  0.2426 -0.1382
  499MOL0     H65829   7.035  10.083   8.594  2.2489  0.5074  1.6345
  499MOL0     H65830   7.223  10.036   8.832  2.8751 -1.0044  1.5911
  499MOL0     H65831   7.456  10.121   8.812  0.1604  0.3685  0.9634
  499MOL0     H65832   7.727  10.500   8.514  1.6312 -0.8549 -0.1678
  499MOL0     H65833   7.975  10.585   8.550  0.1095  1.6631 -0.4767
  499MOL0     H65834   8.129  10.566   8.933 -0.0353  0.7746  1.2257
  499MOL0     H65835   8.114  10.744   8.925 -0.0586  0.1869  0.9437
  499MOL0     H65836   8.320  10.753   8.769 -1.2868 -1.0251 -0.0960
  499MOL0     H65837   8.343  10.579   8.807  2.0657 -0.5613  0.2950
  499MOL0     H65838   8.388  10.652   9.047  0.9251 -0.7708 -0.1890
  499MOL0     H65839   8.356  10.820   9.013 -1.3436 -1.1059  0.2911
  499MOL0     H65840   8.572  10.623   8.915 -0.9607 -0.8401 -1.8432
  499MOL0     H65841   8.548  10.783   8.835  0.7846 -1.3622 -0.8232
  499MOL0     H65842   8.590  10.754   9.134 -2.6564  1.6336 -0.2625
  499MOL0     H65843   8.599  10.902   9.045 -1.2587 -0.4901  0.4760
  499MOL0     H65844   8.790  10.809   8.906 -1.4785  0.3854 -0.7468
  499MOL0     H65845   8.816  10.678   9.019  1.9084  1.1533  1.4518
  499MOL0     H65846   8.858  10.967   9.069 -1.1220  0.1591 -0.6784
  499MOL0     H65847   8.851  10.847   9.209 -0.0385 -1.9656 -0.8915
  499MOL0     H65848   9.039  10.830   8.967 -0.8407  1.1709 -0.7250
  499MOL0     H65849   9.046  10.734   9.125  0.3904  0.0745  4.6298
  499MOL0     H65850   7.899  10.656   8.959  0.3723  3.2644 -0.7284
  499MOL0     H65851   7.664  10.595   8.931  1.9087 -0.2427  1.7669
  499MOL0     H65852   7.301  10.508   8.738  1.0071  0.0708  4.1166
  499MOL0     H65853   7.079  10.435   8.735 -2.4048 -0.9515  1.1577
  499MOL0     H65854   6.802  10.997   9.593  0.7836 -0.3545 -2.6116
  499MOL0     H65855   7.037  11.049   9.549 -0.2603 -0.6353 -0.2052
  499MOL0     H65856   7.473  11.147   9.854 -2.9209 -1.9252  0.3819
  499MOL0     H65857   7.716  11.208   9.785  1.4812 -1.8126 -0.1981
  499MOL0     H65858   7.943  11.089   9.427 -1.1180 -1.7313 -0.3490
  499MOL0     H65859   7.902  10.946   9.528  0.8560 -0.2003 -0.3497
  499MOL0     H65860   8.064  10.997   9.683  2.7864 -0.6684 -0.3806
  499MOL0     H65861   8.149  10.964   9.531 -0.4151 -0.2522 -0.7773
  499MOL0     H65862   8.126  11.202   9.716 -0.5326  0.8444  0.0329
  499MOL0     H65863   8.114  11.246   9.555 -3.1957 -0.7051  0.0534
  499MOL0     H65864   8.334  11.086   9.698 -0.3165 -1.4335 -1.5323
  499MOL0     H65865   8.346  11.100   9.522 -0.1692  0.6706 -1.7242
  499MOL0     H65866   8.449  11.495   9.682  0.7322  0.1833 -2.2974
  499MOL0     H65867   7.691  10.972   9.436  0.8590  0.8152 -0.9905
  499MOL0     H65868   7.443  10.957   9.475 -0.1960  0.7237  0.3943
  500MOL0     O65869   7.933   7.619   8.356  0.7953 -0.4576  0.4745
  500MOL0     C65870   7.979   7.511   8.372 -0.2095  0.0568  0.3580
  500MOL0     O65871   7.908   7.407   8.422 -0.5366 -0.0270 -0.2552
  500MOL0     C65872   7.773   7.432   8.459  1.1432  0.8234  0.1055
  500MOL0     C65873   7.740   7.458   8.592  0.5168 -0.4618 -0.8347
  500MOL0     C65874   7.598   7.481   8.623  0.3015 -0.4514  0.1099
  500MOL0     C65875   7.498   7.466   8.525  0.0583 -0.8969 -0.5477
  500MOL0     O65876   7.368   7.482   8.567 -0.3120 -0.0693  0.3801
  500MOL0     C65877   7.262   7.462   8.477 -0.2870  0.5177 -0.3607
  500MOL0     C65878   7.143   7.496   8.561  0.5056 -0.0300 -0.2839
  500MOL0     C65879   7.139   7.645   8.589 -1.2981  0.1540 -0.2794
  500MOL0     C65880   7.009   7.689   8.641 -0.7154 -0.7850  0.9013
  500MOL0     C65881   6.962   7.615   8.768 -0.0376 -0.3447 -0.8436
  500MOL0     C65882   6.882   7.707   8.870 -0.3094 -0.3713 -0.5323
  500MOL0     C65883   6.749   7.737   8.810  0.6431 -0.1135 -0.0612
  500MOL0     C65884   6.672   7.822   8.904  0.5407 -0.0166 -1.2671
  500MOL0     N65885   6.626   7.738   9.026 -0.4371  0.3418  0.3821
  500MOL0     C65886   6.546   7.627   9.024 -0.0676 -0.9639 -0.4083
  500MOL0     C65887   6.559   7.580   9.151 -0.2154 -0.1657 -0.7284
  500MOL0     C65888   6.508   7.448   9.196  0.0122  0.4312 -1.1624
  500MOL0     C65889   6.360   7.425   9.173  0.5325 -0.4308 -1.1093
  500MOL0     C65890   6.282   7.518   9.269 -0.3902  0.0418  0.7298
  500MOL0     C65891   6.134   7.494   9.231  0.0518 -0.0770 -0.9158
  500MOL0     O65892   6.088   7.358   9.240 -0.2693 -0.6443 -0.4046
  500MOL0     C65893   5.959   7.337   9.200  0.0647  0.2309 -0.4071
  500MOL0     C65894   5.882   7.427   9.124  0.7258 -0.2662  0.3706
  500MOL0     C65895   5.742   7.402   9.089 -0.5373  0.4571 -0.5188
  500MOL0     C65896   5.680   7.279   9.132 -0.1469 -0.8190 -0.4046
  500MOL0     C65897   5.544   7.248   9.109  0.1949 -0.0713 -0.1621
  500MOL0     O65898   5.487   7.136   9.167  0.4428 -0.2097 -0.5423
  500MOL0     C65899   5.362   7.099   9.130 -0.5933 -0.0386 -0.2444
  500MOL0     C65900   5.281   7.034   9.232  0.5274 -0.0107  0.6540
  500MOL0     C65901   5.153   6.994   9.213  0.4553 -0.0879 -0.1956
  500MOL0     C65902   5.090   7.017   9.088 -1.3349 -0.4216  0.9496
  500MOL0     O65903   4.963   6.988   9.054  0.4184  0.2670 -0.4496
  500MOL0     C65904   4.868   6.967   9.158  0.2568 -0.5547 -1.0741
  500MOL0     C65905   4.756   6.881   9.104  0.2528  0.5554  0.6389
  500MOL0     C65906   4.630   6.916   9.179  0.4223 -0.7186 -0.1628
  500MOL0     C65907   4.501   6.863   9.116  0.4658  0.2793  0.1047
  500MOL0     C65908   4.386   6.896   9.206 -0.2880 -0.4810 -0.4099
  500MOL0     C65909   4.250   6.849   9.158 -0.0180  0.2298 -0.1511
  500MOL0     C65910   4.145   6.891   9.260 -0.0054 -0.2737 -0.0152
  500MOL0     C65911   4.008   6.885   9.197 -0.1413 -0.2678 -0.3888
  500MOL0    Cl65912   3.879   6.947   9.307 -0.1424 -0.0659 -0.2347
  500MOL0     C65913   5.165   7.082   8.991  0.0224  0.2592 -0.1193
  500MOL0     C65914   5.303   7.117   9.000 -0.2250  0.8457 -0.3647
  500MOL0     O65915   5.481   7.334   9.047 -0.4168 -0.5241  0.0074
  500MOL0     C65916   5.759   7.192   9.214 -0.3932  0.2391  1.5881
  500MOL0     C65917   5.890   7.222   9.245  0.5083  0.7536 -0.2831
  500MOL0     N65918   6.651   7.656   9.219 -0.0053 -0.1332 -0.1064
  500MOL0     N65919   6.679   7.759   9.150 -0.8230  0.5851  0.2273
  500MOL0     C65920   7.537   7.429   8.394  0.0381  0.2095  0.6831
  500MOL0     C65921   7.670   7.420   8.359  0.2803  0.6000 -0.0819
  500MOL0     C65922   8.113   7.473   8.328 -0.3502  0.5967  0.2838
  500MOL0     C65923   8.184   7.549   8.226 -0.2847 -0.0594 -0.6103
  500MOL0     C65924   8.306   7.520   8.175  0.9554 -0.9832  0.0890
  500MOL0     C65925   8.375   7.408   8.224 -0.2558  0.2526  1.2742
  500MOL0     O65926   8.488   7.360   8.164 -0.1018  0.3229  0.3941
  500MOL0     C65927   8.548   7.426   8.047  0.2047  0.2061  0.0883
  500MOL0     C65928   8.502   7.364   7.917  0.3228  0.3059 -0.5705
  500MOL0     C65929   8.580   7.430   7.796  0.3630  0.2454 -1.0661
  500MOL0     C65930   8.693   7.346   7.737 -0.1054 -0.2065  0.5362
  500MOL0     C65931   8.801   7.323   7.835 -0.5772  0.4822  0.2519
  500MOL0     C65932   8.892   7.312   7.918  0.4129 -0.0044  0.4703
  500MOL0     C65933   8.311   7.329   8.314  0.5104 -0.3076 -0.5858
  500MOL0     C65934   8.185   7.364   8.376  0.0676  0.4186  0.6852
  500MOL0     H65935   7.806   7.469   8.677  1.2427  0.9803 -1.5398
  500MOL0     H65936   7.574   7.502   8.727  1.8645 -2.7565  1.0167
  500MOL0     H65937   7.261   7.358   8.443  0.1210  0.5176 -0.3802
  500MOL0     H65938   7.255   7.531   8.391  3.3411 -1.0475 -2.1549
  500MOL0     H65939   7.139   7.446   8.658  0.9519  0.3775 -0.0510
  500MOL0     H65940   7.048   7.468   8.515 -0.2171  0.9136  0.5752
  500MOL0     H65941   7.150   7.701   8.496 -0.2830  1.6537  0.7020
  500MOL0     H65942   7.219   7.678   8.656 -0.8027 -0.7643 -0.3958
  500MOL0     H65943   7.020   7.794   8.670 -0.0659 -1.0505  1.6192
  500MOL0     H65944   6.929   7.677   8.567 -0.7379  0.6465  0.6550
  500MOL0     H65945   7.054   7.580   8.817  1.3365  2.0413 -1.5222
  500MOL0     H65946   6.896   7.540   8.724  0.7339 -1.3369 -0.3549
  500MOL0     H65947   6.936   7.798   8.898  3.8071 -2.8182  0.3948
  500MOL0     H65948   6.876   7.666   8.972  1.8035 -0.1407 -0.2551
  500MOL0     H65949   6.758   7.785   8.712  2.2024  0.3504  0.2743
  500MOL0     H65950   6.699   7.640   8.800  0.5362 -0.2921  1.8077
  500MOL0     H65951   6.581   7.860   8.856  0.1441  1.0025  0.2165
  500MOL0     H65952   6.725   7.912   8.937  3.0039 -0.9875 -2.3746
  500MOL0     H65953   6.483   7.582   8.948  1.9522 -0.9933 -2.1340
  500MOL0     H65954   6.528   7.445   9.303 -0.7646 -1.3934 -1.0317
  500MOL0     H65955   6.575   7.369   9.161 -1.4642 -1.0200 -0.8376
  500MOL0     H65956   6.335   7.319   9.186  2.0025 -1.0715 -3.0532
  500MOL0     H65957   6.335   7.446   9.069  1.0501 -0.8574 -1.3187
  500MOL0     H65958   6.309   7.491   9.372  0.2820  2.0698  1.1271
  500MOL0     H65959   6.316   7.622   9.260  2.0642 -0.8083 -1.0232
  500MOL0     H65960   6.115   7.530   9.130  2.9393 -0.6734 -1.7452
  500MOL0     H65961   6.069   7.546   9.303  0.0094  0.6807 -1.4914
  500MOL0     H65962   5.932   7.512   9.078  0.0660 -1.0821 -1.9512
  500MOL0     H65963   5.690   7.482   9.038  3.8980  2.6781 -1.9972
  500MOL0     H65964   5.325   7.007   9.328 -1.7479 -2.0590  1.2288
  500MOL0     H65965   5.098   6.940   9.289 -1.6364 -1.0221 -2.2293
  500MOL0     H65966   4.832   7.069   9.177 -0.0133 -0.3105 -2.7167
  500MOL0     H65967   4.899   6.931   9.256 -0.2006 -0.1338 -0.7697
  500MOL0     H65968   4.780   6.775   9.100  2.3766  0.9702  1.2347
  500MOL0     H65969   4.745   6.898   8.997 -0.9096  1.0641  0.8231
  500MOL0     H65970   4.616   7.024   9.178 -3.7154 -1.0884 -1.2734
  500MOL0     H65971   4.630   6.880   9.282  0.2614  1.4249  0.6327
  500MOL0     H65972   4.475   6.910   9.020 -1.3565 -0.5723  0.1461
  500MOL0     H65973   4.513   6.757   9.093  1.4227  0.6560 -1.2873
  500MOL0     H65974   4.380   6.997   9.248 -0.4143 -1.0801  1.0636
  500MOL0     H65975   4.396   6.833   9.295 -1.5325  0.8544  0.7207
  500MOL0     H65976   4.253   6.741   9.145 -3.4105  0.0509 -0.1642
  500MOL0     H65977   4.221   6.883   9.058 -0.2659 -0.9245 -0.4837
  500MOL0     H65978   4.154   6.816   9.339 -0.0100  1.3084  1.5313
  500MOL0     H65979   4.166   6.989   9.302 -1.3919 -0.4881  1.2416
  500MOL0     H65980   3.983   6.781   9.173  0.2953 -0.6817  0.8448
  500MOL0     H65981   4.010   6.947   9.108  0.1416  2.6331  1.5179
  500MOL0     H65982   5.124   7.116   8.897  3.5936  0.5038 -1.7688
  500MOL0     H65983   5.351   7.170   8.918 -2.1077 -0.8335 -2.7079
  500MOL0     H65984   5.707   7.106   9.255  0.0876 -1.0002 -0.2463
  500MOL0     H65985   5.936   7.154   9.316  0.5768  2.2035  1.1109
  500MOL0     H65986   7.466   7.402   8.317 -0.3527 -2.2354  1.8175
  500MOL0     H65987   7.701   7.408   8.255  0.1168  0.8522 -0.1609
  500MOL0     H65988   8.126   7.637   8.200  0.4939  0.8771  0.6562
  500MOL0     H65989   8.351   7.587   8.102 -0.4309 -0.5749 -0.4179
  500MOL0     H65990   8.656   7.412   8.056  0.0972  0.1291  1.5583
  500MOL0     H65991   8.528   7.533   8.045 -1.9530 -0.0689  2.1400
  500MOL0     H65992   8.506   7.255   7.910  2.5013  0.3305 -0.1693
  500MOL0     H65993   8.393   7.378   7.914  0.0971 -0.1915  2.1394
  500MOL0     H65994   8.618   7.525   7.835 -1.3899  0.9287 -0.9337
  500MOL0     H65995   8.510   7.461   7.718  0.1342  1.4099 -0.4088
  500MOL0     H65996   8.647   7.260   7.687 -1.4798  1.3729 -1.0797
  500MOL0     H65997   8.741   7.408   7.661  0.6459 -0.8715  0.4613
  500MOL0     H65998   8.970   7.301   7.991  0.8419 -3.1295 -0.3302
  500MOL0     H65999   8.359   7.240   8.353 -1.3171 -0.4685  1.5570
  500MOL0     H66000   8.136   7.299   8.449  0.9917  0.2121  1.1374
  501MOL0     O66001   0.662   0.960   4.590  0.0426  0.1460  0.2487
  501MOL0     C66002   0.637   0.910   4.484  0.5162  0.2521 -0.0041
  501MOL0     O66003   0.506   0.885   4.440 -1.0206 -0.5743 -0.4313
  501MOL0     C66004   0.407   0.905   4.531 -0.6052 -0.2781 -0.1368
  501MOL0     C66005   0.308   0.807   4.553  0.3568  0.5993 -0.0167
  501MOL0     C66006   0.201   0.849   4.622 -0.2189 -0.6023 -0.3398
  501MOL0     C66007   0.183   0.971   4.694 -1.2867 -0.0812  0.0807
  501MOL0     O66008   0.081   1.007   4.775 -0.7633 -0.4074 -1.0154
  501MOL0     C66009  -0.020   0.914   4.793  0.4508  0.5757  0.2146
  501MOL0     C66010  -0.113   0.961   4.901 -1.6543 -0.1529  0.4278
  501MOL0     C66011  -0.208   0.869   4.956 -0.2680  0.7726  0.3764
  501MOL0     C66012  -0.290   0.929   5.058 -0.0642 -0.1633 -0.0129
  501MOL0     C66013  -0.367   0.825   5.143 -0.5716 -0.2971 -0.1648
  501MOL0     C66014  -0.469   0.880   5.245 -0.5286 -0.9415  0.2859
  501MOL0     C66015  -0.551   1.008   5.205  0.2548  0.3338 -1.2362
  501MOL0     C66016  -0.654   0.986   5.094 -0.3758  0.0812 -1.1348
  501MOL0     N66017  -0.785   0.926   5.143  0.0710  0.7125 -0.3502
  501MOL0     C66018  -0.890   0.998   5.207  0.1044 -0.1904 -0.3512
  501MOL0     C66019  -0.988   0.909   5.219 -0.7367  0.5058  0.2069
  501MOL0     C66020  -1.117   0.943   5.283  0.2180 -0.6221 -0.0716
  501MOL0     C66021  -1.186   0.814   5.340  0.2254  0.0106 -0.0173
  501MOL0     C66022  -1.322   0.833   5.394  0.8259 -0.2813 -0.7772
  501MOL0     C66023  -1.376   0.710   5.467 -0.5371 -0.2858 -0.2396
  501MOL0     O66024  -1.466   0.752   5.569 -0.0056 -0.0496  0.0051
  501MOL0     C66025  -1.555   0.658   5.624  0.4573 -0.5093 -0.0969
  501MOL0     C66026  -1.653   0.721   5.705 -0.7027  0.2228  0.2483
  501MOL0     C66027  -1.764   0.649   5.762 -0.5367  0.2705  0.5675
  501MOL0     C66028  -1.775   0.513   5.743 -0.7635  0.1604  0.1464
  501MOL0     C66029  -1.891   0.441   5.791  0.1478 -0.4229 -0.1687
  501MOL0     O66030  -1.978   0.515   5.864 -0.1452 -0.8956  0.2322
  501MOL0     C66031  -2.088   0.456   5.918 -0.0378 -0.1209 -0.8173
  501MOL0     C66032  -2.208   0.525   5.901 -0.8808 -0.8086 -0.3621
  501MOL0     C66033  -2.326   0.484   5.969  0.0720  0.1692 -1.6730
  501MOL0     C66034  -2.318   0.386   6.076  0.1379  0.1411  1.1378
  501MOL0     O66035  -2.413   0.363   6.166  0.7348 -0.7652  0.7228
  501MOL0     C66036  -2.534   0.443   6.174 -0.7564  0.1002  0.4289
  501MOL0     C66037  -2.627   0.399   6.277  0.6795 -0.2326 -0.9319
  501MOL0     C66038  -2.752   0.482   6.285  0.0312 -0.4313 -0.2344
  501MOL0     C66039  -2.835   0.436   6.405 -0.1967  0.2069  0.5611
  501MOL0     C66040  -2.806   0.497   6.543 -0.3247  0.7886 -0.4281
  501MOL0     C66041  -2.875   0.438   6.670 -0.3652  0.7663 -0.2549
  501MOL0     C66042  -3.026   0.419   6.656  0.1527 -0.2422  0.0503
  501MOL0     C66043  -3.097   0.420   6.799 -0.4155  0.7064  0.6729
  501MOL0    Cl66044  -3.278   0.398   6.776 -0.0962 -0.2823  0.3294
  501MOL0     C66045  -2.196   0.323   6.094  0.0500  0.8438 -0.3369
  501MOL0     C66046  -2.086   0.354   6.018 -0.7079  0.0970  0.4178
  501MOL0     O66047  -1.898   0.319   5.762 -0.7179 -0.1135  0.1632
  501MOL0     C66048  -1.676   0.448   5.656 -0.8396 -0.6963  0.0926
  501MOL0     C66049  -1.570   0.526   5.602 -0.0868  0.1375  0.6343
  501MOL0     N66050  -0.950   0.793   5.151  0.0583  0.9559 -0.1399
  501MOL0     N66051  -0.832   0.797   5.109  1.1353  0.0937  0.0892
  501MOL0     C66052   0.280   1.067   4.671 -0.1445 -0.1742 -0.2482
  501MOL0     C66053   0.387   1.037   4.583 -0.4896  0.2571  0.2243
  501MOL0     C66054   0.751   0.895   4.389  0.0108  0.4234 -0.0198
  501MOL0     C66055   0.882   0.916   4.433  0.1803  0.4705  0.2162
  501MOL0     C66056   0.983   0.925   4.336 -0.2877  0.4507 -0.9227
  501MOL0     C66057   0.954   0.915   4.197 -0.1618  0.1931 -0.2616
  501MOL0     O66058   1.043   0.932   4.099  0.2325 -0.6900  0.8640
  501MOL0     C66059   1.189   0.938   4.106 -0.7681 -0.0340  0.4756
  501MOL0     C66060   1.239   0.973   3.965  0.2579 -0.0687 -1.0373
  501MOL0     C66061   1.395   0.984   3.966 -0.0113 -0.2661  0.7889
  501MOL0     C66062   1.444   1.019   3.823 -0.1042 -0.3994  0.7060
  501MOL0     C66063   1.591   1.039   3.812  0.3993  0.5351  0.4202
  501MOL0     C66064   1.708   1.055   3.804 -0.3851 -0.0109  0.4705
  501MOL0     C66065   0.824   0.881   4.158  0.1794 -0.1699  0.1856
  501MOL0     C66066   0.727   0.870   4.256 -0.0458 -0.6412 -0.0218
  501MOL0     H66067   0.308   0.714   4.497 -2.2149  0.3490  0.2655
  501MOL0     H66068   0.116   0.781   4.626 -1.3093  0.7823  2.2354
  501MOL0     H66069   0.023   0.818   4.821  0.2298  1.1248  2.6618
  501MOL0     H66070  -0.071   0.891   4.699 -0.9564 -2.7907  1.6577
  501MOL0     H66071  -0.150   1.054   4.855  2.9187  0.8633 -1.7798
  501MOL0     H66072  -0.054   0.997   4.986 -1.8152  1.9080 -0.2627
  501MOL0     H66073  -0.155   0.778   4.985 -1.9308 -0.9326 -1.6029
  501MOL0     H66074  -0.282   0.837   4.882  0.0792  2.9378 -0.9957
  501MOL0     H66075  -0.231   0.992   5.125  1.1555  0.2770 -1.4536
  501MOL0     H66076  -0.361   1.001   5.018 -2.0436 -0.3569  2.8318
  501MOL0     H66077  -0.301   0.754   5.193  0.3717 -0.4119 -1.5033
  501MOL0     H66078  -0.428   0.769   5.071  3.0535 -0.9801 -2.9913
  501MOL0     H66079  -0.435   0.897   5.347  1.1914 -0.3900 -0.3518
  501MOL0     H66080  -0.543   0.804   5.273 -3.4453  1.6029  0.1062
  501MOL0     H66081  -0.602   1.046   5.294 -1.2511 -1.9106 -1.0610
  501MOL0     H66082  -0.468   1.075   5.181  0.8028  0.7113  1.3894
  501MOL0     H66083  -0.620   0.916   5.017 -2.4136 -1.4106 -0.7408
  501MOL0     H66084  -0.665   1.079   5.036  1.4253  0.0152 -1.6723
  501MOL0     H66085  -0.893   1.098   5.248 -1.2917 -0.3667  0.0211
  501MOL0     H66086  -1.182   0.988   5.208 -1.1518 -1.5263  0.5469
  501MOL0     H66087  -1.101   1.023   5.356  0.7122  0.1400 -0.9900
  501MOL0     H66088  -1.119   0.778   5.418  2.4206  1.3928 -1.1665
  501MOL0     H66089  -1.201   0.747   5.254 -0.0635  2.0218 -1.6054
  501MOL0     H66090  -1.305   0.916   5.465 -1.1821 -0.3709 -0.1060
  501MOL0     H66091  -1.392   0.866   5.316 -1.2511  0.8203  1.4009
  501MOL0     H66092  -1.288   0.656   5.503 -0.5418 -1.7929 -2.2911
  501MOL0     H66093  -1.426   0.643   5.397  2.8094 -0.6854 -2.4918
  501MOL0     H66094  -1.636   0.827   5.721  0.6372  0.3755 -1.8219
  501MOL0     H66095  -1.841   0.701   5.818 -1.7412 -0.7926 -0.0460
  501MOL0     H66096  -2.201   0.613   5.838  0.9397  0.0757  0.9801
  501MOL0     H66097  -2.419   0.536   5.950 -0.9656  0.5482  3.2209
  501MOL0     H66098  -2.586   0.434   6.078 -0.7411 -0.3942  0.4649
  501MOL0     H66099  -2.503   0.545   6.197 -1.8232 -0.1699  3.5762
  501MOL0     H66100  -2.574   0.415   6.372 -2.5836  5.4279  0.3753
  501MOL0     H66101  -2.641   0.292   6.261 -2.4727 -0.3323  1.5507
  501MOL0     H66102  -2.807   0.464   6.192 -0.9559  0.5415  0.1284
  501MOL0     H66103  -2.737   0.590   6.297  1.7850 -0.8892  2.3595
  501MOL0     H66104  -2.937   0.461   6.374 -0.2134 -1.6586 -1.0910
  501MOL0     H66105  -2.829   0.327   6.409  0.8553  0.2701  1.1015
  501MOL0     H66106  -2.833   0.602   6.547  0.9117  1.0918  0.7959
  501MOL0     H66107  -2.697   0.499   6.547 -0.3308  0.3691  3.5438
  501MOL0     H66108  -2.863   0.495   6.762 -4.7535  3.5660 -1.1440
  501MOL0     H66109  -2.820   0.344   6.680  0.1386  1.2110  1.3102
  501MOL0     H66110  -3.069   0.510   6.612 -2.7631 -1.1985  0.6677
  501MOL0     H66111  -3.045   0.343   6.580 -0.6967  1.0694 -1.0956
  501MOL0     H66112  -3.072   0.512   6.854  0.6509  0.9835 -0.2259
  501MOL0     H66113  -3.061   0.342   6.866 -3.4169  0.7660  2.4973
  501MOL0     H66114  -2.186   0.243   6.167  0.9167  0.9701 -0.3128
  501MOL0     H66115  -1.996   0.292   6.019 -1.1818 -0.5989  0.4958
  501MOL0     H66116  -1.684   0.341   5.639  0.0376 -0.6817 -0.4538
  501MOL0     H66117  -1.508   0.463   5.539  0.1665  0.3667  0.6492
  501MOL0     H66118   0.274   1.157   4.732 -1.6733 -2.1150  2.7379
  501MOL0     H66119   0.454   1.122   4.570 -0.5250  0.3630  0.6996
  501MOL0     H66120   0.909   0.919   4.538  5.3883 -1.0410 -0.8187
  501MOL0     H66121   1.086   0.941   4.365 -0.7224  2.0295 -0.0891
  501MOL0     H66122   1.216   0.835   4.130  0.3685  0.5542  1.8787
  501MOL0     H66123   1.231   1.003   4.183  1.8558 -1.8821  0.7230
  501MOL0     H66124   1.212   0.889   3.900 -1.4737 -1.5914  1.4944
  501MOL0     H66125   1.202   1.071   3.930 -1.0017  0.5397  1.7651
  501MOL0     H66126   1.434   0.886   3.996  0.2770 -1.0644 -1.8931
  501MOL0     H66127   1.435   1.060   4.034  0.9969 -0.3399  0.3004
  501MOL0     H66128   1.412   0.939   3.756  3.1156 -1.0382 -0.2572
  501MOL0     H66129   1.403   1.115   3.790  0.4884  1.1379  4.0182
  501MOL0     H66130   1.812   1.080   3.791 -0.2093 -0.7599  0.4210
  501MOL0     H66131   0.808   0.869   4.052 -0.7443  0.3088  0.2576
  501MOL0     H66132   0.623   0.878   4.223 -0.7757  0.6853  2.3570
  502MOL0     O66133   8.586   5.883   2.704 -0.1081  0.5544  0.7484
  502MOL0     C66134   8.547   5.853   2.584 -0.5499 -0.2452 -1.1286
  502MOL0     O66135   8.420   5.817   2.554  0.3729 -0.0564  0.1990
  502MOL0     C66136   8.321   5.808   2.648 -1.0368 -0.5623 -0.1450
  502MOL0     C66137   8.202   5.838   2.600 -0.3369 -0.8746 -0.4465
  502MOL0     C66138   8.090   5.842   2.687 -0.1356  0.2287 -0.6592
  502MOL0     C66139   8.106   5.800   2.823 -0.1437 -0.0330 -0.7140
  502MOL0     O66140   8.007   5.780   2.922 -0.3117  0.4718  0.6996
  502MOL0     C66141   7.869   5.811   2.895 -0.5571  0.2255  0.6161
  502MOL0     C66142   7.840   5.954   2.943  0.7200 -0.4199 -0.4930
  502MOL0     C66143   7.684   5.959   2.959  0.0271  0.0682  0.3857
  502MOL0     C66144   7.604   5.946   2.830 -0.0556 -0.5491 -0.3901
  502MOL0     C66145   7.462   5.932   2.872 -0.5334 -0.1843  0.3205
  502MOL0     C66146   7.376   5.909   2.752 -0.1401 -0.3233  0.3949
  502MOL0     C66147   7.227   5.947   2.770 -0.2238  0.4504 -0.3102
  502MOL0     C66148   7.138   5.907   2.650  0.2979 -0.2578 -0.3983
  502MOL0     N66149   6.999   5.916   2.677  0.1270  0.1240  0.2266
  502MOL0     C66150   6.947   6.020   2.758 -0.0607 -0.1273  0.3037
  502MOL0     C66151   6.813   6.019   2.732 -0.3724 -0.3096  0.6582
  502MOL0     C66152   6.704   6.100   2.798 -0.6118  0.3376  0.3587
  502MOL0     C66153   6.578   6.097   2.719  0.4273 -0.7668  0.8882
  502MOL0     C66154   6.458   6.142   2.801 -1.0659  0.0117  0.0596
  502MOL0     C66155   6.328   6.131   2.720 -0.2177 -0.1568  0.2508
  502MOL0     O66156   6.206   6.155   2.797 -0.1006 -0.1224 -0.5962
  502MOL0     C66157   6.087   6.134   2.738  0.6021  0.1367  0.1247
  502MOL0     C66158   5.972   6.144   2.819  0.6566  0.1410  0.4975
  502MOL0     C66159   5.844   6.135   2.760  0.4774  0.8259  1.1130
  502MOL0     C66160   5.827   6.106   2.622 -0.8231 -0.1062  0.1368
  502MOL0     C66161   5.698   6.088   2.557 -0.3526  0.3979 -0.5968
  502MOL0     O66162   5.585   6.078   2.645  0.3025 -0.2755  0.6610
  502MOL0     C66163   5.459   6.075   2.592  0.9276  0.2437 -0.0582
  502MOL0     C66164   5.379   6.180   2.624 -0.3634  0.8616 -0.3799
  502MOL0     C66165   5.238   6.177   2.575  0.0076 -0.9827  0.6475
  502MOL0     C66166   5.194   6.084   2.488  0.4671  0.5119 -0.8286
  502MOL0     O66167   5.071   6.099   2.428  0.0320 -0.5082  0.5139
  502MOL0     C66168   5.039   6.004   2.325 -0.2075 -0.5667  0.3530
  502MOL0     C66169   4.900   6.036   2.260  0.8429  0.1618  0.1331
  502MOL0     C66170   4.829   5.918   2.177 -0.4129  0.0442 -0.3464
  502MOL0     C66171   4.706   5.967   2.107  0.2838  0.1994  0.2655
  502MOL0     C66172   4.649   5.857   2.011 -0.5152  0.2076 -1.5728
  502MOL0     C66173   4.551   5.917   1.919  0.1266 -0.8851  0.6822
  502MOL0     C66174   4.492   5.821   1.815 -0.3618  0.0612 -0.0096
  502MOL0     C66175   4.372   5.881   1.728  0.5976 -1.2652  0.8318
  502MOL0    Cl66176   4.392   6.055   1.704  0.2493 -0.0135  0.1516
  502MOL0     C66177   5.283   5.971   2.472 -0.4505  0.0010 -0.2810
  502MOL0     C66178   5.413   5.970   2.514 -0.2930 -0.5061 -0.5135
  502MOL0     O66179   5.689   6.083   2.435  0.0734 -0.4588  0.2679
  502MOL0     C66180   5.942   6.085   2.537  0.0006  0.6654  0.0468
  502MOL0     C66181   6.068   6.108   2.602  0.2226  0.4307 -0.3796
  502MOL0     N66182   6.786   5.914   2.641  0.2498  0.6295 -1.1311
  502MOL0     N66183   6.899   5.857   2.604  0.0662  0.2405 -0.5403
  502MOL0     C66184   8.232   5.752   2.857  0.6363  1.4744 -0.5008
  502MOL0     C66185   8.344   5.758   2.773  0.5546  0.3542  0.2086
  502MOL0     C66186   8.645   5.846   2.477  0.2415  1.2828 -0.8174
  502MOL0     C66187   8.610   5.857   2.347 -0.0079  0.2404 -0.5729
  502MOL0     C66188   8.697   5.829   2.242 -0.5712  0.2202  0.0333
  502MOL0     C66189   8.833   5.795   2.271 -0.3605  0.3382  0.0560
  502MOL0     O66190   8.902   5.754   2.161 -0.7987  0.1255 -0.4462
  502MOL0     C66191   9.039   5.709   2.189  0.1653  0.0186  1.5000
  502MOL0     C66192   9.128   5.677   2.058 -0.0479 -0.4124  0.3495
  502MOL0     C66193   9.262   5.630   2.116  0.2447 -0.1311 -0.5670
  502MOL0     C66194   9.353   5.563   2.011  0.0003  0.4592  0.6370
  502MOL0     C66195   9.493   5.574   2.053  0.2058  0.0127 -0.1071
  502MOL0     C66196   9.603   5.576   2.111 -0.3531  0.3485 -0.2547
  502MOL0     C66197   8.871   5.789   2.404  0.4264 -0.5453 -0.3213
  502MOL0     C66198   8.780   5.811   2.507 -0.2458  0.2406  0.0547
  502MOL0     H66199   8.196   5.863   2.495  2.9875 -2.3201 -1.1427
  502MOL0     H66200   7.987   5.863   2.663 -0.9624 -1.0320  1.4706
  502MOL0     H66201   7.813   5.734   2.949 -1.0289 -0.5199 -0.8880
  502MOL0     H66202   7.854   5.797   2.788  0.3140 -3.0734  0.8192
  502MOL0     H66203   7.874   6.029   2.872 -0.4093  1.4946  0.8849
  502MOL0     H66204   7.886   5.973   3.040  1.9281  0.4865 -1.2179
  502MOL0     H66205   7.653   6.058   2.995  1.3560  0.9590 -0.8620
  502MOL0     H66206   7.655   5.881   3.031  1.1290  0.5699  1.4128
  502MOL0     H66207   7.611   6.034   2.766 -3.0016  0.6291  0.6933
  502MOL0     H66208   7.631   5.853   2.779 -1.3070 -2.5152  2.2722
  502MOL0     H66209   7.430   6.023   2.923  1.1084  0.2112  0.6911
  502MOL0     H66210   7.459   5.848   2.942  0.6290  1.5683  2.5974
  502MOL0     H66211   7.384   5.805   2.720  2.0797 -0.5309  1.5034
  502MOL0     H66212   7.411   5.962   2.663  0.1206  2.1053  1.8664
  502MOL0     H66213   7.197   5.888   2.857 -2.2039 -0.0511 -1.2748
  502MOL0     H66214   7.213   6.053   2.789  0.6171  0.6953 -0.9699
  502MOL0     H66215   7.162   5.804   2.620 -1.0326 -0.4347 -0.9419
  502MOL0     H66216   7.166   5.972   2.567  1.0285  0.3150  0.2790
  502MOL0     H66217   6.995   6.085   2.830  0.6777 -1.2557  0.8508
  502MOL0     H66218   6.741   6.201   2.821  0.3358  0.3868 -1.2473
  502MOL0     H66219   6.691   6.048   2.893 -0.7040 -0.7375 -0.2356
  502MOL0     H66220   6.557   5.995   2.685 -3.8785 -0.0865  1.0180
  502MOL0     H66221   6.597   6.165   2.635 -0.6383  0.0950  1.3222
  502MOL0     H66222   6.445   6.075   2.886  2.0980  0.6726  1.2106
  502MOL0     H66223   6.468   6.246   2.836 -2.7419  0.0792  0.3804
  502MOL0     H66224   6.319   6.030   2.679 -2.1494 -1.4522  3.5070
  502MOL0     H66225   6.330   6.206   2.640  3.2151 -1.7054 -1.3014
  502MOL0     H66226   5.969   6.154   2.927 -1.0566 -1.9963  0.7087
  502MOL0     H66227   5.764   6.130   2.834  1.1371  2.4711  1.9858
  502MOL0     H66228   5.423   6.272   2.663  0.3951  2.2497 -4.0599
  502MOL0     H66229   5.174   6.260   2.603  1.1098  1.1373 -2.5915
  502MOL0     H66230   5.032   5.909   2.379  0.8199 -0.1015  1.3525
  502MOL0     H66231   5.111   6.007   2.242 -2.0077 -0.5212 -1.2648
  502MOL0     H66232   4.922   6.119   2.192 -2.1238  2.3913  1.6657
  502MOL0     H66233   4.826   6.073   2.331 -0.5659 -0.3337 -1.0109
  502MOL0     H66234   4.810   5.825   2.231 -2.2127 -1.4057 -3.2275
  502MOL0     H66235   4.899   5.882   2.101  1.3061  1.1718  0.6330
  502MOL0     H66236   4.628   5.996   2.178  0.4091  3.4112 -0.7737
  502MOL0     H66237   4.739   6.053   2.048  0.8359  0.1942  0.5603
  502MOL0     H66238   4.594   5.775   2.060 -0.6736  0.5529 -1.1699
  502MOL0     H66239   4.728   5.798   1.963 -1.5351 -2.2280 -0.4535
  502MOL0     H66240   4.600   6.003   1.872  2.1043 -1.9820  0.6334
  502MOL0     H66241   4.473   5.961   1.982 -1.7770  2.5756 -3.5851
  502MOL0     H66242   4.567   5.785   1.745  0.0370 -1.6060  1.2045
  502MOL0     H66243   4.448   5.731   1.859 -1.7149  0.2800 -0.8814
  502MOL0     H66244   4.273   5.860   1.769  0.1187  0.5484  0.6917
  502MOL0     H66245   4.371   5.835   1.629 -1.4043 -0.9885  0.6953
  502MOL0     H66246   5.256   5.879   2.421  1.1118 -1.6180  1.6280
  502MOL0     H66247   5.477   5.890   2.476  0.3477  0.3618 -1.2902
  502MOL0     H66248   5.940   6.073   2.429  2.6506 -1.4547  0.1415
  502MOL0     H66249   6.152   6.108   2.533  0.3828 -2.1583 -0.2903
  502MOL0     H66250   8.244   5.712   2.957 -0.4619  0.9526 -0.5665
  502MOL0     H66251   8.442   5.718   2.794  0.3009 -1.8847 -2.2629
  502MOL0     H66252   8.509   5.881   2.313 -0.2976 -1.0217 -0.6468
  502MOL0     H66253   8.673   5.837   2.136  1.3876 -0.5748 -0.5317
  502MOL0     H66254   9.037   5.616   2.246  3.5648 -0.2192  1.4551
  502MOL0     H66255   9.090   5.787   2.246 -3.4167  1.4923  2.9841
  502MOL0     H66256   9.073   5.600   2.003  1.6010  0.0015 -2.0064
  502MOL0     H66257   9.135   5.769   2.000  1.5632 -0.7736 -0.0807
  502MOL0     H66258   9.236   5.558   2.195 -0.7144  0.3653 -0.4191
  502MOL0     H66259   9.315   5.715   2.160 -1.3393 -1.6096  5.1497
  502MOL0     H66260   9.325   5.462   1.981 -1.2043  1.8902 -3.9020
  502MOL0     H66261   9.348   5.626   1.922 -3.2191 -0.4375  0.0760
  502MOL0     H66262   9.697   5.578   2.162 -0.9171 -1.1613  0.9190
  502MOL0     H66263   8.974   5.774   2.434  0.0394  0.5272  1.7310
  502MOL0     H66264   8.816   5.797   2.608 -0.0460  0.4084  0.0067
  503MOL0     O66265   0.899   6.862   2.229 -0.6562  0.7208 -0.4133
  503MOL0     C66266   0.950   6.967   2.235  0.3188  0.8079  0.1445
  503MOL0     O66267   0.885   7.086   2.240  0.2527  0.2650 -0.0596
  503MOL0     C66268   0.745   7.102   2.221 -0.2272  0.4681  0.2834
  503MOL0     C66269   0.696   7.234   2.227 -0.4474  0.4994  0.8003
  503MOL0     C66270   0.560   7.257   2.213 -0.8477  0.0520  0.2874
  503MOL0     C66271   0.472   7.155   2.172 -0.0429  0.1791  0.3671
  503MOL0     O66272   0.338   7.174   2.151 -0.7781  0.3950  0.3941
  503MOL0     C66273   0.282   7.301   2.125 -0.3398 -0.4309  0.9059
  503MOL0     C66274   0.142   7.277   2.074  0.8477  0.8569 -0.5707
  503MOL0     C66275   0.055   7.221   2.187 -0.0430 -0.1120  0.1777
  503MOL0     C66276  -0.096   7.203   2.140 -0.9476 -0.7627  0.4220
  503MOL0     C66277  -0.191   7.211   2.253 -0.1527 -0.6776 -1.4221
  503MOL0     C66278  -0.336   7.221   2.217 -0.6455 -0.3005 -0.1468
  503MOL0     C66279  -0.421   7.239   2.339 -0.3801 -0.6562 -0.2922
  503MOL0     C66280  -0.542   7.317   2.320  0.5647 -0.4148 -0.1820
  503MOL0     N66281  -0.624   7.327   2.440  0.7007 -0.3791 -0.0417
  503MOL0     C66282  -0.688   7.437   2.494 -0.0961  0.1298 -0.0552
  503MOL0     C66283  -0.774   7.383   2.586  0.0290 -0.6412  0.4239
  503MOL0     C66284  -0.867   7.444   2.677  1.0146 -0.6527 -0.0835
  503MOL0     C66285  -1.018   7.400   2.653  0.2109 -0.0611  0.0506
  503MOL0     C66286  -1.100   7.459   2.765  0.8870 -0.8890 -0.7001
  503MOL0     C66287  -1.257   7.440   2.747  0.0315  0.8480 -0.4380
  503MOL0     O66288  -1.317   7.522   2.647 -0.3757  0.0339 -0.0736
  503MOL0     C66289  -1.450   7.540   2.648 -0.0584 -0.4464  0.0032
  503MOL0     C66290  -1.523   7.642   2.712 -0.1393  0.6850  0.1835
  503MOL0     C66291  -1.663   7.641   2.731  0.0591  0.1731 -0.6716
  503MOL0     C66292  -1.741   7.533   2.678  0.0189  0.3658 -0.2818
  503MOL0     C66293  -1.887   7.537   2.707 -0.3532 -0.0563  0.7624
  503MOL0     O66294  -1.932   7.639   2.794 -0.8647  0.5644  0.3939
  503MOL0     C66295  -2.068   7.645   2.804  0.3284  0.0070  0.1955
  503MOL0     C66296  -2.159   7.669   2.699  0.0267 -0.0416 -0.4824
  503MOL0     C66297  -2.293   7.673   2.726 -0.1962  0.3677  0.4767
  503MOL0     C66298  -2.348   7.658   2.852 -0.1846  0.1104 -0.4732
  503MOL0     O66299  -2.485   7.663   2.865  0.7093 -0.4735 -0.4723
  503MOL0     C66300  -2.534   7.675   2.995 -0.0071  0.5057 -0.0504
  503MOL0     C66301  -2.682   7.708   3.001  1.4287  0.0469 -0.1905
  503MOL0     C66302  -2.766   7.641   2.880 -0.6537 -0.5740 -0.3020
  503MOL0     C66303  -2.899   7.710   2.885  0.8017 -0.0490  0.3227
  503MOL0     C66304  -3.008   7.627   2.822 -0.0891  0.4371  0.7675
  503MOL0     C66305  -3.147   7.678   2.853 -0.6743  0.4125  0.5510
  503MOL0     C66306  -3.246   7.599   2.767  0.1372  0.2347  0.2350
  503MOL0     C66307  -3.387   7.596   2.821 -0.0593 -0.0884  0.0127
  503MOL0    Cl66308  -3.467   7.754   2.784  0.0622 -0.4351 -0.2160
  503MOL0     C66309  -2.257   7.637   2.959 -0.0492  0.8005  0.5865
  503MOL0     C66310  -2.121   7.626   2.932  0.9252 -0.0279 -0.5497
  503MOL0     O66311  -1.957   7.437   2.677 -0.0774 -0.1198 -0.0767
  503MOL0     C66312  -1.678   7.432   2.608  0.5705  0.5366 -0.6350
  503MOL0     C66313  -1.534   7.432   2.594 -0.0191  0.0686  0.0888
  503MOL0     N66314  -0.760   7.242   2.587 -0.9829  0.4395  0.1551
  503MOL0     N66315  -0.674   7.212   2.498 -0.5059 -0.3890 -0.0538
  503MOL0     C66316   0.524   7.026   2.152 -0.3701  0.3653 -1.4312
  503MOL0     C66317   0.655   7.001   2.189  0.5345  0.1971 -0.9431
  503MOL0     C66318   1.096   6.956   2.236 -0.6904 -0.3879  0.3866
  503MOL0     C66319   1.186   7.065   2.194  0.4655  0.3362 -0.0386
  503MOL0     C66320   1.322   7.050   2.183 -0.4412  0.0709 -0.0384
  503MOL0     C66321   1.382   6.923   2.218 -0.4425 -0.3799  0.4243
  503MOL0     O66322   1.512   6.880   2.207 -0.3901 -0.0011  0.1200
  503MOL0     C66323   1.607   6.989   2.178 -0.5051 -0.0654  0.1673
  503MOL0     C66324   1.747   6.929   2.155  0.0500  0.8133 -0.0855
  503MOL0     C66325   1.854   7.038   2.144 -0.8279  0.2178  1.0118
  503MOL0     C66326   1.996   6.983   2.161  1.0357 -0.5081  0.1197
  503MOL0     C66327   2.096   7.088   2.143  1.0075 -0.2203  0.3792
  503MOL0     C66328   2.166   7.180   2.113  0.8472  0.1172 -0.2717
  503MOL0     C66329   1.295   6.818   2.251 -0.0207  0.0596  0.2165
  503MOL0     C66330   1.155   6.831   2.265 -0.4929 -0.8791 -0.8872
  503MOL0     H66331   0.765   7.317   2.239  1.3260 -0.0433 -3.6279
  503MOL0     H66332   0.516   7.356   2.217 -1.9894 -0.3568 -1.2500
  503MOL0     H66333   0.328   7.355   2.042 -3.0589 -1.7560 -1.6339
  503MOL0     H66334   0.280   7.356   2.220 -0.1376 -1.0098  1.2548
  503MOL0     H66335   0.136   7.201   1.996  1.1246  0.3405 -0.0954
  503MOL0     H66336   0.104   7.375   2.044 -0.2277  0.4613 -0.5551
  503MOL0     H66337   0.062   7.293   2.269 -1.6126  2.0208 -1.4350
  503MOL0     H66338   0.091   7.120   2.205 -0.9701 -0.4231  0.3693
  503MOL0     H66339  -0.121   7.273   2.061  0.0750  0.3181  1.0275
  503MOL0     H66340  -0.106   7.100   2.103  2.2782 -2.0427  2.6084
  503MOL0     H66341  -0.173   7.293   2.324 -2.1860 -1.7948  0.5102
  503MOL0     H66342  -0.173   7.120   2.310 -2.2425 -0.8486 -0.9671
  503MOL0     H66343  -0.369   7.129   2.169 -0.0078 -0.5566 -0.1107
  503MOL0     H66344  -0.337   7.308   2.151 -0.8371 -0.0526  0.1788
  503MOL0     H66345  -0.441   7.139   2.380  0.8527  0.7154  4.2136
  503MOL0     H66346  -0.362   7.289   2.416 -1.5862  0.6698 -0.2060
  503MOL0     H66347  -0.612   7.278   2.245 -0.4394 -1.1714  1.0966
  503MOL0     H66348  -0.529   7.423   2.296 -2.3579  0.0298 -0.0962
  503MOL0     H66349  -0.698   7.542   2.466 -0.9075  0.2448  0.6195
  503MOL0     H66350  -0.873   7.553   2.680 -3.2599 -0.7155  3.5635
  503MOL0     H66351  -0.829   7.418   2.776  2.4272 -1.4879 -0.8015
  503MOL0     H66352  -1.038   7.293   2.653 -2.1196  0.3147  0.9387
  503MOL0     H66353  -1.052   7.438   2.556 -1.3469  2.3797  1.4391
  503MOL0     H66354  -1.069   7.403   2.854  1.6171  2.1645  1.0916
  503MOL0     H66355  -1.074   7.564   2.783  3.9114 -1.6795  0.2821
  503MOL0     H66356  -1.313   7.461   2.839 -2.0101  1.1101 -1.6768
  503MOL0     H66357  -1.275   7.338   2.711  0.2964  1.7209 -3.3433
  503MOL0     H66358  -1.453   7.710   2.760  2.9062 -0.9363 -1.6800
  503MOL0     H66359  -1.702   7.736   2.768 -0.9283  0.5268 -2.5212
  503MOL0     H66360  -2.140   7.683   2.593  1.8563  3.1167  0.1210
  503MOL0     H66361  -2.354   7.693   2.638  1.2884 -2.3635 -1.2997
  503MOL0     H66362  -2.478   7.753   3.048  2.0504  1.0080 -2.7248
  503MOL0     H66363  -2.500   7.582   3.041  1.6084 -0.2739 -2.6220
  503MOL0     H66364  -2.696   7.816   3.008  1.3754 -0.0396  1.2733
  503MOL0     H66365  -2.724   7.672   3.096  0.8075  1.0637 -0.0743
  503MOL0     H66366  -2.763   7.533   2.892  0.8149 -0.3702  1.5120
  503MOL0     H66367  -2.726   7.676   2.784 -3.6549  1.2283 -1.0453
  503MOL0     H66368  -2.932   7.718   2.989 -1.6302 -2.1488 -0.1730
  503MOL0     H66369  -2.888   7.809   2.841 -0.5602  0.6513  1.4798
  503MOL0     H66370  -2.995   7.527   2.865  2.0922  0.0942 -0.5213
  503MOL0     H66371  -2.981   7.628   2.716  2.1820  0.4016  1.2956
  503MOL0     H66372  -3.150   7.784   2.825 -1.7215  0.1804 -0.2508
  503MOL0     H66373  -3.170   7.672   2.959 -1.2172  0.2832  0.4258
  503MOL0     H66374  -3.248   7.625   2.661  0.1072 -3.8590 -0.9601
  503MOL0     H66375  -3.206   7.497   2.758 -2.8827 -1.0066 -0.1631
  503MOL0     H66376  -3.384   7.573   2.928  0.4420  1.2224  0.3052
  503MOL0     H66377  -3.451   7.520   2.775  0.9184 -1.8774  1.4653
  503MOL0     H66378  -2.290   7.627   3.062 -2.5197  0.3675 -0.2033
  503MOL0     H66379  -2.050   7.600   3.011  3.2725 -1.0518 -2.8567
  503MOL0     H66380  -1.742   7.358   2.561  2.9310 -0.1480 -3.0383
  503MOL0     H66381  -1.475   7.360   2.538 -0.9459 -1.1409  0.6188
  503MOL0     H66382   0.445   6.952   2.143 -0.2023  0.2947 -2.4565
  503MOL0     H66383   0.688   6.898   2.203  0.7996  0.3331 -0.5563
  503MOL0     H66384   1.142   7.158   2.161  3.4834  1.4861 -1.2172
  503MOL0     H66385   1.386   7.127   2.142  0.3017  0.1133  1.1639
  503MOL0     H66386   1.611   7.058   2.263  0.1356 -0.4517  0.4601
  503MOL0     H66387   1.585   7.041   2.084 -1.7209 -0.8946 -0.0230
  503MOL0     H66388   1.767   6.873   2.247 -1.2230 -1.2026 -0.9822
  503MOL0     H66389   1.755   6.862   2.069 -0.4389 -0.1363  0.5998
  503MOL0     H66390   1.834   7.111   2.223 -0.1295 -1.1870  2.5364
  503MOL0     H66391   1.838   7.094   2.051 -4.0517  0.7539  1.7632
  503MOL0     H66392   2.010   6.941   2.261  1.8082 -0.6350 -0.0340
  503MOL0     H66393   2.007   6.899   2.091 -1.6053 -1.2801  0.5023
  503MOL0     H66394   2.239   7.258   2.105  0.0488  0.8157 -0.7578
  503MOL0     H66395   1.346   6.724   2.266  2.9301  1.0238 -2.6403
  503MOL0     H66396   1.107   6.742   2.305 -1.0992 -0.5253 -0.8118
  504MOL0     O66397   7.692   7.572   1.910  0.0467  0.6842 -0.3991
  504MOL0     C66398   7.702   7.526   1.796  0.4134  0.0508  0.1654
  504MOL0     O66399   7.599   7.511   1.700  0.4577 -0.5916 -0.1083
  504MOL0     C66400   7.471   7.554   1.736  0.5033 -0.7204  0.7794
  504MOL0     C66401   7.392   7.475   1.815 -0.2002 -0.1208  0.6362
  504MOL0     C66402   7.265   7.522   1.860 -0.4170  0.0108  0.2246
  504MOL0     C66403   7.219   7.644   1.808  0.0916 -0.9145  0.7837
  504MOL0     O66404   7.096   7.701   1.843  0.4320 -0.6157 -0.1393
  504MOL0     C66405   7.010   7.642   1.942  0.9365  0.2846  0.0839
  504MOL0     C66406   6.869   7.694   1.934  0.7547 -0.4533  0.1753
  504MOL0     C66407   6.875   7.845   1.968  0.1229  0.4891 -0.0622
  504MOL0     C66408   6.744   7.914   1.985 -0.7572 -0.5553 -0.3496
  504MOL0     C66409   6.756   8.063   1.969  0.3237 -0.3313  0.0689
  504MOL0     C66410   6.624   8.140   1.987  0.3078  0.1643  0.5242
  504MOL0     C66411   6.533   8.100   2.102  0.1539  0.6119 -0.4161
  504MOL0     C66412   6.439   8.198   2.172 -0.3889  0.0765 -1.2074
  504MOL0     N66413   6.372   8.286   2.085  0.0012 -0.4862  0.5932
  504MOL0     C66414   6.270   8.255   2.008 -0.5213 -0.2011 -0.3718
  504MOL0     C66415   6.220   8.370   1.965  0.0720  0.3297  0.0429
  504MOL0     C66416   6.083   8.386   1.899  0.6135 -0.0225  0.1393
  504MOL0     C66417   6.080   8.426   1.752 -0.1811 -0.5662 -0.3686
  504MOL0     C66418   6.105   8.577   1.724  0.3858 -0.8172 -0.0206
  504MOL0     C66419   5.978   8.657   1.747  0.0567  0.3112  0.6340
  504MOL0     O66420   5.900   8.637   1.629 -0.0181  0.6279 -0.6412
  504MOL0     C66421   5.770   8.702   1.627  0.3339  0.5179 -0.1136
  504MOL0     C66422   5.711   8.794   1.721 -0.1281 -0.1368  0.2937
  504MOL0     C66423   5.580   8.838   1.706  0.0836  0.3426 -0.0909
  504MOL0     C66424   5.503   8.807   1.594  0.3978 -0.0594 -0.0216
  504MOL0     C66425   5.369   8.864   1.576  0.2522  0.4638  0.0862
  504MOL0     O66426   5.294   8.819   1.474 -0.1142 -0.3540 -0.3681
  504MOL0     C66427   5.170   8.870   1.461 -1.2492  0.1211 -0.1799
  504MOL0     C66428   5.072   8.847   1.554  0.7002  0.6080  0.4231
  504MOL0     C66429   4.944   8.907   1.543  0.4523  0.9298  0.5190
  504MOL0     C66430   4.901   8.974   1.424 -0.2293 -0.4631 -0.1351
  504MOL0     O66431   4.770   9.020   1.418 -0.4392 -0.2620  0.7060
  504MOL0     C66432   4.715   9.031   1.284 -1.0538  0.3986 -0.3530
  504MOL0     C66433   4.565   9.040   1.281  0.4147  0.4538 -0.1348
  504MOL0     C66434   4.508   9.017   1.143 -0.3806 -0.3530  0.0794
  504MOL0     C66435   4.363   9.063   1.128  0.3536  0.6728  0.9027
  504MOL0     C66436   4.315   9.086   0.984  0.0535  0.4732 -0.2996
  504MOL0     C66437   4.166   9.102   0.998 -0.0609 -0.3260 -0.2088
  504MOL0     C66438   4.102   9.143   0.864  1.2737 -0.2619  0.4603
  504MOL0     C66439   3.955   9.097   0.856  0.2709  0.4927  0.2612
  504MOL0    Cl66440   3.885   9.127   0.693  0.2592 -0.1341  0.3701
  504MOL0     C66441   5.007   8.987   1.329  0.8708  0.2363  0.5828
  504MOL0     C66442   5.137   8.942   1.343  0.1332 -0.1619  0.0115
  504MOL0     O66443   5.342   8.956   1.650  0.1353 -0.1309 -0.1270
  504MOL0     C66444   5.564   8.718   1.495  0.4644  0.6388 -0.8672
  504MOL0     C66445   5.691   8.659   1.512 -0.5331 -0.1868  0.2664
  504MOL0     N66446   6.297   8.475   2.010  0.0570  0.1038 -0.2944
  504MOL0     N66447   6.380   8.423   2.096 -0.0591 -0.1128  0.4921
  504MOL0     C66448   7.294   7.711   1.710  0.0565  0.0830  0.2814
  504MOL0     C66449   7.422   7.671   1.685  1.1076 -0.1428 -0.0974
  504MOL0     C66450   7.837   7.473   1.773 -0.0303 -1.1585 -0.2812
  504MOL0     C66451   7.945   7.542   1.834 -0.6236  0.0731  0.0089
  504MOL0     C66452   8.072   7.495   1.816 -0.2361  0.4661 -0.5558
  504MOL0     C66453   8.090   7.403   1.714 -1.1408 -0.2529  0.2149
  504MOL0     O66454   8.217   7.367   1.669 -0.1671 -0.0524 -0.1992
  504MOL0     C66455   8.331   7.397   1.752 -0.0423 -0.3748  0.2236
  504MOL0     C66456   8.456   7.303   1.717  0.1759  0.3507  0.3400
  504MOL0     C66457   8.465   7.264   1.562  0.3339  0.3722 -0.1002
  504MOL0     C66458   8.555   7.133   1.536  0.5476 -0.3416 -0.7245
  504MOL0     C66459   8.504   7.013   1.603 -0.8405  0.2579 -0.7489
  504MOL0     C66460   8.451   6.912   1.652  0.4525 -0.5128  0.4164
  504MOL0     C66461   7.990   7.338   1.653  0.2178 -0.1218 -0.7303
  504MOL0     C66462   7.859   7.376   1.677  0.1381  0.2117 -0.3368
  504MOL0     H66463   7.435   7.384   1.856  0.4326  0.0070  0.2718
  504MOL0     H66464   7.212   7.473   1.941 -1.6117 -0.6863 -0.9417
  504MOL0     H66465   7.057   7.660   2.039  1.9799 -0.7483 -0.2006
  504MOL0     H66466   7.002   7.533   1.935  1.6446  0.1249  1.4697
  504MOL0     H66467   6.806   7.646   2.009  0.3723  0.9501  0.7976
  504MOL0     H66468   6.823   7.675   1.836  0.4760 -0.8591  0.3818
  504MOL0     H66469   6.921   7.893   1.881 -1.1152  0.2579 -0.8660
  504MOL0     H66470   6.938   7.859   2.057  0.5869  0.1129 -0.3255
  504MOL0     H66471   6.668   7.874   1.918 -1.6991  0.8945 -0.1831
  504MOL0     H66472   6.705   7.879   2.081 -2.7289 -1.7325 -1.5166
  504MOL0     H66473   6.802   8.092   1.874  2.1753  0.7987  1.2399
  504MOL0     H66474   6.835   8.103   2.035  0.7195 -0.6999 -0.1730
  504MOL0     H66475   6.578   8.130   1.888  1.5438  0.4459 -0.0998
  504MOL0     H66476   6.643   8.247   2.000 -0.1347  0.3783 -0.5094
  504MOL0     H66477   6.478   8.013   2.067 -0.5635  1.3001 -1.0271
  504MOL0     H66478   6.595   8.072   2.188 -2.9867  0.3223  1.9438
  504MOL0     H66479   6.498   8.256   2.243  0.3778 -0.9309 -0.9920
  504MOL0     H66480   6.365   8.143   2.230 -0.7796 -0.2171 -1.9703
  504MOL0     H66481   6.242   8.151   1.992 -2.1116 -0.0711  1.2294
  504MOL0     H66482   6.026   8.466   1.948 -3.2283 -0.4631 -3.0548
  504MOL0     H66483   6.028   8.292   1.907  0.0985  0.3912  1.8944
  504MOL0     H66484   5.987   8.404   1.699  0.2285 -1.2268 -0.8415
  504MOL0     H66485   6.159   8.370   1.700 -1.2594 -1.5452 -1.0004
  504MOL0     H66486   6.194   8.606   1.781  1.3579 -1.1558 -1.3159
  504MOL0     H66487   6.134   8.595   1.620  0.2281 -2.6449 -0.4087
  504MOL0     H66488   6.010   8.761   1.762  2.0013 -0.1724  0.0536
  504MOL0     H66489   5.928   8.624   1.838  2.8784  0.6175  2.4213
  504MOL0     H66490   5.769   8.826   1.806 -1.3966 -0.3847  1.2875
  504MOL0     H66491   5.542   8.898   1.788  0.2584 -1.3009  1.2576
  504MOL0     H66492   5.091   8.773   1.631  4.0316  1.6265  0.7677
  504MOL0     H66493   4.869   8.898   1.621 -0.1540 -1.4497 -0.2693
  504MOL0     H66494   4.745   8.936   1.239  2.1853  1.3161 -0.3755
  504MOL0     H66495   4.770   9.117   1.246  4.0998 -3.8011 -3.8446
  504MOL0     H66496   4.535   9.142   1.306  0.4782  0.2414  0.8345
  504MOL0     H66497   4.511   8.974   1.349 -2.1295 -0.1559 -2.5624
  504MOL0     H66498   4.520   8.911   1.119  1.9264  0.1025 -1.1005
  504MOL0     H66499   4.566   9.078   1.073 -1.1114  2.2112  1.5887
  504MOL0     H66500   4.289   9.000   1.179  0.0752  0.3992  0.1719
  504MOL0     H66501   4.349   9.155   1.185  0.4590  0.6584  0.9534
  504MOL0     H66502   4.343   8.997   0.928  1.5273 -0.4570  1.7937
  504MOL0     H66503   4.354   9.176   0.936 -2.2612  1.2723 -0.8091
  504MOL0     H66504   4.140   9.184   1.065 -3.0622 -0.2567 -1.3058
  504MOL0     H66505   4.130   9.008   1.042 -0.9666  0.6289  1.1497
  504MOL0     H66506   4.116   9.251   0.868  0.1827 -0.1155  0.5245
  504MOL0     H66507   4.149   9.094   0.778  1.6883  1.2837 -0.2369
  504MOL0     H66508   3.893   9.160   0.920 -3.4488 -1.0183 -1.5977
  504MOL0     H66509   3.952   8.996   0.896  0.6649  0.0689 -0.7379
  504MOL0     H66510   4.983   9.046   1.240  0.3467  2.8783  2.3583
  504MOL0     H66511   5.206   8.957   1.261  0.0264 -1.1023 -0.2704
  504MOL0     H66512   5.502   8.687   1.411  2.3470 -0.7963 -1.8131
  504MOL0     H66513   5.739   8.582   1.452 -0.0665 -0.3242  0.8047
  504MOL0     H66514   7.249   7.796   1.660  1.1090  0.6368  0.2298
  504MOL0     H66515   7.495   7.719   1.621  1.5477  0.1841  0.6391
  504MOL0     H66516   7.921   7.630   1.893  0.2442  0.9391 -0.9123
  504MOL0     H66517   8.152   7.538   1.875  2.6126 -3.9380 -0.6938
  504MOL0     H66518   8.310   7.381   1.858  2.1271 -2.9032  0.3971
  504MOL0     H66519   8.357   7.501   1.729 -2.5222  0.3455  0.4251
  504MOL0     H66520   8.551   7.350   1.745  1.0103  0.0312 -1.7894
  504MOL0     H66521   8.457   7.212   1.777  2.1667  1.9375  2.9053
  504MOL0     H66522   8.501   7.347   1.501 -0.5875 -0.3548 -1.6842
  504MOL0     H66523   8.366   7.238   1.522 -0.7991 -0.9591  3.1897
  504MOL0     H66524   8.559   7.123   1.428 -0.1748  2.1484 -1.0540
  504MOL0     H66525   8.658   7.141   1.572  0.2410 -5.0279  2.0440
  504MOL0     H66526   8.414   6.819   1.690 -1.0322 -0.1399 -0.0668
  504MOL0     H66527   8.013   7.259   1.582  1.9346  1.3823 -1.9319
  504MOL0     H66528   7.778   7.339   1.615  1.8309 -0.0780 -2.5353
  505MOL0     O66529   4.458   6.356   3.007 -0.2021 -0.1517 -0.1842
  505MOL0     C66530   4.375   6.350   3.092 -0.5565  0.6543 -0.1190
  505MOL0     O66531   4.357   6.443   3.199 -0.0758 -0.1058 -0.1282
  505MOL0     C66532   4.448   6.542   3.195  0.5395  0.7363 -0.1673
  505MOL0     C66533   4.421   6.655   3.119 -0.0638  0.3979 -0.0111
  505MOL0     C66534   4.517   6.754   3.122 -0.2909  0.5362 -0.1187
  505MOL0     C66535   4.630   6.748   3.208  0.0168 -0.1896  0.5306
  505MOL0     O66536   4.710   6.862   3.189 -0.0555 -0.0121 -0.3019
  505MOL0     C66537   4.845   6.843   3.225  0.6603 -0.3041 -0.1148
  505MOL0     C66538   4.929   6.946   3.144 -0.5607  0.6960  0.1666
  505MOL0     C66539   4.886   6.952   2.996  0.0454 -0.1859  0.1857
  505MOL0     C66540   4.932   7.091   2.940  0.1074 -0.4206 -0.5467
  505MOL0     C66541   4.917   7.106   2.785 -0.2678  0.9291 -0.1897
  505MOL0     C66542   4.960   7.252   2.741 -0.0978 -0.4803  0.3399
  505MOL0     C66543   4.953   7.283   2.587 -0.7232 -0.0049  0.2614
  505MOL0     C66544   4.802   7.303   2.536  0.0541  0.7415 -0.9093
  505MOL0     N66545   4.791   7.297   2.390  0.5662 -1.1845 -0.5724
  505MOL0     C66546   4.747   7.405   2.315 -0.5054 -0.4082 -0.4544
  505MOL0     C66547   4.722   7.356   2.191  0.3831 -0.1210  0.0034
  505MOL0     C66548   4.667   7.423   2.066  0.4317 -0.2327 -0.1952
  505MOL0     C66549   4.529   7.487   2.091 -0.2303 -0.4246 -0.0023
  505MOL0     C66550   4.407   7.399   2.072  1.1264  0.0351  0.2471
  505MOL0     C66551   4.276   7.478   2.106  0.2300  0.1265  0.1479
  505MOL0     O66552   4.207   7.384   2.185 -0.7539  0.1619  0.2760
  505MOL0     C66553   4.074   7.392   2.201  0.3884 -0.6193  0.1987
  505MOL0     C66554   4.000   7.509   2.174  0.1560 -0.7495 -0.2165
  505MOL0     C66555   3.860   7.509   2.206  0.6576 -0.5365 -0.0340
  505MOL0     C66556   3.791   7.402   2.261  0.8127  0.3516 -0.2169
  505MOL0     C66557   3.644   7.397   2.283  0.0360  0.7014 -0.0262
  505MOL0     O66558   3.560   7.512   2.277  0.6477 -0.7510 -0.1803
  505MOL0     C66559   3.425   7.493   2.250  0.2839 -0.4034  0.6620
  505MOL0     C66560   3.370   7.390   2.162 -0.3771 -0.5721 -0.4043
  505MOL0     C66561   3.230   7.377   2.158 -0.3732  0.0553  0.6399
  505MOL0     C66562   3.150   7.472   2.236  0.9405 -0.4176  0.4014
  505MOL0     O66563   3.015   7.455   2.201  0.4566 -0.1724 -0.6425
  505MOL0     C66564   2.936   7.568   2.210 -0.2531 -0.8237 -0.6585
  505MOL0     C66565   2.800   7.527   2.163  0.5896  0.1877  0.6513
  505MOL0     C66566   2.764   7.388   2.222 -0.4819 -0.4079 -0.3802
  505MOL0     C66567   2.620   7.344   2.205 -0.6488  0.7028 -1.2197
  505MOL0     C66568   2.602   7.201   2.251  0.4509  0.1370  0.4650
  505MOL0     C66569   2.596   7.192   2.404 -0.0361 -0.0651  0.4369
  505MOL0     C66570   2.579   7.047   2.443 -0.3451  0.6061  0.5358
  505MOL0     C66571   2.572   7.017   2.585 -0.0420 -0.5049  0.0740
  505MOL0    Cl66572   2.573   6.835   2.579  0.0706 -0.2300 -0.4932
  505MOL0     C66573   3.208   7.569   2.315  0.1668  0.6237  0.0917
  505MOL0     C66574   3.345   7.587   2.314 -0.2086  0.2341  0.0833
  505MOL0     O66575   3.602   7.287   2.320  0.4961  0.7130  0.0790
  505MOL0     C66576   3.871   7.286   2.283 -0.0414 -0.4706  0.3055
  505MOL0     C66577   4.010   7.276   2.256  0.7669 -0.8552 -0.0789
  505MOL0     N66578   4.755   7.223   2.193 -0.2331 -0.7807  0.8032
  505MOL0     N66579   4.794   7.189   2.310 -0.2386 -0.2892 -0.4441
  505MOL0     C66580   4.649   6.640   3.300 -0.5112  0.7208  0.2043
  505MOL0     C66581   4.555   6.533   3.288  0.3499 -0.2634  0.6336
  505MOL0     C66582   4.276   6.245   3.078 -0.4441 -0.0256 -0.0811
  505MOL0     C66583   4.261   6.169   2.959 -0.3083  0.1486  0.0832
  505MOL0     C66584   4.151   6.096   2.936 -0.1712 -0.1894 -0.1958
  505MOL0     C66585   4.049   6.082   3.036 -0.0770  0.6799 -0.2007
  505MOL0     O66586   3.930   6.012   3.025  0.2562  0.4852 -0.9110
  505MOL0     C66587   3.904   5.934   2.907  0.2821  0.2449 -0.2228
  505MOL0     C66588   3.778   5.853   2.925  0.7142  1.2730  0.0228
  505MOL0     C66589   3.745   5.755   2.812 -0.2943  0.6036 -0.5484
  505MOL0     C66590   3.609   5.682   2.840  0.1426 -0.3340  0.5123
  505MOL0     C66591   3.607   5.586   2.950  0.3508  0.2811  0.8329
  505MOL0     C66592   3.614   5.504   3.042  0.0971 -0.0880  0.2611
  505MOL0     C66593   4.062   6.154   3.157  0.3001  0.5161  0.4961
  505MOL0     C66594   4.179   6.231   3.178 -0.4974  0.4199  0.1682
  505MOL0     H66595   4.343   6.663   3.044 -0.0466  2.1740  0.1227
  505MOL0     H66596   4.506   6.842   3.058  0.9725  1.5076  0.9457
  505MOL0     H66597   4.865   6.742   3.189 -0.6325 -1.1102  1.3522
  505MOL0     H66598   4.858   6.844   3.333 -2.0669 -3.4206  0.3829
  505MOL0     H66599   5.030   6.904   3.133 -0.2186  2.0403 -2.6210
  505MOL0     H66600   4.934   7.044   3.192 -0.8603  0.5147  0.5830
  505MOL0     H66601   4.777   6.954   2.982 -0.0255 -1.5710  0.3297
  505MOL0     H66602   4.924   6.864   2.942 -0.1118 -1.9577  2.7537
  505MOL0     H66603   4.876   7.169   2.992 -0.0048 -1.3473  0.7812
  505MOL0     H66604   5.037   7.098   2.970 -0.5809 -1.3885  2.4321
  505MOL0     H66605   4.812   7.093   2.759  0.1032  0.2800 -1.4477
  505MOL0     H66606   4.973   7.032   2.726  0.3403  1.2800 -0.0592
  505MOL0     H66607   5.065   7.259   2.769 -0.0720  0.6578 -0.0055
  505MOL0     H66608   4.904   7.331   2.792 -2.0206 -1.7750  0.3259
  505MOL0     H66609   5.019   7.365   2.558  0.9556 -0.9440  1.2522
  505MOL0     H66610   4.994   7.202   2.526 -0.7483  2.4092 -3.2768
  505MOL0     H66611   4.752   7.392   2.576  0.6858 -0.5980  3.3781
  505MOL0     H66612   4.745   7.221   2.580 -2.1009  3.1105  1.0217
  505MOL0     H66613   4.740   7.505   2.357  1.6805 -0.8931  1.2959
  505MOL0     H66614   4.666   7.343   1.991 -2.4430 -2.0236  1.6015
  505MOL0     H66615   4.737   7.495   2.023  0.4758  1.2720  2.2026
  505MOL0     H66616   4.520   7.581   2.035 -0.6738 -0.3131  0.2552
  505MOL0     H66617   4.529   7.525   2.194 -1.8749  2.0267 -0.8039
  505MOL0     H66618   4.389   7.380   1.966  0.8098  2.0100 -0.0871
  505MOL0     H66619   4.421   7.308   2.131  1.4020  0.1797  0.4070
  505MOL0     H66620   4.212   7.497   2.019 -1.0606  2.1037  1.4438
  505MOL0     H66621   4.290   7.566   2.170 -0.6302 -1.6860  2.9990
  505MOL0     H66622   4.036   7.595   2.119 -0.1888 -0.1379  0.4902
  505MOL0     H66623   3.804   7.596   2.175 -0.6994 -0.7166  1.7690
  505MOL0     H66624   3.434   7.320   2.110  0.7975  0.5585 -0.5086
  505MOL0     H66625   3.170   7.309   2.098  0.8511  1.6976 -2.7304
  505MOL0     H66626   2.982   7.657   2.164 -0.7340  0.2830  0.9226
  505MOL0     H66627   2.924   7.600   2.313  0.5386 -1.8156 -0.2445
  505MOL0     H66628   2.792   7.530   2.054 -4.8888  2.5539  0.7302
  505MOL0     H66629   2.719   7.589   2.204 -0.3701 -1.6126  1.5940
  505MOL0     H66630   2.797   7.401   2.325 -2.9176  2.5579  0.1696
  505MOL0     H66631   2.822   7.313   2.168 -1.8959 -0.1450 -2.3771
  505MOL0     H66632   2.550   7.406   2.261 -1.1005 -0.6017 -0.2738
  505MOL0     H66633   2.599   7.339   2.098  3.0474 -2.2181 -2.0228
  505MOL0     H66634   2.683   7.136   2.218  1.0644  1.7462 -1.4414
  505MOL0     H66635   2.506   7.176   2.206 -0.2654  3.0455  0.1338
  505MOL0     H66636   2.500   7.238   2.426  0.1190  2.5950 -3.4545
  505MOL0     H66637   2.679   7.246   2.451  0.2859 -1.0455  1.0241
  505MOL0     H66638   2.484   7.006   2.406  0.7308 -2.1380  0.5612
  505MOL0     H66639   2.665   6.988   2.408  0.4851  0.0747  3.2873
  505MOL0     H66640   2.490   7.064   2.640  0.9699 -0.4402  1.5870
  505MOL0     H66641   2.663   7.044   2.639 -0.6679 -0.6991  1.2579
  505MOL0     H66642   3.148   7.653   2.348 -0.1339  0.3397  0.2757
  505MOL0     H66643   3.392   7.673   2.361  0.5618  0.4690 -1.0679
  505MOL0     H66644   3.830   7.196   2.327  1.2095 -1.8462 -1.2276
  505MOL0     H66645   4.068   7.184   2.260  0.6472 -0.8934  2.1482
  505MOL0     H66646   4.719   6.638   3.383  0.6276 -1.6556 -0.7075
  505MOL0     H66647   4.562   6.442   3.348 -0.0760  0.4652  1.8147
  505MOL0     H66648   4.337   6.183   2.883 -0.2037 -0.6708  0.0266
  505MOL0     H66649   4.138   6.059   2.835  2.6482  1.9622 -1.5055
  505MOL0     H66650   3.986   5.864   2.889 -1.9619 -2.5831 -0.1233
  505MOL0     H66651   3.885   6.003   2.824 -3.0264  2.5446  2.1698
  505MOL0     H66652   3.809   5.788   3.007  1.2471 -0.0486 -1.1901
  505MOL0     H66653   3.691   5.913   2.954  1.2330  0.8583  2.6899
  505MOL0     H66654   3.833   5.692   2.794  0.3151  1.6874 -1.5509
  505MOL0     H66655   3.738   5.814   2.720  2.3752  2.0690  0.0986
  505MOL0     H66656   3.536   5.755   2.875  2.5943  1.2522  2.5954
  505MOL0     H66657   3.580   5.633   2.746  1.5787 -0.0335 -0.1136
  505MOL0     H66658   3.645   5.430   3.114  1.4645 -1.2195 -1.4042
  505MOL0     H66659   3.983   6.154   3.232  0.1401 -0.9189  0.3626
  505MOL0     H66660   4.191   6.288   3.269  0.1765 -1.5182  1.3393
  506MOL0     O66661  10.436   1.392   2.066  0.3582 -0.5341 -0.0455
  506MOL0     C66662  10.515   1.303   2.095 -0.7610 -0.1250 -0.8489
  506MOL0     O66663  10.488   1.168   2.083  0.0682 -0.0264  0.0100
  506MOL0     C66664  10.368   1.120   2.043  0.6978  0.0165 -0.3523
  506MOL0     C66665  10.329   0.994   2.090 -0.7836 -0.2440  0.4692
  506MOL0     C66666  10.206   0.937   2.059  0.0843  0.2733  0.3240
  506MOL0     C66667  10.108   0.997   1.988  0.2802  0.2225 -0.4431
  506MOL0     O66668   9.972   0.957   1.974 -0.0979 -0.3348 -0.1864
  506MOL0     C66669   9.878   1.061   2.000 -0.1474 -0.3066  0.5965
  506MOL0     C66670   9.739   0.995   1.975  0.3872  0.4910 -0.0718
  506MOL0     C66671   9.711   0.980   1.824 -0.3089 -0.3095 -0.4488
  506MOL0     C66672   9.569   0.929   1.795 -0.0859  0.7812  0.2975
  506MOL0     C66673   9.575   0.907   1.640  0.6391  0.1092  0.0212
  506MOL0     C66674   9.484   0.788   1.605  0.8099  0.3389  0.7717
  506MOL0     C66675   9.334   0.830   1.593 -0.2679 -0.8591  0.2658
  506MOL0     C66676   9.304   0.922   1.474  0.3362  0.0958  0.1535
  506MOL0     N66677   9.213   0.859   1.378 -0.3292 -0.7329  0.3028
  506MOL0     C66678   9.077   0.840   1.387 -0.0522  0.2231 -0.1247
  506MOL0     C66679   9.040   0.783   1.270 -0.3332 -0.6931 -0.5153
  506MOL0     C66680   8.894   0.757   1.235 -0.0516  0.2859 -0.8709
  506MOL0     C66681   8.880   0.641   1.128  0.2037  0.3584  0.4921
  506MOL0     C66682   8.735   0.595   1.112  0.4300  0.0479 -0.1814
  506MOL0     C66683   8.712   0.523   0.981  0.1708 -0.2567 -0.0851
  506MOL0     O66684   8.584   0.459   0.994 -0.0758 -1.2257 -0.5371
  506MOL0     C66685   8.515   0.436   0.877 -0.5110 -0.0553  0.6901
  506MOL0     C66686   8.372   0.441   0.881  0.4827 -1.3554 -0.3540
  506MOL0     C66687   8.291   0.434   0.762  0.5606 -0.4607 -0.2363
  506MOL0     C66688   8.347   0.430   0.637  0.7233  0.2788 -0.1912
  506MOL0     C66689   8.267   0.428   0.512  0.7548  0.3442  0.5375
  506MOL0     O66690   8.129   0.420   0.529 -0.5563 -0.2925 -0.9412
  506MOL0     C66691   8.042   0.433   0.424 -0.0954 -0.5295  0.0550
  506MOL0     C66692   8.058   0.488   0.293 -0.4864 -0.4136  0.6189
  506MOL0     C66693   7.960   0.496   0.197 -0.2677 -0.8418 -0.0647
  506MOL0     C66694   7.824   0.457   0.221 -0.2844  0.1413  0.7738
  506MOL0     O66695   7.732   0.474   0.118 -0.7428 -0.2517  0.0558
  506MOL0     C66696   7.597   0.458   0.131  1.0965 -0.3928  0.5193
  506MOL0     C66697   7.521   0.569   0.054  0.6711 -0.0967  0.2212
  506MOL0     C66698   7.521   0.535  -0.094 -0.6740 -0.4639  0.0767
  506MOL0     C66699   7.437   0.617  -0.183  0.9495 -1.1363 -0.0936
  506MOL0     C66700   7.458   0.579  -0.329  0.1311 -0.5177  0.0127
  506MOL0     C66701   7.453   0.708  -0.431  0.8812 -0.4021 -0.1429
  506MOL0     C66702   7.417   0.667  -0.572  0.4820 -0.0081 -0.8429
  506MOL0     C66703   7.265   0.678  -0.584  0.4359 -0.5085 -0.9690
  506MOL0    Cl66704   7.197   0.610  -0.727 -0.3866  0.4485 -0.3847
  506MOL0     C66705   7.806   0.401   0.352  0.1357 -0.5050 -0.5942
  506MOL0     C66706   7.908   0.394   0.449  0.7939  0.0528 -0.4760
  506MOL0     O66707   8.323   0.426   0.399 -0.2066 -0.4464 -0.1758
  506MOL0     C66708   8.494   0.429   0.627 -0.8905  1.0808 -0.4303
  506MOL0     C66709   8.571   0.424   0.743 -1.0366 -0.0598  0.1726
  506MOL0     N66710   9.153   0.769   1.193  0.4979 -0.5074 -0.3364
  506MOL0     N66711   9.258   0.808   1.256 -0.4566 -0.9749  0.5863
  506MOL0     C66712  10.150   1.115   1.931 -0.0443 -0.5558 -0.7045
  506MOL0     C66713  10.270   1.175   1.963  0.8550  0.7014 -0.2545
  506MOL0     C66714  10.652   1.336   2.145 -1.0526 -0.1513 -0.4550
  506MOL0     C66715  10.727   1.251   2.228 -0.5733 -0.4293 -0.2353
  506MOL0     C66716  10.857   1.276   2.268  0.0989  0.4083  0.5896
  506MOL0     C66717  10.919   1.391   2.220 -0.0508  0.8133  0.2436
  506MOL0     O66718  11.051   1.418   2.248 -0.4484 -0.2440 -0.0491
  506MOL0     C66719  11.142   1.317   2.301 -0.4345 -0.7191 -0.7679
  506MOL0     C66720  11.284   1.338   2.242 -0.3391 -0.9502 -0.1541
  506MOL0     C66721  11.389   1.240   2.289  0.1838 -0.4324  0.2364
  506MOL0     C66722  11.531   1.276   2.260  0.1027  0.2993  0.3951
  506MOL0     C66723  11.571   1.414   2.298 -0.7103  0.3673  0.9089
  506MOL0     C66724  11.603   1.525   2.327 -0.1073 -0.0815 -0.0740
  506MOL0     C66725  10.843   1.485   2.138 -0.7429 -0.2877 -0.1657
  506MOL0     C66726  10.712   1.458   2.110  0.7890 -0.1336 -0.2489
  506MOL0     H66727  10.391   0.947   2.166  3.6519  1.7482 -1.5761
  506MOL0     H66728  10.180   0.844   2.107 -3.5661  0.2050 -1.4395
  506MOL0     H66729   9.894   1.141   1.927 -1.7646 -0.2404  0.2904
  506MOL0     H66730   9.891   1.108   2.099  1.6624  2.4705 -0.8206
  506MOL0     H66731   9.661   1.062   2.013  1.8892  2.4350 -0.2495
  506MOL0     H66732   9.730   0.897   2.023 -1.0110 -0.1567 -1.5551
  506MOL0     H66733   9.787   0.915   1.779  0.8513  1.2523 -0.8277
  506MOL0     H66734   9.733   1.077   1.779 -0.1893  0.9557  2.1835
  506MOL0     H66735   9.551   0.835   1.847 -1.4506  1.2212  0.6743
  506MOL0     H66736   9.487   0.997   1.820 -1.1167  0.9033 -2.9284
  506MOL0     H66737   9.676   0.884   1.607  1.5032  1.1565  1.7960
  506MOL0     H66738   9.540   0.995   1.584  2.5138 -0.8089 -2.8341
  506MOL0     H66739   9.493   0.705   1.676  0.8050 -2.9519 -2.7930
  506MOL0     H66740   9.515   0.744   1.510  2.0977  0.8287  0.9490
  506MOL0     H66741   9.272   0.740   1.602 -1.3526  0.0074  1.8068
  506MOL0     H66742   9.321   0.884   1.687  0.7887  1.2794 -0.7433
  506MOL0     H66743   9.399   0.946   1.426 -0.5931  1.0910 -1.2617
  506MOL0     H66744   9.259   1.014   1.513  1.2450  0.4784  0.3293
  506MOL0     H66745   9.013   0.870   1.470  1.3784  2.8221  0.1272
  506MOL0     H66746   8.858   0.848   1.185 -1.5178  0.0239 -0.3474
  506MOL0     H66747   8.841   0.736   1.328  1.4409 -0.8625 -0.2398
  506MOL0     H66748   8.945   0.565   1.170 -0.9867  0.2794  2.2795
  506MOL0     H66749   8.924   0.686   1.038  2.7452  0.3667  1.6562
  506MOL0     H66750   8.714   0.537   1.202  2.2548 -0.7892 -0.2533
  506MOL0     H66751   8.670   0.683   1.118  0.0385 -0.2430 -0.0937
  506MOL0     H66752   8.791   0.450   0.962  1.7701  1.2842  0.2744
  506MOL0     H66753   8.712   0.596   0.899  1.3693 -2.0051 -1.7147
  506MOL0     H66754   8.321   0.448   0.977 -0.4219  0.4988 -0.9258
  506MOL0     H66755   8.184   0.447   0.771  0.4386 -1.7391  0.3447
  506MOL0     H66756   8.146   0.546   0.270 -1.7516  0.7511 -1.7191
  506MOL0     H66757   7.994   0.553   0.112  0.1339  0.5842  1.0199
  506MOL0     H66758   7.576   0.468   0.238 -0.2261 -2.4369  0.4984
  506MOL0     H66759   7.571   0.357   0.098  0.5402 -0.1031  0.0450
  506MOL0     H66760   7.581   0.661   0.058  1.7454 -0.7497 -0.5303
  506MOL0     H66761   7.419   0.586   0.091  0.1230  0.1515 -1.3175
  506MOL0     H66762   7.499   0.430  -0.113  1.0138 -1.1015  1.3756
  506MOL0     H66763   7.622   0.553  -0.133 -0.4101  5.0133  2.4776
  506MOL0     H66764   7.331   0.601  -0.161  1.4137 -0.6355  3.0938
  506MOL0     H66765   7.452   0.725  -0.167  0.6152 -1.0925 -0.0838
  506MOL0     H66766   7.372   0.516  -0.354 -0.6433  1.3816 -2.5509
  506MOL0     H66767   7.545   0.514  -0.343 -0.6696 -2.1871  2.2568
  506MOL0     H66768   7.558   0.736  -0.421  1.2668 -1.9623  0.5110
  506MOL0     H66769   7.391   0.790  -0.394 -0.5416 -2.7797  3.3822
  506MOL0     H66770   7.459   0.737  -0.645 -0.1222  0.6628 -0.5602
  506MOL0     H66771   7.453   0.566  -0.592  2.2746  0.9558 -2.9243
  506MOL0     H66772   7.241   0.784  -0.581 -0.3178 -0.6952  0.0526
  506MOL0     H66773   7.214   0.621  -0.505  0.4679 -0.1384 -0.6781
  506MOL0     H66774   7.706   0.369   0.379  0.2096  0.1746  0.5369
  506MOL0     H66775   7.884   0.349   0.545 -0.1752 -1.0539 -1.2048
  506MOL0     H66776   8.531   0.419   0.525  1.5731 -1.4676  0.5942
  506MOL0     H66777   8.679   0.420   0.734 -1.0538 -1.6487  0.3972
  506MOL0     H66778  10.081   1.175   1.873 -0.1134  2.4387  2.1675
  506MOL0     H66779  10.275   1.277   1.926 -2.0865  0.6839 -1.0074
  506MOL0     H66780  10.682   1.157   2.261  0.7560 -0.9240  0.2544
  506MOL0     H66781  10.906   1.199   2.326 -0.4577 -0.2103  0.2538
  506MOL0     H66782  11.114   1.214   2.277  0.4709 -0.6286 -2.3244
  506MOL0     H66783  11.150   1.331   2.410  3.1498 -0.0071 -1.0054
  506MOL0     H66784  11.284   1.322   2.133 -1.8639 -1.4743 -0.1060
  506MOL0     H66785  11.312   1.442   2.265  0.6671 -1.4080  0.7608
  506MOL0     H66786  11.367   1.146   2.238 -3.6736 -0.0433  0.8142
  506MOL0     H66787  11.390   1.235   2.399 -2.0308 -0.9077  0.2860
  506MOL0     H66788  11.596   1.202   2.308  0.2588  0.2876  0.1658
  506MOL0     H66789  11.554   1.272   2.153  0.5367 -2.6300  0.5268
  506MOL0     H66790  11.638   1.623   2.352  3.8789 -1.1830 -0.6313
  506MOL0     H66791  10.907   1.569   2.113  2.5302 -2.3495  0.5864
  506MOL0     H66792  10.654   1.525   2.048  0.9322 -1.9222 -2.4159
  507MOL0     O66793   1.986   9.966   9.200  0.2000 -0.3601 -0.3581
  507MOL0     C66794   2.058   9.867   9.181 -1.4333  0.2602  1.5751
  507MOL0     O66795   2.022   9.750   9.116 -0.9471 -0.2865 -0.4869
  507MOL0     C66796   1.899   9.733   9.063 -0.6020  0.0635  0.2798
  507MOL0     C66797   1.878   9.778   8.932 -1.1025  0.1707  0.4910
  507MOL0     C66798   1.754   9.759   8.872 -0.4871  0.3297  0.7971
  507MOL0     C66799   1.647   9.690   8.942 -0.6945  0.8396  0.8220
  507MOL0     O66800   1.531   9.684   8.878  0.1593 -0.2158  0.1145
  507MOL0     C66801   1.420   9.678   8.967 -0.1083  0.0746  0.2683
  507MOL0     C66802   1.295   9.710   8.894  0.8342  0.7513  0.0074
  507MOL0     C66803   1.167   9.725   8.976 -0.6039  0.7174 -0.0605
  507MOL0     C66804   1.048   9.730   8.883  0.1332 -0.1096  0.2392
  507MOL0     C66805   0.915   9.752   8.959 -0.5522 -0.0686  0.0625
  507MOL0     C66806   0.790   9.710   8.882  0.0080  0.1714  1.0401
  507MOL0     C66807   0.661   9.733   8.958 -0.8002  0.2406  0.4201
  507MOL0     C66808   0.620   9.882   8.963 -0.7808  1.0633 -0.1212
  507MOL0     N66809   0.486   9.898   9.037 -0.1182  0.8851 -0.9840
  507MOL0     C66810   0.452   9.845   9.160 -0.5244 -0.7155  0.1707
  507MOL0     C66811   0.320   9.834   9.160  0.3268 -0.4034  0.0786
  507MOL0     C66812   0.230   9.791   9.273  0.1450  0.3928  1.0159
  507MOL0     C66813   0.236   9.895   9.384 -0.1640 -0.1504 -0.2889
  507MOL0     C66814   0.105   9.905   9.465 -0.4462  0.6903  0.1340
  507MOL0     C66815   0.078  10.041   9.533 -0.2299  0.0188  0.4905
  507MOL0     O66816  -0.031  10.020   9.625  0.6194  0.8380  0.7461
  507MOL0     C66817  -0.084  10.142   9.665 -0.1438 -0.6512 -0.5181
  507MOL0     C66818  -0.223  10.168   9.655 -1.2838 -0.3372  0.5378
  507MOL0     C66819  -0.277  10.289   9.703  0.4476 -0.1262  0.2658
  507MOL0     C66820  -0.199  10.388   9.757 -0.7102 -0.2838  0.6234
  507MOL0     C66821  -0.264  10.504   9.800  0.1916 -0.0596 -0.8460
  507MOL0     O66822  -0.402  10.511   9.809  0.2828 -0.3375 -0.1656
  507MOL0     C66823  -0.461  10.499   9.927  0.5122 -0.1209  0.8348
  507MOL0     C66824  -0.397  10.452  10.045  0.5216 -0.1107 -0.0597
  507MOL0     C66825  -0.459  10.442  10.170  0.4182 -0.1711 -0.5384
  507MOL0     C66826  -0.599  10.483  10.183  0.3579 -0.0030  0.1939
  507MOL0     O66827  -0.670  10.484  10.301 -0.9386 -0.0520  0.1665
  507MOL0     C66828  -0.596  10.487  10.425  0.8170  0.3604  0.2829
  507MOL0     C66829  -0.704  10.507  10.540 -0.7427 -0.3265 -0.0388
  507MOL0     C66830  -0.768  10.647  10.529 -0.1653 -0.0188 -0.4979
  507MOL0     C66831  -0.897  10.666  10.618  1.1767  0.4595 -0.6876
  507MOL0     C66832  -1.019  10.582  10.558  0.2563 -0.1164  0.1255
  507MOL0     C66833  -1.147  10.649  10.604  0.7906 -0.6137  0.5573
  507MOL0     C66834  -1.169  10.632  10.757  0.2836  0.5490  0.6471
  507MOL0     C66835  -1.291  10.717  10.800  0.6230 -0.1713  0.3384
  507MOL0    Cl66836  -1.442  10.643  10.737  0.1267 -0.1759  0.6004
  507MOL0     C66837  -0.668  10.517  10.065 -0.9630  0.8492  0.1942
  507MOL0     C66838  -0.599  10.535   9.942  1.1998 -0.7294 -0.4047
  507MOL0     O66839  -0.190  10.595   9.835  0.2658 -0.3240 -0.1348
  507MOL0     C66840  -0.066  10.354   9.782 -0.1203  0.2192  0.1549
  507MOL0     C66841  -0.010  10.227   9.746  0.1121 -0.0417 -0.4410
  507MOL0     N66842   0.278   9.876   9.032  0.5793 -0.2285  0.5023
  507MOL0     N66843   0.376   9.896   8.955 -0.0925  0.5932  0.2667
  507MOL0     C66844   1.676   9.634   9.071 -0.2931 -0.3364 -0.1099
  507MOL0     C66845   1.803   9.659   9.131  0.3321  0.2434 -0.0922
  507MOL0     C66846   2.202   9.875   9.228 -0.0220 -0.3751 -0.2027
  507MOL0     C66847   2.237   9.971   9.317 -0.0275 -0.5111 -0.4177
  507MOL0     C66848   2.367   9.984   9.354  0.5816  0.2807 -0.0744
  507MOL0     C66849   2.465   9.894   9.311  0.2511  0.1054  0.9395
  507MOL0     O66850   2.590   9.915   9.362 -0.0802  0.9539  0.5352
  507MOL0     C66851   2.689   9.814   9.375 -0.0990  0.1460  0.2743
  507MOL0     C66852   2.786   9.852   9.490 -0.4281 -0.2116 -0.3019
  507MOL0     C66853   2.888   9.957   9.456 -0.0452 -0.0107  1.4420
  507MOL0     C66854   2.992   9.991   9.566  0.0139  0.2838 -0.2917
  507MOL0     C66855   3.079  10.106   9.526 -0.6162 -0.0401  0.9364
  507MOL0     C66856   3.146  10.202   9.481  0.5042  0.3860 -0.6934
  507MOL0     C66857   2.424   9.783   9.225 -0.1329 -0.4445  0.4365
  507MOL0     C66858   2.296   9.781   9.182  0.4154 -0.1023 -0.2045
  507MOL0     H66859   1.947   9.844   8.880 -2.7311  1.5030 -0.0772
  507MOL0     H66860   1.730   9.799   8.774 -0.5788 -2.6802 -0.5429
  507MOL0     H66861   1.445   9.742   9.052  0.4615  0.2968 -0.0571
  507MOL0     H66862   1.409   9.576   9.006 -1.5165 -0.6334 -1.8396
  507MOL0     H66863   1.288   9.625   8.825 -0.1809 -0.5246  1.5986
  507MOL0     H66864   1.313   9.793   8.825 -0.2907  1.1550  0.1754
  507MOL0     H66865   1.178   9.814   9.039 -0.0955 -0.1763  1.1543
  507MOL0     H66866   1.146   9.637   9.038 -2.8699  2.4431  1.8304
  507MOL0     H66867   1.058   9.816   8.816 -0.3576  0.1222  0.4584
  507MOL0     H66868   1.036   9.637   8.826 -2.6304  1.5201 -2.0826
  507MOL0     H66869   0.903   9.860   8.975 -0.5009 -0.3024  1.9894
  507MOL0     H66870   0.907   9.704   9.057 -0.6153 -0.1954 -0.0047
  507MOL0     H66871   0.802   9.605   8.852 -2.1153 -0.2338  1.4333
  507MOL0     H66872   0.788   9.776   8.795 -1.6762  1.9094  2.3122
  507MOL0     H66873   0.584   9.673   8.909  0.4573 -1.4130  0.4010
  507MOL0     H66874   0.673   9.690   9.058 -0.9945 -0.9946 -0.0709
  507MOL0     H66875   0.624   9.920   8.860 -0.3548  1.2625 -0.0336
  507MOL0     H66876   0.695   9.935   9.022 -0.4727 -1.3601  1.8064
  507MOL0     H66877   0.515   9.837   9.248 -2.4101 -2.0148  1.4856
  507MOL0     H66878   0.253   9.689   9.306  0.3679  0.9292  2.6035
  507MOL0     H66879   0.130   9.776   9.232  0.5965 -0.1369  0.0628
  507MOL0     H66880   0.256   9.991   9.335  4.0961 -0.0861  1.2039
  507MOL0     H66881   0.323   9.879   9.448  0.9091  2.4608 -0.9488
  507MOL0     H66882   0.024   9.887   9.394 -0.3120 -1.4213  0.4539
  507MOL0     H66883   0.103   9.826   9.541 -0.0334  0.1689 -0.3875
  507MOL0     H66884   0.058  10.113   9.453 -0.6415  1.5757  1.9372
  507MOL0     H66885   0.166  10.082   9.583  0.7694  0.9155 -1.8768
  507MOL0     H66886  -0.281  10.091   9.606 -0.5076 -0.8087  0.3458
  507MOL0     H66887  -0.384  10.300   9.715  0.5314  2.8922 -0.9669
  507MOL0     H66888  -0.290  10.437  10.035  0.3100 -2.5770  0.7210
  507MOL0     H66889  -0.411  10.426  10.267 -1.0823  0.0963  0.2742
  507MOL0     H66890  -0.513  10.557  10.423  1.7626 -0.7325  0.0662
  507MOL0     H66891  -0.565  10.384  10.444  3.1030  1.1757  1.3743
  507MOL0     H66892  -0.649  10.501  10.635 -0.2783  3.3148  0.0719
  507MOL0     H66893  -0.788  10.437  10.529 -1.1301  0.3607 -1.7418
  507MOL0     H66894  -0.792  10.669  10.425  2.2215 -0.5380 -1.1958
  507MOL0     H66895  -0.693  10.722  10.556  0.7579 -0.7508 -0.9993
  507MOL0     H66896  -0.878  10.649  10.725  0.3961  0.2050 -0.5845
  507MOL0     H66897  -0.930  10.771  10.614 -0.3166  0.0739  0.7061
  507MOL0     H66898  -1.010  10.480  10.597  1.4731 -0.1278 -0.1236
  507MOL0     H66899  -1.013  10.584  10.449 -1.9016 -0.3905 -0.0292
  507MOL0     H66900  -1.225  10.598  10.546  0.7806  1.5447 -1.5050
  507MOL0     H66901  -1.139  10.755  10.576  0.5519 -1.3533 -2.8076
  507MOL0     H66902  -1.185  10.525  10.779 -0.3457  0.4309 -0.3325
  507MOL0     H66903  -1.079  10.666  10.809  0.9698  0.3981 -0.4290
  507MOL0     H66904  -1.289  10.819  10.759 -0.4280 -0.9165 -1.6949
  507MOL0     H66905  -1.292  10.725  10.909 -0.9186  3.7457  0.2161
  507MOL0     H66906  -0.772  10.546  10.066 -0.7574  1.6569 -0.2375
  507MOL0     H66907  -0.648  10.581   9.857  0.3071  3.4213  2.0351
  507MOL0     H66908   0.001  10.424   9.831  2.9422 -0.4702 -2.6501
  507MOL0     H66909   0.092  10.204   9.773  0.4921  0.8343 -1.0817
  507MOL0     H66910   1.610   9.581   9.138  1.7654 -1.6926  0.9624
  507MOL0     H66911   1.822   9.615   9.228  1.8361 -1.4423 -1.0883
  507MOL0     H66912   2.166  10.041   9.361  0.9762  1.6629 -2.0520
  507MOL0     H66913   2.394  10.061   9.425  1.1342  1.1441 -1.1923
  507MOL0     H66914   2.746   9.785   9.287 -0.2546 -0.9354  0.5058
  507MOL0     H66915   2.643   9.719   9.405  1.6996 -0.8740 -0.0208
  507MOL0     H66916   2.723   9.878   9.575  1.5490 -1.1315  1.5317
  507MOL0     H66917   2.849   9.771   9.528 -0.6214  0.4293  1.4714
  507MOL0     H66918   2.843  10.049   9.417  1.3688 -0.2820 -1.0722
  507MOL0     H66919   2.945   9.911   9.375 -0.0069  2.6479 -0.1708
  507MOL0     H66920   2.939  10.023   9.657  2.6988 -1.4640  2.0946
  507MOL0     H66921   3.042   9.897   9.592 -0.6944 -0.0214  0.0079
  507MOL0     H66922   3.204  10.280   9.436 -1.2705  3.6612  2.1712
  507MOL0     H66923   2.493   9.705   9.194  1.0166 -0.0395  1.8530
  507MOL0     H66924   2.270   9.702   9.112  2.6478 -1.1843  0.0857
  508MOL0     O66925   4.844  10.746   2.959  0.6712 -0.0526  0.7714
  508MOL0     C66926   4.957  10.712   2.925  0.1270 -0.7844  0.0574
  508MOL0     O66927   4.995  10.584   2.887 -0.5615 -0.9617 -0.7844
  508MOL0     C66928   4.905  10.482   2.903  1.0305 -0.5782  0.6952
  508MOL0     C66929   4.818  10.463   2.800  0.0817  0.1298  0.4875
  508MOL0     C66930   4.721  10.363   2.811 -0.5009 -0.4324  0.7431
  508MOL0     C66931   4.726  10.267   2.909  0.1288 -0.0342  0.2988
  508MOL0     O66932   4.634  10.166   2.910  0.8095  0.3609  0.3232
  508MOL0     C66933   4.650  10.056   3.008  0.1130  0.3923 -0.7749
  508MOL0     C66934   4.566   9.933   2.968  0.1680  0.3829 -0.2117
  508MOL0     C66935   4.422   9.946   3.019  0.6808  0.1997 -0.5007
  508MOL0     C66936   4.347   9.820   2.992 -0.1319 -0.6975 -0.5539
  508MOL0     C66937   4.202   9.823   3.009  0.3050 -0.1816 -0.3667
  508MOL0     C66938   4.134   9.690   3.012 -0.1859  0.3940 -0.6428
  508MOL0     C66939   3.987   9.709   2.995  0.5975 -0.2529 -0.1764
  508MOL0     C66940   3.921   9.570   3.022  0.3004  0.4960  0.1844
  508MOL0     N66941   3.777   9.586   3.009  0.2692  0.1274  1.1498
  508MOL0     C66942   3.691   9.614   3.111 -0.6448  0.7586  0.1620
  508MOL0     C66943   3.565   9.601   3.070 -1.6994 -0.1934  0.3140
  508MOL0     C66944   3.442   9.615   3.149  0.8800  0.4577 -0.1024
  508MOL0     C66945   3.405   9.482   3.224 -0.4857  0.1748 -0.6425
  508MOL0     C66946   3.366   9.355   3.146  0.4393 -0.1739 -0.2096
  508MOL0     C66947   3.269   9.389   3.037  0.0868 -0.5366  0.0539
  508MOL0     O66948   3.149   9.447   3.097 -0.1727 -0.5221  0.5561
  508MOL0     C66949   3.040   9.454   3.017  0.4922 -0.2826 -0.1541
  508MOL0     C66950   2.929   9.514   3.066 -0.0316  0.1391  0.1479
  508MOL0     C66951   2.811   9.541   2.991  0.2326  0.0458 -0.1459
  508MOL0     C66952   2.807   9.499   2.852 -0.3825 -0.0123  0.1766
  508MOL0     C66953   2.686   9.517   2.767 -0.6392  0.6166  0.0174
  508MOL0     O66954   2.686   9.464   2.641  1.1459 -0.2172  0.2195
  508MOL0     C66955   2.575   9.496   2.565  0.0895 -0.1788 -1.2605
  508MOL0     C66956   2.454   9.433   2.595  0.6003  0.0994 -1.0234
  508MOL0     C66957   2.343   9.438   2.512  0.0761  0.0355 -0.3526
  508MOL0     C66958   2.355   9.496   2.382 -0.7039 -1.1563  0.5765
  508MOL0     O66959   2.260   9.519   2.282 -0.6239 -0.1247  0.4589
  508MOL0     C66960   2.126   9.555   2.318  0.5268  0.5501 -1.0446
  508MOL0     C66961   2.020   9.493   2.226  0.0323  0.3211  0.4461
  508MOL0     C66962   2.029   9.334   2.227 -0.1866 -1.1517  0.6969
  508MOL0     C66963   1.889   9.269   2.211 -0.0249  0.1962  0.5674
  508MOL0     C66964   1.911   9.126   2.261 -0.1394  0.6108  0.7070
  508MOL0     C66965   1.777   9.043   2.231  0.0017  0.0931 -0.0806
  508MOL0     C66966   1.737   8.953   2.349 -0.4255  0.0648  0.7366
  508MOL0     C66967   1.634   8.853   2.297  0.0130  0.5353  0.2815
  508MOL0    Cl66968   1.477   8.869   2.384  0.0804  0.3315  0.1140
  508MOL0     C66969   2.475   9.556   2.353 -0.0790 -0.1509  0.4392
  508MOL0     C66970   2.583   9.559   2.439  0.4119  1.0365 -0.6121
  508MOL0     O66971   2.593   9.573   2.820  0.1166  0.3548 -0.0406
  508MOL0     C66972   2.924   9.432   2.798 -0.2358 -0.4402  0.1772
  508MOL0     C66973   3.034   9.414   2.877  0.0973  0.5032 -0.5449
  508MOL0     N66974   3.577   9.569   2.942 -0.1526 -0.1434 -0.0942
  508MOL0     N66975   3.702   9.561   2.901  0.8103  1.0858  0.4724
  508MOL0     C66976   4.824  10.281   3.017  0.6195  0.0484  0.0981
  508MOL0     C66977   4.906  10.397   3.010  0.1065  0.3857 -0.0087
  508MOL0     C66978   5.055  10.817   2.921 -0.1744 -0.1129 -1.1879
  508MOL0     C66979   5.025  10.944   2.975 -0.4228 -0.8490 -0.0921
  508MOL0     C66980   5.124  11.047   2.957 -0.4283  0.4118 -0.2817
  508MOL0     C66981   5.253  11.012   2.924  0.2088 -0.0235  0.4281
  508MOL0     O66982   5.351  11.108   2.937 -0.2679 -0.4409  0.5825
  508MOL0     C66983   5.347  11.223   2.846 -0.0593 -0.0156  0.0902
  508MOL0     C66984   5.474  11.310   2.867 -0.2583  0.0678 -1.3406
  508MOL0     C66985   5.478  11.436   2.775  0.1890 -0.7003  0.0548
  508MOL0     C66986   5.576  11.549   2.813  0.2116  0.0404 -0.3843
  508MOL0     C66987   5.566  11.669   2.729  0.2993  0.4295 -0.0164
  508MOL0     C66988   5.570  11.768   2.659 -0.0773  0.6348 -0.1420
  508MOL0     C66989   5.292  10.880   2.895  0.6060 -0.6694  0.0925
  508MOL0     C66990   5.190  10.781   2.890  0.0443  1.2517 -0.5366
  508MOL0     H66991   4.828  10.537   2.721 -0.3735  1.2986  1.4868
  508MOL0     H66992   4.650  10.350   2.729  0.0637 -2.2386  0.5059
  508MOL0     H66993   4.630  10.081   3.112  0.0181 -0.8337 -0.4852
  508MOL0     H66994   4.754  10.021   3.003 -0.4911 -3.0859  4.1880
  508MOL0     H66995   4.611   9.850   3.023  0.8045  1.3338  0.7651
  508MOL0     H66996   4.579   9.923   2.860 -1.7338 -0.0525 -0.4194
  508MOL0     H66997   4.372  10.034   2.977 -0.6639  0.2498  1.0621
  508MOL0     H66998   4.426   9.961   3.128  0.0089 -1.2046 -0.2552
  508MOL0     H66999   4.369   9.794   2.888  0.4881 -0.9796 -0.3519
  508MOL0     H67000   4.377   9.737   3.056 -0.9741  0.4596  1.4157
  508MOL0     H67001   4.154   9.876   2.926  0.2852  1.4789  0.6639
  508MOL0     H67002   4.168   9.876   3.098 -0.0701 -0.1057 -0.5530
  508MOL0     H67003   4.148   9.637   3.107 -3.0561  1.4016  0.4684
  508MOL0     H67004   4.168   9.625   2.932 -2.4737 -0.1167 -1.2895
  508MOL0     H67005   3.954   9.771   3.079  1.3042  0.6745 -0.5641
  508MOL0     H67006   3.965   9.753   2.897  0.9337  0.4655  0.0579
  508MOL0     H67007   3.950   9.544   3.124 -1.0196 -1.4702  0.1195
  508MOL0     H67008   3.957   9.495   2.951  1.2409  0.9382  0.1813
  508MOL0     H67009   3.721   9.645   3.211 -0.7137  0.3802  0.3010
  508MOL0     H67010   3.359   9.651   3.088 -1.9099 -0.6733  2.7789
  508MOL0     H67011   3.453   9.695   3.223 -1.2443  1.3865 -0.7097
  508MOL0     H67012   3.323   9.509   3.291 -2.0614  1.5608 -2.9735
  508MOL0     H67013   3.492   9.453   3.283  0.5156  2.2752 -1.0118
  508MOL0     H67014   3.449   9.302   3.097  0.5449 -1.0704  0.9022
  508MOL0     H67015   3.322   9.289   3.222  1.2856 -0.0844  0.3757
  508MOL0     H67016   3.238   9.296   2.989 -0.6992 -1.6248  2.4574
  508MOL0     H67017   3.316   9.454   2.964  3.1400 -1.9981  0.5564
  508MOL0     H67018   2.918   9.533   3.172 -1.7265 -0.2435  0.0615
  508MOL0     H67019   2.733   9.595   3.043  1.8526  2.2393  0.1845
  508MOL0     H67020   2.446   9.388   2.693  0.1289 -1.2756 -1.6598
  508MOL0     H67021   2.240   9.417   2.537  0.4055 -1.0992  0.0981
  508MOL0     H67022   2.118   9.665   2.319  2.0114  0.6772 -0.1963
  508MOL0     H67023   2.095   9.528   2.419  2.5546  3.1449  0.4271
  508MOL0     H67024   2.030   9.526   2.122  0.5327 -1.3688 -0.0747
  508MOL0     H67025   1.919   9.522   2.257  0.1305  0.1856  0.8992
  508MOL0     H67026   2.075   9.311   2.324 -0.1287 -0.7274  0.7720
  508MOL0     H67027   2.088   9.295   2.143  0.5013  1.8926 -0.3464
  508MOL0     H67028   1.825   9.315   2.287  1.0625  0.3856  1.3979
  508MOL0     H67029   1.852   9.282   2.109 -1.0318  2.7282  1.1791
  508MOL0     H67030   1.917   9.122   2.370 -1.8190  3.2207  0.9855
  508MOL0     H67031   1.996   9.070   2.220  0.4721  1.6113  0.5689
  508MOL0     H67032   1.791   8.980   2.143 -0.6565 -0.2115  0.0295
  508MOL0     H67033   1.697   9.106   2.192 -0.5789 -0.0712  0.8354
  508MOL0     H67034   1.829   8.906   2.385 -0.3364 -1.5977 -1.4679
  508MOL0     H67035   1.694   8.999   2.439 -0.5021 -0.7234  1.1135
  508MOL0     H67036   1.680   8.754   2.305  2.0165  1.2354 -1.5456
  508MOL0     H67037   1.608   8.890   2.197  1.2997 -0.1716 -0.3408
  508MOL0     H67038   2.488   9.591   2.251  3.1327 -0.1139  0.7658
  508MOL0     H67039   2.682   9.588   2.407  1.1548  0.1649  0.8156
  508MOL0     H67040   2.919   9.395   2.696 -2.8376 -0.1745  0.1266
  508MOL0     H67041   3.122   9.361   2.842 -0.2317  0.4808 -1.3645
  508MOL0     H67042   4.832  10.212   3.100  2.0297  1.7103  1.4092
  508MOL0     H67043   4.982  10.406   3.087  2.6585 -1.1407 -2.1276
  508MOL0     H67044   4.924  10.978   2.997  0.3457  3.0659 -1.8150
  508MOL0     H67045   5.107  11.146   2.999  1.1785  0.6817 -0.2168
  508MOL0     H67046   5.259  11.278   2.880  1.0036 -0.4220  4.0435
  508MOL0     H67047   5.340  11.195   2.741 -1.1682  0.7731 -0.0520
  508MOL0     H67048   5.479  11.339   2.972  1.0438  1.7282 -1.8174
  508MOL0     H67049   5.564  11.251   2.846  2.3138  2.7216  1.2527
  508MOL0     H67050   5.383  11.489   2.760  0.1343 -1.3481 -2.1446
  508MOL0     H67051   5.512  11.408   2.675  1.9904  0.7456  0.1979
  508MOL0     H67052   5.556  11.583   2.915 -0.7938  1.3186 -0.9800
  508MOL0     H67053   5.678  11.508   2.813  0.3713  0.3166 -2.7486
  508MOL0     H67054   5.562  11.855   2.597 -0.9272 -0.5095 -1.7128
  508MOL0     H67055   5.396  10.863   2.868  0.1863 -0.3919 -1.8765
  508MOL0     H67056   5.216  10.677   2.870 -1.6494  0.8043 -0.5383
  509MOL0     O67057   4.966   2.331   9.330  0.2686  0.0503  0.0377
  509MOL0     C67058   4.978   2.420   9.249  0.1964 -0.3752  0.6350
  509MOL0     O67059   4.892   2.450   9.146 -0.1712 -0.2253  0.6027
  509MOL0     C67060   4.772   2.391   9.126  0.4347 -0.4463 -0.3314
  509MOL0     C67061   4.700   2.325   9.234 -0.2575  0.4931 -0.0015
  509MOL0     C67062   4.571   2.290   9.213  0.3705  0.2660  1.0905
  509MOL0     C67063   4.515   2.291   9.087  0.3755 -0.0027 -0.3635
  509MOL0     O67064   4.381   2.270   9.051  0.1201 -0.2740  0.9221
  509MOL0     C67065   4.303   2.191   9.143  0.1273  0.6674 -0.4520
  509MOL0     C67066   4.181   2.153   9.068  0.0832  0.5382  0.0095
  509MOL0     C67067   4.074   2.129   9.171  0.2653 -1.1475  0.2810
  509MOL0     C67068   3.952   2.074   9.107 -0.1523 -0.3704  0.1668
  509MOL0     C67069   3.853   2.009   9.204 -0.5169  0.4963 -0.4628
  509MOL0     C67070   3.730   1.980   9.124  0.4564 -0.0192  0.0143
  509MOL0     C67071   3.603   1.934   9.213 -0.5220  0.2443  0.2020
  509MOL0     C67072   3.470   1.907   9.133  0.4608 -0.1805  0.1716
  509MOL0     N67073   3.387   2.029   9.156  0.4158  0.4648 -0.6027
  509MOL0     C67074   3.369   2.134   9.073  0.1745 -0.5176 -0.8156
  509MOL0     C67075   3.247   2.180   9.100 -0.7792 -0.2116  0.1051
  509MOL0     C67076   3.185   2.296   9.026 -0.3885  0.8420 -0.4394
  509MOL0     C67077   3.060   2.360   9.081  0.8398  1.5901 -0.8350
  509MOL0     C67078   3.094   2.440   9.201  0.1083 -0.3517  0.3066
  509MOL0     C67079   2.965   2.494   9.263 -0.1945  0.1429 -0.2589
  509MOL0     O67080   2.905   2.584   9.183  0.0879 -0.2236  0.2540
  509MOL0     C67081   2.780   2.619   9.222  1.0072  0.3899  0.6813
  509MOL0     C67082   2.740   2.649   9.352 -0.0635 -0.4326 -0.1321
  509MOL0     C67083   2.613   2.694   9.378 -0.1289 -0.0958 -0.3960
  509MOL0     C67084   2.511   2.691   9.281 -0.5058 -0.3338  0.8501
  509MOL0     C67085   2.373   2.718   9.319  0.0110 -0.1802  1.2993
  509MOL0     O67086   2.288   2.758   9.211  0.0227  0.0327 -0.8255
  509MOL0     C67087   2.150   2.764   9.237 -0.6880  0.1279  0.5710
  509MOL0     C67088   2.079   2.645   9.249 -0.5850 -0.2291  0.4019
  509MOL0     C67089   1.937   2.648   9.268 -0.2491  0.1476 -0.1226
  509MOL0     C67090   1.871   2.773   9.262 -0.7872  0.3205 -0.2725
  509MOL0     O67091   1.731   2.772   9.265 -0.2698  0.0591  0.6873
  509MOL0     C67092   1.665   2.894   9.282  0.2725 -0.5791 -0.0401
  509MOL0     C67093   1.509   2.883   9.259 -0.3569 -0.1713  0.2209
  509MOL0     C67094   1.410   2.988   9.308  0.5307  0.1345  0.0148
  509MOL0     C67095   1.276   2.940   9.254  0.0487 -0.2300 -0.1376
  509MOL0     C67096   1.161   3.019   9.304 -0.8820  0.2342  0.3278
  509MOL0     C67097   1.147   3.168   9.266  0.0179  0.2044  0.4023
  509MOL0     C67098   0.996   3.210   9.254  0.6309  0.1810  0.5808
  509MOL0     C67099   0.935   3.219   9.394 -0.2652  0.5344 -0.3649
  509MOL0    Cl67100   0.762   3.269   9.386  0.2119  0.3288 -0.5058
  509MOL0     C67101   1.944   2.892   9.250 -0.0161  0.2550  0.6451
  509MOL0     C67102   2.085   2.886   9.243 -1.0905  0.2273 -0.5574
  509MOL0     O67103   2.338   2.707   9.437  0.1815 -0.1850  0.4259
  509MOL0     C67104   2.554   2.659   9.150 -0.4474 -0.7651 -0.6105
  509MOL0     C67105   2.684   2.622   9.120 -0.2969 -0.0270  0.2490
  509MOL0     N67106   3.184   2.106   9.197 -0.2251 -0.6538 -0.5156
  509MOL0     N67107   3.268   2.014   9.232  0.9021  0.3315  0.3232
  509MOL0     C67108   4.593   2.336   8.978  0.5327  0.0484 -0.1035
  509MOL0     C67109   4.720   2.392   8.999 -0.1417 -0.2128  0.4383
  509MOL0     C67110   5.106   2.483   9.246  0.3034 -0.7269 -0.3734
  509MOL0     C67111   5.216   2.446   9.333  0.4049 -0.0380  0.0933
  509MOL0     C67112   5.344   2.498   9.310 -0.3497  0.3641 -0.1449
  509MOL0     C67113   5.368   2.593   9.221  0.0348 -0.3008 -0.1935
  509MOL0     O67114   5.483   2.654   9.201 -0.3160 -0.8061 -0.4825
  509MOL0     C67115   5.597   2.594   9.255 -0.3754  0.0645 -0.7601
  509MOL0     C67116   5.704   2.666   9.180  0.8045  0.3662 -0.2084
  509MOL0     C67117   5.843   2.630   9.238  0.9782 -1.1141  0.3828
  509MOL0     C67118   5.951   2.736   9.192 -0.1152  0.9480 -0.2716
  509MOL0     C67119   5.988   2.727   9.049  0.4009  0.5320 -0.1953
  509MOL0     C67120   6.045   2.721   8.941 -0.8891 -0.7224  0.2150
  509MOL0     C67121   5.268   2.623   9.130 -0.6169 -1.0924 -0.1697
  509MOL0     C67122   5.137   2.579   9.144  0.1266  0.0904  0.2736
  509MOL0     H67123   4.738   2.321   9.335  0.5029 -2.8087 -0.3156
  509MOL0     H67124   4.500   2.257   9.288  0.3851 -1.1066  0.5210
  509MOL0     H67125   4.275   2.260   9.223  2.8780  0.7075  0.5654
  509MOL0     H67126   4.359   2.108   9.186  3.7654  3.0405 -0.0862
  509MOL0     H67127   4.194   2.066   9.003  1.9233  0.4340  0.4787
  509MOL0     H67128   4.154   2.227   8.991 -0.5655 -1.0060 -1.3254
  509MOL0     H67129   4.035   2.218   9.221  0.5403 -0.4884 -0.6549
  509MOL0     H67130   4.106   2.056   9.247  1.9200  0.4602  1.1942
  509MOL0     H67131   3.906   2.161   9.059  1.6088  1.7634  2.0910
  509MOL0     H67132   3.979   2.001   9.030  0.9879 -1.6091  1.6842
  509MOL0     H67133   3.832   2.084   9.281 -2.7832 -0.2736 -0.2777
  509MOL0     H67134   3.894   1.918   9.249  0.7342  1.3181  0.1279
  509MOL0     H67135   3.746   1.899   9.052  0.3117 -1.2206  1.3020
  509MOL0     H67136   3.696   2.071   9.075  0.2833  1.8840  3.4082
  509MOL0     H67137   3.640   1.846   9.266 -0.0642 -0.1535 -0.7730
  509MOL0     H67138   3.585   2.006   9.294  0.0385 -2.0333  2.4741
  509MOL0     H67139   3.425   1.814   9.169 -2.3103  1.1646  0.4414
  509MOL0     H67140   3.483   1.902   9.025 -3.2347  2.3691 -0.5659
  509MOL0     H67141   3.428   2.182   8.996  0.2819  1.0810  0.2014
  509MOL0     H67142   3.159   2.249   8.930 -0.3991 -0.9106  0.3777
  509MOL0     H67143   3.265   2.367   9.003  1.5073 -0.9402  0.3142
  509MOL0     H67144   2.987   2.286   9.115  0.9477  1.6740 -0.4079
  509MOL0     H67145   3.006   2.419   9.007 -0.1977 -0.2792 -1.6452
  509MOL0     H67146   3.153   2.387   9.276  1.0784 -1.7707 -1.3809
  509MOL0     H67147   3.140   2.533   9.167 -4.6637  1.4103 -2.2948
  509MOL0     H67148   3.005   2.547   9.350  0.9917  0.9547 -1.2597
  509MOL0     H67149   2.900   2.414   9.299  0.4361  0.0569  0.7302
  509MOL0     H67150   2.809   2.641   9.436  0.7430 -1.7485 -0.8837
  509MOL0     H67151   2.588   2.728   9.478 -0.3330 -1.1586 -0.0730
  509MOL0     H67152   2.127   2.548   9.239  2.6089  1.2501  0.2100
  509MOL0     H67153   1.869   2.563   9.267 -0.0612 -0.0348 -1.9198
  509MOL0     H67154   1.692   2.973   9.210 -0.9838  0.0996  0.2046
  509MOL0     H67155   1.690   2.937   9.379 -1.5980  1.1627 -0.2590
  509MOL0     H67156   1.464   2.787   9.285 -0.8354  0.5907  2.4500
  509MOL0     H67157   1.506   2.880   9.150 -3.2268  1.1685  0.1705
  509MOL0     H67158   1.435   3.088   9.271  0.9129 -1.1293 -3.4424
  509MOL0     H67159   1.403   2.983   9.417 -0.9973 -0.2381 -0.0895
  509MOL0     H67160   1.276   2.955   9.146  1.2112 -0.4520 -0.1906
  509MOL0     H67161   1.262   2.835   9.282  1.1241 -0.4276 -0.2646
  509MOL0     H67162   1.160   3.005   9.413  1.8270 -1.5999  0.1989
  509MOL0     H67163   1.078   2.959   9.265  1.6056 -1.8709 -2.1214
  509MOL0     H67164   1.195   3.180   9.169  0.2761 -0.9827  0.3640
  509MOL0     H67165   1.201   3.227   9.341 -0.2553 -0.3069  1.0143
  509MOL0     H67166   0.975   3.307   9.206  1.8527  0.5940  0.8569
  509MOL0     H67167   0.944   3.143   9.186  2.3547 -1.5336  0.8984
  509MOL0     H67168   0.998   3.287   9.453  1.4706 -1.5987  0.3880
  509MOL0     H67169   0.945   3.123   9.446  0.1610  0.4286 -0.6347
  509MOL0     H67170   1.909   2.994   9.236  1.6556  0.4429 -3.3917
  509MOL0     H67171   2.149   2.972   9.228  0.5899 -1.0036 -0.6603
  509MOL0     H67172   2.476   2.663   9.075 -2.0755 -0.6878  1.0025
  509MOL0     H67173   2.716   2.597   9.020 -0.0988  1.4338 -0.0823
  509MOL0     H67174   4.546   2.347   8.880  0.6405  1.1731 -0.0394
  509MOL0     H67175   4.775   2.440   8.919 -2.1334 -2.0408 -2.2075
  509MOL0     H67176   5.194   2.384   9.419 -2.1917 -0.0157 -0.4473
  509MOL0     H67177   5.424   2.460   9.373  0.0770 -1.7118 -1.8138
  509MOL0     H67178   5.608   2.489   9.228  0.7017 -0.2660  0.8409
  509MOL0     H67179   5.605   2.618   9.361 -0.5176  0.3297 -0.8079
  509MOL0     H67180   5.692   2.631   9.077 -0.2855  0.6442 -0.1790
  509MOL0     H67181   5.699   2.775   9.187  0.5270  0.4360 -1.3119
  509MOL0     H67182   5.877   2.531   9.207 -1.9498 -1.5229 -1.9283
  509MOL0     H67183   5.842   2.622   9.347  2.7846 -1.7908  0.3971
  509MOL0     H67184   5.909   2.834   9.217  0.1408  1.0784 -0.3503
  509MOL0     H67185   6.042   2.710   9.247 -0.8519 -0.1928  0.4574
  509MOL0     H67186   6.079   2.701   8.841 -1.0283 -0.5854  0.1415
  509MOL0     H67187   5.293   2.695   9.053 -4.4941 -2.3573 -2.8903
  509MOL0     H67188   5.062   2.621   9.079 -1.5282 -1.3012  1.2145
  510MOL0     O67189   3.447   5.313   8.275  0.7697  0.5686 -0.7802
  510MOL0     C67190   3.370   5.229   8.318  0.0548 -0.2953  1.1731
  510MOL0     O67191   3.403   5.124   8.407 -0.7346  0.3941 -0.1233
  510MOL0     C67192   3.533   5.085   8.409 -0.0866  0.5662  0.6318
  510MOL0     C67193   3.566   4.963   8.349 -0.8766 -0.1611  0.2059
  510MOL0     C67194   3.697   4.914   8.358 -0.3707  0.1794 -0.2399
  510MOL0     C67195   3.800   4.988   8.408  0.2734  0.7515 -0.1223
  510MOL0     O67196   3.934   4.962   8.425  0.1911  0.4073  0.9371
  510MOL0     C67197   3.980   4.835   8.372 -0.0095 -0.6637  0.3684
  510MOL0     C67198   4.134   4.829   8.394  0.5293  0.8058 -0.0849
  510MOL0     C67199   4.190   4.711   8.311 -0.5495 -0.0614  0.5958
  510MOL0     C67200   4.340   4.720   8.312 -0.3536 -0.2266 -0.4003
  510MOL0     C67201   4.403   4.664   8.445  0.5762  0.7152 -0.9309
  510MOL0     C67202   4.555   4.671   8.470 -0.1903  0.2385  0.0666
  510MOL0     C67203   4.638   4.590   8.366  0.7209 -0.9322 -0.1566
  510MOL0     C67204   4.784   4.606   8.405  0.4595 -0.0855  0.1629
  510MOL0     N67205   4.830   4.508   8.506 -0.9465 -0.2992 -0.0111
  510MOL0     C67206   4.860   4.374   8.483 -0.4608 -0.0930  0.4490
  510MOL0     C67207   4.908   4.334   8.602 -0.6169  0.0004 -0.3427
  510MOL0     C67208   4.960   4.199   8.631 -1.2438 -0.3885  0.2287
  510MOL0     C67209   4.857   4.093   8.686 -0.3672 -0.9219 -0.3394
  510MOL0     C67210   4.926   3.954   8.691  0.7508  0.3029 -0.0146
  510MOL0     C67211   4.823   3.851   8.737  0.3055 -0.7992 -0.1657
  510MOL0     O67212   4.764   3.898   8.863 -0.2031 -1.2423 -0.1237
  510MOL0     C67213   4.654   3.834   8.908 -0.2107  0.1632 -0.5582
  510MOL0     C67214   4.611   3.861   9.034  0.1267  0.4047 -1.3621
  510MOL0     C67215   4.496   3.799   9.087  0.4015 -0.5613  0.3137
  510MOL0     C67216   4.427   3.700   9.020  1.3222 -0.4978  0.9247
  510MOL0     C67217   4.298   3.648   9.070 -0.3594 -0.9841 -0.1188
  510MOL0     O67218   4.207   3.605   8.981  0.6453 -0.3448 -0.0188
  510MOL0     C67219   4.083   3.553   9.025 -0.5724 -0.9740 -0.1633
  510MOL0     C67220   4.069   3.451   9.122  0.3238  0.4737 -0.4693
  510MOL0     C67221   3.942   3.408   9.163 -0.4106 -0.1928 -0.4935
  510MOL0     C67222   3.829   3.468   9.115 -0.7801 -0.0440  0.2200
  510MOL0     O67223   3.701   3.435   9.166 -0.3872  0.0454  0.6371
  510MOL0     C67224   3.678   3.294   9.188  0.1516  0.7964  0.0435
  510MOL0     C67225   3.528   3.273   9.215  0.0010 -0.1287 -0.3962
  510MOL0     C67226   3.436   3.283   9.090 -0.0171  0.3819 -0.0593
  510MOL0     C67227   3.295   3.290   9.143  0.4802  0.2276 -0.0090
  510MOL0     C67228   3.232   3.150   9.156  0.4025 -0.1066  0.0217
  510MOL0     C67229   3.075   3.129   9.174  0.1435 -0.4929 -0.4051
  510MOL0     C67230   3.045   2.981   9.139 -1.3716 -0.0960  0.2156
  510MOL0     C67231   2.898   2.956   9.110  0.3958 -0.3718 -0.4355
  510MOL0    Cl67232   2.800   2.997   9.249  0.3426 -0.0197 -0.0320
  510MOL0     C67233   3.837   3.564   9.009 -0.1181  0.4824  0.5350
  510MOL0     C67234   3.968   3.605   8.964 -0.7229  0.1661 -0.1053
  510MOL0     O67235   4.296   3.639   9.194  0.0241 -0.3417 -0.5465
  510MOL0     C67236   4.460   3.689   8.883  0.6373  0.2161  0.5278
  510MOL0     C67237   4.574   3.746   8.835 -0.1565 -0.1367  0.3645
  510MOL0     N67238   4.901   4.441   8.690 -1.1306  0.0968  0.0659
  510MOL0     N67239   4.860   4.546   8.626 -0.5623 -0.0675 -0.7622
  510MOL0     C67240   3.763   5.103   8.474 -0.0757  0.0816  1.1220
  510MOL0     C67241   3.633   5.160   8.473  0.0370  0.4497  0.1372
  510MOL0     C67242   3.230   5.235   8.273 -0.2793  0.0951 -0.0715
  510MOL0     C67243   3.177   5.348   8.212 -0.6270 -0.5231 -0.1818
  510MOL0     C67244   3.039   5.355   8.176 -0.3312  0.3515  0.6070
  510MOL0     C67245   2.963   5.236   8.203 -0.3342  0.2101  0.1419
  510MOL0     O67246   2.832   5.255   8.170 -0.3614 -0.9538 -0.2406
  510MOL0     C67247   2.744   5.148   8.178  0.1468  0.3022 -1.1452
  510MOL0     C67248   2.749   5.064   8.059 -0.8484  0.1317 -0.2008
  510MOL0     C67249   2.626   4.979   8.067  0.4795  0.7781 -0.1932
  510MOL0     C67250   2.633   4.868   7.952 -0.8920  0.1082  0.5643
  510MOL0     C67251   2.531   4.767   7.977  0.3654 -0.2591  0.2274
  510MOL0     C67252   2.444   4.682   8.000 -0.2551  0.4614  0.0625
  510MOL0     C67253   3.020   5.122   8.253 -0.4149 -0.4142 -0.6277
  510MOL0     C67254   3.156   5.115   8.297 -0.5678 -0.6795  0.4678
  510MOL0     H67255   3.495   4.895   8.302  0.3508 -1.6993  0.4885
  510MOL0     H67256   3.729   4.828   8.300 -1.6610  0.6574 -1.7052
  510MOL0     H67257   3.956   4.847   8.266  0.0058  3.1283  0.6585
  510MOL0     H67258   3.932   4.751   8.424 -2.5770  0.2314 -0.3581
  510MOL0     H67259   4.145   4.808   8.501 -1.9904  1.9316  0.4560
  510MOL0     H67260   4.176   4.924   8.359  2.7052 -0.6095 -1.5977
  510MOL0     H67261   4.157   4.724   8.207 -0.5728 -0.4678  0.5491
  510MOL0     H67262   4.154   4.611   8.339  2.1570 -1.1373  0.4644
  510MOL0     H67263   4.384   4.654   8.237 -0.2495 -1.2342  0.5186
  510MOL0     H67264   4.371   4.822   8.288 -0.9403 -0.4514 -2.2674
  510MOL0     H67265   4.374   4.559   8.449  2.9961  0.0057 -0.3707
  510MOL0     H67266   4.358   4.714   8.531  2.0938  1.1132 -0.3326
  510MOL0     H67267   4.571   4.634   8.571  1.2730 -0.3545 -0.3610
  510MOL0     H67268   4.584   4.777   8.469  2.1497 -0.3455  0.7612
  510MOL0     H67269   4.614   4.484   8.373  1.0009 -0.9270  1.0111
  510MOL0     H67270   4.627   4.620   8.261 -0.5159 -1.6192 -0.2504
  510MOL0     H67271   4.802   4.707   8.443  2.8704 -0.1071 -0.7447
  510MOL0     H67272   4.843   4.597   8.312  0.0577 -0.1738 -0.0846
  510MOL0     H67273   4.854   4.320   8.389 -1.0609  1.9286 -0.7422
  510MOL0     H67274   5.038   4.218   8.706 -1.7367 -0.8117  0.8464
  510MOL0     H67275   5.004   4.156   8.540 -0.4023  2.7718 -1.0078
  510MOL0     H67276   4.763   4.098   8.629 -0.1984 -1.1423 -0.6384
  510MOL0     H67277   4.836   4.121   8.790  2.8593  1.0172 -0.0943
  510MOL0     H67278   4.961   3.925   8.592 -2.1593  3.1466 -2.1028
  510MOL0     H67279   5.004   3.953   8.768  0.4775  2.6928  0.3755
  510MOL0     H67280   4.872   3.755   8.759  0.0318 -0.6000  1.3902
  510MOL0     H67281   4.742   3.840   8.664 -0.2311  0.0638  0.2908
  510MOL0     H67282   4.669   3.934   9.091 -1.8895  0.0600  1.3275
  510MOL0     H67283   4.465   3.835   9.185  1.5248 -0.3620  0.6044
  510MOL0     H67284   4.147   3.403   9.180 -0.1738  0.5961  0.3253
  510MOL0     H67285   3.942   3.323   9.231  0.4887 -0.3301 -0.6487
  510MOL0     H67286   3.741   3.262   9.271 -1.8096 -0.0047  1.3204
  510MOL0     H67287   3.699   3.240   9.095  0.6715  2.3385 -0.7884
  510MOL0     H67288   3.495   3.352   9.283  0.3667 -0.3186  0.0057
  510MOL0     H67289   3.511   3.183   9.275  1.8744 -0.9473 -1.0307
  510MOL0     H67290   3.459   3.192   9.034  1.0685  1.3275 -1.2123
  510MOL0     H67291   3.464   3.367   9.026  1.6658  1.3985  1.8792
  510MOL0     H67292   3.282   3.340   9.239  3.8400 -2.7077  2.2569
  510MOL0     H67293   3.244   3.349   9.067  1.4698 -0.7214 -1.4710
  510MOL0     H67294   3.271   3.104   9.248 -0.1628 -1.6429 -0.4797
  510MOL0     H67295   3.263   3.097   9.066 -2.2765  0.5894 -1.4076
  510MOL0     H67296   3.012   3.201   9.122 -1.7029  0.9108  3.3896
  510MOL0     H67297   3.047   3.145   9.279  3.1555 -1.3474  0.6353
  510MOL0     H67298   3.106   2.943   9.056 -0.1700 -1.6160  1.7311
  510MOL0     H67299   3.090   2.925   9.222 -0.1328 -0.3574 -0.5952
  510MOL0     H67300   2.878   2.852   9.082 -1.1775 -0.4909  1.0323
  510MOL0     H67301   2.858   3.015   9.026 -2.3410 -1.2525  0.1493
  510MOL0     H67302   3.745   3.591   8.958 -0.2464  1.1504  1.1016
  510MOL0     H67303   3.977   3.682   8.887 -1.4080  0.1584 -0.1979
  510MOL0     H67304   4.399   3.621   8.823  1.1133 -1.8666  2.2720
  510MOL0     H67305   4.608   3.712   8.737 -0.5671  1.0578 -0.2116
  510MOL0     H67306   3.840   5.161   8.523  0.8023  0.7266 -0.8946
  510MOL0     H67307   3.616   5.261   8.511  1.3920  0.4688  0.7288
  510MOL0     H67308   3.239   5.437   8.212 -0.1328 -0.5349  5.2774
  510MOL0     H67309   2.992   5.442   8.132 -1.6932  0.5765  2.4015
  510MOL0     H67310   2.644   5.189   8.191  0.3887  0.4505  0.5749
  510MOL0     H67311   2.764   5.096   8.273  0.7702  2.0985 -0.2319
  510MOL0     H67312   2.763   5.129   7.973  2.7642  0.2289  0.2771
  510MOL0     H67313   2.841   5.004   8.069  1.0919  2.8644 -0.4538
  510MOL0     H67314   2.537   5.042   8.058 -0.4560 -0.2170  1.5570
  510MOL0     H67315   2.626   4.911   8.152 -1.1062 -0.6874 -1.3074
  510MOL0     H67316   2.625   4.905   7.850  0.2263 -0.8689  0.0931
  510MOL0     H67317   2.730   4.816   7.949 -1.8260 -1.6725 -0.3434
  510MOL0     H67318   2.380   4.597   8.007  0.3776 -0.4382 -3.2369
  510MOL0     H67319   2.961   5.032   8.264 -0.6709 -0.0714  1.0999
  510MOL0     H67320   3.203   5.026   8.337  1.0808 -0.3536 -0.6362
  511MOL0     O67321   2.389   7.835   5.145 -0.3546 -0.1984  0.2374
  511MOL0     C67322   2.341   7.760   5.230  0.5347 -0.0100  0.0420
  511MOL0     O67323   2.210   7.750   5.261 -0.0038  0.2097 -0.5570
  511MOL0     C67324   2.119   7.830   5.198  0.0619  0.2697 -0.3197
  511MOL0     C67325   2.030   7.882   5.293  0.3480  0.7975 -0.2307
  511MOL0     C67326   1.921   7.950   5.240 -0.1727 -0.1483 -0.3773
  511MOL0     C67327   1.893   7.955   5.102 -0.1347 -0.6298  0.6379
  511MOL0     O67328   1.773   8.002   5.053 -0.1434 -0.8649 -0.7579
  511MOL0     C67329   1.662   7.995   5.142 -0.2401 -0.2141 -0.4876
  511MOL0     C67330   1.536   7.975   5.059  0.2705  0.5331  0.7522
  511MOL0     C67331   1.411   7.956   5.148  0.2238 -0.1017  0.4029
  511MOL0     C67332   1.394   7.807   5.197 -0.5056  0.0737  0.1821
  511MOL0     C67333   1.253   7.763   5.249 -0.0482  0.0565 -0.2903
  511MOL0     C67334   1.175   7.877   5.312  0.4390 -0.2470  0.0428
  511MOL0     C67335   1.028   7.829   5.341 -0.1764 -0.5911  0.5864
  511MOL0     C67336   0.946   7.786   5.226  0.1103  1.1954 -0.3364
  511MOL0     N67337   0.806   7.752   5.267 -0.0016  0.5855  0.2013
  511MOL0     C67338   0.750   7.625   5.295  0.2127  0.0855  0.4133
  511MOL0     C67339   0.625   7.650   5.330  0.1263 -1.2788  0.0452
  511MOL0     C67340   0.519   7.550   5.363 -0.5101 -0.3620  0.0254
  511MOL0     C67341   0.378   7.600   5.338  0.7150  0.2240 -0.6719
  511MOL0     C67342   0.286   7.487   5.393 -0.1271 -0.2838 -1.3202
  511MOL0     C67343   0.138   7.532   5.409 -0.1190  0.3143  0.2940
  511MOL0     O67344   0.080   7.563   5.280  0.0965 -0.2035 -0.4460
  511MOL0     C67345  -0.038   7.641   5.269 -0.2077  0.0354 -0.1328
  511MOL0     C67346  -0.123   7.656   5.374 -0.6100 -1.0519 -0.6486
  511MOL0     C67347  -0.235   7.739   5.370 -0.3205  0.4602  0.2979
  511MOL0     C67348  -0.267   7.807   5.249  0.3192  0.3034 -0.2972
  511MOL0     C67349  -0.400   7.874   5.233 -0.9929  0.4204 -0.3153
  511MOL0     O67350  -0.479   7.868   5.341  0.0936  0.3145 -0.8222
  511MOL0     C67351  -0.585   7.947   5.340 -0.2040  0.3666  0.0924
  511MOL0     C67352  -0.708   7.910   5.277 -0.8719 -0.1193  0.2676
  511MOL0     C67353  -0.803   8.012   5.264 -0.5399  0.4730  0.7578
  511MOL0     C67354  -0.782   8.140   5.311  0.8462 -0.5157 -0.4029
  511MOL0     O67355  -0.887   8.225   5.305 -0.3630 -0.1601  0.4227
  511MOL0     C67356  -0.902   8.331   5.397  0.3999 -0.1258  0.2709
  511MOL0     C67357  -1.021   8.420   5.343  0.1096  0.3457 -0.3194
  511MOL0     C67358  -1.162   8.358   5.345  1.1472 -0.3737 -1.6127
  511MOL0     C67359  -1.212   8.336   5.497 -0.3390  0.2645  0.9152
  511MOL0     C67360  -1.351   8.274   5.497  0.7292 -0.5141 -0.0019
  511MOL0     C67361  -1.456   8.362   5.431  0.2268  1.0703  0.1257
  511MOL0     C67362  -1.602   8.328   5.472  0.3315  0.5181  0.1306
  511MOL0     C67363  -1.641   8.173   5.499 -0.1020  0.0470  0.2974
  511MOL0    Cl67364  -1.589   8.052   5.373 -0.1644 -0.2359 -0.2361
  511MOL0     C67365  -0.663   8.168   5.379  0.9447  0.0686 -0.3730
  511MOL0     C67366  -0.564   8.073   5.397  0.2741 -0.7397  1.0828
  511MOL0     O67367  -0.431   7.938   5.131 -0.3255 -0.0923  0.1205
  511MOL0     C67368  -0.183   7.785   5.134  0.3360 -0.3170  0.0108
  511MOL0     C67369  -0.071   7.694   5.146 -0.4912 -1.1398  0.3926
  511MOL0     N67370   0.613   7.782   5.346  0.3579 -0.5283  1.3642
  511MOL0     N67371   0.715   7.839   5.300 -0.0058 -0.3963  0.5920
  511MOL0     C67372   1.984   7.907   5.009  0.6210  0.0255 -0.2439
  511MOL0     C67373   2.100   7.852   5.064 -0.0476  0.5923  0.4279
  511MOL0     C67374   2.417   7.650   5.287 -0.5815  0.0024  1.0275
  511MOL0     C67375   2.500   7.572   5.203  0.4939  0.0789  1.0718
  511MOL0     C67376   2.589   7.476   5.254  0.2126 -0.5493  0.8356
  511MOL0     C67377   2.587   7.458   5.390 -0.5503  0.2565  0.1428
  511MOL0     O67378   2.663   7.362   5.436 -0.7016 -0.1413  0.5461
  511MOL0     C67379   2.713   7.379   5.572 -0.2200 -0.1960  0.2499
  511MOL0     C67380   2.824   7.276   5.599  0.3086 -0.1803  0.0745
  511MOL0     C67381   2.970   7.305   5.561 -0.1372  0.0041  0.6065
  511MOL0     C67382   3.060   7.183   5.583  0.1616 -0.6853  0.3761
  511MOL0     C67383   3.195   7.218   5.531  0.1316 -0.4780 -0.5595
  511MOL0     C67384   3.296   7.263   5.475  0.3376 -0.6628  0.6226
  511MOL0     C67385   2.500   7.539   5.475 -0.9692 -0.3776 -0.6170
  511MOL0     C67386   2.427   7.641   5.422 -1.1374 -0.2841 -0.1211
  511MOL0     H67387   2.039   7.837   5.391  1.4296 -1.2848 -1.2170
  511MOL0     H67388   1.849   7.984   5.314 -0.0613  3.1596 -1.6202
  511MOL0     H67389   1.656   8.079   5.211  1.6750 -1.8717  1.8798
  511MOL0     H67390   1.667   7.908   5.209 -1.6735  2.0612  2.8235
  511MOL0     H67391   1.552   7.895   4.987 -0.5723 -0.0383  1.1842
  511MOL0     H67392   1.509   8.060   4.996  0.0183 -1.6665 -2.3633
  511MOL0     H67393   1.328   7.980   5.081  1.5616 -0.2742 -1.4178
  511MOL0     H67394   1.405   8.032   5.226  2.6249  1.5840 -0.9068
  511MOL0     H67395   1.416   7.731   5.122 -2.1681 -1.1241  0.8380
  511MOL0     H67396   1.461   7.803   5.283 -2.4166  0.3536  1.7662
  511MOL0     H67397   1.273   7.687   5.325  0.3738  1.4685  1.0512
  511MOL0     H67398   1.192   7.719   5.170  0.1970  2.5322 -1.9530
  511MOL0     H67399   1.176   7.966   5.248  0.8669 -0.8641 -0.8260
  511MOL0     H67400   1.221   7.896   5.409  1.2114  2.1410 -0.7335
  511MOL0     H67401   1.045   7.738   5.399  0.2080 -0.5404  0.5557
  511MOL0     H67402   0.981   7.912   5.395  3.0388  2.3114 -0.6842
  511MOL0     H67403   0.986   7.704   5.165 -2.1344  1.9815 -3.1072
  511MOL0     H67404   0.939   7.867   5.153 -3.0828  1.0970 -0.2778
  511MOL0     H67405   0.792   7.528   5.269 -0.4307  0.1652 -1.0015
  511MOL0     H67406   0.544   7.521   5.465 -1.0173  0.4935  0.4005
  511MOL0     H67407   0.539   7.466   5.296  1.5200  0.3083 -0.2886
  511MOL0     H67408   0.353   7.609   5.232  0.9763  0.4600 -0.7146
  511MOL0     H67409   0.357   7.696   5.386 -1.8460 -0.7034  0.2463
  511MOL0     H67410   0.283   7.398   5.329 -1.0121 -0.7798 -0.6156
  511MOL0     H67411   0.322   7.458   5.491  0.4316 -1.1535 -1.7717
  511MOL0     H67412   0.129   7.624   5.467  1.5239  0.0089  1.0926
  511MOL0     H67413   0.080   7.454   5.459 -2.7555  0.4342 -2.3347
  511MOL0     H67414  -0.107   7.619   5.475 -2.2792  0.4125  0.2174
  511MOL0     H67415  -0.301   7.729   5.455  0.1637 -0.5940  0.5613
  511MOL0     H67416  -0.710   7.811   5.233  1.5049  0.0199 -0.2980
  511MOL0     H67417  -0.902   7.989   5.226  0.3118  0.2013 -1.4257
  511MOL0     H67418  -0.816   8.399   5.395 -0.4721  1.0466  1.0148
  511MOL0     H67419  -0.914   8.302   5.502 -1.3609  0.4794  0.2716
  511MOL0     H67420  -0.990   8.455   5.244  2.9392 -0.2460  0.2721
  511MOL0     H67421  -1.032   8.515   5.396 -0.0035  1.0107 -1.5107
  511MOL0     H67422  -1.162   8.258   5.301  1.8833 -0.9007 -0.4742
  511MOL0     H67423  -1.219   8.431   5.287  2.9044  1.5010 -1.1264
  511MOL0     H67424  -1.146   8.268   5.551 -0.5042  0.6829  1.6612
  511MOL0     H67425  -1.210   8.433   5.549  1.2188 -0.5482  2.4824
  511MOL0     H67426  -1.374   8.271   5.604 -0.9935  4.3773  0.0111
  511MOL0     H67427  -1.354   8.179   5.442  1.4294  0.9749 -2.7800
  511MOL0     H67428  -1.451   8.359   5.322 -1.6857  1.1196  0.0150
  511MOL0     H67429  -1.436   8.467   5.452 -1.7771  1.7245 -0.9615
  511MOL0     H67430  -1.634   8.378   5.564  2.3608  0.8653  0.6966
  511MOL0     H67431  -1.667   8.366   5.393  0.3644 -0.7938 -0.5500
  511MOL0     H67432  -1.750   8.171   5.503 -0.0723 -2.3302  1.6391
  511MOL0     H67433  -1.604   8.143   5.597 -1.3025  2.4441  1.5736
  511MOL0     H67434  -0.632   8.265   5.418 -0.9949  0.7067 -0.2837
  511MOL0     H67435  -0.471   8.082   5.452  0.2446  0.7834  0.9193
  511MOL0     H67436  -0.197   7.844   5.045  0.9011 -1.6934 -1.0342
  511MOL0     H67437  -0.015   7.678   5.055 -0.5206  0.0947  0.1443
  511MOL0     H67438   1.976   7.906   4.901  1.2612  2.1937 -0.3694
  511MOL0     H67439   2.178   7.798   5.012 -0.5112 -0.1388  0.4698
  511MOL0     H67440   2.492   7.586   5.096 -0.9617  0.5432  1.2259
  511MOL0     H67441   2.662   7.424   5.192 -0.4833 -0.3254 -0.1960
  511MOL0     H67442   2.631   7.372   5.644 -0.6764 -0.5234 -0.2937
  511MOL0     H67443   2.757   7.479   5.584 -0.3710 -0.2023  0.8878
  511MOL0     H67444   2.810   7.254   5.706 -0.0440 -0.0616  0.0516
  511MOL0     H67445   2.776   7.191   5.550 -5.6274  2.2598  0.8015
  511MOL0     H67446   3.013   7.383   5.624 -0.4464  1.8024 -1.2932
  511MOL0     H67447   2.964   7.346   5.460 -1.7676  2.3252  1.5617
  511MOL0     H67448   3.059   7.165   5.691 -1.8557  2.2544  0.9823
  511MOL0     H67449   3.030   7.095   5.526  1.3893  0.1690 -1.6942
  511MOL0     H67450   3.385   7.302   5.431 -0.8951  0.7054 -0.7862
  511MOL0     H67451   2.497   7.522   5.582  0.4755 -2.4385 -0.8340
  511MOL0     H67452   2.362   7.705   5.480 -0.2892  1.8438 -1.4036
  512MOL0     O67453  10.380   0.529   7.990  0.4420  0.6520 -0.4945
  512MOL0     C67454  10.423   0.459   8.083  0.5195  0.0460  0.3503
  512MOL0     O67455  10.372   0.444   8.208  0.3707  0.1045  0.3351
  512MOL0     C67456  10.238   0.462   8.237 -0.3491 -0.0869 -0.0530
  512MOL0     C67457  10.140   0.428   8.143 -0.1710 -0.5590  0.4302
  512MOL0     C67458  10.007   0.471   8.160 -0.3861 -0.0712  0.2411
  512MOL0     C67459   9.975   0.544   8.282  0.6293 -0.1207 -0.3644
  512MOL0     O67460   9.855   0.596   8.309  0.2685  0.3415 -0.2259
  512MOL0     C67461   9.827   0.712   8.236  0.7367  0.0493  0.5568
  512MOL0     C67462   9.673   0.746   8.226 -0.2970  0.3196  0.2787
  512MOL0     C67463   9.616   0.815   8.346  0.6620 -0.7166 -0.0622
  512MOL0     C67464   9.491   0.896   8.309 -0.5473  0.5599 -0.1263
  512MOL0     C67465   9.374   0.818   8.235  0.0074  0.2230  1.0280
  512MOL0     C67466   9.290   0.924   8.163  0.4379 -0.1378  0.8758
  512MOL0     C67467   9.154   0.864   8.139 -1.1208 -0.0410  0.3334
  512MOL0     C67468   9.060   0.950   8.065  0.3908  0.1763  0.0832
  512MOL0     N67469   9.080   0.934   7.921 -0.9269  0.0239 -0.1244
  512MOL0     C67470   9.168   1.010   7.841  0.0856 -0.4536  0.1643
  512MOL0     C67471   9.141   0.958   7.719  0.5629 -0.2600  0.3345
  512MOL0     C67472   9.193   1.020   7.583 -0.2206 -0.7655  0.1116
  512MOL0     C67473   9.081   1.065   7.488  0.1688 -0.4954 -0.1248
  512MOL0     C67474   9.135   1.121   7.354  0.1262 -0.4806 -0.6394
  512MOL0     C67475   9.172   1.269   7.364  0.0100 -0.5235  0.7819
  512MOL0     O67476   9.074   1.355   7.423 -0.1721 -0.0930  0.4235
  512MOL0     C67477   8.936   1.358   7.391  0.3097 -0.1767 -1.5693
  512MOL0     C67478   8.895   1.304   7.271 -0.0736 -0.3042  0.1010
  512MOL0     C67479   8.757   1.295   7.235 -0.0246 -0.6650 -0.5899
  512MOL0     C67480   8.655   1.337   7.328 -0.1140  0.3920  0.2758
  512MOL0     C67481   8.512   1.314   7.305 -0.7513 -0.6507 -1.5384
  512MOL0     O67482   8.429   1.375   7.396  0.3585 -0.0090 -0.1692
  512MOL0     C67483   8.301   1.328   7.411 -0.3542 -0.2271 -0.2221
  512MOL0     C67484   8.204   1.427   7.453 -0.3953 -0.1116 -0.7541
  512MOL0     C67485   8.078   1.398   7.474  0.7470  0.0788  0.7409
  512MOL0     C67486   8.030   1.269   7.443 -0.6439  0.4081 -0.4200
  512MOL0     O67487   7.898   1.254   7.463  0.2953  0.4671  0.6748
  512MOL0     C67488   7.831   1.134   7.438  0.8335  0.5230 -0.1966
  512MOL0     C67489   7.695   1.147   7.498  0.0991  0.0879  0.0852
  512MOL0     C67490   7.629   1.017   7.470 -1.1405 -0.0202 -0.2077
  512MOL0     C67491   7.478   1.040   7.470  0.1625 -0.1304  0.0878
  512MOL0     C67492   7.405   0.913   7.521  0.0904 -0.0583  0.5365
  512MOL0     C67493   7.252   0.923   7.502 -0.3528  0.3773 -0.2636
  512MOL0     C67494   7.197   0.776   7.532  0.3440 -0.6072  0.5143
  512MOL0     C67495   7.193   0.696   7.401 -0.8103  0.0781  0.0196
  512MOL0    Cl67496   7.051   0.738   7.298  0.2360 -0.5781  0.5489
  512MOL0     C67497   8.119   1.165   7.398  1.5172  0.0522 -0.4678
  512MOL0     C67498   8.253   1.198   7.395  0.1029  0.6347 -0.6435
  512MOL0     O67499   8.478   1.254   7.208 -0.2746 -0.4497  0.8750
  512MOL0     C67500   8.703   1.399   7.447  0.2079  0.2694 -1.0016
  512MOL0     C67501   8.833   1.419   7.477  0.1348  0.5546  1.0090
  512MOL0     N67502   9.043   0.857   7.732 -0.0819 -0.3869 -0.4107
  512MOL0     N67503   9.005   0.844   7.855 -0.0087  0.7343  0.3679
  512MOL0     C67504  10.072   0.545   8.384  0.9465 -0.5503 -0.6897
  512MOL0     C67505  10.207   0.514   8.358  0.1794 -0.2642  0.0935
  512MOL0     C67506  10.549   0.385   8.054  0.6707  0.3249 -0.8678
  512MOL0     C67507  10.599   0.364   7.926 -0.1315 -0.1718 -0.2641
  512MOL0     C67508  10.722   0.307   7.910  0.8723 -0.5236 -0.0840
  512MOL0     C67509  10.809   0.269   8.016  0.0677  0.0360  0.3380
  512MOL0     O67510  10.928   0.208   8.010 -0.5101 -0.4857 -0.5458
  512MOL0     C67511  10.992   0.184   7.885 -0.2416 -0.4195  0.5719
  512MOL0     C67512  11.086   0.075   7.918 -0.3387  0.3572  0.2070
  512MOL0     C67513  11.169   0.040   7.787 -0.5643  0.3516 -0.0689
  512MOL0     C67514  11.297  -0.032   7.806 -1.0559  0.1160 -0.2475
  512MOL0     C67515  11.413   0.043   7.861 -0.5738  0.6069 -0.7462
  512MOL0     C67516  11.512   0.092   7.914  0.1055  1.0599  0.2090
  512MOL0     C67517  10.751   0.272   8.144 -0.3991 -0.8437 -0.0875
  512MOL0     C67518  10.626   0.327   8.168  0.1733  0.9277 -0.2633
  512MOL0     H67519  10.154   0.405   8.038 -2.8830 -1.3383  0.1770
  512MOL0     H67520   9.929   0.439   8.091 -1.8534 -0.3932  1.9943
  512MOL0     H67521   9.867   0.709   8.134 -1.6624 -0.1676 -0.4485
  512MOL0     H67522   9.883   0.785   8.296  0.5090  1.5343 -0.9574
  512MOL0     H67523   9.606   0.660   8.212 -2.2577  1.4377  2.2656
  512MOL0     H67524   9.664   0.813   8.140 -3.9602  0.0422  0.2890
  512MOL0     H67525   9.682   0.890   8.392  0.0755  0.1094 -0.5369
  512MOL0     H67526   9.588   0.745   8.425 -0.3224 -1.5486 -1.1244
  512MOL0     H67527   9.447   0.949   8.393  0.4383  2.0976 -0.5272
  512MOL0     H67528   9.532   0.977   8.247  1.7057  0.1969  0.7844
  512MOL0     H67529   9.315   0.763   8.309 -1.5417  1.6921  0.9513
  512MOL0     H67530   9.399   0.745   8.158 -2.0997  1.2253 -0.7114
  512MOL0     H67531   9.328   0.953   8.065 -2.5378 -0.8509 -0.6214
  512MOL0     H67532   9.290   1.011   8.230  2.1646 -0.3063  1.1398
  512MOL0     H67533   9.168   0.772   8.082  0.3175  1.3418 -1.6759
  512MOL0     H67534   9.112   0.842   8.238  2.4902  2.3884  2.6623
  512MOL0     H67535   9.065   1.055   8.095 -3.6769  0.9458 -1.2965
  512MOL0     H67536   8.958   0.918   8.087  0.6513 -2.1725 -1.6768
  512MOL0     H67537   9.236   1.091   7.865  1.2229 -1.4176  0.3112
  512MOL0     H67538   9.263   0.960   7.525  0.9984  2.4658 -2.0233
  512MOL0     H67539   9.253   1.108   7.608  2.9750 -2.5516 -0.8285
  512MOL0     H67540   9.017   1.143   7.529  0.5956 -0.7758  1.1204
  512MOL0     H67541   9.014   0.982   7.464 -0.7339  1.0720 -3.7788
  512MOL0     H67542   9.228   1.069   7.329 -0.0418 -1.3108  0.4113
  512MOL0     H67543   9.051   1.096   7.289  2.0739 -0.5302 -3.3156
  512MOL0     H67544   9.204   1.299   7.264  0.8172  0.3221  1.2719
  512MOL0     H67545   9.261   1.284   7.427 -0.5918  1.3282  1.2571
  512MOL0     H67546   8.974   1.276   7.201 -2.1504  0.7707 -2.9144
  512MOL0     H67547   8.733   1.262   7.135 -0.2545 -0.2080 -0.6888
  512MOL0     H67548   8.236   1.530   7.469  1.5236 -0.6507 -0.9692
  512MOL0     H67549   8.006   1.471   7.510  2.5408  0.9663  2.7758
  512MOL0     H67550   7.889   1.058   7.491 -1.0838 -1.7846 -1.1998
  512MOL0     H67551   7.832   1.098   7.335  0.1461 -2.5758  0.7635
  512MOL0     H67552   7.634   1.223   7.449  1.6232  1.1034 -0.3031
  512MOL0     H67553   7.708   1.154   7.607  0.3857  0.0098  0.0548
  512MOL0     H67554   7.651   0.950   7.553 -1.0990  0.8757  0.5151
  512MOL0     H67555   7.655   0.974   7.373 -1.0468  0.4377 -0.3912
  512MOL0     H67556   7.457   1.127   7.533  0.9185  0.8188 -0.9279
  512MOL0     H67557   7.455   1.077   7.370  1.3134  1.5192  0.3805
  512MOL0     H67558   7.422   0.890   7.627 -0.3894 -1.6691  0.2982
  512MOL0     H67559   7.447   0.829   7.464  0.5323  0.3190  0.3035
  512MOL0     H67560   7.216   0.956   7.404  0.5219 -1.2303 -1.1639
  512MOL0     H67561   7.217   0.995   7.577 -2.0520  0.3980 -1.0222
  512MOL0     H67562   7.257   0.724   7.608 -1.3429 -2.6086  0.5755
  512MOL0     H67563   7.094   0.782   7.566  0.2141  0.2247 -0.0147
  512MOL0     H67564   7.187   0.590   7.428  0.1138  0.3580  1.4104
  512MOL0     H67565   7.280   0.708   7.335  0.3361 -1.4646  1.1581
  512MOL0     H67566   8.096   1.066   7.362 -0.0506  0.3461 -0.3417
  512MOL0     H67567   8.323   1.117   7.378  0.7594  0.5751  1.9025
  512MOL0     H67568   8.637   1.445   7.520  0.1410 -0.2510 -0.7250
  512MOL0     H67569   8.859   1.471   7.569 -0.8673 -1.7087  2.6945
  512MOL0     H67570  10.036   0.593   8.474  1.2333 -4.4452  1.7538
  512MOL0     H67571  10.271   0.514   8.445 -0.6135 -1.5741  0.7301
  512MOL0     H67572  10.546   0.402   7.839 -0.1890  2.9576  1.0059
  512MOL0     H67573  10.748   0.283   7.807 -3.8408 -1.2291 -1.3453
  512MOL0     H67574  11.048   0.268   7.842 -0.6834 -1.3840 -2.0583
  512MOL0     H67575  10.919   0.147   7.813  0.5899 -0.1171 -0.4485
  512MOL0     H67576  11.162   0.114   7.986  0.0873 -3.1138  1.9422
  512MOL0     H67577  11.051  -0.013   7.971  1.4104 -0.6278 -0.1748
  512MOL0     H67578  11.187   0.138   7.740  0.9733  0.8683  1.5245
  512MOL0     H67579  11.109  -0.026   7.724  0.2561 -1.1463  0.6819
  512MOL0     H67580  11.287  -0.116   7.876  1.7741 -0.0751  0.0373
  512MOL0     H67581  11.322  -0.076   7.709 -2.6186 -1.1763 -0.1271
  512MOL0     H67582  11.591   0.136   7.971  1.8630 -2.0247  0.3397
  512MOL0     H67583  10.797   0.221   8.228 -1.4148 -2.4762 -0.4871
  512MOL0     H67584  10.582   0.318   8.267  2.4319 -1.0215  0.6624
  513MOL0     O67585   6.357   6.635   9.757 -0.6495  0.4226  0.2156
  513MOL0     C67586   6.375   6.637   9.636  0.3882 -0.1560 -0.8262
  513MOL0     O67587   6.278   6.608   9.542 -0.5404 -0.4381  0.3449
  513MOL0     C67588   6.160   6.588   9.590 -0.2763  0.3399 -0.1262
  513MOL0     C67589   6.071   6.689   9.631  0.3791  0.2534 -0.0413
  513MOL0     C67590   5.943   6.662   9.686 -0.5896  0.2812  0.0036
  513MOL0     C67591   5.892   6.529   9.684  0.1087  0.3877  0.7338
  513MOL0     O67592   5.760   6.490   9.698 -0.1657  0.0706  0.0240
  513MOL0     C67593   5.657   6.580   9.653  0.2830  0.3125 -0.3520
  513MOL0     C67594   5.552   6.494   9.594  0.6674  0.6697  0.8851
  513MOL0     C67595   5.461   6.430   9.699  0.0513 -0.3512  0.1082
  513MOL0     C67596   5.339   6.367   9.634 -0.7615  0.3535 -0.1578
  513MOL0     C67597   5.266   6.274   9.728 -0.6461  0.3685  0.1276
  513MOL0     C67598   5.142   6.219   9.659 -0.2230 -0.7945 -0.6460
  513MOL0     C67599   5.077   6.108   9.737  1.1300 -0.0402  0.6098
  513MOL0     C67600   4.949   6.057   9.673 -0.1559  0.2248  0.4494
  513MOL0     N67601   4.827   6.141   9.699  0.5030 -0.1228  0.3270
  513MOL0     C67602   4.740   6.109   9.806 -0.4838 -0.5157 -0.6604
  513MOL0     C67603   4.622   6.169   9.775 -0.1240 -0.2814 -0.1430
  513MOL0     C67604   4.496   6.172   9.865 -0.6506 -0.0790  0.7361
  513MOL0     C67605   4.383   6.233   9.788  0.0040 -0.4172 -0.5520
  513MOL0     C67606   4.266   6.202   9.880  0.3910 -0.1907  0.1611
  513MOL0     C67607   4.134   6.239   9.816 -0.2033  0.1632  0.6707
  513MOL0     O67608   4.122   6.166   9.688 -0.1923  0.1021 -0.0021
  513MOL0     C67609   4.000   6.175   9.629 -0.1765  0.7056  0.4711
  513MOL0     C67610   3.996   6.106   9.511 -0.1377  0.5079  0.3860
  513MOL0     C67611   3.886   6.102   9.426  0.8637 -0.1521  0.1270
  513MOL0     C67612   3.771   6.168   9.474  0.1601 -0.4770  0.3062
  513MOL0     C67613   3.655   6.167   9.393  0.5943 -0.2419  0.5555
  513MOL0     O67614   3.660   6.082   9.284 -0.8814 -0.2126 -0.4298
  513MOL0     C67615   3.546   6.047   9.222 -0.2125  0.3192 -0.3754
  513MOL0     C67616   3.528   5.909   9.217 -0.7015  0.4754  0.0639
  513MOL0     C67617   3.422   5.853   9.149  0.8779 -0.3797  0.4913
  513MOL0     C67618   3.313   5.934   9.100 -0.3281 -0.7105  0.0527
  513MOL0     O67619   3.199   5.892   9.039 -0.1111 -0.2208  0.0314
  513MOL0     C67620   3.208   5.756   8.979 -0.9633 -0.8366  0.1573
  513MOL0     C67621   3.103   5.737   8.879 -0.0035  0.3798 -0.2243
  513MOL0     C67622   2.971   5.746   8.954 -0.0392  0.0348  0.0240
  513MOL0     C67623   2.853   5.708   8.864 -0.4300  0.3923  0.1187
  513MOL0     C67624   2.723   5.720   8.940  0.2272 -0.3245 -0.2226
  513MOL0     C67625   2.596   5.730   8.850 -0.2820 -0.1342 -0.1243
  513MOL0     C67626   2.599   5.625   8.729 -0.1982  0.3151  0.2871
  513MOL0     C67627   2.480   5.641   8.628 -0.1871  0.2449 -0.4074
  513MOL0    Cl67628   2.327   5.599   8.704 -0.3258 -0.5615 -0.1999
  513MOL0     C67629   3.341   6.074   9.104 -0.4087  0.6288  0.0993
  513MOL0     C67630   3.456   6.137   9.163  0.5559 -0.0582  0.2575
  513MOL0     O67631   3.551   6.235   9.430 -0.0442  0.7008 -0.1620
  513MOL0     C67632   3.771   6.237   9.595  0.5478  0.2953 -0.0148
  513MOL0     C67633   3.887   6.241   9.672  0.5200 -0.5066  0.7136
  513MOL0     N67634   4.631   6.211   9.645  0.4895 -0.2840 -0.1525
  513MOL0     N67635   4.748   6.203   9.602 -0.5579 -0.2715 -0.8743
  513MOL0     C67636   5.988   6.427   9.652 -0.1517  0.3618 -0.0761
  513MOL0     C67637   6.114   6.457   9.601 -1.0867 -0.0836 -0.0299
  513MOL0     C67638   6.513   6.642   9.585  0.0657  0.2947  0.9117
  513MOL0     C67639   6.533   6.622   9.445  0.4446 -0.4857 -0.7332
  513MOL0     C67640   6.664   6.636   9.390 -0.3631 -0.3501  0.3104
  513MOL0     C67641   6.778   6.656   9.475  0.7195 -0.0442  0.1434
  513MOL0     O67642   6.906   6.647   9.422  0.3508 -0.2343 -0.2924
  513MOL0     C67643   6.921   6.620   9.285  0.3239  0.0384  0.4939
  513MOL0     C67644   7.065   6.600   9.222 -0.3103  0.7373  0.1857
  513MOL0     C67645   7.165   6.711   9.251  0.1191  0.7949  0.1195
  513MOL0     C67646   7.303   6.673   9.192  0.7168 -0.2280  0.5919
  513MOL0     C67647   7.412   6.753   9.242  0.1397 -0.1247 -0.9415
  513MOL0     C67648   7.514   6.799   9.280  0.1394 -1.1198 -0.3534
  513MOL0     C67649   6.757   6.668   9.612  0.3155 -0.0221  0.0248
  513MOL0     C67650   6.626   6.658   9.667  0.4855 -0.7945  0.4534
  513MOL0     H67651   6.098   6.794   9.631  1.6085 -0.0330  1.2518
  513MOL0     H67652   5.872   6.743   9.699 -2.1530 -1.0280 -0.0838
  513MOL0     H67653   5.692   6.651   9.577  0.7231 -1.1517 -1.5556
  513MOL0     H67654   5.624   6.638   9.740 -2.5231 -1.9291  0.2255
  513MOL0     H67655   5.591   6.416   9.529 -1.2330  0.4410 -0.0398
  513MOL0     H67656   5.492   6.553   9.523  3.9055  1.5494 -1.3630
  513MOL0     H67657   5.417   6.499   9.772  0.8586 -0.0359  0.3136
  513MOL0     H67658   5.513   6.351   9.754  1.0650 -1.5423 -2.4308
  513MOL0     H67659   5.276   6.450   9.601 -0.9406  0.5166  0.5795
  513MOL0     H67660   5.372   6.317   9.543  3.2187  0.1396  1.2012
  513MOL0     H67661   5.245   6.320   9.825 -1.3215  0.9205 -0.2675
  513MOL0     H67662   5.336   6.193   9.748  0.4043  0.5554 -2.4233
  513MOL0     H67663   5.158   6.179   9.558  0.0858  0.0904 -0.9555
  513MOL0     H67664   5.069   6.300   9.656  2.5709  1.8870 -0.5135
  513MOL0     H67665   5.146   6.023   9.732 -1.2525 -2.0263 -1.0729
  513MOL0     H67666   5.054   6.132   9.841  0.0794  2.1887 -0.0534
  513MOL0     H67667   4.931   5.952   9.697  4.3791 -0.7998  0.2186
  513MOL0     H67668   4.956   6.071   9.565 -2.7152  0.6320  0.2652
  513MOL0     H67669   4.763   6.060   9.900 -0.9816  2.7294  1.3027
  513MOL0     H67670   4.513   6.232   9.955  1.6271  1.3028 -0.5111
  513MOL0     H67671   4.469   6.069   9.889  0.2445 -1.0789 -2.1448
  513MOL0     H67672   4.376   6.188   9.688  3.4415  1.7856 -2.0000
  513MOL0     H67673   4.404   6.340   9.784  1.4462 -0.7101 -1.6899
  513MOL0     H67674   4.254   6.095   9.902 -1.9713 -0.4136 -1.8146
  513MOL0     H67675   4.279   6.260   9.972 -0.0426 -1.2515  0.9249
  513MOL0     H67676   4.122   6.348   9.809 -0.4822  0.0172 -2.7034
  513MOL0     H67677   4.056   6.207   9.886 -1.6171  3.2934  0.7142
  513MOL0     H67678   4.080   6.044   9.483  0.1981  2.0875 -2.4283
  513MOL0     H67679   3.898   6.041   9.338 -0.1615 -1.8688  1.1313
  513MOL0     H67680   3.613   5.850   9.251 -0.7825  1.8026  2.9260
  513MOL0     H67681   3.421   5.745   9.138  0.0189 -0.4958  1.5504
  513MOL0     H67682   3.205   5.674   9.051  0.5567  0.1619  1.4265
  513MOL0     H67683   3.299   5.739   8.919 -1.5924  1.1177 -1.4699
  513MOL0     H67684   3.128   5.639   8.838  2.4335  0.3590  1.1513
  513MOL0     H67685   3.119   5.814   8.802  0.1023  0.1635 -0.4204
  513MOL0     H67686   2.952   5.850   8.980 -0.7008  0.2451 -1.2652
  513MOL0     H67687   2.979   5.684   9.044  1.6564  0.9916  0.5854
  513MOL0     H67688   2.850   5.775   8.777 -1.3165 -0.0742 -0.2259
  513MOL0     H67689   2.868   5.611   8.815 -2.4265  0.5534 -0.9456
  513MOL0     H67690   2.721   5.810   9.001 -1.3216 -2.0694  2.4943
  513MOL0     H67691   2.714   5.644   9.018 -0.3717 -0.3559 -0.3173
  513MOL0     H67692   2.589   5.828   8.803 -2.0999 -1.5125 -3.0091
  513MOL0     H67693   2.504   5.716   8.908 -0.8135 -2.2303 -1.3480
  513MOL0     H67694   2.686   5.646   8.666  0.3745  0.1255  1.0020
  513MOL0     H67695   2.604   5.522   8.764 -0.3903  0.3583  0.4465
  513MOL0     H67696   2.492   5.577   8.540 -1.6514 -0.7368  0.0569
  513MOL0     H67697   2.468   5.745   8.598 -0.6151  0.0169 -1.0496
  513MOL0     H67698   3.270   6.142   9.058  0.0455  2.3901  1.8450
  513MOL0     H67699   3.468   6.245   9.166  0.9890 -0.1208  1.3790
  513MOL0     H67700   3.681   6.287   9.628  0.7490  1.0560 -0.6108
  513MOL0     H67701   3.892   6.304   9.760  2.5439  0.4730 -0.0450
  513MOL0     H67702   5.962   6.323   9.667 -0.2926  0.4859  0.5966
  513MOL0     H67703   6.180   6.374   9.580 -1.5573 -0.8492  1.3618
  513MOL0     H67704   6.448   6.599   9.381 -0.4387 -0.7849  0.5160
  513MOL0     H67705   6.670   6.617   9.283 -1.3001 -3.4917  0.7305
  513MOL0     H67706   6.887   6.703   9.223  1.2967  1.7697  2.1863
  513MOL0     H67707   6.875   6.526   9.254 -0.6997  0.8610 -0.5767
  513MOL0     H67708   7.106   6.503   9.251  0.8298  0.9485 -0.6901
  513MOL0     H67709   7.061   6.595   9.113  0.3000  2.4170  0.0564
  513MOL0     H67710   7.185   6.722   9.358  0.7402 -0.3847  0.1419
  513MOL0     H67711   7.125   6.801   9.205 -2.9625 -0.7624 -0.5104
  513MOL0     H67712   7.310   6.565   9.205 -0.1899 -0.0843  2.6373
  513MOL0     H67713   7.287   6.690   9.085 -1.5728  1.3262  1.0996
  513MOL0     H67714   7.601   6.846   9.321 -0.4092 -0.7740  0.4375
  513MOL0     H67715   6.841   6.690   9.677  1.1840  1.3145 -1.4910
  513MOL0     H67716   6.613   6.652   9.775  2.5282 -0.7719  0.7393
  514MOL0     O67717  10.843   1.545   8.934 -0.3469 -0.6685 -0.7422
  514MOL0     C67718  10.931   1.463   8.947  0.1104  0.2443 -1.4749
  514MOL0     O67719  11.002   1.444   9.063  0.0094 -0.3333  0.1350
  514MOL0     C67720  10.965   1.520   9.174 -0.4758  0.0943 -0.0012
  514MOL0     C67721  10.911   1.467   9.292  0.0116 -0.1880  0.4848
  514MOL0     C67722  10.861   1.551   9.389 -0.1069 -0.1251 -0.2833
  514MOL0     C67723  10.877   1.689   9.392  0.2165 -0.5187  0.0395
  514MOL0     O67724  10.823   1.757   9.495  0.1232 -0.1911  0.1592
  514MOL0     C67725  10.899   1.860   9.563 -1.0209 -0.1191  0.0389
  514MOL0     C67726  10.853   1.912   9.703 -0.6239  0.2917  0.2503
  514MOL0     C67727  10.822   1.801   9.801  1.0141  0.0583  0.5398
  514MOL0     C67728  10.766   1.853   9.929 -0.0904 -0.1046  0.5489
  514MOL0     C67729  10.714   1.748  10.029 -0.1438  1.4027  0.3766
  514MOL0     C67730  10.615   1.647   9.969 -0.2420 -0.3112  0.1226
  514MOL0     C67731  10.541   1.557  10.080  0.1615 -0.3293 -0.0070
  514MOL0     C67732  10.627   1.442  10.119  0.1546 -0.0480 -0.4393
  514MOL0     N67733  10.553   1.336  10.192  0.1428  0.3063  0.3941
  514MOL0     C67734  10.459   1.251  10.139  0.2844 -0.1528  0.7463
  514MOL0     C67735  10.402   1.190  10.242 -0.8995  0.0112  0.6817
  514MOL0     C67736  10.297   1.090  10.243 -0.1284 -0.4809 -0.2023
  514MOL0     C67737  10.165   1.156  10.220 -0.0287 -0.4581 -0.0272
  514MOL0     C67738  10.046   1.063  10.186 -0.8357  0.5483 -0.4562
  514MOL0     C67739   9.915   1.153  10.184 -0.5051  0.4559 -0.0814
  514MOL0     O67740   9.884   1.195  10.317 -0.0777  1.2256 -0.2672
  514MOL0     C67741   9.757   1.244  10.349 -0.4617 -0.3500 -0.1076
  514MOL0     C67742   9.665   1.294  10.251 -0.2156 -0.0246 -0.2906
  514MOL0     C67743   9.550   1.351  10.302  0.2017 -0.2218 -0.1064
  514MOL0     C67744   9.511   1.346  10.434 -0.8335  0.2241 -0.1293
  514MOL0     C67745   9.389   1.407  10.478 -0.0830  0.5766 -0.5190
  514MOL0     O67746   9.283   1.403  10.392  0.2117  0.2949 -0.2028
  514MOL0     C67747   9.161   1.358  10.436  0.0720  0.7792  0.2730
  514MOL0     C67748   9.048   1.375  10.349 -0.5299 -0.1423  0.7664
  514MOL0     C67749   8.926   1.315  10.378  0.5305  0.0092 -0.5016
  514MOL0     C67750   8.902   1.238  10.493  0.3090  0.2028  0.6482
  514MOL0     O67751   8.785   1.177  10.505  0.5261 -0.5421 -0.3677
  514MOL0     C67752   8.747   1.066  10.419  0.8066 -0.8627  0.6230
  514MOL0     C67753   8.667   0.956  10.498 -0.0941  0.8985 -0.8591
  514MOL0     C67754   8.762   0.888  10.612 -0.4796 -0.3728 -0.2006
  514MOL0     C67755   8.720   0.751  10.652  0.2935  0.5722 -0.8687
  514MOL0     C67756   8.660   0.740  10.796  0.1539  0.6991  0.1735
  514MOL0     C67757   8.520   0.802  10.814  0.7361 -0.5783 -0.0161
  514MOL0     C67758   8.411   0.754  10.715  0.0627 -0.5533 -0.8524
  514MOL0     C67759   8.283   0.829  10.729 -0.6417 -0.5201 -1.2187
  514MOL0    Cl67760   8.287   0.981  10.638 -0.0657  0.0092 -0.0252
  514MOL0     C67761   9.008   1.216  10.576  0.2335  0.1772  0.0761
  514MOL0     C67762   9.136   1.273  10.552 -0.0178  0.0230 -0.1770
  514MOL0     O67763   9.381   1.447  10.590  0.0669  0.9536 -0.1752
  514MOL0     C67764   9.610   1.313  10.529 -0.0060 -0.3745  0.4225
  514MOL0     C67765   9.733   1.264  10.486  0.3411  0.0020  0.1917
  514MOL0     N67766  10.470   1.227  10.351  0.6841  0.6229 -0.0541
  514MOL0     N67767  10.566   1.302  10.323  0.2635 -0.2748 -1.2319
  514MOL0     C67768  10.939   1.748   9.282  0.3218  0.4599  0.4152
  514MOL0     C67769  10.983   1.668   9.175 -0.0866 -0.1552  0.4102
  514MOL0     C67770  10.971   1.384   8.828 -0.8418  0.8526 -0.1199
  514MOL0     C67771  11.081   1.296   8.840  0.1303  0.6843  0.2497
  514MOL0     C67772  11.121   1.216   8.734  0.2507 -0.0972 -0.0006
  514MOL0     C67773  11.053   1.229   8.607  0.0074 -0.1408 -0.7216
  514MOL0     O67774  11.080   1.161   8.495  0.3823  0.9706 -0.6387
  514MOL0     C67775  11.198   1.082   8.483  0.1521  0.2493  0.3703
  514MOL0     C67776  11.166   0.929   8.462  0.0308 -0.4968 -0.2539
  514MOL0     C67777  11.087   0.886   8.593 -0.0311 -0.0826  0.4012
  514MOL0     C67778  11.022   0.747   8.571 -0.9898  0.3877  0.5269
  514MOL0     C67779  10.939   0.708   8.681  0.0149  0.4901  0.7905
  514MOL0     C67780  10.867   0.677   8.776  0.1336 -0.6092 -0.2503
  514MOL0     C67781  10.959   1.334   8.597 -0.2948 -0.3901 -0.1287
  514MOL0     C67782  10.918   1.408   8.706  0.4293 -0.0498 -0.4327
  514MOL0     H67783  10.889   1.361   9.303 -1.9541  0.0611 -0.5731
  514MOL0     H67784  10.807   1.499   9.468  0.4209 -1.1165 -0.5549
  514MOL0     H67785  10.908   1.948   9.498 -2.3601 -0.5355 -0.7489
  514MOL0     H67786  11.002   1.826   9.576 -0.3052  2.1508  0.7284
  514MOL0     H67787  10.760   1.969   9.693 -0.6562  0.2031  0.0290
  514MOL0     H67788  10.927   1.986   9.735 -0.6357  0.2165  0.4493
  514MOL0     H67789  10.917   1.750   9.821  0.7398 -0.1369  1.3894
  514MOL0     H67790  10.747   1.735   9.758  1.1555  0.2883 -0.0704
  514MOL0     H67791  10.834   1.917   9.987 -1.9227  2.5448 -0.0907
  514MOL0     H67792  10.687   1.917   9.889 -0.5094 -3.2759 -4.6543
  514MOL0     H67793  10.665   1.787  10.118 -1.3034  1.1437 -0.1334
  514MOL0     H67794  10.799   1.691  10.067 -1.0073 -1.5560 -1.7992
  514MOL0     H67795  10.670   1.570   9.914  1.6366  1.1764 -0.1903
  514MOL0     H67796  10.553   1.700   9.895 -0.2303 -2.4210 -1.4903
  514MOL0     H67797  10.512   1.612  10.170  1.7380  1.3842 -0.5016
  514MOL0     H67798  10.439   1.531  10.050 -1.0872  2.7308  1.1986
  514MOL0     H67799  10.698   1.491  10.187 -0.0464  1.5350 -1.3200
  514MOL0     H67800  10.687   1.397  10.039  2.2015  1.5097  0.1311
  514MOL0     H67801  10.421   1.246  10.038 -0.5392 -1.5392  1.0872
  514MOL0     H67802  10.298   1.019  10.326 -0.5451 -0.1584  0.0871
  514MOL0     H67803  10.320   1.023  10.160  1.8953 -2.0479  1.5336
  514MOL0     H67804  10.169   1.226  10.136 -1.9866 -1.3309 -0.9250
  514MOL0     H67805  10.137   1.214  10.309  1.0289 -0.7230  0.4881
  514MOL0     H67806  10.066   1.016  10.089 -0.7485 -1.9152  0.6778
  514MOL0     H67807  10.035   0.977  10.252 -2.6276  0.3625 -0.9607
  514MOL0     H67808   9.830   1.091  10.153 -0.4984 -0.2088  1.1499
  514MOL0     H67809   9.933   1.236  10.115 -0.2986 -1.2044 -2.1203
  514MOL0     H67810   9.678   1.304  10.144 -0.1773 -1.6344 -0.4631
  514MOL0     H67811   9.486   1.396  10.226 -0.9322 -1.1782  0.2399
  514MOL0     H67812   9.050   1.455  10.276  2.0691  0.5655  1.4976
  514MOL0     H67813   8.839   1.345  10.322  0.1065  0.7182  0.5024
  514MOL0     H67814   8.832   1.016  10.371 -0.9096 -1.8192 -1.6009
  514MOL0     H67815   8.688   1.112  10.339  0.4561  0.2246  1.4798
  514MOL0     H67816   8.640   0.876  10.429 -0.8205  1.3725 -1.1281
  514MOL0     H67817   8.575   0.995  10.542 -0.7850 -2.6515  1.2486
  514MOL0     H67818   8.778   0.954  10.698  2.5228  1.4117 -1.9677
  514MOL0     H67819   8.861   0.873  10.569 -0.2235  0.2572  0.1607
  514MOL0     H67820   8.649   0.702  10.585 -1.2876 -0.1262  1.1779
  514MOL0     H67821   8.807   0.685  10.660  0.9603  1.3549 -1.5274
  514MOL0     H67822   8.729   0.775  10.873 -0.0164  2.3554 -0.3947
  514MOL0     H67823   8.654   0.631  10.807 -0.4447  0.9482  3.0463
  514MOL0     H67824   8.542   0.907  10.794  1.3756 -0.1769  2.4749
  514MOL0     H67825   8.488   0.788  10.918 -0.5629  0.9004 -0.1808
  514MOL0     H67826   8.442   0.779  10.613 -0.3459  1.7765 -0.4654
  514MOL0     H67827   8.398   0.646  10.718 -0.9175 -0.4420  1.6049
  514MOL0     H67828   8.256   0.859  10.832 -0.0860  0.0138 -1.2210
  514MOL0     H67829   8.201   0.761  10.705  0.0422 -1.9182  0.2655
  514MOL0     H67830   8.991   1.150  10.660 -0.3774  0.2441  0.0042
  514MOL0     H67831   9.218   1.246  10.618  1.4045  1.1380 -1.3930
  514MOL0     H67832   9.585   1.327  10.633 -1.5032 -1.0559  0.1775
  514MOL0     H67833   9.797   1.224  10.564 -0.6221 -1.3007  0.3495
  514MOL0     H67834  10.946   1.857   9.283  0.2295  0.4732 -0.1340
  514MOL0     H67835  11.040   1.712   9.094  1.0228 -1.7137  0.2968
  514MOL0     H67836  11.131   1.290   8.936 -0.4823  1.7997  0.6650
  514MOL0     H67837  11.192   1.138   8.759 -0.0467 -0.0132  1.1589
  514MOL0     H67838  11.268   1.101   8.565 -1.6609  2.4996  1.5022
  514MOL0     H67839  11.251   1.119   8.394  2.5919  0.0010  1.6299
  514MOL0     H67840  11.114   0.902   8.369 -1.7393  0.0103  0.5378
  514MOL0     H67841  11.263   0.879   8.457 -0.6704 -1.8211 -1.5160
  514MOL0     H67842  11.006   0.959   8.597  0.4549  0.4394  1.0048
  514MOL0     H67843  11.154   0.886   8.680  0.5324 -1.6786 -0.0062
  514MOL0     H67844  10.956   0.750   8.484 -1.1450 -1.2311  0.5558
  514MOL0     H67845  11.102   0.675   8.551 -0.1955  0.8627  1.8554
  514MOL0     H67846  10.792   0.676   8.852  1.8273  1.3105  1.5863
  514MOL0     H67847  10.915   1.353   8.499 -1.4291  0.1712  0.4764
  514MOL0     H67848  10.840   1.483   8.702  0.8268  0.5996  2.3793
  515MOL0     O67849   6.760   2.618   0.584  0.0102  0.1425 -1.4002
  515MOL0     C67850   6.778   2.496   0.604  0.1016  0.1937 -0.1712
  515MOL0     O67851   6.688   2.386   0.591 -0.4929 -0.5460 -0.1000
  515MOL0     C67852   6.581   2.404   0.508 -1.1166 -0.0681  0.7168
  515MOL0     C67853   6.479   2.319   0.533 -0.2568  0.3447 -0.4059
  515MOL0     C67854   6.365   2.321   0.450 -0.1834 -0.0454 -0.6964
  515MOL0     C67855   6.357   2.397   0.326  0.4531  0.8193 -0.6112
  515MOL0     O67856   6.256   2.379   0.235 -0.2160  0.3263 -0.3249
  515MOL0     C67857   6.149   2.286   0.256  0.3585  0.2419 -0.2204
  515MOL0     C67858   6.078   2.268   0.124 -0.7160  0.5606 -0.3768
  515MOL0     C67859   5.956   2.182   0.139  0.2295  0.2143  0.4997
  515MOL0     C67860   5.897   2.154  -0.005 -0.2322 -0.8754 -0.5933
  515MOL0     C67861   5.771   2.069   0.010 -0.4357  0.5340 -0.3041
  515MOL0     C67862   5.703   2.055  -0.116 -1.0561 -0.2972  0.9426
  515MOL0     C67863   5.580   1.958  -0.120 -0.6826  0.0296 -0.4593
  515MOL0     C67864   5.520   1.920  -0.253 -0.3461 -1.1257 -0.5689
  515MOL0     N67865   5.471   2.030  -0.338 -0.1794  0.7053 -0.4200
  515MOL0     C67866   5.548   2.135  -0.390 -0.6008 -0.1794 -0.2455
  515MOL0     C67867   5.460   2.203  -0.469 -0.3761 -0.0023  0.4237
  515MOL0     C67868   5.483   2.332  -0.541 -0.1745 -0.4663 -0.2614
  515MOL0     C67869   5.505   2.307  -0.690 -0.2882  0.2660 -0.4071
  515MOL0     C67870   5.641   2.277  -0.742  0.9100  0.3162 -0.1878
  515MOL0     C67871   5.755   2.367  -0.700  0.2244 -0.0436 -0.7429
  515MOL0     O67872   5.799   2.336  -0.571  0.2207 -0.4227 -0.2478
  515MOL0     C67873   5.893   2.413  -0.501 -0.4329 -0.0899  0.8632
  515MOL0     C67874   5.978   2.502  -0.563  0.4208 -0.2019 -0.3919
  515MOL0     C67875   6.080   2.573  -0.495 -0.4663  0.5989 -0.3492
  515MOL0     C67876   6.079   2.566  -0.355 -0.1021 -0.9840  0.3055
  515MOL0     C67877   6.198   2.630  -0.280  0.1660 -0.0648 -0.4583
  515MOL0     O67878   6.190   2.610  -0.149 -0.2630  0.0037  1.1302
  515MOL0     C67879   6.281   2.670  -0.075 -0.8339 -0.3049 -1.1547
  515MOL0     C67880   6.419   2.656  -0.098  0.2776  0.0766 -0.6539
  515MOL0     C67881   6.520   2.723  -0.024 -0.6397  1.1178  0.6789
  515MOL0     C67882   6.485   2.806   0.080  0.0208  0.4449 -0.4493
  515MOL0     O67883   6.574   2.859   0.168  0.1982  0.0980 -0.7000
  515MOL0     C67884   6.714   2.812   0.162  0.6808 -0.1098 -0.4392
  515MOL0     C67885   6.788   2.927   0.230 -0.3672  0.2547  0.1044
  515MOL0     C67886   6.939   2.906   0.225 -0.8528 -0.6174  0.0347
  515MOL0     C67887   6.988   2.782   0.282  1.0128  1.1779 -0.3048
  515MOL0     C67888   7.123   2.797   0.341  0.0297 -0.6348 -0.0483
  515MOL0     C67889   7.187   2.654   0.368  0.1216  0.0217 -0.2038
  515MOL0     C67890   7.331   2.661   0.415  0.3045 -0.3526  1.3240
  515MOL0     C67891   7.393   2.520   0.437  0.7329  0.4713  0.6310
  515MOL0    Cl67892   7.570   2.528   0.479  0.1183  0.4791 -0.4098
  515MOL0     C67893   6.351   2.821   0.109  0.3373 -1.0756  0.5652
  515MOL0     C67894   6.246   2.755   0.033 -0.4488  0.1607 -0.0963
  515MOL0     O67895   6.284   2.699  -0.338  0.0401 -0.1395 -0.0631
  515MOL0     C67896   5.987   2.486  -0.291 -0.3879 -0.4016 -0.1056
  515MOL0     C67897   5.894   2.408  -0.363 -0.2137  1.1803 -0.2544
  515MOL0     N67898   5.336   2.146  -0.469  0.5871  0.2153 -0.0035
  515MOL0     N67899   5.341   2.050  -0.380  0.4676 -0.3217 -0.4574
  515MOL0     C67900   6.468   2.479   0.298  0.7364 -0.0863  1.0029
  515MOL0     C67901   6.573   2.488   0.385 -0.7345  0.2967  0.4808
  515MOL0     C67902   6.925   2.470   0.650 -0.8270  0.9280 -0.8976
  515MOL0     C67903   7.018   2.569   0.698  0.3756 -0.1229  0.3856
  515MOL0     C67904   7.146   2.537   0.751 -0.5380  0.1109 -0.0056
  515MOL0     C67905   7.179   2.404   0.773 -0.4259  0.0066  1.0878
  515MOL0     O67906   7.292   2.360   0.835  0.0389 -0.2059 -0.3106
  515MOL0     C67907   7.364   2.453   0.916  0.3912  0.2555 -0.2881
  515MOL0     C67908   7.478   2.366   0.974  0.9498 -0.4216 -0.6269
  515MOL0     C67909   7.593   2.330   0.876  0.3776  0.3568 -0.5888
  515MOL0     C67910   7.702   2.428   0.918  0.5444 -0.5215  0.1151
  515MOL0     C67911   7.811   2.411   0.820  0.0479 -0.2086 -0.0986
  515MOL0     C67912   7.898   2.394   0.733  0.4230 -0.0395 -0.2205
  515MOL0     C67913   7.106   2.306   0.708 -0.0743 -1.0033  0.4359
  515MOL0     C67914   6.983   2.340   0.648 -0.7974 -0.0396  0.4008
  515MOL0     H67915   6.486   2.258   0.623 -1.5161 -1.1368 -1.2615
  515MOL0     H67916   6.288   2.256   0.490  2.1251 -2.6601 -0.2392
  515MOL0     H67917   6.089   2.337   0.331  0.2634  3.5667 -2.3268
  515MOL0     H67918   6.191   2.192   0.293  0.1818 -0.6847 -2.1962
  515MOL0     H67919   6.167   2.238   0.067 -0.3295 -0.6339  0.7939
  515MOL0     H67920   6.044   2.364   0.085  3.1077  2.5286  0.6312
  515MOL0     H67921   5.877   2.236   0.191 -0.4515  1.8370 -2.0354
  515MOL0     H67922   5.974   2.090   0.195 -0.8927 -0.3686 -0.0781
  515MOL0     H67923   5.881   2.247  -0.061 -0.3333  0.3469  1.3451
  515MOL0     H67924   5.967   2.087  -0.055  0.8788 -1.1563  1.2591
  515MOL0     H67925   5.701   2.104   0.086 -0.5766 -0.1961 -0.0915
  515MOL0     H67926   5.790   1.966   0.042 -2.9008  0.7414  2.2267
  515MOL0     H67927   5.769   2.027  -0.198 -0.9751  0.2018  0.8349
  515MOL0     H67928   5.657   2.152  -0.140 -0.5519 -0.2888 -0.0650
  515MOL0     H67929   5.612   1.867  -0.068  0.5820  1.0920  0.7359
  515MOL0     H67930   5.498   2.009  -0.068 -0.5924  0.7051 -0.9604
  515MOL0     H67931   5.445   1.841  -0.240 -0.8146 -0.6841 -0.6045
  515MOL0     H67932   5.607   1.871  -0.297 -0.7869 -2.0106 -0.4829
  515MOL0     H67933   5.650   2.161  -0.365 -0.5701 -2.1545  2.1253
  515MOL0     H67934   5.560   2.401  -0.506 -0.0469 -0.0126 -1.3873
  515MOL0     H67935   5.389   2.388  -0.533 -0.3371 -0.9344  1.5003
  515MOL0     H67936   5.480   2.402  -0.739  0.1799 -0.4415 -2.1136
  515MOL0     H67937   5.431   2.235  -0.727  1.6855 -0.8201 -2.4521
  515MOL0     H67938   5.661   2.169  -0.736 -0.1714  0.1231  0.1662
  515MOL0     H67939   5.632   2.294  -0.850  5.2184  1.3617 -0.5685
  515MOL0     H67940   5.731   2.474  -0.693 -2.0536 -0.5901  2.1590
  515MOL0     H67941   5.829   2.350  -0.778 -1.2672 -0.0319 -2.2178
  515MOL0     H67942   5.973   2.511  -0.671 -0.6366  2.7829 -0.1894
  515MOL0     H67943   6.153   2.630  -0.552 -1.5157  3.7644  1.2002
  515MOL0     H67944   6.448   2.589  -0.179  0.2803  1.4360 -1.8170
  515MOL0     H67945   6.621   2.698  -0.055 -1.3912  0.7192 -1.6256
  515MOL0     H67946   6.748   2.797   0.059 -0.8378  0.2910 -1.0325
  515MOL0     H67947   6.725   2.719   0.219 -0.9855  1.5529  2.9212
  515MOL0     H67948   6.759   2.920   0.336 -1.2818 -0.5331 -0.1857
  515MOL0     H67949   6.759   3.023   0.186 -2.8900 -0.8088 -0.7077
  515MOL0     H67950   6.981   2.984   0.289 -2.1418 -0.4662  0.7414
  515MOL0     H67951   6.966   2.907   0.120 -2.1179 -3.0732 -0.4030
  515MOL0     H67952   6.916   2.742   0.354  0.0436 -0.8996 -2.3293
  515MOL0     H67953   6.989   2.705   0.204  0.8920  1.0821 -0.2120
  515MOL0     H67954   7.110   2.849   0.436 -1.7535 -1.0165 -0.0510
  515MOL0     H67955   7.191   2.862   0.284  0.4362 -1.0614 -0.0582
  515MOL0     H67956   7.180   2.593   0.277  2.5930 -1.0734  0.2528
  515MOL0     H67957   7.117   2.605   0.437 -0.4672  0.5352 -0.4252
  515MOL0     H67958   7.391   2.721   0.345 -1.4571  1.2714  1.1405
  515MOL0     H67959   7.322   2.707   0.514 -2.1626  0.6757  0.6997
  515MOL0     H67960   7.380   2.460   0.346  0.4458  1.0076  0.3123
  515MOL0     H67961   7.343   2.461   0.514  1.1284 -2.0875 -0.9656
  515MOL0     H67962   6.321   2.882   0.194  0.3521 -0.2916  0.0210
  515MOL0     H67963   6.143   2.778   0.059 -0.9245  0.2091 -1.9253
  515MOL0     H67964   5.998   2.470  -0.184  2.2867  0.8994 -0.1083
  515MOL0     H67965   5.829   2.336  -0.315  1.0841  0.6941  0.8662
  515MOL0     H67966   6.461   2.540   0.209 -0.9023 -1.5404  0.0686
  515MOL0     H67967   6.640   2.564   0.346 -1.1780  0.9350  0.9557
  515MOL0     H67968   6.993   2.674   0.695 -1.9500 -0.4730  3.2077
  515MOL0     H67969   7.197   2.623   0.793 -1.0769  0.4922 -0.1251
  515MOL0     H67970   7.291   2.486   0.991  0.8622 -0.8118  0.6713
  515MOL0     H67971   7.405   2.541   0.865 -0.4874  1.0897  0.4058
  515MOL0     H67972   7.519   2.404   1.069  1.9745 -0.2258 -1.1344
  515MOL0     H67973   7.432   2.275   1.015  1.3249  0.4299  1.8978
  515MOL0     H67974   7.561   2.329   0.771  0.3064 -2.9365 -0.6396
  515MOL0     H67975   7.618   2.226   0.898 -0.6341  0.2005 -0.1812
  515MOL0     H67976   7.662   2.529   0.906  0.4987 -0.6274 -0.7270
  515MOL0     H67977   7.732   2.410   1.021  0.9772 -2.6329 -0.3235
  515MOL0     H67978   7.975   2.367   0.665  0.0976 -0.1764 -0.5369
  515MOL0     H67979   7.133   2.201   0.716  0.1080 -1.0209 -0.3871
  515MOL0     H67980   6.934   2.266   0.586  1.9681 -1.2005 -0.5692
  516MOL0     O67981   1.494   6.888   0.253  0.0481 -0.2409  0.3354
  516MOL0     C67982   1.522   6.943   0.141  0.1339  0.8239 -0.1968
  516MOL0     O67983   1.432   6.977   0.041  0.2658  0.7344  0.6353
  516MOL0     C67984   1.299   6.980   0.084  0.5631  0.0494  0.0707
  516MOL0     C67985   1.248   7.105   0.122  0.5059 -0.6621 -0.5771
  516MOL0     C67986   1.107   7.108   0.160  0.4069  0.0460  0.5366
  516MOL0     C67987   1.029   6.997   0.165  0.7077  0.7444  0.4743
  516MOL0     O67988   0.897   7.016   0.200  0.7814  0.6261 -0.5343
  516MOL0     C67989   0.841   6.895   0.251 -0.3099 -0.5523 -0.4659
  516MOL0     C67990   0.713   6.913   0.337 -0.4781 -0.2218 -0.3750
  516MOL0     C67991   0.605   6.948   0.238 -0.0883  0.2672  0.3071
  516MOL0     C67992   0.464   6.964   0.295  0.6717 -0.2218 -0.4412
  516MOL0     C67993   0.371   7.037   0.204  0.6365 -0.3646 -0.3816
  516MOL0     C67994   0.339   6.970   0.076  0.6272 -0.0484  0.0215
  516MOL0     C67995   0.275   7.057  -0.031  0.6079  0.2828 -0.0910
  516MOL0     C67996   0.253   6.985  -0.164  0.4700 -1.1204  0.3816
  516MOL0     N67997   0.194   7.072  -0.268  0.3891  0.6836  0.2334
  516MOL0     C67998   0.081   7.138  -0.258 -0.3245  0.5520  0.0123
  516MOL0     C67999   0.056   7.194  -0.383 -0.2934  0.2235  0.0702
  516MOL0     C68000  -0.060   7.288  -0.422  0.3831 -0.2917 -0.2212
  516MOL0     C68001  -0.145   7.343  -0.305 -0.0545 -0.2478  0.0406
  516MOL0     C68002  -0.235   7.462  -0.339  0.1245 -0.0105 -0.1470
  516MOL0     C68003  -0.333   7.467  -0.229 -0.1853 -0.4557 -0.2928
  516MOL0     O68004  -0.416   7.588  -0.239 -0.0300  0.5351  0.7144
  516MOL0     C68005  -0.522   7.582  -0.154 -0.4039 -0.4156 -0.7683
  516MOL0     C68006  -0.629   7.505  -0.179  0.1197 -0.7759 -0.5898
  516MOL0     C68007  -0.746   7.530  -0.115  0.3929  0.0369 -0.2124
  516MOL0     C68008  -0.752   7.612   0.002 -0.8386 -0.6320  0.0568
  516MOL0     C68009  -0.881   7.630   0.071 -0.4266  0.6396  0.0970
  516MOL0     O68010  -0.980   7.556   0.013  0.5432 -0.0969 -1.1984
  516MOL0     C68011  -1.109   7.566   0.067  0.4352  0.4442 -0.1442
  516MOL0     C68012  -1.167   7.459   0.133  0.4047  0.1764 -0.8277
  516MOL0     C68013  -1.297   7.460   0.192 -0.4770 -0.0670  0.2186
  516MOL0     C68014  -1.375   7.571   0.164  0.4912  0.1669  1.1850
  516MOL0     O68015  -1.503   7.592   0.216 -0.1009  0.5293  0.1855
  516MOL0     C68016  -1.609   7.508   0.171  0.7618 -0.5110 -0.4831
  516MOL0     C68017  -1.719   7.506   0.281 -0.2252  0.3518  0.4979
  516MOL0     C68018  -1.803   7.374   0.265  0.0817 -0.2548  0.3499
  516MOL0     C68019  -1.905   7.380   0.376 -1.1945  0.1399  0.2222
  516MOL0     C68020  -2.011   7.276   0.338 -0.0291 -0.2232 -0.0615
  516MOL0     C68021  -2.140   7.299   0.423  0.6856  0.6587  0.4592
  516MOL0     C68022  -2.252   7.194   0.382  0.0923 -0.0878 -0.1556
  516MOL0     C68023  -2.379   7.263   0.317  0.2334  0.1614  0.3578
  516MOL0    Cl68024  -2.520   7.158   0.312 -0.4833 -0.2201  0.5764
  516MOL0     C68025  -1.325   7.682   0.096  0.3517 -1.0472 -0.4809
  516MOL0     C68026  -1.192   7.672   0.054 -0.3770  0.0087  0.4662
  516MOL0     O68027  -0.896   7.705   0.166  0.2864  0.1874 -0.2640
  516MOL0     C68028  -0.637   7.674   0.039 -0.5526  0.2044  0.0737
  516MOL0     C68029  -0.522   7.668  -0.043  0.3559  0.2486 -0.1187
  516MOL0     N68030   0.164   7.162  -0.460 -0.3853  0.2838  0.7492
  516MOL0     N68031   0.240   7.083  -0.394  0.1224 -0.2021  0.1073
  516MOL0     C68032   1.090   6.867   0.134 -0.1089 -0.5868 -0.2045
  516MOL0     C68033   1.221   6.866   0.094  0.0813 -0.0831  0.0100
  516MOL0     C68034   1.662   6.950   0.105  0.7496 -0.5147 -0.7089
  516MOL0     C68035   1.758   6.871   0.163  0.1784 -0.1464  0.3562
  516MOL0     C68036   1.887   6.894   0.119 -0.2289  0.8057 -0.0392
  516MOL0     C68037   1.929   7.000   0.043 -0.4843 -0.3333  0.1294
  516MOL0     O68038   2.063   7.003   0.008  0.9488 -0.3467 -0.1425
  516MOL0     C68039   2.109   7.140  -0.035  0.8940  0.1172  0.0175
  516MOL0     C68040   2.255   7.156  -0.001  0.1071 -0.1990 -0.5483
  516MOL0     C68041   2.308   7.281  -0.070 -0.5899  0.1325 -0.1114
  516MOL0     C68042   2.437   7.318   0.001 -0.1139  0.6774  0.4240
  516MOL0     C68043   2.511   7.424  -0.067 -0.0553  0.5426 -0.4347
  516MOL0     C68044   2.588   7.481  -0.138 -0.0750  0.3669  0.4073
  516MOL0     C68045   1.833   7.076  -0.009 -0.3845 -0.3411 -0.2718
  516MOL0     C68046   1.698   7.049   0.015 -0.4123  0.1423 -0.2029
  516MOL0     H68047   1.311   7.192   0.110 -0.0202 -0.4933 -2.5962
  516MOL0     H68048   1.071   7.210   0.171  1.8133  0.7046 -0.6833
  516MOL0     H68049   0.919   6.847   0.311 -0.1504 -2.4448 -2.1055
  516MOL0     H68050   0.817   6.825   0.171  0.2921  1.8152 -2.8220
  516MOL0     H68051   0.721   6.977   0.425 -1.4294 -3.5632  2.3585
  516MOL0     H68052   0.687   6.815   0.378  1.3186 -0.1573  1.0262
  516MOL0     H68053   0.601   6.873   0.159 -0.6769 -0.0689  0.6496
  516MOL0     H68054   0.638   7.039   0.188 -1.2794  0.1609 -0.7088
  516MOL0     H68055   0.427   6.863   0.317 -0.2947  0.1565 -0.3014
  516MOL0     H68056   0.470   7.026   0.384 -1.5788  2.6229 -2.1059
  516MOL0     H68057   0.418   7.134   0.185 -0.5987  0.1730 -0.8617
  516MOL0     H68058   0.280   7.049   0.264  1.2046 -0.5840  0.5267
  516MOL0     H68059   0.282   6.882   0.107  0.8635 -0.1378  0.2066
  516MOL0     H68060   0.432   6.932   0.031  1.5654 -0.3816  2.1002
  516MOL0     H68061   0.172   7.082  -0.002 -0.5979 -3.0684 -1.1041
  516MOL0     H68062   0.322   7.155  -0.044  0.7729  0.0034 -1.7187
  516MOL0     H68063   0.191   6.894  -0.164 -1.3741 -0.0760 -3.3894
  516MOL0     H68064   0.357   6.965  -0.190  0.7812  2.5326 -1.9508
  516MOL0     H68065   0.026   7.151  -0.165  1.0568 -2.5921  1.4244
  516MOL0     H68066  -0.124   7.240  -0.496  3.0961 -1.7124 -1.8341
  516MOL0     H68067  -0.014   7.378  -0.465 -1.5366 -0.3555 -2.5648
  516MOL0     H68068  -0.072   7.379  -0.231  1.1066 -0.2799 -1.0535
  516MOL0     H68069  -0.208   7.260  -0.273  0.5532 -1.9501 -2.8048
  516MOL0     H68070  -0.172   7.552  -0.338  0.3087 -0.0717 -2.0143
  516MOL0     H68071  -0.286   7.455  -0.435  0.2101 -2.1119 -0.0943
  516MOL0     H68072  -0.275   7.470  -0.137  0.2819  0.8230 -0.6031
  516MOL0     H68073  -0.397   7.378  -0.228 -1.3637  0.2933  2.8106
  516MOL0     H68074  -0.627   7.441  -0.266 -1.6434  1.9001 -2.7774
  516MOL0     H68075  -0.835   7.482  -0.153  1.6792 -0.8163 -2.2989
  516MOL0     H68076  -1.118   7.364   0.149 -0.7961 -0.0070  2.5033
  516MOL0     H68077  -1.332   7.382   0.259  2.0519 -0.0195  1.7062
  516MOL0     H68078  -1.577   7.404   0.157 -0.9776 -1.2080  0.4583
  516MOL0     H68079  -1.646   7.534   0.071  1.2000  0.2285 -0.4596
  516MOL0     H68080  -1.782   7.593   0.262 -1.4049 -0.0890  2.1960
  516MOL0     H68081  -1.684   7.506   0.384 -0.9052 -1.2837  0.7626
  516MOL0     H68082  -1.742   7.283   0.267  1.9688  0.9487  0.0301
  516MOL0     H68083  -1.852   7.379   0.167 -2.0138 -0.5982  1.3329
  516MOL0     H68084  -1.856   7.352   0.469  0.6961 -0.5278 -0.9213
  516MOL0     H68085  -1.943   7.481   0.389 -0.6360  0.2889  0.7486
  516MOL0     H68086  -1.979   7.172   0.339 -2.2681 -0.9817  1.6554
  516MOL0     H68087  -2.047   7.297   0.237 -0.0711  1.5409  0.2854
  516MOL0     H68088  -2.178   7.400   0.407  0.8315  0.4499 -1.4722
  516MOL0     H68089  -2.114   7.295   0.529 -1.2449 -2.1449  0.9300
  516MOL0     H68090  -2.214   7.113   0.319 -0.1482 -0.3664  0.0556
  516MOL0     H68091  -2.284   7.156   0.480  1.5327 -0.2601  0.2812
  516MOL0     H68092  -2.359   7.300   0.216 -1.9979  3.3139  0.9049
  516MOL0     H68093  -2.409   7.347   0.380  3.2901  0.5896  1.4231
  516MOL0     H68094  -1.376   7.777   0.085  1.4933 -0.1711  1.3670
  516MOL0     H68095  -1.152   7.752  -0.007 -0.8754 -0.3544 -0.3419
  516MOL0     H68096  -0.645   7.750   0.117  0.0191 -1.7271  2.1139
  516MOL0     H68097  -0.438   7.729  -0.013  2.4626 -1.4864 -2.1618
  516MOL0     H68098   1.047   6.768   0.146  0.2979 -0.9735 -1.6693
  516MOL0     H68099   1.270   6.770   0.083 -1.9091 -1.1680  0.1954
  516MOL0     H68100   1.720   6.787   0.220 -1.6887 -0.3608 -1.1189
  516MOL0     H68101   1.961   6.816   0.134 -0.8130  0.2691  0.1345
  516MOL0     H68102   2.057   7.220   0.018 -0.5078  0.4267 -1.7319
  516MOL0     H68103   2.094   7.150  -0.142  2.8454 -2.1068 -0.5513
  516MOL0     H68104   2.265   7.171   0.107 -0.8734 -1.0058 -0.3244
  516MOL0     H68105   2.307   7.063  -0.026  1.1197  0.2805 -0.2520
  516MOL0     H68106   2.240   7.366  -0.058  0.3256  0.9464 -0.5860
  516MOL0     H68107   2.323   7.257  -0.176 -2.4104  3.4750 -1.2523
  516MOL0     H68108   2.411   7.352   0.102  3.4811  1.4506  1.2410
  516MOL0     H68109   2.494   7.225   0.009 -2.3926 -0.9975 -1.4918
  516MOL0     H68110   2.638   7.528  -0.219 -0.0297 -1.0437 -0.4085
  516MOL0     H68111   1.847   7.163  -0.072 -0.3100  1.7152  2.3697
  516MOL0     H68112   1.616   7.097  -0.037 -2.1778 -1.6765  0.7670
  517MOL0     O68113  10.634   5.241   2.785  0.5665 -0.4970  0.2147
  517MOL0     C68114  10.639   5.119   2.811 -0.2937  0.0428 -0.5365
  517MOL0     O68115  10.729   5.029   2.753 -0.4539 -0.4424  0.0694
  517MOL0     C68116  10.824   5.076   2.666  0.4232 -0.3813  0.0816
  517MOL0     C68117  10.846   4.995   2.550 -0.6732 -0.7877 -0.0284
  517MOL0     C68118  10.946   5.032   2.464 -0.0508 -0.1459  0.2578
  517MOL0     C68119  11.034   5.140   2.494  0.0401 -0.4052 -0.4264
  517MOL0     O68120  11.133   5.185   2.417 -0.3763 -1.0934  0.5439
  517MOL0     C68121  11.134   5.155   2.277  1.3508 -0.5385  0.4253
  517MOL0     C68122  11.020   5.230   2.198 -0.2636 -0.7905 -0.0084
  517MOL0     C68123  11.006   5.186   2.055 -0.6874 -0.5360 -0.0026
  517MOL0     C68124  10.890   5.264   1.972 -0.0385  0.4643  0.1134
  517MOL0     C68125  10.864   5.213   1.832 -0.0313  0.1270  0.6103
  517MOL0     C68126  10.733   5.276   1.775  0.4532  0.3172 -0.6776
  517MOL0     C68127  10.719   5.250   1.627  0.5779 -0.2117 -0.0807
  517MOL0     C68128  10.600   5.316   1.555 -0.6868 -0.0858 -0.0638
  517MOL0     N68129  10.472   5.269   1.615 -0.0974  0.5882  0.2422
  517MOL0     C68130  10.452   5.153   1.685 -0.0817 -0.5095  0.1289
  517MOL0     C68131  10.325   5.158   1.733  0.6341  0.6163  0.7541
  517MOL0     C68132  10.267   5.062   1.833 -0.4900  0.3628 -1.5024
  517MOL0     C68133  10.314   5.108   1.975  0.7245  0.1875  0.8168
  517MOL0     C68134  10.271   5.006   2.089 -0.9526  0.0421  0.4324
  517MOL0     C68135  10.123   4.997   2.118  0.1201 -1.2109  0.1493
  517MOL0     O68136  10.073   5.136   2.158 -0.3115 -0.3308  0.2635
  517MOL0     C68137   9.945   5.147   2.196 -0.1088 -0.1483 -0.1264
  517MOL0     C68138   9.912   5.272   2.248  0.4822  0.1636 -0.7834
  517MOL0     C68139   9.775   5.300   2.267  1.3676  0.9794  0.0566
  517MOL0     C68140   9.677   5.205   2.243  0.0146  0.4923  0.5541
  517MOL0     C68141   9.540   5.237   2.263 -0.0591 -0.0493  0.3447
  517MOL0     O68142   9.503   5.326   2.362 -0.0919 -0.1592 -0.0220
  517MOL0     C68143   9.372   5.365   2.396 -1.2255 -0.0326 -0.2216
  517MOL0     C68144   9.260   5.279   2.377  0.0500 -0.4596  0.1251
  517MOL0     C68145   9.140   5.323   2.420  0.5845 -0.2036  0.0980
  517MOL0     C68146   9.118   5.450   2.485  0.6224  0.4418  0.1557
  517MOL0     O68147   8.994   5.492   2.529  0.4322 -0.2111  0.0581
  517MOL0     C68148   8.890   5.397   2.542 -0.0672  0.0796  0.6027
  517MOL0     C68149   8.763   5.470   2.598  1.2368 -0.1156 -0.5085
  517MOL0     C68150   8.664   5.369   2.651  0.1910  0.0933 -0.3481
  517MOL0     C68151   8.541   5.449   2.724 -0.4728  0.9542 -0.0641
  517MOL0     C68152   8.444   5.342   2.768 -0.0005  0.0675  0.6855
  517MOL0     C68153   8.329   5.398   2.852  0.2941  0.2350  0.4099
  517MOL0     C68154   8.384   5.441   2.983  0.1639 -0.4565  0.7029
  517MOL0     C68155   8.289   5.413   3.104  0.5097  0.3740 -0.3513
  517MOL0    Cl68156   8.119   5.457   3.054 -0.1811 -0.5775  0.1191
  517MOL0     C68157   9.230   5.535   2.495 -0.4271  0.2479  0.0426
  517MOL0     C68158   9.360   5.490   2.451  0.2778 -0.1846  0.4217
  517MOL0     O68159   9.464   5.187   2.183 -0.4880 -0.7660 -0.1742
  517MOL0     C68160   9.715   5.085   2.181  0.3836 -0.1155  0.2504
  517MOL0     C68161   9.850   5.053   2.153  0.2383  0.1041  0.0811
  517MOL0     N68162  10.273   5.271   1.682 -0.3730  0.4938 -0.6545
  517MOL0     N68163  10.359   5.341   1.616 -0.1167  0.2956 -0.0118
  517MOL0     C68164  11.009   5.214   2.612 -0.1545  0.0099 -0.6304
  517MOL0     C68165  10.908   5.182   2.694 -0.0124  0.1335 -0.2512
  517MOL0     C68166  10.544   5.061   2.901  0.0669  0.1851 -0.7600
  517MOL0     C68167  10.549   4.934   2.967  0.4559 -0.1482  0.3233
  517MOL0     C68168  10.456   4.885   3.062 -0.0997  0.7884 -0.4043
  517MOL0     C68169  10.336   4.953   3.076 -0.0609  0.2057  0.6501
  517MOL0     O68170  10.239   4.901   3.158 -0.2423  0.1985  0.4347
  517MOL0     C68171  10.101   4.940   3.135  0.4443 -0.0108  0.6639
  517MOL0     C68172  10.069   5.054   3.244  0.6772 -1.4748 -0.4527
  517MOL0     C68173   9.935   5.124   3.214  0.5941  0.1421 -0.6437
  517MOL0     C68174   9.888   5.188   3.338  1.0856  0.2205  0.1410
  517MOL0     C68175   9.767   5.263   3.300 -0.1370  0.4212  0.2800
  517MOL0     C68176   9.666   5.324   3.279 -0.2171  0.4725 -1.0126
  517MOL0     C68177  10.318   5.069   3.004 -0.4257  0.2383 -0.1621
  517MOL0     C68178  10.427   5.133   2.939 -0.8899  0.5565 -0.0820
  517MOL0     H68179  10.787   4.908   2.522  2.4631 -2.4965 -1.9270
  517MOL0     H68180  10.956   4.984   2.367  2.4059  1.9172 -0.6348
  517MOL0     H68181  11.133   5.049   2.252 -0.2232 -0.2192 -1.0246
  517MOL0     H68182  11.231   5.186   2.237  0.6665  1.4630  0.1684
  517MOL0     H68183  11.020   5.339   2.210 -2.0309 -0.7618  0.0249
  517MOL0     H68184  10.921   5.205   2.238 -0.1909  1.0702  1.4603
  517MOL0     H68185  10.983   5.079   2.048 -1.4783 -0.2430 -2.9472
  517MOL0     H68186  11.101   5.202   2.005 -2.0041 -0.3524 -2.6466
  517MOL0     H68187  10.798   5.255   2.032 -1.1123 -0.3665 -1.5816
  517MOL0     H68188  10.916   5.370   1.963 -2.6750  1.2138  0.5266
  517MOL0     H68189  10.861   5.104   1.841  1.4194 -0.0403 -0.5382
  517MOL0     H68190  10.952   5.242   1.773  0.1678 -2.3907 -0.4198
  517MOL0     H68191  10.721   5.384   1.785  0.3529  0.1659  1.1295
  517MOL0     H68192  10.654   5.231   1.836  0.5777  0.9248 -0.0504
  517MOL0     H68193  10.814   5.282   1.585  0.8670  1.6365  1.8223
  517MOL0     H68194  10.712   5.142   1.608 -0.2505 -0.0177 -0.9094
  517MOL0     H68195  10.608   5.286   1.451  2.1461 -2.1616  0.6295
  517MOL0     H68196  10.605   5.426   1.552  1.7841 -0.1710 -1.7884
  517MOL0     H68197  10.528   5.078   1.701 -1.1087 -1.4631  0.6690
  517MOL0     H68198  10.302   4.958   1.827  1.6663  0.8587  0.7428
  517MOL0     H68199  10.158   5.060   1.829 -0.5664 -0.8145  0.0667
  517MOL0     H68200  10.286   5.212   1.989 -0.1326  0.1071 -0.1314
  517MOL0     H68201  10.422   5.096   1.960  0.3957 -1.7889 -0.4078
  517MOL0     H68202  10.300   4.903   2.067 -1.8975 -0.1715  0.1379
  517MOL0     H68203  10.311   5.040   2.185 -0.4430 -1.0034  0.5932
  517MOL0     H68204  10.103   4.930   2.203 -2.3886  0.0066  0.6290
  517MOL0     H68205  10.081   4.958   2.025  3.1639  2.9078 -3.3182
  517MOL0     H68206   9.992   5.340   2.272  3.6025 -2.7480 -2.1207
  517MOL0     H68207   9.750   5.399   2.305  0.4126  0.9971 -0.5843
  517MOL0     H68208   9.268   5.188   2.319  3.3161  0.2500 -0.7509
  517MOL0     H68209   9.052   5.264   2.397  0.9082 -0.3436 -0.8472
  517MOL0     H68210   8.919   5.318   2.612 -1.2749 -0.5186  0.4694
  517MOL0     H68211   8.864   5.358   2.443  1.1547 -3.5609  1.5426
  517MOL0     H68212   8.703   5.517   2.519 -3.1581 -4.3141 -0.1020
  517MOL0     H68213   8.792   5.542   2.675 -0.3672 -0.5670  0.5598
  517MOL0     H68214   8.715   5.307   2.725 -1.3454 -0.4048  0.3388
  517MOL0     H68215   8.625   5.297   2.578  0.3671 -1.9427  1.4733
  517MOL0     H68216   8.576   5.497   2.816  1.2915  1.2941 -0.8667
  517MOL0     H68217   8.490   5.518   2.656 -0.9891 -0.0564 -0.7363
  517MOL0     H68218   8.498   5.262   2.819  2.1034  0.8667 -0.2041
  517MOL0     H68219   8.405   5.298   2.676  0.4155  1.9703 -0.4373
  517MOL0     H68220   8.237   5.340   2.862  0.6424 -0.5416 -0.6284
  517MOL0     H68221   8.306   5.492   2.802  2.1982  0.0041 -1.0180
  517MOL0     H68222   8.479   5.390   3.003  1.4227  0.9066 -1.3406
  517MOL0     H68223   8.406   5.548   2.984 -2.8402  0.2365  0.3770
  517MOL0     H68224   8.328   5.485   3.177  1.7166  1.5027 -2.0423
  517MOL0     H68225   8.291   5.310   3.141  0.4950  0.3195 -0.5044
  517MOL0     H68226   9.229   5.639   2.527 -1.2577  0.4861 -0.7083
  517MOL0     H68227   9.448   5.554   2.458 -0.3221  0.5506  1.4349
  517MOL0     H68228   9.646   5.007   2.150  0.0981  0.4499 -0.5679
  517MOL0     H68229   9.873   4.961   2.101 -0.1976  0.5611 -0.9307
  517MOL0     H68230  11.054   5.310   2.634 -1.1982 -0.0961  2.3917
  517MOL0     H68231  10.890   5.236   2.787  1.3820  0.4258 -0.1169
  517MOL0     H68232  10.638   4.881   2.937 -0.6757 -0.0756 -3.8720
  517MOL0     H68233  10.491   4.793   3.110  0.4217  0.6342 -1.0692
  517MOL0     H68234  10.038   4.852   3.148 -0.3951  0.3259 -0.8161
  517MOL0     H68235  10.091   4.974   3.031  0.6049 -2.1595 -0.1215
  517MOL0     H68236  10.059   5.019   3.347 -4.2735 -0.7384 -0.4356
  517MOL0     H68237  10.152   5.125   3.241  0.0264 -0.6951 -0.2757
  517MOL0     H68238   9.862   5.048   3.185 -0.9558  1.6973 -1.0365
  517MOL0     H68239   9.950   5.194   3.131  0.7578 -0.0016 -0.7353
  517MOL0     H68240   9.861   5.111   3.410 -0.9515  1.1939  0.5010
  517MOL0     H68241   9.963   5.250   3.388 -0.9190  2.7336  0.2835
  517MOL0     H68242   9.574   5.380   3.271 -2.9728 -3.4776  0.0366
  517MOL0     H68243  10.232   5.133   3.017  0.9752  1.6332  3.8460
  517MOL0     H68244  10.406   5.229   2.892 -2.2436  0.2418 -0.1611
  518MOL0     O68245  10.804   5.637   2.036 -0.2437 -0.4778  0.3188
  518MOL0     C68246  10.760   5.752   2.064  0.2070  0.8826 -0.0920
  518MOL0     O68247  10.623   5.775   2.096  0.2848  0.1934 -0.4961
  518MOL0     C68248  10.513   5.701   2.076 -0.6552 -0.2365 -0.2116
  518MOL0     C68249  10.504   5.586   2.000  0.1862 -0.2374  0.3862
  518MOL0     C68250  10.378   5.528   1.964  0.1270 -0.2849  0.1513
  518MOL0     C68251  10.259   5.581   2.022 -0.3616 -0.5187  0.1663
  518MOL0     O68252  10.136   5.533   2.012  0.2481  0.0028  0.5263
  518MOL0     C68253  10.101   5.442   1.907  0.2917  0.1428 -0.3970
  518MOL0     C68254   9.950   5.424   1.902  0.5049  0.0506 -1.1195
  518MOL0     C68255   9.919   5.302   1.818 -0.3169 -0.1681 -0.3350
  518MOL0     C68256   9.769   5.281   1.814 -0.6279  0.1651 -0.8101
  518MOL0     C68257   9.742   5.136   1.760  0.0514 -0.5294 -0.4633
  518MOL0     C68258   9.592   5.117   1.729 -0.3778  0.2701 -0.4490
  518MOL0     C68259   9.530   5.079   1.870 -0.4263  0.1810  0.5370
  518MOL0     C68260   9.382   5.048   1.865 -0.0518 -0.4651 -0.2066
  518MOL0     N68261   9.345   4.910   1.819 -0.3628 -0.1409  0.1964
  518MOL0     C68262   9.381   4.788   1.878  0.4880  0.2366  0.3397
  518MOL0     C68263   9.344   4.686   1.800 -0.7942 -0.3402  0.6978
  518MOL0     C68264   9.353   4.539   1.821  0.6837  0.0501 -0.8272
  518MOL0     C68265   9.327   4.480   1.965  0.0742  0.4496 -0.3467
  518MOL0     C68266   9.183   4.526   2.013 -0.4919 -0.5543 -1.0557
  518MOL0     C68267   9.065   4.499   1.915 -0.4064  0.0015  0.8741
  518MOL0     O68268   8.938   4.541   1.965  0.3559 -0.5244  0.5427
  518MOL0     C68269   8.871   4.479   2.067 -0.7072  0.7487  0.1990
  518MOL0     C68270   8.765   4.550   2.129 -0.3314 -0.3251 -0.5393
  518MOL0     C68271   8.702   4.502   2.250  0.6126 -0.4494 -0.1501
  518MOL0     C68272   8.757   4.388   2.313  0.2544 -0.5582 -0.7868
  518MOL0     C68273   8.705   4.337   2.446  0.5422 -0.0994 -0.0068
  518MOL0     O68274   8.575   4.373   2.494  0.0580 -0.2845 -0.1712
  518MOL0     C68275   8.518   4.309   2.602 -0.1047  0.2495 -0.7566
  518MOL0     C68276   8.449   4.380   2.699 -0.3572  0.1873  0.4072
  518MOL0     C68277   8.375   4.323   2.807 -1.2983  0.0288 -0.5396
  518MOL0     C68278   8.380   4.182   2.831 -0.3112 -0.1353  0.4657
  518MOL0     O68279   8.326   4.118   2.940  0.2795  0.3523  0.0455
  518MOL0     C68280   8.240   4.186   3.035 -0.2171 -0.9531  0.8835
  518MOL0     C68281   8.152   4.099   3.121 -0.9349  0.0072  0.8757
  518MOL0     C68282   8.065   4.190   3.211 -0.9490  0.1241 -0.7266
  518MOL0     C68283   8.009   4.107   3.328  0.2116  0.1662  0.1642
  518MOL0     C68284   7.890   4.187   3.387 -0.7726  0.0905 -0.4540
  518MOL0     C68285   7.807   4.085   3.461  0.6052  0.3698  0.0605
  518MOL0     C68286   7.712   4.158   3.550  0.2881 -0.5159 -0.4375
  518MOL0     C68287   7.596   4.070   3.594 -0.5923 -0.0671 -0.0660
  518MOL0    Cl68288   7.663   3.956   3.717 -0.4522 -0.1075 -0.2127
  518MOL0     C68289   8.444   4.105   2.730 -0.4252 -1.1815 -0.2627
  518MOL0     C68290   8.508   4.169   2.622  0.0175  0.0844  0.3303
  518MOL0     O68291   8.791   4.280   2.520  1.0028 -0.2014 -0.3430
  518MOL0     C68292   8.869   4.325   2.248  0.1971  0.2146  0.0970
  518MOL0     C68293   8.916   4.364   2.125 -0.1483 -0.2883 -0.1522
  518MOL0     N68294   9.304   4.751   1.684  0.1985  0.1805  0.4152
  518MOL0     N68295   9.290   4.882   1.704  0.3994  0.2193  0.0494
  518MOL0     C68296  10.274   5.687   2.111  1.0552 -0.3409 -0.3677
  518MOL0     C68297  10.398   5.745   2.138  0.0569 -0.0752  0.0882
  518MOL0     C68298  10.849   5.867   2.058 -0.7182  0.3119 -0.4538
  518MOL0     C68299  10.990   5.844   2.045  0.1993 -0.3393  0.5808
  518MOL0     C68300  11.079   5.952   2.044  0.2364 -0.0538  0.8366
  518MOL0     C68301  11.028   6.082   2.060  0.4084 -0.7348 -0.0650
  518MOL0     O68302  11.106   6.199   2.070 -0.4735  0.1675  0.6215
  518MOL0     C68303  11.243   6.193   2.092  0.4582  0.2041  0.4553
  518MOL0     C68304  11.303   6.332   2.102 -0.0569  0.3250  0.5721
  518MOL0     C68305  11.450   6.331   2.138 -0.0213  0.0991  0.5138
  518MOL0     C68306  11.500   6.477   2.145  0.2061 -0.4188  0.1385
  518MOL0     C68307  11.599   6.484   2.257  0.2149 -0.6277 -1.0181
  518MOL0     C68308  11.686   6.463   2.337  0.2876  0.5103  0.6403
  518MOL0     C68309  10.890   6.100   2.077 -0.0101  0.1628  0.2019
  518MOL0     C68310  10.801   5.990   2.062 -0.3508 -0.5038 -0.4794
  518MOL0     H68311  10.595   5.538   1.965 -1.3432 -2.4909 -0.7557
  518MOL0     H68312  10.388   5.439   1.902  0.1115 -0.6387  0.6512
  518MOL0     H68313  10.145   5.344   1.929  0.2140  0.3359  0.6571
  518MOL0     H68314  10.137   5.464   1.806  3.0617 -0.5554  0.3391
  518MOL0     H68315   9.897   5.510   1.859  0.4424  0.2082 -0.7323
  518MOL0     H68316   9.910   5.416   2.003 -1.2516  0.0207 -1.7644
  518MOL0     H68317   9.964   5.214   1.865  0.2276  0.5051  0.4389
  518MOL0     H68318   9.956   5.301   1.715 -1.2504 -2.0569 -0.6888
  518MOL0     H68319   9.724   5.301   1.912  0.6282  3.0155 -0.7087
  518MOL0     H68320   9.732   5.357   1.745 -1.7649 -2.7623 -3.6790
  518MOL0     H68321   9.779   5.061   1.831  0.6480  1.3686  1.3050
  518MOL0     H68322   9.799   5.133   1.667  0.9087  3.6550 -0.2373
  518MOL0     H68323   9.578   5.033   1.661 -0.2540  1.1278 -1.5701
  518MOL0     H68324   9.554   5.209   1.682 -0.0883  0.3925 -0.4459
  518MOL0     H68325   9.593   5.000   1.910  0.8820  0.6555 -0.5143
  518MOL0     H68326   9.543   5.168   1.933  0.5474 -0.3188  1.0674
  518MOL0     H68327   9.347   5.131   1.802 -0.8715 -0.4770  0.2280
  518MOL0     H68328   9.339   5.055   1.965 -0.2759 -3.1608 -0.0583
  518MOL0     H68329   9.426   4.783   1.976  1.9868  1.2450 -0.2475
  518MOL0     H68330   9.456   4.512   1.794  0.3057 -0.7609 -1.5186
  518MOL0     H68331   9.278   4.498   1.752 -1.3758  1.0127  0.7455
  518MOL0     H68332   9.399   4.508   2.042 -2.9836 -0.7301  3.2200
  518MOL0     H68333   9.326   4.371   1.961  1.7475  0.3817 -4.2284
  518MOL0     H68334   9.178   4.480   2.112  1.4606  1.7229  0.2033
  518MOL0     H68335   9.180   4.632   2.040  0.0553 -0.1457 -2.4382
  518MOL0     H68336   9.058   4.393   1.889  0.3432  0.7038 -2.6183
  518MOL0     H68337   9.080   4.551   1.820  0.7861  0.8846  1.5132
  518MOL0     H68338   8.727   4.637   2.076  0.1626  0.5349  0.4756
  518MOL0     H68339   8.627   4.556   2.306  0.0876 -1.0419 -0.2742
  518MOL0     H68340   8.448   4.488   2.689 -2.1747  0.1160 -0.4340
  518MOL0     H68341   8.335   4.395   2.877 -2.0916 -1.3570  0.4910
  518MOL0     H68342   8.175   4.253   2.978 -0.3053 -0.0693  1.9777
  518MOL0     H68343   8.312   4.242   3.096  0.9349 -3.1295  1.6249
  518MOL0     H68344   8.221   4.026   3.164  0.3728  0.0422 -1.0867
  518MOL0     H68345   8.086   4.038   3.059 -1.2306 -0.8589  1.9946
  518MOL0     H68346   7.981   4.229   3.152 -1.3059 -1.8014 -1.5721
  518MOL0     H68347   8.120   4.271   3.259  0.2071 -0.0140 -1.7611
  518MOL0     H68348   7.976   4.009   3.292 -1.6411  1.2064 -1.1159
  518MOL0     H68349   8.089   4.103   3.403 -1.8312 -0.1548  2.4510
  518MOL0     H68350   7.836   4.232   3.303 -0.5837  0.9935 -0.1007
  518MOL0     H68351   7.930   4.266   3.450  1.6520 -2.0544  0.8927
  518MOL0     H68352   7.881   4.041   3.528  0.6694  3.8965  2.5932
  518MOL0     H68353   7.755   4.017   3.393  1.3648  0.2935 -0.4574
  518MOL0     H68354   7.770   4.206   3.630 -0.2648  0.0161 -0.3500
  518MOL0     H68355   7.677   4.247   3.497  2.3480 -1.1364 -3.0591
  518MOL0     H68356   7.539   4.032   3.509  1.1575  2.7627 -2.7350
  518MOL0     H68357   7.531   4.145   3.639  0.0566  1.1188 -1.0588
  518MOL0     H68358   8.450   4.000   2.757 -0.3943 -1.2649 -0.5875
  518MOL0     H68359   8.563   4.110   2.549 -1.5129 -0.2315 -0.6225
  518MOL0     H68360   8.926   4.243   2.291 -2.6098 -2.9772 -1.7338
  518MOL0     H68361   9.003   4.306   2.094 -0.9415 -1.0009 -1.1323
  518MOL0     H68362  10.190   5.730   2.165  1.4490  0.1837 -0.1658
  518MOL0     H68363  10.415   5.828   2.206  0.1591 -0.6643  0.7839
  518MOL0     H68364  11.043   5.751   2.032  3.3333  1.6131 -2.7756
  518MOL0     H68365  11.184   5.924   2.040  0.4407 -0.0475  3.7836
  518MOL0     H68366  11.298   6.139   2.014  0.8501  4.2677 -2.4026
  518MOL0     H68367  11.262   6.137   2.184  1.1254 -0.8550 -0.2938
  518MOL0     H68368  11.303   6.374   2.001  2.5345  0.3023  0.4813
  518MOL0     H68369  11.250   6.403   2.166 -2.3622  1.7841 -2.7067
  518MOL0     H68370  11.501   6.289   2.051  0.3405 -0.8531  1.1740
  518MOL0     H68371  11.469   6.271   2.227 -0.6902 -2.1610 -0.7922
  518MOL0     H68372  11.543   6.519   2.054 -0.8088 -0.0035 -0.1603
  518MOL0     H68373  11.422   6.541   2.188  1.0288 -0.7781  2.2804
  518MOL0     H68374  11.760   6.436   2.409  1.5472 -0.0447 -0.7928
  518MOL0     H68375  10.841   6.192   2.109 -0.4108 -0.5486  1.7508
  518MOL0     H68376  10.693   6.001   2.073 -0.1242  3.6896 -0.5947
  519MOL0     O68377   3.539   7.809   0.912  0.1585 -0.7783 -0.2804
  519MOL0     C68378   3.583   7.857   1.019  0.8069 -0.0410  0.2631
  519MOL0     O68379   3.529   7.965   1.081  1.0732 -0.2118 -0.2271
  519MOL0     C68380   3.395   8.011   1.061 -0.5352  0.1469  0.9101
  519MOL0     C68381   3.381   8.149   1.056 -0.1428 -0.4672  0.5685
  519MOL0     C68382   3.256   8.206   1.024  0.1648  0.8059 -0.0385
  519MOL0     C68383   3.148   8.127   1.002 -0.8288  0.4248  0.0914
  519MOL0     O68384   3.033   8.187   0.973 -0.0505 -0.0745 -0.3730
  519MOL0     C68385   2.906   8.109   0.975 -0.3356  0.4058  0.4641
  519MOL0     C68386   2.793   8.200   0.913 -0.3341  0.5539  0.0844
  519MOL0     C68387   2.654   8.158   0.934 -0.1466 -0.5288 -0.3564
  519MOL0     C68388   2.558   8.264   0.885  0.6963 -0.6353 -0.1051
  519MOL0     C68389   2.434   8.280   0.976  0.1747  0.3619  0.4802
  519MOL0     C68390   2.347   8.403   0.945 -0.0107  0.6951 -0.7572
  519MOL0     C68391   2.226   8.419   1.028 -0.4035 -0.6865  0.4692
  519MOL0     C68392   2.268   8.469   1.167  0.1516 -0.5080  0.4827
  519MOL0     N68393   2.146   8.489   1.246 -0.0927 -0.4184  0.2475
  519MOL0     C68394   2.060   8.595   1.231 -0.1260  0.4404 -0.3458
  519MOL0     C68395   1.950   8.549   1.288 -0.9508 -0.0859 -0.0717
  519MOL0     C68396   1.818   8.617   1.284 -0.8883  0.1407  0.7649
  519MOL0     C68397   1.761   8.632   1.142 -0.5716 -0.2540 -0.6454
  519MOL0     C68398   1.620   8.687   1.156  0.8645  0.9782  0.6315
  519MOL0     C68399   1.531   8.638   1.034  0.3552 -0.1123 -0.4428
  519MOL0     O68400   1.388   8.685   1.038 -0.3602  0.0963 -0.6635
  519MOL0     C68401   1.310   8.663   1.152  0.4010  0.1155  0.0789
  519MOL0     C68402   1.263   8.527   1.185 -0.3731  0.2537 -0.2464
  519MOL0     C68403   1.202   8.495   1.300  0.2127  0.4404 -0.7984
  519MOL0     C68404   1.199   8.595   1.404 -0.1418 -0.2491  0.1205
  519MOL0     C68405   1.143   8.568   1.537 -0.9790 -0.0716 -0.4347
  519MOL0     O68406   1.104   8.677   1.612  0.7452  0.4040  0.3133
  519MOL0     C68407   1.081   8.659   1.746  0.0723 -0.4872 -0.1033
  519MOL0     C68408   1.015   8.558   1.809  0.1322  1.2420 -0.0763
  519MOL0     C68409   0.986   8.571   1.944  0.3356  0.2221  0.4248
  519MOL0     C68410   1.039   8.669   2.028 -0.5370  0.2042  0.5173
  519MOL0     O68411   1.026   8.650   2.164 -0.1490 -0.0044  0.2726
  519MOL0     C68412   1.125   8.717   2.244 -0.2660 -0.0551  1.0990
  519MOL0     C68413   1.150   8.651   2.387 -0.1761 -0.9025 -0.3156
  519MOL0     C68414   1.203   8.500   2.376 -0.2680  0.5273  0.3922
  519MOL0     C68415   1.251   8.436   2.512  0.1385 -0.2461 -0.3919
  519MOL0     C68416   1.276   8.290   2.501 -0.6405  0.1008  0.3856
  519MOL0     C68417   1.282   8.226   2.641  0.2477  0.2879  0.0998
  519MOL0     C68418   1.338   8.086   2.637  0.1005  0.3436  0.6041
  519MOL0     C68419   1.453   8.058   2.730 -0.0678  0.3071  0.3506
  519MOL0    Cl68420   1.384   8.071   2.897  0.0773 -0.4962 -0.0208
  519MOL0     C68421   1.107   8.776   1.961  0.0465 -0.3686  0.3669
  519MOL0     C68422   1.132   8.766   1.818  0.8314  0.1854  0.2784
  519MOL0     O68423   1.155   8.450   1.581  0.4097  0.1115 -0.0377
  519MOL0     C68424   1.252   8.727   1.379  0.4292  0.0619 -0.5931
  519MOL0     C68425   1.301   8.754   1.254 -0.6940  0.1942  0.5302
  519MOL0     N68426   1.969   8.428   1.357 -1.3806 -0.2489  0.9795
  519MOL0     N68427   2.090   8.391   1.320  1.0123 -0.1552 -0.4914
  519MOL0     C68428   3.166   7.983   1.003 -0.0896 -0.1877 -0.0686
  519MOL0     C68429   3.292   7.929   1.024 -0.3137  0.8124  0.5380
  519MOL0     C68430   3.720   7.810   1.066  0.9094 -0.6530  0.2751
  519MOL0     C68431   3.760   7.842   1.189 -0.6536 -0.3839 -1.3711
  519MOL0     C68432   3.886   7.801   1.229  0.3936  0.0085  0.2582
  519MOL0     C68433   3.972   7.735   1.140  1.2731  0.4566  0.0622
  519MOL0     O68434   4.110   7.730   1.172  0.5060  0.0672  0.1875
  519MOL0     C68435   4.207   7.673   1.080  0.3260 -0.0981 -0.3545
  519MOL0     C68436   4.347   7.647   1.145  0.4305  0.1579 -0.3903
  519MOL0     C68437   4.416   7.781   1.157 -0.5361  0.0835 -0.7938
  519MOL0     C68438   4.567   7.773   1.192  0.0272 -0.2954 -0.4573
  519MOL0     C68439   4.645   7.742   1.072  0.2324 -0.1501  0.5754
  519MOL0     C68440   4.702   7.713   0.968 -0.0370  0.0240 -0.2429
  519MOL0     C68441   3.924   7.694   1.019 -0.2397 -0.2270  0.2454
  519MOL0     C68442   3.795   7.729   0.983  0.2389 -0.3383  0.4030
  519MOL0     H68443   3.472   8.206   1.069  1.4796 -3.0353  1.1986
  519MOL0     H68444   3.245   8.314   1.022 -1.3625  0.7200  1.4589
  519MOL0     H68445   2.877   8.083   1.078 -1.4529 -0.4115 -0.0316
  519MOL0     H68446   2.913   8.019   0.913 -0.3448  0.2149  0.7359
  519MOL0     H68447   2.812   8.209   0.805 -1.3491  1.2261 -0.0557
  519MOL0     H68448   2.812   8.302   0.946  1.5766  0.1616  0.3003
  519MOL0     H68449   2.638   8.132   1.039  1.7609 -1.1846 -0.1899
  519MOL0     H68450   2.633   8.066   0.879 -3.5697  1.1798 -2.2534
  519MOL0     H68451   2.604   8.363   0.875 -0.8900  0.3740  1.7711
  519MOL0     H68452   2.516   8.225   0.792  3.6526 -1.0550 -1.3830
  519MOL0     H68453   2.474   8.290   1.077  0.3767  0.0675  0.4291
  519MOL0     H68454   2.372   8.190   0.971  0.7069  0.0326 -0.3608
  519MOL0     H68455   2.323   8.406   0.838  0.0195  1.9951 -0.7448
  519MOL0     H68456   2.409   8.493   0.947  2.3577 -0.7768 -2.7158
  519MOL0     H68457   2.155   8.486   0.980  0.4131 -2.7105 -4.1064
  519MOL0     H68458   2.178   8.320   1.025  0.9590 -1.3683 -0.1523
  519MOL0     H68459   2.324   8.563   1.166  0.4500 -0.6887  0.0209
  519MOL0     H68460   2.328   8.396   1.222 -0.8235 -1.0880  0.8132
  519MOL0     H68461   2.082   8.691   1.185 -0.7625  0.8691  0.2228
  519MOL0     H68462   1.827   8.721   1.316  1.2803 -0.0713  0.9585
  519MOL0     H68463   1.749   8.554   1.340  0.5157  0.7507  3.3066
  519MOL0     H68464   1.761   8.538   1.086 -1.3634  1.0549 -2.9828
  519MOL0     H68465   1.817   8.707   1.085  1.2232  0.3380  1.7134
  519MOL0     H68466   1.573   8.648   1.247 -1.2270 -0.9545 -1.1546
  519MOL0     H68467   1.627   8.796   1.167 -2.2497  1.3553 -0.1780
  519MOL0     H68468   1.527   8.532   1.009 -1.5394  0.0390 -0.9835
  519MOL0     H68469   1.575   8.690   0.949  1.9078 -0.9143 -0.1504
  519MOL0     H68470   1.290   8.453   1.112 -2.5725 -0.0779 -0.8137
  519MOL0     H68471   1.158   8.402   1.334 -1.2783  1.6605  0.7804
  519MOL0     H68472   0.977   8.475   1.751  0.7857 -1.0145  2.4849
  519MOL0     H68473   0.922   8.499   1.993 -0.9021  0.3322 -0.9802
  519MOL0     H68474   1.090   8.819   2.263  0.4695  0.3271  0.4779
  519MOL0     H68475   1.223   8.723   2.195 -0.7528  2.6231  0.2739
  519MOL0     H68476   1.053   8.644   2.438  0.6413  0.5458  1.5721
  519MOL0     H68477   1.210   8.719   2.448 -0.9708  0.4338 -0.9638
  519MOL0     H68478   1.292   8.500   2.312  1.6586 -0.6656  2.8965
  519MOL0     H68479   1.122   8.446   2.327  0.2337 -0.1195  0.2637
  519MOL0     H68480   1.337   8.479   2.564 -1.7396  1.3991  1.5841
  519MOL0     H68481   1.178   8.453   2.592  2.8021  1.9611  1.7966
  519MOL0     H68482   1.371   8.276   2.450 -0.9720  0.9585 -0.4987
  519MOL0     H68483   1.195   8.253   2.439 -1.3573  2.4230 -0.1710
  519MOL0     H68484   1.184   8.230   2.689 -0.2633 -1.7862 -0.6373
  519MOL0     H68485   1.345   8.290   2.703  1.0530 -1.7737  1.5208
  519MOL0     H68486   1.259   8.016   2.664  1.3850 -0.9724  1.1272
  519MOL0     H68487   1.361   8.055   2.535  0.7026 -2.1672  1.4225
  519MOL0     H68488   1.533   8.125   2.697 -3.1311  3.0825 -2.1514
  519MOL0     H68489   1.494   7.958   2.713 -0.0459  0.4006 -0.1494
  519MOL0     H68490   1.145   8.858   2.021  0.1940 -2.1231  2.8292
  519MOL0     H68491   1.191   8.838   1.762  0.8279 -1.1242 -1.4808
  519MOL0     H68492   1.259   8.796   1.462 -0.2149 -0.3176 -0.2186
  519MOL0     H68493   1.345   8.851   1.235 -1.5964  0.6159  0.5429
  519MOL0     H68494   3.079   7.919   0.993 -0.9213  0.9508 -0.2484
  519MOL0     H68495   3.315   7.823   1.019 -0.3540  0.8623 -1.4050
  519MOL0     H68496   3.702   7.910   1.250 -2.0262 -1.3131 -1.5929
  519MOL0     H68497   3.922   7.817   1.330 -0.5470 -1.7104  0.9120
  519MOL0     H68498   4.212   7.737   0.991 -0.4453  0.8280  0.2497
  519MOL0     H68499   4.174   7.582   1.029 -2.7398 -0.2623  1.6522
  519MOL0     H68500   4.332   7.597   1.241  2.0330  3.6566  1.9140
  519MOL0     H68501   4.404   7.584   1.077 -0.1197  0.0343 -0.7486
  519MOL0     H68502   4.367   7.850   1.225  1.5170  1.0728 -0.2449
  519MOL0     H68503   4.402   7.825   1.058 -1.1641 -1.6064 -1.5070
  519MOL0     H68504   4.588   7.875   1.226 -1.8891  1.9401 -4.9950
  519MOL0     H68505   4.585   7.700   1.271  0.7602  1.0592  0.6585
  519MOL0     H68506   4.757   7.697   0.877  0.8765 -0.7789  0.4344
  519MOL0     H68507   3.991   7.659   0.942  0.6542  0.6671  0.6043
  519MOL0     H68508   3.757   7.707   0.883  1.8786  1.1196 -0.6060
  520MOL0     O68509   1.912   3.387   3.292  0.5549  0.1970 -0.2250
  520MOL0     C68510   1.942   3.343   3.178  0.3560  0.4902  0.4299
  520MOL0     O68511   1.853   3.295   3.077 -0.0711 -0.1360 -0.0106
  520MOL0     C68512   1.722   3.288   3.113 -0.3468  1.3178  0.5054
  520MOL0     C68513   1.664   3.157   3.084  0.3759  0.3194  0.1094
  520MOL0     C68514   1.541   3.134   3.136  0.8679  0.0559  0.3973
  520MOL0     C68515   1.468   3.239   3.203  0.2005  0.4557  0.0764
  520MOL0     O68516   1.341   3.215   3.232  0.3915 -0.2892 -0.1441
  520MOL0     C68517   1.266   3.301   3.314 -0.3048 -0.3433 -0.2228
  520MOL0     C68518   1.146   3.210   3.345  0.2903 -1.2804  0.2575
  520MOL0     C68519   1.023   3.280   3.392  0.1527 -0.1057 -0.1004
  520MOL0     C68520   0.917   3.173   3.438 -0.2639 -0.3171  0.5677
  520MOL0     C68521   0.792   3.236   3.498  0.0706  0.6707 -0.2894
  520MOL0     C68522   0.690   3.126   3.539 -0.6174 -0.2528  0.3072
  520MOL0     C68523   0.576   3.190   3.631  1.2216 -0.5447  0.4621
  520MOL0     C68524   0.442   3.108   3.623 -0.2402 -0.7293  0.3061
  520MOL0     N68525   0.439   2.994   3.717 -0.2337  0.4755 -0.8444
  520MOL0     C68526   0.457   2.863   3.673 -0.2339 -0.8374 -0.2495
  520MOL0     C68527   0.424   2.784   3.778 -0.9263  0.2933 -0.4119
  520MOL0     C68528   0.425   2.629   3.760  0.6601 -0.2423  0.9581
  520MOL0     C68529   0.568   2.573   3.791  0.5020 -0.2704  0.3848
  520MOL0     C68530   0.608   2.436   3.737  0.9039 -0.0261  0.3726
  520MOL0     C68531   0.508   2.330   3.765 -0.0617 -0.7141  0.5495
  520MOL0     O68532   0.388   2.339   3.679 -0.5226 -0.4812  0.1990
  520MOL0     C68533   0.273   2.304   3.735  0.5155 -0.0888  0.7876
  520MOL0     C68534   0.149   2.365   3.699 -0.5494  1.0813  0.8211
  520MOL0     C68535   0.026   2.314   3.742 -0.1741 -0.0555  0.6807
  520MOL0     C68536   0.012   2.207   3.823 -0.9793  0.2843  0.4422
  520MOL0     C68537  -0.122   2.154   3.868  0.1623 -0.1145  0.2283
  520MOL0     O68538  -0.222   2.193   3.783 -0.4964  0.5244  0.4107
  520MOL0     C68539  -0.353   2.154   3.808 -0.4825  0.0150  0.1959
  520MOL0     C68540  -0.398   2.067   3.903 -0.6494  0.1791  0.3681
  520MOL0     C68541  -0.532   2.049   3.917 -0.2349 -0.3410 -0.2454
  520MOL0     C68542  -0.632   2.111   3.845  0.0870 -0.0097  0.4541
  520MOL0     O68543  -0.761   2.077   3.878  0.2381 -0.0759  0.0706
  520MOL0     C68544  -0.875   2.115   3.793  0.4915 -0.2021  0.1140
  520MOL0     C68545  -0.991   2.020   3.792  0.3851  0.1970 -0.6200
  520MOL0     C68546  -1.113   2.094   3.734  1.1336  0.5033 -0.1731
  520MOL0     C68547  -1.241   2.008   3.763 -0.2067 -0.8431 -0.1098
  520MOL0     C68548  -1.381   2.074   3.713 -0.9282 -1.0147 -0.2109
  520MOL0     C68549  -1.498   1.994   3.771 -0.1627 -0.0235 -0.1337
  520MOL0     C68550  -1.632   2.070   3.773 -0.2375 -0.0171 -0.5691
  520MOL0     C68551  -1.752   1.989   3.823 -0.3538  0.6377 -0.3059
  520MOL0    Cl68552  -1.703   1.909   3.973 -0.0395  0.2138  0.1405
  520MOL0     C68553  -0.587   2.213   3.749 -0.1601  0.4620 -0.2946
  520MOL0     C68554  -0.444   2.225   3.728  0.0569 -0.1988  0.0623
  520MOL0     O68555  -0.124   2.082   3.966 -0.8620 -0.1090  0.1015
  520MOL0     C68556   0.135   2.158   3.872 -0.5851 -0.2822  0.3740
  520MOL0     C68557   0.262   2.199   3.826 -0.4168 -0.5101  0.0479
  520MOL0     N68558   0.375   2.864   3.886 -0.0042  0.2585  0.4954
  520MOL0     N68559   0.384   2.993   3.842  0.1977  0.4783 -0.6136
  520MOL0     C68560   1.526   3.360   3.236 -1.1571 -0.2313  0.2400
  520MOL0     C68561   1.659   3.386   3.185  0.4839  0.1774 -0.8004
  520MOL0     C68562   2.085   3.337   3.145  0.0341 -0.7600  1.2192
  520MOL0     C68563   2.126   3.279   3.025  0.2355  0.4653 -0.0339
  520MOL0     C68564   2.260   3.275   2.980  0.4393 -1.1473  0.6830
  520MOL0     C68565   2.364   3.337   3.069 -0.2424  0.4282 -0.2706
  520MOL0     O68566   2.495   3.325   3.037 -0.3699  0.4080 -0.0586
  520MOL0     C68567   2.539   3.311   2.902  0.0450  0.2747  0.8714
  520MOL0     C68568   2.647   3.416   2.870 -0.1898  0.2494  0.1791
  520MOL0     C68569   2.759   3.418   2.970 -0.1851  0.1638 -0.0365
  520MOL0     C68570   2.865   3.523   2.941  0.0905  0.1209 -0.4126
  520MOL0     C68571   2.836   3.649   3.011  0.3380  0.3166 -0.6611
  520MOL0     C68572   2.813   3.746   3.079 -0.2215 -0.7801  0.0996
  520MOL0     C68573   2.329   3.387   3.189  0.2657  0.7976 -0.4483
  520MOL0     C68574   2.196   3.387   3.225 -0.1819 -0.6629 -0.6239
  520MOL0     H68575   1.724   3.072   3.052 -2.5553 -2.3393  1.2207
  520MOL0     H68576   1.484   3.043   3.121  2.4634 -1.0132  0.5358
  520MOL0     H68577   1.240   3.393   3.260  0.3018 -1.4489 -2.5313
  520MOL0     H68578   1.321   3.333   3.402 -1.0762  1.6917 -0.4355
  520MOL0     H68579   1.173   3.139   3.424 -0.9513 -0.2812  1.6326
  520MOL0     H68580   1.116   3.150   3.258  0.4997 -0.4273 -0.4231
  520MOL0     H68581   0.986   3.346   3.313 -0.4945 -0.9770 -0.5497
  520MOL0     H68582   1.037   3.341   3.481 -2.6086 -1.8542  1.7084
  520MOL0     H68583   0.897   3.111   3.349  0.5201 -0.9310  0.8025
  520MOL0     H68584   0.953   3.101   3.512 -0.9612 -0.0617  1.1675
  520MOL0     H68585   0.750   3.304   3.423 -0.8175 -0.8839 -1.2609
  520MOL0     H68586   0.826   3.282   3.592 -2.2132 -0.2400  1.0714
  520MOL0     H68587   0.734   3.042   3.594  1.1043 -1.9979 -3.4408
  520MOL0     H68588   0.648   3.085   3.447  0.9319 -2.0241  0.3268
  520MOL0     H68589   0.600   3.196   3.738 -3.1716  1.6455  1.5622
  520MOL0     H68590   0.554   3.289   3.590  1.6875  0.4632  2.5074
  520MOL0     H68591   0.418   3.079   3.520  1.6398  2.0208 -1.0719
  520MOL0     H68592   0.365   3.181   3.650  1.6172  1.3703  0.3112
  520MOL0     H68593   0.484   2.833   3.572 -0.7654 -2.2740  0.0023
  520MOL0     H68594   0.410   2.597   3.657  2.4416 -1.4333  1.0272
  520MOL0     H68595   0.345   2.580   3.816  0.0908 -0.8470 -0.3568
  520MOL0     H68596   0.578   2.567   3.900  0.4673 -0.0176  0.4019
  520MOL0     H68597   0.638   2.638   3.737 -1.1764 -1.3535 -3.4770
  520MOL0     H68598   0.614   2.447   3.629  0.1942  3.6827  0.5593
  520MOL0     H68599   0.696   2.395   3.787  0.1449  0.3210  2.0738
  520MOL0     H68600   0.467   2.337   3.866 -3.8626 -0.5801 -0.8280
  520MOL0     H68601   0.554   2.232   3.752  0.4483 -0.5082  0.7836
  520MOL0     H68602   0.155   2.448   3.629  0.1916 -0.2480 -0.7469
  520MOL0     H68603  -0.059   2.370   3.705  0.4256  0.1405 -0.4522
  520MOL0     H68604  -0.338   1.988   3.947 -0.2938 -0.5346 -1.3272
  520MOL0     H68605  -0.570   1.978   3.990 -0.3548 -0.2210 -0.1929
  520MOL0     H68606  -0.841   2.122   3.689 -1.9307  0.6305 -0.6909
  520MOL0     H68607  -0.903   2.219   3.813 -0.6550 -0.3121 -0.8208
  520MOL0     H68608  -1.012   1.973   3.888 -1.0761 -2.7203 -2.2248
  520MOL0     H68609  -0.963   1.933   3.732 -2.1408 -0.3311 -1.1479
  520MOL0     H68610  -1.096   2.110   3.627  1.7506  0.7218 -0.0470
  520MOL0     H68611  -1.127   2.191   3.783  2.8243  0.5221  0.3516
  520MOL0     H68612  -1.228   1.906   3.723  3.4305 -1.3655  1.9352
  520MOL0     H68613  -1.249   1.994   3.871  0.1344 -3.7456 -0.3669
  520MOL0     H68614  -1.391   2.075   3.604 -3.1533  1.0413 -0.0582
  520MOL0     H68615  -1.376   2.177   3.749 -0.0260 -0.1244 -2.6638
  520MOL0     H68616  -1.483   1.964   3.875  0.3207  2.1597  0.4700
  520MOL0     H68617  -1.518   1.907   3.708 -1.4400 -0.0036  0.2247
  520MOL0     H68618  -1.622   2.156   3.841 -0.5706 -1.3838  1.2957
  520MOL0     H68619  -1.652   2.105   3.672  3.6519 -0.3732 -1.6180
  520MOL0     H68620  -1.767   1.909   3.750  2.5399 -2.1783  1.8835
  520MOL0     H68621  -1.840   2.053   3.831 -0.7296  0.0263  0.7085
  520MOL0     H68622  -0.667   2.267   3.699 -1.0085 -0.1425  0.3770
  520MOL0     H68623  -0.405   2.293   3.653 -0.4280 -0.0789 -0.0829
  520MOL0     H68624   0.127   2.068   3.933  0.2698 -0.3477  0.4111
  520MOL0     H68625   0.354   2.153   3.861  1.7276  0.1277 -4.1558
  520MOL0     H68626   1.483   3.438   3.298 -0.8429  0.3201 -0.2191
  520MOL0     H68627   1.702   3.483   3.208 -0.6783  0.5163  0.0568
  520MOL0     H68628   2.057   3.244   2.949  1.1324  1.6053 -1.3975
  520MOL0     H68629   2.266   3.234   2.880 -2.7305 -1.6224  0.5922
  520MOL0     H68630   2.451   3.309   2.837 -0.8090  1.0020  1.9699
  520MOL0     H68631   2.582   3.210   2.897 -1.0230 -0.1911 -4.1719
  520MOL0     H68632   2.676   3.402   2.765  0.1326 -0.7232  0.3820
  520MOL0     H68633   2.601   3.514   2.863 -0.5855  0.0304 -0.3422
  520MOL0     H68634   2.801   3.317   2.977 -2.0734 -0.5483  2.7159
  520MOL0     H68635   2.719   3.436   3.070  0.4907 -0.3443  0.3381
  520MOL0     H68636   2.964   3.490   2.977 -0.0148  1.4863  1.2194
  520MOL0     H68637   2.868   3.538   2.832  1.0157 -0.5115 -0.4916
  520MOL0     H68638   2.790   3.837   3.131  0.1747  0.2993 -1.5420
  520MOL0     H68639   2.400   3.438   3.253  0.8611  1.1105 -1.3422
  520MOL0     H68640   2.164   3.439   3.315  1.5178  4.5297 -2.6476
  521MOL0     O68641   9.164   0.986   3.924  0.5856  0.1119 -0.1875
  521MOL0     C68642   9.168   1.106   3.904 -0.8657 -0.8540  0.1504
  521MOL0     O68643   9.064   1.190   3.909  0.5012  0.0650 -0.1194
  521MOL0     C68644   8.936   1.148   3.929 -0.3334 -0.1044 -0.1334
  521MOL0     C68645   8.900   1.038   4.012 -0.6432  0.1661 -0.4022
  521MOL0     C68646   8.771   1.004   4.039  0.3980  0.0545  0.9113
  521MOL0     C68647   8.671   1.088   3.999  0.8120 -0.0897  1.0540
  521MOL0     O68648   8.534   1.067   4.014  0.2067 -0.3226  0.1284
  521MOL0     C68649   8.470   0.969   4.089  0.0085 -0.5840  0.4189
  521MOL0     C68650   8.337   1.009   4.160 -0.9111  0.4513 -0.7328
  521MOL0     C68651   8.239   1.077   4.068 -0.6337  0.2527  0.4518
  521MOL0     C68652   8.106   1.062   4.138  0.6147  0.0965  0.2520
  521MOL0     C68653   7.996   1.153   4.086  0.2868  0.5464  0.4247
  521MOL0     C68654   7.869   1.141   4.169 -0.7653 -0.5615  0.5905
  521MOL0     C68655   7.747   1.204   4.097 -0.1148 -0.1951  0.0956
  521MOL0     C68656   7.629   1.182   4.196  0.3890 -0.0734  0.4999
  521MOL0     N68657   7.503   1.236   4.152  0.1531  0.4229  0.2209
  521MOL0     C68658   7.483   1.371   4.113  0.1630 -0.4363  0.4150
  521MOL0     C68659   7.354   1.394   4.102 -0.2266  0.5329  0.9398
  521MOL0     C68660   7.303   1.533   4.056 -0.6104  0.9395 -0.0167
  521MOL0     C68661   7.155   1.561   4.093 -0.2755  0.0857 -0.9483
  521MOL0     C68662   7.100   1.691   4.021  0.2311  0.5268 -0.4007
  521MOL0     C68663   6.956   1.724   4.064  0.7311 -0.3502 -0.3829
  521MOL0     O68664   6.872   1.608   4.074  0.5827 -0.1225  0.1867
  521MOL0     C68665   6.750   1.619   4.128 -0.2474 -0.3383 -0.7843
  521MOL0     C68666   6.673   1.508   4.158 -0.7976 -0.3394  0.2512
  521MOL0     C68667   6.551   1.518   4.232 -0.1082  0.3623  0.4348
  521MOL0     C68668   6.498   1.644   4.251  0.0551  0.6900  0.2854
  521MOL0     C68669   6.356   1.653   4.293  0.3519 -0.5482 -0.2556
  521MOL0     O68670   6.287   1.536   4.298  0.2845  0.8071  0.4954
  521MOL0     C68671   6.150   1.535   4.323 -0.3047 -0.4975  0.3134
  521MOL0     C68672   6.057   1.489   4.227 -0.5639 -0.1029  0.1855
  521MOL0     C68673   5.921   1.499   4.257 -0.6834  0.3784  0.5719
  521MOL0     C68674   5.880   1.572   4.371  0.9807  0.0170  0.5862
  521MOL0     O68675   5.747   1.607   4.394 -0.0404  0.2155 -0.3017
  521MOL0     C68676   5.659   1.526   4.474  0.1758  0.4552  0.3674
  521MOL0     C68677   5.519   1.524   4.427  0.0281  0.0237  0.5457
  521MOL0     C68678   5.455   1.660   4.452  0.4962  0.3320  0.5506
  521MOL0     C68679   5.317   1.651   4.389  0.7469  0.1258 -0.5947
  521MOL0     C68680   5.272   1.795   4.376 -0.5595  0.1654  0.3448
  521MOL0     C68681   5.133   1.803   4.326  0.4795 -0.1138  0.6003
  521MOL0     C68682   5.106   1.953   4.315 -0.9117 -0.3387  0.5030
  521MOL0     C68683   4.972   1.975   4.250  0.6691 -0.2843  0.0843
  521MOL0    Cl68684   4.838   1.908   4.358 -0.1859  0.0816  0.2457
  521MOL0     C68685   5.968   1.618   4.466 -0.1785 -0.2775 -0.0062
  521MOL0     C68686   6.102   1.591   4.438  0.1851 -0.1443 -0.1075
  521MOL0     O68687   6.309   1.761   4.335  0.5159  0.3306  0.4582
  521MOL0     C68688   6.577   1.759   4.218  0.0431 -0.0057  0.1139
  521MOL0     C68689   6.700   1.744   4.164 -0.3419  0.8250 -0.0477
  521MOL0     N68690   7.296   1.273   4.117  0.0815 -0.1367 -0.5857
  521MOL0     N68691   7.378   1.177   4.149  0.3357  0.3453  0.3172
  521MOL0     C68692   8.699   1.201   3.928 -0.2544  0.4228 -0.6747
  521MOL0     C68693   8.827   1.238   3.895 -0.7730  0.6668 -0.1191
  521MOL0     C68694   9.299   1.174   3.882 -0.9190  0.0070 -0.0082
  521MOL0     C68695   9.392   1.125   3.793  0.1805 -0.4327 -0.7269
  521MOL0     C68696   9.516   1.193   3.779 -0.8211  0.0146  0.3946
  521MOL0     C68697   9.549   1.306   3.845  0.0433 -0.8839 -0.3354
  521MOL0     O68698   9.670   1.355   3.815 -0.5840  0.1544 -0.6615
  521MOL0     C68699   9.720   1.474   3.873  0.0899 -0.7968  0.1369
  521MOL0     C68700   9.863   1.502   3.818 -0.7667  0.0730  0.8789
  521MOL0     C68701   9.921   1.614   3.900 -0.8564 -0.0319 -0.1812
  521MOL0     C68702  10.070   1.648   3.858  0.4260 -0.5447 -0.5208
  521MOL0     C68703  10.164   1.535   3.874  0.5184  0.2490 -0.5376
  521MOL0     C68704  10.245   1.444   3.890  0.3221  0.0803 -0.4254
  521MOL0     C68705   9.454   1.362   3.930  0.0995 -0.1550 -0.0123
  521MOL0     C68706   9.328   1.300   3.945 -0.3054  0.5611 -0.4765
  521MOL0     H68707   8.982   0.981   4.054  0.3042  2.1702  0.6633
  521MOL0     H68708   8.748   0.911   4.090 -4.7120 -0.0746 -1.0231
  521MOL0     H68709   8.541   0.917   4.154  2.7447  0.8407 -1.2206
  521MOL0     H68710   8.448   0.893   4.014  2.6462 -2.0564  0.9927
  521MOL0     H68711   8.346   1.067   4.252 -3.2774 -0.2213 -0.0118
  521MOL0     H68712   8.295   0.915   4.199  1.1766 -0.0271  0.5289
  521MOL0     H68713   8.240   1.040   3.965  0.6525  1.9621 -0.2154
  521MOL0     H68714   8.270   1.181   4.054  0.6030 -0.4776 -3.8267
  521MOL0     H68715   8.077   0.960   4.113  2.8144 -0.2073 -1.3213
  521MOL0     H68716   8.118   1.075   4.246 -1.0800 -1.8505  0.7316
  521MOL0     H68717   7.962   1.120   3.987 -1.1132  0.4657  0.9174
  521MOL0     H68718   8.032   1.256   4.079 -3.2751  1.8895 -0.1714
  521MOL0     H68719   7.896   1.193   4.261  2.8797  2.0473 -1.6783
  521MOL0     H68720   7.854   1.037   4.197 -3.1094  0.1188  2.0773
  521MOL0     H68721   7.756   1.312   4.082 -0.5211 -0.1825 -0.0795
  521MOL0     H68722   7.733   1.179   3.992 -2.6789  2.3262 -0.2911
  521MOL0     H68723   7.645   1.232   4.292 -2.8113  3.1211 -0.3693
  521MOL0     H68724   7.611   1.077   4.220 -0.5556  0.6987  3.5822
  521MOL0     H68725   7.559   1.448   4.102  0.3998 -0.8841 -1.4272
  521MOL0     H68726   7.315   1.554   3.949  0.3618 -0.8222 -0.2952
  521MOL0     H68727   7.368   1.608   4.102  0.7768 -0.9001  1.1504
  521MOL0     H68728   7.151   1.576   4.201 -0.7941 -3.6107 -0.3137
  521MOL0     H68729   7.090   1.474   4.075 -0.7558  0.3061 -0.2910
  521MOL0     H68730   7.171   1.774   4.036 -0.5902  1.3990 -1.2157
  521MOL0     H68731   7.105   1.670   3.914 -1.1805 -2.5370  0.0411
  521MOL0     H68732   6.915   1.787   3.985  1.1757  0.1400 -0.2321
  521MOL0     H68733   6.954   1.774   4.162  0.8845  1.8729 -1.4630
  521MOL0     H68734   6.718   1.412   4.133 -3.0202 -1.8161  1.5280
  521MOL0     H68735   6.513   1.426   4.274  0.4651  1.1928  2.9745
  521MOL0     H68736   6.096   1.452   4.132 -1.7820  2.5038 -1.4210
  521MOL0     H68737   5.842   1.466   4.191  0.4579  0.1109 -0.7133
  521MOL0     H68738   5.665   1.572   4.573  0.2895  2.1503 -0.3778
  521MOL0     H68739   5.696   1.424   4.480 -2.5815 -0.5604  2.1266
  521MOL0     H68740   5.470   1.446   4.486 -0.6653  1.1334  1.5044
  521MOL0     H68741   5.509   1.492   4.323  0.3468 -0.8201  0.7700
  521MOL0     H68742   5.525   1.738   4.419 -0.4656  0.8559 -0.3383
  521MOL0     H68743   5.434   1.668   4.559  0.6910 -2.3337  0.8493
  521MOL0     H68744   5.318   1.601   4.292  0.3743  0.8686 -0.9895
  521MOL0     H68745   5.246   1.609   4.461  1.5293  2.0487  1.4190
  521MOL0     H68746   5.341   1.854   4.314 -0.6424  0.2456  0.3281
  521MOL0     H68747   5.285   1.849   4.471  2.9979  0.4432 -0.1331
  521MOL0     H68748   5.068   1.757   4.401 -4.2494 -1.3435 -3.6895
  521MOL0     H68749   5.120   1.750   4.231 -0.9996 -0.7018  1.1102
  521MOL0     H68750   5.099   1.990   4.418 -0.5275 -1.4329  0.9404
  521MOL0     H68751   5.181   2.000   4.252 -2.5553 -0.6249 -1.8097
  521MOL0     H68752   4.966   1.930   4.150 -0.1396 -1.8995  0.8337
  521MOL0     H68753   4.961   2.084   4.249  0.2757 -0.1916  3.8522
  521MOL0     H68754   5.932   1.675   4.551 -1.7803  0.2404 -0.9841
  521MOL0     H68755   6.178   1.613   4.512 -0.8910 -3.1193  2.1082
  521MOL0     H68756   6.537   1.859   4.231  0.8234  0.2620  0.5258
  521MOL0     H68757   6.756   1.835   4.146 -0.2238  0.7995  0.1922
  521MOL0     H68758   8.614   1.265   3.908 -1.1273  0.5955  2.9511
  521MOL0     H68759   8.858   1.333   3.851 -1.0722  0.4672 -0.7675
  521MOL0     H68760   9.364   1.037   3.738 -1.0159 -1.9300  2.0722
  521MOL0     H68761   9.601   1.153   3.724 -0.1148  0.2224  1.3050
  521MOL0     H68762   9.725   1.464   3.981 -1.5747  0.6824  0.3898
  521MOL0     H68763   9.645   1.553   3.856 -0.4098 -1.3103 -0.0789
  521MOL0     H68764   9.942   1.427   3.823  1.0988  1.8428 -0.1576
  521MOL0     H68765   9.849   1.531   3.713 -3.5477 -0.0102  1.1417
  521MOL0     H68766   9.926   1.575   4.002  1.2190 -0.8747 -0.5583
  521MOL0     H68767   9.849   1.696   3.900 -0.5629  0.2273 -0.2859
  521MOL0     H68768  10.065   1.678   3.753 -0.5448 -2.9643 -1.2555
  521MOL0     H68769  10.098   1.723   3.932 -0.2303 -1.1986  0.4190
  521MOL0     H68770  10.312   1.362   3.904 -1.3725 -1.2804  0.0407
  521MOL0     H68771   9.477   1.456   3.980 -1.0095  0.1821 -0.1035
  521MOL0     H68772   9.245   1.348   3.996 -1.9448  0.1143 -2.5472
  522MOL0     O68773   4.693   9.067  10.715  0.4239 -0.2804 -0.3560
  522MOL0     C68774   4.685   9.097  10.837  0.0440 -0.0343  0.0529
  522MOL0     O68775   4.570   9.077  10.914 -0.1239  0.2468 -0.3418
  522MOL0     C68776   4.465   9.000  10.872  0.9250  0.1441  0.3267
  522MOL0     C68777   4.476   8.887  10.790  1.2685  0.3787  0.3508
  522MOL0     C68778   4.359   8.811  10.759 -1.2430  0.5314  0.1979
  522MOL0     C68779   4.235   8.832  10.807 -0.1262 -1.6622  0.6117
  522MOL0     O68780   4.139   8.744  10.769  0.0835 -0.3242  0.2370
  522MOL0     C68781   4.020   8.732  10.848  0.3428  0.3239  0.5922
  522MOL0     C68782   3.943   8.598  10.825  0.6253 -0.8074 -0.7264
  522MOL0     C68783   3.800   8.601  10.889 -0.3722  0.2236 -0.0212
  522MOL0     C68784   3.708   8.480  10.875 -0.0036 -0.5290 -0.4499
  522MOL0     C68785   3.766   8.374  10.968  0.9161  0.1641 -0.0123
  522MOL0     C68786   3.676   8.239  10.976  0.3377 -0.1485 -0.3396
  522MOL0     C68787   3.740   8.122  11.059 -0.3760 -0.2092 -0.7714
  522MOL0     C68788   3.685   7.986  11.009 -0.1665 -0.9295 -0.0055
  522MOL0     N68789   3.549   7.969  11.047 -0.0123 -0.2193 -0.1115
  522MOL0     C68790   3.484   7.957  11.164 -0.5158  0.2252 -0.3595
  522MOL0     C68791   3.355   7.954  11.133 -0.3280  0.8203  0.8400
  522MOL0     C68792   3.236   7.948  11.224  0.5775  0.1648 -0.2878
  522MOL0     C68793   3.148   8.073  11.197 -0.2345 -0.2016  0.8175
  522MOL0     C68794   3.009   8.078  11.266 -0.1738 -0.1989 -0.1716
  522MOL0     C68795   2.943   7.940  11.291  0.2775 -0.9314 -0.1210
  522MOL0     O68796   2.799   7.975  11.292  0.2655  1.3078 -0.2056
  522MOL0     C68797   2.704   7.877  11.315  1.1793 -0.9363 -0.8821
  522MOL0     C68798   2.581   7.927  11.358  0.0235 -0.3587  0.5785
  522MOL0     C68799   2.485   7.848  11.409 -0.1228 -0.9910  0.0660
  522MOL0     C68800   2.506   7.708  11.428 -0.4538 -0.7081 -0.6141
  522MOL0     C68801   2.393   7.622  11.470 -0.6789 -0.1027 -0.1312
  522MOL0     O68802   2.267   7.676  11.452 -0.2057  0.2997 -0.1350
  522MOL0     C68803   2.158   7.599  11.489 -0.5996  0.4107  0.0931
  522MOL0     C68804   2.135   7.472  11.428  0.1630 -0.3432  0.3877
  522MOL0     C68805   2.026   7.388  11.467 -0.0539  0.0002  0.6208
  522MOL0     C68806   1.923   7.435  11.549  0.7259  0.6062 -1.1275
  522MOL0     O68807   1.800   7.378  11.572  0.1034 -0.0384  0.4973
  522MOL0     C68808   1.790   7.235  11.570  0.8541  0.0051 -0.0499
  522MOL0     C68809   1.647   7.202  11.617 -0.6571  0.5681 -1.0735
  522MOL0     C68810   1.529   7.278  11.564 -0.6744  0.0512 -0.2736
  522MOL0     C68811   1.401   7.231  11.630  0.5262 -0.7152  0.4020
  522MOL0     C68812   1.294   7.338  11.638 -1.4223 -0.3555 -0.0630
  522MOL0     C68813   1.160   7.279  11.688  0.4971 -0.3263 -0.0284
  522MOL0     C68814   1.054   7.387  11.644 -0.1098  0.6634 -0.2939
  522MOL0     C68815   0.913   7.355  11.694  0.3338  0.0982 -0.7379
  522MOL0    Cl68816   0.868   7.175  11.670  0.1282  0.1984  0.2158
  522MOL0     C68817   1.945   7.568  11.594  0.0903 -0.6185 -0.2971
  522MOL0     C68818   2.054   7.645  11.568  0.0846  0.4300 -0.4715
  522MOL0     O68819   2.419   7.518  11.525  0.1817 -0.5045 -0.6275
  522MOL0     C68820   2.633   7.655  11.397  0.2171  0.0520 -0.2881
  522MOL0     C68821   2.727   7.742  11.341  0.1434 -0.8846  0.6413
  522MOL0     N68822   3.346   7.946  10.995  0.4640 -0.5986  0.3054
  522MOL0     N68823   3.459   7.955  10.948 -0.1481  0.6824 -0.0313
  522MOL0     C68824   4.226   8.952  10.880  1.3628 -0.4017  0.2349
  522MOL0     C68825   4.339   9.027  10.917 -0.0614  0.1848  0.3274
  522MOL0     C68826   4.789   9.170  10.896 -0.1892 -0.3541  0.6452
  522MOL0     C68827   4.905   9.219  10.826  0.4371  0.9858 -0.5011
  522MOL0     C68828   5.013   9.280  10.889  0.2504  1.2276 -0.3473
  522MOL0     C68829   5.007   9.306  11.026 -0.1176 -0.8588  0.0410
  522MOL0     O68830   5.118   9.373  11.075 -0.4707 -0.4424 -0.0801
  522MOL0     C68831   5.159   9.359  11.211 -0.3806 -0.3710  0.2964
  522MOL0     C68832   5.273   9.449  11.234  0.0155  0.6093 -0.2457
  522MOL0     C68833   5.405   9.399  11.171  0.0401  0.1264 -0.0513
  522MOL0     C68834   5.512   9.507  11.182 -0.1124 -0.9086 -0.7611
  522MOL0     C68835   5.639   9.455  11.127 -0.6589 -0.4180 -0.5364
  522MOL0     C68836   5.743   9.403  11.083  0.0396  0.3950  0.0366
  522MOL0     C68837   4.896   9.259  11.096 -0.5805  0.1591 -0.3678
  522MOL0     C68838   4.791   9.194  11.033  0.5689 -0.8761 -0.4802
  522MOL0     H68839   4.571   8.855  10.749  2.0466  1.3508  1.3541
  522MOL0     H68840   4.366   8.744  10.674  1.4451  1.3852 -0.3633
  522MOL0     H68841   3.941   8.801  10.817 -4.0207 -3.3414  2.4438
  522MOL0     H68842   4.047   8.747  10.953 -2.5116  5.0980  0.9481
  522MOL0     H68843   4.016   8.523  10.855  0.8916  0.2221  1.3340
  522MOL0     H68844   3.929   8.583  10.717 -1.0939 -1.9970 -0.3764
  522MOL0     H68845   3.747   8.694  10.864 -3.6446 -0.9681  1.8443
  522MOL0     H68846   3.812   8.613  10.997 -1.2512  0.4591  0.0563
  522MOL0     H68847   3.603   8.501  10.894  0.4352  0.4310  1.1326
  522MOL0     H68848   3.722   8.436  10.775  1.6934  0.5851 -0.7528
  522MOL0     H68849   3.787   8.415  11.068  0.2611  1.8841 -0.5492
  522MOL0     H68850   3.865   8.355  10.925  0.7676  0.0775 -0.3161
  522MOL0     H68851   3.650   8.208  10.874  0.0431  0.3081 -0.4055
  522MOL0     H68852   3.582   8.257  11.028  1.2422  2.9925  0.3924
  522MOL0     H68853   3.846   8.123  11.034 -0.7553 -2.7556 -2.8705
  522MOL0     H68854   3.734   8.134  11.168 -2.3338 -0.5925 -0.8048
  522MOL0     H68855   3.750   7.912  11.056  1.5769  0.5209 -0.0451
  522MOL0     H68856   3.700   7.978  10.901  0.8870 -0.6519  0.1089
  522MOL0     H68857   3.520   7.937  11.265 -0.5084  0.2767 -0.3522
  522MOL0     H68858   3.271   7.944  11.328 -0.5597  1.7796  0.1869
  522MOL0     H68859   3.171   7.862  11.205 -0.6840  1.1771 -0.6874
  522MOL0     H68860   3.127   8.079  11.089  2.0400  0.1661  0.3486
  522MOL0     H68861   3.207   8.161  11.224 -0.5382  0.1368  0.4077
  522MOL0     H68862   3.015   8.129  11.363  2.8662  0.9260 -0.8584
  522MOL0     H68863   2.939   8.144  11.213 -2.0837 -2.4418 -0.5750
  522MOL0     H68864   2.974   7.906  11.390  1.5226  0.9332  0.1871
  522MOL0     H68865   2.971   7.873  11.209  3.9186  0.1710  0.0548
  522MOL0     H68866   2.559   8.031  11.334 -0.4734 -0.9407 -1.7793
  522MOL0     H68867   2.389   7.892  11.434 -0.3287  0.3215 -2.6219
  522MOL0     H68868   2.208   7.427  11.363 -0.7621  1.0739 -1.7471
  522MOL0     H68869   2.034   7.283  11.441 -5.4644 -0.8048  1.0237
  522MOL0     H68870   1.864   7.196  11.640  0.6052  0.8946  0.7173
  522MOL0     H68871   1.810   7.208  11.465 -1.0127 -0.4838 -0.3088
  522MOL0     H68872   1.653   7.208  11.726 -0.4108  2.7433 -1.1766
  522MOL0     H68873   1.621   7.098  11.594 -3.2620  0.4724  1.6046
  522MOL0     H68874   1.527   7.272  11.455  3.0184  1.4634 -0.5618
  522MOL0     H68875   1.547   7.384  11.585  1.9113  0.3700 -3.3333
  522MOL0     H68876   1.367   7.136  11.588  3.9795 -1.3783 -1.3287
  522MOL0     H68877   1.428   7.207  11.733 -0.1028 -0.1131  0.7138
  522MOL0     H68878   1.279   7.386  11.541  1.1954 -0.0347 -0.3622
  522MOL0     H68879   1.332   7.418  11.702 -0.0705  1.3701 -2.8491
  522MOL0     H68880   1.159   7.275  11.798  2.8313  1.1550  0.1280
  522MOL0     H68881   1.145   7.179  11.648  0.6057 -0.6849  0.8086
  522MOL0     H68882   1.077   7.479  11.699  0.8582  0.5620 -0.5106
  522MOL0     H68883   1.063   7.401  11.536 -1.9788 -1.4758 -0.7996
  522MOL0     H68884   0.833   7.419  11.654 -0.3225 -0.9689 -1.1676
  522MOL0     H68885   0.912   7.376  11.801  1.6114  1.9442 -1.0415
  522MOL0     H68886   1.864   7.619  11.647  1.1454  1.5252 -0.6312
  522MOL0     H68887   2.069   7.747  11.601  2.9238 -0.5443  1.6461
  522MOL0     H68888   2.657   7.551  11.419 -0.3983 -0.1961 -0.7483
  522MOL0     H68889   2.826   7.706  11.312  1.2341  1.2137  1.5629
  522MOL0     H68890   4.131   8.994  10.912  0.6817 -1.5274 -0.2503
  522MOL0     H68891   4.344   9.106  10.990  0.6169 -2.0393  2.8461
  522MOL0     H68892   4.914   9.187  10.722 -1.3557 -2.1938  0.1822
  522MOL0     H68893   5.091   9.318  10.823 -0.3170  2.2213 -0.4692
  522MOL0     H68894   5.194   9.257  11.231 -0.8927 -0.0975  2.8847
  522MOL0     H68895   5.078   9.389  11.277 -2.0153 -3.8623  0.1251
  522MOL0     H68896   5.240   9.542  11.186 -2.4010 -2.2617 -4.7964
  522MOL0     H68897   5.282   9.461  11.343  0.6286  0.2385 -0.2502
  522MOL0     H68898   5.390   9.379  11.064  0.2587  1.8991 -0.4406
  522MOL0     H68899   5.436   9.306  11.220 -2.0215 -0.0418  1.0256
  522MOL0     H68900   5.471   9.591  11.125 -1.2896  0.3947  1.8196
  522MOL0     H68901   5.531   9.536  11.286  0.5159  0.6833 -1.2920
  522MOL0     H68902   5.827   9.359  11.034 -0.2931  0.6022 -0.7251
  522MOL0     H68903   4.900   9.284  11.202 -0.9759  0.2280 -0.3668
  522MOL0     H68904   4.712   9.146  11.089  0.1026 -0.5641 -0.8716
  523MOL0     O68905   9.908  10.017   6.080 -0.8705 -0.1260  0.0763
  523MOL0     C68906   9.882  10.076   5.976 -0.3141  0.1245 -0.1618
  523MOL0     O68907   9.780  10.171   5.959  0.2892  0.9324  0.8399
  523MOL0     C68908   9.685  10.183   6.061  0.3653 -0.1335  0.4460
  523MOL0     C68909   9.583  10.093   6.071 -0.2030 -0.0642 -0.2605
  523MOL0     C68910   9.482  10.110   6.171 -0.7376  0.0163  0.3179
  523MOL0     C68911   9.482  10.216   6.264 -0.0528  0.1616  0.3673
  523MOL0     O68912   9.376  10.227   6.349 -0.2990 -0.5122 -0.4153
  523MOL0     C68913   9.376  10.342   6.437 -0.2155  0.4377  0.3845
  523MOL0     C68914   9.244  10.363   6.513  1.2381  0.0426  0.5861
  523MOL0     C68915   9.130  10.409   6.421  0.5995 -0.0735 -0.2138
  523MOL0     C68916   8.992  10.425   6.489 -0.2770  0.5364  0.2683
  523MOL0     C68917   8.926  10.289   6.530 -0.3584  1.2180  0.4737
  523MOL0     C68918   8.862  10.225   6.403  0.2805 -0.1331 -0.1202
  523MOL0     C68919   8.755  10.132   6.460 -0.5643  0.6525  1.0090
  523MOL0     C68920   8.696  10.067   6.341  0.1900  0.4749  1.1259
  523MOL0     N68921   8.594   9.964   6.366  0.8709  0.8459  0.2463
  523MOL0     C68922   8.607   9.832   6.395 -0.1687 -0.0196  0.6973
  523MOL0     C68923   8.485   9.788   6.434  0.1876  0.3660 -0.0451
  523MOL0     C68924   8.464   9.640   6.464 -0.0396  0.0708 -0.0586
  523MOL0     C68925   8.326   9.612   6.513 -0.5023  0.2391 -0.2621
  523MOL0     C68926   8.319   9.479   6.595 -0.3175 -0.2337  0.2485
  523MOL0     C68927   8.178   9.451   6.638  0.1236 -0.1184  0.5971
  523MOL0     O68928   8.189   9.337   6.734  0.4513 -0.4407 -0.2749
  523MOL0     C68929   8.093   9.238   6.732  0.1138 -0.0727 -0.5903
  523MOL0     C68930   8.026   9.190   6.619 -0.1934  1.3021 -0.2959
  523MOL0     C68931   7.931   9.083   6.623  0.3326 -0.4461 -0.3912
  523MOL0     C68932   7.887   9.035   6.750  0.0324 -0.8244  0.1618
  523MOL0     C68933   7.762   8.956   6.763 -0.9254 -0.1535  0.4794
  523MOL0     O68934   7.733   8.901   6.886  0.1155  0.0900  0.3288
  523MOL0     C68935   7.607   8.847   6.908 -0.2445  0.2612 -0.0741
  523MOL0     C68936   7.483   8.853   6.829 -0.0176  0.3356  0.5244
  523MOL0     C68937   7.363   8.792   6.866  0.2473 -0.4073 -0.9666
  523MOL0     C68938   7.363   8.720   6.995 -0.4215 -0.2593  1.0002
  523MOL0     O68939   7.252   8.654   7.038 -0.5969 -0.6469 -0.1951
  523MOL0     C68940   7.232   8.527   6.978  0.0530 -0.0836  0.1018
  523MOL0     C68941   7.128   8.456   7.062 -0.3771  0.0024  0.2111
  523MOL0     C68942   7.145   8.312   7.029  0.0677  0.3305  0.3566
  523MOL0     C68943   7.049   8.220   7.106  0.3338  0.3566 -1.4487
  523MOL0     C68944   7.040   8.087   7.034  0.3157  0.6452  0.0622
  523MOL0     C68945   6.965   7.971   7.100 -0.1474  0.3517  0.8066
  523MOL0     C68946   7.038   7.892   7.207  0.3872  0.9194 -0.4863
  523MOL0     C68947   6.969   7.754   7.254 -0.1650  0.1692  0.6398
  523MOL0    Cl68948   6.825   7.797   7.334 -0.2760  0.4250 -0.3100
  523MOL0     C68949   7.482   8.710   7.069  0.5366  1.0119  0.9197
  523MOL0     C68950   7.601   8.769   7.031  0.5784 -0.8697 -0.0489
  523MOL0     O68951   7.697   8.955   6.662 -0.2649  0.2266  0.4232
  523MOL0     C68952   7.955   9.084   6.865 -0.3562 -0.2137  0.1422
  523MOL0     C68953   8.056   9.185   6.857 -0.7474 -0.1263 -1.1785
  523MOL0     N68954   8.399   9.894   6.441  0.0767  0.7220  0.3659
  523MOL0     N68955   8.462   9.991   6.387  0.4912 -0.3118 -0.7429
  523MOL0     C68956   9.584  10.312   6.241  0.2761 -0.0437 -0.1721
  523MOL0     C68957   9.684  10.295   6.141 -0.0487  0.0808  0.4525
  523MOL0     C68958   9.967  10.058   5.864 -0.9600  0.8053  0.5967
  523MOL0     C68959   9.963  10.151   5.753  1.0662 -0.6636  0.5486
  523MOL0     C68960  10.060  10.142   5.655 -0.0663  0.4347  0.1006
  523MOL0     C68961  10.169  10.047   5.672  0.8873 -1.0114 -0.2834
  523MOL0     O68962  10.252  10.042   5.560  0.6464 -0.4776  0.1824
  523MOL0     C68963  10.362   9.962   5.581 -1.0020  0.9560  0.1295
  523MOL0     C68964  10.462   9.971   5.462  0.2772 -0.3974  0.8184
  523MOL0     C68965  10.605   9.917   5.480  0.2267 -0.3330 -0.7022
  523MOL0     C68966  10.720  10.014   5.434  0.6664 -0.0266 -0.5992
  523MOL0     C68967  10.844   9.937   5.424 -0.5805 -0.3641 -0.0718
  523MOL0     C68968  10.946   9.880   5.436  0.3730  0.1854 -0.3300
  523MOL0     C68969  10.176   9.968   5.784  0.5388 -0.1179 -0.6469
  523MOL0     C68970  10.071   9.961   5.877  0.4397  0.0368 -0.2008
  523MOL0     H68971   9.571  10.006   6.007 -0.8345 -0.3558  0.2353
  523MOL0     H68972   9.387  10.059   6.167 -0.3347 -0.6866 -2.9393
  523MOL0     H68973   9.403  10.434   6.386  0.6592 -0.0869 -0.1219
  523MOL0     H68974   9.450  10.322   6.515  2.0811 -1.7479 -2.1295
  523MOL0     H68975   9.244  10.423   6.605  0.3891  0.5497  0.2653
  523MOL0     H68976   9.224  10.261   6.548 -0.7898  0.6183  1.2489
  523MOL0     H68977   9.130  10.344   6.334 -2.1210 -0.6237  0.1140
  523MOL0     H68978   9.161  10.506   6.381  2.7426 -1.4814 -2.2425
  523MOL0     H68979   8.991  10.490   6.577 -0.9940  3.0033 -1.4575
  523MOL0     H68980   8.922  10.476   6.423  0.9678 -0.6163 -2.1170
  523MOL0     H68981   8.848  10.301   6.606  1.3883  2.3533  2.1918
  523MOL0     H68982   8.992  10.216   6.577 -2.5253 -1.0967  0.0955
  523MOL0     H68983   8.936  10.176   6.339 -0.3564  1.1974 -1.9592
  523MOL0     H68984   8.802  10.304   6.358  0.4111  0.6834  1.0832
  523MOL0     H68985   8.804  10.065   6.532 -0.6373  1.3733  1.7459
  523MOL0     H68986   8.674  10.187   6.509 -0.8446  0.8091  0.3755
  523MOL0     H68987   8.772  10.024   6.275 -1.5438  0.8801 -1.2576
  523MOL0     H68988   8.653  10.148   6.281  0.6391 -0.6932 -0.8721
  523MOL0     H68989   8.693   9.768   6.383  0.6617  1.3547 -1.2997
  523MOL0     H68990   8.534   9.606   6.540  0.3925  0.2545 -0.3696
  523MOL0     H68991   8.489   9.574   6.380  0.0387 -0.9446  0.7434
  523MOL0     H68992   8.267   9.600   6.422  0.5689 -2.9500 -0.6467
  523MOL0     H68993   8.290   9.697   6.572  0.9318  0.7200 -0.0291
  523MOL0     H68994   8.364   9.401   6.532  3.3291 -0.2106  2.5296
  523MOL0     H68995   8.388   9.484   6.680  0.9096 -1.2454 -0.6470
  523MOL0     H68996   8.115   9.429   6.551  3.7605 -0.4015 -2.2032
  523MOL0     H68997   8.142   9.544   6.682  1.6658  0.0872  1.4976
  523MOL0     H68998   8.062   9.228   6.523 -0.6301  0.7629 -0.6837
  523MOL0     H68999   7.887   9.048   6.531  3.8991 -1.6990 -1.7880
  523MOL0     H69000   7.473   8.917   6.742 -2.7427 -1.1183 -0.3740
  523MOL0     H69001   7.275   8.815   6.806  0.2206  2.1500 -0.0419
  523MOL0     H69002   7.325   8.470   6.969  0.7454  0.6665  2.0031
  523MOL0     H69003   7.194   8.538   6.876 -0.9793 -1.8178  0.2711
  523MOL0     H69004   7.033   8.503   7.033  0.6419  1.4900 -0.9172
  523MOL0     H69005   7.150   8.468   7.168 -2.9540 -2.2368  1.1151
  523MOL0     H69006   7.243   8.282   7.067 -0.3471  0.4085  1.5347
  523MOL0     H69007   7.140   8.297   6.920  2.5079  4.7390 -0.5950
  523MOL0     H69008   7.093   8.211   7.206  2.0801  2.1901 -1.9907
  523MOL0     H69009   6.950   8.264   7.121 -0.7408 -1.8545 -1.6290
  523MOL0     H69010   7.140   8.046   7.019  0.1246  0.1224  0.1708
  523MOL0     H69011   6.988   8.105   6.939 -1.1102  3.9923  1.3457
  523MOL0     H69012   6.925   7.899   7.028 -1.1489  1.5632  0.1114
  523MOL0     H69013   6.876   8.019   7.142 -1.7330 -0.1822 -1.7249
  523MOL0     H69014   7.137   7.858   7.176 -0.0891 -2.6007  1.4139
  523MOL0     H69015   7.045   7.948   7.301 -1.0371  0.7556 -0.2645
  523MOL0     H69016   7.029   7.687   7.316  0.8432 -1.9079 -2.3451
  523MOL0     H69017   6.944   7.699   7.163  0.9816 -0.5431  0.7438
  523MOL0     H69018   7.473   8.650   7.159  2.2070  2.4469  2.1016
  523MOL0     H69019   7.680   8.775   7.106  0.3384  1.5813  0.0770
  523MOL0     H69020   7.912   9.051   6.959  1.1284  0.0310  0.9399
  523MOL0     H69021   8.092   9.229   6.950  0.0835 -0.8716 -1.1305
  523MOL0     H69022   9.592  10.407   6.292 -1.0698 -0.7727  1.5054
  523MOL0     H69023   9.746  10.381   6.119  1.1008 -1.2854 -2.0454
  523MOL0     H69024   9.890  10.231   5.744 -1.1278 -2.0594  3.9689
  523MOL0     H69025  10.068  10.198   5.562  0.7994 -1.6780 -1.1585
  523MOL0     H69026  10.339   9.855   5.593  1.8165  0.2139 -0.2344
  523MOL0     H69027  10.421   9.997   5.665 -0.2867  1.1262 -0.4357
  523MOL0     H69028  10.413   9.918   5.379 -0.9964 -0.2881  1.4842
  523MOL0     H69029  10.471  10.078   5.441 -1.7375 -0.0308  1.5866
  523MOL0     H69030  10.613   9.837   5.406  0.2792 -0.1338 -0.9111
  523MOL0     H69031  10.626   9.885   5.582 -0.9222  0.6434 -0.1308
  523MOL0     H69032  10.693  10.072   5.346 -2.5561 -0.0973  0.2166
  523MOL0     H69033  10.733  10.083   5.518  1.0751 -0.8226  0.0162
  523MOL0     H69034  11.034   9.821   5.451 -0.7727 -1.4077  0.4694
  523MOL0     H69035  10.263   9.904   5.798  1.0277 -0.1008 -3.1418
  523MOL0     H69036  10.080   9.897   5.964  1.6923  0.1280 -0.2488
  524MOL0     O69037   4.578   8.134   4.784 -0.2492 -0.0972  0.0231
  524MOL0     C69038   4.593   8.115   4.907  0.8362 -0.2089 -0.1271
  524MOL0     O69039   4.499   8.070   4.997  0.5954  0.2052 -0.2602
  524MOL0     C69040   4.367   8.101   4.972  0.2688 -0.4334 -0.0470
  524MOL0     C69041   4.276   8.012   5.021  0.3605 -0.6377  0.0645
  524MOL0     C69042   4.135   8.031   5.001 -0.6612  0.1015  0.3419
  524MOL0     C69043   4.084   8.141   4.928 -0.6156 -0.2381 -0.6821
  524MOL0     O69044   3.949   8.135   4.923 -0.5078  0.3247  0.0942
  524MOL0     C69045   3.886   8.143   4.793 -0.5775  0.4961 -0.2987
  524MOL0     C69046   3.748   8.088   4.800  0.2397 -0.2035 -0.0457
  524MOL0     C69047   3.655   8.170   4.894 -0.2795 -0.4077 -0.6002
  524MOL0     C69048   3.513   8.117   4.890 -0.5119 -0.0042 -0.6095
  524MOL0     C69049   3.455   8.160   5.021  1.2747  0.0847  0.6831
  524MOL0     C69050   3.317   8.097   5.039  0.0039  0.2235  0.3893
  524MOL0     C69051   3.261   8.120   5.177  0.5160  0.5103 -0.1201
  524MOL0     C69052   3.146   8.040   5.211 -0.5677 -0.3451 -0.3851
  524MOL0     N69053   3.018   8.109   5.175 -0.7128 -0.2208  0.2264
  524MOL0     C69054   2.988   8.157   5.056  0.2059  0.0845  0.0855
  524MOL0     C69055   2.871   8.220   5.074 -0.3699  0.2824 -0.5579
  524MOL0     C69056   2.796   8.296   4.963 -0.4275  0.0545 -0.2526
  524MOL0     C69057   2.765   8.442   5.001  0.3049 -0.7130 -1.0933
  524MOL0     C69058   2.712   8.527   4.887  0.4209 -0.1316 -0.3241
  524MOL0     C69059   2.587   8.470   4.815  0.4078 -0.1516  0.8715
  524MOL0     O69060   2.537   8.571   4.723  0.7322  1.2338 -0.2047
  524MOL0     C69061   2.413   8.564   4.672  0.3442  1.1169 -0.2752
  524MOL0     C69062   2.337   8.446   4.648 -0.7087  0.2405  0.3162
  524MOL0     C69063   2.215   8.442   4.584  0.4167 -0.0562  0.2276
  524MOL0     C69064   2.160   8.558   4.525 -0.3287 -0.7056  0.1701
  524MOL0     C69065   2.034   8.568   4.457  0.2665 -0.1371  0.1859
  524MOL0     O69066   1.971   8.450   4.423  0.0610  0.9415 -0.2520
  524MOL0     C69067   1.840   8.461   4.393  0.2386  0.4213 -0.4236
  524MOL0     C69068   1.734   8.449   4.489  0.0805  0.0464  0.4677
  524MOL0     C69069   1.601   8.469   4.445 -0.0550  0.4981 -0.8706
  524MOL0     C69070   1.569   8.496   4.308 -0.7527  0.6798 -0.3747
  524MOL0     O69071   1.432   8.513   4.284 -0.1218  0.1573  0.2077
  524MOL0     C69072   1.375   8.558   4.156 -0.0904  0.1411  0.7595
  524MOL0     C69073   1.224   8.583   4.165  0.1316 -0.9693  0.5474
  524MOL0     C69074   1.151   8.459   4.201 -0.2559 -0.3556  0.3515
  524MOL0     C69075   1.006   8.485   4.240 -0.4983 -0.4340  0.0210
  524MOL0     C69076   0.937   8.355   4.281 -0.4351  0.5616  0.5666
  524MOL0     C69077   0.782   8.363   4.273 -0.1142  0.1636 -0.3231
  524MOL0     C69078   0.719   8.493   4.313 -0.5078 -0.9786 -0.7407
  524MOL0     C69079   0.579   8.499   4.265  0.3090  0.1242  0.2607
  524MOL0    Cl69080   0.505   8.661   4.289 -0.4529 -0.1901  0.2461
  524MOL0     C69081   1.676   8.494   4.217 -0.1623 -0.1251  0.3400
  524MOL0     C69082   1.806   8.479   4.260 -0.1300  0.0122  0.4033
  524MOL0     O69083   1.979   8.682   4.436 -0.3819  0.8150  0.8596
  524MOL0     C69084   2.238   8.681   4.549 -0.0899  0.1358  0.3919
  524MOL0     C69085   2.360   8.681   4.618  0.0025 -0.2769  0.6890
  524MOL0     N69086   2.824   8.203   5.203 -0.0256  0.5742  0.6917
  524MOL0     N69087   2.922   8.136   5.266  0.0525 -0.2558 -0.0186
  524MOL0     C69088   4.175   8.236   4.871 -0.2286  0.3910 -0.1581
  524MOL0     C69089   4.314   8.213   4.896 -0.1713  0.2923  0.8094
  524MOL0     C69090   4.732   8.114   4.955 -0.1462 -0.1072 -0.1872
  524MOL0     C69091   4.842   8.138   4.865 -0.0533 -0.6599 -0.5679
  524MOL0     C69092   4.974   8.120   4.912  0.3663 -0.3549 -0.4425
  524MOL0     C69093   4.998   8.096   5.051 -0.1630 -0.1632  0.2059
  524MOL0     O69094   5.123   8.086   5.110 -0.6937 -0.1861  0.4667
  524MOL0     C69095   5.245   8.104   5.031  1.4934  0.9653  0.0340
  524MOL0     C69096   5.293   8.250   5.020 -0.2437 -0.6947  0.0935
  524MOL0     C69097   5.426   8.257   4.931  0.2030 -0.8125  1.2504
  524MOL0     C69098   5.453   8.398   4.890  0.1016 -0.0199  0.2486
  524MOL0     C69099   5.516   8.475   4.997  0.0004 -0.1155 -0.0697
  524MOL0     C69100   5.570   8.542   5.083  0.9753  0.9173 -0.0889
  524MOL0     C69101   4.891   8.071   5.138  0.3207  0.6225 -0.2655
  524MOL0     C69102   4.759   8.072   5.087 -0.5326  0.2192  0.6323
  524MOL0     H69103   4.306   7.926   5.080 -2.4267 -0.8589  1.3339
  524MOL0     H69104   4.079   7.947   5.043 -2.9743  0.7073 -1.2918
  524MOL0     H69105   3.930   8.075   4.719  1.2580 -2.2744  3.0066
  524MOL0     H69106   3.884   8.248   4.763  2.2397  0.0498 -2.5079
  524MOL0     H69107   3.747   7.980   4.817 -0.1411 -0.4310 -1.3901
  524MOL0     H69108   3.703   8.099   4.701 -1.4474  0.7356  0.7708
  524MOL0     H69109   3.651   8.273   4.858  1.7302 -0.3421 -0.7459
  524MOL0     H69110   3.695   8.167   4.996  0.9697 -1.2762 -1.0927
  524MOL0     H69111   3.462   8.158   4.802  0.0367  0.8108 -0.5560
  524MOL0     H69112   3.501   8.008   4.882  1.6751 -0.3818  0.6771
  524MOL0     H69113   3.437   8.268   5.018  1.6612  0.1278 -0.3820
  524MOL0     H69114   3.521   8.134   5.105  0.0373 -0.1699  1.6050
  524MOL0     H69115   3.316   7.991   5.010 -1.9512  0.4272 -0.4333
  524MOL0     H69116   3.256   8.149   4.965  0.6291  0.1840 -0.1662
  524MOL0     H69117   3.339   8.102   5.251  0.4357  2.0024  0.3566
  524MOL0     H69118   3.236   8.225   5.189  2.8634  1.3132 -1.5917
  524MOL0     H69119   3.137   8.018   5.317  0.3640 -0.1266 -0.2543
  524MOL0     H69120   3.150   7.942   5.161  0.1499  1.0258 -3.2322
  524MOL0     H69121   3.051   8.158   4.967  0.6011  1.4547  0.3527
  524MOL0     H69122   2.705   8.239   4.940 -0.8403  0.6427 -0.0972
  524MOL0     H69123   2.855   8.310   4.872  1.9364 -0.9682  1.0531
  524MOL0     H69124   2.851   8.490   5.049  1.0208 -1.4984 -1.5733
  524MOL0     H69125   2.685   8.447   5.075  0.6686 -0.4496 -0.7086
  524MOL0     H69126   2.677   8.622   4.928 -0.1302 -0.6803  0.4932
  524MOL0     H69127   2.786   8.539   4.807 -0.4747  2.3265 -0.8904
  524MOL0     H69128   2.497   8.453   4.875 -1.5862  2.7520 -0.9998
  524MOL0     H69129   2.610   8.375   4.767  2.4529  0.8109 -0.1761
  524MOL0     H69130   2.391   8.356   4.676 -1.8119  0.1228  2.3062
  524MOL0     H69131   2.158   8.351   4.563  0.2811 -0.0675  0.6449
  524MOL0     H69132   1.753   8.426   4.594  1.5913  0.9611  0.4258
  524MOL0     H69133   1.525   8.462   4.522  0.6434 -0.1623 -0.2197
  524MOL0     H69134   1.386   8.486   4.074 -0.3904 -1.2832  1.9308
  524MOL0     H69135   1.429   8.649   4.128 -1.6485  1.5041  1.9578
  524MOL0     H69136   1.185   8.606   4.066  0.6505 -0.9749  0.3449
  524MOL0     H69137   1.194   8.669   4.227 -0.3225  0.2104 -1.2524
  524MOL0     H69138   1.201   8.403   4.280 -1.7048 -1.1636  0.7352
  524MOL0     H69139   1.145   8.381   4.124 -2.6182 -1.5854  1.6415
  524MOL0     H69140   0.991   8.559   4.319  0.1245  0.8826 -1.0577
  524MOL0     H69141   0.963   8.530   4.150 -0.6563 -0.4071  0.1087
  524MOL0     H69142   0.958   8.324   4.384  2.0663 -3.9194 -0.9681
  524MOL0     H69143   0.974   8.275   4.216 -0.0229  1.6591 -0.5911
  524MOL0     H69144   0.738   8.275   4.319 -0.3758 -1.6852 -3.7881
  524MOL0     H69145   0.756   8.353   4.167  0.5947  1.1526 -0.6084
  524MOL0     H69146   0.706   8.491   4.421 -0.8280 -2.3562 -0.7808
  524MOL0     H69147   0.782   8.577   4.284  0.3752 -0.7577  1.6131
  524MOL0     H69148   0.514   8.425   4.312 -2.6009  1.5257 -1.2947
  524MOL0     H69149   0.580   8.478   4.157  1.5445  2.6479 -0.3165
  524MOL0     H69150   1.660   8.514   4.111  0.3974  1.0485  0.4701
  524MOL0     H69151   1.879   8.493   4.181  1.1896  2.7045  1.9516
  524MOL0     H69152   2.201   8.779   4.521 -1.6019  0.0332  1.8557
  524MOL0     H69153   2.410   8.777   4.633 -0.3204  0.3169 -1.6729
  524MOL0     H69154   4.139   8.320   4.813  1.2644  0.5291 -0.9459
  524MOL0     H69155   4.383   8.281   4.848 -0.3614  0.7221  1.1465
  524MOL0     H69156   4.825   8.150   4.759 -0.1761  0.9517 -0.3950
  524MOL0     H69157   5.058   8.140   4.845  1.6848 -0.5632  1.0839
  524MOL0     H69158   5.227   8.068   4.929 -1.8005 -0.7190  1.0921
  524MOL0     H69159   5.326   8.037   5.062  1.3835 -0.7642 -2.9791
  524MOL0     H69160   5.214   8.318   4.988  0.0748 -0.7905 -0.9401
  524MOL0     H69161   5.324   8.279   5.121 -0.8535  0.1804  0.0429
  524MOL0     H69162   5.407   8.209   4.835  1.5957  3.2302 -1.3495
  524MOL0     H69163   5.515   8.214   4.978  1.9508  3.6568  2.6526
  524MOL0     H69164   5.520   8.386   4.805  0.1082  0.7521  0.1421
  524MOL0     H69165   5.362   8.449   4.857 -0.8512 -1.1068  1.0786
  524MOL0     H69166   5.617   8.597   5.162 -0.4708  0.0578  1.4382
  524MOL0     H69167   4.923   8.040   5.237  0.2316 -2.6639 -1.1290
  524MOL0     H69168   4.689   8.053   5.168  2.4927 -0.1246  3.3890
  525MOL0     O69169   3.511   4.117   6.665 -0.0935 -0.3324 -0.0953
  525MOL0     C69170   3.512   4.211   6.743  0.2220 -0.6143  0.1943
  525MOL0     O69171   3.624   4.284   6.781  0.2043 -1.1858 -0.4571
  525MOL0     C69172   3.748   4.219   6.774  0.3026  0.4238 -0.3183
  525MOL0     C69173   3.860   4.300   6.759  0.0822  0.1103  0.3449
  525MOL0     C69174   3.993   4.258   6.757  0.0797  0.0115 -0.0159
  525MOL0     C69175   4.011   4.117   6.787 -0.0296 -0.4183  0.2617
  525MOL0     O69176   4.134   4.054   6.786  0.1126  0.2321  0.2560
  525MOL0     C69177   4.254   4.132   6.801  0.0874 -0.3152 -1.2004
  525MOL0     C69178   4.360   4.037   6.857 -0.0329  0.4174 -0.1312
  525MOL0     C69179   4.495   4.107   6.870 -0.1638 -0.2176 -0.1980
  525MOL0     C69180   4.581   4.007   6.933  0.0460  0.1848 -0.6350
  525MOL0     C69181   4.725   4.042   6.907 -0.0586  1.0995  0.0535
  525MOL0     C69182   4.815   3.937   6.966 -0.8530  0.7937  0.2610
  525MOL0     C69183   4.957   4.002   6.942 -0.4681  0.9070  0.0427
  525MOL0     C69184   5.082   3.919   6.982 -0.7553 -0.4149  0.7461
  525MOL0     N69185   5.096   3.940   7.130  0.1929 -0.4214  0.6968
  525MOL0     C69186   5.136   4.060   7.180 -0.2809  0.2068  0.5959
  525MOL0     C69187   5.118   4.039   7.314  0.0231  0.6211  0.1256
  525MOL0     C69188   5.129   4.140   7.429  0.6113 -0.8460  0.1239
  525MOL0     C69189   4.996   4.204   7.447 -0.5795 -0.3057 -0.1922
  525MOL0     C69190   4.983   4.273   7.582 -0.2724 -0.6132  0.0761
  525MOL0     C69191   4.850   4.339   7.596 -1.0909  0.1857 -0.0228
  525MOL0     O69192   4.747   4.242   7.578 -0.4394  0.5735 -0.0385
  525MOL0     C69193   4.614   4.277   7.588 -0.2553  0.5577  0.1799
  525MOL0     C69194   4.565   4.406   7.599 -0.2344 -0.2714 -0.0240
  525MOL0     C69195   4.432   4.449   7.580  0.0968 -0.6240  0.0632
  525MOL0     C69196   4.331   4.349   7.579 -0.6046  0.2299 -0.3370
  525MOL0     C69197   4.183   4.375   7.578  0.1949 -0.0866  0.6673
  525MOL0     O69198   4.085   4.281   7.615 -0.3438  0.2334 -0.0045
  525MOL0     C69199   3.952   4.315   7.643  0.2491 -0.0354  0.3378
  525MOL0     C69200   3.874   4.427   7.612  0.6030  0.5873 -0.4035
  525MOL0     C69201   3.742   4.432   7.671  0.0967  0.0116  0.7172
  525MOL0     C69202   3.697   4.335   7.751  0.3068  0.4453  0.9607
  525MOL0     O69203   3.583   4.340   7.819  0.4576 -0.8644  0.1909
  525MOL0     C69204   3.485   4.442   7.799 -0.5505 -0.0258 -0.0611
  525MOL0     C69205   3.362   4.418   7.887 -0.0552  0.4832  0.0908
  525MOL0     C69206   3.253   4.531   7.874 -1.1460  0.5824  0.3312
  525MOL0     C69207   3.130   4.493   7.956  0.6887  1.3157 -0.7502
  525MOL0     C69208   3.031   4.607   7.950 -0.1674  0.4255  0.1155
  525MOL0     C69209   2.935   4.590   8.072 -0.1447  0.0036 -0.3273
  525MOL0     C69210   2.854   4.459   8.075  0.0300 -0.1608 -0.1369
  525MOL0     C69211   2.763   4.444   8.193  0.2566 -1.0208 -0.3995
  525MOL0    Cl69212   2.858   4.399   8.341  0.2561  0.0423  0.2155
  525MOL0     C69213   3.781   4.229   7.785  1.1311 -0.0201 -0.4332
  525MOL0     C69214   3.903   4.213   7.727 -0.1289 -0.0671 -0.5042
  525MOL0     O69215   4.153   4.483   7.529 -0.0048 -0.1178 -0.3713
  525MOL0     C69216   4.374   4.215   7.583  0.3289 -0.2069 -0.4819
  525MOL0     C69217   4.509   4.181   7.584  0.1723  0.2163  0.7054
  525MOL0     N69218   5.091   3.900   7.328  0.4205 -0.0269 -0.0337
  525MOL0     N69219   5.069   3.846   7.219  0.1552  0.1686 -0.4234
  525MOL0     C69220   3.906   4.031   6.806 -0.7833 -0.7174  0.7655
  525MOL0     C69221   3.771   4.080   6.797  0.5006  0.3945 -0.6407
  525MOL0     C69222   3.379   4.235   6.808 -0.3060  0.3140 -0.0682
  525MOL0     C69223   3.346   4.349   6.891 -0.8340 -0.2327 -0.8722
  525MOL0     C69224   3.217   4.369   6.946 -0.1049  0.8497  0.0874
  525MOL0     C69225   3.115   4.289   6.906  0.4198  0.3686 -0.0323
  525MOL0     O69226   2.990   4.313   6.970  0.6917 -0.1352 -0.5134
  525MOL0     C69227   2.884   4.236   6.924  0.8445  0.1896 -0.0981
  525MOL0     C69228   2.753   4.286   6.985 -1.0555  0.6119  0.1943
  525MOL0     C69229   2.769   4.300   7.130  0.5916 -0.9843  0.9811
  525MOL0     C69230   2.658   4.376   7.195  0.4580  0.0747  0.0877
  525MOL0     C69231   2.525   4.308   7.183 -0.4396 -0.2611  0.1847
  525MOL0     C69232   2.420   4.252   7.174 -1.0129  0.5058 -0.0672
  525MOL0     C69233   3.137   4.182   6.821 -0.3566 -0.2114 -0.3429
  525MOL0     C69234   3.268   4.160   6.771 -0.1110  0.0159  0.7285
  525MOL0     H69235   3.834   4.405   6.747 -0.9868 -0.0448  1.1077
  525MOL0     H69236   4.072   4.332   6.768 -0.5002  1.0689 -2.4046
  525MOL0     H69237   4.243   4.215   6.871 -2.6937 -1.7194  0.2138
  525MOL0     H69238   4.273   4.171   6.701 -0.7317 -3.2965 -2.6285
  525MOL0     H69239   4.358   3.951   6.789  2.2152 -0.0710  0.3532
  525MOL0     H69240   4.323   4.005   6.955 -2.0712 -0.4640 -1.1232
  525MOL0     H69241   4.484   4.195   6.934 -0.2272  0.4458 -1.1061
  525MOL0     H69242   4.529   4.130   6.769  2.3991 -3.8616 -0.3922
  525MOL0     H69243   4.564   4.009   7.041 -0.6936  0.8565 -0.7537
  525MOL0     H69244   4.560   3.907   6.894 -1.6165  0.4593 -0.5367
  525MOL0     H69245   4.744   4.137   6.957  2.4161  0.4976  0.3929
  525MOL0     H69246   4.740   4.053   6.799 -1.7091 -2.1311 -0.6327
  525MOL0     H69247   4.817   3.838   6.919 -0.1210  0.6124  0.6522
  525MOL0     H69248   4.799   3.920   7.073 -0.8709 -0.6870  0.0458
  525MOL0     H69249   4.958   4.010   6.833 -0.2371 -2.9223 -0.3545
  525MOL0     H69250   4.960   4.098   6.995 -0.1616  0.4858  0.8001
  525MOL0     H69251   5.173   3.953   6.932 -1.8933  0.7641 -0.6366
  525MOL0     H69252   5.053   3.817   6.956 -1.0638  0.6201 -3.7359
  525MOL0     H69253   5.160   4.155   7.134  1.0826  0.5645  1.9412
  525MOL0     H69254   5.206   4.211   7.398  1.6290 -1.9359  0.0437
  525MOL0     H69255   5.164   4.088   7.519 -1.7970 -3.0095 -0.0819
  525MOL0     H69256   4.922   4.126   7.428  0.6861 -0.7233 -4.3233
  525MOL0     H69257   4.990   4.278   7.368  0.4156 -0.0496 -0.0345
  525MOL0     H69258   4.994   4.190   7.652  1.2012  0.9858  1.8584
  525MOL0     H69259   5.065   4.343   7.597 -0.4170 -0.0894 -1.4260
  525MOL0     H69260   4.843   4.419   7.522  0.6007  0.2189 -0.1698
  525MOL0     H69261   4.853   4.372   7.701 -0.4570 -0.2025  0.0800
  525MOL0     H69262   4.627   4.495   7.600 -1.9230  0.9716  0.5328
  525MOL0     H69263   4.408   4.555   7.574  0.8474 -0.2032  2.8540
  525MOL0     H69264   3.904   4.508   7.547  0.3676  0.2257 -0.9721
  525MOL0     H69265   3.672   4.509   7.642  2.3813  1.6670 -0.7401
  525MOL0     H69266   3.450   4.447   7.696  2.4542  2.1337 -1.1092
  525MOL0     H69267   3.534   4.539   7.815  2.5758 -1.0206 -2.6438
  525MOL0     H69268   3.397   4.418   7.991  0.5800  2.5965 -0.0710
  525MOL0     H69269   3.317   4.321   7.862  0.0404  0.1474  1.1618
  525MOL0     H69270   3.212   4.534   7.773  0.6745 -0.9215 -0.5038
  525MOL0     H69271   3.298   4.627   7.902 -0.2476  0.6481 -1.2487
  525MOL0     H69272   3.073   4.403   7.932  0.6750  0.7828  1.1271
  525MOL0     H69273   3.163   4.476   8.059 -3.3410  1.5474  0.7427
  525MOL0     H69274   2.975   4.611   7.856 -0.3134 -0.8825  0.1233
  525MOL0     H69275   3.085   4.700   7.966 -1.8230  1.4519 -0.0003
  525MOL0     H69276   2.870   4.678   8.070 -0.7861 -0.4666 -1.2078
  525MOL0     H69277   2.995   4.607   8.161  0.9282 -0.6099 -0.9052
  525MOL0     H69278   2.798   4.455   7.982 -1.8514 -1.6678  0.9822
  525MOL0     H69279   2.917   4.369   8.071  1.5007  0.8413 -0.3589
  525MOL0     H69280   2.692   4.362   8.180 -1.4244  0.2270  0.5221
  525MOL0     H69281   2.714   4.538   8.223  2.5997  0.0668  0.2959
  525MOL0     H69282   3.759   4.147   7.852 -1.2890  1.0220  0.1624
  525MOL0     H69283   3.968   4.137   7.769  1.5365  1.3621 -0.3754
  525MOL0     H69284   4.305   4.133   7.572  2.6659 -2.0637 -2.2763
  525MOL0     H69285   4.531   4.075   7.577  1.2756  0.5318 -3.4966
  525MOL0     H69286   3.926   3.927   6.827  2.3678 -1.6344 -4.8010
  525MOL0     H69287   3.693   4.005   6.807 -0.8966  2.0705  5.0552
  525MOL0     H69288   3.425   4.421   6.911 -1.1655 -0.6921  2.6461
  525MOL0     H69289   3.192   4.459   7.002  1.5126  3.9685 -3.6978
  525MOL0     H69290   2.898   4.131   6.951  0.9400  0.5203  1.2478
  525MOL0     H69291   2.860   4.245   6.818  0.5244  4.7344  0.1614
  525MOL0     H69292   2.728   4.380   6.935 -0.8432  0.7910  0.4246
  525MOL0     H69293   2.671   4.219   6.958  0.7081 -0.9323 -1.6518
  525MOL0     H69294   2.858   4.360   7.150  0.3560  1.9679 -4.8239
  525MOL0     H69295   2.773   4.204   7.182 -0.9991 -1.2069  0.7502
  525MOL0     H69296   2.683   4.400   7.299  1.1575 -3.9207  1.0198
  525MOL0     H69297   2.631   4.471   7.148 -0.2365 -0.0147  0.3056
  525MOL0     H69298   2.337   4.184   7.164 -0.7457  0.4057 -1.9795
  525MOL0     H69299   3.057   4.121   6.781 -1.7623  2.3032 -1.6207
  525MOL0     H69300   3.295   4.083   6.700  1.4899  0.7775  0.4618
  526MOL0     O69301   2.425   3.055   2.774  0.6791 -0.0521 -1.0190
  526MOL0     C69302   2.405   3.029   2.652 -0.1403 -0.3387 -0.6145
  526MOL0     O69303   2.282   2.991   2.591 -0.7186  0.5625 -0.0192
  526MOL0     C69304   2.166   2.982   2.657 -0.1892  0.2352 -0.8404
  526MOL0     C69305   2.055   2.988   2.581  0.2522 -0.0158  0.3702
  526MOL0     C69306   1.924   2.974   2.630 -0.4366 -0.0988  0.1613
  526MOL0     C69307   1.907   2.949   2.765  0.2063  0.9921  1.0588
  526MOL0     O69308   1.783   2.932   2.827  0.4615 -0.6494  0.4221
  526MOL0     C69309   1.667   2.928   2.742  0.8188 -0.7896 -0.6526
  526MOL0     C69310   1.535   2.894   2.814 -0.3591 -0.0937  0.1510
  526MOL0     C69311   1.406   2.889   2.740 -0.1576 -0.9554 -0.1728
  526MOL0     C69312   1.294   2.853   2.845 -0.5912  0.2106  0.5532
  526MOL0     C69313   1.162   2.826   2.775  0.3667  0.7662  0.4536
  526MOL0     C69314   1.087   2.959   2.743 -0.4524  0.4413  0.5300
  526MOL0     C69315   0.965   2.927   2.648  0.4057  0.9768  0.0928
  526MOL0     C69316   0.852   2.851   2.713  0.3571  0.6506  0.3325
  526MOL0     N69317   0.813   2.907   2.847 -0.0083 -0.7196  0.3484
  526MOL0     C69318   0.727   3.015   2.872 -0.4427  0.6242  0.5360
  526MOL0     C69319   0.724   3.034   3.000 -0.0345 -0.4566  0.1045
  526MOL0     C69320   0.675   3.152   3.077  0.1012  0.8932  0.4137
  526MOL0     C69321   0.546   3.109   3.142  0.1999 -0.0660 -0.4411
  526MOL0     C69322   0.422   3.120   3.064 -0.4833 -0.8106  0.0534
  526MOL0     C69323   0.301   3.077   3.146  0.2655 -0.3759  0.2460
  526MOL0     O69324   0.327   2.950   3.203  0.1754 -0.4374 -0.0359
  526MOL0     C69325   0.234   2.880   3.265  0.3506 -0.4283 -0.0590
  526MOL0     C69326   0.100   2.932   3.278 -0.9738 -0.1156  0.2721
  526MOL0     C69327  -0.000   2.855   3.336  0.4452 -0.4858  0.3451
  526MOL0     C69328   0.026   2.733   3.400 -0.7221 -0.3524  1.5021
  526MOL0     C69329  -0.078   2.657   3.470 -0.1877 -0.1543 -0.2094
  526MOL0     O69330  -0.196   2.724   3.492  0.3695 -0.5096  0.2154
  526MOL0     C69331  -0.310   2.658   3.524 -0.0505  0.2566 -0.4245
  526MOL0     C69332  -0.358   2.543   3.455 -0.6465  0.2181 -0.9428
  526MOL0     C69333  -0.480   2.488   3.486  0.0038 -0.4101 -0.7550
  526MOL0     C69334  -0.559   2.556   3.582 -0.5564  0.4132 -0.4962
  526MOL0     O69335  -0.684   2.503   3.611  0.5392  0.1953  0.8036
  526MOL0     C69336  -0.789   2.581   3.667  0.2523 -1.1780  0.2162
  526MOL0     C69337  -0.928   2.523   3.624 -0.5677  0.4332 -0.1902
  526MOL0     C69338  -1.041   2.576   3.718  0.3654  0.1734  0.7171
  526MOL0     C69339  -1.176   2.515   3.683 -0.1630  0.1968  0.6763
  526MOL0     C69340  -1.268   2.550   3.792 -0.2770 -0.5310 -0.2897
  526MOL0     C69341  -1.418   2.533   3.770 -0.0760  0.6284 -0.3609
  526MOL0     C69342  -1.489   2.562   3.902 -0.8690 -0.8273  0.8064
  526MOL0     C69343  -1.641   2.570   3.883  0.3155  1.0127  0.0099
  526MOL0    Cl69344  -1.714   2.426   3.814  0.0401 -0.1860 -0.7113
  526MOL0     C69345  -0.516   2.679   3.643  0.3170  0.2391  0.6519
  526MOL0     C69346  -0.396   2.726   3.609 -0.4840  0.1049  0.0464
  526MOL0     O69347  -0.051   2.544   3.511  0.3508 -0.6192 -0.3487
  526MOL0     C69348   0.158   2.685   3.392 -0.3024  0.5289  0.0296
  526MOL0     C69349   0.255   2.756   3.322  0.4999  0.8091 -0.5511
  526MOL0     N69350   0.804   2.938   3.060  0.3974 -0.8455  0.2495
  526MOL0     N69351   0.843   2.858   2.967 -0.2149  0.0880 -0.3843
  526MOL0     C69352   2.016   2.956   2.850 -0.0188  0.0969  0.1422
  526MOL0     C69353   2.139   2.971   2.795 -0.2940 -0.0652  0.3279
  526MOL0     C69354   2.526   3.047   2.560  0.0453  0.0147 -0.0467
  526MOL0     C69355   2.638   3.120   2.604  0.0728 -0.6006 -0.1560
  526MOL0     C69356   2.762   3.124   2.535  0.4725 -0.2683  0.8958
  526MOL0     C69357   2.778   3.056   2.417 -0.0736 -0.1179  0.7042
  526MOL0     O69358   2.899   3.049   2.354  0.1293 -0.3476  0.4656
  526MOL0     C69359   2.911   3.005   2.219  0.1575 -0.0516  0.4950
  526MOL0     C69360   3.054   3.041   2.177 -0.5668 -0.3979 -0.0395
  526MOL0     C69361   3.163   2.983   2.266 -0.6579  0.4417  0.1632
  526MOL0     C69362   3.225   3.094   2.349 -0.2434  0.0119 -0.2563
  526MOL0     C69363   3.324   3.036   2.443 -0.0127  0.0183 -0.1305
  526MOL0     C69364   3.403   3.026   2.532  0.2446 -0.7642 -0.5193
  526MOL0     C69365   2.663   2.992   2.359  0.7295  0.3306 -0.2878
  526MOL0     C69366   2.544   2.992   2.434 -0.2780  1.0761  0.3832
  526MOL0     H69367   2.072   2.980   2.474 -0.4914 -2.0861  0.3494
  526MOL0     H69368   1.843   2.981   2.558  0.2142 -2.3620 -0.8518
  526MOL0     H69369   1.689   2.842   2.678  0.8040 -1.3173  0.0417
  526MOL0     H69370   1.654   3.025   2.692  1.2473 -0.8531 -0.8988
  526MOL0     H69371   1.525   2.959   2.901 -0.4897  2.7717 -1.8532
  526MOL0     H69372   1.547   2.801   2.869 -1.4213 -1.0756 -1.2140
  526MOL0     H69373   1.418   2.814   2.660 -1.0793 -0.4215 -0.8318
  526MOL0     H69374   1.389   2.983   2.687 -0.4927  0.6312  2.6027
  526MOL0     H69375   1.327   2.777   2.916  0.0921 -2.6915 -2.5765
  526MOL0     H69376   1.276   2.943   2.904 -1.6901 -0.0375  0.6140
  526MOL0     H69377   1.097   2.769   2.843 -1.1250 -0.1249 -1.6185
  526MOL0     H69378   1.179   2.765   2.687  0.4884  1.0775  0.2616
  526MOL0     H69379   1.153   3.035   2.701  0.1354 -0.2683  0.1455
  526MOL0     H69380   1.053   3.002   2.838  0.4139 -0.6859  1.3935
  526MOL0     H69381   0.914   3.007   2.595 -2.3212 -0.5937  0.1569
  526MOL0     H69382   1.014   2.860   2.576  2.0933 -0.4789  2.4257
  526MOL0     H69383   0.863   2.743   2.726 -0.5179  0.7088  1.7223
  526MOL0     H69384   0.766   2.863   2.646 -0.3875  0.9094  1.3179
  526MOL0     H69385   0.686   3.078   2.794  1.2385  2.4230  1.0171
  526MOL0     H69386   0.668   3.233   3.004 -2.4879 -1.4971 -2.2540
  526MOL0     H69387   0.742   3.174   3.161 -0.3882  0.6720  0.8687
  526MOL0     H69388   0.538   3.180   3.224 -0.5555  2.3260 -2.4553
  526MOL0     H69389   0.563   3.006   3.177  1.9586  0.7562  1.2831
  526MOL0     H69390   0.420   3.222   3.024 -0.8404 -1.1827 -0.9142
  526MOL0     H69391   0.422   3.051   2.979  1.2862 -0.5463 -0.1915
  526MOL0     H69392   0.223   3.061   3.072  2.3819 -2.1086 -1.7441
  526MOL0     H69393   0.270   3.150   3.222 -2.9723 -0.9808 -0.3770
  526MOL0     H69394   0.072   3.028   3.237 -1.6066 -0.1933  0.5069
  526MOL0     H69395  -0.101   2.896   3.333  0.1292 -1.3017 -0.9200
  526MOL0     H69396  -0.302   2.488   3.381 -0.6202 -0.4859 -0.4060
  526MOL0     H69397  -0.516   2.394   3.445  0.2290  0.3066 -2.6822
  526MOL0     H69398  -0.778   2.685   3.636  1.7155 -1.3858 -0.0479
  526MOL0     H69399  -0.782   2.581   3.777 -1.9497  1.7879  0.4748
  526MOL0     H69400  -0.918   2.414   3.621  1.9995  0.6239 -2.0709
  526MOL0     H69401  -0.941   2.563   3.523 -0.3716 -0.0888 -0.4233
  526MOL0     H69402  -1.041   2.685   3.709  1.6583  0.1510  0.1119
  526MOL0     H69403  -1.015   2.552   3.822 -0.1286  0.2105  0.8493
  526MOL0     H69404  -1.215   2.559   3.591  1.5281 -2.5871 -1.5250
  526MOL0     H69405  -1.165   2.406   3.680 -0.0662  0.2262 -0.0309
  526MOL0     H69406  -1.250   2.655   3.816 -1.5646  0.3747 -2.9876
  526MOL0     H69407  -1.241   2.489   3.879 -1.0138 -0.7873 -0.2376
  526MOL0     H69408  -1.442   2.434   3.731 -1.9540  1.3024 -1.0293
  526MOL0     H69409  -1.448   2.609   3.698  0.9188  2.6434  1.2317
  526MOL0     H69410  -1.462   2.478   3.966 -0.2202 -0.0946  1.5107
  526MOL0     H69411  -1.457   2.653   3.953  1.4938 -0.1817 -1.5898
  526MOL0     H69412  -1.655   2.655   3.815  2.0110  0.7198 -0.7497
  526MOL0     H69413  -1.682   2.591   3.982 -0.8547 -1.2907  0.0858
  526MOL0     H69414  -0.584   2.728   3.711  0.4174 -0.8505  1.5688
  526MOL0     H69415  -0.362   2.823   3.643 -0.9192  0.9992 -1.8904
  526MOL0     H69416   0.182   2.595   3.448 -0.2820  0.0829 -0.6897
  526MOL0     H69417   0.358   2.719   3.325 -0.1046 -1.2206 -2.0789
  526MOL0     H69418   1.987   2.958   2.955  0.6348 -0.0952  0.3338
  526MOL0     H69419   2.222   2.991   2.862  1.3787 -1.2463 -1.3071
  526MOL0     H69420   2.648   3.176   2.696  1.3280 -0.7677 -0.1788
  526MOL0     H69421   2.847   3.174   2.580 -0.0471 -0.0572  1.6712
  526MOL0     H69422   2.840   3.053   2.150  0.0785 -0.2156  0.4622
  526MOL0     H69423   2.893   2.898   2.212 -2.1248  0.3402 -0.7766
  526MOL0     H69424   3.064   2.992   2.080  2.1197 -3.3727  1.5369
  526MOL0     H69425   3.055   3.150   2.173 -2.5423 -0.3708 -0.5594
  526MOL0     H69426   3.249   2.949   2.208  0.5926  3.3035  0.1830
  526MOL0     H69427   3.120   2.912   2.338  2.2124  0.4293  2.0416
  526MOL0     H69428   3.282   3.164   2.287 -0.2161 -1.1350 -1.5540
  526MOL0     H69429   3.150   3.140   2.414  0.6771 -2.8478  3.1578
  526MOL0     H69430   3.487   3.028   2.599  0.1616 -1.3916 -0.3855
  526MOL0     H69431   2.662   2.941   2.263 -2.9845  0.9278 -0.7174
  526MOL0     H69432   2.467   2.932   2.388 -0.5521  1.6103  0.1352
  527MOL0     O69433   8.443   3.519   0.527  0.3408  0.5779  0.3052
  527MOL0     C69434   8.514   3.419   0.526  0.0596 -0.8770  0.3538
  527MOL0     O69435   8.498   3.312   0.611 -0.0760  0.1831  0.3845
  527MOL0     C69436   8.390   3.316   0.700 -0.5052 -0.2423 -0.1436
  527MOL0     C69437   8.410   3.348   0.830  0.4171 -0.3079 -0.2344
  527MOL0     C69438   8.311   3.343   0.926  0.0698  0.8694 -0.3261
  527MOL0     C69439   8.185   3.287   0.892 -0.6056  0.6129 -0.3053
  527MOL0     O69440   8.094   3.263   0.994 -0.5146  0.1652 -0.3658
  527MOL0     C69441   7.972   3.339   0.986  1.0087 -0.0322 -0.0463
  527MOL0     C69442   7.898   3.320   1.116  0.1255 -0.6896  0.0276
  527MOL0     C69443   7.843   3.179   1.133  0.6471 -0.5130  0.2977
  527MOL0     C69444   7.787   3.165   1.268  0.7479  0.1399 -0.6798
  527MOL0     C69445   7.761   3.019   1.309 -0.0115 -0.9311  0.7697
  527MOL0     C69446   7.638   2.947   1.251  0.0037 -0.6881  0.8119
  527MOL0     C69447   7.625   2.792   1.282  0.0509 -0.7495 -0.0732
  527MOL0     C69448   7.542   2.718   1.174 -0.6796 -0.2143  0.6050
  527MOL0     N69449   7.395   2.725   1.203 -0.6050 -0.1729  0.5702
  527MOL0     C69450   7.317   2.834   1.186  0.8452  0.4747 -0.7345
  527MOL0     C69451   7.192   2.795   1.205  0.6999  0.5493  0.0413
  527MOL0     C69452   7.069   2.886   1.201  0.3787  0.0050  1.2126
  527MOL0     C69453   7.074   2.957   1.060  0.3672  0.0642  0.0776
  527MOL0     C69454   6.929   2.991   1.018 -0.4421 -0.1756  0.3169
  527MOL0     C69455   6.924   3.092   0.906 -0.2998  0.2677 -0.9891
  527MOL0     O69456   6.986   3.037   0.791  0.0871  0.0986  0.0275
  527MOL0     C69457   7.004   3.104   0.674 -0.0842 -0.1727  0.5589
  527MOL0     C69458   6.927   3.209   0.630 -0.7966  0.0916  0.3119
  527MOL0     C69459   6.964   3.267   0.505 -0.2800 -0.2327 -0.1889
  527MOL0     C69460   7.079   3.232   0.428  0.6932  0.3171 -0.4930
  527MOL0     C69461   7.101   3.284   0.294 -0.7720 -0.2891  0.3287
  527MOL0     O69462   7.207   3.232   0.224  0.0541 -0.4824  0.9161
  527MOL0     C69463   7.223   3.277   0.102 -0.2296  0.1140 -0.2637
  527MOL0     C69464   7.288   3.399   0.081 -0.0012  0.1095  0.0961
  527MOL0     C69465   7.308   3.442  -0.051 -0.1593  0.2701 -0.9080
  527MOL0     C69466   7.281   3.361  -0.164 -0.6750  0.0251  0.8337
  527MOL0     O69467   7.308   3.393  -0.298  0.6265 -0.1131 -0.1464
  527MOL0     C69468   7.399   3.498  -0.323 -0.3911  0.2790  0.5863
  527MOL0     C69469   7.414   3.533  -0.474  0.0012  0.8912 -0.2635
  527MOL0     C69470   7.452   3.398  -0.538  0.2397 -0.1835  0.7375
  527MOL0     C69471   7.496   3.432  -0.679  1.4222  0.4219  0.2867
  527MOL0     C69472   7.540   3.302  -0.753  0.7452  0.0644 -0.1987
  527MOL0     C69473   7.596   3.323  -0.894 -0.8059 -0.4989 -0.2785
  527MOL0     C69474   7.623   3.185  -0.958  0.0144 -0.9649 -0.1826
  527MOL0     C69475   7.672   3.213  -1.101 -0.0933  0.5975  1.0261
  527MOL0    Cl69476   7.836   3.254  -1.089  0.1809  0.0651  0.3610
  527MOL0     C69477   7.215   3.240  -0.141 -0.0498  0.8559  0.1536
  527MOL0     C69478   7.194   3.191  -0.011  0.1319 -0.0248 -0.3675
  527MOL0     O69479   7.015   3.370   0.260  0.1673 -0.8589  0.6455
  527MOL0     C69480   7.167   3.139   0.490  0.7119 -0.0339 -0.6358
  527MOL0     C69481   7.126   3.063   0.603  0.9557 -0.4651  0.2426
  527MOL0     N69482   7.185   2.660   1.229 -0.1114 -1.0531  0.4592
  527MOL0     N69483   7.312   2.621   1.224 -0.0949 -0.2522 -0.1850
  527MOL0     C69484   8.165   3.245   0.754 -0.0313  0.6168 -0.8880
  527MOL0     C69485   8.267   3.260   0.662 -0.4294  0.1704 -1.2581
  527MOL0     C69486   8.612   3.416   0.422 -0.3704  0.6952  0.2405
  527MOL0     C69487   8.668   3.537   0.374 -0.3215 -0.8279  0.8103
  527MOL0     C69488   8.762   3.527   0.273  0.3218 -0.5464 -0.1944
  527MOL0     C69489   8.806   3.406   0.218  0.0723 -0.2438  0.1377
  527MOL0     O69490   8.906   3.402   0.122 -0.8179 -0.5356 -0.4618
  527MOL0     C69491   8.883   3.346  -0.005  0.3695 -0.5552 -0.0799
  527MOL0     C69492   8.855   3.455  -0.112 -0.0871  0.6941 -0.3443
  527MOL0     C69493   8.936   3.585  -0.096 -0.3915 -0.0370 -0.3403
  527MOL0     C69494   9.080   3.554  -0.126 -0.2972  0.1553 -0.4332
  527MOL0     C69495   9.154   3.675  -0.163  1.2455  0.9602  0.0896
  527MOL0     C69496   9.223   3.768  -0.176 -0.0643 -0.0893 -0.3834
  527MOL0     C69497   8.739   3.285   0.260 -0.0303  0.0107 -0.0042
  527MOL0     C69498   8.640   3.288   0.365 -0.0010 -0.7187 -0.1441
  527MOL0     H69499   8.501   3.398   0.865 -1.0202  2.0425  0.3665
  527MOL0     H69500   8.330   3.370   1.030  1.1556  1.2844 -0.6240
  527MOL0     H69501   7.901   3.307   0.910 -0.1553  1.0842  0.5451
  527MOL0     H69502   7.998   3.445   0.978 -1.0860  0.7723  2.4797
  527MOL0     H69503   7.811   3.385   1.117 -1.3019 -2.4627  2.3604
  527MOL0     H69504   7.967   3.344   1.198  1.6570 -1.6710 -0.9120
  527MOL0     H69505   7.920   3.104   1.115  1.8604  1.0080 -1.1766
  527MOL0     H69506   7.759   3.156   1.067 -0.9151  0.0953  1.9886
  527MOL0     H69507   7.855   3.208   1.343  0.0485  2.2483 -1.1904
  527MOL0     H69508   7.697   3.227   1.264  0.3960 -0.4338 -2.1982
  527MOL0     H69509   7.750   3.005   1.416  0.6214  1.5337  1.2379
  527MOL0     H69510   7.847   2.959   1.277  0.3782 -0.2698  0.5469
  527MOL0     H69511   7.647   2.954   1.143 -1.7823 -0.4390  0.6481
  527MOL0     H69512   7.551   3.006   1.281  1.4836  2.9941 -1.4174
  527MOL0     H69513   7.728   2.756   1.276  0.1749 -0.2309 -1.4023
  527MOL0     H69514   7.576   2.783   1.379 -0.5645  1.9845 -0.0511
  527MOL0     H69515   7.570   2.612   1.180  0.1471  0.0341  1.6075
  527MOL0     H69516   7.565   2.749   1.072 -0.2937  1.0682  1.0610
  527MOL0     H69517   7.343   2.938   1.168  2.9313  0.1723  0.2270
  527MOL0     H69518   7.075   2.954   1.286 -1.8253  0.2611  1.2110
  527MOL0     H69519   6.975   2.831   1.207  0.7852 -0.7627  0.7504
  527MOL0     H69520   7.123   2.901   0.980  0.0832 -0.2455  0.1200
  527MOL0     H69521   7.133   3.049   1.073  1.3102 -0.5642  0.4140
  527MOL0     H69522   6.883   2.904   0.971 -1.4409  1.3858 -1.7862
  527MOL0     H69523   6.861   3.014   1.100 -2.3888 -1.0010 -0.9818
  527MOL0     H69524   6.972   3.184   0.938  0.5849 -0.7035  0.5570
  527MOL0     H69525   6.823   3.131   0.891  0.1943  2.8907  1.6581
  527MOL0     H69526   6.838   3.228   0.689 -1.3033 -1.8346  0.2199
  527MOL0     H69527   6.889   3.339   0.474 -0.7091 -1.1856 -1.4673
  527MOL0     H69528   7.305   3.461   0.169 -1.9235 -1.2326  1.5137
  527MOL0     H69529   7.337   3.547  -0.057  1.5284 -0.1301 -0.1699
  527MOL0     H69530   7.500   3.468  -0.294 -0.6400 -2.1800 -0.8764
  527MOL0     H69531   7.374   3.598  -0.285  3.7964  2.6122 -1.9760
  527MOL0     H69532   7.496   3.604  -0.491 -0.6056  1.4613 -0.8464
  527MOL0     H69533   7.319   3.574  -0.509 -1.0207  1.0073  2.3881
  527MOL0     H69534   7.368   3.329  -0.539  0.4702 -0.6073 -2.7484
  527MOL0     H69535   7.533   3.340  -0.492  1.1473 -0.8309 -1.5349
  527MOL0     H69536   7.422   3.475  -0.748 -1.3434 -3.9619  0.1601
  527MOL0     H69537   7.588   3.490  -0.666  2.8152 -1.1816 -1.7437
  527MOL0     H69538   7.458   3.230  -0.745 -0.5158  1.6569  2.4134
  527MOL0     H69539   7.622   3.250  -0.703  1.4896  1.7581  0.4312
  527MOL0     H69540   7.688   3.381  -0.889 -0.7034 -0.5271 -1.4663
  527MOL0     H69541   7.534   3.387  -0.958  2.7261  0.1487 -3.3888
  527MOL0     H69542   7.697   3.128  -0.900  0.1344 -0.3926  0.2316
  527MOL0     H69543   7.522   3.143  -0.967  0.3481 -2.5526  2.3639
  527MOL0     H69544   7.609   3.279  -1.161 -2.2631 -0.8624  1.5654
  527MOL0     H69545   7.669   3.116  -1.153  0.0973  1.4734 -0.6871
  527MOL0     H69546   7.173   3.178  -0.219 -1.6177  0.2320  1.4577
  527MOL0     H69547   7.151   3.093   0.005  1.9601 -0.9362 -0.7382
  527MOL0     H69548   7.267   3.127   0.448  0.2944 -0.2501 -1.5993
  527MOL0     H69549   7.192   2.988   0.644  2.8757  0.7211 -0.5418
  527MOL0     H69550   8.066   3.214   0.720 -0.1750 -2.3468  1.7870
  527MOL0     H69551   8.241   3.230   0.562 -3.3459  0.0534 -0.5422
  527MOL0     H69552   8.628   3.631   0.412 -0.8770 -0.8379  0.2555
  527MOL0     H69553   8.813   3.615   0.235  0.6103 -1.0809 -1.0935
  527MOL0     H69554   8.792   3.285  -0.003  0.0715 -0.3536 -3.0034
  527MOL0     H69555   8.963   3.283  -0.045 -0.1210 -2.5907  1.9430
  527MOL0     H69556   8.872   3.411  -0.211  0.9991  1.7542 -0.6467
  527MOL0     H69557   8.749   3.479  -0.098 -0.4511 -2.0081  2.9253
  527MOL0     H69558   8.905   3.634  -0.003  0.4580  2.7715 -1.4317
  527MOL0     H69559   8.897   3.651  -0.174 -1.7939  2.0300  1.9348
  527MOL0     H69560   9.130   3.490  -0.053  0.2369 -0.3572 -1.2292
  527MOL0     H69561   9.087   3.490  -0.215 -0.3285 -0.8106  0.2394
  527MOL0     H69562   9.276   3.860  -0.166  1.6415 -1.1751  1.0395
  527MOL0     H69563   8.753   3.187   0.216 -1.6687 -1.1452  1.8938
  527MOL0     H69564   8.602   3.202   0.420 -2.3738 -1.2407 -2.3833
  528MOL0     O69565   7.536   8.190   3.409 -0.2093  0.0888 -0.3309
  528MOL0     C69566   7.526   8.077   3.362 -0.7525  0.0185  0.1702
  528MOL0     O69567   7.416   8.018   3.315 -0.2450 -0.1452  0.3100
  528MOL0     C69568   7.301   8.085   3.289  0.5436 -1.0660  0.2526
  528MOL0     C69569   7.178   8.055   3.349 -1.5363 -0.5938  0.1910
  528MOL0     C69570   7.067   8.128   3.313  0.1390  0.2595  0.0149
  528MOL0     C69571   7.070   8.230   3.220  0.0198 -0.3776 -0.3069
  528MOL0     O69572   6.959   8.300   3.167 -0.1219 -0.3306  0.3303
  528MOL0     C69573   6.824   8.248   3.176 -0.6519 -0.5846  0.1931
  528MOL0     C69574   6.741   8.362   3.130 -0.3154  0.3416  0.3379
  528MOL0     C69575   6.595   8.332   3.093 -0.0747  0.1368 -0.0081
  528MOL0     C69576   6.560   8.431   2.985  0.0029 -0.3351 -0.3537
  528MOL0     C69577   6.409   8.444   2.973 -0.1167  0.1327  0.4509
  528MOL0     C69578   6.370   8.493   2.834  0.7666  0.0153  0.1873
  528MOL0     C69579   6.216   8.530   2.827 -0.2852 -0.1056 -0.3440
  528MOL0     C69580   6.186   8.572   2.687 -0.3683 -0.0492  0.6181
  528MOL0     N69581   6.040   8.563   2.659 -0.8599 -0.6713  0.4599
  528MOL0     C69582   5.959   8.462   2.685  0.2718 -0.2865 -0.0639
  528MOL0     C69583   5.833   8.514   2.676  0.4390  0.0164  0.2076
  528MOL0     C69584   5.706   8.442   2.705 -0.0315  0.0635 -0.6361
  528MOL0     C69585   5.706   8.299   2.653 -0.5060 -0.0142 -0.5244
  528MOL0     C69586   5.561   8.241   2.615 -0.2947 -0.3495  0.1958
  528MOL0     C69587   5.491   8.329   2.494 -0.2934  0.0004 -0.7088
  528MOL0     O69588   5.361   8.268   2.486  0.2191 -0.8228 -0.5971
  528MOL0     C69589   5.284   8.297   2.374  0.1762 -0.5694  0.1926
  528MOL0     C69590   5.314   8.376   2.267 -0.4039  0.2091 -0.1964
  528MOL0     C69591   5.226   8.398   2.161  0.2924 -0.8225  0.2078
  528MOL0     C69592   5.099   8.335   2.160  0.7825  0.2507 -0.0381
  528MOL0     C69593   5.004   8.332   2.047  0.0363 -0.2720 -0.2399
  528MOL0     O69594   5.054   8.369   1.923 -0.2316 -0.2719 -0.4413
  528MOL0     C69595   4.965   8.368   1.814 -0.3717  1.1413 -0.2713
  528MOL0     C69596   4.974   8.482   1.735 -0.2727  0.5222 -0.0145
  528MOL0     C69597   4.890   8.493   1.628 -0.1204  0.6921 -0.0364
  528MOL0     C69598   4.784   8.411   1.605  0.3108 -0.4167  0.2390
  528MOL0     O69599   4.693   8.432   1.507  0.3739 -0.4192 -0.3648
  528MOL0     C69600   4.554   8.473   1.537  0.6049  0.5686  0.2118
  528MOL0     C69601   4.484   8.507   1.402  0.1006  0.1502  0.4958
  528MOL0     C69602   4.341   8.555   1.408  0.6009  0.3058 -0.0514
  528MOL0     C69603   4.322   8.703   1.429 -0.8852  0.3658  0.2479
  528MOL0     C69604   4.177   8.729   1.484  0.1585  0.0009  0.2101
  528MOL0     C69605   4.080   8.749   1.372 -0.5129 -0.8763 -0.7509
  528MOL0     C69606   3.955   8.829   1.432 -0.8367  0.0996 -0.3051
  528MOL0     C69607   3.860   8.858   1.320  0.3358 -0.0508  0.6059
  528MOL0    Cl69608   3.703   8.946   1.366  0.0797  0.1991 -0.2011
  528MOL0     C69609   4.767   8.296   1.685 -0.2322 -0.8297 -0.0524
  528MOL0     C69610   4.860   8.278   1.787  0.5137  0.0816 -0.3469
  528MOL0     O69611   4.885   8.304   2.071 -0.0191 -0.2551  0.0150
  528MOL0     C69612   5.063   8.252   2.268 -0.4118  0.8959 -0.2142
  528MOL0     C69613   5.156   8.231   2.367 -1.2136 -0.7673  1.0929
  528MOL0     N69614   5.847   8.641   2.632 -0.3980 -0.7977  0.2794
  528MOL0     N69615   5.964   8.667   2.619  0.1842  0.0683  0.2611
  528MOL0     C69616   7.195   8.259   3.158  0.5037  0.4644  0.3361
  528MOL0     C69617   7.303   8.189   3.200  0.2088 -0.4329 -0.2356
  528MOL0     C69618   7.643   7.990   3.367  0.1792 -0.6724  1.0622
  528MOL0     C69619   7.657   7.898   3.267  0.5221 -0.1879 -0.2875
  528MOL0     C69620   7.775   7.823   3.266  0.2802  0.6482  0.4847
  528MOL0     C69621   7.889   7.850   3.348  0.8278 -0.5163  0.7388
  528MOL0     O69622   7.995   7.759   3.336  1.2820  0.0461 -0.4703
  528MOL0     C69623   8.116   7.791   3.394  0.0778  0.3644  0.1401
  528MOL0     C69624   8.223   7.721   3.311  0.4356 -0.2108 -0.4458
  528MOL0     C69625   8.360   7.680   3.385 -0.2657 -0.4919 -0.6284
  528MOL0     C69626   8.343   7.579   3.498  0.9125  0.3780  0.5465
  528MOL0     C69627   8.465   7.527   3.551 -0.7805 -0.6760  0.0465
  528MOL0     C69628   8.574   7.478   3.577  0.7134  0.6724 -0.0599
  528MOL0     C69629   7.878   7.959   3.438  0.1718 -0.1485 -0.2785
  528MOL0     C69630   7.753   8.024   3.447 -0.2411 -0.2966 -0.9416
  528MOL0     H69631   7.192   7.974   3.419 -0.7769 -0.2028  0.5099
  528MOL0     H69632   6.972   8.091   3.351 -0.0873 -1.6014 -2.1398
  528MOL0     H69633   6.804   8.237   3.283 -0.2623 -3.1315  0.0617
  528MOL0     H69634   6.816   8.155   3.119  0.9753 -0.1685 -0.7562
  528MOL0     H69635   6.781   8.388   3.032  0.4574 -1.6220  0.0775
  528MOL0     H69636   6.752   8.447   3.198 -3.3391  0.1122  1.2320
  528MOL0     H69637   6.532   8.357   3.179 -1.5005 -3.3799  0.1150
  528MOL0     H69638   6.574   8.231   3.057  2.5353 -1.8117  3.2657
  528MOL0     H69639   6.599   8.533   2.995 -1.3861  0.0216  2.4761
  528MOL0     H69640   6.596   8.375   2.898  0.1865  1.6942 -1.6441
  528MOL0     H69641   6.368   8.513   3.046  0.3836  0.2150  0.6594
  528MOL0     H69642   6.371   8.341   2.976  0.3030 -0.1274 -1.4332
  528MOL0     H69643   6.380   8.413   2.760 -2.9787 -0.7956  0.3808
  528MOL0     H69644   6.433   8.579   2.809 -1.7796  1.9584  0.0782
  528MOL0     H69645   6.151   8.443   2.835  0.6910 -1.1291 -2.6940
  528MOL0     H69646   6.203   8.610   2.901  1.4989 -0.6411  0.6039
  528MOL0     H69647   6.242   8.521   2.607  0.3269  2.8768 -0.8934
  528MOL0     H69648   6.217   8.675   2.668  0.5263 -0.4899 -0.4589
  528MOL0     H69649   5.985   8.362   2.717 -0.8245  0.0538  2.0817
  528MOL0     H69650   5.626   8.495   2.652  0.1155  2.6676  1.5162
  528MOL0     H69651   5.697   8.449   2.814 -0.9685 -0.0740 -0.6912
  528MOL0     H69652   5.763   8.226   2.712 -3.8056 -2.0065  0.4900
  528MOL0     H69653   5.761   8.306   2.559 -0.8313  0.5180 -0.6776
  528MOL0     H69654   5.568   8.139   2.576 -1.7213 -0.5414  0.3913
  528MOL0     H69655   5.503   8.239   2.707  0.2558  3.1058  0.7557
  528MOL0     H69656   5.549   8.318   2.402  0.5522 -0.3558 -0.1425
  528MOL0     H69657   5.477   8.434   2.522 -1.8629 -0.9696  2.7787
  528MOL0     H69658   5.412   8.423   2.258  0.6654 -1.6903  1.0170
  528MOL0     H69659   5.247   8.456   2.071 -0.5821 -1.5191 -0.4715
  528MOL0     H69660   5.040   8.562   1.768  1.2175 -0.8474  0.4883
  528MOL0     H69661   4.886   8.586   1.572  0.5110  0.4632 -0.4659
  528MOL0     H69662   4.538   8.558   1.603  0.6572 -0.8005  2.0715
  528MOL0     H69663   4.506   8.388   1.587 -1.2588  2.0848  1.1159
  528MOL0     H69664   4.501   8.415   1.346  2.7833 -0.1617  1.6767
  528MOL0     H69665   4.535   8.590   1.352 -3.5220  2.2247 -0.1150
  528MOL0     H69666   4.300   8.502   1.494 -0.8138  1.7428  0.2201
  528MOL0     H69667   4.298   8.525   1.312  1.1499  0.0376 -0.2146
  528MOL0     H69668   4.398   8.738   1.498  0.4377  0.7682 -1.3468
  528MOL0     H69669   4.331   8.761   1.337  0.7112  2.5058  1.6646
  528MOL0     H69670   4.167   8.806   1.561 -2.1737  1.8193 -1.7509
  528MOL0     H69671   4.152   8.639   1.542  4.0462 -0.8066  0.8752
  528MOL0     H69672   4.057   8.646   1.345  0.3562 -1.9383  2.2067
  528MOL0     H69673   4.125   8.800   1.286  2.2187 -3.6836 -1.1837
  528MOL0     H69674   3.909   8.769   1.511 -3.2377  1.4990 -0.5514
  528MOL0     H69675   3.983   8.928   1.470 -0.2667 -0.8563  1.8906
  528MOL0     H69676   3.821   8.763   1.282  1.0473  0.6685 -2.2202
  528MOL0     H69677   3.914   8.898   1.233 -0.1603 -0.1716  0.2365
  528MOL0     H69678   4.678   8.234   1.676  0.7320 -2.6236  1.7630
  528MOL0     H69679   4.863   8.187   1.845 -1.6986 -1.0824 -1.9255
  528MOL0     H69680   4.971   8.195   2.275  0.6561 -0.6485  3.7978
  528MOL0     H69681   5.117   8.171   2.448 -2.3291 -2.8685 -0.8828
  528MOL0     H69682   7.193   8.334   3.079 -1.4225 -0.1458 -0.2519
  528MOL0     H69683   7.393   8.209   3.143  0.3735 -0.4621  0.0135
  528MOL0     H69684   7.575   7.862   3.205 -0.6910 -0.3744  1.3510
  528MOL0     H69685   7.791   7.740   3.198 -1.8369  1.1266 -0.6998
  528MOL0     H69686   8.124   7.763   3.500  2.3653  0.4771  0.0416
  528MOL0     H69687   8.140   7.896   3.376  1.3904 -0.1133 -1.0612
  528MOL0     H69688   8.181   7.628   3.271 -1.4974 -0.1764  1.3358
  528MOL0     H69689   8.237   7.794   3.231 -1.5205  0.9022  0.1801
  528MOL0     H69690   8.402   7.770   3.431 -2.8343  1.2147 -1.3372
  528MOL0     H69691   8.430   7.636   3.314  0.4086 -2.0748  0.9569
  528MOL0     H69692   8.295   7.641   3.575  0.7295  4.9785 -2.8363
  528MOL0     H69693   8.279   7.493   3.475 -2.7036  2.3253  2.4094
  528MOL0     H69694   8.680   7.466   3.592  0.6651 -1.2758 -0.9225
  528MOL0     H69695   7.951   7.996   3.509  1.1586 -1.7420 -0.4248
  528MOL0     H69696   7.757   8.092   3.532  0.1429 -2.1690  0.6226
  529MOL0     O69697   3.492   7.366   3.310  0.2013  0.1831  0.2395
  529MOL0     C69698   3.586   7.378   3.223 -0.1093 -0.5684  0.2474
  529MOL0     O69699   3.565   7.366   3.084 -0.2753  0.0005  0.5253
  529MOL0     C69700   3.435   7.339   3.045  0.5590 -0.6954  0.0516
  529MOL0     C69701   3.389   7.213   3.010 -0.4862 -0.9734  0.7097
  529MOL0     C69702   3.249   7.188   2.981  0.4480  0.9282 -0.7669
  529MOL0     C69703   3.163   7.296   2.980 -0.2146 -0.0414  0.4695
  529MOL0     O69704   3.035   7.268   2.931 -0.1471  0.5636 -0.7000
  529MOL0     C69705   2.983   7.351   2.829 -0.3717 -0.1893 -0.0048
  529MOL0     C69706   3.021   7.319   2.682 -0.4411 -0.4785  0.4789
  529MOL0     C69707   2.991   7.172   2.652 -0.5243  0.7382 -0.2597
  529MOL0     C69708   3.053   7.110   2.519  0.1186  1.0482 -0.8866
  529MOL0     C69709   3.203   7.119   2.503 -0.4883 -0.6703  0.0585
  529MOL0     C69710   3.277   7.029   2.604  0.8722 -0.2704 -0.9753
  529MOL0     C69711   3.429   7.039   2.589 -0.2301 -0.5413 -0.4604
  529MOL0     C69712   3.482   7.179   2.647  0.2575 -0.2236 -0.2410
  529MOL0     N69713   3.630   7.185   2.666  0.1128  0.6402 -0.9387
  529MOL0     C69714   3.724   7.131   2.576  0.4532  0.1175 -0.4965
  529MOL0     C69715   3.842   7.154   2.634  0.1286 -0.1463 -0.9399
  529MOL0     C69716   3.967   7.120   2.573 -0.9323 -1.1588  0.5579
  529MOL0     C69717   4.030   7.016   2.667  0.5240 -0.2244 -0.3942
  529MOL0     C69718   3.964   6.872   2.686 -0.8725  0.1073  0.3891
  529MOL0     C69719   3.954   6.799   2.549 -0.0479  0.6620  0.1499
  529MOL0     O69720   3.836   6.843   2.476 -0.1281  0.0330  0.9508
  529MOL0     C69721   3.718   6.767   2.491  0.3596 -0.7874  0.4853
  529MOL0     C69722   3.626   6.774   2.385  0.1207  0.6161 -1.0536
  529MOL0     C69723   3.507   6.699   2.389  0.0183 -0.8808  0.3854
  529MOL0     C69724   3.473   6.614   2.492 -0.1208 -0.0897 -0.1450
  529MOL0     C69725   3.359   6.521   2.481 -0.5230 -0.3008 -0.1197
  529MOL0     O69726   3.322   6.460   2.601  0.3420 -0.1241 -0.0917
  529MOL0     C69727   3.241   6.349   2.607  0.2722 -0.0375  0.0712
  529MOL0     C69728   3.179   6.317   2.731  0.3093 -0.0675  0.9150
  529MOL0     C69729   3.104   6.201   2.735  0.1413 -0.3526  0.0380
  529MOL0     C69730   3.087   6.113   2.624 -0.0640  0.4141  0.2066
  529MOL0     O69731   3.007   6.000   2.628 -0.0243  0.0908  0.5065
  529MOL0     C69732   2.978   5.928   2.506 -0.2236  0.3128  0.7875
  529MOL0     C69733   2.874   5.820   2.532 -0.0465 -0.0429 -0.6729
  529MOL0     C69734   2.851   5.730   2.418  0.1438  0.3955  0.1524
  529MOL0     C69735   2.754   5.618   2.460  0.6009  0.9442  0.4017
  529MOL0     C69736   2.754   5.519   2.333 -0.4940 -0.4026  0.0915
  529MOL0     C69737   2.651   5.559   2.234  1.2382  0.6763  0.4322
  529MOL0     C69738   2.671   5.479   2.101  0.4264  1.2525  0.0530
  529MOL0     C69739   2.669   5.322   2.110  0.8107 -0.6317 -0.5229
  529MOL0    Cl69740   2.659   5.246   1.952  0.3192 -0.4630 -0.0093
  529MOL0     C69741   3.149   6.142   2.507  0.1280 -0.1844  0.0081
  529MOL0     C69742   3.226   6.262   2.498  0.5690 -0.5327  0.0394
  529MOL0     O69743   3.294   6.516   2.376  0.2739  0.1648 -1.0256
  529MOL0     C69744   3.578   6.599   2.589  0.1903  0.7110 -0.1724
  529MOL0     C69745   3.691   6.674   2.593  0.7294 -0.0820  0.1462
  529MOL0     N69746   3.823   7.219   2.756  0.1078 -0.1456 -0.8853
  529MOL0     N69747   3.696   7.233   2.770  0.1166  0.4929  0.8432
  529MOL0     C69748   3.209   7.424   3.011 -0.5289 -0.4531  0.1339
  529MOL0     C69749   3.347   7.447   3.044  0.1806  0.3776  0.6866
  529MOL0     C69750   3.723   7.395   3.274 -0.2904  0.0445  0.8218
  529MOL0     C69751   3.820   7.421   3.182 -0.2294 -0.8279 -0.8852
  529MOL0     C69752   3.953   7.446   3.221 -0.3039 -0.5461 -0.9875
  529MOL0     C69753   3.994   7.431   3.355 -0.4274  0.1284  0.6876
  529MOL0     O69754   4.118   7.455   3.408 -0.7382  0.2116  0.1323
  529MOL0     C69755   4.226   7.441   3.310  0.3505  0.4511 -0.5269
  529MOL0     C69756   4.354   7.408   3.385 -0.2439 -0.2606  0.4400
  529MOL0     C69757   4.381   7.517   3.488  0.0316 -0.6922  0.2349
  529MOL0     C69758   4.382   7.451   3.620 -0.0127 -0.3739  0.0804
  529MOL0     C69759   4.522   7.387   3.631 -0.4054 -0.3806 -1.1483
  529MOL0     C69760   4.630   7.330   3.659  0.2638  0.1396 -0.1319
  529MOL0     C69761   3.893   7.416   3.448  0.2537  0.2543  0.1356
  529MOL0     C69762   3.759   7.391   3.412 -0.6146  0.6310 -0.1284
  529MOL0     H69763   3.462   7.133   3.008  0.4043 -0.1738  0.5843
  529MOL0     H69764   3.219   7.085   2.967  1.8635  0.4457 -0.4702
  529MOL0     H69765   3.012   7.452   2.860  0.2816 -0.0496 -1.0336
  529MOL0     H69766   2.874   7.361   2.832 -0.3294  1.7335 -2.0790
  529MOL0     H69767   3.130   7.326   2.675 -0.3165 -2.9489 -1.4293
  529MOL0     H69768   2.969   7.379   2.606 -1.0119  0.1083  1.3155
  529MOL0     H69769   2.886   7.147   2.633 -0.1129 -0.9114 -0.4659
  529MOL0     H69770   3.028   7.117   2.739 -1.5045  1.3143  0.5525
  529MOL0     H69771   3.019   7.006   2.513 -1.9253  1.0622  4.5400
  529MOL0     H69772   3.008   7.167   2.438 -0.8381  2.5953  0.6630
  529MOL0     H69773   3.233   7.223   2.522 -1.2015 -0.3051 -0.7055
  529MOL0     H69774   3.226   7.091   2.400 -0.9065  0.6978 -0.4398
  529MOL0     H69775   3.234   6.931   2.579 -0.2830 -0.2854  0.9216
  529MOL0     H69776   3.256   7.041   2.710  3.3143  1.0146 -0.5595
  529MOL0     H69777   3.469   6.959   2.652  0.4839  1.4999  1.8221
  529MOL0     H69778   3.454   7.022   2.484  2.0744 -2.0821  0.2611
  529MOL0     H69779   3.439   7.208   2.743  3.0975  0.4338  0.9375
  529MOL0     H69780   3.460   7.251   2.568 -1.0056 -1.4210 -1.0156
  529MOL0     H69781   3.694   7.078   2.487 -2.9291 -1.3156  1.3384
  529MOL0     H69782   4.030   7.209   2.587 -1.7190 -0.2060 -1.4866
  529MOL0     H69783   3.962   7.087   2.469  3.4592 -0.4936 -0.0759
  529MOL0     H69784   4.047   7.055   2.768 -2.2744  3.5181 -1.1424
  529MOL0     H69785   4.136   7.002   2.643  1.1858 -0.9135  2.5108
  529MOL0     H69786   4.025   6.800   2.740 -0.3237  0.1872 -0.1224
  529MOL0     H69787   3.872   6.879   2.745  0.3528  2.3566  2.2482
  529MOL0     H69788   3.950   6.690   2.559 -3.1099  0.7974  1.3764
  529MOL0     H69789   4.047   6.822   2.496  0.0690  0.6000  0.3270
  529MOL0     H69790   3.656   6.842   2.305  1.4260 -1.0553 -2.0598
  529MOL0     H69791   3.440   6.720   2.306 -1.4790 -0.6504  1.6080
  529MOL0     H69792   3.181   6.371   2.825 -1.6172  0.1854  0.8572
  529MOL0     H69793   3.044   6.176   2.822 -1.4123  0.0186 -0.8933
  529MOL0     H69794   3.059   5.875   2.455  0.8885  1.1077  1.6935
  529MOL0     H69795   2.931   5.998   2.436  1.8984  0.5927 -0.4597
  529MOL0     H69796   2.783   5.868   2.567  0.7422  0.3519  0.9474
  529MOL0     H69797   2.913   5.767   2.619  0.9332  1.7548  0.0317
  529MOL0     H69798   2.947   5.693   2.381  0.3972 -1.0005  2.0631
  529MOL0     H69799   2.811   5.788   2.334 -0.2948  2.4537  1.7073
  529MOL0     H69800   2.798   5.568   2.547  1.4278 -1.9905 -1.5739
  529MOL0     H69801   2.653   5.650   2.487  0.6052  1.9744 -0.6812
  529MOL0     H69802   2.744   5.413   2.358  1.1857 -0.4079  0.9200
  529MOL0     H69803   2.850   5.525   2.281 -1.6392 -1.4225 -2.2950
  529MOL0     H69804   2.661   5.666   2.214  2.5629  0.3724 -0.6936
  529MOL0     H69805   2.549   5.550   2.273  1.1756  0.2048  0.1626
  529MOL0     H69806   2.586   5.512   2.040 -1.1325  0.5465  1.7371
  529MOL0     H69807   2.759   5.510   2.045  0.6563  0.4678 -0.0329
  529MOL0     H69808   2.582   5.285   2.164 -0.0115  2.7664  0.7326
  529MOL0     H69809   2.753   5.291   2.173  0.5520  0.5729  0.4549
  529MOL0     H69810   3.151   6.075   2.422  0.9991  0.4748 -0.5099
  529MOL0     H69811   3.273   6.279   2.401 -0.3681  0.2331 -0.2957
  529MOL0     H69812   3.551   6.525   2.663 -0.1120 -1.2153 -2.0943
  529MOL0     H69813   3.755   6.659   2.679  0.5457 -1.7165  0.0259
  529MOL0     H69814   3.141   7.508   3.016 -0.8092 -0.7088  0.7529
  529MOL0     H69815   3.378   7.549   3.065 -1.6519  0.6581  2.3389
  529MOL0     H69816   3.787   7.437   3.080 -0.7567 -0.5333 -0.6738
  529MOL0     H69817   4.014   7.481   3.138 -0.6934  2.6722 -0.0522
  529MOL0     H69818   4.247   7.527   3.246  0.9273  0.5705 -0.1894
  529MOL0     H69819   4.199   7.353   3.252 -0.5237  0.2445  0.1665
  529MOL0     H69820   4.348   7.307   3.427  3.3428 -1.3834 -1.3270
  529MOL0     H69821   4.438   7.396   3.316  0.5684 -0.5641  1.4601
  529MOL0     H69822   4.305   7.595   3.498  1.8153  1.2055 -0.0704
  529MOL0     H69823   4.480   7.557   3.462  0.1859 -1.6414 -0.7503
  529MOL0     H69824   4.373   7.515   3.709  1.2356  1.6352 -1.1413
  529MOL0     H69825   4.304   7.377   3.636 -0.5300  0.1043 -0.2053
  529MOL0     H69826   4.722   7.277   3.674 -0.4408 -0.7996  0.9790
  529MOL0     H69827   3.916   7.425   3.553  0.1696 -1.9589  0.4027
  529MOL0     H69828   3.682   7.375   3.486 -0.7874 -1.4926 -0.7117
  530MOL0     O69829   6.337   7.181   4.149  0.4502 -0.0864  0.4457
  530MOL0     C69830   6.357   7.073   4.196  0.2116  0.0794 -1.2154
  530MOL0     O69831   6.263   6.972   4.222  0.0718  0.1349 -0.1011
  530MOL0     C69832   6.129   6.986   4.208 -0.1358  0.0579  0.3393
  530MOL0     C69833   6.047   6.901   4.287 -0.1067 -0.0048  1.2562
  530MOL0     C69834   5.908   6.901   4.276  0.4158 -0.6088 -0.2945
  530MOL0     C69835   5.848   6.983   4.183 -0.2005 -0.2050  0.1912
  530MOL0     O69836   5.705   6.997   4.165  0.3880 -0.4077  0.3018
  530MOL0     C69837   5.627   6.957   4.282  0.1941 -0.1607  0.1300
  530MOL0     C69838   5.490   6.925   4.231 -0.2479  0.2028 -0.4402
  530MOL0     C69839   5.408   6.818   4.323 -0.6306 -0.5712  0.0220
  530MOL0     C69840   5.273   6.779   4.249 -1.5552 -0.5783  0.0257
  530MOL0     C69841   5.198   6.679   4.342 -0.3137 -0.1284  0.1710
  530MOL0     C69842   5.119   6.574   4.267  0.0174  0.0306 -0.3839
  530MOL0     C69843   5.005   6.646   4.189 -0.2193  0.2468  0.0335
  530MOL0     C69844   4.925   6.543   4.114  0.3289  0.0425  0.4039
  530MOL0     N69845   4.842   6.603   4.012  0.7210 -0.2795 -0.3530
  530MOL0     C69846   4.707   6.634   4.027 -0.1292  0.7411 -0.5147
  530MOL0     C69847   4.680   6.702   3.908 -0.0808 -0.8320  0.0631
  530MOL0     C69848   4.550   6.772   3.870 -0.4822  0.0053 -0.9821
  530MOL0     C69849   4.439   6.679   3.816  0.4239 -1.0308 -0.0824
  530MOL0     C69850   4.480   6.615   3.681 -1.1083 -1.2557 -1.0979
  530MOL0     C69851   4.354   6.550   3.614 -0.3587  0.0851 -0.7742
  530MOL0     O69852   4.335   6.415   3.664 -0.1382 -0.0162 -0.6487
  530MOL0     C69853   4.222   6.342   3.625 -0.2774 -0.5211 -0.1409
  530MOL0     C69854   4.230   6.206   3.617 -0.4359 -0.4236  0.1739
  530MOL0     C69855   4.123   6.125   3.584 -0.0720  0.0584 -0.4714
  530MOL0     C69856   4.004   6.182   3.535  0.1852  0.5556 -0.0075
  530MOL0     C69857   3.892   6.096   3.488 -0.3032  0.0322 -0.0738
  530MOL0     O69858   3.782   6.155   3.438  0.4108 -0.8293 -0.2771
  530MOL0     C69859   3.675   6.090   3.377  0.1022  0.4231 -0.3027
  530MOL0     C69860   3.542   6.150   3.393  0.0714 -0.3067  0.4231
  530MOL0     C69861   3.431   6.097   3.334  0.7999  0.2187  0.0069
  530MOL0     C69862   3.443   5.990   3.249 -0.2794 -0.0743 -0.1639
  530MOL0     O69863   3.337   5.953   3.165  0.0009  0.1339 -0.1643
  530MOL0     C69864   3.203   5.954   3.222  1.0420 -0.1880 -0.0600
  530MOL0     C69865   3.111   5.853   3.153  0.6598 -0.2272 -1.0110
  530MOL0     C69866   3.098   5.909   3.017  0.1356  0.2727 -0.2749
  530MOL0     C69867   2.983   5.841   2.940  1.0807 -0.1586 -0.4474
  530MOL0     C69868   2.843   5.890   2.985  0.2402 -0.3811 -0.1743
  530MOL0     C69869   2.732   5.770   2.982  0.2425 -0.1215  0.0898
  530MOL0     C69870   2.750   5.656   3.089 -0.9922  0.2407  0.0457
  530MOL0     C69871   2.661   5.538   3.058  0.2853  0.0097  0.2606
  530MOL0    Cl69872   2.501   5.583   3.088  0.2677 -0.3693  0.4971
  530MOL0     C69873   3.570   5.925   3.235 -0.4842  0.1370  0.3424
  530MOL0     C69874   3.684   5.976   3.295 -1.1594  0.3887  0.0818
  530MOL0     O69875   3.913   5.976   3.494  0.6885 -0.1028  0.4257
  530MOL0     C69876   4.004   6.327   3.530  0.1657 -0.0752  0.5051
  530MOL0     C69877   4.110   6.402   3.571 -0.8191  0.0044  0.0861
  530MOL0     N69878   4.797   6.706   3.838 -0.2370 -0.3532  0.7012
  530MOL0     N69879   4.892   6.653   3.894 -0.0485 -0.1124  0.1854
  530MOL0     C69880   5.925   7.073   4.111  0.3220  0.6184  0.6259
  530MOL0     C69881   6.062   7.081   4.123  0.0995 -0.8929 -0.1633
  530MOL0     C69882   6.500   7.043   4.219 -0.2875 -0.0859 -0.3050
  530MOL0     C69883   6.548   6.941   4.301  0.6926  0.0460  1.1463
  530MOL0     C69884   6.680   6.918   4.333 -0.3828  0.7506  0.3273
  530MOL0     C69885   6.772   7.014   4.297 -0.1499 -0.9516 -1.1191
  530MOL0     O69886   6.904   7.017   4.328 -0.3842 -0.8525  0.1747
  530MOL0     C69887   6.965   6.907   4.399  0.9254  0.8229  0.2317
  530MOL0     C69888   7.112   6.942   4.421  0.4186 -0.3994  0.2122
  530MOL0     C69889   7.170   6.864   4.541 -0.3831 -0.5186  0.2931
  530MOL0     C69890   7.310   6.906   4.566 -0.6492  0.6378 -0.5982
  530MOL0     C69891   7.396   6.855   4.456  0.1488  0.0218  0.0464
  530MOL0     C69892   7.462   6.809   4.374 -0.6283 -0.3001 -0.3594
  530MOL0     C69893   6.733   7.116   4.208 -0.4372 -0.0319 -0.1092
  530MOL0     C69894   6.601   7.133   4.171 -0.2414  0.0690 -0.4779
  530MOL0     H69895   6.100   6.831   4.350  1.1189 -2.5693 -2.2524
  530MOL0     H69896   5.855   6.819   4.324 -2.9384 -0.1672 -2.8401
  530MOL0     H69897   5.617   7.039   4.354  1.9446  1.0220 -0.8847
  530MOL0     H69898   5.655   6.864   4.333 -1.4796 -0.5730  0.3730
  530MOL0     H69899   5.490   6.896   4.126  1.9664  2.9909 -1.3278
  530MOL0     H69900   5.433   7.018   4.234 -0.9324 -0.1213  3.6994
  530MOL0     H69901   5.383   6.838   4.427 -1.4389 -0.2007 -0.2314
  530MOL0     H69902   5.467   6.726   4.323 -4.2620 -3.1461  0.5165
  530MOL0     H69903   5.213   6.871   4.242 -2.1309 -0.9611 -0.1644
  530MOL0     H69904   5.296   6.741   4.149  0.7660  0.2039  0.2003
  530MOL0     H69905   5.134   6.737   4.409 -0.2648  1.0129 -0.7297
  530MOL0     H69906   5.263   6.628   4.414  0.6170  0.3589 -0.2987
  530MOL0     H69907   5.085   6.500   4.339  0.6255 -2.3959 -2.4474
  530MOL0     H69908   5.184   6.514   4.202  1.3996  0.8269  0.2079
  530MOL0     H69909   4.940   6.696   4.262 -1.9260  1.4176 -2.1620
  530MOL0     H69910   5.038   6.722   4.116 -1.2266 -0.4058 -1.1367
  530MOL0     H69911   4.872   6.472   4.179  3.0314 -0.8482  1.7707
  530MOL0     H69912   4.999   6.486   4.057 -1.8999 -1.9402 -0.6847
  530MOL0     H69913   4.631   6.603   4.098 -1.3114 -0.0496 -2.0610
  530MOL0     H69914   4.577   6.860   3.811 -0.3431 -0.2433 -1.2911
  530MOL0     H69915   4.511   6.810   3.964 -2.9417  2.8053 -2.9436
  530MOL0     H69916   4.341   6.726   3.810 -0.6418 -3.2106 -0.4480
  530MOL0     H69917   4.422   6.607   3.897  1.4058  2.2454  3.3687
  530MOL0     H69918   4.520   6.687   3.608 -2.4854 -1.4894 -2.1202
  530MOL0     H69919   4.549   6.532   3.699  0.3003  0.1973  0.5933
  530MOL0     H69920   4.371   6.533   3.507 -0.7838  0.4838 -0.9056
  530MOL0     H69921   4.264   6.608   3.634  0.3305  1.0866 -0.4779
  530MOL0     H69922   4.325   6.156   3.633 -0.4054 -0.7873 -1.0819
  530MOL0     H69923   4.132   6.018   3.576 -0.6550  0.0207 -0.6519
  530MOL0     H69924   3.520   6.232   3.462  0.6800  1.6793 -1.6065
  530MOL0     H69925   3.332   6.137   3.352 -0.5175 -1.8137 -2.2259
  530MOL0     H69926   3.160   6.054   3.224 -0.3898 -0.7836  1.1048
  530MOL0     H69927   3.212   5.925   3.327  2.0564 -0.8983 -0.3196
  530MOL0     H69928   3.016   5.851   3.206  2.0984 -0.5477  1.7644
  530MOL0     H69929   3.154   5.752   3.152  2.5501  0.5013  0.5065
  530MOL0     H69930   3.190   5.889   2.961 -1.0726 -1.2614 -1.8078
  530MOL0     H69931   3.068   6.014   3.020 -2.4474 -0.2443 -3.1133
  530MOL0     H69932   2.996   5.846   2.831 -4.4621  1.6037 -1.3804
  530MOL0     H69933   2.984   5.734   2.960 -1.8635 -0.6193 -2.1255
  530MOL0     H69934   2.805   5.973   2.924 -0.7032 -1.3003 -0.8740
  530MOL0     H69935   2.857   5.928   3.086  1.6330  2.4133 -1.3072
  530MOL0     H69936   2.733   5.730   2.880 -3.4357  0.1582 -0.2075
  530MOL0     H69937   2.637   5.823   2.992  0.8361  0.7954  1.1319
  530MOL0     H69938   2.849   5.612   3.077 -1.6875 -0.7469 -2.8295
  530MOL0     H69939   2.737   5.690   3.192 -1.3282 -1.3987  0.5796
  530MOL0     H69940   2.672   5.447   3.119 -0.7428  0.6310  1.4301
  530MOL0     H69941   2.667   5.514   2.952  2.1277  0.5645  0.2009
  530MOL0     H69942   3.574   5.834   3.175  2.4725  0.5087 -0.1841
  530MOL0     H69943   3.775   5.916   3.287 -1.1267 -0.1358  3.1280
  530MOL0     H69944   3.915   6.386   3.509 -0.1468 -0.9603 -0.7639
  530MOL0     H69945   4.104   6.510   3.572  0.7234  0.1142  0.1940
  530MOL0     H69946   5.869   7.141   4.048 -2.5864 -2.3796 -0.3357
  530MOL0     H69947   6.113   7.163   4.076 -0.9183 -1.1722 -1.8433
  530MOL0     H69948   6.487   6.864   4.347  0.7067 -1.5176 -1.2920
  530MOL0     H69949   6.715   6.833   4.391  0.7432  2.2219  1.8962
  530MOL0     H69950   6.965   6.814   4.343  0.5744  0.9410  0.0356
  530MOL0     H69951   6.913   6.894   4.495 -0.6186 -1.0509 -0.7844
  530MOL0     H69952   7.162   6.921   4.326 -2.8995 -0.1084 -1.7678
  530MOL0     H69953   7.115   7.048   4.450  1.2937 -0.1951 -0.5767
  530MOL0     H69954   7.163   6.756   4.525  2.4019 -0.7773  0.2634
  530MOL0     H69955   7.111   6.884   4.631 -3.7267  0.9007 -2.0237
  530MOL0     H69956   7.329   7.014   4.567  0.7048  0.4580 -2.2833
  530MOL0     H69957   7.351   6.866   4.659 -0.7556  1.0232 -0.3819
  530MOL0     H69958   7.527   6.765   4.301 -0.7734 -3.6994  1.3933
  530MOL0     H69959   6.804   7.187   4.165  1.2036 -1.1851  0.5904
  530MOL0     H69960   6.574   7.214   4.104 -1.0865 -1.0467 -1.5259
  531MOL0     O69961   5.994   6.367   8.458 -0.3248 -0.2171 -0.3136
  531MOL0     C69962   6.015   6.472   8.524  0.1006  0.2615 -0.7596
  531MOL0     O69963   5.913   6.537   8.593 -0.7197 -0.9320  0.4309
  531MOL0     C69964   5.786   6.480   8.576 -0.6786 -0.5315 -0.6525
  531MOL0     C69965   5.734   6.386   8.667 -0.1999  0.4096 -0.2473
  531MOL0     C69966   5.600   6.342   8.650 -0.1448  0.4925 -0.9927
  531MOL0     C69967   5.524   6.402   8.550  0.6481  0.4597 -0.3661
  531MOL0     O69968   5.392   6.367   8.533 -0.0636 -0.1900 -0.6862
  531MOL0     C69969   5.313   6.349   8.655 -0.0575 -0.1433 -0.6447
  531MOL0     C69970   5.167   6.393   8.636  0.1619  0.7341 -0.0289
  531MOL0     C69971   5.081   6.283   8.554 -1.0775  0.2673 -0.5023
  531MOL0     C69972   4.941   6.329   8.531  0.1041  0.5636 -0.4306
  531MOL0     C69973   4.872   6.230   8.435  0.2734 -0.3798 -0.1137
  531MOL0     C69974   4.719   6.243   8.443  0.3573  0.0623  0.1709
  531MOL0     C69975   4.650   6.146   8.340 -0.7934  0.2194 -0.1884
  531MOL0     C69976   4.502   6.111   8.376  0.3377 -0.0086 -0.1722
  531MOL0     N69977   4.422   6.230   8.377  0.0733  0.2500 -0.4572
  531MOL0     C69978   4.331   6.245   8.478  0.6357  0.4234  0.6702
  531MOL0     C69979   4.300   6.379   8.465 -0.1330 -0.2653 -0.4387
  531MOL0     C69980   4.202   6.446   8.552 -0.6316 -0.2503  0.9744
  531MOL0     C69981   4.061   6.428   8.506 -0.8037  0.3337 -0.0483
  531MOL0     C69982   3.972   6.478   8.617  0.5877  0.2826  0.2621
  531MOL0     C69983   3.820   6.449   8.600 -0.2276 -0.5488  0.2519
  531MOL0     O69984   3.743   6.545   8.671  0.6370  0.1946  0.2345
  531MOL0     C69985   3.608   6.546   8.661  0.1575 -0.9514 -0.3737
  531MOL0     C69986   3.542   6.662   8.714 -0.0630  0.3062 -0.2167
  531MOL0     C69987   3.402   6.682   8.712 -0.7506  0.2617  0.2022
  531MOL0     C69988   3.328   6.591   8.644  0.1731 -0.0872  0.1693
  531MOL0     C69989   3.182   6.609   8.632  0.5911  0.8087 -0.1699
  531MOL0     O69990   3.110   6.510   8.583  0.1896  0.6507  0.2761
  531MOL0     C69991   2.975   6.511   8.546  0.1133 -0.0524  0.2063
  531MOL0     C69992   2.887   6.625   8.547  0.3892  0.1150 -0.2031
  531MOL0     C69993   2.756   6.614   8.493 -0.1654 -1.0536 -0.0168
  531MOL0     C69994   2.705   6.490   8.454  0.5413 -0.3286  0.0117
  531MOL0     O69995   2.582   6.492   8.393  0.6995  0.6072 -0.3609
  531MOL0     C69996   2.520   6.369   8.345  0.0755 -0.2823 -0.7611
  531MOL0     C69997   2.380   6.408   8.289 -0.2332 -0.3221  0.7467
  531MOL0     C69998   2.290   6.295   8.234  0.7137 -0.4494 -0.6497
  531MOL0     C69999   2.174   6.363   8.161  0.1423 -0.0318  0.0516
  531MOL0     C70000   2.083   6.265   8.091 -0.1429  0.0684  0.0170
  531MOL0     C70001   1.962   6.340   8.027 -0.1486  0.1496 -0.1121
  531MOL0     C70002   1.989   6.433   7.900  0.1112  0.0342 -0.3678
  531MOL0     C70003   1.877   6.537   7.872  0.4371  0.2198  0.1093
  531MOL0    Cl70004   1.901   6.616   7.716  0.0359 -0.0986 -0.2931
  531MOL0     C70005   2.790   6.378   8.458 -0.3380  0.1712 -0.0442
  531MOL0     C70006   2.922   6.387   8.496  0.4520  0.0171 -0.2117
  531MOL0     O70007   3.141   6.711   8.668 -0.8992 -0.1455 -0.1278
  531MOL0     C70008   3.396   6.477   8.593 -0.1504  0.1331  0.8359
  531MOL0     C70009   3.533   6.453   8.605 -0.2475  0.6163  0.8307
  531MOL0     N70010   4.351   6.426   8.340 -0.6593  0.0457  0.5277
  531MOL0     N70011   4.435   6.336   8.301 -0.8108 -0.4999  0.6083
  531MOL0     C70012   5.577   6.506   8.466 -1.0673 -0.8811 -0.3142
  531MOL0     C70013   5.713   6.534   8.467  0.0245 -0.4299 -0.1384
  531MOL0     C70014   6.157   6.526   8.538  0.0470 -0.0147 -0.6514
  531MOL0     C70015   6.267   6.457   8.496 -0.3960 -0.0893 -0.7999
  531MOL0     C70016   6.397   6.499   8.524 -0.1326  0.7649 -0.7701
  531MOL0     C70017   6.412   6.609   8.608 -0.0585  0.7468  0.0998
  531MOL0     O70018   6.535   6.669   8.636 -0.5760  0.4519  0.2690
  531MOL0     C70019   6.659   6.617   8.589 -0.0220  0.1887 -0.4878
  531MOL0     C70020   6.685   6.660   8.440  0.0340  0.2712 -0.0164
  531MOL0     C70021   6.810   6.572   8.384 -0.4741 -0.1349  0.8171
  531MOL0     C70022   6.778   6.425   8.346 -0.5029  0.2568 -0.7692
  531MOL0     C70023   6.894   6.349   8.309 -0.0451  0.5067  0.5334
  531MOL0     C70024   6.997   6.298   8.286  0.1520  0.7440 -0.7249
  531MOL0     C70025   6.302   6.680   8.657  0.0804 -0.2792  0.3606
  531MOL0     C70026   6.175   6.635   8.627  0.5540 -0.1434 -0.0332
  531MOL0     H70027   5.795   6.349   8.749  0.4889  1.2554 -0.3563
  531MOL0     H70028   5.550   6.266   8.709  1.5121  0.4610  0.4404
  531MOL0     H70029   5.356   6.400   8.741  0.6826 -0.5188 -0.7853
  531MOL0     H70030   5.310   6.242   8.677  1.3197 -0.1155 -0.2703
  531MOL0     H70031   5.160   6.492   8.591  0.3939  1.4065  1.3437
  531MOL0     H70032   5.123   6.412   8.734  1.8861  1.0832  0.7148
  531MOL0     H70033   5.093   6.186   8.604  0.6451  0.5036 -0.4017
  531MOL0     H70034   5.125   6.270   8.454  0.3207  0.8093  0.0150
  531MOL0     H70035   4.895   6.335   8.630  2.5116  0.3702  0.7749
  531MOL0     H70036   4.933   6.427   8.482  4.2282  0.2443 -2.0825
  531MOL0     H70037   4.897   6.129   8.469  0.5841 -0.4136 -0.4470
  531MOL0     H70038   4.910   6.240   8.333 -1.5034  1.9145 -0.6357
  531MOL0     H70039   4.686   6.345   8.422 -0.0819 -0.3229 -1.1139
  531MOL0     H70040   4.687   6.226   8.546  0.7890  2.0108  0.6567
  531MOL0     H70041   4.658   6.187   8.239  1.0378 -0.8564 -0.5290
  531MOL0     H70042   4.705   6.052   8.334 -1.2078  0.0344 -1.3664
  531MOL0     H70043   4.500   6.060   8.472 -1.5980  0.9646  0.3477
  531MOL0     H70044   4.456   6.043   8.304  2.1634 -0.3899 -1.0585
  531MOL0     H70045   4.300   6.172   8.552  2.6846 -0.0400  1.1510
  531MOL0     H70046   4.227   6.552   8.544  3.2281 -0.9477  1.7543
  531MOL0     H70047   4.208   6.416   8.657  0.6953  0.3882  1.0998
  531MOL0     H70048   4.046   6.322   8.483 -0.3193  0.0731  0.7965
  531MOL0     H70049   4.038   6.496   8.423  2.2690  2.2121  0.4862
  531MOL0     H70050   4.000   6.451   8.719  2.8612 -0.3000 -0.4458
  531MOL0     H70051   3.978   6.587   8.618 -1.3803  0.4387 -0.9187
  531MOL0     H70052   3.799   6.348   8.636  1.2825 -0.5075  1.3207
  531MOL0     H70053   3.804   6.451   8.492 -0.3769 -2.0624  0.2336
  531MOL0     H70054   3.599   6.731   8.775  0.1725  0.1304 -0.2357
  531MOL0     H70055   3.358   6.758   8.776 -0.5139 -0.1456  0.8655
  531MOL0     H70056   2.918   6.717   8.595  2.7533  0.1663 -1.6797
  531MOL0     H70057   2.709   6.712   8.482  0.0033 -1.2026 -2.9969
  531MOL0     H70058   2.519   6.297   8.427 -0.3267  1.0428  0.4328
  531MOL0     H70059   2.571   6.323   8.259 -2.3917 -0.8052 -2.0527
  531MOL0     H70060   2.410   6.468   8.202  0.3284  0.1636  1.2639
  531MOL0     H70061   2.324   6.476   8.353  0.3680  3.1929 -2.1615
  531MOL0     H70062   2.251   6.232   8.315  2.7671 -2.7646 -1.3302
  531MOL0     H70063   2.356   6.237   8.169  2.3597  0.1810  0.3673
  531MOL0     H70064   2.122   6.424   8.235 -0.4658  0.1989 -0.5604
  531MOL0     H70065   2.203   6.438   8.087 -1.1610  0.7357  0.3034
  531MOL0     H70066   2.057   6.192   8.169  2.8336  1.5576  2.6345
  531MOL0     H70067   2.134   6.217   8.008  1.6092  1.9137 -0.0291
  531MOL0     H70068   1.909   6.409   8.092  4.1548  5.1166 -1.2178
  531MOL0     H70069   1.894   6.261   7.995  0.5710 -0.6531  0.2837
  531MOL0     H70070   2.076   6.495   7.923 -0.5454  2.1648 -3.0697
  531MOL0     H70071   2.017   6.380   7.809 -0.1686 -0.4580 -0.1702
  531MOL0     H70072   1.870   6.610   7.954  0.0681 -0.7930  0.9994
  531MOL0     H70073   1.785   6.478   7.880  0.8552 -0.3550  0.7671
  531MOL0     H70074   2.763   6.281   8.418  1.9988 -0.9073  0.8144
  531MOL0     H70075   2.981   6.297   8.490 -1.6551 -1.4406 -0.0719
  531MOL0     H70076   3.329   6.411   8.539  0.3756 -0.6956  1.1659
  531MOL0     H70077   3.572   6.358   8.568  1.0047  2.0540 -1.7772
  531MOL0     H70078   5.503   6.555   8.404 -1.0270  2.4641  2.0136
  531MOL0     H70079   5.750   6.608   8.397  2.6107  1.0269  2.5602
  531MOL0     H70080   6.251   6.358   8.454  1.2290 -1.3616  1.3880
  531MOL0     H70081   6.485   6.443   8.494  1.4040  0.8229  3.1471
  531MOL0     H70082   6.649   6.508   8.584  1.5049  0.0861 -3.3769
  531MOL0     H70083   6.735   6.653   8.658 -1.7626  2.8783  0.2208
  531MOL0     H70084   6.601   6.645   8.373 -0.1190  0.8397  0.0457
  531MOL0     H70085   6.716   6.764   8.448 -3.3781  1.2244  3.3120
  531MOL0     H70086   6.901   6.586   8.442  0.5329  1.3126 -1.0080
  531MOL0     H70087   6.832   6.618   8.287 -1.9789  1.1113  1.0182
  531MOL0     H70088   6.738   6.371   8.432  0.5610  2.4871  1.2148
  531MOL0     H70089   6.705   6.410   8.265 -1.1343 -0.9473  0.0004
  531MOL0     H70090   7.083   6.237   8.267 -0.3909 -0.7052  1.1567
  531MOL0     H70091   6.321   6.768   8.717 -0.8427  0.8009 -0.8969
  531MOL0     H70092   6.099   6.692   8.680  0.2161 -0.9259  0.3518
  532MOL0     O70093   8.574  10.293   7.494 -0.6554 -0.0387  0.3452
  532MOL0     C70094   8.579  10.180   7.548 -0.1816 -0.2112 -0.1704
  532MOL0     O70095   8.665  10.146   7.647  0.2301  0.7135 -0.0053
  532MOL0     C70096   8.762  10.236   7.671  0.4429  0.8939  1.1001
  532MOL0     C70097   8.748  10.323   7.777  0.0824  0.2446  0.0933
  532MOL0     C70098   8.841  10.426   7.800  0.4597  0.2142 -0.6577
  532MOL0     C70099   8.945  10.450   7.715 -0.2792 -0.5521  0.5830
  532MOL0     O70100   9.023  10.558   7.723  0.1165 -0.4466  0.2105
  532MOL0     C70101   9.005  10.668   7.820  0.1052 -0.2165 -0.0815
  532MOL0     C70102   9.083  10.793   7.751  0.0349  0.2005 -0.3197
  532MOL0     C70103   9.075  10.911   7.834 -0.1603 -0.1705 -0.2787
  532MOL0     C70104   9.129  11.035   7.754 -0.1800  1.2990 -0.8715
  532MOL0     C70105   9.157  11.156   7.838  0.6830  0.1278  0.1353
  532MOL0     C70106   9.289  11.147   7.913  0.2611  0.4234  0.2663
  532MOL0     C70107   9.315  11.265   7.993 -0.1929 -0.6567  0.6309
  532MOL0     C70108   9.218  11.269   8.125  0.2781  0.2888  0.5855
  532MOL0     N70109   9.254  11.155   8.211 -1.0345 -0.7212  0.2454
  532MOL0     C70110   9.387  11.135   8.256  0.1306  0.4656  0.3842
  532MOL0     C70111   9.372  11.041   8.352  0.8187 -0.1953 -1.0689
  532MOL0     C70112   9.483  10.972   8.429  0.6225 -0.3371  0.3377
  532MOL0     C70113   9.442  10.859   8.522 -0.2963  0.4426 -0.0482
  532MOL0     C70114   9.367  10.902   8.636  1.0337 -0.1238 -0.5691
  532MOL0     C70115   9.319  10.784   8.716 -1.2703  0.5917  0.0529
  532MOL0     O70116   9.196  10.731   8.669  0.0775 -0.2506  0.0130
  532MOL0     C70117   9.136  10.624   8.737 -0.0533 -0.4923  0.1067
  532MOL0     C70118   9.000  10.585   8.709  0.5585  0.0667 -0.2173
  532MOL0     C70119   8.934  10.506   8.799 -0.8261  0.2311 -0.4015
  532MOL0     C70120   8.994  10.446   8.913 -0.6830 -0.0789  0.2501
  532MOL0     C70121   8.904  10.353   8.982  0.1240 -0.9333 -0.0828
  532MOL0     O70122   8.973  10.258   9.066  1.4007  0.0091 -0.4403
  532MOL0     C70123   8.891  10.171   9.144 -0.0452 -0.6189 -0.6474
  532MOL0     C70124   8.783  10.101   9.092  0.3814  0.4944  0.2144
  532MOL0     C70125   8.709  10.009   9.169 -0.6581 -0.2111  0.6518
  532MOL0     C70126   8.738   9.995   9.302 -0.0352  0.3800 -0.2490
  532MOL0     O70127   8.660   9.922   9.393 -0.1692 -0.1387 -0.3008
  532MOL0     C70128   8.533   9.860   9.340  0.3041  0.7240  0.0810
  532MOL0     C70129   8.461   9.802   9.459  0.2905  0.0736  0.1073
  532MOL0     C70130   8.320   9.747   9.421 -0.6607 -0.5792  0.3231
  532MOL0     C70131   8.256   9.672   9.538  0.3856 -0.0009 -0.5210
  532MOL0     C70132   8.101   9.654   9.519 -0.3161 -1.3712 -0.2450
  532MOL0     C70133   8.044   9.560   9.626  0.4451  0.3762 -0.8732
  532MOL0     C70134   7.895   9.561   9.650  0.4555  0.1876  0.1005
  532MOL0     C70135   7.851   9.669   9.749  0.6969 -0.4598 -0.3480
  532MOL0    Cl70136   7.671   9.620   9.787 -0.0118 -0.3463 -0.0571
  532MOL0     C70137   8.852  10.067   9.360 -0.4475  0.8668  0.6290
  532MOL0     C70138   8.928  10.145   9.279 -1.0882  0.2773 -0.2043
  532MOL0     O70139   8.784  10.377   8.981  0.8181 -0.2595 -0.2854
  532MOL0     C70140   9.130  10.473   8.938  0.2378 -0.6007  0.0410
  532MOL0     C70141   9.201  10.566   8.845  0.1184 -0.3435  0.0782
  532MOL0     N70142   9.238  11.000   8.355 -0.4277 -0.0901  0.2442
  532MOL0     N70143   9.170  11.068   8.269 -0.0863 -0.0189  0.6294
  532MOL0     C70144   8.966  10.353   7.607  0.2315  0.7382 -0.2448
  532MOL0     C70145   8.876  10.251   7.591  0.5690  0.4255  1.3569
  532MOL0     C70146   8.483  10.086   7.498  0.5346 -0.0405  0.9546
  532MOL0     C70147   8.421   9.998   7.592 -0.3379  0.0801  0.7368
  532MOL0     C70148   8.314   9.917   7.545  0.3494 -0.4753  0.3403
  532MOL0     C70149   8.278   9.908   7.411  0.1213  0.3898 -0.1725
  532MOL0     O70150   8.169   9.828   7.384 -0.2155 -0.0861  0.6410
  532MOL0     C70151   8.115   9.822   7.252 -1.3689  0.2463 -0.2085
  532MOL0     C70152   8.195   9.755   7.137 -0.2816 -0.1987  0.0402
  532MOL0     C70153   8.250   9.622   7.184 -0.2356 -0.6532  0.6362
  532MOL0     C70154   8.142   9.518   7.173  0.5874  0.7716 -0.7524
  532MOL0     C70155   8.185   9.386   7.219 -0.1046 -0.5052 -0.5116
  532MOL0     C70156   8.211   9.273   7.259 -0.4184  0.1560  0.2915
  532MOL0     C70157   8.342  10.000   7.321  0.2434  0.7650 -0.6259
  532MOL0     C70158   8.439  10.088   7.360 -0.0516 -0.1544 -1.0663
  532MOL0     H70159   8.657  10.308   7.834 -1.4798  0.2877 -2.2553
  532MOL0     H70160   8.821  10.490   7.886  0.0118  0.8189 -1.2067
  532MOL0     H70161   9.052  10.646   7.917 -2.3688  0.9155  1.4697
  532MOL0     H70162   8.901  10.703   7.822 -0.9476 -2.8418 -2.6975
  532MOL0     H70163   9.034  10.804   7.654  1.2782 -3.7783 -1.6143
  532MOL0     H70164   9.185  10.765   7.722  0.5543  2.3051 -0.6897
  532MOL0     H70165   9.137  10.888   7.921 -0.5484  0.5441  0.1969
  532MOL0     H70166   8.974  10.945   7.859 -0.0125  1.6167 -1.8379
  532MOL0     H70167   9.222  11.004   7.706 -0.0705 -0.0105  0.1362
  532MOL0     H70168   9.055  11.058   7.677 -0.8662 -3.6613 -2.0818
  532MOL0     H70169   9.065  11.167   7.898 -0.5613 -1.8145 -1.2880
  532MOL0     H70170   9.155  11.235   7.763 -0.9989  0.1804  0.1962
  532MOL0     H70171   9.365  11.132   7.836 -0.0767  1.3299 -0.2586
  532MOL0     H70172   9.276  11.061   7.980 -1.6328  3.3676  4.1329
  532MOL0     H70173   9.424  11.268   8.004  0.1248 -1.3144 -1.8374
  532MOL0     H70174   9.306  11.359   7.938  0.7210 -1.3179 -0.7047
  532MOL0     H70175   9.117  11.282   8.085  1.1944  1.0681 -1.6260
  532MOL0     H70176   9.252  11.356   8.182 -1.7868  1.3083  0.3670
  532MOL0     H70177   9.481  11.176   8.219  0.0609  0.4059  0.1434
  532MOL0     H70178   9.526  11.046   8.497  0.1861  0.3628 -0.1274
  532MOL0     H70179   9.555  10.937   8.355  0.7079 -0.3805  0.4423
  532MOL0     H70180   9.529  10.811   8.568 -1.2564 -2.7257 -1.2641
  532MOL0     H70181   9.395  10.779   8.463 -3.1616  1.7021  0.3730
  532MOL0     H70182   9.436  10.967   8.690  2.1841 -0.8026 -1.1747
  532MOL0     H70183   9.274  10.950   8.604 -2.1973 -4.5640  1.0198
  532MOL0     H70184   9.312  10.821   8.819  0.2669 -0.3412  0.5100
  532MOL0     H70185   9.395  10.711   8.742 -1.6311 -0.0905 -0.7944
  532MOL0     H70186   8.950  10.635   8.626 -0.8096  0.8405  1.0206
  532MOL0     H70187   8.829  10.488   8.779 -0.9978  0.8193 -0.0268
  532MOL0     H70188   8.753  10.102   8.987 -3.2101  0.9702  1.1334
  532MOL0     H70189   8.625   9.974   9.108  0.9924  0.7037 -2.3615
  532MOL0     H70190   8.565   9.781   9.273 -0.5836 -0.3930  0.9389
  532MOL0     H70191   8.463   9.935   9.299  1.5906  1.6463 -0.4976
  532MOL0     H70192   8.452   9.884   9.530 -1.2043 -0.9002  1.1184
  532MOL0     H70193   8.527   9.729   9.507  0.0640  0.6017  1.2637
  532MOL0     H70194   8.320   9.682   9.333 -0.3439 -1.2217  0.7950
  532MOL0     H70195   8.257   9.834   9.396  0.3896  0.4075  1.0301
  532MOL0     H70196   8.304   9.574   9.536 -0.1889 -0.2858 -2.7368
  532MOL0     H70197   8.279   9.727   9.630 -0.5128  0.6484 -0.6815
  532MOL0     H70198   8.085   9.612   9.420 -2.2658 -1.0691 -0.0885
  532MOL0     H70199   8.063   9.756   9.513 -1.7824 -1.9760 -2.8115
  532MOL0     H70200   8.102   9.569   9.719  0.5218  0.2778 -0.9105
  532MOL0     H70201   8.066   9.460   9.587 -0.3481  0.0429 -0.4927
  532MOL0     H70202   7.849   9.594   9.557  2.2292  1.6630 -0.3072
  532MOL0     H70203   7.858   9.464   9.684 -0.7593  0.4420 -0.4492
  532MOL0     H70204   7.856   9.772   9.711  0.6072 -0.2726  0.1380
  532MOL0     H70205   7.906   9.656   9.842 -2.6851 -0.7293  1.8184
  532MOL0     H70206   8.879  10.043   9.463  0.7411  1.7319  0.5462
  532MOL0     H70207   9.005  10.203   9.329 -0.0921 -0.8305 -0.4078
  532MOL0     H70208   9.182  10.421   9.018  1.2632 -0.5679 -0.5780
  532MOL0     H70209   9.306  10.585   8.866 -0.0837 -0.3598  1.1174
  532MOL0     H70210   9.057  10.358   7.547  0.6517 -4.0122 -0.3846
  532MOL0     H70211   8.884  10.196   7.497  0.8023  2.6531 -0.0146
  532MOL0     H70212   8.461   9.979   7.691 -1.8858  0.8903  1.5545
  532MOL0     H70213   8.257   9.849   7.608 -1.5062  0.4330 -0.2915
  532MOL0     H70214   8.107   9.923   7.212  0.1392  0.6690  0.4917
  532MOL0     H70215   8.022   9.765   7.257 -0.1706 -1.8624 -0.6614
  532MOL0     H70216   8.125   9.743   7.053  0.8569  3.1622 -1.5823
  532MOL0     H70217   8.270   9.830   7.110 -1.3648  2.0739  2.8732
  532MOL0     H70218   8.292   9.618   7.284  1.0383 -0.1860  0.1324
  532MOL0     H70219   8.334   9.601   7.118 -1.2329  0.7056 -1.1633
  532MOL0     H70220   8.055   9.541   7.237  0.3990  1.0964 -1.1255
  532MOL0     H70221   8.106   9.491   7.073  0.5257  1.4892 -0.9256
  532MOL0     H70222   8.260   9.182   7.287  3.1495  1.3719 -1.4271
  532MOL0     H70223   8.321  10.005   7.215  0.8224 -0.7224 -0.8341
  532MOL0     H70224   8.471  10.162   7.287 -0.0978 -0.2988 -1.2331
  533MOL0     O70225   1.140   6.761   9.740 -0.2856  0.1515  0.3734
  533MOL0     C70226   1.190   6.758   9.851  0.3367  0.2879 -0.2627
  533MOL0     O70227   1.131   6.738   9.971 -0.2398 -0.5369 -0.3213
  533MOL0     C70228   0.993   6.742   9.976 -0.0598  0.7686 -0.8234
  533MOL0     C70229   0.907   6.842   9.914  0.5961 -0.7541  0.4131
  533MOL0     C70230   0.765   6.857   9.958  0.1236 -0.4476 -1.1028
  533MOL0     C70231   0.711   6.757  10.040  0.0394  0.8627  0.3692
  533MOL0     O70232   0.586   6.759  10.089  0.3626  0.0210  0.0703
  533MOL0     C70233   0.477   6.802  10.000  0.1420  0.0628 -0.0511
  533MOL0     C70234   0.341   6.748  10.062 -0.1889 -0.3977 -0.3012
  533MOL0     C70235   0.299   6.830  10.184 -0.1652  0.0654 -0.9242
  533MOL0     C70236   0.189   6.765  10.268 -0.6013  0.0941  0.2484
  533MOL0     C70237   0.133   6.853  10.380  0.2237 -0.5341  0.0396
  533MOL0     C70238   0.025   6.768  10.456  0.0933  0.1460 -1.1765
  533MOL0     C70239  -0.006   6.823  10.601 -1.1733 -1.5583  0.0808
  533MOL0     C70240  -0.069   6.964  10.581 -0.2374  0.1005 -0.3740
  533MOL0     N70241  -0.182   6.948  10.499 -0.0621 -0.2105 -0.4656
  533MOL0     C70242  -0.290   6.870  10.532 -0.1765 -0.1228  0.8002
  533MOL0     C70243  -0.377   6.877  10.432 -0.6349 -0.3789  0.0102
  533MOL0     C70244  -0.518   6.814  10.446  0.5922  0.2105 -0.1261
  533MOL0     C70245  -0.626   6.910  10.417 -0.3554  0.7487  0.0891
  533MOL0     C70246  -0.766   6.855  10.460 -0.0032  0.1046  0.0409
  533MOL0     C70247  -0.904   6.902  10.395 -0.2938  0.3854 -0.4699
  533MOL0     O70248  -0.935   7.036  10.438  0.4896  0.1244 -0.4771
  533MOL0     C70249  -1.069   7.065  10.447  1.1283  0.6658 -0.5249
  533MOL0     C70250  -1.166   7.026  10.354 -0.5129  0.2748  0.0269
  533MOL0     C70251  -1.300   7.044  10.383  0.1241 -0.3313 -0.6158
  533MOL0     C70252  -1.342   7.122  10.497 -1.0232  0.3052 -0.3947
  533MOL0     C70253  -1.479   7.134  10.544  0.6918 -1.0764  0.5521
  533MOL0     O70254  -1.566   7.125  10.444  0.4289  0.1906 -0.0646
  533MOL0     C70255  -1.699   7.134  10.470  0.1280  0.1373  0.1077
  533MOL0     C70256  -1.745   7.254  10.531  0.2010  1.0652 -0.5705
  533MOL0     C70257  -1.884   7.276  10.549  0.2096 -0.2404 -0.1046
  533MOL0     C70258  -1.982   7.186  10.500  0.3514 -0.1521 -0.3327
  533MOL0     O70259  -2.115   7.199  10.515  0.0397 -0.6629 -0.7292
  533MOL0     C70260  -2.167   7.274  10.631  0.7191  0.3027 -0.1090
  533MOL0     C70261  -2.322   7.277  10.642  0.9632 -0.1865 -0.4810
  533MOL0     C70262  -2.385   7.177  10.741 -0.1247  0.2021  0.4361
  533MOL0     C70263  -2.365   7.041  10.687 -0.1338 -0.1291 -0.5412
  533MOL0     C70264  -2.457   6.944  10.764  1.0526  0.5154 -0.6968
  533MOL0     C70265  -2.407   6.804  10.720  0.1488 -0.2844 -0.6444
  533MOL0     C70266  -2.466   6.684  10.799  0.5340  0.6155 -0.4373
  533MOL0     C70267  -2.471   6.698  10.954  1.2829 -0.7231  0.2690
  533MOL0    Cl70268  -2.322   6.751  11.018  0.5328  0.5213  0.0826
  533MOL0     C70269  -1.932   7.070  10.456 -0.2174 -0.2216 -0.1610
  533MOL0     C70270  -1.797   7.046  10.434 -0.6993 -0.3424  0.1662
  533MOL0     O70271  -1.501   7.160  10.662 -0.5430  0.6571  0.0713
  533MOL0     C70272  -1.235   7.166  10.588  0.1764  0.8168 -0.8832
  533MOL0     C70273  -1.103   7.140  10.557 -0.1964  0.7302  0.0645
  533MOL0     N70274  -0.317   6.952  10.330 -0.6071  0.2998 -0.6681
  533MOL0     N70275  -0.203   6.997  10.370 -1.0976 -0.9123 -0.0624
  533MOL0     C70276   0.791   6.667  10.098  0.2156  0.2438  0.1704
  533MOL0     C70277   0.928   6.658  10.066  0.6081  0.1594 -0.4653
  533MOL0     C70278   1.342   6.755   9.863  0.1659 -0.0447 -0.1179
  533MOL0     C70279   1.413   6.733   9.983 -0.6235  0.0794 -0.0811
  533MOL0     C70280   1.548   6.732   9.975 -0.0456 -0.5048  0.4587
  533MOL0     C70281   1.618   6.731   9.853 -0.6497 -0.2765  0.3607
  533MOL0     O70282   1.756   6.710   9.853  0.3104  0.5113 -0.7539
  533MOL0     C70283   1.787   6.563   9.828 -0.8637  0.1893  0.5227
  533MOL0     C70284   1.938   6.546   9.806 -0.2211 -0.3490  0.4316
  533MOL0     C70285   2.023   6.604   9.918 -0.6262 -0.8097  0.9298
  533MOL0     C70286   2.166   6.564   9.874  0.3758 -0.0688  0.3354
  533MOL0     C70287   2.257   6.602   9.991  0.8378 -0.4304  0.3381
  533MOL0     C70288   2.335   6.646  10.069 -0.3517  0.4720 -0.1532
  533MOL0     C70289   1.543   6.738   9.735  0.0782  0.3323  0.7337
  533MOL0     C70290   1.408   6.751   9.747  0.8987  0.3364  0.1471
  533MOL0     H70291   0.957   6.906   9.842  1.1317  0.0609  1.4626
  533MOL0     H70292   0.696   6.925   9.908 -0.5821  0.0329  0.4541
  533MOL0     H70293   0.481   6.757   9.900  4.6581 -0.9050  0.3807
  533MOL0     H70294   0.478   6.911   9.996  0.1033  0.1884  2.2546
  533MOL0     H70295   0.349   6.641  10.079  1.9540 -0.2602 -0.1416
  533MOL0     H70296   0.258   6.759   9.992 -1.8052 -0.8376  1.4426
  533MOL0     H70297   0.281   6.931  10.146  0.6350  2.2532  3.7445
  533MOL0     H70298   0.384   6.844  10.252 -1.5938 -0.8109  1.1436
  533MOL0     H70299   0.107   6.743  10.200  0.6220  2.8228 -2.3322
  533MOL0     H70300   0.244   6.680  10.310 -2.0900 -0.1041  1.9196
  533MOL0     H70301   0.081   6.933  10.327  0.5686  1.0829  2.0070
  533MOL0     H70302   0.209   6.882  10.454 -1.2046 -0.3618  1.5141
  533MOL0     H70303   0.060   6.665  10.475 -0.6400 -0.0547 -0.8932
  533MOL0     H70304  -0.065   6.754  10.397 -0.3675 -0.8721 -0.2674
  533MOL0     H70305  -0.067   6.761  10.668 -0.4414  0.4489  2.7767
  533MOL0     H70306   0.089   6.841  10.652 -1.2833 -1.4460  0.2472
  533MOL0     H70307  -0.001   7.038  10.538 -1.0529  0.9119 -0.2714
  533MOL0     H70308  -0.104   7.000  10.678 -1.1714  0.9687 -1.0201
  533MOL0     H70309  -0.286   6.799  10.614  2.6652 -2.0410 -0.7936
  533MOL0     H70310  -0.543   6.782  10.548 -1.9506  0.4686 -0.6245
  533MOL0     H70311  -0.521   6.728  10.378 -1.5947 -0.4651  0.7440
  533MOL0     H70312  -0.634   6.940  10.312 -0.6273  2.0036  0.4623
  533MOL0     H70313  -0.602   7.004  10.466 -1.2131  2.6301 -2.8348
  533MOL0     H70314  -0.762   6.749  10.434 -1.9317  0.3169 -1.3216
  533MOL0     H70315  -0.771   6.866  10.569  3.2133  1.3945  0.1673
  533MOL0     H70316  -0.980   6.828  10.420 -1.3376  0.8740 -2.0766
  533MOL0     H70317  -0.894   6.902  10.286  0.0980 -0.0476 -0.4390
  533MOL0     H70318  -1.153   6.977  10.258  1.8889  2.4190 -0.8390
  533MOL0     H70319  -1.376   6.999  10.320  0.5283 -1.5624 -0.2530
  533MOL0     H70320  -1.675   7.320  10.582  0.3258 -0.9327  2.0534
  533MOL0     H70321  -1.895   7.378  10.587  0.5166 -0.5346  0.7944
  533MOL0     H70322  -2.129   7.375  10.618 -0.6245  0.9317  0.6261
  533MOL0     H70323  -2.125   7.247  10.728 -1.5692  2.6343  1.6874
  533MOL0     H70324  -2.366   7.264  10.543 -0.7370 -1.7055  0.4254
  533MOL0     H70325  -2.346   7.378  10.674 -1.7514  0.4065 -3.7818
  533MOL0     H70326  -2.494   7.184  10.749 -0.3967 -0.6235 -1.7702
  533MOL0     H70327  -2.339   7.202  10.837 -0.1495  0.9373  0.2630
  533MOL0     H70328  -2.393   7.047  10.581  0.1380 -0.8767 -0.6638
  533MOL0     H70329  -2.264   7.005  10.711 -0.8135 -2.2515 -0.6003
  533MOL0     H70330  -2.564   6.950  10.740 -0.0181 -2.1501  2.6714
  533MOL0     H70331  -2.437   6.949  10.871  0.4280  0.1166 -0.5529
  533MOL0     H70332  -2.298   6.795  10.722  0.1168 -0.6091  0.8054
  533MOL0     H70333  -2.430   6.786  10.614  2.2451 -3.5406 -0.6892
  533MOL0     H70334  -2.569   6.666  10.767  0.1899  2.6175 -0.5342
  533MOL0     H70335  -2.404   6.593  10.795 -0.2459 -0.1128  1.9379
  533MOL0     H70336  -2.519   6.615  11.007 -2.1847  0.4843 -0.7162
  533MOL0     H70337  -2.535   6.786  10.968 -0.5309 -1.3888 -2.7711
  533MOL0     H70338  -1.995   6.987  10.426  1.2230 -2.3346  2.2468
  533MOL0     H70339  -1.763   6.960  10.378  2.0480  0.6225  0.2139
  533MOL0     H70340  -1.252   7.215  10.684  1.1979 -0.3453 -0.0873
  533MOL0     H70341  -1.023   7.187  10.613 -1.2914  0.8479  1.5775
  533MOL0     H70342   0.743   6.609  10.176 -0.4105 -0.4739 -0.7279
  533MOL0     H70343   0.991   6.588  10.119  1.2306  1.0531 -0.0090
  533MOL0     H70344   1.362   6.711  10.077 -1.1092 -2.5552 -0.9031
  533MOL0     H70345   1.609   6.731  10.065  1.9368 -3.1057 -0.8194
  533MOL0     H70346   1.735   6.521   9.742  0.5240  1.3383 -0.9460
  533MOL0     H70347   1.748   6.513   9.916 -5.3733  1.8458 -0.2963
  533MOL0     H70348   1.958   6.440   9.789 -1.6434 -0.6341  0.4303
  533MOL0     H70349   1.959   6.600   9.714  0.2709 -0.9735  0.1647
  533MOL0     H70350   2.003   6.571  10.020 -0.4771 -1.8740  0.6215
  533MOL0     H70351   2.004   6.712   9.913  0.5457 -0.4760  2.7709
  533MOL0     H70352   2.171   6.456   9.862 -0.6515 -0.0639 -0.2021
  533MOL0     H70353   2.186   6.624   9.785  2.0659  0.0029  0.7204
  533MOL0     H70354   2.400   6.678  10.147  0.1819  1.3552 -0.9388
  533MOL0     H70355   1.587   6.730   9.636  0.8596 -0.3295  1.1159
  533MOL0     H70356   1.354   6.745   9.653  0.7863  1.0047  0.1640
  534MOL0     O70357   9.160   0.205   0.501  0.2093 -0.4652 -0.5059
  534MOL0     C70358   9.172   0.314   0.437 -0.3896  0.5828 -0.5909
  534MOL0     O70359   9.084   0.364   0.355 -0.1700 -0.8754 -0.2071
  534MOL0     C70360   8.963   0.299   0.332 -0.1082  0.5759  0.0354
  534MOL0     C70361   8.844   0.377   0.320  0.5710 -0.6077 -0.1455
  534MOL0     C70362   8.717   0.316   0.283  0.5637  0.3446 -0.3337
  534MOL0     C70363   8.709   0.181   0.267  0.2808 -0.1472 -0.5676
  534MOL0     O70364   8.590   0.122   0.236 -0.5749  0.6196  0.1905
  534MOL0     C70365   8.466   0.172   0.293 -0.9526 -0.1963 -0.8630
  534MOL0     C70366   8.357   0.071   0.257  0.1137 -0.7983 -0.8522
  534MOL0     C70367   8.221   0.138   0.269 -0.1166  0.1563  0.1914
  534MOL0     C70368   8.117   0.026   0.226  0.1385  0.1194  0.4072
  534MOL0     C70369   7.985   0.097   0.199 -0.2348 -0.2479 -0.4135
  534MOL0     C70370   7.878   0.005   0.153 -0.0048 -0.4534 -0.1786
  534MOL0     C70371   7.740   0.076   0.143 -0.0503 -0.8428 -0.5088
  534MOL0     C70372   7.652  -0.008   0.061  0.1420  0.2801 -0.2534
  534MOL0     N70373   7.514   0.033   0.064  0.2368 -0.5348 -0.0347
  534MOL0     C70374   7.443   0.099  -0.037  0.5109 -0.6471 -0.4101
  534MOL0     C70375   7.317   0.105   0.018  0.0967  0.2226  1.3217
  534MOL0     C70376   7.196   0.189  -0.024 -0.1443  1.0079 -0.0664
  534MOL0     C70377   7.193   0.317   0.055 -0.1375 -0.0027 -0.2612
  534MOL0     C70378   7.095   0.419  -0.013 -0.0421 -1.2504 -0.6172
  534MOL0     C70379   6.956   0.371   0.009 -0.4157 -0.4917  0.4747
  534MOL0     O70380   6.861   0.480  -0.018 -0.2609 -0.8561  0.5030
  534MOL0     C70381   6.732   0.461   0.004  0.7594  0.0559 -0.4772
  534MOL0     C70382   6.647   0.559  -0.052  0.7512 -1.1864 -0.4060
  534MOL0     C70383   6.508   0.551  -0.051  0.0705  0.3492  0.3694
  534MOL0     C70384   6.451   0.441   0.017 -0.5671  0.1166  0.2487
  534MOL0     C70385   6.306   0.422   0.016  0.2239  0.0420  0.4324
  534MOL0     O70386   6.242   0.499  -0.083  0.0841  0.2161  0.9454
  534MOL0     C70387   6.106   0.505  -0.070 -0.1159 -0.3803  0.6860
  534MOL0     C70388   6.018   0.391  -0.064 -0.0503  0.9568  0.0996
  534MOL0     C70389   5.877   0.405  -0.056 -0.0291  0.5178  0.2674
  534MOL0     C70390   5.825   0.535  -0.032 -0.5443  0.4998  0.4946
  534MOL0     O70391   5.693   0.541   0.006  0.5072 -0.5558  0.5248
  534MOL0     C70392   5.590   0.475  -0.065  0.7232 -0.1717  0.1013
  534MOL0     C70393   5.451   0.510   0.003 -0.2972  0.9669  0.2142
  534MOL0     C70394   5.435   0.462   0.144  0.2802  0.7092 -0.2409
  534MOL0     C70395   5.454   0.308   0.153 -0.1093 -0.5513  0.5019
  534MOL0     C70396   5.425   0.242   0.291 -0.7665  0.0335 -0.4012
  534MOL0     C70397   5.460   0.094   0.293 -0.7767  0.3324  0.1892
  534MOL0     C70398   5.468   0.033   0.433  0.2792 -0.2641 -0.4081
  534MOL0     C70399   5.465  -0.119   0.448 -0.5361  0.6372 -0.0044
  534MOL0    Cl70400   5.463  -0.157   0.631  0.3843  0.2607 -0.0404
  534MOL0     C70401   5.906   0.646  -0.024  0.7851  0.5684 -0.4041
  534MOL0     C70402   6.042   0.626  -0.056 -0.4282 -0.7990 -0.9925
  534MOL0     O70403   6.258   0.349   0.105 -0.0146 -0.7533 -0.2519
  534MOL0     C70404   6.535   0.351   0.083 -0.5107 -0.0207  0.2382
  534MOL0     C70405   6.671   0.361   0.078 -0.3373  0.2416  0.1364
  534MOL0     N70406   7.308   0.025   0.129 -0.2224 -0.1349 -0.0706
  534MOL0     N70407   7.428  -0.019   0.155  0.1870 -1.3890 -0.1594
  534MOL0     C70408   8.821   0.101   0.285  0.0039  0.7251 -0.3081
  534MOL0     C70409   8.946   0.165   0.305 -0.5430 -0.3415 -0.2917
  534MOL0     C70410   9.296   0.391   0.456  0.2559 -0.8576  0.0038
  534MOL0     C70411   9.406   0.336   0.520  0.4754  0.0658 -0.4632
  534MOL0     C70412   9.521   0.408   0.545 -0.3714  0.8458 -0.4870
  534MOL0     C70413   9.536   0.540   0.504 -0.7457 -0.0953 -0.0730
  534MOL0     O70414   9.642   0.617   0.528  0.2136  0.1440 -0.1884
  534MOL0     C70415   9.754   0.558   0.595 -0.3698  0.5068  0.2707
  534MOL0     C70416   9.863   0.668   0.609 -0.1631  0.7723 -0.0290
  534MOL0     C70417   9.926   0.708   0.474  0.4023 -0.2587 -1.0597
  534MOL0     C70418  10.019   0.606   0.408 -0.1575  0.8251  0.7938
  534MOL0     C70419  10.096   0.671   0.299  0.4510  0.4546  0.5674
  534MOL0     C70420  10.142   0.716   0.196  0.4086  0.0203  0.1618
  534MOL0     C70421   9.438   0.602   0.433  0.2231  0.6964  0.3792
  534MOL0     C70422   9.310   0.531   0.410 -0.4757  0.0682  0.5235
  534MOL0     H70423   8.842   0.485   0.328  2.3195 -0.5404 -0.1883
  534MOL0     H70424   8.628   0.377   0.270 -0.0778  0.1153  2.3616
  534MOL0     H70425   8.438   0.264   0.240 -0.2253 -1.5182 -3.7380
  534MOL0     H70426   8.481   0.185   0.400 -1.6191 -0.0510 -0.7832
  534MOL0     H70427   8.357  -0.014   0.327  0.1100  0.1173  0.2881
  534MOL0     H70428   8.381   0.022   0.162 -1.8316  0.5194 -2.0958
  534MOL0     H70429   8.203   0.214   0.192 -1.1528 -0.1229  0.1396
  534MOL0     H70430   8.194   0.172   0.369 -3.3260 -1.5219  0.0401
  534MOL0     H70431   8.148  -0.045   0.149  1.2505 -0.3696  1.2769
  534MOL0     H70432   8.117  -0.036   0.316 -0.7299 -0.1780  0.2109
  534MOL0     H70433   7.998   0.189   0.141  2.3004  1.8314  3.0735
  534MOL0     H70434   7.948   0.143   0.291 -2.2044  0.6771 -1.6006
  534MOL0     H70435   7.883  -0.084   0.218  2.0185  0.1929  0.6593
  534MOL0     H70436   7.906  -0.039   0.057 -2.0357 -0.8388 -0.6285
  534MOL0     H70437   7.703   0.099   0.243 -3.3591 -1.2048 -1.5474
  534MOL0     H70438   7.759   0.176   0.103 -1.9788  0.1967  1.0158
  534MOL0     H70439   7.662  -0.103   0.114  2.2368 -0.5495 -1.9403
  534MOL0     H70440   7.692  -0.005  -0.041  1.6381  2.8908  0.2891
  534MOL0     H70441   7.483   0.151  -0.124  2.2812  1.9789  1.7898
  534MOL0     H70442   7.109   0.123  -0.011  0.8178 -0.5854 -1.3312
  534MOL0     H70443   7.186   0.199  -0.132 -2.4940 -1.8954 -0.2564
  534MOL0     H70444   7.290   0.367   0.060 -1.0928  1.8536  0.5613
  534MOL0     H70445   7.170   0.302   0.160 -0.8303 -0.6140 -0.4875
  534MOL0     H70446   7.094   0.520   0.030 -2.2377 -0.7323 -1.7194
  534MOL0     H70447   7.124   0.434  -0.117  0.9887  0.6471 -0.1156
  534MOL0     H70448   6.953   0.335   0.112  2.3220  1.1884  1.2458
  534MOL0     H70449   6.928   0.295  -0.064 -1.6936  1.8278 -1.6301
  534MOL0     H70450   6.692   0.649  -0.092 -0.8712 -0.1182  0.0703
  534MOL0     H70451   6.450   0.622  -0.108 -0.7668  1.3367  2.3620
  534MOL0     H70452   6.063   0.293  -0.071  1.5139  1.6492  0.1941
  534MOL0     H70453   5.825   0.311  -0.051  0.9068 -0.0010  0.4276
  534MOL0     H70454   5.607   0.367  -0.071  1.1547 -0.0949 -0.1462
  534MOL0     H70455   5.582   0.514  -0.167 -0.4567  2.3941  1.0908
  534MOL0     H70456   5.368   0.481  -0.063  0.4824  2.1871 -1.3679
  534MOL0     H70457   5.441   0.619   0.009  2.2222  1.1950  1.1663
  534MOL0     H70458   5.333   0.475   0.182  0.2463 -0.3760  0.0950
  534MOL0     H70459   5.506   0.516   0.207  1.6449  1.8930 -2.6727
  534MOL0     H70460   5.387   0.270   0.074 -0.3447 -0.5803  0.7143
  534MOL0     H70461   5.552   0.274   0.117  0.3253  0.7030  0.4819
  534MOL0     H70462   5.326   0.269   0.329 -0.0690 -0.0559  1.5788
  534MOL0     H70463   5.488   0.282   0.371 -1.7067  1.0618 -0.1428
  534MOL0     H70464   5.551   0.078   0.236  0.2847 -0.3396  1.9892
  534MOL0     H70465   5.394   0.022   0.243 -1.2716 -1.3383  3.0211
  534MOL0     H70466   5.566   0.054   0.479  0.2136 -0.2396 -0.2785
  534MOL0     H70467   5.384   0.071   0.492 -1.1574 -1.6561 -1.4800
  534MOL0     H70468   5.550  -0.166   0.399 -1.4770  1.4638 -2.6277
  534MOL0     H70469   5.376  -0.169   0.409  1.3208 -1.6864 -1.4793
  534MOL0     H70470   5.854   0.739   0.000 -0.5238 -0.3628  0.4845
  534MOL0     H70471   6.091   0.723  -0.048 -2.5036  0.1689  1.6658
  534MOL0     H70472   6.490   0.278   0.150  0.4175 -1.7904 -0.9870
  534MOL0     H70473   6.733   0.282   0.119 -2.5541 -1.7572 -0.1755
  534MOL0     H70474   8.818  -0.004   0.258 -2.3459  0.4248  0.8945
  534MOL0     H70475   9.028   0.097   0.325  2.7587  2.4869 -2.9827
  534MOL0     H70476   9.403   0.242   0.574  1.1824  1.9629  3.2137
  534MOL0     H70477   9.597   0.345   0.592 -1.2566 -0.7972 -1.1737
  534MOL0     H70478   9.793   0.487   0.522  2.1272  4.4441 -2.6145
  534MOL0     H70479   9.724   0.510   0.689 -0.2449 -0.5189 -0.1998
  534MOL0     H70480   9.819   0.757   0.655  3.0049  1.7193  1.4539
  534MOL0     H70481   9.940   0.641   0.682 -0.2428 -1.2469 -0.6261
  534MOL0     H70482   9.978   0.803   0.490  0.0828 -0.1317 -0.7532
  534MOL0     H70483   9.856   0.735   0.394  0.5491  1.0257 -0.7704
  534MOL0     H70484  10.098   0.576   0.478 -0.3626 -0.2744  0.5659
  534MOL0     H70485   9.967   0.516   0.374 -0.2031  1.2953 -0.4301
  534MOL0     H70486  10.190   0.765   0.114  2.3941 -0.4125  1.0177
  534MOL0     H70487   9.457   0.698   0.387  0.3909  0.1090 -0.8025
  534MOL0     H70488   9.232   0.581   0.354  1.9102  2.1589 -1.1511
  535MOL0     O70489   3.902   1.993   4.797  0.4276  0.5021  0.1541
  535MOL0     C70490   3.893   2.114   4.800  0.7278  0.3307  0.1849
  535MOL0     O70491   3.994   2.199   4.827 -0.0195  0.6632  0.1593
  535MOL0     C70492   4.108   2.152   4.894  0.4803  0.7953  0.1570
  535MOL0     C70493   4.194   2.050   4.854  0.4100  0.6880  0.5652
  535MOL0     C70494   4.305   2.010   4.935  0.9412  0.3963  0.1471
  535MOL0     C70495   4.339   2.090   5.050  0.0551  0.1186  0.3660
  535MOL0     O70496   4.441   2.061   5.134 -0.2949  0.5192  0.2159
  535MOL0     C70497   4.483   1.917   5.141  0.5928  0.8547  0.1113
  535MOL0     C70498   4.545   1.893   5.280  0.4314  0.1972 -0.0264
  535MOL0     C70499   4.470   1.948   5.396  0.6918 -0.0953  0.0636
  535MOL0     C70500   4.334   1.887   5.434  0.1792 -0.3997 -0.3830
  535MOL0     C70501   4.344   1.748   5.491 -0.4354 -0.0470 -0.4605
  535MOL0     C70502   4.219   1.669   5.515  0.7323 -0.2171  1.0361
  535MOL0     C70503   4.139   1.635   5.391 -0.4876 -0.2088 -0.8340
  535MOL0     C70504   4.013   1.563   5.428 -0.0110  0.2233  0.4696
  535MOL0     N70505   3.915   1.638   5.502 -0.8378  0.3220  0.3766
  535MOL0     C70506   3.819   1.728   5.451 -0.6109  0.4836 -0.4757
  535MOL0     C70507   3.742   1.756   5.554 -0.0283 -0.6599 -0.0600
  535MOL0     C70508   3.610   1.823   5.553 -0.1237  0.4767  0.1573
  535MOL0     C70509   3.504   1.727   5.608 -0.3458  0.3646  0.9430
  535MOL0     C70510   3.373   1.797   5.621  0.2553  0.0528 -0.4712
  535MOL0     C70511   3.260   1.699   5.642 -0.6129  0.2420 -0.1921
  535MOL0     O70512   3.139   1.772   5.622  0.0129 -0.4725 -0.1544
  535MOL0     C70513   3.023   1.705   5.661 -0.0168 -0.4699 -0.2844
  535MOL0     C70514   2.907   1.787   5.660 -0.8396  0.1449  0.1637
  535MOL0     C70515   2.782   1.739   5.678  0.1302  0.1650  0.0460
  535MOL0     C70516   2.759   1.599   5.696 -0.0222  0.9871  0.1161
  535MOL0     C70517   2.624   1.540   5.686  0.4121 -0.5509 -0.1907
  535MOL0     O70518   2.607   1.418   5.633 -0.1672 -0.2213 -0.4446
  535MOL0     C70519   2.478   1.367   5.612  0.2642  0.6470  0.6894
  535MOL0     C70520   2.369   1.359   5.700  0.0588  0.1131 -0.3541
  535MOL0     C70521   2.250   1.287   5.670  0.0259 -0.4368 -0.6640
  535MOL0     C70522   2.235   1.218   5.547  0.3703 -0.3781 -0.0997
  535MOL0     O70523   2.114   1.160   5.509 -0.4759  0.3031 -0.2936
  535MOL0     C70524   2.083   1.117   5.372 -0.2939 -0.1835 -0.4987
  535MOL0     C70525   2.001   0.993   5.366 -0.5406  0.4347  1.2076
  535MOL0     C70526   1.859   1.029   5.403 -0.5045  0.2242 -0.1088
  535MOL0     C70527   1.765   0.907   5.402 -0.8767 -0.3503  0.9001
  535MOL0     C70528   1.651   0.929   5.502 -0.2066 -0.1155  0.8104
  535MOL0     C70529   1.570   0.803   5.510 -0.4033 -0.1327 -0.0045
  535MOL0     C70530   1.439   0.826   5.581 -0.0598 -0.3754 -0.2342
  535MOL0     C70531   1.359   0.697   5.600 -0.2892  0.1362  0.4607
  535MOL0    Cl70532   1.214   0.730   5.692  0.0163 -0.1749 -0.1172
  535MOL0     C70533   2.352   1.216   5.463 -0.1709 -0.0157  0.4565
  535MOL0     C70534   2.469   1.284   5.503  0.0078  0.4393  0.0078
  535MOL0     O70535   2.531   1.605   5.726 -0.0613 -1.0167 -0.4450
  535MOL0     C70536   2.873   1.519   5.701  0.7206  0.4563 -0.3310
  535MOL0     C70537   3.002   1.575   5.690  0.6462  0.8952  1.0369
  535MOL0     N70538   3.794   1.694   5.670  0.3598  0.7639  0.2949
  535MOL0     N70539   3.895   1.626   5.634 -0.5140  0.0080 -0.4348
  535MOL0     C70540   4.262   2.198   5.078  0.4220  0.2933  0.2533
  535MOL0     C70541   4.156   2.235   4.999  0.4405 -0.1435  0.5981
  535MOL0     C70542   3.770   2.171   4.740  0.3807 -0.0038  0.1698
  535MOL0     C70543   3.753   2.312   4.723 -0.0715 -0.3290 -1.0516
  535MOL0     C70544   3.634   2.363   4.675 -0.8859  0.0381 -0.3947
  535MOL0     C70545   3.528   2.276   4.651 -0.6246  0.2661  0.2423
  535MOL0     O70546   3.403   2.322   4.652 -0.2630  0.4077  0.4172
  535MOL0     C70547   3.335   2.310   4.522  0.3045 -0.3035  0.5799
  535MOL0     C70548   3.403   2.363   4.395 -1.0526  0.0176  0.9941
  535MOL0     C70549   3.418   2.519   4.409 -0.3058  0.0636  0.1677
  535MOL0     C70550   3.481   2.588   4.288 -0.3954 -0.3715  0.7408
  535MOL0     C70551   3.618   2.543   4.269 -0.4875  0.4451  0.1456
  535MOL0     C70552   3.734   2.497   4.270  0.7311  0.3867 -0.0150
  535MOL0     C70553   3.540   2.136   4.661  0.8035 -0.1925 -0.3347
  535MOL0     C70554   3.665   2.090   4.697  0.3631 -0.9902 -0.4863
  535MOL0     H70555   4.166   1.990   4.768 -1.4118 -0.1471  1.6746
  535MOL0     H70556   4.358   1.921   4.903 -1.8970 -0.9054 -1.2844
  535MOL0     H70557   4.552   1.889   5.060  0.3901  0.8875 -0.0740
  535MOL0     H70558   4.395   1.853   5.132  1.7952 -0.8457 -0.2916
  535MOL0     H70559   4.646   1.936   5.285  0.5787 -0.2490  2.1716
  535MOL0     H70560   4.566   1.786   5.290 -1.3839 -0.1362  0.6208
  535MOL0     H70561   4.462   2.055   5.376 -0.0381  0.1339  1.4799
  535MOL0     H70562   4.540   1.936   5.479  0.3010 -0.6568  0.3189
  535MOL0     H70563   4.278   1.946   5.507 -1.2539 -2.6750  0.4939
  535MOL0     H70564   4.278   1.894   5.340 -0.2037  0.9789 -0.0695
  535MOL0     H70565   4.406   1.751   5.581 -1.5947 -2.5293  0.5205
  535MOL0     H70566   4.405   1.694   5.418 -1.2879  1.7410 -2.6005
  535MOL0     H70567   4.163   1.721   5.594  0.5030  1.3230 -0.0951
  535MOL0     H70568   4.250   1.570   5.549  0.6153 -0.1441  1.3680
  535MOL0     H70569   4.118   1.728   5.338 -0.4132 -1.2121 -2.7407
  535MOL0     H70570   4.195   1.565   5.328 -0.7600 -0.3773 -0.8926
  535MOL0     H70571   4.032   1.472   5.487 -1.5924  1.2175  2.6594
  535MOL0     H70572   3.962   1.527   5.338  0.6353  1.9386 -0.6275
  535MOL0     H70573   3.791   1.756   5.351 -0.8937  2.9243  0.2318
  535MOL0     H70574   3.582   1.852   5.452 -1.3620  0.1689  0.4023
  535MOL0     H70575   3.614   1.906   5.625 -2.5696 -1.0954  2.2713
  535MOL0     H70576   3.553   1.684   5.696  0.0734 -1.8765 -0.2974
  535MOL0     H70577   3.493   1.638   5.545 -1.3074  0.1625  1.3729
  535MOL0     H70578   3.377   1.872   5.700 -3.0027 -0.5703  0.4406
  535MOL0     H70579   3.352   1.862   5.535  0.7839 -0.3447 -0.9105
  535MOL0     H70580   3.265   1.646   5.738  2.0267 -1.7908 -1.3537
  535MOL0     H70581   3.260   1.622   5.565 -0.6696  1.3117 -1.2863
  535MOL0     H70582   2.937   1.888   5.635 -0.1817 -0.4943 -1.8958
  535MOL0     H70583   2.695   1.804   5.679  1.7035  2.3847  0.5935
  535MOL0     H70584   2.380   1.399   5.800 -1.2586  0.4253 -0.3233
  535MOL0     H70585   2.161   1.293   5.732 -0.0498  1.6491 -0.9049
  535MOL0     H70586   2.174   1.093   5.318  0.4796  1.0922  0.1794
  535MOL0     H70587   2.038   1.203   5.321  0.8954  0.8997  0.2024
  535MOL0     H70588   2.038   0.919   5.437 -0.4520 -0.6738  0.0529
  535MOL0     H70589   2.008   0.950   5.265  0.7157  0.3541  1.3159
  535MOL0     H70590   1.815   1.099   5.332  1.3911  2.4717  0.8323
  535MOL0     H70591   1.856   1.078   5.501 -0.8739  0.4605 -0.2339
  535MOL0     H70592   1.723   0.891   5.302 -1.0820 -3.6899  1.4218
  535MOL0     H70593   1.823   0.816   5.418 -0.1657 -0.6510 -2.6382
  535MOL0     H70594   1.579   1.009   5.478 -1.4675 -0.3720  3.3907
  535MOL0     H70595   1.693   0.957   5.599 -0.7407  2.0774  0.4750
  535MOL0     H70596   1.635   0.729   5.559  0.1800 -0.3234 -1.0321
  535MOL0     H70597   1.544   0.760   5.413  0.5345  0.1246 -0.3806
  535MOL0     H70598   1.458   0.855   5.685  0.3817  0.1018 -0.4418
  535MOL0     H70599   1.377   0.890   5.518 -1.6260 -2.7812 -1.2873
  535MOL0     H70600   1.418   0.616   5.644 -0.1152  1.1539  2.1721
  535MOL0     H70601   1.317   0.649   5.510 -2.3130 -0.8040  1.8231
  535MOL0     H70602   2.355   1.176   5.362 -1.1185  0.1618  0.3404
  535MOL0     H70603   2.549   1.282   5.430  0.0503  0.4549  0.0540
  535MOL0     H70604   2.860   1.417   5.736 -1.3335  1.1973  1.3280
  535MOL0     H70605   3.083   1.504   5.704 -0.1749 -0.1458  0.5524
  535MOL0     H70606   4.295   2.272   5.150  0.4027  0.4576  0.0941
  535MOL0     H70607   4.094   2.322   5.013  0.8882  0.0119  1.7454
  535MOL0     H70608   3.825   2.390   4.745 -0.5250  0.6099 -2.7134
  535MOL0     H70609   3.624   2.471   4.680  0.8533  0.2721 -1.0307
  535MOL0     H70610   3.237   2.358   4.524  1.0233  1.3093 -0.2724
  535MOL0     H70611   3.315   2.203   4.513  0.7726 -0.4419  1.1326
  535MOL0     H70612   3.502   2.318   4.377 -2.4110 -3.0911  0.4838
  535MOL0     H70613   3.335   2.335   4.314 -0.6862  0.1505  0.6368
  535MOL0     H70614   3.485   2.544   4.492  1.0653  3.6521 -1.7720
  535MOL0     H70615   3.323   2.568   4.431  0.2713  0.5951  1.5853
  535MOL0     H70616   3.419   2.564   4.201 -0.9068 -1.5024  1.3880
  535MOL0     H70617   3.481   2.696   4.305  1.7351 -0.4086  1.2314
  535MOL0     H70618   3.836   2.469   4.285  0.7846  0.4208 -0.2949
  535MOL0     H70619   3.448   2.079   4.650 -0.8383  1.6634  2.4533
  535MOL0     H70620   3.675   1.985   4.722  0.1884 -1.5477 -2.5485
  536MOL0     O70621   9.091   4.028   2.041  0.4594  0.0368  0.1876
  536MOL0     C70622   9.201   3.977   2.056 -0.2844  0.4949 -0.2840
  536MOL0     O70623   9.302   4.023   2.133  0.0563 -0.1750 -0.1851
  536MOL0     C70624   9.277   4.120   2.228  0.1006  0.3652 -0.5838
  536MOL0     C70625   9.364   4.221   2.246  0.3956 -1.1240 -0.1460
  536MOL0     C70626   9.334   4.312   2.350 -0.6361  0.0566  0.4798
  536MOL0     C70627   9.229   4.310   2.433 -0.2541  0.5083  0.4186
  536MOL0     O70628   9.226   4.394   2.546 -0.2562 -0.2094  0.7625
  536MOL0     C70629   9.103   4.452   2.594  0.2543 -0.3550  0.8267
  536MOL0     C70630   9.036   4.553   2.496 -0.4072  0.3557 -0.5488
  536MOL0     C70631   8.998   4.687   2.557 -0.1438 -0.4700  0.3716
  536MOL0     C70632   8.894   4.682   2.670 -0.1008 -0.0984  0.3107
  536MOL0     C70633   8.757   4.731   2.622 -0.6075 -1.4046 -0.4636
  536MOL0     C70634   8.663   4.713   2.748 -0.3266 -0.2235  1.1232
  536MOL0     C70635   8.529   4.777   2.709  0.4357  0.4558  0.5998
  536MOL0     C70636   8.423   4.771   2.834 -0.6212 -0.5131  0.1870
  536MOL0     N70637   8.321   4.868   2.814  0.6625  0.0529 -0.8568
  536MOL0     C70638   8.207   4.832   2.750  0.0991 -0.0714  0.1089
  536MOL0     C70639   8.146   4.948   2.723  0.1232  1.0641 -0.5976
  536MOL0     C70640   7.995   4.948   2.674  0.0979  0.9473  0.4674
  536MOL0     C70641   7.912   4.895   2.794 -0.3308  0.1593  0.0702
  536MOL0     C70642   7.779   4.844   2.739 -0.2009  0.0462  0.0735
  536MOL0     C70643   7.688   4.811   2.852 -0.1779 -0.1009  0.0307
  536MOL0     O70644   7.590   4.713   2.816 -0.7584  0.1202 -0.8775
  536MOL0     C70645   7.470   4.707   2.882 -0.1791 -0.3315 -0.7492
  536MOL0     C70646   7.448   4.763   3.006  0.3836  0.2972  0.0884
  536MOL0     C70647   7.316   4.755   3.067 -0.1850  0.8592 -0.5881
  536MOL0     C70648   7.213   4.676   2.996  0.0148 -1.0018 -0.0081
  536MOL0     C70649   7.077   4.652   3.045  0.3093  0.1378  0.6170
  536MOL0     O70650   7.055   4.657   3.182 -0.5656  0.0347  0.4789
  536MOL0     C70651   6.925   4.664   3.223 -0.6595 -0.4496  0.2014
  536MOL0     C70652   6.835   4.559   3.208  1.1931 -0.0111 -0.3938
  536MOL0     C70653   6.709   4.558   3.268 -0.3065  0.0400 -0.5096
  536MOL0     C70654   6.675   4.665   3.343  0.5321  0.1046 -0.2429
  536MOL0     O70655   6.554   4.680   3.405  0.6798 -0.4832 -0.7542
  536MOL0     C70656   6.549   4.725   3.548 -0.6982 -0.3409  0.4964
  536MOL0     C70657   6.444   4.637   3.629 -0.1380  0.4705 -0.4874
  536MOL0     C70658   6.303   4.700   3.620 -0.6390  0.1225 -0.1450
  536MOL0     C70659   6.208   4.621   3.707 -0.3055 -0.1292  0.4789
  536MOL0     C70660   6.058   4.656   3.699 -1.0470  0.3632 -0.3650
  536MOL0     C70661   6.037   4.789   3.773 -0.1142 -0.3204  0.8409
  536MOL0     C70662   5.887   4.831   3.774 -0.3265  0.0446  0.1320
  536MOL0     C70663   5.863   4.910   3.651  0.1652 -0.0633 -0.3876
  536MOL0    Cl70664   5.684   4.945   3.635 -0.3319  0.6044  0.0949
  536MOL0     C70665   6.756   4.776   3.360  0.4640 -0.4977 -0.0621
  536MOL0     C70666   6.889   4.771   3.305  0.0350 -0.9998 -0.1609
  536MOL0     O70667   6.987   4.648   2.958 -0.1295  0.2331 -0.6546
  536MOL0     C70668   7.243   4.623   2.862 -0.0056 -0.4158 -0.6336
  536MOL0     C70669   7.367   4.638   2.813 -0.2136  0.0006  0.0636
  536MOL0     N70670   8.227   5.051   2.767 -0.5083 -0.4349  0.3804
  536MOL0     N70671   8.335   5.005   2.826  0.2894 -0.1547 -0.0447
  536MOL0     C70672   9.145   4.204   2.411 -0.5271 -0.3033 -0.2475
  536MOL0     C70673   9.167   4.109   2.314  0.0101 -0.2022 -1.2269
  536MOL0     C70674   9.235   3.859   1.971  0.5740 -0.0726  0.3378
  536MOL0     C70675   9.151   3.805   1.875 -0.0505  0.1958 -0.4201
  536MOL0     C70676   9.193   3.710   1.781  0.2199  0.0212  0.4576
  536MOL0     C70677   9.323   3.655   1.787  0.1472 -0.3530 -0.4272
  536MOL0     O70678   9.382   3.567   1.699 -0.2382  0.0058  0.2180
  536MOL0     C70679   9.305   3.513   1.588  0.3786  0.0327 -0.3431
  536MOL0     C70680   9.309   3.595   1.466 -0.2870 -0.3624 -0.1630
  536MOL0     C70681   9.445   3.578   1.398  0.3798  0.3355  0.5315
  536MOL0     C70682   9.452   3.661   1.270 -0.2705 -1.1504  0.3869
  536MOL0     C70683   9.459   3.804   1.301 -0.8495  0.1308  0.0368
  536MOL0     C70684   9.477   3.924   1.330 -0.5708 -0.1407  0.2170
  536MOL0     C70685   9.402   3.704   1.904  0.2335 -0.2583  1.0273
  536MOL0     C70686   9.358   3.803   1.986  0.4909 -0.4361 -0.6076
  536MOL0     H70687   9.446   4.238   2.178  0.9856  2.5263  1.2534
  536MOL0     H70688   9.403   4.394   2.369  0.8134  0.0484 -3.7164
  536MOL0     H70689   9.117   4.487   2.697  3.7493  0.7855  0.0622
  536MOL0     H70690   9.036   4.366   2.608  0.7328 -0.9421 -0.3945
  536MOL0     H70691   8.948   4.504   2.452  0.4522 -2.1939  0.3758
  536MOL0     H70692   9.091   4.570   2.402 -3.7064  1.6929 -2.3949
  536MOL0     H70693   8.966   4.761   2.482  0.8348 -0.6877 -0.2900
  536MOL0     H70694   9.093   4.731   2.589  0.3491 -0.8196 -0.5651
  536MOL0     H70695   8.878   4.577   2.697 -0.3989 -0.0335  0.3924
  536MOL0     H70696   8.927   4.735   2.760 -0.0673 -2.0238  1.5073
  536MOL0     H70697   8.720   4.668   2.541 -2.0359 -2.4515  0.9224
  536MOL0     H70698   8.770   4.835   2.590  0.9478 -1.8781 -1.4796
  536MOL0     H70699   8.695   4.756   2.843  2.0161 -1.9621  1.2114
  536MOL0     H70700   8.655   4.606   2.766 -0.9107 -0.4435 -0.2871
  536MOL0     H70701   8.543   4.882   2.679 -2.9933  1.1334  0.8646
  536MOL0     H70702   8.484   4.730   2.620  2.2338  1.6235 -1.0087
  536MOL0     H70703   8.479   4.783   2.927 -2.1798 -0.4176  1.1499
  536MOL0     H70704   8.381   4.670   2.840 -1.1454 -0.3745 -0.7828
  536MOL0     H70705   8.154   4.739   2.735 -2.6650  1.5184 -0.7888
  536MOL0     H70706   7.982   4.880   2.589  2.8085 -1.6562  1.9501
  536MOL0     H70707   7.955   5.046   2.644 -0.3512  0.8193  0.6354
  536MOL0     H70708   7.902   4.983   2.858 -0.1614 -0.2228  0.6322
  536MOL0     H70709   7.955   4.818   2.858 -1.5472 -0.4961  0.1418
  536MOL0     H70710   7.743   4.923   2.673  1.9811 -0.8706 -2.3900
  536MOL0     H70711   7.794   4.753   2.679  0.1760  0.0990  0.0874
  536MOL0     H70712   7.647   4.908   2.882 -1.2942  0.7641 -3.7832
  536MOL0     H70713   7.749   4.762   2.928  1.7912  0.0879 -1.3450
  536MOL0     H70714   7.522   4.826   3.054 -0.1108 -0.1295  1.4749
  536MOL0     H70715   7.286   4.795   3.163  1.6922  1.0133 -0.0145
  536MOL0     H70716   6.873   4.478   3.147 -1.8035  1.0266 -3.9785
  536MOL0     H70717   6.633   4.482   3.258  0.0269 -0.5379  1.0949
  536MOL0     H70718   6.525   4.831   3.547  0.7363  0.0765 -3.3528
  536MOL0     H70719   6.646   4.712   3.597  0.2165  3.7740  0.0985
  536MOL0     H70720   6.477   4.653   3.732 -2.0158 -0.8360  0.3803
  536MOL0     H70721   6.453   4.530   3.609  0.5956  0.8915 -2.6669
  536MOL0     H70722   6.265   4.694   3.518 -3.6439 -1.4966  0.9450
  536MOL0     H70723   6.302   4.799   3.667 -4.0365  0.6213 -0.9876
  536MOL0     H70724   6.215   4.516   3.678  1.2762  0.1225 -0.1338
  536MOL0     H70725   6.253   4.617   3.807  1.6137 -0.7089 -0.3777
  536MOL0     H70726   6.000   4.583   3.756  1.0611  0.3381  1.9147
  536MOL0     H70727   6.025   4.665   3.595 -0.0220 -1.5633 -0.8962
  536MOL0     H70728   6.097   4.864   3.720  0.2025 -1.6287 -0.7439
  536MOL0     H70729   6.080   4.781   3.873  1.3371 -1.1317  0.1856
  536MOL0     H70730   5.822   4.743   3.769  0.9497 -0.9845  0.8936
  536MOL0     H70731   5.848   4.881   3.863 -2.6309  1.9966 -1.8121
  536MOL0     H70732   5.903   4.858   3.563 -0.9910 -0.1253 -0.8986
  536MOL0     H70733   5.919   5.003   3.667  0.5674 -0.1193 -1.3706
  536MOL0     H70734   6.719   4.859   3.419 -1.4357 -0.2509 -1.5058
  536MOL0     H70735   6.954   4.857   3.318 -1.6006  0.1699  0.6983
  536MOL0     H70736   7.169   4.569   2.805 -0.2079  0.5216 -1.2798
  536MOL0     H70737   7.388   4.599   2.714 -1.6364 -1.0088  0.1305
  536MOL0     H70738   9.061   4.192   2.480  2.2146 -0.1864  3.4455
  536MOL0     H70739   9.101   4.023   2.324 -0.9135  0.6785  0.6879
  536MOL0     H70740   9.049   3.840   1.864 -0.0519  0.2277 -0.3123
  536MOL0     H70741   9.125   3.695   1.698 -2.3614  2.1635  2.0068
  536MOL0     H70742   9.201   3.494   1.619  1.1817 -1.2864  1.7297
  536MOL0     H70743   9.351   3.417   1.563  1.4780 -0.2886  2.5465
  536MOL0     H70744   9.226   3.577   1.397  1.4161 -1.8627 -1.9320
  536MOL0     H70745   9.296   3.699   1.498  2.1518  0.3138 -1.1330
  536MOL0     H70746   9.458   3.475   1.362 -1.5419 -0.0121  0.7030
  536MOL0     H70747   9.528   3.605   1.464  1.1226 -0.5662 -0.0122
  536MOL0     H70748   9.540   3.642   1.208  0.2616 -1.8643  1.3454
  536MOL0     H70749   9.361   3.641   1.212 -0.6104 -1.0407  0.8795
  536MOL0     H70750   9.467   4.022   1.372 -1.1263 -0.5359  1.0325
  536MOL0     H70751   9.495   3.651   1.917 -0.3992 -1.2307  1.7609
  536MOL0     H70752   9.438   3.825   2.056  0.8262 -1.0248 -0.7987
  537MOL0     O70753   7.504   0.800   5.214 -0.0111  0.4964 -0.2074
  537MOL0     C70754   7.571   0.695   5.218 -0.1171 -0.3949 -0.5338
  537MOL0     O70755   7.527   0.569   5.254  0.1665 -0.1411 -0.1579
  537MOL0     C70756   7.399   0.547   5.301 -0.5190 -1.2500  0.0977
  537MOL0     C70757   7.286   0.606   5.244  0.4656 -0.8719  0.3546
  537MOL0     C70758   7.157   0.572   5.287  0.4196  0.1055  0.2413
  537MOL0     C70759   7.142   0.470   5.388 -0.6782 -0.5519  0.5101
  537MOL0     O70760   7.025   0.432   5.443  0.0981  0.6055  0.7824
  537MOL0     C70761   6.905   0.480   5.381 -0.0763 -0.5858 -0.4118
  537MOL0     C70762   6.793   0.395   5.430  1.0034  0.1563 -0.7923
  537MOL0     C70763   6.659   0.448   5.370  0.7560  0.4317  0.0801
  537MOL0     C70764   6.541   0.353   5.388  0.1969  0.2554 -0.4168
  537MOL0     C70765   6.416   0.392   5.320  0.2119  0.1625 -0.0425
  537MOL0     C70766   6.352   0.509   5.401 -0.4407 -0.4038  0.2135
  537MOL0     C70767   6.234   0.564   5.334  0.6888 -0.1659  0.2018
  537MOL0     C70768   6.191   0.692   5.410  0.0901  0.2598  0.0659
  537MOL0     N70769   6.063   0.746   5.354  0.6764  0.5773 -0.4521
  537MOL0     C70770   6.034   0.877   5.332 -0.3264 -0.1776 -0.7114
  537MOL0     C70771   5.917   0.882   5.270 -0.4899 -0.9512 -0.0906
  537MOL0     C70772   5.846   1.002   5.213 -0.7273 -0.0371  0.1672
  537MOL0     C70773   5.702   0.977   5.146 -0.4209  0.1090 -0.9948
  537MOL0     C70774   5.650   1.097   5.075 -0.1817  0.8659  0.6094
  537MOL0     C70775   5.492   1.102   5.078 -0.5391  0.2604  0.0350
  537MOL0     O70776   5.445   1.140   5.206 -0.1349  0.0525  0.8189
  537MOL0     C70777   5.315   1.173   5.210 -0.1082 -0.0190 -0.5741
  537MOL0     C70778   5.257   1.186   5.338  0.2151 -0.8974 -0.1560
  537MOL0     C70779   5.128   1.226   5.354  0.3982 -0.0985 -0.5688
  537MOL0     C70780   5.039   1.251   5.245  0.1046  0.7253 -0.1184
  537MOL0     C70781   4.903   1.298   5.280 -0.1478 -0.2619 -1.1926
  537MOL0     O70782   4.830   1.346   5.171  0.1141  0.3340 -0.7623
  537MOL0     C70783   4.699   1.387   5.170  0.1097 -1.1841 -0.1173
  537MOL0     C70784   4.606   1.383   5.274  0.5572  0.5533 -0.0319
  537MOL0     C70785   4.471   1.426   5.259  0.7535  0.1774 -0.2324
  537MOL0     C70786   4.425   1.462   5.133 -0.4369  0.4158  0.1768
  537MOL0     O70787   4.298   1.506   5.123  0.3667  0.0290 -0.3532
  537MOL0     C70788   4.264   1.578   4.999 -0.7373  0.0325 -0.0278
  537MOL0     C70789   4.156   1.673   5.019 -0.0580 -0.6393  0.8011
  537MOL0     C70790   4.030   1.603   5.018 -0.4247  0.5973  0.8000
  537MOL0     C70791   3.920   1.711   5.035  0.2016  0.1225  0.3151
  537MOL0     C70792   3.774   1.645   5.061 -0.6568  0.0242 -0.1970
  537MOL0     C70793   3.683   1.760   5.090  0.5637 -0.1437  0.6769
  537MOL0     C70794   3.540   1.706   5.135 -0.0628 -0.0231 -0.4750
  537MOL0     C70795   3.431   1.805   5.163  0.5937 -0.6307 -0.8824
  537MOL0    Cl70796   3.265   1.739   5.143  0.0943 -0.1603 -0.4738
  537MOL0     C70797   4.516   1.462   5.026 -0.4516  0.0355  0.1511
  537MOL0     C70798   4.651   1.426   5.047  0.5718 -0.4383 -0.2568
  537MOL0     O70799   4.866   1.301   5.396 -0.3446  0.2519 -0.0354
  537MOL0     C70800   5.091   1.235   5.118 -0.0029 -0.5437 -0.4147
  537MOL0     C70801   5.226   1.205   5.106 -0.5941 -0.0211 -0.3864
  537MOL0     N70802   5.867   0.759   5.262 -0.5907 -0.6477  0.1605
  537MOL0     N70803   5.950   0.674   5.323  0.6130  0.3423  0.7135
  537MOL0     C70804   7.254   0.422   5.449  0.0904 -0.4901  0.2782
  537MOL0     C70805   7.383   0.463   5.413 -0.1382 -0.9941 -0.0711
  537MOL0     C70806   7.711   0.711   5.174  0.0138  0.3414  0.7787
  537MOL0     C70807   7.798   0.606   5.186 -0.2173  0.3505 -1.0276
  537MOL0     C70808   7.931   0.623   5.144 -0.0135 -0.8636  0.2513
  537MOL0     C70809   7.983   0.743   5.097 -1.0006  0.1735 -0.3450
  537MOL0     O70810   8.111   0.759   5.061  0.2599 -0.8688  0.4944
  537MOL0     C70811   8.160   0.658   4.969  0.1211  0.0495 -0.6746
  537MOL0     C70812   8.256   0.718   4.859  0.2103  0.8585  0.3186
  537MOL0     C70813   8.366   0.623   4.818 -0.0819  0.1880  0.3237
  537MOL0     C70814   8.497   0.617   4.899 -1.8579  0.0943  0.9830
  537MOL0     C70815   8.589   0.732   4.896 -0.2435  0.8357  0.1413
  537MOL0     C70816   8.649   0.835   4.897 -0.9901 -0.4116 -0.0321
  537MOL0     C70817   7.892   0.846   5.086 -0.4681 -0.4236  0.4893
  537MOL0     C70818   7.762   0.835   5.126 -0.0750 -0.3889  0.2866
  537MOL0     H70819   7.296   0.689   5.175  0.3254  0.4107  1.8183
  537MOL0     H70820   7.070   0.609   5.233  0.6884 -1.0600 -1.0538
  537MOL0     H70821   6.897   0.464   5.273 -0.7998 -0.1240 -0.4332
  537MOL0     H70822   6.893   0.587   5.401  0.2794 -0.8157  1.0764
  537MOL0     H70823   6.783   0.407   5.538 -3.5992  0.9734 -1.0859
  537MOL0     H70824   6.822   0.296   5.392  3.0844  1.0617 -1.7172
  537MOL0     H70825   6.676   0.455   5.262  0.5163  0.2787  0.0307
  537MOL0     H70826   6.638   0.550   5.403  0.4737  1.1551 -2.1245
  537MOL0     H70827   6.572   0.254   5.355  2.6912  0.2611  1.6075
  537MOL0     H70828   6.515   0.334   5.493 -2.2653 -0.4779 -1.0900
  537MOL0     H70829   6.355   0.304   5.298  3.4715 -2.3841  0.2328
  537MOL0     H70830   6.456   0.425   5.223  1.2112 -1.8555 -0.3943
  537MOL0     H70831   6.418   0.596   5.399 -1.2560  0.2128 -0.8508
  537MOL0     H70832   6.336   0.494   5.508 -1.0998 -2.7927 -0.1557
  537MOL0     H70833   6.248   0.581   5.227 -0.2821 -2.1323 -0.3023
  537MOL0     H70834   6.145   0.504   5.356  1.2194 -0.3892  1.8587
  537MOL0     H70835   6.267   0.770   5.405  0.6465 -0.2243  0.7588
  537MOL0     H70836   6.164   0.659   5.511 -1.3886 -1.0939 -0.7075
  537MOL0     H70837   6.091   0.968   5.348 -1.4332  0.7618 -1.8965
  537MOL0     H70838   5.913   1.062   5.150 -0.0160 -0.7480  0.2365
  537MOL0     H70839   5.840   1.059   5.306 -0.1664 -0.2788  0.3549
  537MOL0     H70840   5.627   0.944   5.218 -0.9033  2.5617 -0.3131
  537MOL0     H70841   5.724   0.903   5.067  2.7206  0.9010 -1.0172
  537MOL0     H70842   5.681   1.195   5.114 -0.1691  1.4127 -0.6958
  537MOL0     H70843   5.685   1.095   4.971 -2.2639  3.0202 -0.2189
  537MOL0     H70844   5.448   1.006   5.050  1.4284 -0.7975  0.4163
  537MOL0     H70845   5.467   1.181   5.006  0.9023  1.2317  0.5549
  537MOL0     H70846   5.311   1.153   5.425 -0.9447  1.4045  1.5551
  537MOL0     H70847   5.088   1.216   5.455 -4.3297 -0.4537 -2.1924
  537MOL0     H70848   4.634   1.351   5.374  0.1307  0.6614  0.1258
  537MOL0     H70849   4.409   1.429   5.348 -1.5744 -2.5072 -1.5779
  537MOL0     H70850   4.256   1.513   4.911  0.2689  1.0771 -0.9351
  537MOL0     H70851   4.346   1.647   4.972 -2.5363  2.7031  0.9426
  537MOL0     H70852   4.152   1.735   4.929 -2.1643 -2.2122 -0.2699
  537MOL0     H70853   4.178   1.739   5.104  1.9244  1.1271 -0.9764
  537MOL0     H70854   4.032   1.538   5.106  1.6014  2.1807  2.0211
  537MOL0     H70855   4.023   1.550   4.922 -4.6149 -0.2373  1.3682
  537MOL0     H70856   3.947   1.757   5.130 -2.1234  1.2122  0.5280
  537MOL0     H70857   3.922   1.774   4.945  0.8905  0.1574  0.3490
  537MOL0     H70858   3.773   1.571   5.141 -0.3849  0.6364  0.3869
  537MOL0     H70859   3.753   1.599   4.964  3.4528 -2.1365 -0.2606
  537MOL0     H70860   3.671   1.808   4.993 -0.4647 -1.4407  0.1253
  537MOL0     H70861   3.729   1.820   5.169  0.4643 -0.6038  1.0866
  537MOL0     H70862   3.504   1.650   5.048 -3.6504 -0.5282  1.1237
  537MOL0     H70863   3.543   1.632   5.216 -0.0235 -0.6149 -1.0097
  537MOL0     H70864   3.438   1.891   5.095 -0.2507  2.3258  2.4803
  537MOL0     H70865   3.438   1.849   5.263 -2.1233 -1.5086 -0.2296
  537MOL0     H70866   4.492   1.495   4.925 -5.1427  1.4105  1.4715
  537MOL0     H70867   4.707   1.429   4.954  0.1032  1.0788 -0.5322
  537MOL0     H70868   5.024   1.238   5.033 -0.8292  1.8407  0.2269
  537MOL0     H70869   5.260   1.188   5.005 -0.3964  1.4321 -0.5922
  537MOL0     H70870   7.247   0.338   5.517 -2.9265 -1.2640 -0.8428
  537MOL0     H70871   7.481   0.446   5.456  0.0602  2.9382  1.4941
  537MOL0     H70872   7.771   0.512   5.233 -0.5624  0.0793 -1.7448
  537MOL0     H70873   7.993   0.534   5.158  0.9810  0.3024  4.6411
  537MOL0     H70874   8.088   0.600   4.910  0.3888 -1.2499  0.2175
  537MOL0     H70875   8.202   0.586   5.041  0.1943 -0.1704 -0.9363
  537MOL0     H70876   8.203   0.746   4.768  2.0139 -0.3823 -1.1917
  537MOL0     H70877   8.302   0.809   4.898  0.6800  0.1449  1.5125
  537MOL0     H70878   8.396   0.665   4.721  1.4502  1.3197  1.2492
  537MOL0     H70879   8.322   0.528   4.788 -2.1436  1.1603  0.1189
  537MOL0     H70880   8.477   0.591   5.003  0.7793 -2.3415  1.0028
  537MOL0     H70881   8.554   0.532   4.861  0.9486  0.9069  3.0692
  537MOL0     H70882   8.693   0.932   4.904  0.5641 -1.0064 -1.0250
  537MOL0     H70883   7.929   0.943   5.052 -1.0595  0.1051  1.3164
  537MOL0     H70884   7.700   0.922   5.105  1.7729  1.0152  0.4316
  538MOL0     O70885   2.040   3.059   3.803  0.4761  0.2055  0.4102
  538MOL0     C70886   2.053   3.066   3.681  0.9511 -0.4146  0.1448
  538MOL0     O70887   1.951   3.106   3.598 -0.4396  0.0680 -0.3698
  538MOL0     C70888   1.821   3.098   3.634  0.5351  0.8698 -0.0983
  538MOL0     C70889   1.762   3.025   3.740 -0.9984  0.3081  0.4196
  538MOL0     C70890   1.622   3.010   3.755 -0.0616 -0.7058  0.0381
  538MOL0     C70891   1.539   3.076   3.661  0.0614 -0.0776  0.1745
  538MOL0     O70892   1.403   3.064   3.662  1.0534 -0.2076 -0.0149
  538MOL0     C70893   1.344   2.946   3.721  0.0226 -0.6559  0.2904
  538MOL0     C70894   1.198   2.941   3.672  0.2126  0.1368 -0.0387
  538MOL0     C70895   1.120   2.850   3.765 -0.4781  0.5023 -0.4830
  538MOL0     C70896   0.967   2.857   3.758 -0.5238 -0.8381  0.6938
  538MOL0     C70897   0.897   2.788   3.876  0.0513  0.2589  0.7699
  538MOL0     C70898   0.780   2.866   3.930 -0.0365  0.7376 -0.7521
  538MOL0     C70899   0.700   2.801   4.043 -0.3067  0.4083  1.1791
  538MOL0     C70900   0.756   2.852   4.179  0.1360  0.5567 -0.2576
  538MOL0     N70901   0.694   2.767   4.288 -0.0683  0.2495 -0.0378
  538MOL0     C70902   0.569   2.789   4.329  0.3048  0.5371 -0.0859
  538MOL0     C70903   0.552   2.691   4.418  0.2912  0.0688 -0.0954
  538MOL0     C70904   0.430   2.659   4.497 -0.3334  0.5068  0.0261
  538MOL0     C70905   0.450   2.672   4.649 -0.3485  0.3622 -0.0235
  538MOL0     C70906   0.371   2.550   4.712 -0.0593  0.4159 -0.2524
  538MOL0     C70907   0.381   2.573   4.862  0.8932 -0.8527  0.0933
  538MOL0     O70908   0.298   2.680   4.912 -0.0918  0.9296 -0.2185
  538MOL0     C70909   0.162   2.651   4.925 -0.0664 -0.7523  0.1489
  538MOL0     C70910   0.081   2.761   4.953  0.7982  0.4307 -0.1105
  538MOL0     C70911  -0.058   2.741   4.962 -0.6989 -0.3094  0.1848
  538MOL0     C70912  -0.110   2.606   4.946 -0.1273 -0.3448 -0.9571
  538MOL0     C70913  -0.262   2.581   4.961 -0.4397 -0.1941  0.4227
  538MOL0     O70914  -0.295   2.453   4.959 -0.7539  0.1636 -0.2480
  538MOL0     C70915  -0.420   2.426   5.007 -0.0153 -0.2373 -0.1881
  538MOL0     C70916  -0.525   2.396   4.915 -0.1833  0.6129 -0.2931
  538MOL0     C70917  -0.647   2.352   4.953 -0.4783  0.1157 -0.0455
  538MOL0     C70918  -0.667   2.344   5.091 -0.6236  0.1283  0.1424
  538MOL0     O70919  -0.777   2.287   5.147  0.1567 -0.1203 -0.3695
  538MOL0     C70920  -0.899   2.270   5.070  0.0918 -0.4018  0.5096
  538MOL0     C70921  -1.019   2.265   5.154 -0.8252  0.6850  0.2366
  538MOL0     C70922  -1.128   2.208   5.059 -1.3058  0.1908 -0.0278
  538MOL0     C70923  -1.262   2.179   5.122 -0.2178  0.4245  0.2421
  538MOL0     C70924  -1.335   2.304   5.145  0.2998 -0.1053 -0.0417
  538MOL0     C70925  -1.469   2.283   5.225 -0.3510  0.6811 -0.2068
  538MOL0     C70926  -1.553   2.400   5.232 -0.1476  0.1087 -0.2594
  538MOL0     C70927  -1.662   2.381   5.337 -0.4397 -0.2931  0.1573
  538MOL0    Cl70928  -1.796   2.509   5.332 -0.5953 -0.2647  0.1232
  538MOL0     C70929  -0.565   2.380   5.181 -0.1111  0.5825 -0.5144
  538MOL0     C70930  -0.446   2.427   5.136  0.7210  0.1795 -0.6434
  538MOL0     O70931  -0.340   2.672   4.956 -0.3625 -0.1348 -0.2149
  538MOL0     C70932  -0.023   2.494   4.934  0.5557 -0.6146  0.2822
  538MOL0     C70933   0.109   2.520   4.923  0.3719 -0.1957  0.2854
  538MOL0     N70934   0.666   2.616   4.427 -0.2061 -0.0725  0.5663
  538MOL0     N70935   0.755   2.671   4.349 -0.2110  0.6534  0.1528
  538MOL0     C70936   1.598   3.141   3.560 -0.0330  0.1169 -0.0744
  538MOL0     C70937   1.735   3.155   3.548  0.5509 -0.2619  0.5722
  538MOL0     C70938   2.185   3.055   3.626  0.7937  0.0721 -0.1226
  538MOL0     C70939   2.285   3.024   3.714  0.0987 -0.6690 -0.5403
  538MOL0     C70940   2.421   3.008   3.672 -0.0174 -0.1986  0.1386
  538MOL0     C70941   2.448   3.019   3.534  0.9610 -0.3471  0.6839
  538MOL0     O70942   2.560   2.982   3.476  0.1345  0.0062  0.5506
  538MOL0     C70943   2.683   2.962   3.552  0.4359 -0.6403 -0.4963
  538MOL0     C70944   2.789   2.958   3.448  0.3050 -0.1852 -0.6117
  538MOL0     C70945   2.818   3.093   3.402  0.0465 -0.3229  0.2035
  538MOL0     C70946   2.941   3.095   3.305  0.9338 -0.5378  0.6796
  538MOL0     C70947   2.982   3.239   3.285 -0.0779 -0.4204  0.3734
  538MOL0     C70948   3.037   3.349   3.271 -0.0719 -1.0849  1.0062
  538MOL0     C70949   2.347   3.050   3.450  0.3870  0.4290 -0.0916
  538MOL0     C70950   2.216   3.080   3.493 -0.7586  0.0973 -0.4598
  538MOL0     H70951   1.825   2.972   3.811 -1.0151 -3.9699 -2.3971
  538MOL0     H70952   1.593   2.950   3.841  2.3941 -1.4621  0.4186
  538MOL0     H70953   1.362   2.958   3.828 -0.3840  0.7609  0.2182
  538MOL0     H70954   1.386   2.852   3.683  0.0677 -0.8804  0.8826
  538MOL0     H70955   1.174   2.900   3.574 -2.0805  2.0163 -0.3622
  538MOL0     H70956   1.139   3.034   3.676 -2.6253 -1.5689  2.5070
  538MOL0     H70957   1.144   2.886   3.866 -0.8025 -0.8502  0.1110
  538MOL0     H70958   1.154   2.748   3.785 -2.2666  0.5050  3.7623
  538MOL0     H70959   0.938   2.961   3.771 -0.3167 -0.9104  1.8408
  538MOL0     H70960   0.925   2.816   3.665  1.6740 -3.3382  0.6872
  538MOL0     H70961   0.974   2.784   3.954  2.2241 -1.1748 -1.2807
  538MOL0     H70962   0.860   2.687   3.855 -1.0648  0.7809  0.1693
  538MOL0     H70963   0.700   2.877   3.857 -2.2326 -1.4740  1.1485
  538MOL0     H70964   0.817   2.961   3.971  1.4775 -0.7523  1.6256
  538MOL0     H70965   0.594   2.826   4.035 -0.6585 -0.1494  3.4495
  538MOL0     H70966   0.700   2.691   4.041  0.6335  0.3926 -1.6903
  538MOL0     H70967   0.741   2.959   4.199  2.8172  0.6945  1.3875
  538MOL0     H70968   0.862   2.831   4.167  0.2561 -0.9196  2.6579
  538MOL0     H70969   0.487   2.855   4.306  0.5958  0.7648 -0.4730
  538MOL0     H70970   0.390   2.561   4.470 -1.0315  0.8034 -0.0380
  538MOL0     H70971   0.347   2.724   4.466 -3.3660 -2.9922  0.1647
  538MOL0     H70972   0.407   2.765   4.688  3.4143  1.4543  1.9591
  538MOL0     H70973   0.553   2.664   4.682 -1.0455 -1.6500  1.9171
  538MOL0     H70974   0.268   2.543   4.676  0.1438 -1.7394 -0.5704
  538MOL0     H70975   0.423   2.458   4.683  0.6658  1.2782 -1.8779
  538MOL0     H70976   0.485   2.593   4.887  0.7669  1.5510 -1.0111
  538MOL0     H70977   0.364   2.474   4.907 -0.4216  0.0244  1.6378
  538MOL0     H70978   0.112   2.863   4.973  1.9505  0.2234 -0.7687
  538MOL0     H70979  -0.127   2.824   4.962 -1.3814 -0.8122  2.3106
  538MOL0     H70980  -0.499   2.400   4.810  3.0694 -4.1206  0.0370
  538MOL0     H70981  -0.704   2.307   4.873 -2.3632 -1.2208  1.9239
  538MOL0     H70982  -0.885   2.178   5.012  0.7307 -0.6312  1.0096
  538MOL0     H70983  -0.910   2.357   5.005  1.8725 -0.3888  0.1739
  538MOL0     H70984  -1.051   2.361   5.197  1.6290  1.2653  0.9302
  538MOL0     H70985  -1.008   2.202   5.242 -1.9254 -0.2083 -0.2388
  538MOL0     H70986  -1.087   2.113   5.022  1.8849  0.8149  1.5653
  538MOL0     H70987  -1.134   2.273   4.972  1.4845 -0.1476 -0.5698
  538MOL0     H70988  -1.328   2.122   5.056 -0.9704 -0.1042  1.4271
  538MOL0     H70989  -1.247   2.125   5.216 -1.9087  1.4461  1.1564
  538MOL0     H70990  -1.355   2.358   5.052  4.4741  1.6180 -0.1755
  538MOL0     H70991  -1.276   2.376   5.203  1.4897  1.2761 -2.7929
  538MOL0     H70992  -1.442   2.242   5.324  0.3265 -1.7437 -1.3138
  538MOL0     H70993  -1.523   2.202   5.176 -1.1456  0.6199  0.7288
  538MOL0     H70994  -1.499   2.488   5.268 -2.1422  0.0182  3.4223
  538MOL0     H70995  -1.602   2.418   5.136 -1.0129 -1.2641 -0.0984
  538MOL0     H70996  -1.614   2.385   5.436 -0.6846 -0.7611  0.2992
  538MOL0     H70997  -1.712   2.287   5.316 -0.1959  0.1322 -2.5976
  538MOL0     H70998  -0.588   2.366   5.285  1.5922  0.1011 -0.1649
  538MOL0     H70999  -0.371   2.457   5.208 -1.8944  1.6600  1.6782
  538MOL0     H71000  -0.054   2.391   4.943 -3.1601  0.5425  3.1427
  538MOL0     H71001   0.178   2.437   4.917  3.1879  1.9069  1.4264
  538MOL0     H71002   1.537   3.197   3.490  0.5442 -0.1789 -0.8318
  538MOL0     H71003   1.773   3.218   3.468 -0.6507 -3.5194 -2.8604
  538MOL0     H71004   2.273   3.008   3.820 -1.2811  0.6294 -0.4557
  538MOL0     H71005   2.504   2.974   3.732  2.4976  1.2926 -2.2528
  538MOL0     H71006   2.678   2.868   3.608 -0.3121  0.2995  1.0739
  538MOL0     H71007   2.699   3.041   3.625 -1.6037  0.3247 -1.0139
  538MOL0     H71008   2.879   2.907   3.485 -0.4196 -1.1360 -0.1076
  538MOL0     H71009   2.750   2.900   3.365  0.7963 -1.2684 -0.1132
  538MOL0     H71010   2.836   3.169   3.478 -1.4416 -0.5073  0.7815
  538MOL0     H71011   2.731   3.122   3.342  0.7303 -0.8896 -1.0989
  538MOL0     H71012   3.023   3.036   3.347  1.7155  0.3048  0.3639
  538MOL0     H71013   2.909   3.062   3.206 -2.2314  0.2262  1.3498
  538MOL0     H71014   3.096   3.438   3.268  1.0848 -1.8060  1.5270
  538MOL0     H71015   2.365   3.074   3.346 -1.1314  0.8987 -0.2658
  538MOL0     H71016   2.149   3.130   3.424  0.4297  0.5772 -1.2931
  539MOL0     O71017   2.182   9.182   0.494  0.1548 -0.8089 -0.1877
  539MOL0     C71018   2.169   9.093   0.414  0.6397 -0.5606 -0.4272
  539MOL0     O71019   2.270   9.017   0.357 -0.6428  0.1516 -0.0667
  539MOL0     C71020   2.403   9.033   0.416 -0.5288 -0.4763  1.1481
  539MOL0     C71021   2.432   9.041   0.549  0.3399 -0.0243 -0.3045
  539MOL0     C71022   2.565   9.043   0.602  0.9740 -1.1122  0.3109
  539MOL0     C71023   2.674   9.019   0.517 -0.5144  0.1419  0.1644
  539MOL0     O71024   2.800   8.999   0.568  0.2662  0.4044  0.5289
  539MOL0     C71025   2.918   8.990   0.487  0.1508 -0.3283 -0.4407
  539MOL0     C71026   3.029   8.931   0.565  0.0076 -0.1371  0.0225
  539MOL0     C71027   3.161   8.955   0.492 -0.3304  0.3568  0.4039
  539MOL0     C71028   3.280   8.909   0.568 -0.6360  0.3431  0.2194
  539MOL0     C71029   3.415   8.935   0.478 -0.5464 -0.0635  0.6137
  539MOL0     C71030   3.541   8.869   0.539  0.0215 -0.1188 -0.6721
  539MOL0     C71031   3.571   8.729   0.485  0.1938  0.4048  0.6025
  539MOL0     C71032   3.680   8.733   0.376 -0.6463  0.4734  0.6497
  539MOL0     N71033   3.613   8.764   0.247  0.5390 -0.0250  0.2830
  539MOL0     C71034   3.607   8.883   0.182  0.8493 -0.5094  0.0732
  539MOL0     C71035   3.540   8.855   0.070 -0.0774  0.5042  0.2390
  539MOL0     C71036   3.501   8.951  -0.035  0.0781  0.5862  0.4818
  539MOL0     C71037   3.534   9.096  -0.011  0.2773  0.5057 -0.1374
  539MOL0     C71038   3.451   9.171   0.091  1.3371  0.4863 -0.4491
  539MOL0     C71039   3.323   9.213   0.020  0.2947 -0.3883 -0.2689
  539MOL0     O71040   3.217   9.201   0.110 -0.3324  0.2242 -0.8442
  539MOL0     C71041   3.088   9.238   0.071 -0.2436 -0.1065 -1.5474
  539MOL0     C71042   3.060   9.279  -0.064  0.4648 -0.4838 -0.4424
  539MOL0     C71043   2.926   9.309  -0.097 -0.1086 -0.3947 -0.0274
  539MOL0     C71044   2.819   9.286   0.001 -0.0661  0.1051  0.6315
  539MOL0     C71045   2.674   9.290  -0.034  0.7016 -0.1639 -0.1565
  539MOL0     O71046   2.594   9.209   0.039  0.2585  0.3468 -0.8102
  539MOL0     C71047   2.463   9.178   0.003  0.2591  0.6526  1.5602
  539MOL0     C71048   2.360   9.221   0.087 -0.7110  1.2291 -0.4522
  539MOL0     C71049   2.232   9.174   0.059 -0.1020  0.5542  0.4756
  539MOL0     C71050   2.209   9.097  -0.052  0.3871  0.1162 -0.9679
  539MOL0     O71051   2.077   9.060  -0.062  1.0034 -0.4198  0.5009
  539MOL0     C71052   2.043   8.931  -0.114  0.1259  0.4191  0.3588
  539MOL0     C71053   1.902   8.933  -0.165  0.1920  0.1192  0.2023
  539MOL0     C71054   1.858   8.797  -0.211  0.2963  0.1652  0.1587
  539MOL0     C71055   1.707   8.781  -0.253 -0.8017  0.4835 -0.4949
  539MOL0     C71056   1.704   8.651  -0.339  0.3346 -0.0490  0.8601
  539MOL0     C71057   1.565   8.616  -0.403  0.3298 -0.4845 -0.5197
  539MOL0     C71058   1.558   8.471  -0.457 -0.3816  0.2673  0.5055
  539MOL0     C71059   1.421   8.437  -0.513  0.1980 -0.4007 -0.0786
  539MOL0    Cl71060   1.334   8.393  -0.370  0.0183  0.0433  0.0195
  539MOL0     C71061   2.310   9.047  -0.126  0.7958  0.3186  0.1381
  539MOL0     C71062   2.440   9.084  -0.100 -0.5271 -0.7608 -0.2093
  539MOL0     O71063   2.633   9.371  -0.111  0.4834 -0.1686  1.1539
  539MOL0     C71064   2.851   9.243   0.129 -0.2529  0.4261  0.5028
  539MOL0     C71065   2.984   9.215   0.161 -0.2968  0.9132  0.0080
  539MOL0     N71066   3.521   8.721   0.056 -0.6122 -0.1014  0.2608
  539MOL0     N71067   3.565   8.672   0.163  0.3203  0.1060 -0.2758
  539MOL0     C71068   2.642   9.017   0.383  1.0790 -0.5745 -0.5261
  539MOL0     C71069   2.514   9.013   0.331  0.4843  0.6267 -0.2830
  539MOL0     C71070   2.036   9.071   0.379 -0.8225 -0.2146 -0.1933
  539MOL0     C71071   1.929   9.105   0.462 -1.1140 -0.0367  0.3555
  539MOL0     C71072   1.799   9.077   0.423 -0.0630 -0.0386  0.3859
  539MOL0     C71073   1.775   9.004   0.301 -1.2188 -0.9244 -0.5897
  539MOL0     O71074   1.643   8.992   0.270 -0.7629  0.1039 -0.6544
  539MOL0     C71075   1.617   8.873   0.184 -0.5915  0.2424 -0.6168
  539MOL0     C71076   1.469   8.846   0.148  0.2799  1.0715 -0.3421
  539MOL0     C71077   1.398   8.975   0.107 -0.3935  1.1120  0.5236
  539MOL0     C71078   1.268   8.943   0.029 -0.3862 -1.0032 -0.3078
  539MOL0     C71079   1.159   8.872   0.103  0.0597 -0.2641  0.8422
  539MOL0     C71080   1.068   8.828   0.164 -0.2940  0.7868  0.2394
  539MOL0     C71081   1.886   8.950   0.237  0.8260 -0.3242 -0.1004
  539MOL0     C71082   2.010   8.993   0.267  0.1566  0.2675 -0.5097
  539MOL0     H71083   2.349   9.039   0.618 -0.0885 -0.2026 -0.8236
  539MOL0     H71084   2.582   9.047   0.709  1.8019  1.3197  0.1606
  539MOL0     H71085   2.946   9.083   0.437  2.4453 -0.8787 -0.2599
  539MOL0     H71086   2.890   8.927   0.402 -3.5093  0.8621 -0.2906
  539MOL0     H71087   3.020   8.825   0.592  0.3858 -0.3960 -0.8569
  539MOL0     H71088   3.045   8.991   0.656 -1.0021 -0.0169  0.1365
  539MOL0     H71089   3.167   9.062   0.471  3.7029  0.2401  0.2995
  539MOL0     H71090   3.161   8.898   0.399  0.9878  2.1727 -0.7409
  539MOL0     H71091   3.299   8.975   0.653  0.7932  2.0368 -1.3528
  539MOL0     H71092   3.255   8.806   0.596 -0.0568  0.1266 -0.0480
  539MOL0     H71093   3.428   9.043   0.471  0.4723 -0.1576  0.8716
  539MOL0     H71094   3.386   8.898   0.379 -3.2651 -0.2262  1.3874
  539MOL0     H71095   3.516   8.857   0.645  1.4718 -1.2380 -0.4239
  539MOL0     H71096   3.628   8.935   0.527  0.8905 -1.2471 -0.7680
  539MOL0     H71097   3.619   8.684   0.573  0.1647  0.4474  0.6399
  539MOL0     H71098   3.486   8.673   0.444 -0.8646  1.2980  1.5264
  539MOL0     H71099   3.738   8.641   0.368 -0.9915  0.3915 -2.1297
  539MOL0     H71100   3.747   8.818   0.393  1.4445 -1.0145  0.2861
  539MOL0     H71101   3.635   8.978   0.225  3.3091 -1.0043 -0.2581
  539MOL0     H71102   3.394   8.948  -0.057  0.3179  2.5564 -1.1775
  539MOL0     H71103   3.549   8.913  -0.126  0.5262 -3.0455  2.0278
  539MOL0     H71104   3.536   9.148  -0.107 -0.1859 -0.8324 -0.9066
  539MOL0     H71105   3.638   9.084   0.017 -0.2048 -1.3836  1.0071
  539MOL0     H71106   3.424   9.101   0.169  0.9499  3.1461  1.9683
  539MOL0     H71107   3.493   9.259   0.141  0.9008 -1.1336  2.9893
  539MOL0     H71108   3.300   9.168  -0.077 -0.5270  4.1913 -2.4653
  539MOL0     H71109   3.339   9.319  -0.004  1.6503 -0.4026  0.4795
  539MOL0     H71110   3.142   9.282  -0.135  2.2136 -4.2095  1.1510
  539MOL0     H71111   2.890   9.345  -0.193  0.4555  1.0749  0.2796
  539MOL0     H71112   2.380   9.264   0.185  0.1861  1.7898 -0.8659
  539MOL0     H71113   2.152   9.188   0.131 -1.1283 -0.4353 -0.4455
  539MOL0     H71114   2.063   8.857  -0.036  0.5813 -0.3555 -0.4696
  539MOL0     H71115   2.102   8.907  -0.203  2.4607  1.0096  1.6794
  539MOL0     H71116   1.898   9.011  -0.242 -0.4183 -0.6120 -0.5307
  539MOL0     H71117   1.830   8.962  -0.087  0.3555  0.2646  0.2999
  539MOL0     H71118   1.875   8.732  -0.124  1.6546 -0.0439 -0.2314
  539MOL0     H71119   1.922   8.751  -0.288  0.3525  1.0115 -0.3058
  539MOL0     H71120   1.629   8.783  -0.177 -2.0255 -0.2935 -1.6955
  539MOL0     H71121   1.681   8.866  -0.316 -0.4835  0.1175 -1.1364
  539MOL0     H71122   1.739   8.570  -0.274  2.8760  2.7966  3.3856
  539MOL0     H71123   1.778   8.665  -0.418  0.1342  1.8471  0.9548
  539MOL0     H71124   1.542   8.685  -0.486 -0.6388  0.9985  0.9272
  539MOL0     H71125   1.490   8.617  -0.325  0.0418  0.5051 -0.7959
  539MOL0     H71126   1.628   8.477  -0.541  0.3060 -1.5043  0.9298
  539MOL0     H71127   1.588   8.402  -0.378 -0.2520  2.2092  2.2248
  539MOL0     H71128   1.420   8.354  -0.584 -1.5809 -0.3288 -0.1921
  539MOL0     H71129   1.371   8.521  -0.562 -0.7197  0.0451  1.5291
  539MOL0     H71130   2.286   8.994  -0.218 -1.1845 -0.3888  1.0181
  539MOL0     H71131   2.525   9.042  -0.153 -2.5318 -1.5954 -2.9349
  539MOL0     H71132   2.776   9.226   0.206 -0.5246 -1.3161 -0.1105
  539MOL0     H71133   3.003   9.189   0.264 -1.1588 -2.4443 -0.5570
  539MOL0     H71134   2.726   9.007   0.314  0.4809  0.5738 -1.4551
  539MOL0     H71135   2.488   8.999   0.227 -0.0215 -1.2236  0.0624
  539MOL0     H71136   1.948   9.157   0.555  0.4267 -2.3381  1.4187
  539MOL0     H71137   1.706   9.111   0.467  0.1457  1.4537 -0.2504
  539MOL0     H71138   1.645   8.778   0.231 -1.4201 -0.5022 -1.5812
  539MOL0     H71139   1.670   8.881   0.088  1.8456 -2.4936  0.3530
  539MOL0     H71140   1.478   8.777   0.063  2.2788 -0.7729  1.2287
  539MOL0     H71141   1.423   8.792   0.232  0.7459  4.0097  1.9518
  539MOL0     H71142   1.466   9.029   0.040 -1.2876 -2.7319 -4.0239
  539MOL0     H71143   1.379   9.040   0.193 -1.9603  0.5946  0.6000
  539MOL0     H71144   1.232   9.034  -0.021 -0.8790 -0.7655  0.4566
  539MOL0     H71145   1.295   8.885  -0.060 -0.3500 -0.5455 -0.6033
  539MOL0     H71146   0.993   8.778   0.221 -0.1946  0.7000  0.2935
  539MOL0     H71147   1.871   8.893   0.146 -0.9361  0.9230 -0.6400
  539MOL0     H71148   2.089   8.956   0.202  0.9724  1.4032 -0.1791
  540MOL0     O71149   8.756   9.189   8.004 -0.0097 -0.4108  0.4186
  540MOL0     C71150   8.782   9.150   7.892 -0.0640  0.1104 -0.7329
  540MOL0     O71151   8.738   9.034   7.841  0.6422  0.1483  0.0147
  540MOL0     C71152   8.653   8.949   7.911 -0.1337 -0.4175 -0.0710
  540MOL0     C71153   8.667   8.814   7.895  0.1486 -0.5281 -0.2413
  540MOL0     C71154   8.578   8.724   7.957 -0.4061 -0.1211  0.6160
  540MOL0     C71155   8.467   8.766   8.037  0.0029 -0.5627 -0.0246
  540MOL0     O71156   8.404   8.660   8.097  1.1722 -0.0091 -0.2954
  540MOL0     C71157   8.312   8.691   8.201 -0.9709 -0.4197  0.1332
  540MOL0     C71158   8.247   8.573   8.263 -0.4864 -0.6279 -1.1741
  540MOL0     C71159   8.109   8.609   8.322  0.6385  0.5428  0.1205
  540MOL0     C71160   8.042   8.490   8.383 -0.2013  0.1729 -0.4163
  540MOL0     C71161   7.887   8.508   8.405 -0.5234  0.6553 -0.8330
  540MOL0     C71162   7.827   8.374   8.446 -0.5228  0.5411  0.4390
  540MOL0     C71163   7.679   8.389   8.468  0.0097 -0.2555 -1.8194
  540MOL0     C71164   7.597   8.466   8.368  0.0654 -1.0887 -0.7949
  540MOL0     N71165   7.451   8.451   8.386  0.6705 -0.2392  0.3100
  540MOL0     C71166   7.379   8.472   8.503 -0.4565  0.4544  0.9481
  540MOL0     C71167   7.250   8.431   8.465 -0.5519  0.5379 -0.4391
  540MOL0     C71168   7.129   8.424   8.558  0.6632  0.0148  0.1211
  540MOL0     C71169   7.073   8.559   8.591 -0.0490 -0.1026 -0.7804
  540MOL0     C71170   6.954   8.552   8.695  0.1428  0.7721  0.3472
  540MOL0     C71171   6.821   8.501   8.632  0.9664 -0.2037  0.3072
  540MOL0     O71172   6.768   8.596   8.539 -0.1035 -0.4639 -0.4564
  540MOL0     C71173   6.631   8.583   8.518 -0.2837  0.7865  0.4922
  540MOL0     C71174   6.553   8.698   8.509 -1.1099  0.2579  0.1508
  540MOL0     C71175   6.426   8.693   8.474  0.4212 -0.3701 -0.6363
  540MOL0     C71176   6.364   8.571   8.460 -0.7045  0.3811  0.1984
  540MOL0     C71177   6.222   8.558   8.416 -0.7084 -0.3549  0.4918
  540MOL0     O71178   6.155   8.677   8.391  0.4454  0.4926 -1.1608
  540MOL0     C71179   6.020   8.664   8.358  0.1855 -0.9951  0.4159
  540MOL0     C71180   5.927   8.566   8.397  0.5233  0.1156  0.2382
  540MOL0     C71181   5.791   8.588   8.380  0.4809 -0.4498 -0.2876
  540MOL0     C71182   5.748   8.702   8.308  0.0058  0.3343 -0.3657
  540MOL0     O71183   5.617   8.729   8.268  0.3075  0.4960 -0.4198
  540MOL0     C71184   5.517   8.633   8.281  0.9206 -1.0697  0.3875
  540MOL0     C71185   5.410   8.697   8.188  0.4017  0.8019  0.0072
  540MOL0     C71186   5.284   8.616   8.194 -0.3464 -1.2458  0.2852
  540MOL0     C71187   5.159   8.690   8.137  0.3586 -0.6001  0.4759
  540MOL0     C71188   5.021   8.620   8.165 -0.4700  0.1472  0.2664
  540MOL0     C71189   4.913   8.668   8.064 -0.3548  0.6363 -0.3422
  540MOL0     C71190   4.772   8.608   8.101 -0.2518 -0.4326 -0.2760
  540MOL0     C71191   4.650   8.673   8.044 -0.2504 -0.4433  0.3633
  540MOL0    Cl71192   4.498   8.602   8.095  0.0019  0.2150  0.0629
  540MOL0     C71193   5.837   8.795   8.274 -0.4852 -0.3168  0.0609
  540MOL0     C71194   5.969   8.785   8.303  0.5644  0.7562  0.3693
  540MOL0     O71195   6.182   8.449   8.383  0.1094 -0.1772  0.1813
  540MOL0     C71196   6.444   8.453   8.463 -0.3200  0.2864 -0.2093
  540MOL0     C71197   6.575   8.456   8.506 -0.2976  0.2708  0.1164
  540MOL0     N71198   7.247   8.378   8.332  0.1846 -0.1618  0.0304
  540MOL0     N71199   7.368   8.389   8.293 -0.1831 -0.4386 -0.2013
  540MOL0     C71200   8.450   8.906   8.048  0.1424 -0.5258  0.5403
  540MOL0     C71201   8.540   8.994   7.985  0.2092 -0.0621  0.3170
  540MOL0     C71202   8.854   9.234   7.799 -0.7933  0.0781  0.4145
  540MOL0     C71203   8.927   9.347   7.842  0.3584  0.0411  0.4534
  540MOL0     C71204   9.012   9.415   7.752 -0.9272  0.3159  0.5815
  540MOL0     C71205   9.016   9.391   7.608  0.0785  0.1215  0.5902
  540MOL0     O71206   9.095   9.475   7.528 -0.5865 -0.4170  0.2374
  540MOL0     C71207   9.077   9.466   7.389  0.0087  0.3407  0.8142
  540MOL0     C71208   9.186   9.376   7.317 -0.3415 -0.4512 -0.5127
  540MOL0     C71209   9.330   9.416   7.357 -0.8340 -0.4340 -0.7590
  540MOL0     C71210   9.361   9.568   7.363 -0.0370  0.1156 -0.0862
  540MOL0     C71211   9.504   9.584   7.379  0.6223 -0.0021 -0.4649
  540MOL0     C71212   9.620   9.586   7.408  0.1720  0.9271  0.6281
  540MOL0     C71213   8.944   9.282   7.564  0.1238  0.9958 -0.1661
  540MOL0     C71214   8.868   9.204   7.657  0.0669 -0.4492  0.2207
  540MOL0     H71215   8.749   8.777   7.835 -0.8104 -0.3662 -1.7007
  540MOL0     H71216   8.595   8.617   7.948 -0.2350  0.0052 -0.8370
  540MOL0     H71217   8.234   8.752   8.155  0.8716  0.9026 -1.3796
  540MOL0     H71218   8.359   8.757   8.275  1.5263  1.2460 -2.7264
  540MOL0     H71219   8.311   8.527   8.339  2.7837  0.5487 -3.0002
  540MOL0     H71220   8.226   8.501   8.184 -1.3302  1.0714 -2.5617
  540MOL0     H71221   8.048   8.655   8.244 -1.9012 -1.2250  0.9410
  540MOL0     H71222   8.114   8.676   8.409  1.0226 -0.9827  1.3285
  540MOL0     H71223   8.064   8.396   8.333 -2.3671 -0.3412 -0.5283
  540MOL0     H71224   8.079   8.470   8.484 -1.2809 -2.0586 -0.3996
  540MOL0     H71225   7.849   8.556   8.314 -0.3001 -2.7592 -2.8884
  540MOL0     H71226   7.862   8.578   8.486  0.4986  2.4054 -1.9452
  540MOL0     H71227   7.868   8.326   8.536 -1.2678 -1.6373 -0.3337
  540MOL0     H71228   7.832   8.299   8.367  2.9554  0.9521  0.0857
  540MOL0     H71229   7.635   8.290   8.482 -1.2578  0.6440  1.3437
  540MOL0     H71230   7.665   8.432   8.568  0.0361 -2.8806 -0.6027
  540MOL0     H71231   7.626   8.440   8.265  2.0947  1.9917 -1.1144
  540MOL0     H71232   7.625   8.570   8.388 -0.7214 -1.3068  1.8499
  540MOL0     H71233   7.419   8.510   8.597  3.5272 -0.4763 -0.1943
  540MOL0     H71234   7.149   8.368   8.650  2.2787 -0.1614 -0.2959
  540MOL0     H71235   7.054   8.366   8.503  0.3902 -1.5261  1.9917
  540MOL0     H71236   7.050   8.621   8.504 -0.0845  0.5320 -0.3254
  540MOL0     H71237   7.152   8.610   8.646  1.3217  0.0931 -2.8297
  540MOL0     H71238   6.990   8.467   8.754 -1.3151  0.8648  1.4391
  540MOL0     H71239   6.948   8.645   8.751  2.1907  1.1204  0.0428
  540MOL0     H71240   6.749   8.483   8.714 -1.9304  0.5361 -1.8968
  540MOL0     H71241   6.839   8.409   8.576  1.2166  0.2526 -0.3571
  540MOL0     H71242   6.595   8.798   8.509  1.4631 -0.7310  2.0776
  540MOL0     H71243   6.377   8.788   8.453  0.2684 -0.3495 -0.1821
  540MOL0     H71244   5.955   8.470   8.440  0.1206 -0.7253 -1.3342
  540MOL0     H71245   5.731   8.515   8.435  0.9924 -1.1128 -0.5964
  540MOL0     H71246   5.482   8.622   8.384 -0.2938  3.2654  0.6009
  540MOL0     H71247   5.540   8.532   8.244  1.1467 -0.2177 -2.0056
  540MOL0     H71248   5.445   8.693   8.085 -0.7775 -2.3500 -0.3735
  540MOL0     H71249   5.388   8.801   8.214 -1.6183  0.2553  0.7045
  540MOL0     H71250   5.260   8.598   8.299 -1.5848  1.0584  0.4687
  540MOL0     H71251   5.296   8.516   8.150  0.3275 -1.1149  0.1543
  540MOL0     H71252   5.154   8.795   8.171 -0.9563  0.1851 -1.9434
  540MOL0     H71253   5.173   8.699   8.029  1.1810  1.3315  0.6878
  540MOL0     H71254   4.980   8.634   8.265 -0.7709 -0.8703  0.3000
  540MOL0     H71255   5.042   8.513   8.149 -0.7037  0.0817  0.3956
  540MOL0     H71256   4.932   8.646   7.958 -1.6650 -0.2260 -0.4245
  540MOL0     H71257   4.908   8.777   8.077 -0.5209  0.4385  1.4956
  540MOL0     H71258   4.770   8.502   8.073  2.2165 -1.1593  1.8480
  540MOL0     H71259   4.753   8.619   8.208  1.6939  2.6459 -0.1296
  540MOL0     H71260   4.653   8.670   7.935  1.3538 -2.6373  0.3940
  540MOL0     H71261   4.654   8.777   8.078  0.8289 -0.8430  1.5245
  540MOL0     H71262   5.794   8.882   8.225 -0.3134 -0.7814 -0.9360
  540MOL0     H71263   6.047   8.854   8.272 -0.6396  1.2758 -1.7199
  540MOL0     H71264   6.398   8.365   8.420  0.8539  0.2528 -1.4722
  540MOL0     H71265   6.634   8.367   8.488  0.4511  0.5340  1.1849
  540MOL0     H71266   8.370   8.953   8.103 -0.6388  2.1152 -2.5713
  540MOL0     H71267   8.532   9.102   7.995  1.2918 -0.0931  1.9401
  540MOL0     H71268   8.932   9.364   7.950  0.3996 -0.9312  0.6094
  540MOL0     H71269   9.084   9.492   7.779  0.6647 -0.8756 -0.0467
  540MOL0     H71270   9.089   9.568   7.351 -1.0020  0.3383  0.4505
  540MOL0     H71271   8.982   9.439   7.341  1.5841 -2.7214 -0.8858
  540MOL0     H71272   9.162   9.271   7.336  0.8820 -0.9133 -1.3381
  540MOL0     H71273   9.166   9.393   7.211 -3.6537 -1.1072 -0.1005
  540MOL0     H71274   9.393   9.356   7.292 -1.2899 -0.2730 -1.3609
  540MOL0     H71275   9.343   9.379   7.459  0.9964  1.7996 -0.1110
  540MOL0     H71276   9.321   9.613   7.272  1.5177  0.7091 -0.5093
  540MOL0     H71277   9.320   9.613   7.454 -0.0466  0.3429 -0.2028
  540MOL0     H71278   9.721   9.568   7.441  0.5055 -3.0420 -1.8890
  540MOL0     H71279   8.944   9.264   7.457 -0.3714 -1.5298  0.2129
  540MOL0     H71280   8.822   9.115   7.617  0.5572  0.3630 -2.3445
  541MOL0     O71281   5.965   6.605   4.630  0.1116  0.1928  0.0284
  541MOL0     C71282   6.061   6.536   4.669 -0.0792 -0.4116 -0.8054
  541MOL0     O71283   6.065   6.408   4.726 -0.1174 -0.0467 -0.2452
  541MOL0     C71284   5.945   6.334   4.736  0.6443  0.0878 -0.1896
  541MOL0     C71285   5.961   6.196   4.729 -0.2143 -0.2267 -0.2840
  541MOL0     C71286   5.848   6.112   4.728 -0.8374 -0.4995  0.3963
  541MOL0     C71287   5.724   6.164   4.751  0.5220  0.1308 -0.6374
  541MOL0     O71288   5.622   6.069   4.755  0.0006 -0.4779 -0.6298
  541MOL0     C71289   5.490   6.107   4.724 -0.5649  0.1176 -0.1242
  541MOL0     C71290   5.415   6.134   4.856 -0.0898 -0.7311  0.2898
  541MOL0     C71291   5.262   6.134   4.849 -0.3637 -0.5425  0.1617
  541MOL0     C71292   5.195   6.102   4.982 -0.4309  0.3498  0.4875
  541MOL0     C71293   5.043   6.090   4.963  0.0253  0.2109  0.2201
  541MOL0     C71294   4.981   6.228   4.967 -0.0158 -0.0032  0.1151
  541MOL0     C71295   4.853   6.243   4.881 -1.1362  0.3393 -0.3168
  541MOL0     C71296   4.727   6.202   4.965 -0.1370 -0.6833 -0.5832
  541MOL0     N71297   4.600   6.201   4.889 -0.9344 -0.1560  0.1287
  541MOL0     C71298   4.479   6.138   4.927 -0.0198 -0.0316  0.7024
  541MOL0     C71299   4.382   6.197   4.850  0.1095  1.1365  0.9319
  541MOL0     C71300   4.239   6.147   4.843 -0.7552  0.0593  0.7101
  541MOL0     C71301   4.209   6.075   4.709  0.7874  0.3706 -0.4130
  541MOL0     C71302   4.246   5.926   4.704  0.3459 -0.3146 -0.0738
  541MOL0     C71303   4.158   5.830   4.795  0.0585 -0.1272  0.2696
  541MOL0     O71304   4.017   5.855   4.758 -0.0669  0.5166 -0.0262
  541MOL0     C71305   3.923   5.766   4.807 -0.2551  0.5012 -0.6027
  541MOL0     C71306   3.799   5.786   4.746 -0.4209  0.7549 -0.6614
  541MOL0     C71307   3.690   5.717   4.801 -0.3888  0.0163  0.3269
  541MOL0     C71308   3.699   5.625   4.904  0.6949 -0.0095  0.1210
  541MOL0     C71309   3.572   5.551   4.949  0.5406  0.0309  0.1825
  541MOL0     O71310   3.452   5.579   4.888  0.4196  0.3247  0.5763
  541MOL0     C71311   3.352   5.496   4.920 -0.1740  0.1811  0.5730
  541MOL0     C71312   3.311   5.403   4.830 -0.3772  0.7679  0.0090
  541MOL0     C71313   3.180   5.350   4.844  0.4207 -0.1201 -0.5988
  541MOL0     C71314   3.098   5.385   4.950  0.2752 -0.6196 -0.3762
  541MOL0     O71315   2.975   5.326   4.949  0.0803  0.0626  0.2659
  541MOL0     C71316   2.869   5.396   5.032 -0.0266 -0.5128 -0.1281
  541MOL0     C71317   2.745   5.313   5.024  0.0365  0.4885 -0.1287
  541MOL0     C71318   2.642   5.329   4.917 -0.5944 -0.2121  0.2404
  541MOL0     C71319   2.508   5.301   4.977  0.1815 -0.4411  0.2983
  541MOL0     C71320   2.389   5.331   4.888 -0.0330 -0.6352 -0.6481
  541MOL0     C71321   2.280   5.395   4.971 -0.7037 -0.5476  0.2326
  541MOL0     C71322   2.146   5.401   4.904  0.4195 -0.6227  0.5298
  541MOL0     C71323   2.069   5.272   4.931  0.1313  0.3694 -0.1234
  541MOL0    Cl71324   1.901   5.321   4.936  0.2145  0.2475  0.1802
  541MOL0     C71325   3.142   5.476   5.039  0.3602  0.5080  0.3844
  541MOL0     C71326   3.271   5.527   5.030 -0.1119  0.0122 -0.6628
  541MOL0     O71327   3.589   5.480   5.044  0.7979  1.3977 -0.0010
  541MOL0     C71328   3.823   5.602   4.957 -0.2702  0.4794  0.3944
  541MOL0     C71329   3.940   5.673   4.910  0.0151 -0.4576 -0.5333
  541MOL0     N71330   4.446   6.290   4.771 -0.0783  0.5136  0.6351
  541MOL0     N71331   4.572   6.298   4.796  0.9036 -0.5344 -0.5732
  541MOL0     C71332   5.713   6.304   4.776  0.6711 -0.0872  0.3808
  541MOL0     C71333   5.824   6.390   4.765  0.0612  0.9996  0.3546
  541MOL0     C71334   6.187   6.615   4.688 -0.6027  0.1406 -0.6154
  541MOL0     C71335   6.303   6.565   4.744  0.7651 -0.4980 -0.6387
  541MOL0     C71336   6.422   6.641   4.755 -0.1660 -0.3808  0.4563
  541MOL0     C71337   6.432   6.768   4.698  1.2520 -0.5910  0.2902
  541MOL0     O71338   6.539   6.847   4.722  0.0145 -0.3739 -0.2759
  541MOL0     C71339   6.519   6.989   4.720 -0.1749  0.3311 -0.9427
  541MOL0     C71340   6.659   7.055   4.715  0.4523 -0.7933 -0.0751
  541MOL0     C71341   6.753   7.040   4.836  0.4257 -0.4936  0.0460
  541MOL0     C71342   6.892   7.093   4.803 -0.0481 -0.4361 -0.5544
  541MOL0     C71343   6.983   7.093   4.919 -0.3447 -0.5910  0.8483
  541MOL0     C71344   7.064   7.109   5.003  0.3178  0.1707  0.1265
  541MOL0     C71345   6.312   6.812   4.637  0.0882  0.1980  0.2487
  541MOL0     C71346   6.191   6.744   4.631 -0.2684  0.4189 -0.0525
  541MOL0     H71347   6.054   6.141   4.718  0.0085 -0.4187  2.0184
  541MOL0     H71348   5.869   6.008   4.704 -0.8597 -0.1470 -1.2962
  541MOL0     H71349   5.433   6.029   4.672 -2.0541  0.0772  1.4518
  541MOL0     H71350   5.488   6.198   4.662 -2.4320  0.7485  0.7682
  541MOL0     H71351   5.447   6.235   4.884  0.8069  0.0773 -3.1409
  541MOL0     H71352   5.440   6.063   4.935 -2.7900 -0.8720  1.1211
  541MOL0     H71353   5.240   6.051   4.781  1.8974 -0.9954 -0.1044
  541MOL0     H71354   5.226   6.230   4.811 -1.9288 -2.2028 -2.9041
  541MOL0     H71355   5.235   6.012   5.030  0.6475  1.3989  1.6426
  541MOL0     H71356   5.214   6.185   5.051  0.4217 -0.0689  0.7572
  541MOL0     H71357   4.994   6.022   5.033 -1.2609 -0.8694 -1.6520
  541MOL0     H71358   5.026   6.036   4.870  0.1352  0.4347  0.0702
  541MOL0     H71359   5.054   6.306   4.946  1.6153  0.0505  4.7891
  541MOL0     H71360   4.943   6.233   5.070 -0.6874 -0.0342 -0.1253
  541MOL0     H71361   4.857   6.347   4.847  0.9337 -0.4129 -2.6812
  541MOL0     H71362   4.869   6.178   4.795  1.8159  0.2748  0.1713
  541MOL0     H71363   4.708   6.269   5.050  2.5206 -0.9717  0.3215
  541MOL0     H71364   4.743   6.104   5.010  2.9638 -0.8137 -1.7470
  541MOL0     H71365   4.478   6.053   4.994  0.8735 -0.3126  0.3832
  541MOL0     H71366   4.183   6.240   4.855  1.0955  1.0616  2.0672
  541MOL0     H71367   4.197   6.086   4.923 -3.2417  1.3864  0.5046
  541MOL0     H71368   4.267   6.124   4.630  0.4106  0.1906 -0.8045
  541MOL0     H71369   4.103   6.081   4.685  0.4139  0.1926  1.0821
  541MOL0     H71370   4.247   5.889   4.601 -1.0556 -1.8502  0.4354
  541MOL0     H71371   4.347   5.923   4.746  0.1259  1.3022  0.6444
  541MOL0     H71372   4.182   5.848   4.900  1.7713  0.8303 -0.2576
  541MOL0     H71373   4.194   5.728   4.782  0.4483 -0.4125  3.0298
  541MOL0     H71374   3.784   5.854   4.663 -0.0322  0.2829 -1.1273
  541MOL0     H71375   3.591   5.738   4.761 -0.3080 -1.7106 -0.9016
  541MOL0     H71376   3.377   5.377   4.748 -0.1861 -1.9830  0.9422
  541MOL0     H71377   3.147   5.278   4.770  0.1424  0.1129 -0.7044
  541MOL0     H71378   2.847   5.494   4.990 -0.5517  0.0490  1.3851
  541MOL0     H71379   2.903   5.399   5.136  0.8314 -0.8196 -0.3963
  541MOL0     H71380   2.693   5.330   5.119  1.9813 -0.1535  1.1013
  541MOL0     H71381   2.775   5.208   5.022 -0.1755  0.4396 -1.6523
  541MOL0     H71382   2.673   5.260   4.838  1.0371 -1.0263  1.5130
  541MOL0     H71383   2.647   5.432   4.881  0.2489 -0.1454  0.5387
  541MOL0     H71384   2.511   5.193   4.997 -0.5364 -0.6541 -0.7075
  541MOL0     H71385   2.488   5.355   5.070  0.7130 -1.1070  0.8153
  541MOL0     H71386   2.353   5.240   4.840  3.4203 -2.1364 -0.6816
  541MOL0     H71387   2.414   5.400   4.807  4.6618 -2.8922 -1.4473
  541MOL0     H71388   2.312   5.499   4.980  1.5556 -1.1606 -0.1993
  541MOL0     H71389   2.278   5.344   5.068 -0.4143 -0.0868  0.4843
  541MOL0     H71390   2.088   5.487   4.940 -0.4615 -0.4676 -1.1745
  541MOL0     H71391   2.169   5.429   4.801 -1.1211 -0.1055  0.2915
  541MOL0     H71392   2.104   5.239   5.029  1.1653  2.1352  0.1412
  541MOL0     H71393   2.084   5.188   4.863 -1.0328 -1.0488  1.2825
  541MOL0     H71394   3.080   5.514   5.120 -0.3819 -0.6002  0.3477
  541MOL0     H71395   3.316   5.600   5.097  1.3474 -0.0104 -1.5894
  541MOL0     H71396   3.823   5.530   5.038 -2.9443 -0.2665 -0.1772
  541MOL0     H71397   4.035   5.660   4.962 -2.1687  1.6999  4.6528
  541MOL0     H71398   5.619   6.352   4.801 -0.4432 -0.9332 -1.8978
  541MOL0     H71399   5.802   6.486   4.810 -1.1823 -0.4813  3.1321
  541MOL0     H71400   6.299   6.460   4.771  1.6195 -0.4742 -0.4111
  541MOL0     H71401   6.504   6.587   4.801 -0.7797  0.3247  2.4632
  541MOL0     H71402   6.458   7.028   4.802 -1.5045  0.6252 -2.0400
  541MOL0     H71403   6.461   7.015   4.631 -1.8925 -0.5835 -0.1218
  541MOL0     H71404   6.701   7.007   4.625 -0.4499 -2.0012  0.1213
  541MOL0     H71405   6.640   7.162   4.703 -0.2459 -0.6308  2.0327
  541MOL0     H71406   6.760   6.935   4.865  2.6904  0.1758  2.2412
  541MOL0     H71407   6.706   7.089   4.922 -0.0401 -1.7754  0.5425
  541MOL0     H71408   6.930   7.009   4.743 -2.8480 -2.8185  0.7127
  541MOL0     H71409   6.902   7.193   4.761  0.7528 -0.1861  0.2279
  541MOL0     H71410   7.133   7.117   5.085  2.3166 -1.1806 -1.3347
  541MOL0     H71411   6.314   6.909   4.590  2.4503  0.0471 -0.0736
  541MOL0     H71412   6.107   6.792   4.583  0.2461  2.0959  0.6568
  542MOL0     O71413   0.162   9.108   6.340 -0.0255  0.1133  0.0338
  542MOL0     C71414   0.206   9.223   6.333 -0.4388  0.7615  0.7364
  542MOL0     O71415   0.143   9.339   6.371 -0.2731 -0.0348 -0.1723
  542MOL0     C71416   0.011   9.335   6.405 -0.7460  0.2147 -0.2826
  542MOL0     C71417  -0.095   9.324   6.322 -0.7380  0.6518 -0.3195
  542MOL0     C71418  -0.227   9.310   6.375 -0.8525 -0.2060 -0.3075
  542MOL0     C71419  -0.253   9.306   6.517 -0.0355 -0.0593 -0.1542
  542MOL0     O71420  -0.375   9.287   6.577 -0.3505  0.2093  0.4659
  542MOL0     C71421  -0.486   9.306   6.494 -0.4098  0.8329  0.0897
  542MOL0     C71422  -0.607   9.340   6.587  0.4066  0.4548 -0.4468
  542MOL0     C71423  -0.744   9.368   6.523 -0.5058 -0.3100  0.8982
  542MOL0     C71424  -0.855   9.395   6.630 -0.3710 -0.0518 -0.2955
  542MOL0     C71425  -0.988   9.341   6.585  0.0998 -0.1532 -0.2252
  542MOL0     C71426  -1.094   9.414   6.671 -0.4978 -0.2673  0.5241
  542MOL0     C71427  -1.233   9.367   6.620  0.2439  0.0563  0.1161
  542MOL0     C71428  -1.291   9.247   6.692  0.6020 -0.5136  0.2017
  542MOL0     N71429  -1.357   9.282   6.822  0.2839  0.4437 -0.0798
  542MOL0     C71430  -1.493   9.279   6.849 -0.5968 -0.3077  0.0637
  542MOL0     C71431  -1.503   9.280   6.987 -0.0448  0.4737 -0.0276
  542MOL0     C71432  -1.620   9.302   7.071  0.4211 -1.3264 -0.5144
  542MOL0     C71433  -1.744   9.222   7.022  0.1881 -0.1648  0.5578
  542MOL0     C71434  -1.725   9.068   7.030 -0.2236 -0.1247  0.5484
  542MOL0     C71435  -1.856   8.988   7.030  0.2818  1.0789 -0.5336
  542MOL0     O71436  -1.919   9.007   7.162  0.2932 -0.0038 -0.1833
  542MOL0     C71437  -2.049   8.955   7.175 -0.3169  0.1896  0.1282
  542MOL0     C71438  -2.111   8.980   7.299  0.4253  0.7019  1.5612
  542MOL0     C71439  -2.239   8.919   7.323 -0.0579 -0.0505  0.5767
  542MOL0     C71440  -2.304   8.846   7.218  0.1347 -0.0419  1.0241
  542MOL0     C71441  -2.435   8.781   7.253 -0.3280 -0.4757  0.3874
  542MOL0     O71442  -2.489   8.705   7.153 -0.0129  0.4051  0.3873
  542MOL0     C71443  -2.595   8.636   7.175 -0.0139  0.7665 -0.7104
  542MOL0     C71444  -2.594   8.498   7.152  0.3680 -0.1567  0.1081
  542MOL0     C71445  -2.712   8.432   7.178 -0.0924  0.7711  0.5474
  542MOL0     C71446  -2.838   8.491   7.208  0.3396 -0.5658  0.2383
  542MOL0     O71447  -2.942   8.408   7.221 -0.0708  0.0167 -0.3176
  542MOL0     C71448  -3.060   8.462   7.274 -0.1133 -0.0932  0.2139
  542MOL0     C71449  -3.140   8.346   7.317  0.4413 -0.1615 -0.0782
  542MOL0     C71450  -3.203   8.288   7.194 -0.5147  0.0951  0.5996
  542MOL0     C71451  -3.295   8.169   7.224 -0.2865 -0.5661 -0.9058
  542MOL0     C71452  -3.348   8.118   7.087 -0.4120 -0.5666 -0.1474
  542MOL0     C71453  -3.439   7.992   7.092 -0.3445 -0.7855  0.5408
  542MOL0     C71454  -3.547   7.998   7.202 -0.0786 -0.0554  0.5243
  542MOL0     C71455  -3.682   7.919   7.173  0.2547 -0.7507  0.6560
  542MOL0    Cl71456  -3.746   7.992   7.023 -0.1417  0.2899 -0.2563
  542MOL0     C71457  -2.835   8.631   7.220  0.4404  0.2602 -0.3724
  542MOL0     C71458  -2.714   8.701   7.213 -0.2108 -0.2223 -0.6091
  542MOL0     O71459  -2.465   8.785   7.373  0.0629 -0.1126  0.5013
  542MOL0     C71460  -2.242   8.831   7.095 -0.3272  0.2729  0.8264
  542MOL0     C71461  -2.116   8.878   7.077  0.0666 -0.2307 -0.0158
  542MOL0     N71462  -1.380   9.262   7.041  0.4080 -0.2653 -0.3774
  542MOL0     N71463  -1.292   9.269   6.939 -0.1225  0.0308  0.6385
  542MOL0     C71464  -0.138   9.318   6.602 -0.5481 -0.1428  0.9783
  542MOL0     C71465  -0.007   9.334   6.545  0.3337  0.6410 -0.1713
  542MOL0     C71466   0.352   9.236   6.307  0.2794  0.2644 -0.5939
  542MOL0     C71467   0.433   9.126   6.292 -0.7869  0.1721 -0.8549
  542MOL0     C71468   0.567   9.128   6.255 -0.4383  1.0301 -0.4393
  542MOL0     C71469   0.635   9.256   6.248 -0.2374 -0.2943  0.1527
  542MOL0     O71470   0.764   9.279   6.208 -0.4373  0.3222 -0.0660
  542MOL0     C71471   0.836   9.170   6.141 -0.0719 -0.2052  0.4471
  542MOL0     C71472   0.888   9.066   6.247 -0.9868 -0.3627 -0.2672
  542MOL0     C71473   0.971   8.950   6.193 -0.3207 -0.1115  0.0332
  542MOL0     C71474   1.106   8.995   6.120 -1.2251  0.0458 -0.1251
  542MOL0     C71475   1.198   8.885   6.084 -0.4020 -0.6524 -0.2386
  542MOL0     C71476   1.268   8.792   6.053  0.2495  0.3934 -0.0784
  542MOL0     C71477   0.559   9.368   6.255 -0.4343  0.0839 -0.5170
  542MOL0     C71478   0.414   9.358   6.284 -0.1100 -0.0688 -0.1467
  542MOL0     H71479  -0.084   9.322   6.214  0.0005  0.1184 -0.2455
  542MOL0     H71480  -0.308   9.300   6.304  0.0601 -1.4008 -1.2058
  542MOL0     H71481  -0.513   9.213   6.444  0.4458  0.9053 -0.5258
  542MOL0     H71482  -0.482   9.398   6.435 -0.4519  1.3355  0.8656
  542MOL0     H71483  -0.587   9.422   6.656  0.5778 -0.1199  0.2038
  542MOL0     H71484  -0.628   9.255   6.653 -1.5085  1.1761 -0.0724
  542MOL0     H71485  -0.779   9.290   6.455  1.6306 -1.1547  0.6936
  542MOL0     H71486  -0.744   9.454   6.455  2.3537 -1.8826 -1.3023
  542MOL0     H71487  -0.836   9.356   6.730  1.4582  0.6900 -0.3075
  542MOL0     H71488  -0.860   9.504   6.643  2.3630  0.0888  0.3298
  542MOL0     H71489  -0.993   9.233   6.599  2.8832 -0.4238 -0.6502
  542MOL0     H71490  -1.008   9.375   6.483 -0.2941  2.1742  0.5790
  542MOL0     H71491  -1.094   9.522   6.652  0.1187 -0.4477 -0.6142
  542MOL0     H71492  -1.083   9.385   6.775 -2.9240  1.4429  1.3543
  542MOL0     H71493  -1.294   9.457   6.625  3.4713  2.5460 -1.4511
  542MOL0     H71494  -1.240   9.341   6.514 -4.2843  0.4607  0.1509
  542MOL0     H71495  -1.235   9.153   6.693 -0.0071 -0.9280 -1.3137
  542MOL0     H71496  -1.376   9.212   6.632  0.6484  1.6189 -1.2250
  542MOL0     H71497  -1.574   9.299   6.780 -1.4755 -3.2288  0.1219
  542MOL0     H71498  -1.642   9.408   7.082  0.4811 -1.3989  0.3403
  542MOL0     H71499  -1.603   9.266   7.173  0.3505 -3.9494 -1.3467
  542MOL0     H71500  -1.789   9.244   6.925  1.8004 -0.6947 -0.3581
  542MOL0     H71501  -1.827   9.250   7.087 -0.8244  1.2244 -1.2482
  542MOL0     H71502  -1.665   9.026   6.948  3.7586  1.3952  2.4098
  542MOL0     H71503  -1.665   9.041   7.117  3.1386  1.4336 -1.0973
  542MOL0     H71504  -1.842   8.881   7.014  0.3891  1.0791 -0.4444
  542MOL0     H71505  -1.920   9.033   6.953 -0.9064  1.5149  0.6740
  542MOL0     H71506  -2.058   9.041   7.372 -0.7345  1.2060  1.9931
  542MOL0     H71507  -2.276   8.939   7.423  1.0152  0.3273  0.9039
  542MOL0     H71508  -2.517   8.432   7.113 -1.5459 -1.0668 -2.3817
  542MOL0     H71509  -2.706   8.324   7.166 -0.3721  1.0608 -3.5346
  542MOL0     H71510  -3.107   8.524   7.197  1.3732  0.0781 -0.5903
  542MOL0     H71511  -3.025   8.511   7.365  0.3370  0.3400 -0.1943
  542MOL0     H71512  -3.218   8.380   7.385  0.9232 -2.1532  1.5850
  542MOL0     H71513  -3.083   8.285   7.388 -1.0783  0.2179  1.5351
  542MOL0     H71514  -3.122   8.248   7.132 -1.1047 -2.2590  1.2192
  542MOL0     H71515  -3.259   8.372   7.151 -2.4161 -1.6396 -0.5479
  542MOL0     H71516  -3.235   8.097   7.281  3.2203  2.2386 -0.7291
  542MOL0     H71517  -3.376   8.211   7.283  1.7704 -0.0026  1.6985
  542MOL0     H71518  -3.267   8.096   7.016  0.3015 -2.6300  1.1940
  542MOL0     H71519  -3.398   8.203   7.041  4.1876  2.1655 -0.7665
  542MOL0     H71520  -3.384   7.898   7.106 -1.4160 -1.3661  0.9935
  542MOL0     H71521  -3.487   7.986   6.994  0.6808  1.0019 -0.1106
  542MOL0     H71522  -3.496   7.955   7.289 -0.3324 -0.0891  0.6565
  542MOL0     H71523  -3.578   8.102   7.218 -1.0028  0.3813 -3.2647
  542MOL0     H71524  -3.754   7.943   7.251 -0.6228 -1.0208 -0.0553
  542MOL0     H71525  -3.658   7.813   7.162  1.4996 -0.3596 -0.8888
  542MOL0     H71526  -2.928   8.683   7.243 -1.0840 -0.9537 -3.2364
  542MOL0     H71527  -2.718   8.809   7.225 -0.0923 -0.4466  2.1092
  542MOL0     H71528  -2.302   8.781   7.020  0.8157  0.4111 -0.1966
  542MOL0     H71529  -2.062   8.844   6.989  1.5104 -0.3817  0.8925
  542MOL0     H71530  -0.150   9.307   6.710 -1.0805 -0.7257  0.8644
  542MOL0     H71531   0.085   9.338   6.602  0.9680  0.2775 -1.1399
  542MOL0     H71532   0.392   9.026   6.309  1.5013 -1.1232 -2.4440
  542MOL0     H71533   0.597   9.025   6.240 -1.1650  0.9342 -1.3355
  542MOL0     H71534   0.922   9.216   6.092  0.9051 -0.4168  1.8944
  542MOL0     H71535   0.769   9.128   6.065 -1.9417  0.8990  1.4238
  542MOL0     H71536   0.955   9.127   6.307 -1.6927  0.9122 -0.7214
  542MOL0     H71537   0.807   9.030   6.311  0.8906 -3.1693  0.7076
  542MOL0     H71538   0.914   8.894   6.117 -3.4490  2.6639  0.1163
  542MOL0     H71539   0.991   8.881   6.275  2.5919  0.1128 -0.3976
  542MOL0     H71540   1.078   9.051   6.031  0.5915  2.5232  0.7190
  542MOL0     H71541   1.169   9.057   6.185  0.5826 -1.2835 -0.5314
  542MOL0     H71542   1.334   8.713   6.027  0.0602  0.7753 -1.8646
  542MOL0     H71543   0.606   9.465   6.242  0.4064 -0.3122 -0.4568
  542MOL0     H71544   0.365   9.454   6.293 -0.0051  0.0849 -1.1201
  543MOL0     O71545   6.692  10.998   5.655 -0.6446 -0.2329  0.0686
  543MOL0     C71546   6.727  11.099   5.599  0.5726 -0.8272  0.4904
  543MOL0     O71547   6.644  11.172   5.524  0.3810 -0.1514 -0.2492
  543MOL0     C71548   6.514  11.135   5.511  0.6160  0.0238  0.1339
  543MOL0     C71549   6.420  11.095   5.611 -1.5620  0.6814 -0.3813
  543MOL0     C71550   6.283  11.072   5.579  0.1672  0.3985  0.4119
  543MOL0     C71551   6.233  11.088   5.447 -0.1680 -0.0827  0.3156
  543MOL0     O71552   6.107  11.077   5.399  0.5189  0.0010 -0.2429
  543MOL0     C71553   6.016  10.981   5.466  0.0442 -0.3915  0.2347
  543MOL0     C71554   5.877  10.988   5.405  0.2955  0.3771  0.0156
  543MOL0     C71555   5.813  11.127   5.441  1.2248  1.6049  0.4980
  543MOL0     C71556   5.674  11.134   5.383  0.2951  0.3362 -0.4834
  543MOL0     C71557   5.618  11.275   5.401 -0.0923  0.1090  0.0616
  543MOL0     C71558   5.478  11.294   5.346 -0.7004  0.0048 -0.5116
  543MOL0     C71559   5.417  11.424   5.386 -0.0482  0.1426  0.5193
  543MOL0     C71560   5.297  11.476   5.293  0.5248  0.2987  0.1559
  543MOL0     N71561   5.193  11.380   5.270  0.5703  0.2718 -0.0156
  543MOL0     C71562   5.064  11.401   5.314  0.7661  0.1409 -0.5298
  543MOL0     C71563   4.994  11.287   5.278 -0.6735  0.3912  0.1070
  543MOL0     C71564   4.846  11.259   5.311  0.1368  0.0387  0.6225
  543MOL0     C71565   4.753  11.335   5.216  0.2704  0.9379 -0.4335
  543MOL0     C71566   4.604  11.342   5.246 -0.8199  0.1049 -0.0282
  543MOL0     C71567   4.569  11.402   5.393  0.1427  0.7211  0.7537
  543MOL0     O71568   4.427  11.436   5.404 -0.4984 -0.3906 -0.2588
  543MOL0     C71569   4.332  11.345   5.387  0.3447 -1.1994  0.3810
  543MOL0     C71570   4.343  11.208   5.396  0.5001 -0.4096 -1.0824
  543MOL0     C71571   4.234  11.122   5.380 -1.0959  0.4370  0.4304
  543MOL0     C71572   4.112  11.168   5.339 -0.0747  0.4986 -0.3420
  543MOL0     C71573   3.997  11.069   5.313  0.0681 -0.4163  0.0166
  543MOL0     O71574   3.894  11.117   5.244 -0.3736 -0.0140  0.7821
  543MOL0     C71575   3.787  11.039   5.212 -0.5034 -0.1570  0.1934
  543MOL0     C71576   3.781  11.011   5.078 -0.4504  0.0852  0.2819
  543MOL0     C71577   3.671  10.942   5.021 -0.5250 -0.5979 -1.0692
  543MOL0     C71578   3.575  10.887   5.111 -0.4328  0.2080 -0.0138
  543MOL0     O71579   3.473  10.814   5.054  0.1279  0.2109  0.1056
  543MOL0     C71580   3.349  10.778   5.130 -1.3359 -0.1107 -0.0202
  543MOL0     C71581   3.236  10.863   5.080  0.2879  0.0781 -0.6095
  543MOL0     C71582   3.211  10.848   4.931  0.2128  0.0942  0.7144
  543MOL0     C71583   3.077  10.914   4.899 -0.9608 -0.6471 -0.8414
  543MOL0     C71584   2.959  10.819   4.923  0.0595 -0.1145 -0.0916
  543MOL0     C71585   2.833  10.891   4.876  0.6839  0.2865  0.1063
  543MOL0     C71586   2.713  10.791   4.866 -0.0389  0.1626 -0.2087
  543MOL0     C71587   2.578  10.850   4.875  1.1297 -0.0028 -0.1213
  543MOL0    Cl71588   2.460  10.716   4.854  0.0448 -0.0285 -0.4246
  543MOL0     C71589   3.589  10.912   5.250  0.7488 -0.2817 -0.3917
  543MOL0     C71590   3.692  10.985   5.298  0.5076  0.9474 -0.7664
  543MOL0     O71591   4.007  10.952   5.359  0.0740 -0.3906 -0.4847
  543MOL0     C71592   4.102  11.305   5.319 -0.1464  0.6047 -0.5586
  543MOL0     C71593   4.206  11.396   5.349 -0.0257 -0.0346 -0.3410
  543MOL0     N71594   5.087  11.196   5.221 -0.3553 -0.1150 -0.1307
  543MOL0     N71595   5.205  11.253   5.209 -0.0684  0.1941 -1.5572
  543MOL0     C71596   6.327  11.126   5.354 -0.3991 -0.3277 -0.2070
  543MOL0     C71597   6.464  11.153   5.380  0.9944  0.4343 -1.0383
  543MOL0     C71598   6.872  11.138   5.594 -0.2483 -0.8857 -0.2651
  543MOL0     C71599   6.926  11.239   5.510  0.2509 -0.0476 -0.0529
  543MOL0     C71600   7.052  11.285   5.521 -0.8214  0.4739  0.4373
  543MOL0     C71601   7.146  11.215   5.591 -0.1000 -0.2371 -0.7600
  543MOL0     O71602   7.273  11.261   5.585  0.2851  0.8461 -0.0778
  543MOL0     C71603   7.381  11.180   5.634 -0.5729  0.0726  0.4426
  543MOL0     C71604   7.517  11.256   5.610  0.3404 -0.9313  0.2481
  543MOL0     C71605   7.568  11.236   5.460  0.5189 -0.0029  0.1181
  543MOL0     C71606   7.717  11.252   5.439 -0.0110 -0.2863  0.0590
  543MOL0     C71607   7.770  11.390   5.461 -1.0144 -0.1483  0.3769
  543MOL0     C71608   7.825  11.490   5.483 -0.8555 -1.2364  0.5585
  543MOL0     C71609   7.098  11.111   5.678 -0.0191 -0.5591  0.0630
  543MOL0     C71610   6.962  11.071   5.678  0.1153 -0.2367 -0.3482
  543MOL0     H71611   6.459  11.083   5.711 -0.5625  0.1438 -0.8226
  543MOL0     H71612   6.220  11.031   5.657  0.7662  0.9056  1.1725
  543MOL0     H71613   6.013  10.993   5.575 -0.8185  0.4887  0.1259
  543MOL0     H71614   6.056  10.879   5.455 -2.2811 -1.3228 -0.0482
  543MOL0     H71615   5.820  10.904   5.446  1.6626 -0.9725 -0.7818
  543MOL0     H71616   5.874  10.974   5.297  2.0603  0.7740 -0.1040
  543MOL0     H71617   5.873  11.205   5.393 -0.5223  0.7085 -3.4955
  543MOL0     H71618   5.803  11.144   5.549  0.1226 -2.1521  1.1521
  543MOL0     H71619   5.693  11.115   5.277  2.0819 -1.3280  0.0951
  543MOL0     H71620   5.617  11.048   5.418  0.9777 -0.0849 -0.4046
  543MOL0     H71621   5.692  11.342   5.358  1.8837 -2.4751 -0.8356
  543MOL0     H71622   5.614  11.301   5.507 -1.0350 -0.0812  0.0853
  543MOL0     H71623   5.416  11.207   5.365 -0.2741  0.0455  1.1520
  543MOL0     H71624   5.495  11.303   5.238  0.1874  0.1656 -0.3668
  543MOL0     H71625   5.388  11.409   5.490 -2.2502  1.3436  0.1616
  543MOL0     H71626   5.489  11.506   5.378 -0.5048  0.6584  1.5337
  543MOL0     H71627   5.347  11.510   5.202 -0.5853 -1.0917 -1.0291
  543MOL0     H71628   5.247  11.566   5.330  0.6869  1.5557 -2.4710
  543MOL0     H71629   5.029  11.495   5.357  1.6377  0.4853 -0.5518
  543MOL0     H71630   4.829  11.302   5.410 -0.6333  0.2743  0.3973
  543MOL0     H71631   4.828  11.151   5.317  1.5240 -0.1706  1.2855
  543MOL0     H71632   4.758  11.293   5.115  2.3380  2.6836 -1.1425
  543MOL0     H71633   4.788  11.439   5.226  0.2620  0.7571  2.0850
  543MOL0     H71634   4.550  11.398   5.169 -1.3268 -1.2991 -0.7343
  543MOL0     H71635   4.566  11.241   5.261  0.7785 -0.2851  1.8701
  543MOL0     H71636   4.624  11.496   5.407  0.4269  1.1045 -2.2314
  543MOL0     H71637   4.596  11.331   5.471 -2.7838  1.7868  2.9296
  543MOL0     H71638   4.441  11.164   5.412  0.9711  0.9330 -0.0821
  543MOL0     H71639   4.241  11.016   5.401 -1.2445  0.5307  0.9701
  543MOL0     H71640   3.863  11.050   5.018  0.7601 -0.5490  1.4404
  543MOL0     H71641   3.652  10.934   4.915  0.3717 -1.4739 -1.1837
  543MOL0     H71642   3.363  10.781   5.238  0.2281 -1.2880 -0.1502
  543MOL0     H71643   3.318  10.675   5.108  2.2786 -1.1656 -0.8931
  543MOL0     H71644   3.249  10.968   5.108 -2.9905  0.0403  1.6505
  543MOL0     H71645   3.146  10.834   5.136 -0.3019  2.4967 -0.1467
  543MOL0     H71646   3.203  10.747   4.890 -0.5223  0.6560 -0.5873
  543MOL0     H71647   3.281  10.913   4.876 -0.4882  3.0457  3.0431
  543MOL0     H71648   3.071  11.004   4.961  1.0345 -0.8351 -0.2972
  543MOL0     H71649   3.081  10.952   4.797  2.3785  2.8612  0.3836
  543MOL0     H71650   2.960  10.795   5.029 -0.5597 -0.7519 -0.2219
  543MOL0     H71651   2.974  10.727   4.865  1.6437 -0.0549  0.1818
  543MOL0     H71652   2.853  10.944   4.783 -1.9125  1.1018 -0.0685
  543MOL0     H71653   2.813  10.972   4.946  1.8169 -0.2775  1.1157
  543MOL0     H71654   2.725  10.743   4.768 -1.7196  1.3992 -1.0916
  543MOL0     H71655   2.717  10.715   4.943 -1.3716  1.6346  1.4066
  543MOL0     H71656   2.560  10.935   4.808 -0.2463 -0.9025 -0.9434
  543MOL0     H71657   2.566  10.884   4.979 -2.9072 -1.9805  0.2613
  543MOL0     H71658   3.517  10.882   5.325  2.1001  3.0720  2.5701
  543MOL0     H71659   3.693  11.018   5.402 -1.0647  2.5600 -1.2000
  543MOL0     H71660   4.008  11.344   5.280 -1.1867 -3.0765 -2.1411
  543MOL0     H71661   4.188  11.502   5.334 -0.6910  0.0095  0.6780
  543MOL0     H71662   6.290  11.135   5.253 -0.0049 -2.8113 -0.6585
  543MOL0     H71663   6.523  11.188   5.297 -0.4047 -0.4141 -2.4416
  543MOL0     H71664   6.854  11.283   5.442  1.8417  1.1213 -1.0444
  543MOL0     H71665   7.087  11.366   5.457 -1.7619 -0.4882 -1.3781
  543MOL0     H71666   7.372  11.085   5.580 -0.0678  1.4213 -2.1743
  543MOL0     H71667   7.359  11.176   5.741 -1.1750 -0.2541  0.3079
  543MOL0     H71668   7.505  11.364   5.625  1.9479 -0.5231 -1.1280
  543MOL0     H71669   7.595  11.226   5.681  0.9175  2.1315  1.0524
  543MOL0     H71670   7.515  11.305   5.394 -0.2035 -0.1489  0.5318
  543MOL0     H71671   7.529  11.143   5.417 -2.6817  1.9735 -1.6846
  543MOL0     H71672   7.783  11.187   5.497  2.0098 -0.9582 -2.7640
  543MOL0     H71673   7.745  11.233   5.335  0.0700  0.5670 -0.0857
  543MOL0     H71674   7.881  11.577   5.513 -2.9485  1.5704 -2.8344
  543MOL0     H71675   7.166  11.062   5.746  1.4249  0.9297 -0.2485
  543MOL0     H71676   6.931  11.008   5.761  1.6335  1.1463  1.3603
  544MOL0     O71677   9.505   0.706   6.102  0.0305  0.2156 -0.4714
  544MOL0     C71678   9.595   0.785   6.132  0.1926  0.5581  0.2446
  544MOL0     O71679   9.584   0.872   6.242 -0.1974  0.5385 -0.3647
  544MOL0     C71680   9.480   0.850   6.329 -0.2048 -0.4801 -0.1250
  544MOL0     C71681   9.387   0.949   6.344 -0.4770 -0.1045  0.0935
  544MOL0     C71682   9.286   0.931   6.439  0.8025 -0.1865 -0.2209
  544MOL0     C71683   9.283   0.820   6.522  0.3541  0.1947 -0.3161
  544MOL0     O71684   9.184   0.796   6.616 -0.4892 -0.4682  0.5728
  544MOL0     C71685   9.066   0.875   6.608  0.1202  0.3033  0.0750
  544MOL0     C71686   9.073   0.980   6.720  0.7543  0.1463 -0.3404
  544MOL0     C71687   9.123   0.924   6.851  0.4355 -0.5165 -0.2800
  544MOL0     C71688   9.081   1.026   6.966 -0.7305 -0.3830  0.0012
  544MOL0     C71689   9.134   1.166   6.942 -0.2151 -0.0739 -0.0729
  544MOL0     C71690   9.292   1.166   6.961 -0.2711 -0.2045 -0.1584
  544MOL0     C71691   9.350   1.303   6.913  0.5445 -0.2082 -0.0214
  544MOL0     C71692   9.371   1.309   6.765 -1.0962 -0.4764  0.3190
  544MOL0     N71693   9.491   1.229   6.739 -0.4619 -0.0538  0.3902
  544MOL0     C71694   9.492   1.090   6.717 -1.1338  0.6831  0.2621
  544MOL0     C71695   9.621   1.055   6.716 -0.4486  0.5829  0.8252
  544MOL0     C71696   9.675   0.917   6.699  0.1224 -0.2268  0.0061
  544MOL0     C71697   9.790   0.901   6.591  0.7011 -0.5661  0.3446
  544MOL0     C71698   9.807   0.750   6.559  0.1623 -0.0718  0.0609
  544MOL0     C71699   9.907   0.732   6.441 -0.0624 -1.3896 -0.7134
  544MOL0     O71700  10.037   0.744   6.494 -0.5335  0.1342  0.0629
  544MOL0     C71701  10.148   0.741   6.411  0.5105  0.2626 -0.4372
  544MOL0     C71702  10.132   0.741   6.274 -0.3270  0.0731  0.2323
  544MOL0     C71703  10.246   0.739   6.185  0.2790  0.1061  0.1625
  544MOL0     C71704  10.374   0.722   6.240 -0.2667  0.0742  0.2969
  544MOL0     C71705  10.486   0.709   6.144 -0.2443 -0.1357 -0.5639
  544MOL0     O71706  10.602   0.645   6.193 -0.2536 -0.1746  0.4278
  544MOL0     C71707  10.722   0.652   6.118  0.7085  0.1613 -0.2108
  544MOL0     C71708  10.810   0.760   6.128  0.4361 -0.0863 -0.1135
  544MOL0     C71709  10.929   0.773   6.056 -0.1550 -0.5156  0.1077
  544MOL0     C71710  10.964   0.676   5.961  0.0130 -0.3094 -0.6222
  544MOL0     O71711  11.088   0.692   5.890 -0.2127  0.8348  0.3834
  544MOL0     C71712  11.141   0.584   5.815  0.2315 -0.0455 -0.5860
  544MOL0     C71713  11.271   0.634   5.752  0.2696  0.1261 -0.3902
  544MOL0     C71714  11.361   0.669   5.872 -1.0593 -0.1796  0.7901
  544MOL0     C71715  11.493   0.695   5.803 -0.0042 -0.0873  0.0993
  544MOL0     C71716  11.603   0.725   5.906  0.3162  0.1556 -0.7742
  544MOL0     C71717  11.742   0.728   5.838  0.2010  0.5831 -0.0815
  544MOL0     C71718  11.846   0.723   5.946  0.7506  0.7558 -0.0347
  544MOL0     C71719  11.979   0.785   5.908 -0.4476 -0.3127  0.9699
  544MOL0    Cl71720  12.044   0.696   5.769  0.1402 -0.1661 -0.0380
  544MOL0     C71721  10.890   0.553   5.966 -0.1914 -0.0579 -0.3227
  544MOL0     C71722  10.769   0.543   6.045  0.7795 -0.1319 -0.5804
  544MOL0     O71723  10.472   0.749   6.032 -0.4200  0.1879 -0.3459
  544MOL0     C71724  10.390   0.716   6.379  0.0803 -0.1567  0.5423
  544MOL0     C71725  10.275   0.737   6.460  0.0353 -0.7633  0.6299
  544MOL0     N71726   9.696   1.172   6.728  0.1438 -0.2344 -0.4315
  544MOL0     N71727   9.622   1.275   6.731  0.1371  0.4680  0.4598
  544MOL0     C71728   9.374   0.716   6.501 -0.7676 -1.0299  0.1578
  544MOL0     C71729   9.472   0.732   6.406 -0.0569  0.0289  0.9353
  544MOL0     C71730   9.719   0.795   6.054  0.4875 -0.4376  0.0213
  544MOL0     C71731   9.762   0.711   5.956  0.9161  0.5118  0.7570
  544MOL0     C71732   9.875   0.723   5.880 -0.1082  0.0318  0.9016
  544MOL0     C71733   9.960   0.837   5.900 -0.3049 -0.1338 -0.4376
  544MOL0     O71734  10.091   0.857   5.855  0.4177 -0.4854 -1.0382
  544MOL0     C71735  10.135   0.796   5.736  0.1648 -0.3670  0.4892
  544MOL0     C71736  10.284   0.834   5.713 -0.2103 -0.6695 -0.3791
  544MOL0     C71737  10.330   0.805   5.573  0.7034 -0.1079 -0.2471
  544MOL0     C71738  10.456   0.889   5.541 -0.5099 -0.4425 -0.0088
  544MOL0     C71739  10.438   1.043   5.530  0.1562  0.9092  0.2106
  544MOL0     C71740  10.407   1.163   5.526 -0.4084 -0.9257  0.3192
  544MOL0     C71741   9.924   0.925   6.007 -0.2589  0.2738 -0.3080
  544MOL0     C71742   9.803   0.898   6.077  0.4203 -0.0971  0.4531
  544MOL0     H71743   9.378   1.037   6.281 -2.8551 -1.4658 -1.6325
  544MOL0     H71744   9.213   1.011   6.447  0.8719 -0.2617  1.6920
  544MOL0     H71745   8.983   0.806   6.625 -0.8333  0.5268 -3.0411
  544MOL0     H71746   9.046   0.931   6.516 -0.2121  1.2016  0.6728
  544MOL0     H71747   8.982   1.040   6.727  1.5832  1.2865  1.3478
  544MOL0     H71748   9.149   1.051   6.685 -1.8752  2.6476 -1.4540
  544MOL0     H71749   9.231   0.903   6.845  0.1296 -1.9724 -1.4622
  544MOL0     H71750   9.072   0.829   6.871  2.1672 -1.8088 -1.5904
  544MOL0     H71751   8.972   1.028   6.969 -0.7680 -0.9003 -0.5523
  544MOL0     H71752   9.131   0.999   7.059  0.2468 -3.2592 -1.2162
  544MOL0     H71753   9.094   1.217   7.030  1.2667  1.4954 -0.2585
  544MOL0     H71754   9.096   1.210   6.850  0.1585 -1.2843 -0.8324
  544MOL0     H71755   9.338   1.079   6.913  0.5206 -1.6974  2.9850
  544MOL0     H71756   9.317   1.147   7.066  0.0454 -0.2401 -0.2385
  544MOL0     H71757   9.279   1.382   6.940  0.4700 -0.7180  1.3778
  544MOL0     H71758   9.439   1.332   6.968 -0.4190  0.6701  1.1162
  544MOL0     H71759   9.391   1.409   6.727 -1.1728 -1.3778 -2.3657
  544MOL0     H71760   9.287   1.263   6.712 -1.0336 -0.7762  0.4790
  544MOL0     H71761   9.408   1.026   6.695 -3.0663  1.4653  4.4364
  544MOL0     H71762   9.585   0.856   6.690 -0.8736  1.0003  1.0762
  544MOL0     H71763   9.720   0.886   6.794  0.7150  0.6500  0.0174
  544MOL0     H71764   9.882   0.936   6.640  1.0173 -1.5934  0.5156
  544MOL0     H71765   9.775   0.961   6.501  0.9637  1.1584  1.4036
  544MOL0     H71766   9.833   0.700   6.653 -0.7786 -0.0109  0.3622
  544MOL0     H71767   9.710   0.704   6.537  0.7563 -2.4996  2.0505
  544MOL0     H71768   9.887   0.811   6.367 -1.2667  0.3823  1.3821
  544MOL0     H71769   9.905   0.634   6.392 -0.3883 -0.3755 -2.8648
  544MOL0     H71770  10.038   0.763   6.225 -0.5284 -0.7290  0.2543
  544MOL0     H71771  10.239   0.760   6.078  1.2012 -0.2751  0.0169
  544MOL0     H71772  10.774   0.847   6.182 -0.0382 -0.0996 -0.3979
  544MOL0     H71773  10.984   0.866   6.063  1.2662 -1.2480 -0.7600
  544MOL0     H71774  11.068   0.553   5.740  1.1717 -1.8987 -0.7959
  544MOL0     H71775  11.160   0.499   5.882  0.9638  0.3369 -0.2909
  544MOL0     H71776  11.251   0.715   5.681  0.0041  0.8364  0.4801
  544MOL0     H71777  11.312   0.548   5.698  0.3486 -0.4306  0.5438
  544MOL0     H71778  11.383   0.587   5.940 -0.1980  0.1079  0.8656
  544MOL0     H71779  11.324   0.756   5.929 -1.4739 -0.3962  0.8574
  544MOL0     H71780  11.518   0.604   5.749  1.5711  0.6134 -0.3993
  544MOL0     H71781  11.491   0.778   5.731  3.3541  0.2474  0.2276
  544MOL0     H71782  11.602   0.644   5.979 -0.2229 -1.6212 -2.6301
  544MOL0     H71783  11.580   0.826   5.939 -0.9443  1.0750 -3.9974
  544MOL0     H71784  11.755   0.818   5.776 -0.9240  1.3523  0.7548
  544MOL0     H71785  11.751   0.647   5.766 -0.4426 -0.2001  0.6937
  544MOL0     H71786  11.807   0.778   6.033 -1.5498 -2.2656  1.0317
  544MOL0     H71787  11.865   0.621   5.980  0.3873 -0.1646 -2.4684
  544MOL0     H71788  12.053   0.781   5.988  0.1866 -1.0149  0.3683
  544MOL0     H71789  11.955   0.888   5.881 -0.5069 -0.5473  0.0833
  544MOL0     H71790  10.928   0.462   5.921 -0.6063  0.2063 -1.2395
  544MOL0     H71791  10.711   0.451   6.047  0.0287  0.3425  0.8873
  544MOL0     H71792  10.488   0.718   6.425 -0.6602 -1.5658  2.3036
  544MOL0     H71793  10.300   0.744   6.565  0.6990 -0.8743  0.4847
  544MOL0     H71794   9.373   0.625   6.560  1.0509 -2.8905 -2.4121
  544MOL0     H71795   9.541   0.652   6.381  1.1139  1.8027 -1.8801
  544MOL0     H71796   9.701   0.622   5.942 -2.4045  2.5789  0.8155
  544MOL0     H71797   9.895   0.642   5.811 -0.3894 -1.3958  2.4117
  544MOL0     H71798  10.059   0.822   5.661 -2.3619  0.3235  3.0686
  544MOL0     H71799  10.131   0.687   5.741  0.0681 -0.3798  0.1412
  544MOL0     H71800  10.280   0.940   5.738 -0.7775 -0.5674 -0.8763
  544MOL0     H71801  10.345   0.785   5.789 -0.6642 -0.6518  0.0055
  544MOL0     H71802  10.255   0.835   5.500 -0.7063 -0.2287  1.1141
  544MOL0     H71803  10.353   0.698   5.565  0.4624 -0.4708  2.7610
  544MOL0     H71804  10.522   0.871   5.627  0.6395 -1.4186 -1.0542
  544MOL0     H71805  10.506   0.862   5.447  2.1136  0.8941  0.9059
  544MOL0     H71806  10.377   1.266   5.536 -1.1649 -1.0436 -0.6374
  544MOL0     H71807   9.986   1.010   6.033  0.3123 -0.6663  1.6023
  544MOL0     H71808   9.778   0.965   6.158 -1.8587  0.2356 -0.4364
  545MOL0     O71809   9.868  10.563   4.883 -0.9047 -0.4721  0.5240
  545MOL0     C71810   9.896  10.624   4.778 -0.2150  0.2891  0.2204
  545MOL0     O71811   9.813  10.705   4.709 -0.4494 -0.1584 -0.3058
  545MOL0     C71812   9.688  10.700   4.749  0.3356  0.3117  0.0222
  545MOL0     C71813   9.612  10.588   4.768  0.4806 -1.0042  0.4048
  545MOL0     C71814   9.475  10.598   4.784 -0.1571  0.3048 -0.5172
  545MOL0     C71815   9.412  10.728   4.778  0.4007  0.1840 -0.7282
  545MOL0     O71816   9.273  10.745   4.800 -0.3565  0.4212  0.1063
  545MOL0     C71817   9.197  10.625   4.809  0.6989  0.5944  0.1989
  545MOL0     C71818   9.046  10.662   4.819 -0.3079  0.5723  0.0845
  545MOL0     C71819   8.956  10.535   4.829  0.3056 -0.0478 -0.5211
  545MOL0     C71820   8.811  10.554   4.779  0.4522  0.3519 -0.0043
  545MOL0     C71821   8.719  10.433   4.802  0.9147  0.3422  0.1019
  545MOL0     C71822   8.566  10.466   4.772  0.0771  0.3069  0.8593
  545MOL0     C71823   8.463  10.347   4.771 -0.6382  0.1523  0.1587
  545MOL0     C71824   8.330  10.400   4.733 -0.0804 -0.5368 -0.8469
  545MOL0     N71825   8.229  10.288   4.740  0.2030 -0.4510 -0.0434
  545MOL0     C71826   8.182  10.215   4.843  0.3451  0.2352  0.7394
  545MOL0     C71827   8.082  10.131   4.793 -0.0075  1.3578 -0.6430
  545MOL0     C71828   8.015  10.011   4.866 -0.1462  0.5648  0.1023
  545MOL0     C71829   7.861  10.030   4.871  0.3867 -0.9559 -0.1258
  545MOL0     C71830   7.788   9.907   4.926 -0.3935  0.7935 -0.2318
  545MOL0     C71831   7.641   9.903   4.891 -1.4385  0.2523 -0.0946
  545MOL0     O71832   7.584   9.790   4.970 -0.3718 -0.2217  0.2148
  545MOL0     C71833   7.455   9.748   4.941 -0.1284  0.6204 -0.4190
  545MOL0     C71834   7.416   9.627   4.995  0.0956  0.3255 -0.2072
  545MOL0     C71835   7.292   9.575   4.974 -0.0802 -0.1023  0.0937
  545MOL0     C71836   7.193   9.644   4.897 -0.0274 -0.2814  0.4247
  545MOL0     C71837   7.064   9.589   4.877 -0.4379 -0.6930  0.7637
  545MOL0     O71838   6.979   9.653   4.801 -0.4645  0.7204  0.2328
  545MOL0     C71839   6.867   9.585   4.775 -0.2082 -0.2648 -1.0763
  545MOL0     C71840   6.866   9.489   4.674  0.4735 -0.9013  0.2494
  545MOL0     C71841   6.746   9.430   4.640  0.0140  0.1722  0.4536
  545MOL0     C71842   6.630   9.462   4.707  0.4336 -0.3115 -0.2899
  545MOL0     O71843   6.521   9.393   4.654  0.0628 -0.2236  0.3376
  545MOL0     C71844   6.399   9.386   4.730 -0.0582  1.0214 -1.0974
  545MOL0     C71845   6.297   9.313   4.652 -0.6802  0.1912  0.1215
  545MOL0     C71846   6.158   9.295   4.717  0.4265  0.0206  0.1114
  545MOL0     C71847   6.059   9.237   4.620  0.5879  0.7744 -0.2512
  545MOL0     C71848   5.923   9.199   4.689 -0.2960 -0.0829  0.5959
  545MOL0     C71849   5.926   9.070   4.770 -0.3676  0.1318  0.3597
  545MOL0     C71850   5.809   9.055   4.865 -0.1248  0.1411 -0.6049
  545MOL0     C71851   5.810   8.908   4.932  0.5417 -0.5485 -0.1965
  545MOL0    Cl71852   5.652   8.892   5.016 -0.3464 -0.0302 -0.4054
  545MOL0     C71853   6.633   9.563   4.810 -0.6152  0.4807  0.5920
  545MOL0     C71854   6.750   9.629   4.835  0.0442  0.0578 -0.1341
  545MOL0     O71855   7.046   9.470   4.915 -1.0173 -0.1027  0.0565
  545MOL0     C71856   7.226   9.766   4.845 -0.7222  1.0662 -0.0004
  545MOL0     C71857   7.356   9.818   4.868  0.0681  0.0681  0.1754
  545MOL0     N71858   8.084  10.148   4.663  0.6109  0.5734 -0.1142
  545MOL0     N71859   8.158  10.243   4.633  0.1733  0.0027  0.0693
  545MOL0     C71860   9.485  10.837   4.765  0.7689 -0.5004 -0.1808
  545MOL0     C71861   9.622  10.823   4.755  0.2085 -0.6809 -0.2993
  545MOL0     C71862  10.026  10.594   4.715 -0.6075  1.1889  0.5932
  545MOL0     C71863  10.117  10.500   4.770  0.3400  0.3172  0.0575
  545MOL0     C71864  10.238  10.467   4.713 -0.5742 -0.8097  0.5077
  545MOL0     C71865  10.282  10.547   4.609 -0.5351  0.8595  0.2500
  545MOL0     O71866  10.407  10.510   4.550  0.3258  0.1729 -0.2553
  545MOL0     C71867  10.465  10.592   4.446 -0.1612 -0.5321  0.3423
  545MOL0     C71868  10.616  10.550   4.442 -0.7466 -1.0022 -0.3165
  545MOL0     C71869  10.705  10.606   4.561  0.8089 -0.2936 -0.4461
  545MOL0     C71870  10.853  10.563   4.550 -0.7574 -0.2743  0.5114
  545MOL0     C71871  10.880  10.424   4.595 -0.0767 -0.7001  0.1268
  545MOL0     C71872  10.902  10.305   4.615  0.5562  0.1748  0.5180
  545MOL0     C71873  10.196  10.639   4.542  0.4502  0.5974 -0.2810
  545MOL0     C71874  10.072  10.664   4.599  0.4017 -0.2914 -0.2441
  545MOL0     H71875   9.663  10.493   4.767  1.7575 -0.3374 -0.6296
  545MOL0     H71876   9.415  10.508   4.797 -2.6636  1.9085 -0.2253
  545MOL0     H71877   9.218  10.570   4.901 -2.8353 -0.5603  0.4960
  545MOL0     H71878   9.219  10.565   4.720 -0.7671 -2.7159  1.8637
  545MOL0     H71879   9.011  10.724   4.736 -0.7444 -1.1798 -1.0946
  545MOL0     H71880   9.034  10.725   4.908  1.5777 -1.2633  1.7380
  545MOL0     H71881   8.958  10.511   4.936 -0.4443  1.3007 -0.1751
  545MOL0     H71882   8.998  10.448   4.779 -1.1903  0.9330 -3.7516
  545MOL0     H71883   8.764  10.643   4.819  0.5225  0.5829 -0.4267
  545MOL0     H71884   8.812  10.576   4.672 -0.0252 -0.0588 -0.0974
  545MOL0     H71885   8.734  10.390   4.901 -0.8449 -1.0190 -0.1760
  545MOL0     H71886   8.743  10.358   4.726 -3.9392  0.0738 -1.5096
  545MOL0     H71887   8.560  10.517   4.676  1.7493  0.2325  0.6779
  545MOL0     H71888   8.535  10.540   4.846  1.9549  1.2946  0.7420
  545MOL0     H71889   8.489  10.272   4.696 -1.6192 -0.3683  0.3259
  545MOL0     H71890   8.471  10.296   4.867  1.5239 -1.3690 -0.7383
  545MOL0     H71891   8.341  10.438   4.631  0.7239 -1.8827 -1.2783
  545MOL0     H71892   8.307  10.486   4.796  4.4734 -0.7340  1.4645
  545MOL0     H71893   8.233  10.215   4.939  3.7741  1.1479 -0.9194
  545MOL0     H71894   8.059  10.016   4.967  0.2299  0.4972 -0.0578
  545MOL0     H71895   8.043   9.918   4.815 -1.5740 -0.9823  1.9858
  545MOL0     H71896   7.835  10.046   4.765  0.8485  2.8839  0.1803
  545MOL0     H71897   7.828  10.125   4.914  2.0165 -0.5258  0.2565
  545MOL0     H71898   7.826   9.813   4.888 -3.8345 -1.1018  0.5762
  545MOL0     H71899   7.798   9.889   5.034  1.8178 -0.7991 -0.6458
  545MOL0     H71900   7.632   9.890   4.783  1.7419  3.3181 -0.9129
  545MOL0     H71901   7.603  10.001   4.921  0.0423 -0.0571  3.1502
  545MOL0     H71902   7.482   9.568   5.059 -1.0430 -0.1850  0.5272
  545MOL0     H71903   7.279   9.474   5.011  2.1292 -1.1078 -1.6246
  545MOL0     H71904   6.960   9.458   4.628  0.1883  0.2317 -1.1905
  545MOL0     H71905   6.737   9.356   4.561  3.8007 -0.0752  0.0984
  545MOL0     H71906   6.346   9.478   4.755 -0.0903  1.0055 -1.1069
  545MOL0     H71907   6.422   9.329   4.820  0.5757  2.5610 -0.2396
  545MOL0     H71908   6.330   9.220   4.604 -3.3076 -0.2194 -1.0501
  545MOL0     H71909   6.267   9.372   4.565 -2.1469  0.2903  0.6596
  545MOL0     H71910   6.122   9.393   4.749  0.5523  0.0052  0.3011
  545MOL0     H71911   6.153   9.236   4.808  1.5686 -0.4828 -0.1341
  545MOL0     H71912   6.042   9.313   4.542 -1.0185 -0.4926 -1.2134
  545MOL0     H71913   6.101   9.150   4.569  3.1817 -0.7380  4.0180
  545MOL0     H71914   5.840   9.192   4.618 -0.3268  0.2026  0.6029
  545MOL0     H71915   5.906   9.281   4.759  1.5593  2.7336 -2.0043
  545MOL0     H71916   6.021   9.065   4.824  0.4079 -1.7240 -1.0515
  545MOL0     H71917   5.926   8.980   4.707 -2.6968  0.0847  0.3514
  545MOL0     H71918   5.811   9.135   4.940 -0.5271  1.1897 -1.6795
  545MOL0     H71919   5.718   9.055   4.804  0.1376 -4.1659 -1.2472
  545MOL0     H71920   5.891   8.895   5.003 -0.2540  0.7875  1.0018
  545MOL0     H71921   5.823   8.838   4.848  1.9061  0.3801 -0.7821
  545MOL0     H71922   6.545   9.586   4.869  1.2625  1.7095  3.1071
  545MOL0     H71923   6.757   9.711   4.906  1.9254  0.4089 -0.6570
  545MOL0     H71924   7.152   9.824   4.792  0.2882  3.2298  0.8619
  545MOL0     H71925   7.377   9.917   4.830  0.0736 -0.0491 -0.1273
  545MOL0     H71926   9.427  10.929   4.771  0.0144 -1.0096  0.6443
  545MOL0     H71927   9.688  10.908   4.745 -3.1503  2.0151 -1.2723
  545MOL0     H71928  10.089  10.447   4.860 -0.0275 -1.6100 -1.1178
  545MOL0     H71929  10.296  10.384   4.752  1.1643  0.6644  1.1814
  545MOL0     H71930  10.460  10.697   4.477 -0.0983 -0.0971 -1.0169
  545MOL0     H71931  10.421  10.579   4.347 -1.6201  4.0534  0.1359
  545MOL0     H71932  10.624  10.442   4.451  1.9727 -0.7698  0.8015
  545MOL0     H71933  10.664  10.584   4.350 -0.6213  1.5262  0.5987
  545MOL0     H71934  10.660  10.579   4.657 -0.4829  0.1916 -0.8904
  545MOL0     H71935  10.718  10.714   4.557  2.0549 -0.4000  0.3231
  545MOL0     H71936  10.902  10.585   4.454  0.1420  1.2674  1.2743
  545MOL0     H71937  10.903  10.620   4.629  1.1378 -1.8928  0.5525
  545MOL0     H71938  10.914  10.201   4.636  0.7584 -0.0580 -0.6785
  545MOL0     H71939  10.224  10.688   4.449  4.1833  0.1864  0.4655
  545MOL0     H71940  10.008  10.737   4.552  1.1247  1.0804  0.8435
  546MOL0     O71941   7.293   6.866   0.292 -0.3529  0.7281 -0.2652
  546MOL0     C71942   7.356   6.775   0.343 -0.0613 -0.1820 -0.5762
  546MOL0     O71943   7.308   6.686   0.436 -0.3406  0.8865  0.2118
  546MOL0     C71944   7.178   6.681   0.457  0.0449 -0.3184  0.4331
  546MOL0     C71945   7.137   6.665   0.593  0.2741  0.5468 -0.5055
  546MOL0     C71946   7.002   6.665   0.624 -0.1368  0.4097  0.4679
  546MOL0     C71947   6.904   6.673   0.526 -0.7230 -0.6272 -0.3172
  546MOL0     O71948   6.773   6.666   0.561  0.4705  0.1961  0.7022
  546MOL0     C71949   6.714   6.793   0.571  0.0946  0.0801 -0.1566
  546MOL0     C71950   6.579   6.795   0.658 -1.2052 -0.1759  0.1013
  546MOL0     C71951   6.459   6.705   0.621  0.0506  0.0403 -0.0886
  546MOL0     C71952   6.418   6.708   0.477  0.3404 -0.0517  0.3778
  546MOL0     C71953   6.281   6.660   0.451  0.2487 -0.9013  0.2038
  546MOL0     C71954   6.246   6.519   0.493 -0.4997 -0.0485  0.8436
  546MOL0     C71955   6.111   6.475   0.441  0.4800 -0.2275  0.4871
  546MOL0     C71956   6.117   6.426   0.292 -0.5397 -0.5164 -0.0976
  546MOL0     N71957   5.993   6.407   0.217  0.4059 -0.3254 -0.7920
  546MOL0     C71958   5.869   6.375   0.269 -0.3031  0.1922  0.3729
  546MOL0     C71959   5.786   6.382   0.163 -0.3198  1.0391  0.5284
  546MOL0     C71960   5.632   6.390   0.181  0.4625  0.6419  0.3411
  546MOL0     C71961   5.594   6.484   0.300 -0.2419 -0.0585  0.2644
  546MOL0     C71962   5.626   6.630   0.287 -0.5439 -0.1125  0.2713
  546MOL0     C71963   5.552   6.714   0.190 -0.1040  0.2197 -0.5775
  546MOL0     O71964   5.419   6.742   0.238 -0.5708  0.0344  0.0939
  546MOL0     C71965   5.321   6.794   0.158 -0.3630  0.2058  0.2942
  546MOL0     C71966   5.337   6.815   0.016 -0.5275 -0.4135 -0.9442
  546MOL0     C71967   5.227   6.877  -0.044  1.0623 -0.0176 -0.2708
  546MOL0     C71968   5.103   6.904   0.018 -0.3470 -0.4649  0.5523
  546MOL0     C71969   4.990   6.964  -0.074 -0.5249  0.8161 -0.0819
  546MOL0     O71970   5.012   6.962  -0.205  0.2749 -0.7337 -0.4209
  546MOL0     C71971   4.914   7.013  -0.294 -0.9589 -0.4116 -0.2897
  546MOL0     C71972   4.955   7.095  -0.404 -0.6244  0.7266  0.9891
  546MOL0     C71973   4.872   7.150  -0.497  0.9162 -1.0394 -0.0899
  546MOL0     C71974   4.742   7.105  -0.494  0.8548 -0.8406 -0.0923
  546MOL0     O71975   4.674   7.160  -0.598 -0.1079 -0.3950 -0.1925
  546MOL0     C71976   4.539   7.110  -0.630 -0.2095  0.4851  0.3625
  546MOL0     C71977   4.456   7.225  -0.677  0.3360 -0.1863 -0.1617
  546MOL0     C71978   4.312   7.195  -0.681  0.3496 -0.1953  0.3078
  546MOL0     C71979   4.234   7.322  -0.693  0.3965  0.1219  0.0380
  546MOL0     C71980   4.102   7.282  -0.768 -0.8560  0.1147  0.0786
  546MOL0     C71981   4.011   7.400  -0.755  0.7116 -0.7525  0.4637
  546MOL0     C71982   3.883   7.376  -0.832  0.3311  0.7869  0.7160
  546MOL0     C71983   3.798   7.496  -0.850 -0.2743  0.4580  0.8232
  546MOL0    Cl71984   3.761   7.567  -0.693  0.3216 -0.0947  0.3110
  546MOL0     C71985   4.691   7.023  -0.391  0.5757  0.3220  0.3941
  546MOL0     C71986   4.785   6.977  -0.294  0.2918 -0.0892 -0.0992
  546MOL0     O71987   4.894   7.005  -0.018  0.1839 -0.5186 -0.6309
  546MOL0     C71988   5.082   6.876   0.153  0.1594  0.4341 -0.1315
  546MOL0     C71989   5.194   6.824   0.214  0.1302  0.9106 -0.4492
  546MOL0     N71990   5.868   6.426   0.058 -0.2477 -0.0465  0.5559
  546MOL0     N71991   5.989   6.425   0.086  0.8122  0.4844  0.7761
  546MOL0     C71992   6.945   6.694   0.390  0.6864  0.3258 -0.1775
  546MOL0     C71993   7.080   6.698   0.357  0.0098  0.4367 -0.4482
  546MOL0     C71994   7.499   6.768   0.310  0.2186 -0.7546  0.1024
  546MOL0     C71995   7.588   6.715   0.407  1.0564  0.4539  0.2243
  546MOL0     C71996   7.726   6.712   0.381  0.2032  0.0430 -0.1697
  546MOL0     C71997   7.786   6.756   0.261  0.2483 -0.6100  0.0350
  546MOL0     O71998   7.924   6.764   0.253 -0.2867  0.4004  0.0077
  546MOL0     C71999   7.984   6.817   0.135  0.5145  0.5074  0.2071
  546MOL0     C72000   8.128   6.755   0.137 -0.3369  0.4984  0.3602
  546MOL0     C72001   8.203   6.800   0.013  1.4216 -0.3948  0.1094
  546MOL0     C72002   8.350   6.793   0.020  0.8826  0.6202  0.3334
  546MOL0     C72003   8.400   6.658   0.016 -0.8993 -0.1316 -0.5541
  546MOL0     C72004   8.456   6.547   0.010 -0.7292 -0.2178  0.0634
  546MOL0     C72005   7.692   6.797   0.167 -0.4326 -0.3718 -0.8465
  546MOL0     C72006   7.550   6.809   0.190 -0.5523 -0.5275 -0.2839
  546MOL0     H72007   7.221   6.671   0.662 -0.5765  2.0291  0.4513
  546MOL0     H72008   6.968   6.638   0.724 -4.3546 -0.5804 -1.0104
  546MOL0     H72009   6.690   6.827   0.470 -2.6488  0.7566  0.6261
  546MOL0     H72010   6.789   6.868   0.596 -1.0326  1.2855 -0.2762
  546MOL0     H72011   6.541   6.898   0.666 -2.7924 -0.8047  1.0501
  546MOL0     H72012   6.608   6.775   0.761 -1.0485  1.4598  0.4104
  546MOL0     H72013   6.376   6.734   0.686  0.8258  1.1251  0.4531
  546MOL0     H72014   6.471   6.599   0.645  0.2815 -0.1442 -0.9780
  546MOL0     H72015   6.418   6.811   0.440  0.0201 -0.5519 -1.0507
  546MOL0     H72016   6.477   6.646   0.409 -2.0385 -0.0991 -1.7805
  546MOL0     H72017   6.272   6.674   0.342  1.9225 -0.6440  0.0637
  546MOL0     H72018   6.210   6.729   0.497  1.7935  1.1257 -0.2873
  546MOL0     H72019   6.249   6.521   0.602  1.4056  3.0252  0.8708
  546MOL0     H72020   6.320   6.445   0.461 -1.3501 -1.5393  2.1977
  546MOL0     H72021   6.066   6.396   0.503 -0.6239 -0.4316 -0.5210
  546MOL0     H72022   6.041   6.559   0.449  3.4574  2.4201  0.3053
  546MOL0     H72023   6.158   6.324   0.292 -0.1148 -0.3641 -1.3966
  546MOL0     H72024   6.196   6.484   0.243  0.7680 -0.8668  1.5209
  546MOL0     H72025   5.839   6.342   0.369 -1.9764 -2.3266 -0.8402
  546MOL0     H72026   5.586   6.292   0.192  0.9576  0.2618 -0.8301
  546MOL0     H72027   5.592   6.434   0.089 -1.0494  3.7309  2.3077
  546MOL0     H72028   5.645   6.448   0.390 -2.7436 -1.4906  1.2303
  546MOL0     H72029   5.487   6.466   0.315 -0.3452 -1.3227 -1.7110
  546MOL0     H72030   5.608   6.679   0.383  1.9153  1.1428  0.1604
  546MOL0     H72031   5.734   6.642   0.273 -0.6402  0.2671 -0.1981
  546MOL0     H72032   5.549   6.656   0.097  1.0761  1.8387 -1.6778
  546MOL0     H72033   5.614   6.804   0.186 -0.7320  0.6300 -1.4382
  546MOL0     H72034   5.430   6.792  -0.036  1.5857  2.4041  1.2288
  546MOL0     H72035   5.241   6.903  -0.149  0.1284 -1.2750 -0.7411
  546MOL0     H72036   5.057   7.124  -0.423 -0.6404  1.7039  2.2446
  546MOL0     H72037   4.918   7.209  -0.575  2.4587 -0.1876  1.4139
  546MOL0     H72038   4.491   7.058  -0.547 -0.3295  0.9401  0.5839
  546MOL0     H72039   4.551   7.044  -0.716  1.2770  1.0164  0.1318
  546MOL0     H72040   4.490   7.263  -0.774 -0.8388  1.7782  0.1504
  546MOL0     H72041   4.476   7.313  -0.615  1.3911 -0.6457  0.1833
  546MOL0     H72042   4.275   7.136  -0.596 -0.0450  0.9202  0.9261
  546MOL0     H72043   4.299   7.138  -0.773 -0.6822  0.1590  0.2298
  546MOL0     H72044   4.184   7.358  -0.603 -1.2062  1.1187 -1.2020
  546MOL0     H72045   4.287   7.405  -0.739 -0.2023  1.4865  1.7169
  546MOL0     H72046   4.061   7.186  -0.737  1.4076 -1.3235 -1.1072
  546MOL0     H72047   4.134   7.265  -0.872  0.9164 -2.3101  0.9299
  546MOL0     H72048   4.050   7.490  -0.802 -4.3009  1.6717  0.3256
  546MOL0     H72049   3.987   7.418  -0.650  1.3973 -0.2660  0.5445
  546MOL0     H72050   3.912   7.335  -0.929  3.1385 -2.3683  2.6415
  546MOL0     H72051   3.813   7.308  -0.783  0.8922  1.4546  2.5601
  546MOL0     H72052   3.705   7.477  -0.904 -1.2631  1.9620  1.9133
  546MOL0     H72053   3.848   7.565  -0.918  3.5613 -1.4062  1.4958
  546MOL0     H72054   4.589   6.985  -0.394  0.5939  0.3355 -0.8624
  546MOL0     H72055   4.748   6.912  -0.214  0.5897 -0.5300 -0.3137
  546MOL0     H72056   4.996   6.906   0.213  1.1859 -0.1076  1.6817
  546MOL0     H72057   5.191   6.805   0.321  1.5347 -0.7829 -0.6620
  546MOL0     H72058   6.873   6.704   0.310  0.0042 -0.7707  0.2726
  546MOL0     H72059   7.104   6.724   0.254  1.3487 -1.4050 -0.6445
  546MOL0     H72060   7.546   6.692   0.505  1.1994 -1.1946 -0.0741
  546MOL0     H72061   7.802   6.690   0.456  0.1412  4.4603  1.4619
  546MOL0     H72062   7.985   6.926   0.136  0.0719  0.5190 -0.2137
  546MOL0     H72063   7.934   6.781   0.045  1.3149 -1.0602  0.3445
  546MOL0     H72064   8.179   6.783   0.230  0.7370 -3.2858  1.1035
  546MOL0     H72065   8.118   6.646   0.141  0.1617  0.4859  2.3781
  546MOL0     H72066   8.179   6.904  -0.009  0.8002  0.2923  3.4159
  546MOL0     H72067   8.169   6.751  -0.079 -0.1428  0.9430 -0.0665
  546MOL0     H72068   8.395   6.851  -0.060 -0.3539  0.8083 -0.2535
  546MOL0     H72069   8.362   6.829   0.123 -2.8388 -1.0093  1.5228
  546MOL0     H72070   8.509   6.454   0.022 -1.6153 -0.5014  2.1848
  546MOL0     H72071   7.712   6.823   0.064 -3.9261  0.7306 -1.3820
  546MOL0     H72072   7.498   6.867   0.114 -1.5100 -0.1365  0.6541
  547MOL0     O72073   1.389  10.727   8.458 -0.7747  0.5366  0.1377
  547MOL0     C72074   1.449  10.616   8.465  0.7191  0.0756 -0.1678
  547MOL0     O72075   1.390  10.500   8.494 -0.0053 -0.4190  0.6233
  547MOL0     C72076   1.260  10.509   8.540 -0.3763 -1.0553 -0.0736
  547MOL0     C72077   1.148  10.500   8.460  0.2437 -0.5552  0.0134
  547MOL0     C72078   1.022  10.515   8.514  0.0848 -0.6264 -0.6448
  547MOL0     C72079   1.001  10.545   8.647  0.1310  0.1691 -0.0214
  547MOL0     O72080   0.865  10.551   8.692  0.1740 -0.5646  0.0704
  547MOL0     C72081   0.795  10.667   8.663  0.7806 -0.1690  0.0101
  547MOL0     C72082   0.645  10.647   8.675  0.0537  0.0899  0.2974
  547MOL0     C72083   0.576  10.693   8.551 -0.4550  0.1788  0.3105
  547MOL0     C72084   0.425  10.688   8.561  0.3356  0.8389 -0.1212
  547MOL0     C72085   0.370  10.540   8.553 -0.0978  0.2830  0.0490
  547MOL0     C72086   0.227  10.535   8.597 -0.8180 -0.7405  0.2314
  547MOL0     C72087   0.169  10.393   8.629  0.4230 -0.4950  0.0689
  547MOL0     C72088   0.150  10.303   8.505  0.5840  0.0074 -0.0680
  547MOL0     N72089   0.067  10.366   8.400 -0.1842 -0.2888  0.9947
  547MOL0     C72090  -0.062  10.426   8.415 -0.3286  0.2776 -0.3768
  547MOL0     C72091  -0.086  10.467   8.285  1.1688  0.3898 -0.2907
  547MOL0     C72092  -0.207  10.543   8.244  0.5243 -0.1964  0.6302
  547MOL0     C72093  -0.328  10.458   8.234  0.2059 -0.5771 -0.0926
  547MOL0     C72094  -0.453  10.549   8.216 -0.5971  0.5237  0.6695
  547MOL0     C72095  -0.513  10.616   8.338 -0.4852  0.4797 -0.3855
  547MOL0     O72096  -0.621  10.708   8.302 -0.2596 -0.1013 -1.1561
  547MOL0     C72097  -0.681  10.777   8.401  0.8477  0.5276 -0.3356
  547MOL0     C72098  -0.614  10.791   8.529 -0.2745 -0.1961 -0.0631
  547MOL0     C72099  -0.694  10.849   8.635  0.5303 -1.2481  0.5297
  547MOL0     C72100  -0.824  10.908   8.617  0.4495 -0.0859 -0.1608
  547MOL0     C72101  -0.899  10.959   8.731  0.5648  1.2489  0.4029
  547MOL0     O72102  -1.026  11.011   8.708  0.8494  0.5825  0.9088
  547MOL0     C72103  -1.121  11.011   8.809 -0.2499  0.4467 -0.5183
  547MOL0     C72104  -1.244  10.951   8.787 -0.1653 -0.2250 -0.7430
  547MOL0     C72105  -1.343  10.935   8.884 -0.0198  0.1429 -0.3686
  547MOL0     C72106  -1.312  10.962   9.019 -0.2511 -0.1233  0.7059
  547MOL0     O72107  -1.409  10.947   9.122 -0.6332  0.2965 -0.1469
  547MOL0     C72108  -1.358  10.957   9.258 -0.1866 -0.1289  0.3849
  547MOL0     C72109  -1.468  10.900   9.355  0.5389  0.3165 -0.3579
  547MOL0     C72110  -1.593  10.983   9.370  0.4133  0.4348  0.0870
  547MOL0     C72111  -1.683  10.922   9.477  0.3982  0.0500  0.0455
  547MOL0     C72112  -1.822  10.977   9.499 -0.8586 -0.1337 -0.0585
  547MOL0     C72113  -1.888  10.932   9.629 -0.1219 -0.0099  0.3792
  547MOL0     C72114  -2.013  11.014   9.644 -0.1399 -0.0077  1.3676
  547MOL0     C72115  -2.080  10.990   9.775 -0.7853  0.2260  0.7050
  547MOL0    Cl72116  -2.191  10.843   9.764  0.2242 -0.4883  0.2376
  547MOL0     C72117  -1.189  11.028   9.038  0.2206  0.2673 -0.5138
  547MOL0     C72118  -1.090  11.051   8.940 -0.1974 -0.2737  0.3604
  547MOL0     O72119  -0.848  10.949   8.841  0.1412 -0.6620  0.3906
  547MOL0     C72120  -0.871  10.909   8.484 -0.4640 -0.6388 -0.0133
  547MOL0     C72121  -0.800  10.845   8.379  0.5427  0.4659 -0.5391
  547MOL0     N72122   0.019  10.445   8.203 -0.3510  0.1792  0.8994
  547MOL0     N72123   0.111  10.384   8.267  0.1434 -0.1186  0.0243
  547MOL0     C72124   1.108  10.560   8.730 -0.1690 -0.3610  0.5985
  547MOL0     C72125   1.236  10.541   8.677  0.6213 -0.1675  0.2940
  547MOL0     C72126   1.586  10.604   8.444 -0.8402  0.6990  1.1036
  547MOL0     C72127   1.664  10.709   8.397  0.2395 -0.3399 -0.4151
  547MOL0     C72128   1.799  10.708   8.373 -0.0863 -0.6013 -1.4445
  547MOL0     C72129   1.871  10.590   8.395  0.3514  0.3096 -0.1271
  547MOL0     O72130   2.007  10.600   8.393 -0.3887  0.0998 -0.0514
  547MOL0     C72131   2.086  10.484   8.409 -0.2527 -0.5645 -0.2185
  547MOL0     C72132   2.230  10.521   8.428  0.0401 -0.1945 -0.3890
  547MOL0     C72133   2.297  10.633   8.341 -0.4442 -0.1444 -0.5074
  547MOL0     C72134   2.441  10.649   8.373  0.8575 -0.6145  0.0972
  547MOL0     C72135   2.502  10.751   8.285  0.4193 -0.4564  1.1862
  547MOL0     C72136   2.546  10.835   8.206  0.4206  0.2476  0.7961
  547MOL0     C72137   1.800  10.470   8.429  0.5274 -0.3070 -0.0667
  547MOL0     C72138   1.657  10.479   8.446 -0.5958  0.0036  0.5865
  547MOL0     H72139   1.159  10.477   8.355  1.5597 -0.8363  0.1959
  547MOL0     H72140   0.931  10.528   8.457 -0.7488  0.5705  0.8920
  547MOL0     H72141   0.822  10.703   8.563 -0.4482  1.0524  0.0951
  547MOL0     H72142   0.836  10.737   8.737  2.1581 -1.3924  0.4521
  547MOL0     H72143   0.606  10.706   8.759  0.3671  1.4786 -0.4988
  547MOL0     H72144   0.636  10.540   8.694 -0.3146  0.0577 -0.0618
  547MOL0     H72145   0.611  10.634   8.466 -0.8069 -1.0060  0.9719
  547MOL0     H72146   0.603  10.797   8.530 -0.3805 -0.2073 -1.7046
  547MOL0     H72147   0.395  10.726   8.659  0.8443 -0.9744  0.7819
  547MOL0     H72148   0.378  10.743   8.478  0.1708  1.6664  0.5032
  547MOL0     H72149   0.417  10.479   8.631 -0.4153  1.8715  1.5420
  547MOL0     H72150   0.386  10.501   8.453 -0.1070  1.3791 -0.3960
  547MOL0     H72151   0.173  10.585   8.517 -1.3439  0.3383  1.2235
  547MOL0     H72152   0.203  10.594   8.686 -5.4447  0.3947 -1.4865
  547MOL0     H72153   0.230  10.341   8.703  3.0071  2.0086 -0.0946
  547MOL0     H72154   0.071  10.415   8.671  0.2947 -1.0603  0.0672
  547MOL0     H72155   0.090  10.216   8.534  1.3135 -1.2020 -1.9687
  547MOL0     H72156   0.246  10.266   8.468  0.8764 -1.6339  2.1337
  547MOL0     H72157  -0.130  10.442   8.498  0.8611  0.8570  0.5177
  547MOL0     H72158  -0.175  10.568   8.142  0.0485  1.6833  0.8965
  547MOL0     H72159  -0.232  10.638   8.292  1.9143 -0.0851  1.1715
  547MOL0     H72160  -0.350  10.393   8.319 -0.1428 -2.3783 -1.4814
  547MOL0     H72161  -0.331  10.397   8.143 -5.7660  1.0190 -1.4572
  547MOL0     H72162  -0.417  10.624   8.144 -2.1819 -0.7748 -1.6200
  547MOL0     H72163  -0.527  10.494   8.157  1.8838 -2.2282 -0.1053
  547MOL0     H72164  -0.432  10.667   8.390  0.8124  0.0899 -1.9545
  547MOL0     H72165  -0.554  10.535   8.399  2.0905 -0.9549 -0.4257
  547MOL0     H72166  -0.514  10.754   8.550  0.2260  0.9394 -0.3447
  547MOL0     H72167  -0.642  10.854   8.731 -0.1886  3.0927  0.8675
  547MOL0     H72168  -1.252  10.904   8.689 -0.4837 -0.8886 -0.4110
  547MOL0     H72169  -1.446  10.907   8.860  0.3020  0.7524 -2.7813
  547MOL0     H72170  -1.361  11.064   9.281  1.3320  0.4969 -1.9260
  547MOL0     H72171  -1.263  10.906   9.275  0.0006  0.2961  0.6318
  547MOL0     H72172  -1.413  10.892   9.449  1.6517  0.7856 -0.9531
  547MOL0     H72173  -1.497  10.798   9.329 -0.8262  0.7721 -0.7019
  547MOL0     H72174  -1.646  10.974   9.275 -0.9261 -2.6131  0.9962
  547MOL0     H72175  -1.566  11.087   9.390  0.8717  0.7773 -2.1010
  547MOL0     H72176  -1.676  10.814   9.464  3.0370  0.3112 -1.5321
  547MOL0     H72177  -1.638  10.935   9.576  0.7580 -2.0533  0.1991
  547MOL0     H72178  -1.894  10.958   9.419 -2.0154 -2.2169  1.3663
  547MOL0     H72179  -1.803  11.083   9.517  0.9236 -0.7927  2.5182
  547MOL0     H72180  -1.819  10.942   9.713 -0.1829  2.2586  0.2174
  547MOL0     H72181  -1.914  10.826   9.624  0.7301 -0.3028  1.6266
  547MOL0     H72182  -1.990  11.121   9.634  0.3714 -0.3042 -1.8434
  547MOL0     H72183  -2.077  10.981   9.561  1.5078  1.4487 -0.6113
  547MOL0     H72184  -2.144  11.073   9.806 -1.8424 -0.6998  1.1240
  547MOL0     H72185  -2.005  10.969   9.851 -0.7535  0.1423  0.6520
  547MOL0     H72186  -1.160  11.059   9.138  1.1468 -2.4166  0.1159
  547MOL0     H72187  -0.997  11.090   8.981 -0.9453  1.8861  0.1491
  547MOL0     H72188  -0.971  10.945   8.461 -0.8439 -2.0057 -0.6170
  547MOL0     H72189  -0.844  10.834   8.280  0.8145 -1.5628 -0.4897
  547MOL0     H72190   1.096  10.596   8.832  4.5753 -0.3837  1.3660
  547MOL0     H72191   1.315  10.568   8.747  0.6927 -2.4143  1.1486
  547MOL0     H72192   1.614  10.803   8.376 -1.7698 -1.1478  0.5207
  547MOL0     H72193   1.849  10.800   8.343  1.1706 -1.2175 -1.2670
  547MOL0     H72194   2.082  10.424   8.317 -1.6101 -0.0204 -0.5443
  547MOL0     H72195   2.056  10.429   8.499  2.1420 -1.1353  0.3023
  547MOL0     H72196   2.250  10.545   8.533  2.2020 -0.6687 -0.6401
  547MOL0     H72197   2.282  10.428   8.403 -0.7729 -0.8314  0.2341
  547MOL0     H72198   2.247  10.727   8.363  1.0799  0.1815  1.9037
  547MOL0     H72199   2.291  10.612   8.234 -0.7199 -0.9430 -0.3388
  547MOL0     H72200   2.447  10.685   8.476  0.7071 -0.5672  0.0892
  547MOL0     H72201   2.498  10.555   8.371 -0.7616 -1.6125 -0.5446
  547MOL0     H72202   2.583  10.922   8.155  3.5099 -1.2257  0.3032
  547MOL0     H72203   1.854  10.376   8.440  0.2914 -0.3559  0.6982
  547MOL0     H72204   1.596  10.391   8.466 -2.8885  1.8566  2.4334
  548MOL0     O72205   2.851  10.675  10.649 -0.1804 -0.0676 -0.2227
  548MOL0     C72206   2.915  10.779  10.649  0.1373 -0.0372 -0.0813
  548MOL0     O72207   2.851  10.906  10.660 -0.3281  0.1148 -0.1697
  548MOL0     C72208   2.715  10.922  10.643  0.0740  0.0110  0.5973
  548MOL0     C72209   2.659  10.890  10.514 -0.1927 -1.3926 -0.3426
  548MOL0     C72210   2.528  10.919  10.475 -0.7735  0.6779 -0.0310
  548MOL0     C72211   2.445  10.984  10.564 -0.6053  0.6872  0.2609
  548MOL0     O72212   2.311  11.014  10.537  0.2006  0.3015 -0.1713
  548MOL0     C72213   2.263  10.997  10.398 -0.3982 -0.5257 -0.1463
  548MOL0     C72214   2.123  11.056  10.402  0.0450  1.5054 -0.7257
  548MOL0     C72215   2.053  11.064  10.268 -0.0210  0.8504  0.2368
  548MOL0     C72216   1.910  11.107  10.274 -0.3367 -0.2618  0.3537
  548MOL0     C72217   1.858  11.143  10.130  0.2251  0.1381 -0.2655
  548MOL0     C72218   1.853  11.031  10.026  0.1037 -0.6339 -0.1592
  548MOL0     C72219   1.787  10.901  10.067  0.4559  0.2039 -0.8557
  548MOL0     C72220   1.637  10.904  10.123 -1.0436  0.1823 -0.0239
  548MOL0     N72221   1.535  10.939  10.021  0.0192  0.0256 -0.2273
  548MOL0     C72222   1.536  10.888   9.891 -0.5872  0.0335 -0.2803
  548MOL0     C72223   1.412  10.919   9.840  0.4146 -0.9828 -0.0252
  548MOL0     C72224   1.355  10.879   9.707 -0.2077  0.3454 -0.0576
  548MOL0     C72225   1.391  10.972   9.591 -0.2834 -0.1317 -0.0247
  548MOL0     C72226   1.355  11.115   9.613 -0.8791  0.1098 -0.7753
  548MOL0     C72227   1.357  11.197   9.482 -0.4081  0.4713 -0.3178
  548MOL0     O72228   1.305  11.331   9.512 -0.0279 -0.0726 -0.4093
  548MOL0     C72229   1.188  11.379   9.463 -0.3830  0.8447  0.2721
  548MOL0     C72230   1.081  11.296   9.425  0.6261  0.1681 -0.6888
  548MOL0     C72231   0.958  11.355   9.382 -0.1922  0.3253  0.6317
  548MOL0     C72232   0.948  11.497   9.379  0.0235 -0.0925 -0.2889
  548MOL0     C72233   0.824  11.569   9.352 -0.2382 -0.3349 -0.2467
  548MOL0     O72234   0.720  11.492   9.307  0.5169  0.1103  0.0760
  548MOL0     C72235   0.595  11.536   9.325  0.0542 -0.4921  0.3870
  548MOL0     C72236   0.527  11.539   9.438  0.1193  1.2320 -0.4557
  548MOL0     C72237   0.395  11.584   9.448  0.2899  0.1274  0.0520
  548MOL0     C72238   0.322  11.627   9.334 -0.5920  0.0377 -0.4099
  548MOL0     O72239   0.197  11.694   9.338  0.0705 -0.0205  0.3828
  548MOL0     C72240   0.200  11.817   9.409 -0.2726  0.9563  0.6476
  548MOL0     C72241   0.082  11.819   9.502 -0.2001  0.3761 -0.2168
  548MOL0     C72242  -0.048  11.832   9.419  0.1329 -0.8533 -0.3973
  548MOL0     C72243  -0.171  11.882   9.492  0.0780  0.2350  0.0431
  548MOL0     C72244  -0.195  11.799   9.625  0.3467  0.4129  0.5568
  548MOL0     C72245  -0.333  11.833   9.679  0.4951 -0.0796 -0.4611
  548MOL0     C72246  -0.360  11.790   9.821  0.4673 -0.4620  0.3377
  548MOL0     C72247  -0.508  11.786   9.853  0.5541  0.9015  0.2359
  548MOL0    Cl72248  -0.607  11.668   9.753 -0.2948 -0.4221  0.2029
  548MOL0     C72249   0.390  11.620   9.216  0.0516  0.7374  0.2670
  548MOL0     C72250   0.520  11.574   9.206 -0.6723  1.0081 -0.5652
  548MOL0     O72251   0.821  11.693   9.374 -0.8857  0.6126 -0.1641
  548MOL0     C72252   1.066  11.576   9.408 -0.3652  0.1867  0.3548
  548MOL0     C72253   1.180  11.516   9.454  0.5165  0.0451 -0.0566
  548MOL0     N72254   1.339  10.981   9.943 -0.1809  0.7677 -0.4868
  548MOL0     N72255   1.417  11.001  10.048  0.1824  0.3240  0.7010
  548MOL0     C72256   2.496  11.021  10.692  0.2953  0.3910  0.0934
  548MOL0     C72257   2.629  10.995  10.728  0.2552 -0.8310  0.0393
  548MOL0     C72258   3.061  10.787  10.611  0.5098 -0.4847  0.2127
  548MOL0     C72259   3.131  10.670  10.584  0.1693 -0.7387  0.2609
  548MOL0     C72260   3.267  10.679  10.548 -1.0450  0.4003 -1.3763
  548MOL0     C72261   3.327  10.801  10.531  0.1642  1.2306 -0.0468
  548MOL0     O72262   3.463  10.807  10.511 -0.8383 -0.3320 -0.3888
  548MOL0     C72263   3.544  10.697  10.494 -0.4460 -0.0283  0.1716
  548MOL0     C72264   3.672  10.746  10.432 -0.6941 -0.3603 -0.7694
  548MOL0     C72265   3.764  10.622  10.423  0.3521 -0.5464 -0.2889
  548MOL0     C72266   3.905  10.649  10.370 -0.3805  0.3209  1.1142
  548MOL0     C72267   3.963  10.736  10.474 -0.7175  0.0302  1.1037
  548MOL0     C72268   4.001  10.813  10.562  0.8080  0.3136 -0.8064
  548MOL0     C72269   3.256  10.916  10.547 -0.5649  0.5021  0.6493
  548MOL0     C72270   3.126  10.911  10.583 -0.6912 -0.3708  0.3943
  548MOL0     H72271   2.718  10.841  10.436 -0.2011 -0.2798 -1.0703
  548MOL0     H72272   2.502  10.881  10.377  1.6514  1.6263 -1.1188
  548MOL0     H72273   2.260  10.890  10.376 -0.1999 -0.2927 -1.3642
  548MOL0     H72274   2.328  11.059  10.336  0.7262  0.7100  2.1088
  548MOL0     H72275   2.137  11.156  10.443 -0.6997  1.3448 -0.0481
  548MOL0     H72276   2.056  10.994  10.463  1.0977  3.3404  2.5700
  548MOL0     H72277   2.069  10.969  10.216 -2.1458  2.1138 -3.0989
  548MOL0     H72278   2.099  11.140  10.203 -2.0316  1.7456 -0.2253
  548MOL0     H72279   1.843  11.030  10.312 -0.3462 -1.9186 -2.7088
  548MOL0     H72280   1.908  11.201  10.331 -0.5906  0.3474 -0.6302
  548MOL0     H72281   1.925  11.224  10.097  1.8353 -0.8045  0.6049
  548MOL0     H72282   1.756  11.181  10.143  0.0656  0.2830 -1.7494
  548MOL0     H72283   1.953  11.008   9.989  0.7901  0.1421  1.1292
  548MOL0     H72284   1.794  11.068   9.941  3.0910  0.2284 -2.0383
  548MOL0     H72285   1.790  10.834   9.981 -0.0661  0.4708 -1.0860
  548MOL0     H72286   1.839  10.853  10.151 -1.5926  0.0993  0.4420
  548MOL0     H72287   1.647  10.970  10.210  0.2473 -0.3862  0.2940
  548MOL0     H72288   1.607  10.809  10.169  0.9692 -1.4504 -1.8858
  548MOL0     H72289   1.611  10.819   9.857 -0.0927  1.0819 -1.4028
  548MOL0     H72290   1.247  10.873   9.725 -0.0778  0.5370  0.8205
  548MOL0     H72291   1.378  10.776   9.677 -0.5271 -0.0926  1.1329
  548MOL0     H72292   1.326  10.943   9.508 -2.5092  0.3056  1.4852
  548MOL0     H72293   1.498  10.955   9.578  0.1449  1.2560  1.4640
  548MOL0     H72294   1.254  11.123   9.653 -0.5551  1.5978 -0.1829
  548MOL0     H72295   1.423  11.173   9.677  1.2665 -0.3533 -2.4940
  548MOL0     H72296   1.303  11.142   9.405 -0.3172 -1.7279  1.1061
  548MOL0     H72297   1.460  11.216   9.452 -0.6376  4.2214  0.7257
  548MOL0     H72298   1.084  11.188   9.436  2.8538  0.1906 -0.6616
  548MOL0     H72299   0.867  11.302   9.358 -0.0297 -0.2288  1.2085
  548MOL0     H72300   0.579  11.501   9.526 -1.3980  0.0225 -0.0397
  548MOL0     H72301   0.343  11.585   9.543 -0.8524 -0.4279 -0.5367
  548MOL0     H72302   0.196  11.902   9.340 -1.0859  0.7657  0.4466
  548MOL0     H72303   0.291  11.827   9.470 -0.6473  1.8434  1.0844
  548MOL0     H72304   0.092  11.900   9.575  1.3655  0.2198 -0.2283
  548MOL0     H72305   0.068  11.724   9.556  1.4729 -1.9778 -3.5558
  548MOL0     H72306  -0.073  11.740   9.366 -0.1041  0.1717 -2.1764
  548MOL0     H72307  -0.029  11.893   9.329  0.3047  1.3895  1.0683
  548MOL0     H72308  -0.164  11.990   9.510 -0.4759  0.9103 -3.2164
  548MOL0     H72309  -0.260  11.869   9.430 -0.9277  0.4299  1.4154
  548MOL0     H72310  -0.123  11.841   9.696 -0.1552  1.0370  0.7016
  548MOL0     H72311  -0.180  11.692   9.610 -1.3617  0.2590 -0.2436
  548MOL0     H72312  -0.401  11.781   9.610 -0.1935  1.0193 -0.6467
  548MOL0     H72313  -0.364  11.937   9.669 -1.8327 -0.6524  0.2304
  548MOL0     H72314  -0.321  11.688   9.828  0.5407 -0.3636  1.5969
  548MOL0     H72315  -0.310  11.858   9.890 -1.9178  1.0521  0.7087
  548MOL0     H72316  -0.559  11.878   9.827 -0.5680  0.1281 -0.3943
  548MOL0     H72317  -0.521  11.763   9.959 -3.7899 -1.1982 -0.5139
  548MOL0     H72318   0.339  11.655   9.126  2.5701 -0.9433 -1.9749
  548MOL0     H72319   0.561  11.569   9.106 -0.7513  1.2413 -0.6086
  548MOL0     H72320   1.069  11.684   9.398 -0.0276  0.0719 -0.9781
  548MOL0     H72321   1.272  11.572   9.469 -0.2883  1.0300  1.4654
  548MOL0     H72322   2.418  11.065  10.754  1.3182  0.9807  1.0003
  548MOL0     H72323   2.670  11.025  10.823 -1.2178  1.5417  0.0029
  548MOL0     H72324   3.087  10.571  10.574  1.5092 -1.1492 -3.2341
  548MOL0     H72325   3.325  10.587  10.548 -0.2595  0.8593 -0.3878
  548MOL0     H72326   3.498  10.620  10.431 -0.3728 -1.3443  1.6607
  548MOL0     H72327   3.567  10.659  10.594  0.1465 -1.8209 -0.6112
  548MOL0     H72328   3.652  10.771  10.327 -1.8668 -1.9451 -0.9678
  548MOL0     H72329   3.713  10.823  10.497  1.2374 -2.2290  0.3586
  548MOL0     H72330   3.712  10.545  10.364 -1.9237 -0.4182  1.3948
  548MOL0     H72331   3.781  10.584  10.524 -0.1389 -0.2876 -0.1085
  548MOL0     H72332   3.965  10.558  10.357  1.4027  1.7359 -1.6176
  548MOL0     H72333   3.897  10.710  10.279 -1.6346  2.0661  2.3302
  548MOL0     H72334   4.024  10.881  10.641 -2.3031 -0.5736  1.0291
  548MOL0     H72335   3.314  11.007  10.535 -1.1900  0.7643 -0.4842
  548MOL0     H72336   3.071  11.003  10.593 -0.4005 -0.3106  1.5206
  549MOL0     O72337   0.027   5.730   5.733  0.2030 -0.1514 -0.2033
  549MOL0     C72338   0.071   5.745   5.618  0.4488  0.5311  0.9598
  549MOL0     O72339   0.002   5.716   5.504 -0.2629 -0.3467 -0.2302
  549MOL0     C72340  -0.128   5.676   5.502 -0.0698 -0.5624  0.1519
  549MOL0     C72341  -0.208   5.732   5.395  0.5446 -0.2505 -0.2026
  549MOL0     C72342  -0.346   5.716   5.380 -0.2081  0.1277  0.2167
  549MOL0     C72343  -0.415   5.641   5.481 -0.6221  0.9692  0.5913
  549MOL0     O72344  -0.548   5.629   5.466  0.2807  0.1865 -0.3622
  549MOL0     C72345  -0.634   5.737   5.412 -0.2438  0.0431  0.8588
  549MOL0     C72346  -0.773   5.716   5.450 -0.6614 -0.0073  0.4930
  549MOL0     C72347  -0.860   5.836   5.419 -0.0069  0.1561 -0.7017
  549MOL0     C72348  -1.003   5.819   5.477 -0.4086  0.9910 -0.5358
  549MOL0     C72349  -1.074   5.963   5.466 -0.0010  0.0861 -1.1051
  549MOL0     C72350  -1.208   5.978   5.533 -0.4079 -0.5159 -0.6062
  549MOL0     C72351  -1.312   5.899   5.457  0.4411 -0.0455  0.6343
  549MOL0     C72352  -1.458   5.927   5.515  0.0097 -0.3328 -0.3551
  549MOL0     N72353  -1.558   5.841   5.448 -0.1050  0.2524  0.5299
  549MOL0     C72354  -1.607   5.835   5.317  0.7079 -0.6277 -0.3104
  549MOL0     C72355  -1.691   5.733   5.317 -0.0591 -0.1431  0.0408
  549MOL0     C72356  -1.770   5.688   5.198 -0.0120  0.8266 -0.0286
  549MOL0     C72357  -1.919   5.733   5.201 -0.2850 -0.6280 -0.7534
  549MOL0     C72358  -2.008   5.612   5.233  0.1077  0.4479 -0.5519
  549MOL0     C72359  -2.160   5.653   5.242  0.2037  0.2402 -0.6367
  549MOL0     O72360  -2.224   5.665   5.113  0.1762 -0.3066 -0.0732
  549MOL0     C72361  -2.302   5.779   5.092 -0.7986  0.1220  0.6456
  549MOL0     C72362  -2.358   5.850   5.191  0.5123  0.1401 -0.8838
  549MOL0     C72363  -2.453   5.955   5.167 -0.1638 -0.0950 -1.7640
  549MOL0     C72364  -2.471   6.005   5.037 -0.2182  1.1273 -0.5927
  549MOL0     C72365  -2.548   6.124   5.026  1.0211 -0.0312 -0.6880
  549MOL0     O72366  -2.624   6.120   4.908 -0.5643  0.4139  0.1586
  549MOL0     C72367  -2.723   6.208   4.889 -0.1733 -0.6687 -0.2929
  549MOL0     C72368  -2.836   6.223   4.972  0.1149  0.1883  0.4321
  549MOL0     C72369  -2.938   6.307   4.951 -0.0870  0.2156 -0.0844
  549MOL0     C72370  -2.929   6.395   4.841 -1.2283  0.1301  0.4465
  549MOL0     O72371  -3.021   6.482   4.810 -0.3485 -0.5512  0.0281
  549MOL0     C72372  -3.108   6.536   4.907  0.4474 -0.3760 -0.7238
  549MOL0     C72373  -3.160   6.669   4.846  0.2029  0.5889  0.5247
  549MOL0     C72374  -3.245   6.748   4.944 -0.0473 -0.2571 -0.2646
  549MOL0     C72375  -3.273   6.894   4.913 -0.4232  0.4546  0.1270
  549MOL0     C72376  -3.323   6.911   4.763  0.2290  0.1336 -0.5554
  549MOL0     C72377  -3.354   7.065   4.740  0.3886  0.5038 -0.9068
  549MOL0     C72378  -3.404   7.068   4.589  0.5540 -0.2945  0.0034
  549MOL0     C72379  -3.492   7.184   4.549 -0.1970 -1.2832  0.3233
  549MOL0    Cl72380  -3.405   7.337   4.577 -0.4219  0.2294 -0.0652
  549MOL0     C72381  -2.833   6.369   4.744 -0.3908  0.0315  0.6004
  549MOL0     C72382  -2.725   6.282   4.769 -0.3163  0.1050 -0.8899
  549MOL0     O72383  -2.554   6.215   5.113 -0.0858  0.0168  0.6756
  549MOL0     C72384  -2.414   5.926   4.933  0.6537  0.5716 -0.4869
  549MOL0     C72385  -2.329   5.811   4.960  0.0576 -0.2558  0.2215
  549MOL0     N72386  -1.711   5.687   5.446 -0.4452 -0.4419 -0.1657
  549MOL0     N72387  -1.634   5.750   5.520 -0.1690 -0.7386 -0.5042
  549MOL0     C72388  -0.344   5.584   5.587 -0.0901  0.1558  0.9780
  549MOL0     C72389  -0.203   5.602   5.602  0.2043  0.0319  1.0940
  549MOL0     C72390   0.196   5.810   5.610  0.0624 -0.4082  0.4202
  549MOL0     C72391   0.299   5.800   5.707 -0.6322  0.3413  0.0461
  549MOL0     C72392   0.431   5.849   5.682  1.2022  0.3677  0.2520
  549MOL0     C72393   0.460   5.913   5.563  0.1257 -0.5206 -0.2769
  549MOL0     O72394   0.576   5.971   5.518 -0.3706 -0.0320 -0.1790
  549MOL0     C72395   0.675   5.982   5.628  0.4388 -0.4175  0.0660
  549MOL0     C72396   0.790   6.065   5.567  0.3295 -0.5319  0.1823
  549MOL0     C72397   0.943   6.044   5.602  0.8034  0.0326  0.2314
  549MOL0     C72398   0.979   6.089   5.744 -0.2136 -0.4172  0.6082
  549MOL0     C72399   1.123   6.088   5.761 -0.4766  0.5266 -0.6889
  549MOL0     C72400   1.237   6.085   5.766 -0.1872  0.5518  0.2465
  549MOL0     C72401   0.368   5.921   5.464  0.1855  1.3931 -0.8118
  549MOL0     C72402   0.233   5.876   5.488 -0.9354 -0.3352  0.2872
  549MOL0     H72403  -0.160   5.797   5.322  0.2262  0.6625  0.3850
  549MOL0     H72404  -0.397   5.746   5.289  1.2663  0.2775 -0.5949
  549MOL0     H72405  -0.630   5.736   5.303 -1.8753 -0.7744  0.7832
  549MOL0     H72406  -0.608   5.842   5.433 -4.1560  1.4836 -0.4564
  549MOL0     H72407  -0.759   5.700   5.558  1.0090  1.3580  0.5227
  549MOL0     H72408  -0.820   5.627   5.407  1.4442 -1.1078  0.3099
  549MOL0     H72409  -0.864   5.860   5.312  1.0409 -0.2367 -0.8398
  549MOL0     H72410  -0.807   5.919   5.468  2.0298 -1.1075 -0.6289
  549MOL0     H72411  -1.064   5.741   5.429 -0.5422  2.0074 -2.0673
  549MOL0     H72412  -0.986   5.798   5.583  2.4534  1.9570 -0.7380
  549MOL0     H72413  -1.075   5.982   5.358  0.2877 -2.3852 -1.6074
  549MOL0     H72414  -1.007   6.032   5.517  0.4420 -1.8159  1.0289
  549MOL0     H72415  -1.246   6.079   5.552  1.0338  0.5657 -3.0517
  549MOL0     H72416  -1.199   5.940   5.635 -0.2497  0.3238 -0.2954
  549MOL0     H72417  -1.302   5.930   5.353 -0.1976 -4.1145 -0.7817
  549MOL0     H72418  -1.296   5.792   5.469  1.0189  0.1615  1.9162
  549MOL0     H72419  -1.474   6.035   5.503  0.8187 -0.1441  0.2148
  549MOL0     H72420  -1.461   5.897   5.621 -1.4124 -2.2388 -0.8767
  549MOL0     H72421  -1.591   5.894   5.227 -1.9409 -2.4537 -2.1073
  549MOL0     H72422  -1.755   5.580   5.202  0.0404  0.7235 -1.8743
  549MOL0     H72423  -1.722   5.738   5.113 -0.8146 -0.5334 -1.3514
  549MOL0     H72424  -1.946   5.771   5.102  0.1752  1.6489 -0.0525
  549MOL0     H72425  -1.932   5.806   5.282 -2.2196 -0.9262 -0.7341
  549MOL0     H72426  -2.002   5.533   5.157 -0.6668  0.1042 -0.2660
  549MOL0     H72427  -1.974   5.566   5.326  1.5282  0.0062 -1.2619
  549MOL0     H72428  -2.168   5.743   5.302  0.3826 -0.6008  0.6953
  549MOL0     H72429  -2.208   5.570   5.294  2.4137 -0.7715 -0.0599
  549MOL0     H72430  -2.370   5.823   5.295  0.1510 -2.4247 -1.4979
  549MOL0     H72431  -2.504   5.997   5.253  0.7410 -2.6534  0.1757
  549MOL0     H72432  -2.828   6.162   5.062 -0.3515 -1.5349 -0.6430
  549MOL0     H72433  -3.018   6.312   5.024  1.1161 -0.9406  1.3805
  549MOL0     H72434  -3.057   6.564   5.000 -1.5571  1.3224 -0.0618
  549MOL0     H72435  -3.192   6.468   4.924  0.6288 -0.3090  0.4976
  549MOL0     H72436  -3.228   6.646   4.763 -1.2799  1.3921  1.4770
  549MOL0     H72437  -3.081   6.731   4.803 -1.2729  0.3135 -2.9702
  549MOL0     H72438  -3.202   6.729   5.043 -2.1205  0.5627  0.8685
  549MOL0     H72439  -3.340   6.693   4.947  0.3433 -1.0193 -1.2922
  549MOL0     H72440  -3.344   6.943   4.980 -0.8639  1.3531 -0.9684
  549MOL0     H72441  -3.182   6.952   4.932 -0.1069  0.7430 -2.0549
  549MOL0     H72442  -3.417   6.855   4.751 -1.0366  2.4485 -2.2424
  549MOL0     H72443  -3.251   6.875   4.690 -1.5973 -1.9526 -1.4369
  549MOL0     H72444  -3.253   7.105   4.753  1.1791 -1.4879 -0.5907
  549MOL0     H72445  -3.430   7.093   4.814 -0.0204 -1.0390 -0.7031
  549MOL0     H72446  -3.312   7.075   4.530 -0.4697  2.2692 -1.4501
  549MOL0     H72447  -3.464   6.981   4.561 -2.2937  1.2335  0.9223
  549MOL0     H72448  -3.594   7.190   4.588 -0.2382  1.3132  0.0032
  549MOL0     H72449  -3.512   7.183   4.441 -4.1035 -0.2998  0.8974
  549MOL0     H72450  -2.830   6.427   4.653  1.6044 -1.0289 -0.0478
  549MOL0     H72451  -2.647   6.275   4.694 -0.1553  0.4415 -0.7573
  549MOL0     H72452  -2.422   5.966   4.833  1.5668  0.3451 -0.6576
  549MOL0     H72453  -2.274   5.769   4.877 -0.1316 -0.9112  0.4221
  549MOL0     H72454  -0.382   5.524   5.669  3.1768 -3.0297  0.3873
  549MOL0     H72455  -0.152   5.544   5.678 -0.7704 -1.6643  0.5125
  549MOL0     H72456   0.296   5.747   5.801  3.6769 -0.4449 -0.0731
  549MOL0     H72457   0.508   5.836   5.758 -1.3953 -0.9440  2.8734
  549MOL0     H72458   0.711   5.883   5.658 -0.7815 -0.5483  1.1927
  549MOL0     H72459   0.626   6.031   5.712 -0.8030 -0.1706 -0.7724
  549MOL0     H72460   0.779   6.047   5.459  1.5466 -1.5404  0.1974
  549MOL0     H72461   0.774   6.171   5.589  0.0049  0.2374 -3.1114
  549MOL0     H72462   1.004   6.095   5.527  1.9458 -0.7438  0.6105
  549MOL0     H72463   0.960   5.938   5.584 -1.4919 -0.1938 -0.9436
  549MOL0     H72464   0.934   6.183   5.779  1.7620  0.6806  0.3736
  549MOL0     H72465   0.938   6.012   5.810  1.5613 -0.3918  1.8017
  549MOL0     H72466   1.341   6.067   5.747 -0.9825 -1.2867 -3.3844
  549MOL0     H72467   0.394   5.959   5.366  1.7507  0.9480 -0.5981
  549MOL0     H72468   0.168   5.880   5.401  2.3340  1.9397 -2.3170
  550MOL0     O72469   6.365   4.071   2.101 -0.5306  0.2902  0.3976
  550MOL0     C72470   6.411   3.963   2.057  0.1233  0.2579  0.8378
  550MOL0     O72471   6.346   3.881   1.973 -0.0413  0.4953  0.2798
  550MOL0     C72472   6.223   3.907   1.921  0.2217  0.6822  0.5286
  550MOL0     C72473   6.119   3.820   1.941 -0.1818 -0.9770 -0.2393
  550MOL0     C72474   5.985   3.837   1.894 -0.1935 -0.3544 -0.2735
  550MOL0     C72475   5.965   3.945   1.803 -0.4315  0.2017  0.5818
  550MOL0     O72476   5.846   3.975   1.741  0.1475  0.6613 -0.4793
  550MOL0     C72477   5.732   3.887   1.748  0.8317 -0.5550 -0.2371
  550MOL0     C72478   5.654   3.939   1.629  0.9742 -0.8328  1.0175
  550MOL0     C72479   5.550   3.832   1.586  0.6324 -0.0151 -0.7131
  550MOL0     C72480   5.462   3.873   1.464 -0.7996 -0.0660  0.4869
  550MOL0     C72481   5.338   3.782   1.462 -0.0372  0.0256 -0.1814
  550MOL0     C72482   5.247   3.815   1.338 -0.1919 -0.7988 -0.0370
  550MOL0     C72483   5.113   3.739   1.340 -0.7242 -0.1591 -0.7340
  550MOL0     C72484   5.025   3.779   1.227 -1.1713 -0.8065  0.4899
  550MOL0     N72485   4.913   3.689   1.211  0.5406 -0.5120 -0.2986
  550MOL0     C72486   4.784   3.735   1.167 -0.9741  0.3994  0.0188
  550MOL0     C72487   4.724   3.621   1.114 -0.7374 -0.4137  0.1926
  550MOL0     C72488   4.587   3.615   1.049 -0.8872 -1.0403 -0.1554
  550MOL0     C72489   4.468   3.688   1.116 -0.4177  0.9225 -0.0890
  550MOL0     C72490   4.333   3.628   1.069 -0.1880 -0.6993  0.2035
  550MOL0     C72491   4.327   3.671   0.921 -0.1699  0.1101  0.4353
  550MOL0     O72492   4.218   3.613   0.846  1.0906  0.1403 -0.0215
  550MOL0     C72493   4.085   3.647   0.880 -0.3098  0.3202 -0.1202
  550MOL0     C72494   4.059   3.765   0.956  0.7949 -0.2364  0.0999
  550MOL0     C72495   3.918   3.804   0.967 -0.3402 -0.0952  0.5928
  550MOL0     C72496   3.820   3.738   0.895  0.9048  0.5314 -0.9276
  550MOL0     C72497   3.676   3.786   0.910  0.2029 -0.4387  0.0251
  550MOL0     O72498   3.599   3.753   0.805  0.7165  0.1670  0.0539
  550MOL0     C72499   3.471   3.799   0.776  0.3275  0.3571 -1.0961
  550MOL0     C72500   3.432   3.849   0.656 -0.7436  0.4361 -0.0894
  550MOL0     C72501   3.301   3.902   0.632  0.1702 -0.2615 -0.2392
  550MOL0     C72502   3.212   3.884   0.733  0.3913 -0.0544  1.1108
  550MOL0     O72503   3.079   3.907   0.702  0.2218  0.2594 -0.5390
  550MOL0     C72504   2.995   3.838   0.784 -0.7243  0.1325 -0.5808
  550MOL0     C72505   2.854   3.848   0.724 -0.5506  0.1876  0.4560
  550MOL0     C72506   2.743   3.781   0.801  0.1271 -0.0202  0.5161
  550MOL0     C72507   2.611   3.799   0.718  0.3926 -0.1736 -0.0867
  550MOL0     C72508   2.491   3.732   0.786  0.8097 -1.0310 -0.9938
  550MOL0     C72509   2.503   3.575   0.797 -0.1588 -0.3635  0.8156
  550MOL0     C72510   2.363   3.531   0.847  0.6558  0.4918  0.0388
  550MOL0     C72511   2.361   3.384   0.848  0.1611  0.4084 -0.6804
  550MOL0    Cl72512   2.497   3.319   0.961 -0.3405  0.1695  0.0550
  550MOL0     C72513   3.252   3.844   0.862 -0.0580 -0.0355  0.2138
  550MOL0     C72514   3.380   3.804   0.885 -0.0671  0.0104  0.4439
  550MOL0     O72515   3.646   3.864   1.000 -0.1005  0.0790 -0.7323
  550MOL0     C72516   3.848   3.621   0.822 -0.2543 -0.0376  0.5060
  550MOL0     C72517   3.984   3.586   0.808 -0.4983  0.7325  0.2919
  550MOL0     N72518   4.816   3.517   1.124 -0.4637  0.5866  0.5719
  550MOL0     N72519   4.925   3.558   1.193 -0.4711  0.2831 -0.4319
  550MOL0     C72520   6.073   4.027   1.771  0.1919  0.0068 -0.2617
  550MOL0     C72521   6.200   4.014   1.829 -0.3062  0.3853  0.2810
  550MOL0     C72522   6.558   3.943   2.076 -0.5678  0.3198 -0.2071
  550MOL0     C72523   6.631   4.014   2.179 -0.3506  0.6708  0.3066
  550MOL0     C72524   6.771   4.004   2.197  0.7279 -0.5551  0.1294
  550MOL0     C72525   6.844   3.914   2.120 -0.1242 -0.3944 -0.1021
  550MOL0     O72526   6.977   3.894   2.132 -0.7908  0.0002 -0.0440
  550MOL0     C72527   7.067   4.000   2.167  0.8791  0.8297 -0.7609
  550MOL0     C72528   7.099   3.982   2.316 -0.1711 -0.1329  0.8287
  550MOL0     C72529   7.230   4.060   2.365  0.8311  0.5570  1.3970
  550MOL0     C72530   7.363   4.034   2.295  0.4197  0.1121 -0.4756
  550MOL0     C72531   7.386   4.142   2.195  0.7924  1.0396  0.8147
  550MOL0     C72532   7.404   4.223   2.104  0.0663 -0.0668  0.0439
  550MOL0     C72533   6.769   3.843   2.034 -0.2107 -0.8794  0.2924
  550MOL0     C72534   6.633   3.849   2.013 -0.1987  0.2223 -0.2193
  550MOL0     H72535   6.126   3.740   2.014 -0.2197  0.7721  1.7847
  550MOL0     H72536   5.904   3.774   1.930  0.4373 -0.8141  0.3734
  550MOL0     H72537   5.680   3.901   1.843  0.1533  2.1308 -0.9272
  550MOL0     H72538   5.759   3.782   1.735 -0.6190 -0.8090 -1.4274
  550MOL0     H72539   5.724   3.967   1.550  1.4702 -1.6761  1.1519
  550MOL0     H72540   5.607   4.037   1.646 -1.3757 -1.5592 -0.7494
  550MOL0     H72541   5.479   3.819   1.668 -0.9942 -1.4602 -2.2509
  550MOL0     H72542   5.601   3.738   1.561  1.7635  0.8188 -1.6751
  550MOL0     H72543   5.443   3.980   1.480  1.6578  0.1405  2.7537
  550MOL0     H72544   5.521   3.858   1.374 -3.1855  0.6924 -1.3114
  550MOL0     H72545   5.291   3.811   1.556  3.1701  3.6931  0.5513
  550MOL0     H72546   5.383   3.682   1.469  0.1385  0.1322  0.2154
  550MOL0     H72547   5.309   3.798   1.250  2.2487 -1.8317  1.7560
  550MOL0     H72548   5.221   3.922   1.341 -2.3929 -1.2601 -1.0075
  550MOL0     H72549   5.145   3.635   1.345  1.2086  0.3937 -0.8560
  550MOL0     H72550   5.071   3.772   1.436  0.3986  1.8529 -0.8788
  550MOL0     H72551   5.077   3.766   1.131 -0.6926  2.4955  0.1908
  550MOL0     H72552   4.991   3.881   1.249 -0.8250 -0.2949 -1.1795
  550MOL0     H72553   4.740   3.834   1.165 -2.3092 -0.0963 -3.6439
  550MOL0     H72554   4.571   3.510   1.024  0.6214 -1.3037 -0.1403
  550MOL0     H72555   4.606   3.667   0.955 -3.9373 -0.9775 -0.8257
  550MOL0     H72556   4.476   3.795   1.091 -0.2195  0.8765 -0.2263
  550MOL0     H72557   4.483   3.676   1.223  2.2369  0.2999 -0.4430
  550MOL0     H72558   4.331   3.519   1.079  0.4823 -1.0446 -2.4919
  550MOL0     H72559   4.250   3.676   1.121 -0.5071  2.0031 -2.5293
  550MOL0     H72560   4.415   3.646   0.861 -1.4262  1.2065 -2.0304
  550MOL0     H72561   4.313   3.778   0.905  0.3745 -0.0273 -1.2625
  550MOL0     H72562   4.126   3.827   1.015  0.5919 -0.1723  0.2642
  550MOL0     H72563   3.906   3.889   1.033 -0.9605  1.2377 -1.1659
  550MOL0     H72564   3.516   3.853   0.587 -0.7497 -0.2043 -0.1435
  550MOL0     H72565   3.270   3.937   0.534 -0.3149 -1.6801 -0.6180
  550MOL0     H72566   2.997   3.900   0.874  2.2894  1.1791 -1.2435
  550MOL0     H72567   3.016   3.732   0.800 -1.1991 -0.2746 -2.3783
  550MOL0     H72568   2.854   3.809   0.622  1.6882 -0.9507  0.8263
  550MOL0     H72569   2.839   3.956   0.726  0.5874  0.3809 -0.5071
  550MOL0     H72570   2.730   3.826   0.900 -0.7025 -1.8676  1.2737
  550MOL0     H72571   2.757   3.674   0.811  2.0655  0.1224 -0.2304
  550MOL0     H72572   2.589   3.902   0.689 -1.4050 -1.2572 -3.0120
  550MOL0     H72573   2.624   3.751   0.621  2.2540 -1.6382  0.8168
  550MOL0     H72574   2.398   3.764   0.740  0.6264 -1.4117 -0.8924
  550MOL0     H72575   2.497   3.774   0.887 -2.4460  2.0665 -1.8905
  550MOL0     H72576   2.588   3.555   0.864  0.3481  1.7739  0.8964
  550MOL0     H72577   2.510   3.529   0.698  0.4866 -0.8847  1.0923
  550MOL0     H72578   2.347   3.567   0.949  2.2489  0.4709  0.3198
  550MOL0     H72579   2.288   3.574   0.779 -1.3681 -0.9298  1.2668
  550MOL0     H72580   2.360   3.353   0.743  0.7817  4.1735 -1.9426
  550MOL0     H72581   2.268   3.346   0.892 -0.1050  0.8849 -0.8357
  550MOL0     H72582   3.188   3.841   0.950 -0.3332 -0.1189  0.0134
  550MOL0     H72583   3.395   3.779   0.990 -1.1673 -1.9947  0.1770
  550MOL0     H72584   3.768   3.565   0.774 -0.3318 -0.2981  0.9269
  550MOL0     H72585   4.009   3.503   0.743  0.0083 -0.3734  1.8347
  550MOL0     H72586   6.063   4.107   1.698 -0.7812 -1.7330 -2.1245
  550MOL0     H72587   6.276   4.084   1.796 -0.6289  0.9325  0.6927
  550MOL0     H72588   6.573   4.081   2.241  0.8948  0.2458  1.9714
  550MOL0     H72589   6.812   4.064   2.278 -2.5745 -0.9019  2.2313
  550MOL0     H72590   7.022   4.098   2.148  2.0420  1.6849  0.7343
  550MOL0     H72591   7.149   3.996   2.094 -0.1668 -2.2447 -1.9375
  550MOL0     H72592   7.012   4.023   2.367 -0.6861 -0.5845  0.3367
  550MOL0     H72593   7.116   3.874   2.330  0.3080 -0.6285 -2.5434
  550MOL0     H72594   7.237   4.060   2.474  0.5714  1.8046  1.4290
  550MOL0     H72595   7.206   4.163   2.336  1.0676 -0.5243 -3.4158
  550MOL0     H72596   7.437   4.042   2.375  0.2853  1.5431 -0.4798
  550MOL0     H72597   7.374   3.933   2.254  2.1950  0.7081 -1.5937
  550MOL0     H72598   7.419   4.296   2.028 -0.6076 -1.5716 -1.6063
  550MOL0     H72599   6.828   3.767   1.984  0.1683  1.1261 -2.5583
  550MOL0     H72600   6.588   3.789   1.936  2.1582  0.3384 -1.8051
  551MOL0     O72601   9.781   2.099   9.467 -0.0585  0.6950 -0.4574
  551MOL0     C72602   9.767   2.180   9.378  0.6738  0.9447  0.1262
  551MOL0     O72603   9.673   2.169   9.283  0.6979 -0.0621  0.2909
  551MOL0     C72604   9.556   2.096   9.287 -0.0094  0.1045  0.1629
  551MOL0     C72605   9.488   2.098   9.167 -0.1382  0.6281  0.7153
  551MOL0     C72606   9.376   2.011   9.158 -0.0222  0.0122 -0.3199
  551MOL0     C72607   9.311   1.961   9.263 -0.8236 -0.0723 -0.2150
  551MOL0     O72608   9.194   1.894   9.239 -0.4838  0.6831  0.0299
  551MOL0     C72609   9.150   1.811   9.349 -0.3069  0.2112  1.1972
  551MOL0     C72610   9.017   1.742   9.313  0.8189 -0.4278  0.7536
  551MOL0     C72611   8.936   1.683   9.424  0.0552  0.9003 -1.1625
  551MOL0     C72612   8.793   1.655   9.388  0.3223  0.2868  0.5835
  551MOL0     C72613   8.710   1.579   9.502  0.1894  0.2129  0.2865
  551MOL0     C72614   8.590   1.510   9.437 -0.2616 -0.4941  0.1580
  551MOL0     C72615   8.473   1.600   9.389 -0.1626 -0.3314  0.0031
  551MOL0     C72616   8.359   1.517   9.332 -0.7646  0.0649 -0.1722
  551MOL0     N72617   8.226   1.579   9.354  0.5130  0.0471 -0.3709
  551MOL0     C72618   8.176   1.700   9.306 -0.1819  0.1247  0.3351
  551MOL0     C72619   8.052   1.715   9.352  0.1360  0.0547 -0.4452
  551MOL0     C72620   7.984   1.850   9.333 -0.4430  0.2671  0.2979
  551MOL0     C72621   7.981   1.942   9.446 -0.7347 -1.0598 -0.1090
  551MOL0     C72622   7.909   2.079   9.403 -0.4516  0.9509  1.0027
  551MOL0     C72623   7.831   2.133   9.522  1.2087 -0.0844  0.1639
  551MOL0     O72624   7.714   2.198   9.466  0.1814 -0.3365 -0.0493
  551MOL0     C72625   7.621   2.256   9.553 -0.3438  0.7289  0.2902
  551MOL0     C72626   7.580   2.189   9.668  0.7696 -0.7175  0.6280
  551MOL0     C72627   7.489   2.247   9.756  0.0321  0.3327  0.0545
  551MOL0     C72628   7.435   2.376   9.741 -1.5260 -0.2551  0.7151
  551MOL0     C72629   7.353   2.438   9.846 -0.0752  0.3002  0.2832
  551MOL0     O72630   7.337   2.367   9.955 -0.2877 -0.0114  0.2866
  551MOL0     C72631   7.271   2.419  10.056  0.2184  0.9826  0.3040
  551MOL0     C72632   7.333   2.419  10.184 -0.5102 -0.5388  0.1231
  551MOL0     C72633   7.265   2.471  10.290  0.4902  0.9960 -0.1230
  551MOL0     C72634   7.126   2.518  10.279  0.5921 -0.2550  0.9776
  551MOL0     O72635   7.059   2.557  10.394 -1.1587  0.1761 -0.4708
  551MOL0     C72636   6.926   2.603  10.379 -0.5459 -0.5149 -0.6372
  551MOL0     C72637   6.870   2.621  10.524 -0.2269 -0.8282  1.0069
  551MOL0     C72638   6.849   2.479  10.585 -0.0080  0.0215 -0.4946
  551MOL0     C72639   6.793   2.484  10.733  1.0255  0.5699  1.1186
  551MOL0     C72640   6.736   2.351  10.782 -0.1834 -0.4463 -0.4166
  551MOL0     C72641   6.612   2.302  10.707  0.0896 -0.2068 -0.4417
  551MOL0     C72642   6.504   2.404  10.706  0.2929  0.6875 -0.3681
  551MOL0     C72643   6.385   2.357  10.634  0.0737  0.6083  0.3210
  551MOL0    Cl72644   6.411   2.282  10.471 -0.1283 -0.2263  0.2370
  551MOL0     C72645   7.061   2.510  10.154  0.0909 -0.9939  0.3686
  551MOL0     C72646   7.135   2.461  10.043 -1.2919 -0.3998 -0.2129
  551MOL0     O72647   7.305   2.549   9.824 -0.1378  0.3701  0.7881
  551MOL0     C72648   7.480   2.444   9.623  0.9354  1.3203 -0.0415
  551MOL0     C72649   7.573   2.384   9.531 -0.5236 -0.5494 -0.3001
  551MOL0     N72650   8.029   1.614   9.447 -0.9331 -0.3861 -0.4732
  551MOL0     N72651   8.137   1.537   9.447  0.6003 -0.4700 -0.4440
  551MOL0     C72652   9.366   1.980   9.386  0.1074  0.0190 -0.5804
  551MOL0     C72653   9.492   2.048   9.397 -0.3582  0.3390 -0.8232
  551MOL0     C72654   9.873   2.279   9.367 -0.4621 -0.3605 -0.4486
  551MOL0     C72655   9.990   2.293   9.449 -0.0296  0.2337 -0.1589
  551MOL0     C72656  10.071   2.409   9.448  0.9406 -0.3960  0.1292
  551MOL0     C72657  10.035   2.516   9.359 -1.0804  0.1211  0.4515
  551MOL0     O72658  10.120   2.628   9.348  0.0526 -0.3581 -0.1489
  551MOL0     C72659  10.092   2.725   9.248  0.8532 -0.2911 -0.0738
  551MOL0     C72660  10.192   2.836   9.241 -0.3958  0.3331 -0.0752
  551MOL0     C72661  10.337   2.792   9.190 -0.1131  0.1438 -0.4943
  551MOL0     C72662  10.422   2.697   9.280 -0.0952 -0.1883 -0.2701
  551MOL0     C72663  10.562   2.714   9.241 -0.0655 -0.7917 -0.6509
  551MOL0     C72664  10.678   2.749   9.227 -0.2391  0.3589 -0.6346
  551MOL0     C72665   9.920   2.499   9.279 -1.0371  0.3421  0.8383
  551MOL0     C72666   9.848   2.379   9.274  0.5739 -1.2495 -0.3210
  551MOL0     H72667   9.540   2.145   9.084 -0.9842  0.2855 -0.0276
  551MOL0     H72668   9.332   1.999   9.060 -2.4873 -1.5009  0.8564
  551MOL0     H72669   9.128   1.869   9.439 -2.2568  2.5112 -0.6436
  551MOL0     H72670   9.228   1.736   9.369 -0.9725 -1.3101 -1.4223
  551MOL0     H72671   9.024   1.665   9.236 -1.9915 -1.2946  1.2671
  551MOL0     H72672   8.946   1.817   9.278 -0.7548 -1.5968  1.3307
  551MOL0     H72673   8.943   1.742   9.515  3.1060  0.9297 -1.3172
  551MOL0     H72674   8.987   1.589   9.448 -2.5093 -0.3605 -0.2623
  551MOL0     H72675   8.746   1.753   9.375 -0.2334 -0.1785 -1.3301
  551MOL0     H72676   8.782   1.608   9.289 -2.4765  1.1237  0.4106
  551MOL0     H72677   8.669   1.648   9.576 -0.6768 -0.1932  0.2018
  551MOL0     H72678   8.768   1.500   9.551  0.0065 -1.8383 -2.5000
  551MOL0     H72679   8.563   1.437   9.514  2.5992 -0.8275  0.9659
  551MOL0     H72680   8.630   1.451   9.353  2.2100 -0.2927  1.1023
  551MOL0     H72681   8.434   1.657   9.474 -0.8000 -1.2934  0.3675
  551MOL0     H72682   8.499   1.673   9.311 -2.1905  0.6187  0.1482
  551MOL0     H72683   8.353   1.419   9.381  1.3786  0.9535  2.0794
  551MOL0     H72684   8.383   1.501   9.226  1.0185 -0.6109  0.2921
  551MOL0     H72685   8.229   1.765   9.237 -0.4362  0.5490  0.5366
  551MOL0     H72686   7.879   1.825   9.314  0.2531 -0.3728 -3.4278
  551MOL0     H72687   8.023   1.910   9.250 -0.4007 -1.7903 -1.2412
  551MOL0     H72688   8.087   1.952   9.471 -0.6199 -0.1583 -0.8668
  551MOL0     H72689   7.934   1.903   9.537  0.6216 -1.7178  0.3331
  551MOL0     H72690   7.972   2.163   9.372  0.4335 -0.7222 -2.1956
  551MOL0     H72691   7.839   2.061   9.322  2.2924 -0.1864 -1.2909
  551MOL0     H72692   7.905   2.196   9.572  2.9406 -1.4070 -0.5967
  551MOL0     H72693   7.801   2.058   9.596 -2.3770  0.4530 -0.5475
  551MOL0     H72694   7.616   2.088   9.680  0.6742 -1.3844 -3.3156
  551MOL0     H72695   7.459   2.183   9.838 -0.9878 -0.3136 -0.8010
  551MOL0     H72696   7.435   2.385  10.201  0.1055  1.3301  0.3354
  551MOL0     H72697   7.306   2.467  10.390 -0.0237 -3.7609  0.1048
  551MOL0     H72698   6.869   2.525  10.327  0.2957 -2.7720  1.5847
  551MOL0     H72699   6.933   2.695  10.320  0.5283 -0.1290  0.0516
  551MOL0     H72700   6.772   2.668  10.515 -0.2888 -0.8172  1.6851
  551MOL0     H72701   6.924   2.688  10.593  0.9336 -2.6371  1.9452
  551MOL0     H72702   6.939   2.418  10.589  1.1623  1.6156 -1.3280
  551MOL0     H72703   6.766   2.435  10.528 -1.9037  0.3180  1.8703
  551MOL0     H72704   6.867   2.526  10.802 -1.1733  3.4582  1.9484
  551MOL0     H72705   6.718   2.564  10.740  0.3940  0.1223 -0.2916
  551MOL0     H72706   6.698   2.367  10.883  0.2779  0.1698 -0.3338
  551MOL0     H72707   6.815   2.275  10.785  0.2963 -0.0469 -1.8982
  551MOL0     H72708   6.577   2.207  10.747  0.7646 -0.4565 -0.4245
  551MOL0     H72709   6.632   2.276  10.603 -1.8941 -0.4047 -0.8091
  551MOL0     H72710   6.484   2.435  10.809 -1.1491 -1.0809 -0.0711
  551MOL0     H72711   6.530   2.494  10.649 -3.6633  0.1748 -3.3858
  551MOL0     H72712   6.315   2.440  10.628  0.2181  1.1594  3.8434
  551MOL0     H72713   6.347   2.282  10.704  0.7027  0.5428  0.6036
  551MOL0     H72714   6.960   2.542  10.132  0.7649  1.1840  0.2828
  551MOL0     H72715   7.091   2.453   9.944 -3.1846  0.8880  0.4623
  551MOL0     H72716   7.463   2.550   9.607  1.7298  1.4308 -0.1845
  551MOL0     H72717   7.622   2.434   9.448  1.7884 -2.0251  0.0794
  551MOL0     H72718   9.321   1.945   9.479 -1.6318  3.1895 -0.0734
  551MOL0     H72719   9.538   2.064   9.494 -1.6863  0.3178 -0.1518
  551MOL0     H72720  10.002   2.206   9.513  0.5625  0.6490  0.3142
  551MOL0     H72721  10.166   2.414   9.500  0.4484 -0.2040  1.0342
  551MOL0     H72722   9.993   2.768   9.267  0.9313 -0.8619  1.7579
  551MOL0     H72723  10.092   2.668   9.154  0.5072 -2.1456  1.0103
  551MOL0     H72724  10.154   2.907   9.168  2.2819  1.8648 -0.1366
  551MOL0     H72725  10.194   2.885   9.339 -1.9216  1.8745 -0.7702
  551MOL0     H72726  10.394   2.885   9.191 -1.0902  0.8330  3.1852
  551MOL0     H72727  10.327   2.757   9.086 -2.1344 -2.5477  0.4860
  551MOL0     H72728  10.408   2.716   9.387  2.2106 -2.5529  0.5500
  551MOL0     H72729  10.386   2.595   9.259 -1.6762 -0.3402  2.6356
  551MOL0     H72730  10.781   2.774   9.211 -0.2619 -0.3321 -2.0710
  551MOL0     H72731   9.882   2.577   9.214  0.6592 -0.0614 -0.7157
  551MOL0     H72732   9.764   2.376   9.205  2.7337 -1.8368 -3.1090
  552MOL0     O72733   8.106   1.490   4.570 -0.3210 -0.3310 -0.2558
  552MOL0     C72734   8.139   1.465   4.453  0.1311  0.1433 -0.8200
  552MOL0     O72735   8.048   1.449   4.350 -0.3939 -0.5876 -0.6800
  552MOL0     C72736   7.911   1.459   4.374 -0.0732  0.0970 -0.3910
  552MOL0     C72737   7.839   1.538   4.285  0.0539 -0.8856 -1.0577
  552MOL0     C72738   7.702   1.557   4.299  1.1935  0.3176  0.0902
  552MOL0     C72739   7.635   1.510   4.414 -0.2545  0.1181 -0.6667
  552MOL0     O72740   7.510   1.557   4.422  0.3863 -0.2720  0.6630
  552MOL0     C72741   7.421   1.527   4.534 -0.0986 -0.3485 -0.7193
  552MOL0     C72742   7.285   1.593   4.529  0.8605 -0.8993  0.1455
  552MOL0     C72743   7.169   1.495   4.522 -0.3063  0.2785 -0.0400
  552MOL0     C72744   7.026   1.564   4.530  0.7064 -0.1112  0.9865
  552MOL0     C72745   6.912   1.463   4.539  0.1550 -0.8637 -0.3426
  552MOL0     C72746   6.773   1.523   4.567  0.6332 -0.3283  0.6722
  552MOL0     C72747   6.665   1.415   4.588 -0.0898  0.0318 -0.0036
  552MOL0     C72748   6.525   1.472   4.609  0.5577  0.1070 -0.1201
  552MOL0     N72749   6.429   1.369   4.645 -0.2491  0.0225  0.4394
  552MOL0     C72750   6.332   1.324   4.564  0.4001 -0.0761  0.4117
  552MOL0     C72751   6.261   1.230   4.630  0.2551  1.1162  0.3333
  552MOL0     C72752   6.140   1.162   4.579  0.1499  0.1767  0.7075
  552MOL0     C72753   6.003   1.224   4.590  0.0163 -0.2633  0.2920
  552MOL0     C72754   5.951   1.225   4.725  0.9171 -0.3034  0.1825
  552MOL0     C72755   5.820   1.303   4.755  0.5713 -0.1102  0.8523
  552MOL0     O72756   5.702   1.237   4.691 -0.0155  0.9132 -0.1123
  552MOL0     C72757   5.577   1.285   4.726  0.0797  0.0479 -0.0347
  552MOL0     C72758   5.556   1.415   4.772  0.4307  0.6369 -0.9280
  552MOL0     C72759   5.432   1.457   4.807  0.8794  0.1010  0.0595
  552MOL0     C72760   5.320   1.368   4.781 -0.8082 -0.5268 -0.2915
  552MOL0     C72761   5.180   1.420   4.803 -0.0394 -0.3806 -0.2111
  552MOL0     O72762   5.159   1.548   4.804  0.8151 -0.0529  0.0890
  552MOL0     C72763   5.032   1.591   4.783 -0.2883 -0.6166  0.5539
  552MOL0     C72764   4.951   1.629   4.897 -0.0297 -0.1318 -0.1301
  552MOL0     C72765   4.817   1.669   4.874  0.7135  0.1110 -0.4226
  552MOL0     C72766   4.766   1.661   4.746 -0.2028 -0.1553  0.2036
  552MOL0     O72767   4.640   1.690   4.738  0.5912  0.0062  0.0691
  552MOL0     C72768   4.577   1.680   4.607 -0.5798  0.2588 -1.0166
  552MOL0     C72769   4.429   1.668   4.611  0.0732 -0.8679 -0.1527
  552MOL0     C72770   4.371   1.811   4.591 -0.4857 -0.0231 -0.2720
  552MOL0     C72771   4.398   1.865   4.454  0.2424 -0.1850  1.3032
  552MOL0     C72772   4.304   1.982   4.440  0.8664  0.5572 -0.1478
  552MOL0     C72773   4.160   1.942   4.413 -0.3406  1.0926  0.7320
  552MOL0     C72774   4.053   2.058   4.442 -0.2508  0.0350  0.7817
  552MOL0     C72775   3.925   2.046   4.362 -0.2259 -0.2151  0.5295
  552MOL0    Cl72776   3.827   2.191   4.405  0.1796  0.3299 -0.0331
  552MOL0     C72777   4.857   1.646   4.633  0.5055  0.6209  0.0075
  552MOL0     C72778   4.985   1.607   4.654 -0.2010  0.1475  0.0401
  552MOL0     O72779   5.093   1.333   4.800  0.2942  0.1661  0.3570
  552MOL0     C72780   5.345   1.240   4.737 -0.3171  0.8837  0.2793
  552MOL0     C72781   5.468   1.195   4.714 -0.0975 -0.4638  0.3682
  552MOL0     N72782   6.312   1.223   4.758  0.5353 -0.1286  0.9486
  552MOL0     N72783   6.406   1.314   4.768  0.1347  0.3746 -0.2667
  552MOL0     C72784   7.704   1.420   4.498 -0.0398 -0.4840  0.1962
  552MOL0     C72785   7.839   1.391   4.473 -0.4093 -0.2859  0.1629
  552MOL0     C72786   8.285   1.465   4.425 -0.9940 -0.5076  0.5188
  552MOL0     C72787   8.334   1.392   4.316  0.0517  0.3218  0.3293
  552MOL0     C72788   8.473   1.376   4.300  0.5474 -0.2637  0.5988
  552MOL0     C72789   8.564   1.450   4.379 -0.2400  0.1049 -0.3773
  552MOL0     O72790   8.700   1.440   4.376 -0.3056  0.4507 -0.5391
  552MOL0     C72791   8.750   1.339   4.287 -0.9747 -0.4148 -0.0603
  552MOL0     C72792   8.896   1.333   4.311 -0.0506 -0.4321 -0.0794
  552MOL0     C72793   8.974   1.461   4.286 -0.2190 -0.5366  0.0277
  552MOL0     C72794   8.946   1.548   4.163  0.9406  0.0592  0.4606
  552MOL0     C72795   9.046   1.654   4.144 -0.3651  0.3251  0.4714
  552MOL0     C72796   9.130   1.735   4.125 -0.1344  0.0365  0.1921
  552MOL0     C72797   8.509   1.532   4.479  0.1725 -0.5231 -0.6298
  552MOL0     C72798   8.377   1.539   4.509 -0.0716 -0.5642  0.4858
  552MOL0     H72799   7.880   1.583   4.194 -0.3634 -0.6413 -1.1315
  552MOL0     H72800   7.649   1.623   4.231  1.6657  1.3665  0.7225
  552MOL0     H72801   7.478   1.540   4.626  1.0893  1.4891 -1.6641
  552MOL0     H72802   7.406   1.419   4.532  1.4922 -0.5932 -0.7923
  552MOL0     H72803   7.273   1.655   4.440 -3.1805  1.2594  1.8956
  552MOL0     H72804   7.268   1.656   4.617 -0.3966 -0.8025 -0.1499
  552MOL0     H72805   7.182   1.418   4.599  0.8981  1.1239  0.6273
  552MOL0     H72806   7.170   1.433   4.432  1.3175  0.1564  0.0329
  552MOL0     H72807   7.028   1.618   4.625 -0.4912  2.7596 -0.5119
  552MOL0     H72808   7.009   1.638   4.452  1.6791 -1.9134 -1.0561
  552MOL0     H72809   6.943   1.403   4.624  4.7500  1.4162 -0.0935
  552MOL0     H72810   6.908   1.394   4.454  2.0821 -2.8021  1.0303
  552MOL0     H72811   6.741   1.592   4.489 -0.7491  2.1736  3.2348
  552MOL0     H72812   6.774   1.584   4.658  0.3059 -1.9059  1.7778
  552MOL0     H72813   6.667   1.348   4.502  0.4954 -1.7669  1.3568
  552MOL0     H72814   6.695   1.360   4.677 -1.7357  0.4556  0.8544
  552MOL0     H72815   6.473   1.540   4.541  0.1618  0.9644  1.0020
  552MOL0     H72816   6.539   1.540   4.693 -2.9543 -0.5415  1.1603
  552MOL0     H72817   6.299   1.353   4.465  1.2406  0.5292  0.3002
  552MOL0     H72818   6.141   1.067   4.634  0.7753  0.2019  0.7441
  552MOL0     H72819   6.158   1.146   4.472  2.3096 -5.8434  1.5969
  552MOL0     H72820   5.930   1.165   4.533 -1.4037  1.5060  0.1984
  552MOL0     H72821   6.016   1.319   4.537  2.0441 -1.5246 -1.6591
  552MOL0     H72822   5.945   1.123   4.764  1.7844 -0.3703  0.1664
  552MOL0     H72823   6.024   1.277   4.788  2.6036 -2.7766  0.4244
  552MOL0     H72824   5.826   1.408   4.724  0.8215 -1.1575 -3.1274
  552MOL0     H72825   5.802   1.312   4.863 -2.1652  3.4061  0.3085
  552MOL0     H72826   5.645   1.477   4.779  1.8065 -1.3374 -0.0123
  552MOL0     H72827   5.405   1.544   4.866 -1.3849 -0.9405  0.6920
  552MOL0     H72828   4.990   1.622   4.998 -4.6385 -0.5496  1.8704
  552MOL0     H72829   4.755   1.702   4.957  0.1693 -0.3832 -0.6283
  552MOL0     H72830   4.607   1.590   4.552 -0.1477  0.4482 -1.0949
  552MOL0     H72831   4.626   1.761   4.553  0.4222 -0.1348 -0.7123
  552MOL0     H72832   4.401   1.636   4.712  2.5596  3.0722  2.0604
  552MOL0     H72833   4.387   1.592   4.544  1.2550 -0.8171 -0.9913
  552MOL0     H72834   4.390   1.879   4.674 -0.1118  0.4435 -0.7364
  552MOL0     H72835   4.263   1.798   4.606 -0.5643  1.0220  0.1792
  552MOL0     H72836   4.502   1.899   4.454  0.3588 -0.4840  0.0773
  552MOL0     H72837   4.385   1.790   4.375  1.1627 -0.4473  1.3916
  552MOL0     H72838   4.336   2.053   4.363 -1.0173  2.7827  0.9872
  552MOL0     H72839   4.309   2.035   4.536  2.0657  2.2703 -1.1025
  552MOL0     H72840   4.129   1.844   4.449  2.6393 -0.1940  0.0790
  552MOL0     H72841   4.165   1.921   4.305  0.1342 -1.5050  1.1923
  552MOL0     H72842   4.036   2.053   4.550 -0.4616  3.4564  1.0115
  552MOL0     H72843   4.096   2.157   4.426  2.1225 -1.0009  0.3098
  552MOL0     H72844   3.874   1.951   4.378  0.0943 -0.3501  0.7415
  552MOL0     H72845   3.946   2.050   4.254 -1.3783 -2.9565  0.1309
  552MOL0     H72846   4.822   1.665   4.532  3.1127  0.7536 -0.9458
  552MOL0     H72847   5.039   1.586   4.562 -0.5448  1.7503 -0.5524
  552MOL0     H72848   5.263   1.171   4.720  1.2011 -0.8520 -0.1991
  552MOL0     H72849   5.487   1.093   4.682 -0.6733 -0.5303  0.2227
  552MOL0     H72850   7.664   1.378   4.589  2.1010  0.3409  1.6004
  552MOL0     H72851   7.882   1.316   4.539  0.2109  0.4512  0.6154
  552MOL0     H72852   8.256   1.340   4.262 -0.1216  0.8635  0.0598
  552MOL0     H72853   8.511   1.308   4.223 -0.2485  0.7864 -0.7670
  552MOL0     H72854   8.731   1.367   4.183  0.9296  0.4857 -0.2058
  552MOL0     H72855   8.700   1.243   4.302 -2.6121  0.5259  0.7850
  552MOL0     H72856   8.923   1.313   4.415  0.5115  1.3713  0.1676
  552MOL0     H72857   8.937   1.255   4.247  0.7468 -2.1461  2.3691
  552MOL0     H72858   9.080   1.432   4.291 -0.7518 -2.4650  2.0327
  552MOL0     H72859   8.970   1.527   4.373  0.3136 -1.1052  0.5006
  552MOL0     H72860   8.944   1.481   4.076  0.8382  0.0877  0.4405
  552MOL0     H72861   8.842   1.581   4.171  1.2010  0.8400  0.7150
  552MOL0     H72862   9.214   1.801   4.114 -0.0959  0.0165  0.3616
  552MOL0     H72863   8.584   1.592   4.530  0.0583 -1.8192  1.1670
  552MOL0     H72864   8.339   1.624   4.565  1.2060  0.9644 -0.8506
  553MOL0     O72865   3.085   1.248   5.706  0.3579  0.7472  0.1472
  553MOL0     C72866   3.165   1.159   5.674  0.2988  0.5755 -0.5731
  553MOL0     O72867   3.130   1.037   5.633  0.2418  0.1691 -0.2994
  553MOL0     C72868   3.008   1.012   5.573 -0.1789 -0.2594 -0.3696
  553MOL0     C72869   2.918   1.111   5.512 -0.4128  0.8926 -0.6843
  553MOL0     C72870   2.799   1.072   5.450 -0.7114 -0.2166  0.2665
  553MOL0     C72871   2.765   0.941   5.445 -0.5964  0.3027 -0.1605
  553MOL0     O72872   2.645   0.911   5.389  0.1788 -0.1473 -0.1018
  553MOL0     C72873   2.571   0.803   5.447 -0.5138 -0.1767 -0.7531
  553MOL0     C72874   2.424   0.821   5.410 -0.6129  0.5796 -0.4555
  553MOL0     C72875   2.413   0.761   5.278 -0.0144 -0.2892  0.2793
  553MOL0     C72876   2.265   0.761   5.233  0.5733  0.3414  0.2701
  553MOL0     C72877   2.239   0.724   5.081  0.1008 -0.1917  0.0750
  553MOL0     C72878   2.093   0.690   5.045 -0.5945  0.3437  0.6999
  553MOL0     C72879   2.090   0.649   4.890 -0.3629  0.7785 -0.7670
  553MOL0     C72880   1.948   0.605   4.852 -0.1047 -0.6575 -0.0394
  553MOL0     N72881   1.852   0.703   4.896  0.2006 -0.6366 -0.2341
  553MOL0     C72882   1.863   0.836   4.862  0.1173  0.6644  0.0978
  553MOL0     C72883   1.777   0.910   4.933  0.0537  0.7834 -0.1297
  553MOL0     C72884   1.734   1.056   4.917  0.0284  0.0131 -0.0900
  553MOL0     C72885   1.799   1.146   5.021 -0.3056  0.0897 -0.1745
  553MOL0     C72886   1.955   1.154   4.996  0.2387 -0.1164  0.1109
  553MOL0     C72887   2.010   1.289   5.054 -0.5640 -0.8509 -0.4211
  553MOL0     O72888   2.145   1.272   5.058 -0.3674 -0.5141 -0.0918
  553MOL0     C72889   2.223   1.388   5.081  0.3307 -0.6795 -0.2972
  553MOL0     C72890   2.174   1.522   5.080  0.0325  0.0709 -0.0650
  553MOL0     C72891   2.263   1.627   5.097  1.0699 -0.9069 -0.8192
  553MOL0     C72892   2.395   1.601   5.136  0.0947 -0.1132  0.0291
  553MOL0     C72893   2.487   1.706   5.163  0.9032 -0.2737  0.4514
  553MOL0     O72894   2.622   1.678   5.176 -0.2161  0.6900  0.3852
  553MOL0     C72895   2.717   1.781   5.183 -0.0054 -0.3215  0.6515
  553MOL0     C72896   2.729   1.894   5.088 -0.4109 -0.9535 -0.0984
  553MOL0     C72897   2.818   1.997   5.106 -0.5359 -0.6996 -0.1454
  553MOL0     C72898   2.913   1.982   5.217 -0.1270  0.1404  0.0146
  553MOL0     O72899   3.001   2.084   5.237  0.8190 -1.0281  0.2425
  553MOL0     C72900   3.079   2.116   5.120  0.1461  0.2936  0.0498
  553MOL0     C72901   3.221   2.130   5.180 -0.8135 -0.2132  0.3841
  553MOL0     C72902   3.334   2.158   5.076 -0.1387 -0.3479  0.1097
  553MOL0     C72903   3.466   2.173   5.152  0.3528  0.1537  0.1708
  553MOL0     C72904   3.586   2.192   5.056 -0.0557  0.2374  0.6933
  553MOL0     C72905   3.715   2.237   5.126  0.6869  0.3664 -0.2820
  553MOL0     C72906   3.773   2.126   5.216  0.3184 -0.7595  0.1899
  553MOL0     C72907   3.924   2.111   5.207  0.1871 -0.2968 -0.3790
  553MOL0    Cl72908   3.984   2.006   5.336 -0.0741 -0.3976  0.3694
  553MOL0     C72909   2.910   1.868   5.297 -0.0986 -0.2116 -0.6433
  553MOL0     C72910   2.815   1.768   5.274  0.1296  0.6115  0.1870
  553MOL0     O72911   2.442   1.818   5.158 -0.0459  0.1239 -0.2393
  553MOL0     C72912   2.437   1.467   5.155  0.3530 -0.2390  0.1863
  553MOL0     C72913   2.354   1.364   5.116  0.0840 -0.4392  0.3073
  553MOL0     N72914   1.697   0.816   4.999 -0.1668 -0.2118  0.3228
  553MOL0     N72915   1.749   0.701   4.982 -0.1817  0.0078  0.2898
  553MOL0     C72916   2.849   0.842   5.500  0.5239  0.8083  0.5026
  553MOL0     C72917   2.970   0.875   5.559 -0.2332 -0.0971  1.0231
  553MOL0     C72918   3.299   1.184   5.722 -1.0680 -0.7496 -0.2312
  553MOL0     C72919   3.407   1.122   5.659 -0.0458  0.3453 -0.1129
  553MOL0     C72920   3.538   1.135   5.707  0.8478  0.8364  0.0654
  553MOL0     C72921   3.566   1.225   5.808  0.6210  0.0869  0.1327
  553MOL0     O72922   3.696   1.238   5.840  0.2278  0.0964 -0.4930
  553MOL0     C72923   3.747   1.324   5.944  0.1290  0.6052 -0.4764
  553MOL0     C72924   3.874   1.251   6.003  0.5631  0.0457  0.1087
  553MOL0     C72925   4.003   1.296   5.938  0.5646  0.2456 -0.1480
  553MOL0     C72926   4.010   1.240   5.799 -0.2589 -0.1363  0.5412
  553MOL0     C72927   4.148   1.280   5.747  0.0550  0.2191  0.5722
  553MOL0     C72928   4.263   1.306   5.707  0.0917 -0.2935  0.4135
  553MOL0     C72929   3.462   1.299   5.865 -0.2629 -0.3288  0.4630
  553MOL0     C72930   3.329   1.282   5.823 -0.5611  0.4446 -0.1368
  553MOL0     H72931   2.949   1.215   5.517  1.2296  0.4096 -0.3052
  553MOL0     H72932   2.740   1.143   5.394 -0.5974 -2.3841 -2.8455
  553MOL0     H72933   2.575   0.807   5.557  0.4451  0.3489 -0.7944
  553MOL0     H72934   2.625   0.709   5.433  0.8050  0.4399 -0.0459
  553MOL0     H72935   2.393   0.926   5.405 -1.3717  0.3101 -2.4708
  553MOL0     H72936   2.353   0.770   5.477 -1.2804 -0.1541 -1.6873
  553MOL0     H72937   2.456   0.661   5.277 -2.0967 -1.2483  1.5282
  553MOL0     H72938   2.476   0.822   5.212 -0.5355  2.2328  1.9376
  553MOL0     H72939   2.211   0.691   5.296  1.1783 -0.0491  0.3582
  553MOL0     H72940   2.227   0.863   5.246  1.0638  0.5445  0.1383
  553MOL0     H72941   2.307   0.645   5.048 -1.8007 -1.0179 -2.1066
  553MOL0     H72942   2.265   0.811   5.021  0.1268  0.5091  1.0844
  553MOL0     H72943   2.035   0.780   5.064  0.1670  1.0234 -0.0878
  553MOL0     H72944   2.066   0.600   5.101 -0.8641  1.3087  2.1695
  553MOL0     H72945   2.142   0.729   4.838  0.3633 -0.3265 -1.7967
  553MOL0     H72946   2.157   0.562   4.889  0.5649  1.4504  0.2432
  553MOL0     H72947   1.919   0.506   4.890 -1.1865 -0.2424  0.2210
  553MOL0     H72948   1.943   0.594   4.743  1.9427  0.2884 -0.2875
  553MOL0     H72949   1.949   0.870   4.805  0.0127 -0.6988 -0.9209
  553MOL0     H72950   1.626   1.073   4.925 -0.2103 -1.2228 -0.4817
  553MOL0     H72951   1.752   1.094   4.816 -2.2538  1.1925 -0.1284
  553MOL0     H72952   1.785   1.110   5.123 -1.2972 -0.2819 -0.4306
  553MOL0     H72953   1.755   1.246   5.016 -1.8016 -0.2557  3.4178
  553MOL0     H72954   1.996   1.074   5.057  1.6155  1.1595  0.8974
  553MOL0     H72955   1.985   1.143   4.891  0.7183 -0.3627  0.2727
  553MOL0     H72956   1.969   1.309   5.153 -1.3984  1.5579 -1.1815
  553MOL0     H72957   1.980   1.376   4.994 -0.4287  0.2838  1.1066
  553MOL0     H72958   2.075   1.559   5.057  0.0669 -0.0642 -0.4330
  553MOL0     H72959   2.223   1.727   5.089 -0.7259 -1.1141  3.1452
  553MOL0     H72960   2.661   1.900   5.004  0.5882 -0.2759 -0.8730
  553MOL0     H72961   2.824   2.082   5.039  0.8463  1.0486  2.0842
  553MOL0     H72962   3.043   2.209   5.074 -0.5548 -0.0332 -0.0692
  553MOL0     H72963   3.078   2.042   5.039 -0.5703 -1.7469  1.8266
  553MOL0     H72964   3.254   2.043   5.238 -0.4383 -0.2553  0.1122
  553MOL0     H72965   3.226   2.213   5.252  0.1395 -0.5243  0.7043
  553MOL0     H72966   3.320   2.256   5.031  2.5345 -0.4875 -1.2056
  553MOL0     H72967   3.350   2.085   4.996  2.6073  0.4479 -0.1672
  553MOL0     H72968   3.470   2.261   5.216  0.8131  0.1786  0.1099
  553MOL0     H72969   3.480   2.083   5.213 -3.1944 -3.2092 -3.3666
  553MOL0     H72970   3.549   2.262   4.981 -0.9061  0.9978  1.7972
  553MOL0     H72971   3.616   2.103   4.999  0.3645  1.5218 -1.1726
  553MOL0     H72972   3.695   2.330   5.180 -0.6721 -0.0175 -0.0947
  553MOL0     H72973   3.790   2.268   5.052  2.9867 -1.1879  1.2814
  553MOL0     H72974   3.744   2.152   5.318 -0.7583  1.3263 -0.5992
  553MOL0     H72975   3.724   2.029   5.212 -0.2338 -0.5067  0.7165
  553MOL0     H72976   3.979   2.205   5.219 -1.2897  1.2627 -4.1599
  553MOL0     H72977   3.949   2.061   5.113 -0.4347 -1.3728  0.0152
  553MOL0     H72978   2.992   1.857   5.368 -1.3387  0.0073  0.8627
  553MOL0     H72979   2.821   1.684   5.343  0.1112  1.4170  1.1819
  553MOL0     H72980   2.535   1.441   5.196 -0.1127  0.4111  1.8176
  553MOL0     H72981   2.399   1.266   5.131  0.0215 -0.5187 -0.0229
  553MOL0     H72982   2.821   0.738   5.489 -0.2820  1.0631  0.0945
  553MOL0     H72983   3.039   0.802   5.601  1.0790  0.2682 -0.4091
  553MOL0     H72984   3.378   1.053   5.580 -0.0604  0.7084 -0.4325
  553MOL0     H72985   3.616   1.075   5.662  0.4861 -0.5699  1.2284
  553MOL0     H72986   3.673   1.327   6.025 -0.2938  0.7074 -0.8615
  553MOL0     H72987   3.774   1.425   5.913 -0.5074  1.4562  1.5479
  553MOL0     H72988   3.882   1.264   6.111  1.0608 -2.5775  0.4535
  553MOL0     H72989   3.858   1.143   5.994  1.0771  0.0151 -0.4555
  553MOL0     H72990   4.091   1.267   5.996 -0.2668  2.7983  2.6454
  553MOL0     H72991   4.003   1.406   5.939  0.0315  0.2423  0.4673
  553MOL0     H72992   4.004   1.132   5.812  0.9613 -0.4698 -1.3367
  553MOL0     H72993   3.936   1.276   5.727  0.7543  1.2218  0.1300
  553MOL0     H72994   4.367   1.307   5.684 -0.0103 -0.9737 -0.1157
  553MOL0     H72995   3.497   1.373   5.936  1.8887  0.7364 -1.5880
  553MOL0     H72996   3.244   1.342   5.854 -0.5759  0.9795 -1.1389
  554MOL0     O72997  10.789   8.361   2.588 -0.5947  0.3542  0.5092
  554MOL0     C72998  10.781   8.279   2.495 -0.4355  0.8612 -0.5839
  554MOL0     O72999  10.672   8.209   2.465 -0.2888  0.2545  0.1699
  554MOL0     C73000  10.565   8.224   2.544  0.8882 -0.3741 -0.5943
  554MOL0     C73001  10.545   8.133   2.645 -0.5455  0.1948 -0.6477
  554MOL0     C73002  10.420   8.128   2.726 -0.7138  1.0005  0.5782
  554MOL0     C73003  10.323   8.231   2.694 -0.4241 -0.8026 -0.2744
  554MOL0     O73004  10.217   8.232   2.776  0.6096 -0.3081  0.7486
  554MOL0     C73005  10.084   8.275   2.732 -0.2426  0.2392  0.3201
  554MOL0     C73006  10.032   8.165   2.646  0.3414 -0.5338 -0.7047
  554MOL0     C73007   9.877   8.154   2.634 -0.5676  0.4637  0.4067
  554MOL0     C73008   9.816   8.082   2.514  0.3142 -0.3700 -0.6184
  554MOL0     C73009   9.664   8.117   2.484 -0.9853 -0.0581 -0.1069
  554MOL0     C73010   9.580   8.026   2.573  0.1452  0.2388 -0.4755
  554MOL0     C73011   9.432   8.038   2.543 -0.2415  0.0368  0.6286
  554MOL0     C73012   9.349   7.927   2.606  0.1680  0.1893 -0.4503
  554MOL0     N73013   9.203   7.952   2.592  0.0149 -0.0844 -0.8370
  554MOL0     C73014   9.138   7.921   2.474 -0.2042 -0.3823 -0.3086
  554MOL0     C73015   9.018   7.977   2.490  0.1913  0.0221 -0.1980
  554MOL0     C73016   8.910   7.982   2.388 -0.3166  0.5921  0.1664
  554MOL0     C73017   8.803   8.084   2.428  0.0712 -0.8662 -0.3121
  554MOL0     C73018   8.708   8.048   2.549  0.0308  0.1831  0.0412
  554MOL0     C73019   8.584   8.138   2.538 -0.1020 -0.4756  0.4230
  554MOL0     O73020   8.624   8.279   2.534 -0.0603 -0.7562 -0.0893
  554MOL0     C73021   8.527   8.359   2.487  0.0146 -0.9155 -0.4427
  554MOL0     C73022   8.569   8.477   2.417  0.6555 -0.9536  0.5681
  554MOL0     C73023   8.479   8.567   2.365  0.3539 -0.6728 -0.0105
  554MOL0     C73024   8.346   8.563   2.407  0.5065  0.1479 -0.1054
  554MOL0     C73025   8.258   8.683   2.372  0.1324 -0.1494 -0.4390
  554MOL0     O73026   8.304   8.799   2.301  0.9280  0.7890 -0.4910
  554MOL0     C73027   8.212   8.899   2.285  0.5834  0.9844  0.0805
  554MOL0     C73028   8.119   8.898   2.183 -0.1822 -0.3927  0.3887
  554MOL0     C73029   8.039   9.016   2.170 -0.4623  0.4444  0.5820
  554MOL0     C73030   8.045   9.119   2.266 -0.3491  0.2460  0.0359
  554MOL0     O73031   7.961   9.223   2.261  0.3903  0.3554  0.1113
  554MOL0     C73032   8.002   9.352   2.288 -0.3492 -0.0835  0.6080
  554MOL0     C73033   7.900   9.453   2.231  0.6484 -0.3630  0.5053
  554MOL0     C73034   7.882   9.464   2.075  0.7574  0.5484 -0.4463
  554MOL0     C73035   7.781   9.581   2.043 -0.4953 -0.0212 -0.4114
  554MOL0     C73036   7.798   9.616   1.898 -0.9632 -0.3119  0.1240
  554MOL0     C73037   7.678   9.705   1.866  0.4694 -0.3072 -0.1262
  554MOL0     C73038   7.704   9.746   1.725 -0.0607 -0.2789  0.4991
  554MOL0     C73039   7.569   9.749   1.644 -0.1934 -0.0387  0.5609
  554MOL0    Cl73040   7.429   9.837   1.717 -0.6039  0.3252  0.2893
  554MOL0     C73041   8.147   9.111   2.365 -0.2746 -0.1475 -0.4030
  554MOL0     C73042   8.231   9.004   2.370 -0.1365  0.3435 -0.9645
  554MOL0     O73043   8.153   8.674   2.437  0.4614  0.2084 -0.0186
  554MOL0     C73044   8.307   8.456   2.485  0.7341  0.7553  0.5916
  554MOL0     C73045   8.392   8.352   2.526 -0.4108  0.2291  0.2298
  554MOL0     N73046   9.013   8.051   2.614 -0.2368 -0.1409 -0.2220
  554MOL0     N73047   9.124   8.030   2.674  0.0321 -0.1073 -0.2609
  554MOL0     C73048  10.342   8.315   2.592 -1.1484  0.5424 -0.6786
  554MOL0     C73049  10.457   8.307   2.514 -0.5620  0.6054 -0.0035
  554MOL0     C73050  10.901   8.260   2.400  0.2315 -0.5923 -0.0975
  554MOL0     C73051  11.023   8.323   2.431 -0.0464  0.3460 -0.0154
  554MOL0     C73052  11.133   8.302   2.350 -0.1539 -0.0413  0.2839
  554MOL0     C73053  11.133   8.232   2.235 -0.0098  0.0782  0.2023
  554MOL0     O73054  11.259   8.210   2.183 -0.0546 -0.3083  0.1011
  554MOL0     C73055  11.262   8.147   2.052  0.2640  0.4997  0.2520
  554MOL0     C73056  11.414   8.104   2.028  0.5647  0.4865 -1.1015
  554MOL0     C73057  11.513   8.214   2.023 -0.0658  0.0239  0.7989
  554MOL0     C73058  11.625   8.187   1.924  0.6595 -0.2666 -0.1109
  554MOL0     C73059  11.701   8.068   1.958 -0.1241  0.1776 -0.8088
  554MOL0     C73060  11.752   7.963   1.994 -0.6109 -0.2407 -0.0325
  554MOL0     C73061  11.009   8.171   2.203  1.5760 -0.4203 -0.5141
  554MOL0     C73062  10.895   8.194   2.282  0.1466 -0.3534 -0.1519
  554MOL0     H73063  10.623   8.061   2.664 -1.0542  0.1306  1.4153
  554MOL0     H73064  10.406   8.058   2.808  1.5077  1.0939  1.0955
  554MOL0     H73065  10.087   8.367   2.673  3.3848 -0.5711 -1.0268
  554MOL0     H73066  10.020   8.301   2.817 -1.0660 -1.0465  0.1234
  554MOL0     H73067  10.072   8.073   2.690  0.4371 -0.3338 -0.3692
  554MOL0     H73068  10.058   8.184   2.542 -0.0314  0.0161 -0.7013
  554MOL0     H73069   9.839   8.256   2.635  0.3982  0.8303  0.9917
  554MOL0     H73070   9.837   8.095   2.717 -1.9566 -0.2594 -0.7361
  554MOL0     H73071   9.873   8.117   2.428 -1.8896 -0.8813 -2.3948
  554MOL0     H73072   9.827   7.973   2.516  1.7331 -0.2967 -2.2105
  554MOL0     H73073   9.627   8.103   2.382 -0.4773 -0.5794 -0.2167
  554MOL0     H73074   9.638   8.223   2.499 -2.2160 -0.3650  0.0719
  554MOL0     H73075   9.596   8.057   2.676  0.8796  0.0294 -0.5214
  554MOL0     H73076   9.612   7.922   2.558 -0.3479  0.1150 -0.6796
  554MOL0     H73077   9.403   8.138   2.576 -0.6193  0.6009 -1.3413
  554MOL0     H73078   9.414   8.014   2.438 -0.0984 -1.1605  0.8635
  554MOL0     H73079   9.369   7.917   2.713 -3.7258  0.0512  0.4279
  554MOL0     H73080   9.376   7.833   2.557  0.2572  0.2699 -0.5558
  554MOL0     H73081   9.168   7.867   2.384  1.3953  0.4171 -0.2959
  554MOL0     H73082   8.870   7.881   2.384  2.0066 -0.3666 -0.1823
  554MOL0     H73083   8.942   7.998   2.285 -2.1957 -0.0682 -0.5673
  554MOL0     H73084   8.736   8.119   2.349  1.9872  3.4762 -0.2590
  554MOL0     H73085   8.860   8.173   2.455 -0.0142 -1.1755  0.9893
  554MOL0     H73086   8.684   7.942   2.540 -0.6416  0.4004 -0.8600
  554MOL0     H73087   8.764   8.072   2.640 -1.0248 -4.4912  2.2413
  554MOL0     H73088   8.509   8.106   2.610 -0.3386 -3.8588 -1.1493
  554MOL0     H73089   8.530   8.117   2.445 -1.6366 -1.7314  1.5513
  554MOL0     H73090   8.674   8.472   2.390  0.6849 -0.9695  0.6872
  554MOL0     H73091   8.517   8.649   2.303 -1.5151  1.1170  1.0810
  554MOL0     H73092   8.109   8.814   2.115  1.7575 -1.0837  0.9175
  554MOL0     H73093   7.965   9.028   2.091  1.1703  3.4837 -0.6440
  554MOL0     H73094   8.101   9.367   2.244 -0.1057  0.2998  1.2636
  554MOL0     H73095   8.010   9.366   2.397  1.2374 -0.6503  0.6020
  554MOL0     H73096   7.939   9.546   2.272  0.4161  0.0301 -0.1493
  554MOL0     H73097   7.804   9.443   2.284  0.0770  2.5727  0.2160
  554MOL0     H73098   7.856   9.367   2.032 -1.8226 -0.2956  2.6687
  554MOL0     H73099   7.971   9.493   2.019 -2.2763  2.2889 -4.9301
  554MOL0     H73100   7.677   9.558   2.067 -0.4928  1.0078  0.6493
  554MOL0     H73101   7.808   9.664   2.107  2.6320 -1.7529  0.7371
  554MOL0     H73102   7.805   9.537   1.822  3.7976  3.9555 -4.6362
  554MOL0     H73103   7.890   9.671   1.879  1.2442 -3.9518 -0.8862
  554MOL0     H73104   7.679   9.796   1.927  0.8245 -0.6122  0.3362
  554MOL0     H73105   7.582   9.660   1.893  1.6835 -1.2736  3.0423
  554MOL0     H73106   7.743   9.848   1.716  1.0951 -0.7782 -0.4978
  554MOL0     H73107   7.775   9.679   1.675  0.4727 -0.9685  2.1172
  554MOL0     H73108   7.537   9.646   1.627 -1.7144  0.1520  1.9644
  554MOL0     H73109   7.580   9.797   1.546  1.0021  1.2106  1.2632
  554MOL0     H73110   8.152   9.193   2.435 -2.2305 -0.7037  0.4700
  554MOL0     H73111   8.307   8.986   2.445  0.4641 -3.4985 -2.2962
  554MOL0     H73112   8.199   8.450   2.496  0.2367  2.0979 -2.5609
  554MOL0     H73113   8.353   8.278   2.596 -1.2796  0.5824  0.1329
  554MOL0     H73114  10.271   8.396   2.579 -1.2917  0.9586  1.9751
  554MOL0     H73115  10.465   8.369   2.425  0.8949  1.9619  1.0106
  554MOL0     H73116  11.041   8.380   2.521 -0.3081  1.5385 -0.6963
  554MOL0     H73117  11.223   8.357   2.375 -1.9380  3.0551  0.3920
  554MOL0     H73118  11.236   8.227   1.982 -1.9440  0.5926  1.1155
  554MOL0     H73119  11.186   8.071   2.039 -1.5436  2.5935 -2.7317
  554MOL0     H73120  11.437   8.025   2.101  0.8747 -0.1058 -1.8279
  554MOL0     H73121  11.410   8.057   1.930 -1.6024 -0.3174 -0.6930
  554MOL0     H73122  11.546   8.239   2.125 -1.1630 -2.5537  1.8733
  554MOL0     H73123  11.468   8.305   1.982 -0.8910 -0.7747 -0.1237
  554MOL0     H73124  11.583   8.183   1.823 -1.9696 -1.3911  0.9151
  554MOL0     H73125  11.678   8.282   1.925 -1.2012  0.8444  1.6067
  554MOL0     H73126  11.782   7.872   2.040  3.9898  0.5701 -0.9264
  554MOL0     H73127  10.979   8.116   2.115 -4.6627  2.3082 -0.5848
  554MOL0     H73128  10.807   8.131   2.269  0.6110 -1.3514  1.3094
  555MOL0     O73129  10.911   4.314   6.516  0.5569 -0.3168 -0.6158
  555MOL0     C73130  10.995   4.400   6.549 -0.4864  1.0874  0.3712
  555MOL0     O73131  10.971   4.533   6.576  0.1955  0.6635  0.3664
  555MOL0     C73132  10.849   4.588   6.597 -0.4927  0.9467  0.4454
  555MOL0     C73133  10.823   4.716   6.545 -0.7443  0.2465  0.3732
  555MOL0     C73134  10.700   4.783   6.559 -0.6569 -0.0506  0.6326
  555MOL0     C73135  10.596   4.723   6.624 -0.3256 -0.0719  0.2572
  555MOL0     O73136  10.486   4.798   6.661  0.5191  0.4793  0.1202
  555MOL0     C73137  10.388   4.746   6.752 -0.1446 -0.0516 -0.3267
  555MOL0     C73138  10.289   4.847   6.772  0.4087 -0.2081  0.1541
  555MOL0     C73139  10.166   4.802   6.846 -0.4189  0.0038 -0.5740
  555MOL0     C73140  10.077   4.924   6.869  0.0131  0.0425  0.1643
  555MOL0     C73141   9.947   4.885   6.945  0.0781 -0.2276 -0.1322
  555MOL0     C73142   9.875   5.014   6.980  0.8641 -0.5619 -0.3802
  555MOL0     C73143   9.742   4.974   7.037  0.2464  1.3196 -0.1487
  555MOL0     C73144   9.681   5.102   7.096  0.0542  0.2642  0.2425
  555MOL0     N73145   9.536   5.090   7.131  0.7323 -0.1797  0.4010
  555MOL0     C73146   9.426   5.082   7.050 -0.0090  0.4481 -0.2439
  555MOL0     C73147   9.335   5.054   7.138  0.7796  0.3266 -0.4702
  555MOL0     C73148   9.193   5.041   7.090  0.2701  0.8751  0.1645
  555MOL0     C73149   9.086   5.088   7.198 -0.0643 -0.0930  0.8926
  555MOL0     C73150   8.948   5.087   7.144  0.3661  0.6028 -0.1655
  555MOL0     C73151   8.851   5.133   7.253  0.0432 -0.0291 -0.7365
  555MOL0     O73152   8.722   5.077   7.220  0.6562  0.0939 -0.6209
  555MOL0     C73153   8.608   5.106   7.288  0.3736  0.3636  0.2610
  555MOL0     C73154   8.486   5.053   7.239  0.3468  0.5108 -0.0439
  555MOL0     C73155   8.365   5.066   7.303 -0.5856  0.2775 -0.3802
  555MOL0     C73156   8.354   5.141   7.419 -0.2702  0.3312 -0.3851
  555MOL0     C73157   8.226   5.150   7.495 -0.1121  0.1933 -0.0036
  555MOL0     O73158   8.133   5.056   7.471 -0.2472 -0.3674  0.7333
  555MOL0     C73159   8.016   5.042   7.544  0.3850 -0.3022  0.5565
  555MOL0     C73160   7.890   5.004   7.488 -0.2993  0.1894 -0.6098
  555MOL0     C73161   7.772   4.990   7.566 -0.7236  0.2977  0.4644
  555MOL0     C73162   7.776   5.015   7.704  0.8567  0.6572  0.5161
  555MOL0     O73163   7.658   5.000   7.775  0.7815 -0.1014  0.0084
  555MOL0     C73164   7.661   5.043   7.912  0.4466 -0.1985 -0.6856
  555MOL0     C73165   7.511   5.065   7.964 -0.7283  1.2784 -0.2130
  555MOL0     C73166   7.417   4.937   7.948 -0.0744 -1.0178  0.2069
  555MOL0     C73167   7.481   4.833   8.035 -0.1732 -0.5142  0.3099
  555MOL0     C73168   7.388   4.714   8.041  0.1055  0.3817  1.0941
  555MOL0     C73169   7.468   4.588   8.077  0.2199  0.6417  0.1617
  555MOL0     C73170   7.381   4.454   8.071 -0.2584 -0.5731 -0.2408
  555MOL0     C73171   7.272   4.441   8.185  0.0342  1.0913  0.2801
  555MOL0    Cl73172   7.334   4.459   8.345 -0.2008 -0.1669 -0.0616
  555MOL0     C73173   7.899   5.046   7.764 -0.8109 -0.1198 -0.0517
  555MOL0     C73174   8.017   5.054   7.676  0.5219  0.2776 -0.4975
  555MOL0     O73175   8.213   5.234   7.582  0.2453  0.5318  0.0648
  555MOL0     C73176   8.470   5.199   7.472 -0.1230 -0.4473 -0.0197
  555MOL0     C73177   8.593   5.184   7.407  0.2946 -0.5164  1.0560
  555MOL0     N73178   9.379   5.054   7.273 -0.0582 -0.0107  0.7108
  555MOL0     N73179   9.504   5.075   7.259  0.1464 -0.0675 -0.2930
  555MOL0     C73180  10.614   4.595   6.667  0.3135  1.0937 -0.2615
  555MOL0     C73181  10.740   4.527   6.654 -0.5127  0.0029 -0.3625
  555MOL0     C73182  11.136   4.361   6.550 -0.5693 -0.3455  0.4467
  555MOL0     C73183  11.184   4.234   6.499  0.5043 -0.4258  0.1925
  555MOL0     C73184  11.314   4.199   6.510  0.8749 -0.5669 -0.4551
  555MOL0     C73185  11.411   4.295   6.550 -0.2373 -0.5978  0.3016
  555MOL0     O73186  11.534   4.244   6.528 -1.0644  0.2049 -0.3070
  555MOL0     C73187  11.642   4.315   6.597  0.1807 -0.0697  0.0763
  555MOL0     C73188  11.777   4.250   6.575  0.1638 -1.1435 -0.8107
  555MOL0     C73189  11.837   4.281   6.441 -0.1066  0.1805  0.7030
  555MOL0     C73190  11.957   4.181   6.400  0.2233 -0.7902  0.1612
  555MOL0     C73191  12.056   4.167   6.506 -0.5600 -0.2177 -0.0092
  555MOL0     C73192  12.146   4.154   6.580 -0.2497 -0.4378  0.1868
  555MOL0     C73193  11.374   4.418   6.596 -0.2781  0.4080 -0.6426
  555MOL0     C73194  11.236   4.447   6.606  0.0528  0.3511  0.5346
  555MOL0     H73195  10.908   4.753   6.489 -1.0272 -0.4651 -0.5480
  555MOL0     H73196  10.689   4.887   6.531 -0.7747 -0.1294  0.3832
  555MOL0     H73197  10.423   4.730   6.855 -2.1398 -2.1041  0.1385
  555MOL0     H73198  10.335   4.659   6.712  1.4814 -0.9707 -0.5715
  555MOL0     H73199  10.253   4.886   6.677 -0.2190  0.6743  0.7438
  555MOL0     H73200  10.338   4.924   6.833 -2.5082  1.1598  0.9354
  555MOL0     H73201  10.186   4.751   6.940 -4.0976 -1.4918 -0.3979
  555MOL0     H73202  10.107   4.730   6.788  0.7255 -0.8380 -0.7323
  555MOL0     H73203  10.118   5.009   6.923  0.1892 -0.0064  0.1086
  555MOL0     H73204  10.047   4.959   6.769  1.6399 -0.0453 -0.3737
  555MOL0     H73205   9.962   4.828   7.037  0.4805 -0.8518 -0.5740
  555MOL0     H73206   9.885   4.822   6.880  1.8069 -1.5612 -0.5974
  555MOL0     H73207   9.874   5.083   6.895 -2.0136  0.5618  0.4321
  555MOL0     H73208   9.935   5.062   7.058 -1.3375  0.1861  0.9428
  555MOL0     H73209   9.669   4.931   6.967 -1.3621  1.2441  1.4863
  555MOL0     H73210   9.757   4.896   7.111  1.3265 -0.7601 -2.4068
  555MOL0     H73211   9.691   5.180   7.020 -1.9595 -0.3590 -0.7439
  555MOL0     H73212   9.743   5.138   7.178  1.0202  1.4897 -0.9708
  555MOL0     H73213   9.416   5.111   6.946  1.6932 -1.3795 -0.9927
  555MOL0     H73214   9.178   4.936   7.061  2.7685  1.1446 -2.5421
  555MOL0     H73215   9.171   5.107   7.006 -1.9468 -1.7431 -1.5007
  555MOL0     H73216   9.109   5.191   7.224  0.8176  0.4144 -1.6365
  555MOL0     H73217   9.091   5.026   7.288 -1.2268 -0.9580  0.3855
  555MOL0     H73218   8.939   5.156   7.060 -0.9212 -0.7892 -1.2417
  555MOL0     H73219   8.914   4.992   7.101  1.7806  1.2150 -2.8410
  555MOL0     H73220   8.834   5.241   7.252  0.7585  0.0954  0.1155
  555MOL0     H73221   8.891   5.095   7.348  0.1607 -0.6130 -1.0138
  555MOL0     H73222   8.500   4.993   7.149  3.4317 -0.1972  0.8117
  555MOL0     H73223   8.269   5.026   7.272 -1.7125  1.7690  1.0297
  555MOL0     H73224   7.885   4.998   7.380 -0.4603 -2.3270 -0.5375
  555MOL0     H73225   7.680   4.951   7.523 -1.3818  2.0895  0.1539
  555MOL0     H73226   7.711   5.140   7.924 -0.5734  0.4138 -1.2069
  555MOL0     H73227   7.716   4.972   7.974 -2.8633 -0.1740  2.6169
  555MOL0     H73228   7.461   5.145   7.910 -1.7627  1.0353  0.3716
  555MOL0     H73229   7.522   5.094   8.069  0.6280  3.1983 -0.8256
  555MOL0     H73230   7.418   4.908   7.843 -0.7575 -0.1185 -0.0533
  555MOL0     H73231   7.314   4.960   7.976  0.3225  0.3599  0.5980
  555MOL0     H73232   7.570   4.795   7.984  0.1783 -1.4378  1.5652
  555MOL0     H73233   7.514   4.869   8.132 -0.2704  1.4677 -0.3569
  555MOL0     H73234   7.336   4.699   7.946  0.8512  0.7402  0.6198
  555MOL0     H73235   7.307   4.730   8.113  0.1323  1.3308  0.9274
  555MOL0     H73236   7.512   4.596   8.177  0.6223  1.7304 -0.0880
  555MOL0     H73237   7.550   4.583   8.005  0.5339  2.7382  0.3319
  555MOL0     H73238   7.331   4.437   7.975 -1.1300  3.8785 -0.7998
  555MOL0     H73239   7.450   4.370   8.078  1.8535  1.0973 -0.1700
  555MOL0     H73240   7.219   4.347   8.167  1.6282 -0.4954  2.9795
  555MOL0     H73241   7.188   4.511   8.182 -1.5200 -0.6281  1.3390
  555MOL0     H73242   7.906   5.084   7.866 -0.4459  4.1274 -1.4562
  555MOL0     H73243   8.108   5.077   7.731 -0.3389  0.9728  0.6955
  555MOL0     H73244   8.460   5.246   7.570  0.0918  0.2842 -0.3427
  555MOL0     H73245   8.678   5.227   7.460  0.7872 -1.1893  0.8208
  555MOL0     H73246  10.528   4.544   6.709  0.9636 -0.1382 -0.3718
  555MOL0     H73247  10.750   4.428   6.697 -0.2069  0.4433  0.6079
  555MOL0     H73248  11.114   4.161   6.459  1.1934  0.2780 -2.5347
  555MOL0     H73249  11.349   4.103   6.475  2.0083  0.1243 -1.2853
  555MOL0     H73250  11.623   4.305   6.704  2.1558  0.2949  0.5093
  555MOL0     H73251  11.647   4.419   6.563  1.8653 -0.5428 -1.3289
  555MOL0     H73252  11.846   4.291   6.649 -0.4801 -1.4705 -0.0237
  555MOL0     H73253  11.758   4.145   6.600  0.6626 -0.6106  2.1667
  555MOL0     H73254  11.855   4.389   6.438  0.3498  0.0916  0.1553
  555MOL0     H73255  11.761   4.263   6.365 -0.2621  1.2309  0.5915
  555MOL0     H73256  11.915   4.081   6.386 -1.8781  0.2230 -1.3215
  555MOL0     H73257  11.983   4.229   6.305 -1.8052 -0.8744 -0.5016
  555MOL0     H73258  12.220   4.136   6.655 -1.6689 -0.0064  1.7358
  555MOL0     H73259  11.437   4.496   6.639  1.2024 -1.0883 -0.0242
  555MOL0     H73260  11.212   4.542   6.651 -2.5931  0.2015 -0.4071
  556MOL0     O73261   0.111   3.649   0.075 -0.6618  0.3935 -0.0760
  556MOL0     C73262   0.175   3.571   0.143  0.8983 -0.4525 -0.6701
  556MOL0     O73263   0.134   3.524   0.266  0.4023  0.1276  0.5184
  556MOL0     C73264   0.008   3.572   0.311 -0.2208 -0.3390  0.6128
  556MOL0     C73265  -0.103   3.479   0.306 -0.0545  0.2969 -0.0532
  556MOL0     C73266  -0.234   3.515   0.345 -1.2584  0.3370  0.1484
  556MOL0     C73267  -0.259   3.648   0.382 -0.8666 -0.4544 -1.2216
  556MOL0     O73268  -0.384   3.685   0.422  0.4963  0.2212 -0.4022
  556MOL0     C73269  -0.414   3.826   0.441  0.5213 -0.9841  0.7979
  556MOL0     C73270  -0.562   3.868   0.434 -0.5674  0.9170  0.7845
  556MOL0     C73271  -0.651   3.791   0.538  0.3226  0.1997  0.7686
  556MOL0     C73272  -0.789   3.859   0.552 -0.1281 -0.2449 -0.1947
  556MOL0     C73273  -0.889   3.804   0.659  0.4830 -0.6423 -0.5309
  556MOL0     C73274  -0.938   3.669   0.638 -0.4400  0.1693 -0.4297
  556MOL0     C73275  -1.044   3.656   0.750 -0.3442  0.5948  0.3722
  556MOL0     C73276  -1.108   3.514   0.741  0.0039 -0.6920 -1.0630
  556MOL0     N73277  -1.034   3.407   0.810 -1.1954 -0.0112  0.2303
  556MOL0     C73278  -0.923   3.342   0.758  0.0105  0.3188  0.7618
  556MOL0     C73279  -0.894   3.239   0.845  0.3069 -0.2406  0.2278
  556MOL0     C73280  -0.785   3.142   0.830 -0.4709  0.5690  0.0129
  556MOL0     C73281  -0.785   3.038   0.941  0.0851 -0.4590  0.0358
  556MOL0     C73282  -0.662   2.943   0.936 -0.2453  0.8164  0.0206
  556MOL0     C73283  -0.693   2.824   0.839  0.2916  0.5961 -0.2376
  556MOL0     O73284  -0.723   2.852   0.701 -0.1488  0.2817  0.4617
  556MOL0     C73285  -0.615   2.865   0.614  0.4698 -0.9586 -0.3006
  556MOL0     C73286  -0.481   2.839   0.640  0.3369  0.6647  0.0376
  556MOL0     C73287  -0.384   2.848   0.552 -0.4167  0.0909  0.8996
  556MOL0     C73288  -0.406   2.906   0.425 -0.6691  0.3255  0.3082
  556MOL0     C73289  -0.309   2.940   0.317  0.5390 -0.2361  0.7088
  556MOL0     O73290  -0.199   2.876   0.328 -0.3114  0.1322 -0.1943
  556MOL0     C73291  -0.078   2.918   0.267  0.5522  0.3374  1.6187
  556MOL0     C73292  -0.048   3.053   0.243 -0.1048  0.7669  0.1148
  556MOL0     C73293   0.075   3.084   0.191 -0.0339  0.0727  0.3054
  556MOL0     C73294   0.161   2.984   0.153  0.2928 -0.0294 -0.0841
  556MOL0     O73295   0.276   3.038   0.099  0.2978  0.3152  0.5396
  556MOL0     C73296   0.389   2.945   0.102 -0.6813  0.0156  0.2698
  556MOL0     C73297   0.505   3.029   0.070 -0.0350  0.4941 -0.0278
  556MOL0     C73298   0.635   2.949   0.079  0.2160  0.0405  0.2496
  556MOL0     C73299   0.757   3.038   0.044  0.1969  0.3639 -0.4726
  556MOL0     C73300   0.864   2.953  -0.024  0.3723 -0.3428 -0.0397
  556MOL0     C73301   0.958   2.883   0.073 -0.2883  0.4380 -0.3372
  556MOL0     C73302   1.080   2.826  -0.008 -0.2960  0.7129 -0.5691
  556MOL0     C73303   1.176   2.746   0.084 -0.2032 -0.3488  0.7857
  556MOL0    Cl73304   1.099   2.590   0.129 -0.0538  0.2973 -0.2828
  556MOL0     C73305   0.129   2.853   0.164 -0.0193  0.2523 -0.3620
  556MOL0     C73306   0.010   2.817   0.216  0.9518 -0.4930  0.2693
  556MOL0     O73307  -0.341   3.017   0.227 -0.2446 -0.6332 -0.0043
  556MOL0     C73308  -0.532   2.945   0.397  0.4746  0.2981  1.0033
  556MOL0     C73309  -0.643   2.920   0.484  0.0937 -0.0666 -1.1121
  556MOL0     N73310  -0.983   3.251   0.952  0.4947  0.3216 -0.2793
  556MOL0     N73311  -1.056   3.351   0.931  0.5670 -0.5107 -0.1179
  556MOL0     C73312  -0.146   3.737   0.399  0.6828  0.7354  0.4544
  556MOL0     C73313  -0.011   3.698   0.364  0.1412 -0.1754 -0.2699
  556MOL0     C73314   0.314   3.539   0.094 -0.7808 -0.1221  0.0351
  556MOL0     C73315   0.398   3.463   0.178  0.1152  0.5623  0.6354
  556MOL0     C73316   0.531   3.437   0.130  1.0341  0.6494  0.0050
  556MOL0     C73317   0.579   3.481   0.012 -0.3042 -0.6923 -0.1587
  556MOL0     O73318   0.713   3.466  -0.011 -0.1862  0.0098 -0.4839
  556MOL0     C73319   0.784   3.541  -0.115 -0.2500 -0.3518  0.2284
  556MOL0     C73320   0.935   3.518  -0.101 -0.4838  0.7696  0.4269
  556MOL0     C73321   0.971   3.373  -0.133 -0.2182 -0.5548  0.7817
  556MOL0     C73322   1.112   3.345  -0.079 -0.0983  0.5906  0.0640
  556MOL0     C73323   1.217   3.415  -0.154  0.4788 -0.6511  0.2813
  556MOL0     C73324   1.303   3.479  -0.217 -0.2342  0.1480 -0.9755
  556MOL0     C73325   0.494   3.549  -0.072  0.8079 -0.2493  0.6934
  556MOL0     C73326   0.363   3.578  -0.035  0.0878 -0.2631  0.8058
  556MOL0     H73327  -0.084   3.376   0.279 -0.0109 -0.3706  2.3813
  556MOL0     H73328  -0.324   3.456   0.348 -3.1784  2.7698 -3.1398
  556MOL0     H73329  -0.363   3.886   0.365  2.5891 -1.3730  1.7781
  556MOL0     H73330  -0.368   3.859   0.535  1.5819 -0.3064  0.0575
  556MOL0     H73331  -0.603   3.848   0.335  0.0567  2.0970  0.2763
  556MOL0     H73332  -0.575   3.974   0.456 -1.6500  0.9239  0.1753
  556MOL0     H73333  -0.603   3.784   0.636 -1.0605  1.8807  1.6333
  556MOL0     H73334  -0.671   3.688   0.507 -0.1155  0.8308 -1.1830
  556MOL0     H73335  -0.781   3.965   0.576 -1.4939  0.5892 -2.9925
  556MOL0     H73336  -0.843   3.855   0.457 -1.5897  1.6641  0.4982
  556MOL0     H73337  -0.970   3.877   0.658  0.9823 -0.0826 -0.5831
  556MOL0     H73338  -0.835   3.818   0.753 -0.4553  2.3579 -0.3225
  556MOL0     H73339  -0.857   3.603   0.671 -2.1381 -1.3017  1.0168
  556MOL0     H73340  -0.970   3.646   0.536  0.2214  1.1413 -0.8810
  556MOL0     H73341  -1.004   3.669   0.851 -0.0394  1.0615  0.1966
  556MOL0     H73342  -1.120   3.732   0.731 -1.2765 -0.7844 -1.8804
  556MOL0     H73343  -1.124   3.487   0.636  0.1429  0.5986 -1.4362
  556MOL0     H73344  -1.209   3.523   0.782 -1.8048  0.3583 -5.2075
  556MOL0     H73345  -0.872   3.359   0.663  0.2454 -0.0241  0.8256
  556MOL0     H73346  -0.687   3.189   0.831 -0.1386 -0.1222  0.1620
  556MOL0     H73347  -0.797   3.093   0.733 -1.6675  3.4849 -1.4546
  556MOL0     H73348  -0.874   2.977   0.925 -1.0860  2.0052 -4.2263
  556MOL0     H73349  -0.787   3.090   1.037 -2.8361  1.5866 -0.9974
  556MOL0     H73350  -0.570   2.993   0.906  1.9865 -1.6195  2.3225
  556MOL0     H73351  -0.645   2.900   1.035 -3.4636 -1.5071 -0.2843
  556MOL0     H73352  -0.780   2.772   0.881  1.5996 -2.3647 -0.9581
  556MOL0     H73353  -0.606   2.758   0.845  0.3738  0.6043 -1.2315
  556MOL0     H73354  -0.437   2.820   0.737  2.6381  2.4644 -0.5825
  556MOL0     H73355  -0.283   2.814   0.573 -0.6968 -1.8759 -0.6224
  556MOL0     H73356  -0.110   3.133   0.283  1.9887  4.0306 -2.6545
  556MOL0     H73357   0.103   3.185   0.163  0.3054  0.3524  1.6023
  556MOL0     H73358   0.363   2.871   0.026 -1.0609  0.5726 -0.1497
  556MOL0     H73359   0.389   2.893   0.198 -2.3419 -0.8638 -0.1783
  556MOL0     H73360   0.500   3.124   0.122  0.1215 -0.8180  2.5274
  556MOL0     H73361   0.490   3.053  -0.036 -0.9814 -3.6484 -1.0270
  556MOL0     H73362   0.621   2.865   0.010 -2.0152  0.6197 -0.0855
  556MOL0     H73363   0.648   2.911   0.180  0.7384  0.4942  0.3568
  556MOL0     H73364   0.711   3.113  -0.021 -1.9251 -0.9555 -0.6090
  556MOL0     H73365   0.797   3.092   0.130 -1.4738 -1.0180  1.2401
  556MOL0     H73366   0.923   3.024  -0.082 -0.6666 -1.5301 -2.6878
  556MOL0     H73367   0.824   2.875  -0.090 -0.2197 -2.0567  2.2105
  556MOL0     H73368   0.909   2.790   0.103  0.5236 -0.3837 -1.4604
  556MOL0     H73369   0.992   2.948   0.154  0.2166  2.3833 -2.0341
  556MOL0     H73370   1.046   2.759  -0.087 -0.9825 -0.3234  0.5590
  556MOL0     H73371   1.141   2.906  -0.051 -0.9426  0.8514 -1.2471
  556MOL0     H73372   1.200   2.802   0.175  0.8125  0.9227 -0.2375
  556MOL0     H73373   1.264   2.731   0.022  0.2643  4.0834  0.0494
  556MOL0     H73374   0.196   2.780   0.119 -0.0114 -0.5452  0.8965
  556MOL0     H73375  -0.017   2.712   0.227  0.5542 -0.2234  2.2146
  556MOL0     H73376  -0.552   2.981   0.297  2.2365 -1.8165 -0.1668
  556MOL0     H73377  -0.742   2.941   0.445  0.9583  4.5850 -1.4304
  556MOL0     H73378  -0.155   3.837   0.440 -1.2371  0.4226  0.9142
  556MOL0     H73379   0.078   3.760   0.369 -0.7758  1.1913 -0.4910
  556MOL0     H73380   0.361   3.436   0.276 -2.3628  1.1680 -0.0536
  556MOL0     H73381   0.593   3.370   0.189  0.6237 -0.6756 -1.0192
  556MOL0     H73382   0.763   3.648  -0.105  0.8494  0.0974 -1.7526
  556MOL0     H73383   0.753   3.510  -0.216  1.3653 -2.6979  0.3776
  556MOL0     H73384   0.988   3.567  -0.183  0.0192 -2.9468 -1.6851
  556MOL0     H73385   0.976   3.553  -0.005  3.9858 -3.6603  0.5447
  556MOL0     H73386   0.981   3.361  -0.241  1.0396  1.0163  0.6773
  556MOL0     H73387   0.896   3.301  -0.100 -0.9137  0.3858  1.3290
  556MOL0     H73388   1.121   3.377   0.025  4.0902  2.0132 -0.5722
  556MOL0     H73389   1.137   3.238  -0.084  0.5250  0.7636 -0.8654
  556MOL0     H73390   1.365   3.530  -0.288  0.5742 -1.7776 -1.7109
  556MOL0     H73391   0.525   3.572  -0.174 -1.5369 -0.4370 -0.1252
  556MOL0     H73392   0.294   3.621  -0.106  0.6409 -1.7878 -0.7466
  557MOL0     O73393   5.547   8.941   6.195  0.3104  0.4562 -0.1964
  557MOL0     C73394   5.534   8.819   6.221  0.1029 -0.1718  0.5427
  557MOL0     O73395   5.420   8.747   6.227  0.3736 -0.7835 -0.2929
  557MOL0     C73396   5.304   8.810   6.185  0.3045 -0.2485  0.4950
  557MOL0     C73397   5.238   8.761   6.077 -0.0415 -0.0345  0.7413
  557MOL0     C73398   5.102   8.803   6.052 -0.2707  0.5491 -0.3431
  557MOL0     C73399   5.034   8.893   6.140 -0.5696 -0.4416  0.6124
  557MOL0     O73400   4.905   8.923   6.111 -0.5596  0.0941 -0.0055
  557MOL0     C73401   4.873   9.053   6.049 -0.5689  0.5893  1.0440
  557MOL0     C73402   4.777   9.139   6.125 -0.4719 -0.0617  0.1081
  557MOL0     C73403   4.647   9.061   6.138 -0.3682 -0.9107 -0.4332
  557MOL0     C73404   4.548   9.141   6.225  0.5275 -1.2580 -0.2380
  557MOL0     C73405   4.416   9.063   6.236 -0.0900 -0.3001  0.0907
  557MOL0     C73406   4.335   9.103   6.358  0.1503 -0.4565 -0.5299
  557MOL0     C73407   4.378   9.037   6.493 -0.1382  0.1006 -0.3908
  557MOL0     C73408   4.378   8.872   6.498 -0.0461 -0.7812 -0.4070
  557MOL0     N73409   4.262   8.804   6.434 -0.4753  0.1541 -0.2516
  557MOL0     C73410   4.134   8.828   6.475 -0.2586 -0.1448  0.0858
  557MOL0     C73411   4.062   8.721   6.426  0.4819  0.4052 -0.8419
  557MOL0     C73412   3.917   8.697   6.434  0.3961  0.1403 -0.0506
  557MOL0     C73413   3.858   8.624   6.321 -0.6483  1.0671  0.5543
  557MOL0     C73414   3.712   8.592   6.359 -0.1212 -0.1733  0.3455
  557MOL0     C73415   3.612   8.697   6.324  0.4493 -0.6924  0.0695
  557MOL0     O73416   3.483   8.632   6.308 -0.0519  0.4751  0.2775
  557MOL0     C73417   3.366   8.700   6.328 -0.9793 -0.3535  0.7115
  557MOL0     C73418   3.255   8.624   6.355  0.6072 -0.3500  0.3121
  557MOL0     C73419   3.133   8.685   6.350  0.3726 -0.1489  0.1230
  557MOL0     C73420   3.117   8.824   6.330  0.8927 -0.4032 -0.6184
  557MOL0     C73421   2.979   8.878   6.334 -0.2162 -0.2694  0.1457
  557MOL0     O73422   2.872   8.793   6.317  0.1733 -0.1004  0.0475
  557MOL0     C73423   2.746   8.837   6.316  0.4510 -1.1057  0.0149
  557MOL0     C73424   2.654   8.755   6.250  0.3569 -0.4301 -0.2169
  557MOL0     C73425   2.516   8.773   6.255  0.1266 -0.3877 -0.3097
  557MOL0     C73426   2.464   8.878   6.335  0.6129 -0.6342  0.1804
  557MOL0     O73427   2.329   8.896   6.362  0.5244 -0.1943  0.5008
  557MOL0     C73428   2.221   8.863   6.280 -0.7886  0.3786  0.5956
  557MOL0     C73429   2.202   8.964   6.162 -0.6065 -0.0767 -0.3257
  557MOL0     C73430   2.113   8.893   6.059  0.0065 -0.4355  0.0216
  557MOL0     C73431   2.065   8.993   5.946 -0.6182  0.3107 -0.6561
  557MOL0     C73432   2.008   8.914   5.828  0.1416  0.4081  0.3992
  557MOL0     C73433   1.923   8.999   5.725 -0.3236  0.1806 -0.3472
  557MOL0     C73434   1.818   8.926   5.652  0.0922 -0.4154  0.3265
  557MOL0     C73435   1.813   8.968   5.514  0.1821  0.1313 -0.0581
  557MOL0    Cl73436   1.669   8.894   5.429  0.1752 -0.1048  0.0696
  557MOL0     C73437   2.555   8.955   6.406  0.3455  0.4507 -0.1675
  557MOL0     C73438   2.693   8.944   6.394  0.8547 -1.2412 -0.4458
  557MOL0     O73439   2.968   9.000   6.341 -0.6346 -0.0938  0.3365
  557MOL0     C73440   3.232   8.903   6.307 -0.0411 -0.1390  0.7769
  557MOL0     C73441   3.355   8.842   6.297 -0.8679  0.8231  0.0870
  557MOL0     N73442   4.151   8.623   6.382 -0.4201 -0.4328  0.4778
  557MOL0     N73443   4.265   8.681   6.380 -0.8400 -0.5845  0.0151
  557MOL0     C73444   5.108   8.942   6.248 -0.3713  0.1203  0.4377
  557MOL0     C73445   5.239   8.904   6.271 -0.6857 -0.7310  0.8064
  557MOL0     C73446   5.660   8.748   6.258  0.1897  0.5087 -0.8168
  557MOL0     C73447   5.662   8.606   6.274 -0.1964  0.2936 -1.3190
  557MOL0     C73448   5.776   8.540   6.328 -0.2928 -0.0174  0.6315
  557MOL0     C73449   5.895   8.614   6.345  0.8828  0.6331  0.1875
  557MOL0     O73450   6.015   8.545   6.373 -0.1284  0.3294 -0.0869
  557MOL0     C73451   6.136   8.620   6.396  0.7909  0.1692 -0.8694
  557MOL0     C73452   6.256   8.531   6.422 -0.5478  1.2230  0.0063
  557MOL0     C73453   6.375   8.610   6.470  0.3468 -0.2010 -0.3727
  557MOL0     C73454   6.491   8.539   6.543 -0.0190 -0.3730  0.5734
  557MOL0     C73455   6.598   8.629   6.568 -0.8910 -0.0197  0.3308
  557MOL0     C73456   6.691   8.711   6.582  0.1071  0.1444 -1.0312
  557MOL0     C73457   5.894   8.750   6.315 -0.3908  0.0605 -0.2514
  557MOL0     C73458   5.782   8.818   6.268  0.0952 -0.0794  0.0818
  557MOL0     H73459   5.279   8.686   6.010 -0.4949  0.6145 -0.3073
  557MOL0     H73460   5.043   8.750   5.978 -1.4400 -1.6929  2.0376
  557MOL0     H73461   4.836   9.032   5.948 -0.8580 -1.3978  1.5215
  557MOL0     H73462   4.969   9.104   6.049 -0.8415  1.1273  1.8522
  557MOL0     H73463   4.768   9.235   6.073  2.7090  0.2165 -0.1299
  557MOL0     H73464   4.809   9.167   6.226 -1.4773 -3.4087  1.4703
  557MOL0     H73465   4.668   8.971   6.196 -0.7703 -0.4779  0.4033
  557MOL0     H73466   4.597   9.047   6.041 -2.1188  1.9875 -0.0788
  557MOL0     H73467   4.593   9.156   6.324  2.1601 -0.1000 -1.1259
  557MOL0     H73468   4.531   9.240   6.182 -0.1575 -1.1517  0.2457
  557MOL0     H73469   4.440   8.956   6.242 -0.4675 -0.4070 -0.2210
  557MOL0     H73470   4.351   9.076   6.149 -0.9788  0.9698  0.9073
  557MOL0     H73471   4.230   9.080   6.339 -0.9400  4.1236 -1.4330
  557MOL0     H73472   4.336   9.213   6.356  0.5666 -0.4185  0.9297
  557MOL0     H73473   4.480   9.068   6.515  0.2881 -0.1384 -1.9433
  557MOL0     H73474   4.313   9.077   6.571  0.3846  0.2312 -0.0237
  557MOL0     H73475   4.389   8.840   6.602  2.8148  0.8431 -0.0975
  557MOL0     H73476   4.466   8.848   6.437  0.5447  0.8123 -0.2518
  557MOL0     H73477   4.094   8.909   6.536  2.1106  0.8717  0.4008
  557MOL0     H73478   3.861   8.791   6.428 -0.4899 -0.4553 -3.1167
  557MOL0     H73479   3.894   8.647   6.528 -1.6202 -0.4312 -0.7966
  557MOL0     H73480   3.903   8.526   6.303 -1.0678  0.4450  2.5941
  557MOL0     H73481   3.856   8.678   6.226 -0.8572 -2.2095 -1.4722
  557MOL0     H73482   3.681   8.500   6.308 -0.8968  0.1820  0.1505
  557MOL0     H73483   3.695   8.564   6.463  0.0248 -0.2556  0.3465
  557MOL0     H73484   3.638   8.740   6.227 -1.2876 -1.4596 -0.7826
  557MOL0     H73485   3.616   8.783   6.391 -1.2749 -1.5943  1.4022
  557MOL0     H73486   3.267   8.518   6.373 -0.8106 -1.0899 -2.5268
  557MOL0     H73487   3.044   8.624   6.356  0.7209 -0.6377  0.3724
  557MOL0     H73488   2.701   8.672   6.198 -0.4751 -1.7810  1.1045
  557MOL0     H73489   2.441   8.714   6.205 -0.1730  1.4343 -2.1247
  557MOL0     H73490   2.125   8.866   6.333 -2.5115  0.3457 -2.2499
  557MOL0     H73491   2.231   8.762   6.239 -3.1574  0.1110  0.5252
  557MOL0     H73492   2.297   8.993   6.117 -0.3455  0.1329  0.3439
  557MOL0     H73493   2.136   9.047   6.191 -1.3295 -0.8796  0.4184
  557MOL0     H73494   2.027   8.859   6.117 -0.4027  0.4360 -0.0452
  557MOL0     H73495   2.164   8.811   6.009 -0.9862 -0.0088 -1.7801
  557MOL0     H73496   1.993   9.057   5.998 -1.3432 -0.8486 -0.1815
  557MOL0     H73497   2.150   9.054   5.916 -0.1318  0.2802  0.5721
  557MOL0     H73498   1.938   8.840   5.867  1.9600 -2.3768 -1.2634
  557MOL0     H73499   2.082   8.853   5.775 -0.7424 -0.8004  0.5105
  557MOL0     H73500   1.986   9.060   5.659  0.0107  0.1383 -0.0718
  557MOL0     H73501   1.875   9.080   5.781  0.1235  0.2352 -0.0391
  557MOL0     H73502   1.841   8.819   5.646  2.1095 -0.0681  1.0250
  557MOL0     H73503   1.726   8.935   5.710  0.6529 -0.8409  1.3286
  557MOL0     H73504   1.906   8.939   5.464 -0.3010  0.1515 -0.9800
  557MOL0     H73505   1.798   9.076   5.515 -1.2881 -0.0548  0.2777
  557MOL0     H73506   2.509   9.024   6.477  1.1389 -1.7416  2.6953
  557MOL0     H73507   2.758   9.013   6.446  0.2291  0.2637 -1.6049
  557MOL0     H73508   3.218   9.009   6.290 -3.7579 -0.0904  2.9113
  557MOL0     H73509   3.447   8.896   6.280 -0.1909  0.5021  2.4186
  557MOL0     H73510   5.057   9.016   6.310  2.3668  2.8132 -0.3252
  557MOL0     H73511   5.297   8.939   6.356 -0.6638 -1.2227  0.9993
  557MOL0     H73512   5.571   8.548   6.269  0.9363 -1.5671 -1.0843
  557MOL0     H73513   5.778   8.436   6.359  1.2135 -0.2178 -0.0449
  557MOL0     H73514   6.122   8.685   6.482  2.5724  0.4412 -0.7358
  557MOL0     H73515   6.167   8.685   6.313 -0.7777  1.4670 -0.4826
  557MOL0     H73516   6.234   8.451   6.494 -0.5581  1.5924  0.4162
  557MOL0     H73517   6.281   8.475   6.332 -1.6063  1.5234 -0.4911
  557MOL0     H73518   6.330   8.682   6.539 -1.3153 -0.0750 -1.5373
  557MOL0     H73519   6.412   8.664   6.382 -0.0882 -0.5107 -0.7518
  557MOL0     H73520   6.450   8.504   6.638 -1.6111 -0.5696 -0.1509
  557MOL0     H73521   6.522   8.455   6.480 -2.3136 -3.8994  3.7056
  557MOL0     H73522   6.778   8.773   6.591  0.0539  0.0432  0.6348
  557MOL0     H73523   5.989   8.800   6.298 -0.8623  0.8151 -0.7316
  557MOL0     H73524   5.793   8.921   6.235 -0.6662 -0.1594 -0.4382
  558MOL0     O73525   0.508   8.214   2.915 -0.6437 -0.2287 -0.2046
  558MOL0     C73526   0.502   8.339   2.937 -0.1978  0.3506  0.2425
  558MOL0     O73527   0.417   8.394   3.027  0.4350 -0.1621 -0.1652
  558MOL0     C73528   0.329   8.311   3.104 -0.6591 -1.1530  0.7752
  558MOL0     C73529   0.234   8.231   3.044 -0.3583 -0.5698 -0.8520
  558MOL0     C73530   0.145   8.152   3.127  0.0149 -0.3650 -0.0730
  558MOL0     C73531   0.146   8.171   3.262 -0.1596  0.1125 -0.5637
  558MOL0     O73532   0.057   8.118   3.349 -0.0288 -0.0806  0.5301
  558MOL0     C73533  -0.074   8.080   3.310  0.1636  0.2062  0.3315
  558MOL0     C73534  -0.126   7.986   3.428 -0.4155 -0.4538  0.0528
  558MOL0     C73535  -0.275   7.951   3.409  0.2173 -0.9151 -0.2336
  558MOL0     C73536  -0.333   7.864   3.516 -0.3452 -0.2308 -0.1895
  558MOL0     C73537  -0.474   7.801   3.477 -0.0259 -0.7533  0.3340
  558MOL0     C73538  -0.584   7.902   3.443 -0.0510  0.5752 -0.1886
  558MOL0     C73539  -0.718   7.840   3.409  0.9742 -0.2854 -0.4917
  558MOL0     C73540  -0.784   7.769   3.529  0.7604 -0.1097 -0.1633
  558MOL0     N73541  -0.920   7.728   3.495 -0.2008  0.5593  0.2885
  558MOL0     C73542  -1.035   7.800   3.520  0.2714 -0.5337  0.8463
  558MOL0     C73543  -1.132   7.709   3.494  0.2916 -0.6346  0.0312
  558MOL0     C73544  -1.280   7.721   3.496  0.2238 -0.4024 -0.5493
  558MOL0     C73545  -1.323   7.705   3.637  0.3638 -0.4368  0.1986
  558MOL0     C73546  -1.474   7.711   3.640  0.3021  0.5805  0.3127
  558MOL0     C73547  -1.515   7.680   3.782 -0.3703  0.0796  0.2376
  558MOL0     O73548  -1.656   7.659   3.790  0.2446 -0.7194  0.9364
  558MOL0     C73549  -1.746   7.760   3.790  0.3116 -0.4864 -0.8420
  558MOL0     C73550  -1.881   7.734   3.763 -0.3569  0.8886  0.9967
  558MOL0     C73551  -1.987   7.824   3.777  0.5637  0.5209  0.1659
  558MOL0     C73552  -1.965   7.954   3.804 -0.8722  1.5005 -0.0030
  558MOL0     C73553  -2.067   8.051   3.814  0.2317 -0.3627 -0.9100
  558MOL0     O73554  -2.187   8.010   3.788 -0.0095  0.4476  0.0396
  558MOL0     C73555  -2.299   8.080   3.827  0.2378 -0.3051 -0.3572
  558MOL0     C73556  -2.348   8.187   3.753  0.3436 -0.6129  0.8015
  558MOL0     C73557  -2.467   8.253   3.798 -0.3486 -0.7114 -0.2884
  558MOL0     C73558  -2.544   8.199   3.905 -0.1290  0.0598  0.6475
  558MOL0     O73559  -2.671   8.256   3.933 -0.7796  0.0927 -0.5142
  558MOL0     C73560  -2.760   8.182   4.022  0.3172  0.7840 -0.3770
  558MOL0     C73561  -2.864   8.282   4.067  0.7007 -1.0033  0.3054
  558MOL0     C73562  -2.988   8.269   3.985  0.5944 -0.4650  0.7870
  558MOL0     C73563  -2.975   8.327   3.840  0.0619 -0.1126 -0.0097
  558MOL0     C73564  -3.113   8.313   3.761 -0.3114  0.7291  0.2112
  558MOL0     C73565  -3.107   8.380   3.622  0.9661  0.4426 -0.4268
  558MOL0     C73566  -3.214   8.318   3.535 -0.7386  0.1442 -0.4236
  558MOL0     C73567  -3.210   8.380   3.398  0.8041 -0.5638 -0.2953
  558MOL0    Cl73568  -3.236   8.557   3.406 -0.0784  0.2334 -0.2061
  558MOL0     C73569  -2.490   8.081   3.968 -0.1674  0.3972 -0.6150
  558MOL0     C73570  -2.370   8.026   3.936  0.3838  0.5092 -0.4901
  558MOL0     O73571  -2.040   8.163   3.858 -0.0794 -0.1371  0.8707
  558MOL0     C73572  -1.830   7.985   3.818 -0.5372  0.4042 -0.0039
  558MOL0     C73573  -1.727   7.897   3.813 -0.9259 -0.0661 -0.1824
  558MOL0     N73574  -1.073   7.592   3.451 -0.8674  0.1340 -0.0528
  558MOL0     N73575  -0.946   7.599   3.463 -0.3831  0.3494  0.3103
  558MOL0     C73576   0.243   8.253   3.321 -0.2921 -0.3872 -0.5050
  558MOL0     C73577   0.328   8.325   3.241 -0.0246 -0.1255  0.7536
  558MOL0     C73578   0.591   8.429   2.860  0.0370 -0.4357  0.5532
  558MOL0     C73579   0.581   8.561   2.900  0.1826 -0.1003 -0.5098
  558MOL0     C73580   0.664   8.663   2.844  0.3550  0.9479 -0.7957
  558MOL0     C73581   0.747   8.631   2.733  0.5181 -0.2834  0.9543
  558MOL0     O73582   0.818   8.729   2.660  0.7951  0.4993 -0.6947
  558MOL0     C73583   0.798   8.864   2.677 -0.2444 -0.5230  0.2445
  558MOL0     C73584   0.890   8.941   2.578 -0.3511 -0.3289  0.0206
  558MOL0     C73585   1.029   8.940   2.627  0.2766 -0.2040  0.0548
  558MOL0     C73586   1.106   9.044   2.556 -0.4702 -0.3758  0.0729
  558MOL0     C73587   1.244   9.042   2.614 -0.0982 -0.1099 -0.4762
  558MOL0     C73588   1.342   9.053   2.682 -0.1093  0.4786 -0.9109
  558MOL0     C73589   0.753   8.497   2.683 -0.9847 -0.0734  0.8532
  558MOL0     C73590   0.674   8.400   2.748  0.6074  0.3491 -0.9528
  558MOL0     H73591   0.242   8.210   2.938 -0.9809 -4.5309 -0.2631
  558MOL0     H73592   0.084   8.072   3.085  0.0167 -0.5651  0.3038
  558MOL0     H73593  -0.075   8.024   3.216  1.9004  0.8614 -0.1110
  558MOL0     H73594  -0.147   8.161   3.296 -0.6809 -0.9240 -2.5616
  558MOL0     H73595  -0.124   8.038   3.524  0.0783 -0.4217  0.0316
  558MOL0     H73596  -0.069   7.893   3.437 -2.3924 -1.7800 -0.5087
  558MOL0     H73597  -0.292   7.906   3.311 -2.5468 -1.3212  0.3543
  558MOL0     H73598  -0.337   8.041   3.415  1.4060  0.0115 -1.1829
  558MOL0     H73599  -0.267   7.781   3.542 -0.9511 -1.5530 -2.5866
  558MOL0     H73600  -0.346   7.933   3.600 -0.4209  1.9747 -1.9165
  558MOL0     H73601  -0.505   7.747   3.567 -0.3892 -0.1990  0.5446
  558MOL0     H73602  -0.457   7.740   3.389  0.5088  2.7294 -2.2134
  558MOL0     H73603  -0.556   7.955   3.351  2.4742 -1.3378 -0.6360
  558MOL0     H73604  -0.584   7.982   3.518  0.7328  1.5260 -1.1748
  558MOL0     H73605  -0.781   7.922   3.373 -1.6968 -0.6914  2.6928
  558MOL0     H73606  -0.721   7.764   3.330 -0.5481 -0.9375  0.1499
  558MOL0     H73607  -0.778   7.831   3.619  0.7769  2.1720 -1.6802
  558MOL0     H73608  -0.733   7.674   3.550 -0.3693 -1.4220 -2.9366
  558MOL0     H73609  -1.051   7.901   3.558  2.7686  0.8186 -1.3347
  558MOL0     H73610  -1.332   7.647   3.435  0.7278 -0.4939 -0.8718
  558MOL0     H73611  -1.299   7.821   3.455 -1.5248  0.1328  1.4241
  558MOL0     H73612  -1.283   7.786   3.699 -0.7088  1.4624 -1.4607
  558MOL0     H73613  -1.289   7.607   3.672  1.3476 -0.1297  0.1189
  558MOL0     H73614  -1.516   7.807   3.611 -1.8758 -0.5331 -0.4377
  558MOL0     H73615  -1.507   7.639   3.565 -0.8778  1.9442 -0.5266
  558MOL0     H73616  -1.489   7.764   3.847 -0.9779 -0.2433  0.9099
  558MOL0     H73617  -1.467   7.594   3.828 -1.6860 -0.4746  0.6230
  558MOL0     H73618  -1.917   7.633   3.742 -2.0301  1.1486  2.3968
  558MOL0     H73619  -2.087   7.789   3.755  0.7789  0.3685 -0.6340
  558MOL0     H73620  -2.293   8.227   3.668 -3.7388 -0.5099 -2.1000
  558MOL0     H73621  -2.490   8.343   3.742 -0.0567 -0.5340 -0.1216
  558MOL0     H73622  -2.696   8.158   4.107  0.2893 -0.5682 -0.7066
  558MOL0     H73623  -2.802   8.092   3.974  2.3193  0.0760 -0.9385
  558MOL0     H73624  -2.826   8.384   4.059 -1.4224 -0.2388 -1.2787
  558MOL0     H73625  -2.887   8.264   4.172  2.3654 -1.2298  0.6473
  558MOL0     H73626  -3.083   8.303   4.028 -0.9112 -1.2993 -1.6759
  558MOL0     H73627  -3.006   8.162   3.971  1.0031 -0.3364 -0.8843
  558MOL0     H73628  -2.964   8.436   3.841  1.3757 -0.2214 -0.1124
  558MOL0     H73629  -2.899   8.266   3.790 -0.7168 -2.2616  1.2742
  558MOL0     H73630  -3.197   8.358   3.815 -1.8815 -2.0029  0.2319
  558MOL0     H73631  -3.128   8.206   3.744 -0.0974  0.8061 -0.4828
  558MOL0     H73632  -3.010   8.358   3.577  0.5732 -0.6607 -0.7575
  558MOL0     H73633  -3.124   8.488   3.623 -1.6003  0.0879 -0.0240
  558MOL0     H73634  -3.195   8.212   3.518  0.4713 -0.1430  2.1656
  558MOL0     H73635  -3.313   8.336   3.577 -1.3328  1.7332 -2.3752
  558MOL0     H73636  -3.296   8.345   3.340 -1.3919  3.0633  0.4535
  558MOL0     H73637  -3.121   8.349   3.341 -1.6726 -2.7481 -3.3182
  558MOL0     H73638  -2.557   8.026   4.033 -0.9032  1.1380 -0.7226
  558MOL0     H73639  -2.326   7.937   3.978  1.7717  0.8754 -1.1162
  558MOL0     H73640  -1.818   8.091   3.839 -0.5783  0.4641 -0.2862
  558MOL0     H73641  -1.632   7.942   3.843 -2.1744  1.2175  2.1159
  558MOL0     H73642   0.242   8.272   3.428  0.2162  1.9836 -0.8765
  558MOL0     H73643   0.391   8.403   3.284  0.1889 -1.0692  2.2119
  558MOL0     H73644   0.522   8.591   2.986 -0.8922 -1.4431 -0.7350
  558MOL0     H73645   0.664   8.765   2.879  1.4969 -0.2974  3.3387
  558MOL0     H73646   0.811   8.910   2.775 -3.2961  3.7377 -1.0466
  558MOL0     H73647   0.692   8.869   2.651 -0.5645 -3.1041  0.8386
  558MOL0     H73648   0.884   8.895   2.479 -1.7818 -0.8595  0.3148
  558MOL0     H73649   0.844   9.040   2.586 -1.0186 -0.7035  1.1158
  558MOL0     H73650   1.065   8.840   2.600 -0.8743  0.2939 -3.9429
  558MOL0     H73651   1.024   8.960   2.734 -1.9616 -3.5701  0.7445
  558MOL0     H73652   1.106   9.009   2.453  3.4902 -0.5968 -0.0068
  558MOL0     H73653   1.060   9.142   2.571  2.6082  1.5972 -2.1544
  558MOL0     H73654   1.434   9.057   2.736 -0.7892 -1.4760  0.5260
  558MOL0     H73655   0.816   8.477   2.598  1.8526  0.0311  2.7940
  558MOL0     H73656   0.663   8.299   2.712 -2.4659  0.5191 -0.7240
  559MOL0     O73657   3.142   4.245   9.031 -1.0125 -0.1124 -0.2980
  559MOL0     C73658   3.180   4.320   8.942  1.5443 -0.4301  0.1892
  559MOL0     O73659   3.096   4.393   8.863  0.2929 -0.3195 -0.1864
  559MOL0     C73660   2.964   4.377   8.892 -0.4701 -0.4378 -0.2002
  559MOL0     C73661   2.900   4.397   9.017 -0.3784 -0.3479 -0.6762
  559MOL0     C73662   2.757   4.396   9.029 -0.3898 -0.4112  0.8242
  559MOL0     C73663   2.681   4.377   8.920  0.2523  0.5271  0.2054
  559MOL0     O73664   2.547   4.363   8.931  1.0714  0.1047 -0.3431
  559MOL0     C73665   2.464   4.461   8.860 -0.2536  0.9378  0.2898
  559MOL0     C73666   2.316   4.464   8.899 -0.2957 -0.0209  0.3672
  559MOL0     C73667   2.246   4.343   8.845 -0.5434  1.3658  0.3683
  559MOL0     C73668   2.093   4.374   8.845 -0.1817  0.4107  0.0819
  559MOL0     C73669   2.010   4.283   8.756 -0.3545  0.3141  0.0348
  559MOL0     C73670   1.861   4.325   8.771  0.0621 -0.1595 -0.2648
  559MOL0     C73671   1.770   4.215   8.719 -0.2451 -0.0506  0.9826
  559MOL0     C73672   1.620   4.252   8.712  0.3258  0.0312 -0.5430
  559MOL0     N73673   1.527   4.156   8.652  0.0775 -0.2252 -0.0196
  559MOL0     C73674   1.488   4.037   8.713  0.5551  0.3390  0.7015
  559MOL0     C73675   1.403   3.982   8.622  1.1190 -0.4309 -0.2498
  559MOL0     C73676   1.336   3.845   8.624 -0.2719 -0.5750 -0.4567
  559MOL0     C73677   1.192   3.849   8.663  1.2296  0.2318  0.7269
  559MOL0     C73678   1.110   3.819   8.537 -0.4850 -0.6412  0.2761
  559MOL0     C73679   0.961   3.835   8.564 -0.1318 -0.1180  0.0677
  559MOL0     O73680   0.897   3.840   8.444 -0.3063 -0.1366  0.3113
  559MOL0     C73681   0.758   3.815   8.433 -0.5439 -0.0681 -0.4800
  559MOL0     C73682   0.667   3.800   8.536  0.4896 -0.7193 -0.0161
  559MOL0     C73683   0.535   3.755   8.508 -0.5426 -0.0863 -0.3339
  559MOL0     C73684   0.505   3.727   8.375 -0.4064 -0.3441  0.4778
  559MOL0     C73685   0.362   3.690   8.333  0.0225 -0.4186 -0.2644
  559MOL0     O73686   0.262   3.746   8.403 -0.1574 -0.3778  0.4232
  559MOL0     C73687   0.131   3.722   8.380 -0.2193 -0.1732  1.1078
  559MOL0     C73688   0.080   3.595   8.354 -0.3670 -0.2599  0.0832
  559MOL0     C73689  -0.052   3.573   8.330  1.3551 -0.0049  0.5430
  559MOL0     C73690  -0.141   3.682   8.322  0.5694 -0.0050 -0.2096
  559MOL0     O73691  -0.279   3.667   8.292 -0.3115  0.0425  0.0124
  559MOL0     C73692  -0.336   3.535   8.333  0.0667 -0.2349 -0.1175
  559MOL0     C73693  -0.364   3.453   8.202 -0.0908  0.4495 -0.0995
  559MOL0     C73694  -0.473   3.342   8.216  0.1961 -0.4899  0.0575
  559MOL0     C73695  -0.612   3.404   8.252  0.4730  0.5700  0.2335
  559MOL0     C73696  -0.713   3.309   8.312 -0.1478 -0.0365 -0.1121
  559MOL0     C73697  -0.837   3.393   8.349  0.3768  0.5025  0.3784
  559MOL0     C73698  -0.934   3.305   8.429 -0.0791  0.1230  0.0650
  559MOL0     C73699  -0.885   3.275   8.570 -0.0171 -0.4859  1.0038
  559MOL0    Cl73700  -0.927   3.406   8.684  0.1008 -0.1156 -0.2039
  559MOL0     C73701  -0.090   3.810   8.350 -0.1210 -0.9806 -0.7718
  559MOL0     C73702   0.045   3.832   8.371 -0.8137  0.9381  0.2316
  559MOL0     O73703   0.347   3.620   8.237 -0.6324  0.2343  1.0232
  559MOL0     C73704   0.600   3.742   8.272  1.0201 -0.4925  0.5963
  559MOL0     C73705   0.724   3.794   8.303  0.4201 -0.0350  0.0347
  559MOL0     N73706   1.385   4.079   8.521  0.2769  0.3491  0.1210
  559MOL0     N73707   1.459   4.178   8.537  0.6561 -1.1840 -0.5038
  559MOL0     C73708   2.744   4.351   8.793  0.4716 -0.1673  0.1649
  559MOL0     C73709   2.880   4.355   8.789 -0.2269 -0.7057 -0.7861
  559MOL0     C73710   3.322   4.329   8.920  0.5160  0.5131  0.4420
  559MOL0     C73711   3.369   4.415   8.822 -0.8300 -0.1838  0.9702
  559MOL0     C73712   3.508   4.412   8.792 -0.2537 -0.0621  0.5769
  559MOL0     C73713   3.595   4.332   8.855  0.0321  0.4301 -0.5148
  559MOL0     O73714   3.717   4.331   8.799  0.0823  0.1422  0.0212
  559MOL0     C73715   3.816   4.230   8.831  0.3943 -0.8262  0.3899
  559MOL0     C73716   3.899   4.283   8.943 -0.0247  0.4822  0.2227
  559MOL0     C73717   4.021   4.195   8.975 -0.3402  0.0232  0.0745
  559MOL0     C73718   4.113   4.269   9.075 -0.0779  0.0484  0.1288
  559MOL0     C73719   4.224   4.180   9.113 -0.3904 -0.1751 -0.5944
  559MOL0     C73720   4.309   4.103   9.160  0.3184  0.8841 -1.1267
  559MOL0     C73721   3.550   4.248   8.962 -0.4662 -0.6535 -0.1177
  559MOL0     C73722   3.415   4.244   8.988  0.0433 -0.0967  0.3215
  559MOL0     H73723   2.970   4.411   9.100 -0.9803 -1.5112  0.0518
  559MOL0     H73724   2.721   4.402   9.131  1.7737  1.2826  1.5805
  559MOL0     H73725   2.471   4.444   8.752 -0.1885  1.7504  0.1648
  559MOL0     H73726   2.515   4.556   8.874  0.8995  0.4275 -0.2539
  559MOL0     H73727   2.273   4.554   8.853  0.8652 -0.4920 -1.7855
  559MOL0     H73728   2.312   4.482   9.007  1.5587 -1.2719  0.6826
  559MOL0     H73729   2.268   4.254   8.905  3.7657  2.8640  1.3899
  559MOL0     H73730   2.279   4.321   8.743  2.1199 -0.6447  1.5501
  559MOL0     H73731   2.059   4.354   8.947 -0.9537 -3.1718 -0.7271
  559MOL0     H73732   2.068   4.475   8.812 -0.6813  0.5379  0.8219
  559MOL0     H73733   2.029   4.180   8.788 -0.0380  0.1574 -0.6475
  559MOL0     H73734   2.036   4.286   8.650 -1.8332  3.5525 -0.3754
  559MOL0     H73735   1.850   4.418   8.715  4.6496 -0.3070 -1.8394
  559MOL0     H73736   1.840   4.337   8.877 -0.0827  0.2989 -0.3451
  559MOL0     H73737   1.807   4.173   8.625  0.6038  0.2258  1.1867
  559MOL0     H73738   1.767   4.134   8.792 -0.0990 -0.1696  0.8592
  559MOL0     H73739   1.616   4.348   8.660  2.1418  0.9143  0.8611
  559MOL0     H73740   1.591   4.270   8.816 -2.9688 -0.4323 -1.2626
  559MOL0     H73741   1.531   3.983   8.797 -0.0830 -0.9460  0.2403
  559MOL0     H73742   1.396   3.778   8.686  1.3781  0.0510 -1.3224
  559MOL0     H73743   1.344   3.813   8.520 -2.7961 -0.7423 -0.6774
  559MOL0     H73744   1.168   3.949   8.701  0.1528  0.6637 -1.0166
  559MOL0     H73745   1.169   3.774   8.739 -0.2740  0.0464  0.1188
  559MOL0     H73746   1.143   3.883   8.455  1.5305  0.6664  2.0142
  559MOL0     H73747   1.128   3.716   8.503 -1.4814  0.4654 -4.2443
  559MOL0     H73748   0.944   3.933   8.611  0.3891 -1.0378  2.3280
  559MOL0     H73749   0.921   3.752   8.622 -1.8745 -0.0201 -0.9397
  559MOL0     H73750   0.694   3.809   8.640  1.6886  2.8045 -0.5170
  559MOL0     H73751   0.460   3.745   8.585  0.4607 -0.6319  0.5878
  559MOL0     H73752   0.145   3.509   8.349  0.4946  0.3937 -0.3161
  559MOL0     H73753  -0.084   3.472   8.305  0.5841 -0.3543  2.7246
  559MOL0     H73754  -0.432   3.558   8.380  0.3292  0.6705 -0.0024
  559MOL0     H73755  -0.271   3.481   8.402  0.8759  1.1394  0.2279
  559MOL0     H73756  -0.270   3.405   8.174 -0.1255  0.6640 -0.5775
  559MOL0     H73757  -0.402   3.525   8.130 -2.0468  0.9441  1.3332
  559MOL0     H73758  -0.439   3.267   8.288 -2.2053 -1.5966  0.1622
  559MOL0     H73759  -0.477   3.282   8.124 -1.1034 -1.2557  0.5723
  559MOL0     H73760  -0.601   3.484   8.326  0.1364 -0.0445  0.9614
  559MOL0     H73761  -0.661   3.447   8.164 -0.6601  0.4989  0.8115
  559MOL0     H73762  -0.678   3.267   8.407 -0.3697  2.9039  1.4016
  559MOL0     H73763  -0.732   3.228   8.242  1.6583  1.9317 -3.1018
  559MOL0     H73764  -0.887   3.435   8.261 -3.0651 -0.4065  1.7271
  559MOL0     H73765  -0.827   3.485   8.407 -0.8622 -0.7267  2.6636
  559MOL0     H73766  -1.022   3.369   8.439  0.6772  1.2241 -0.0714
  559MOL0     H73767  -0.956   3.212   8.376 -0.6398  0.3729 -0.1485
  559MOL0     H73768  -0.776   3.272   8.575  0.1484  2.0752  0.3588
  559MOL0     H73769  -0.930   3.178   8.596 -2.3190 -0.4300 -2.1230
  559MOL0     H73770  -0.156   3.895   8.357  0.9981 -0.2098  2.7214
  559MOL0     H73771   0.090   3.928   8.394  1.9898 -0.2806  0.1442
  559MOL0     H73772   0.578   3.717   8.169 -0.9318  2.6761  0.1011
  559MOL0     H73773   0.795   3.808   8.223 -0.0545  0.5163 -0.2928
  559MOL0     H73774   2.675   4.341   8.710 -0.1886 -0.3155  0.7241
  559MOL0     H73775   2.928   4.334   8.695 -0.5415 -0.0902 -1.0863
  559MOL0     H73776   3.303   4.487   8.775 -2.8928 -0.6516  2.9800
  559MOL0     H73777   3.558   4.469   8.715 -0.8927 -1.2433 -0.7405
  559MOL0     H73778   3.878   4.207   8.744 -0.1042  1.2396 -0.5866
  559MOL0     H73779   3.770   4.137   8.865 -0.8909 -0.4793 -0.3229
  559MOL0     H73780   3.942   4.379   8.912  3.5302 -0.1477  2.6293
  559MOL0     H73781   3.839   4.293   9.034  0.8265 -0.3809  0.8940
  559MOL0     H73782   4.077   4.180   8.882 -0.3262  1.2759 -0.1456
  559MOL0     H73783   3.986   4.100   9.016 -0.9275  0.6226  1.0020
  559MOL0     H73784   4.157   4.355   9.023  2.5373 -1.1278  0.2408
  559MOL0     H73785   4.055   4.313   9.156 -2.3982 -0.6208 -1.0768
  559MOL0     H73786   4.372   4.036   9.214 -1.3272 -0.5740 -0.9485
  559MOL0     H73787   3.612   4.184   9.024 -0.1873  0.2853  0.5880
  559MOL0     H73788   3.386   4.188   9.076  0.2087  0.9554  1.0671
  560MOL0     O73789   5.424   9.750   8.126  0.7158 -0.4644  0.2271
  560MOL0     C73790   5.396   9.822   8.219  0.1022 -0.4595  1.1173
  560MOL0     O73791   5.264   9.844   8.253 -0.1723 -0.0527 -0.0929
  560MOL0     C73792   5.161   9.761   8.238  0.4761  1.2744 -0.3295
  560MOL0     C73793   5.157   9.634   8.179 -0.0076 -0.1157  0.1446
  560MOL0     C73794   5.037   9.561   8.162 -0.4776  0.1276  0.0868
  560MOL0     C73795   4.915   9.620   8.197  0.7134  0.6605  0.1971
  560MOL0     O73796   4.781   9.573   8.170 -0.6412  0.0025 -0.0145
  560MOL0     C73797   4.763   9.442   8.131  0.0911  0.1505 -0.0253
  560MOL0     C73798   4.634   9.384   8.195  0.4263 -0.0438  0.7892
  560MOL0     C73799   4.516   9.436   8.123 -0.3547  0.0531 -0.4062
  560MOL0     C73800   4.385   9.354   8.132 -0.0691  0.3817 -0.1461
  560MOL0     C73801   4.274   9.403   8.027 -0.3784  0.9084 -0.2368
  560MOL0     C73802   4.198   9.529   8.079 -0.5676 -1.1977 -0.3279
  560MOL0     C73803   4.133   9.591   7.943  0.0684 -0.5204  0.1618
  560MOL0     C73804   3.990   9.624   7.978 -0.1851 -0.4721 -0.6662
  560MOL0     N73805   3.913   9.502   8.002  0.8245 -0.0379  0.1136
  560MOL0     C73806   3.889   9.393   7.922 -0.0407 -0.5438 -0.1943
  560MOL0     C73807   3.828   9.308   7.999  0.0700 -0.1265 -0.3669
  560MOL0     C73808   3.780   9.168   7.956  0.9628  0.3761  0.8531
  560MOL0     C73809   3.637   9.174   7.896 -0.9593  0.7210  0.0770
  560MOL0     C73810   3.589   9.030   7.844 -0.3716 -0.0533  0.6881
  560MOL0     C73811   3.453   9.021   7.778  0.1798  0.2030  0.1571
  560MOL0     O73812   3.361   9.097   7.862 -0.2300 -0.3497 -0.6433
  560MOL0     C73813   3.237   9.042   7.870  1.3112  0.2080  0.3519
  560MOL0     C73814   3.203   8.909   7.898  0.1279  0.1312 -0.6182
  560MOL0     C73815   3.075   8.865   7.895  0.1385  0.4071  0.1079
  560MOL0     C73816   2.969   8.958   7.866 -0.1083  0.4839  0.2778
  560MOL0     C73817   2.829   8.917   7.864 -0.1353 -0.1793 -0.1534
  560MOL0     O73818   2.729   9.005   7.829  0.6383 -0.1968  0.4867
  560MOL0     C73819   2.598   8.979   7.844  0.5678 -0.5353 -0.0858
  560MOL0     C73820   2.527   8.860   7.831  0.1827 -0.2835  0.3490
  560MOL0     C73821   2.387   8.861   7.850  0.8063  0.3213  0.3419
  560MOL0     C73822   2.312   8.980   7.849  0.8217 -0.1679  0.5399
  560MOL0     O73823   2.172   8.985   7.834 -0.3280  0.2599 -1.0536
  560MOL0     C73824   2.110   8.873   7.763 -0.7523 -0.2580  0.2258
  560MOL0     C73825   1.994   8.925   7.677 -0.1342  0.2147  0.5830
  560MOL0     C73826   1.919   8.803   7.621  0.6556  0.1864  0.1020
  560MOL0     C73827   1.812   8.846   7.524  0.2296 -0.4336 -0.8100
  560MOL0     C73828   1.859   8.859   7.376 -0.1943 -0.2048 -0.2063
  560MOL0     C73829   1.798   8.974   7.307 -0.2268  0.3454 -0.6639
  560MOL0     C73830   1.643   8.968   7.284 -0.4198  0.5215 -0.2190
  560MOL0     C73831   1.595   9.098   7.206  0.5421  0.3518  0.4240
  560MOL0    Cl73832   1.419   9.117   7.221  0.5999  0.2526  0.1826
  560MOL0     C73833   2.382   9.100   7.859  0.2473  0.0248 -0.3992
  560MOL0     C73834   2.523   9.098   7.866 -0.1041 -0.1151 -0.2532
  560MOL0     O73835   2.804   8.800   7.902 -0.6778  0.4260 -0.0172
  560MOL0     C73836   2.996   9.089   7.839 -0.5631  0.5995 -0.4389
  560MOL0     C73837   3.132   9.129   7.839  0.0770 -0.0000 -0.1773
  560MOL0     N73838   3.804   9.358   8.127  0.1923  0.7895 -0.6925
  560MOL0     N73839   3.860   9.478   8.128 -0.3420  0.1971  0.0844
  560MOL0     C73840   4.927   9.743   8.258 -0.3079  0.2365  0.1614
  560MOL0     C73841   5.039   9.815   8.284 -0.0403 -0.5189 -0.7915
  560MOL0     C73842   5.510   9.883   8.279 -1.0959 -0.2780 -0.0461
  560MOL0     C73843   5.634   9.879   8.227 -0.3061 -0.2844  1.2172
  560MOL0     C73844   5.742   9.935   8.293  0.4413  0.3669 -0.7241
  560MOL0     C73845   5.727   9.989   8.424  0.1327  0.2306  0.0471
  560MOL0     O73846   5.830  10.038   8.494 -0.0355  0.2570 -0.6136
  560MOL0     C73847   5.957   9.971   8.484 -0.6191 -0.3950 -0.6666
  560MOL0     C73848   6.047  10.043   8.582 -0.1346 -0.3180  0.4361
  560MOL0     C73849   6.179   9.968   8.608  0.8405  0.3938  0.5209
  560MOL0     C73850   6.293  10.001   8.512  0.2876  0.0149 -0.0640
  560MOL0     C73851   6.340  10.140   8.523  0.0482  0.5698 -0.8806
  560MOL0     C73852   6.377  10.249   8.536  0.1849 -0.5083 -0.3081
  560MOL0     C73853   5.602   9.979   8.484 -0.3307 -0.2512  0.0115
  560MOL0     C73854   5.495   9.923   8.410 -0.2545  0.1753  0.5226
  560MOL0     H73855   5.253   9.586   8.165  1.1883  1.9779  0.7824
  560MOL0     H73856   5.042   9.459   8.124  1.7021  0.2270 -0.0396
  560MOL0     H73857   4.834   9.376   8.181 -1.4152  0.0777  2.1249
  560MOL0     H73858   4.769   9.425   8.023 -1.2859  1.4087 -0.3274
  560MOL0     H73859   4.625   9.399   8.303 -0.4078 -1.0789  0.8767
  560MOL0     H73860   4.628   9.275   8.190 -0.1164  0.0074  0.2018
  560MOL0     H73861   4.538   9.447   8.016  2.2658 -3.4697 -0.4262
  560MOL0     H73862   4.506   9.538   8.160  0.8225  1.3079 -3.2829
  560MOL0     H73863   4.407   9.250   8.106  1.4374  1.1390 -2.1620
  560MOL0     H73864   4.347   9.347   8.234  0.1044 -1.1145 -0.1610
  560MOL0     H73865   4.199   9.326   8.009  0.9040 -0.4123 -0.1044
  560MOL0     H73866   4.319   9.421   7.929 -1.4237 -0.8195 -1.0706
  560MOL0     H73867   4.272   9.600   8.117  0.9209 -1.8153 -1.9448
  560MOL0     H73868   4.122   9.492   8.149 -0.9855  0.9279  0.4071
  560MOL0     H73869   4.180   9.684   7.909 -2.9951  0.8704 -0.5935
  560MOL0     H73870   4.136   9.524   7.857 -0.3805  0.4930 -0.6605
  560MOL0     H73871   3.937   9.684   7.903 -0.1660  0.0155 -0.2950
  560MOL0     H73872   3.995   9.683   8.070 -2.2035 -2.9430  1.1772
  560MOL0     H73873   3.910   9.386   7.815  0.0774 -1.8334 -0.1037
  560MOL0     H73874   3.783   9.097   8.038  0.0896  1.0284  1.4595
  560MOL0     H73875   3.840   9.127   7.874  1.1820 -0.4397  1.4172
  560MOL0     H73876   3.646   9.247   7.814 -0.1509 -0.2656 -0.7362
  560MOL0     H73877   3.567   9.221   7.966 -1.9164  0.2194 -0.5096
  560MOL0     H73878   3.668   9.002   7.774  0.4522  0.3795  1.4277
  560MOL0     H73879   3.602   8.963   7.930  3.4682  0.7175  0.8980
  560MOL0     H73880   3.434   8.914   7.766 -0.3913  0.4305 -1.2006
  560MOL0     H73881   3.462   9.062   7.677  1.1849  0.2084  0.2449
  560MOL0     H73882   3.280   8.840   7.932 -1.7760 -0.8850  1.9471
  560MOL0     H73883   3.063   8.757   7.890  0.3229  0.4426 -2.4585
  560MOL0     H73884   2.584   8.769   7.816  0.8766  0.0209  1.0751
  560MOL0     H73885   2.344   8.761   7.855  1.9658 -0.1716  0.5627
  560MOL0     H73886   2.089   8.792   7.833  1.4335 -0.8562  0.2499
  560MOL0     H73887   2.184   8.830   7.695 -0.2778 -1.7335  1.6282
  560MOL0     H73888   2.027   8.986   7.593 -2.3237  2.1316  1.0157
  560MOL0     H73889   1.933   8.994   7.736  0.9452  3.2520 -1.6100
  560MOL0     H73890   1.875   8.746   7.704 -0.3662  0.8529  0.0457
  560MOL0     H73891   2.001   8.756   7.567  1.0501  0.2310  0.6573
  560MOL0     H73892   1.737   8.765   7.524  2.6154 -2.8487  1.5645
  560MOL0     H73893   1.764   8.937   7.560 -0.1351 -1.0051  0.1797
  560MOL0     H73894   1.829   8.769   7.322  2.9308  0.0819 -2.7364
  560MOL0     H73895   1.967   8.863   7.363  0.3740 -4.2154  1.6817
  560MOL0     H73896   1.844   8.980   7.208 -0.1077 -0.6053 -0.6747
  560MOL0     H73897   1.823   9.065   7.361 -1.4171  1.6068 -2.1484
  560MOL0     H73898   1.608   8.877   7.234  0.9475 -0.8684  1.2497
  560MOL0     H73899   1.600   8.968   7.385  0.5271  2.5632  0.2314
  560MOL0     H73900   1.626   9.098   7.101  0.8161 -0.1652  0.4988
  560MOL0     H73901   1.634   9.189   7.252 -1.8629  2.5803 -1.6428
  560MOL0     H73902   2.327   9.189   7.884  0.3797 -0.5485  2.2476
  560MOL0     H73903   2.575   9.189   7.895 -1.2625  0.3818  0.3391
  560MOL0     H73904   2.916   9.160   7.822 -1.3945 -0.3490 -0.5628
  560MOL0     H73905   3.158   9.234   7.836  1.8133 -0.2045  3.1726
  560MOL0     H73906   4.833   9.786   8.291 -0.7245  0.3718 -1.1426
  560MOL0     H73907   5.044   9.911   8.334  3.0256 -1.5375  1.1323
  560MOL0     H73908   5.655   9.864   8.121  2.4552  0.2453  1.6000
  560MOL0     H73909   5.843   9.935   8.252  0.2786 -1.6517 -1.2106
  560MOL0     H73910   5.994   9.984   8.382  1.6836  3.6657  0.4787
  560MOL0     H73911   5.947   9.865   8.512  1.4652 -0.0750  1.5974
  560MOL0     H73912   6.071  10.137   8.530  1.0671 -0.5692  0.5099
  560MOL0     H73913   5.992  10.050   8.676 -0.4218  1.8283  0.1639
  560MOL0     H73914   6.165   9.860   8.616  1.2869 -0.0978 -3.4104
  560MOL0     H73915   6.213  10.004   8.706  1.8536  0.5588  0.1192
  560MOL0     H73916   6.370   9.926   8.531  0.3777  0.6332  2.3118
  560MOL0     H73917   6.263   9.993   8.407  2.2501 -0.5252 -0.6201
  560MOL0     H73918   6.403  10.353   8.540  0.3670 -0.5830  0.7881
  560MOL0     H73919   5.603  10.013   8.587 -3.3463 -1.2360  0.4775
  560MOL0     H73920   5.399   9.913   8.460  0.0596 -1.0832  0.9149
  561MOL0     O73921   6.530   7.555   7.656  1.1637 -1.0122  0.3088
  561MOL0     C73922   6.551   7.442   7.699 -0.3570 -0.5928 -1.1992
  561MOL0     O73923   6.459   7.358   7.752  0.9467  0.3412 -0.1147
  561MOL0     C73924   6.333   7.401   7.778 -0.3079  0.3540  0.2982
  561MOL0     C73925   6.227   7.310   7.744 -0.1575 -0.4673 -0.8001
  561MOL0     C73926   6.093   7.342   7.767  0.4438  0.0516  0.2384
  561MOL0     C73927   6.060   7.468   7.828  0.0188  0.6921 -0.2611
  561MOL0     O73928   5.932   7.511   7.850 -0.0696 -0.4730  0.8316
  561MOL0     C73929   5.814   7.428   7.822  0.5814  0.1363 -0.4288
  561MOL0     C73930   5.687   7.501   7.864 -0.3411 -1.2827  0.1812
  561MOL0     C73931   5.567   7.408   7.838  0.2917  0.0926 -0.0898
  561MOL0     C73932   5.442   7.491   7.874 -0.6069 -0.6976  0.2910
  561MOL0     C73933   5.322   7.402   7.853  0.4395 -0.4450  0.6587
  561MOL0     C73934   5.272   7.387   7.706  0.3888 -0.3509 -0.0016
  561MOL0     C73935   5.215   7.512   7.636 -0.1118 -0.4709  0.9307
  561MOL0     C73936   5.216   7.488   7.484 -0.7219  0.3906  0.8844
  561MOL0     N73937   5.104   7.402   7.439  0.1534 -0.5871  0.5063
  561MOL0     C73938   4.976   7.447   7.410  1.1011 -0.6494 -0.1297
  561MOL0     C73939   4.913   7.334   7.388 -0.5868 -0.0155  0.5726
  561MOL0     C73940   4.768   7.326   7.341 -0.9706 -0.9001  0.2744
  561MOL0     C73941   4.703   7.207   7.410 -0.4484  0.5809 -1.1947
  561MOL0     C73942   4.551   7.190   7.372  0.0505 -0.2023 -0.2122
  561MOL0     C73943   4.464   7.316   7.411  0.1662  0.6416 -0.3816
  561MOL0     O73944   4.334   7.314   7.359  0.5341  0.2182  0.2372
  561MOL0     C73945   4.244   7.211   7.379 -0.3581 -0.0001 -0.4733
  561MOL0     C73946   4.243   7.126   7.491 -0.6652  1.1137  0.4186
  561MOL0     C73947   4.151   7.026   7.508  0.4192  0.1217 -0.4983
  561MOL0     C73948   4.074   6.985   7.390 -0.5341  0.1070  0.2706
  561MOL0     C73949   3.965   6.879   7.389 -0.3201  0.4166 -0.3171
  561MOL0     O73950   3.901   6.854   7.277 -0.2024 -0.0117 -0.2311
  561MOL0     C73951   3.770   6.809   7.279  0.3259 -0.7004  0.1789
  561MOL0     C73952   3.688   6.817   7.390 -1.2069 -0.3055  0.5234
  561MOL0     C73953   3.555   6.772   7.382  0.3853 -0.9893 -0.1627
  561MOL0     C73954   3.491   6.738   7.260  0.1811  0.1644  0.2313
  561MOL0     O73955   3.363   6.697   7.240  0.0692  0.4926 -0.5040
  561MOL0     C73956   3.301   6.641   7.352  0.0353  0.1358  0.4667
  561MOL0     C73957   3.167   6.580   7.326  0.4022  0.0681  0.1400
  561MOL0     C73958   3.058   6.692   7.328 -0.6445  1.0042 -0.3176
  561MOL0     C73959   2.918   6.630   7.328 -0.3692 -0.3966 -0.0459
  561MOL0     C73960   2.822   6.750   7.316 -0.4683 -0.1740 -0.1404
  561MOL0     C73961   2.680   6.723   7.351 -0.0508  0.1189  0.3147
  561MOL0     C73962   2.607   6.854   7.347  0.8159  0.0376 -0.2853
  561MOL0     C73963   2.453   6.826   7.360  0.1237 -0.7244 -0.1906
  561MOL0    Cl73964   2.362   6.973   7.335  0.0645  0.3975 -0.3110
  561MOL0     C73965   3.578   6.743   7.149 -0.0912 -0.0068 -0.6574
  561MOL0     C73966   3.708   6.792   7.160 -0.2223  0.3017  0.8298
  561MOL0     O73967   3.980   6.807   7.489  0.1150 -0.1553  0.5916
  561MOL0     C73968   4.071   7.074   7.285  0.6041  0.1683 -0.0684
  561MOL0     C73969   4.154   7.189   7.278  0.2245 -0.0115  0.1618
  561MOL0     N73970   5.000   7.227   7.410  0.5667  0.2015 -0.2427
  561MOL0     N73971   5.112   7.267   7.441 -0.2290 -0.1366  0.4276
  561MOL0     C73972   6.162   7.552   7.852 -0.1408 -0.3775 -0.5699
  561MOL0     C73973   6.294   7.522   7.839 -0.0239 -0.8615  0.4468
  561MOL0     C73974   6.688   7.387   7.687 -0.0101 -0.4716  0.1058
  561MOL0     C73975   6.774   7.448   7.590  0.6150  0.0630 -0.5071
  561MOL0     C73976   6.901   7.395   7.565  0.2506 -0.4842 -0.3934
  561MOL0     C73977   6.946   7.294   7.650 -0.6340  1.0915 -0.3791
  561MOL0     O73978   7.067   7.239   7.630 -0.3369  0.8287  0.3767
  561MOL0     C73979   7.117   7.127   7.708 -0.0837 -0.4435 -1.3205
  561MOL0     C73980   7.228   7.058   7.638  1.0759  1.0082 -0.5750
  561MOL0     C73981   7.360   7.111   7.659  0.1812 -0.3931  0.2655
  561MOL0     C73982   7.455   7.080   7.539 -0.0034  0.0329 -0.0038
  561MOL0     C73983   7.424   7.160   7.421 -0.7090 -0.3073 -0.1451
  561MOL0     C73984   7.395   7.236   7.332  1.0356  0.1896 -0.7356
  561MOL0     C73985   6.858   7.233   7.745 -0.0659 -0.0122  0.1274
  561MOL0     C73986   6.731   7.278   7.759 -0.4051  0.4422  0.4483
  561MOL0     H73987   6.251   7.218   7.690 -1.3986 -0.5178 -1.3043
  561MOL0     H73988   6.025   7.274   7.718  0.2236 -0.2124  0.9062
  561MOL0     H73989   5.827   7.333   7.875  0.0839 -0.5565 -1.5089
  561MOL0     H73990   5.811   7.411   7.714 -0.7208 -0.7123 -0.2904
  561MOL0     H73991   5.677   7.592   7.804  2.7074  0.2779  1.8365
  561MOL0     H73992   5.690   7.528   7.969  1.3731 -2.6470  0.5226
  561MOL0     H73993   5.570   7.321   7.903  0.0514  1.0492  1.2579
  561MOL0     H73994   5.557   7.379   7.733  0.7952  1.1859 -0.4535
  561MOL0     H73995   5.442   7.513   7.981 -1.1002 -0.0691  0.1662
  561MOL0     H73996   5.432   7.584   7.817 -0.8865 -0.6649  0.3898
  561MOL0     H73997   5.248   7.460   7.908  0.9794 -0.5996  1.5716
  561MOL0     H73998   5.341   7.308   7.906 -0.3189 -0.0232  1.7068
  561MOL0     H73999   5.204   7.301   7.706  1.6274 -1.3652  0.7528
  561MOL0     H74000   5.352   7.347   7.642 -2.1170 -0.3168 -3.4413
  561MOL0     H74001   5.114   7.536   7.670  0.3486  0.7484  1.4930
  561MOL0     H74002   5.280   7.596   7.659  0.0209 -0.6640  1.2633
  561MOL0     H74003   5.307   7.438   7.452 -0.2080  0.3431  2.3487
  561MOL0     H74004   5.197   7.582   7.431 -1.5858  0.0220  0.5172
  561MOL0     H74005   4.936   7.547   7.410  0.6847 -0.8065  0.6090
  561MOL0     H74006   4.765   7.305   7.234 -1.0793 -1.2633  0.3459
  561MOL0     H74007   4.709   7.416   7.359 -0.4466 -0.6981  1.0112
  561MOL0     H74008   4.688   7.234   7.515 -3.0846 -1.2698 -0.9952
  561MOL0     H74009   4.757   7.112   7.402 -2.6537 -1.0521  1.5077
  561MOL0     H74010   4.552   7.181   7.263 -1.3368  0.7144 -0.3192
  561MOL0     H74011   4.517   7.097   7.419 -1.9837  0.1302 -0.9213
  561MOL0     H74012   4.514   7.406   7.373  0.7922  0.9668  1.1427
  561MOL0     H74013   4.459   7.323   7.520 -1.2039 -0.2910 -0.3630
  561MOL0     H74014   4.316   7.147   7.569 -1.4813  0.4968  1.3795
  561MOL0     H74015   4.144   6.964   7.596  1.5212  0.3986 -0.1980
  561MOL0     H74016   3.722   6.843   7.489 -2.9829 -0.2390  1.1473
  561MOL0     H74017   3.492   6.782   7.469  1.0645 -0.4341  0.2726
  561MOL0     H74018   3.292   6.722   7.424 -1.0193  0.9112 -0.4953
  561MOL0     H74019   3.369   6.573   7.403  0.2274 -2.3655 -2.8031
  561MOL0     H74020   3.157   6.508   7.407  1.0722  1.5080  1.5689
  561MOL0     H74021   3.173   6.536   7.226  0.5536  0.3243  0.0341
  561MOL0     H74022   3.083   6.764   7.249 -1.2482  1.1478 -0.3776
  561MOL0     H74023   3.074   6.744   7.423 -1.7948  1.3179 -0.2884
  561MOL0     H74024   2.909   6.561   7.243  1.6135 -0.2477 -0.4169
  561MOL0     H74025   2.899   6.572   7.418 -1.9453  0.8106  0.4473
  561MOL0     H74026   2.825   6.783   7.211  3.7488 -1.4322 -0.5863
  561MOL0     H74027   2.860   6.833   7.376  2.8719 -2.2973  0.9597
  561MOL0     H74028   2.670   6.688   7.454 -1.1219  0.7674  0.4518
  561MOL0     H74029   2.637   6.660   7.274 -1.3096  0.9645  0.2884
  561MOL0     H74030   2.642   6.908   7.435  1.4623  0.2273 -0.6515
  561MOL0     H74031   2.639   6.909   7.258  1.5297  0.6047  0.3018
  561MOL0     H74032   2.431   6.804   7.465 -0.6965  0.4694 -0.0902
  561MOL0     H74033   2.423   6.745   7.293  1.5051  0.9116 -2.9702
  561MOL0     H74034   3.548   6.700   7.054 -1.1657 -2.6738  0.7726
  561MOL0     H74035   3.777   6.812   7.078 -2.4192 -0.9469 -1.4681
  561MOL0     H74036   3.996   7.058   7.209  1.6861  0.4022 -1.2147
  561MOL0     H74037   4.154   7.257   7.194  2.1315 -0.8209 -0.5425
  561MOL0     H74038   6.151   7.654   7.887  1.9254 -0.8499  1.7918
  561MOL0     H74039   6.359   7.603   7.869 -1.2658  0.4267 -0.2328
  561MOL0     H74040   6.737   7.528   7.527 -0.2678 -0.5873 -0.8573
  561MOL0     H74041   6.962   7.440   7.488 -1.3580  1.7284 -0.4862
  561MOL0     H74042   7.041   7.048   7.714 -1.1883  0.6141 -0.7651
  561MOL0     H74043   7.144   7.167   7.806  0.6403 -3.6818 -0.0848
  561MOL0     H74044   7.225   6.956   7.678  1.9366  0.0362 -2.8266
  561MOL0     H74045   7.205   7.065   7.531  2.2681  3.6872 -0.7376
  561MOL0     H74046   7.402   7.080   7.755 -0.0885 -1.5347  0.0269
  561MOL0     H74047   7.335   7.216   7.673 -3.8785 -0.9124 -1.7577
  561MOL0     H74048   7.557   7.099   7.573  0.2850 -1.1665 -0.1779
  561MOL0     H74049   7.446   6.976   7.507 -3.1206 -1.0229  3.5887
  561MOL0     H74050   7.379   7.318   7.265 -0.1352  0.1970 -0.4656
  561MOL0     H74051   6.887   7.153   7.813  0.8960  0.0770 -0.1627
  561MOL0     H74052   6.663   7.225   7.825 -1.3538  1.4429  0.3058
  562MOL0     O74053   9.590   4.355   9.447  0.2847  0.0696  0.3329
  562MOL0     C74054   9.582   4.398   9.331  0.2559 -0.5183 -0.0231
  562MOL0     O74055   9.616   4.332   9.214  0.6702  0.4165  0.4941
  562MOL0     C74056   9.638   4.198   9.205 -0.1641  0.7550 -0.6088
  562MOL0     C74057   9.591   4.101   9.296  0.3314  0.9375 -0.1567
  562MOL0     C74058   9.646   3.968   9.297  0.2903 -0.7201  0.3791
  562MOL0     C74059   9.739   3.926   9.204 -0.3875  0.9247 -0.4527
  562MOL0     O74060   9.785   3.796   9.208 -0.1167  0.0716  0.0704
  562MOL0     C74061   9.844   3.735   9.096 -1.2754 -0.2479  0.3381
  562MOL0     C74062   9.746   3.711   8.978 -0.2301 -0.4885 -0.1316
  562MOL0     C74063   9.802   3.630   8.857 -0.2844 -0.1776 -0.0382
  562MOL0     C74064   9.817   3.475   8.893  0.0671  0.0909  0.2495
  562MOL0     C74065   9.895   3.391   8.786 -0.2631  0.3000 -0.5017
  562MOL0     C74066   9.806   3.352   8.665 -0.1469  0.0956  0.4299
  562MOL0     C74067   9.884   3.290   8.547 -0.4080  0.3097 -0.3549
  562MOL0     C74068   9.941   3.157   8.598  0.1733  0.3290  0.3152
  562MOL0     N74069   9.848   3.052   8.625 -0.0425 -0.1222 -0.5366
  562MOL0     C74070   9.768   2.993   8.536 -0.1052 -0.1053  0.5101
  562MOL0     C74071   9.718   2.880   8.599 -0.3939 -0.4626  0.0023
  562MOL0     C74072   9.654   2.764   8.531  0.0884  0.3295 -0.4376
  562MOL0     C74073   9.503   2.771   8.512 -0.3261  0.3764 -0.2611
  562MOL0     C74074   9.433   2.763   8.647  0.5499 -0.1929 -0.6143
  562MOL0     C74075   9.277   2.778   8.626  0.0013  0.2833  0.1293
  562MOL0     O74076   9.224   2.646   8.613  0.0004  0.4339 -0.2381
  562MOL0     C74077   9.093   2.623   8.584 -0.0530  0.4311  0.4421
  562MOL0     C74078   9.042   2.510   8.640  0.7408 -0.4007 -0.4287
  562MOL0     C74079   8.907   2.481   8.622  0.0246 -0.1132  0.0801
  562MOL0     C74080   8.827   2.559   8.542  0.0011  0.7632  0.6129
  562MOL0     C74081   8.690   2.512   8.515  0.2436  0.2924 -0.9116
  562MOL0     O74082   8.653   2.384   8.559  0.0243  0.7999  0.1555
  562MOL0     C74083   8.521   2.345   8.573 -0.5294  0.3892  0.2998
  562MOL0     C74084   8.413   2.435   8.591  0.3923 -0.1761 -0.5082
  562MOL0     C74085   8.280   2.396   8.581 -0.6886  0.8722  0.1460
  562MOL0     C74086   8.242   2.262   8.564  0.2575 -0.2619  0.5454
  562MOL0     O74087   8.115   2.201   8.567 -0.5424 -0.2491 -0.5128
  562MOL0     C74088   8.006   2.288   8.602  0.0857  1.2156  1.0460
  562MOL0     C74089   7.873   2.216   8.623  0.3805  0.0446  0.4868
  562MOL0     C74090   7.827   2.147   8.500 -0.0024 -0.3894 -0.3983
  562MOL0     C74091   7.686   2.098   8.504  0.1481  0.4937 -0.1654
  562MOL0     C74092   7.590   2.218   8.476  0.4337  0.1246  0.0979
  562MOL0     C74093   7.446   2.187   8.492 -0.1881 -0.4286  0.1931
  562MOL0     C74094   7.356   2.306   8.462  0.0355  0.1471  0.2504
  562MOL0     C74095   7.215   2.260   8.494 -0.4949 -1.1860 -0.2135
  562MOL0    Cl74096   7.159   2.106   8.404  0.4304 -0.2493 -0.2582
  562MOL0     C74097   8.348   2.181   8.534  0.7278 -0.2973  0.1183
  562MOL0     C74098   8.479   2.212   8.548  0.0438  0.0825 -0.0175
  562MOL0     O74099   8.617   2.588   8.446  0.1693  0.2596  0.1501
  562MOL0     C74100   8.883   2.667   8.478  0.2103  0.2568 -0.7432
  562MOL0     C74101   9.012   2.698   8.504  0.1879 -0.6368 -0.1289
  562MOL0     N74102   9.764   2.877   8.728 -0.6977 -0.7471 -0.2989
  562MOL0     N74103   9.832   2.982   8.748 -0.1183 -0.9523 -0.4152
  562MOL0     C74104   9.790   4.026   9.114  0.2505  0.0877  0.2030
  562MOL0     C74105   9.734   4.155   9.111 -0.4695 -0.0830 -0.2531
  562MOL0     C74106   9.531   4.531   9.318 -0.9059 -1.5723  0.2314
  562MOL0     C74107   9.445   4.589   9.407  0.6451  0.1303 -0.0144
  562MOL0     C74108   9.410   4.724   9.394 -0.4439  0.4936  0.4147
  562MOL0     C74109   9.471   4.802   9.297  0.5372 -0.2669 -0.9555
  562MOL0     O74110   9.431   4.931   9.297  1.0014  0.0087  0.1892
  562MOL0     C74111   9.492   5.018   9.204 -0.2470  0.4130 -0.2447
  562MOL0     C74112   9.409   5.149   9.209 -0.0102  0.0520 -0.3393
  562MOL0     C74113   9.276   5.141   9.147  0.4639  0.7448 -0.1150
  562MOL0     C74114   9.214   5.277   9.145  0.6766  0.3689  0.3321
  562MOL0     C74115   9.071   5.269   9.142 -0.2496  0.1913  0.8106
  562MOL0     C74116   8.955   5.282   9.132 -0.3737  0.4427 -0.1674
  562MOL0     C74117   9.562   4.747   9.207 -0.4266  1.5514 -0.2731
  562MOL0     C74118   9.595   4.614   9.226 -0.3870 -0.2110 -0.5876
  562MOL0     H74119   9.506   4.122   9.360 -1.1899 -1.2247 -1.3204
  562MOL0     H74120   9.619   3.893   9.370 -1.2528  1.8032  2.5786
  562MOL0     H74121   9.869   3.635   9.133 -0.2300  0.1903  0.8723
  562MOL0     H74122   9.941   3.778   9.067 -1.0977 -0.5880  0.4223
  562MOL0     H74123   9.713   3.812   8.949 -0.1372  0.3210  2.3173
  562MOL0     H74124   9.655   3.661   9.011 -1.0608  0.1518 -1.3798
  562MOL0     H74125   9.904   3.664   8.836 -0.0561 -0.4720  0.5698
  562MOL0     H74126   9.743   3.632   8.765  0.4395 -1.9666 -0.5857
  562MOL0     H74127   9.869   3.465   8.988  0.5851 -1.0929 -0.1362
  562MOL0     H74128   9.715   3.434   8.900  1.2388 -3.1929 -0.1389
  562MOL0     H74129   9.935   3.300   8.832 -0.7230 -0.9016 -2.3962
  562MOL0     H74130   9.984   3.447   8.757  0.5956 -0.7371  0.0552
  562MOL0     H74131   9.754   3.440   8.624  0.7655 -0.0842 -1.2056
  562MOL0     H74132   9.717   3.295   8.692 -0.4528  0.1499 -0.4288
  562MOL0     H74133   9.820   3.274   8.460 -0.3135  0.5383 -0.4663
  562MOL0     H74134   9.962   3.363   8.527  2.1043 -1.8980  0.8022
  562MOL0     H74135   9.998   3.174   8.690 -0.2050  3.1470  0.1125
  562MOL0     H74136  10.007   3.130   8.515 -0.6343 -1.2745  0.1577
  562MOL0     H74137   9.758   3.008   8.429  3.4754  1.9968  0.3116
  562MOL0     H74138   9.691   2.676   8.584  1.0390  0.6666 -0.5142
  562MOL0     H74139   9.705   2.753   8.434  0.4135  1.9222 -0.4691
  562MOL0     H74140   9.478   2.684   8.450  0.0039 -1.8560  2.5397
  562MOL0     H74141   9.475   2.867   8.467 -3.1556  0.2035  0.9068
  562MOL0     H74142   9.452   2.665   8.693  0.6351  0.7116  1.4047
  562MOL0     H74143   9.465   2.840   8.718 -1.5125  1.8858 -1.8296
  562MOL0     H74144   9.252   2.843   8.541  1.5477  3.3221  1.8563
  562MOL0     H74145   9.234   2.824   8.715 -0.4524  0.1087  0.0010
  562MOL0     H74146   9.102   2.444   8.701 -0.3665 -1.3178 -0.3079
  562MOL0     H74147   8.872   2.392   8.673  1.0659 -0.0954  0.8666
  562MOL0     H74148   8.440   2.537   8.619  2.8233 -1.6230  3.0832
  562MOL0     H74149   8.203   2.471   8.597 -0.9616  1.5928 -3.4879
  562MOL0     H74150   7.977   2.353   8.519  0.3040  1.9831  1.5595
  562MOL0     H74151   8.030   2.346   8.692 -1.8672 -0.3168  2.6722
  562MOL0     H74152   7.806   2.291   8.666 -0.5298 -1.7403  2.2973
  562MOL0     H74153   7.893   2.147   8.705  1.0046  0.6704  0.8744
  562MOL0     H74154   7.899   2.065   8.491  0.0395 -0.5321  1.0437
  562MOL0     H74155   7.841   2.206   8.409  0.7300 -1.8066 -1.2425
  562MOL0     H74156   7.664   2.026   8.424  1.9136 -0.8345  0.4717
  562MOL0     H74157   7.663   2.048   8.598  1.0446  2.7385  1.3298
  562MOL0     H74158   7.617   2.264   8.381  1.8420  2.8202  1.6877
  562MOL0     H74159   7.612   2.298   8.548  0.6755  1.0765 -1.0018
  562MOL0     H74160   7.439   2.155   8.597  0.6549  0.3481  0.5084
  562MOL0     H74161   7.439   2.103   8.422  1.8712  0.2958 -0.9734
  562MOL0     H74162   7.388   2.387   8.527  0.8631  0.9459 -1.1099
  562MOL0     H74163   7.367   2.339   8.359  0.6064 -3.2263 -0.8925
  562MOL0     H74164   7.149   2.343   8.467 -1.3885 -2.0104 -0.5789
  562MOL0     H74165   7.210   2.244   8.602 -0.4934  0.4795  0.0674
  562MOL0     H74166   8.324   2.083   8.493  0.9124  0.7047 -2.5615
  562MOL0     H74167   8.541   2.124   8.532  0.3542 -0.2083  2.4519
  562MOL0     H74168   8.818   2.724   8.411  0.3559 -2.3933 -3.3196
  562MOL0     H74169   9.051   2.779   8.443 -0.5120 -0.0227  0.2068
  562MOL0     H74170   9.866   4.007   9.038 -0.8803 -0.8786 -0.7268
  562MOL0     H74171   9.767   4.235   9.046 -0.3614  0.8414  0.9225
  562MOL0     H74172   9.402   4.533   9.489  1.5092 -0.6562 -0.0864
  562MOL0     H74173   9.346   4.774   9.465 -1.3170 -0.6564  0.4544
  562MOL0     H74174   9.498   4.979   9.102  3.5928 -0.5503  0.2145
  562MOL0     H74175   9.593   5.032   9.242  0.8145 -2.1901 -1.8465
  562MOL0     H74176   9.407   5.193   9.309  1.0347 -0.2477 -0.1785
  562MOL0     H74177   9.467   5.211   9.140  0.7996 -1.4949 -1.0916
  562MOL0     H74178   9.218   5.066   9.202  0.6632  0.1173 -0.7405
  562MOL0     H74179   9.291   5.106   9.044 -1.4607  1.1852 -0.5895
  562MOL0     H74180   9.224   5.327   9.242 -2.4031 -0.7642  1.3401
  562MOL0     H74181   9.260   5.328   9.060 -0.9910  1.1669 -0.1238
  562MOL0     H74182   8.854   5.306   9.105 -0.5123 -0.5047 -0.5528
  562MOL0     H74183   9.622   4.798   9.132  2.7581 -0.3106  0.8059
  562MOL0     H74184   9.672   4.564   9.168  1.5971  0.3745  1.4066
  563MOL0     O74185   4.528   7.110   9.482  0.1807 -0.1557  0.5101
  563MOL0     C74186   4.587   7.188   9.401  0.4929 -0.1711 -0.1597
  563MOL0     O74187   4.533   7.279   9.313  0.0476 -0.2956 -0.1952
  563MOL0     C74188   4.402   7.293   9.309  0.1951 -0.4030 -0.5725
  563MOL0     C74189   4.355   7.308   9.184 -0.1667 -0.0653  0.8911
  563MOL0     C74190   4.222   7.317   9.152  0.6885 -0.5460  0.8464
  563MOL0     C74191   4.130   7.322   9.264 -0.6154 -0.9533 -0.2676
  563MOL0     O74192   3.993   7.321   9.259 -0.3886  0.2735  0.1370
  563MOL0     C74193   3.936   7.368   9.132  0.4493  0.0219  0.7065
  563MOL0     C74194   3.781   7.357   9.128  0.1184 -0.5774  0.3905
  563MOL0     C74195   3.738   7.212   9.146  0.0182 -0.2478  0.1976
  563MOL0     C74196   3.586   7.199   9.129  0.9996  0.0297  0.3172
  563MOL0     C74197   3.551   7.049   9.151 -0.2551  0.1149  1.2914
  563MOL0     C74198   3.410   7.030   9.193  0.4706 -0.1360  0.5216
  563MOL0     C74199   3.303   7.095   9.100 -0.2454 -0.1211 -0.5719
  563MOL0     C74200   3.290   7.019   8.968  0.9863 -1.1569  0.0062
  563MOL0     N74201   3.196   7.076   8.869 -0.0080 -0.7086 -0.0359
  563MOL0     C74202   3.085   7.014   8.820  0.4270  0.0800 -0.0250
  563MOL0     C74203   3.026   7.109   8.741 -0.2894 -0.4428  0.5486
  563MOL0     C74204   2.898   7.087   8.659  0.0460 -0.5670  0.1804
  563MOL0     C74205   2.773   7.063   8.751 -0.6758 -0.9394 -0.1261
  563MOL0     C74206   2.697   6.943   8.697 -0.2316 -0.0025  0.3290
  563MOL0     C74207   2.561   6.931   8.755 -0.2789  0.7507  0.2843
  563MOL0     O74208   2.484   6.818   8.706 -0.1539 -0.3337 -0.4184
  563MOL0     C74209   2.356   6.838   8.655 -0.8648 -1.1305 -0.2544
  563MOL0     C74210   2.329   6.759   8.554 -0.0030  0.7764 -0.6754
  563MOL0     C74211   2.213   6.764   8.476  0.4673  0.2694  0.3732
  563MOL0     C74212   2.122   6.875   8.491 -0.4323 -0.3714  0.8560
  563MOL0     C74213   1.988   6.883   8.410  0.2385  0.4300 -0.5621
  563MOL0     O74214   1.981   6.806   8.296 -0.1409  0.0022  0.1810
  563MOL0     C74215   1.891   6.840   8.193 -1.2354 -0.2240  0.1910
  563MOL0     C74216   1.759   6.801   8.213 -0.0238 -0.4449 -0.6811
  563MOL0     C74217   1.668   6.799   8.118  0.1013  0.0940 -0.3090
  563MOL0     C74218   1.703   6.842   7.991  0.2824  0.3745 -0.3625
  563MOL0     O74219   1.631   6.846   7.878 -0.3882  0.3028  0.6623
  563MOL0     C74220   1.525   6.747   7.846  0.1320  0.0212  0.3130
  563MOL0     C74221   1.453   6.802   7.715 -0.1919 -0.2695 -0.5553
  563MOL0     C74222   1.411   6.950   7.739 -0.4098  1.3610  0.5250
  563MOL0     C74223   1.322   6.983   7.851  0.0728 -0.9660  0.4831
  563MOL0     C74224   1.211   6.880   7.867 -0.2448  0.3925 -0.4906
  563MOL0     C74225   1.143   6.911   8.003 -0.0331  0.9071  0.0290
  563MOL0     C74226   1.031   6.808   8.021  0.2092  0.8043  0.3400
  563MOL0     C74227   0.998   6.765   8.161 -0.0101 -0.0590  0.2748
  563MOL0    Cl74228   0.928   6.905   8.243 -0.0715 -0.0364 -0.4331
  563MOL0     C74229   1.833   6.879   7.959  0.0709 -0.6000 -0.0673
  563MOL0     C74230   1.933   6.880   8.063 -0.4353 -0.8241  0.3743
  563MOL0     O74231   1.903   6.955   8.458  0.2571 -0.0907 -1.0260
  563MOL0     C74232   2.157   6.966   8.584  0.4781  0.1630 -0.1798
  563MOL0     C74233   2.271   6.950   8.669  0.0019 -0.1355 -0.0645
  563MOL0     N74234   3.094   7.233   8.765 -0.4797  0.9871 -0.1728
  563MOL0     N74235   3.194   7.210   8.840  0.6413  0.2601  0.2075
  563MOL0     C74236   4.183   7.316   9.398  0.6467  0.2705 -0.2920
  563MOL0     C74237   4.316   7.296   9.423  0.4091  0.1140  0.8185
  563MOL0     C74238   4.732   7.194   9.415 -0.0683  0.1539 -0.3205
  563MOL0     C74239   4.807   7.113   9.502  0.8165 -0.5286 -0.5547
  563MOL0     C74240   4.949   7.139   9.518  0.8544  0.7162 -0.6230
  563MOL0     C74241   5.015   7.252   9.466  0.4611  0.2024  1.1456
  563MOL0     O74242   5.145   7.252   9.485  0.0228  0.6582  0.0945
  563MOL0     C74243   5.219   7.350   9.416  0.2163 -0.3547 -0.5583
  563MOL0     C74244   5.369   7.339   9.429 -0.6206  0.3785  0.5920
  563MOL0     C74245   5.418   7.365   9.568  0.6795  0.2118  0.8503
  563MOL0     C74246   5.565   7.329   9.587 -0.1814  0.5814  0.5956
  563MOL0     C74247   5.665   7.422   9.541  0.3603 -0.0846 -0.1411
  563MOL0     C74248   5.755   7.498   9.510 -0.0753 -0.0506 -0.8010
  563MOL0     C74249   4.946   7.322   9.370 -0.2093  0.7314  0.0297
  563MOL0     C74250   4.807   7.297   9.353  0.0445 -0.0751  0.0947
  563MOL0     H74251   4.434   7.305   9.109  0.5489 -0.7845  1.6578
  563MOL0     H74252   4.183   7.309   9.051  3.1888  0.9535 -0.3425
  563MOL0     H74253   3.974   7.307   9.049  2.0450  0.6154  0.9614
  563MOL0     H74254   3.964   7.472   9.115 -2.7480  0.9310  0.4094
  563MOL0     H74255   3.741   7.394   9.034  0.0362 -1.7531 -0.0526
  563MOL0     H74256   3.736   7.422   9.204 -0.3329  0.5807 -0.8256
  563MOL0     H74257   3.767   7.180   9.246 -0.7233 -1.2371  0.1135
  563MOL0     H74258   3.787   7.153   9.068 -0.5488  0.2835 -0.5848
  563MOL0     H74259   3.539   7.262   9.205 -0.2127  0.3050 -0.6152
  563MOL0     H74260   3.568   7.231   9.026 -0.3845 -0.2640  0.4464
  563MOL0     H74261   3.613   7.006   9.231  0.8600  0.2868  0.5333
  563MOL0     H74262   3.574   6.982   9.068 -1.7090  1.3738 -0.1890
  563MOL0     H74263   3.386   7.071   9.291 -0.9453 -1.8687  0.9383
  563MOL0     H74264   3.400   6.921   9.197  0.1274 -0.1249  0.0585
  563MOL0     H74265   3.211   7.071   9.156  0.8458  1.1582  1.9428
  563MOL0     H74266   3.321   7.201   9.082 -0.8635 -0.1442 -1.3497
  563MOL0     H74267   3.265   6.914   8.980  1.3026 -1.3416 -0.8662
  563MOL0     H74268   3.390   7.013   8.923  2.0886  0.9204  1.9196
  563MOL0     H74269   3.068   6.907   8.823  0.6430 -0.1281 -3.1348
  563MOL0     H74270   2.905   6.999   8.595 -3.5594 -0.1698 -1.0249
  563MOL0     H74271   2.880   7.174   8.595  0.5026 -0.6424 -0.0527
  563MOL0     H74272   2.718   7.156   8.739 -0.8692 -1.1912 -1.3753
  563MOL0     H74273   2.797   7.055   8.857  0.4609  1.4270 -0.1262
  563MOL0     H74274   2.690   6.963   8.589  1.1911  3.0198  0.6805
  563MOL0     H74275   2.751   6.852   8.722 -3.5783 -2.2918 -0.1163
  563MOL0     H74276   2.513   7.029   8.748  1.4799  1.5246 -1.8010
  563MOL0     H74277   2.577   6.911   8.862 -1.7811 -0.5545  0.3079
  563MOL0     H74278   2.397   6.678   8.528  0.5864  0.9138  0.3557
  563MOL0     H74279   2.203   6.685   8.402 -2.0769 -0.0638  0.9953
  563MOL0     H74280   1.752   6.778   8.319  2.3339  3.2165  0.4673
  563MOL0     H74281   1.567   6.768   8.145 -1.4295  1.1821 -4.0638
  563MOL0     H74282   1.465   6.753   7.937 -3.4231 -0.7230 -1.8084
  563MOL0     H74283   1.554   6.644   7.823  2.5344  0.9672 -1.3005
  563MOL0     H74284   1.366   6.744   7.683 -1.7411  2.3068 -1.3300
  563MOL0     H74285   1.526   6.798   7.634  2.1272 -1.2282  1.4730
  563MOL0     H74286   1.376   6.994   7.646 -2.8809  0.3510  0.9162
  563MOL0     H74287   1.503   7.004   7.765  0.4845  0.1352  0.0123
  563MOL0     H74288   1.384   6.982   7.941  0.8770 -2.0960 -0.0533
  563MOL0     H74289   1.287   7.085   7.831 -1.2609 -1.4449  0.2507
  563MOL0     H74290   1.257   6.782   7.879 -0.4486  0.5089  1.7754
  563MOL0     H74291   1.135   6.890   7.789  1.6120 -2.5763 -2.8670
  563MOL0     H74292   1.102   7.010   7.984  2.2351  1.6439 -1.2893
  563MOL0     H74293   1.216   6.897   8.083  1.4914  2.3276 -1.0406
  563MOL0     H74294   0.947   6.856   7.969  3.0948  2.5685 -3.1761
  563MOL0     H74295   1.048   6.716   7.964  3.0020 -0.7812  3.3907
  563MOL0     H74296   1.087   6.724   8.209 -1.5683 -0.4783  3.0124
  563MOL0     H74297   0.922   6.687   8.148 -0.2629  0.1011  0.7628
  563MOL0     H74298   1.867   6.878   7.856  3.1014 -0.2927  0.8317
  563MOL0     H74299   2.036   6.912   8.052 -0.3806 -1.3948 -1.0756
  563MOL0     H74300   2.082   7.044   8.594 -1.3828 -1.5499 -0.0437
  563MOL0     H74301   2.293   7.026   8.743  1.1294 -3.2143  3.0863
  563MOL0     H74302   4.113   7.321   9.481  1.6313 -4.1660  1.0837
  563MOL0     H74303   4.346   7.283   9.527 -2.1666  0.7568  1.7151
  563MOL0     H74304   4.762   7.026   9.550  1.2917 -0.8472 -0.6768
  563MOL0     H74305   5.000   7.054   9.564  1.3919  0.6881 -1.2602
  563MOL0     H74306   5.195   7.443   9.469  0.9269  0.7995 -2.1642
  563MOL0     H74307   5.197   7.369   9.310 -0.5447 -2.0819 -0.7328
  563MOL0     H74308   5.412   7.248   9.386  0.3010  0.3851  1.4810
  563MOL0     H74309   5.412   7.426   9.378 -0.5829  1.5760  2.5508
  563MOL0     H74310   5.357   7.305   9.637  0.9546 -0.2185  0.7222
  563MOL0     H74311   5.404   7.473   9.580  1.9566  0.5088 -0.0570
  563MOL0     H74312   5.579   7.302   9.692  0.2375 -1.7718  0.0020
  563MOL0     H74313   5.583   7.236   9.531 -1.4366  0.0430  1.0442
  563MOL0     H74314   5.834   7.561   9.474  1.2153 -0.1914  1.6285
  563MOL0     H74315   4.989   7.407   9.318  1.5478 -1.4616 -2.3117
  563MOL0     H74316   4.761   7.373   9.290 -2.1881 -0.7751  0.8156
  564MOL0     O74317   1.537   3.591   0.738  1.3349 -0.0655  0.4833
  564MOL0     C74318   1.533   3.639   0.848  0.7452 -0.3939  0.7783
  564MOL0     O74319   1.417   3.654   0.924 -0.0552 -0.8297  0.5807
  564MOL0     C74320   1.298   3.622   0.859  0.1700  0.3671  0.8352
  564MOL0     C74321   1.265   3.488   0.830 -0.4873  0.1439 -0.5325
  564MOL0     C74322   1.146   3.447   0.769 -0.3213  0.0613  0.9345
  564MOL0     C74323   1.059   3.555   0.731  0.2157  0.2481  0.5626
  564MOL0     O74324   0.929   3.541   0.668 -0.2533 -0.0921  0.6392
  564MOL0     C74325   0.849   3.432   0.722 -0.6143 -0.0305 -0.1687
  564MOL0     C74326   0.713   3.418   0.662 -0.1554 -0.3170  0.6599
  564MOL0     C74327   0.639   3.550   0.632 -0.3009 -0.1169 -0.4402
  564MOL0     C74328   0.504   3.541   0.564  0.1050 -0.1451  0.9185
  564MOL0     C74329   0.388   3.505   0.657 -0.0894 -0.0726 -0.0229
  564MOL0     C74330   0.252   3.495   0.590 -0.4179  0.1967  0.4905
  564MOL0     C74331   0.130   3.488   0.677 -0.0888  0.7450 -0.2100
  564MOL0     C74332   0.096   3.622   0.750 -0.0753  0.1931 -1.0295
  564MOL0     N74333  -0.038   3.623   0.814 -0.4690  0.2964 -0.0461
  564MOL0     C74334  -0.157   3.629   0.743 -0.3779  0.5255 -0.1085
  564MOL0     C74335  -0.255   3.610   0.836 -0.0400  0.3911 -0.8191
  564MOL0     C74336  -0.396   3.629   0.793  0.1564  0.0971  0.6209
  564MOL0     C74337  -0.487   3.574   0.909  0.5074  0.6495  1.0402
  564MOL0     C74338  -0.636   3.548   0.850  0.3342  0.3346 -0.6882
  564MOL0     C74339  -0.726   3.534   0.979 -0.8027  0.1509  0.3960
  564MOL0     O74340  -0.695   3.413   1.051 -0.4837  0.3615 -0.6179
  564MOL0     C74341  -0.777   3.397   1.155  0.6334  0.3218 -0.4298
  564MOL0     C74342  -0.730   3.300   1.248 -0.5810 -0.3001  0.1016
  564MOL0     C74343  -0.803   3.275   1.366  0.4768  0.1239  0.1155
  564MOL0     C74344  -0.928   3.346   1.394 -0.2862  0.3893  0.2802
  564MOL0     C74345  -0.999   3.324   1.520  0.4330 -0.6297 -0.0112
  564MOL0     O74346  -1.123   3.365   1.526  0.5556  0.5606 -0.4848
  564MOL0     C74347  -1.188   3.362   1.646  0.7945  0.4595  0.1280
  564MOL0     C74348  -1.325   3.336   1.646  1.3281  0.7317  0.1337
  564MOL0     C74349  -1.397   3.345   1.776 -0.6399  0.6945  0.3214
  564MOL0     C74350  -1.323   3.384   1.896  0.7006 -0.1513  0.3573
  564MOL0     O74351  -1.406   3.380   2.014 -0.7672 -0.6131 -0.4203
  564MOL0     C74352  -1.336   3.379   2.149  0.3778 -0.3769 -0.3565
  564MOL0     C74353  -1.445   3.377   2.254  0.4860 -0.7980  0.2724
  564MOL0     C74354  -1.545   3.493   2.227 -0.3119 -0.3479  0.0332
  564MOL0     C74355  -1.663   3.482   2.323 -0.5453 -0.7443  0.5952
  564MOL0     C74356  -1.765   3.591   2.299  0.3875 -0.4334  0.0734
  564MOL0     C74357  -1.864   3.593   2.416  0.0250 -0.4690  0.1302
  564MOL0     C74358  -1.979   3.681   2.378 -0.5590  0.6618  0.8865
  564MOL0     C74359  -2.057   3.688   2.506  0.0669 -0.5152  0.8950
  564MOL0    Cl74360  -2.111   3.534   2.568 -0.2273  0.0267  0.2366
  564MOL0     C74361  -1.190   3.405   1.893  0.4635 -0.0681 -0.0439
  564MOL0     C74362  -1.124   3.401   1.768  0.4444  0.2345 -1.3452
  564MOL0     O74363  -0.940   3.260   1.609  0.1853  0.2501  0.5769
  564MOL0     C74364  -0.961   3.443   1.300  0.1837 -0.0898 -1.0222
  564MOL0     C74365  -0.893   3.473   1.183  0.1408 -0.7787 -0.1089
  564MOL0     N74366  -0.194   3.617   0.968 -0.7807 -0.3631  0.0894
  564MOL0     N74367  -0.064   3.616   0.950  0.0665 -0.0187  0.2754
  564MOL0     C74368   1.086   3.690   0.752  0.0098  0.6085  0.1166
  564MOL0     C74369   1.209   3.719   0.813 -1.1403  0.4756 -0.1430
  564MOL0     C74370   1.653   3.698   0.911  0.1461  0.5174  0.5424
  564MOL0     C74371   1.777   3.678   0.852 -0.1192  0.2202 -0.1957
  564MOL0     C74372   1.896   3.723   0.906  0.1718  0.4336 -0.6610
  564MOL0     C74373   1.886   3.815   1.019  0.0784 -0.2067  0.4430
  564MOL0     O74374   1.990   3.865   1.089  0.0983 -0.2390 -0.2862
  564MOL0     C74375   2.122   3.860   1.028  0.4792  0.2445  0.0648
  564MOL0     C74376   2.215   3.965   1.100  0.1582 -0.2324  0.1959
  564MOL0     C74377   2.355   3.954   1.037 -0.1514 -0.1932  0.5186
  564MOL0     C74378   2.433   4.085   1.067 -0.5446 -0.2399  0.4952
  564MOL0     C74379   2.569   4.082   1.013  0.1825 -0.5897  0.1724
  564MOL0     C74380   2.682   4.091   0.962  0.3060  0.7046 -0.1358
  564MOL0     C74381   1.766   3.830   1.080 -0.0120  0.2784  0.3324
  564MOL0     C74382   1.649   3.773   1.032 -0.0611  0.0501 -0.7905
  564MOL0     H74383   1.325   3.404   0.863 -0.3753  0.1703 -0.6665
  564MOL0     H74384   1.119   3.344   0.752 -0.4395  0.3274 -0.6730
  564MOL0     H74385   0.820   3.441   0.827 -0.3518 -2.0140  0.1085
  564MOL0     H74386   0.901   3.336   0.710 -1.7931 -0.7941  0.6610
  564MOL0     H74387   0.662   3.351   0.732 -2.7764 -0.8279 -1.5709
  564MOL0     H74388   0.731   3.345   0.582 -0.7358  0.5459 -0.2733
  564MOL0     H74389   0.704   3.606   0.565  1.8407 -0.6853  1.0648
  564MOL0     H74390   0.615   3.606   0.723  0.3390  1.5008 -1.2343
  564MOL0     H74391   0.491   3.638   0.514  2.8605 -0.0144  0.2872
  564MOL0     H74392   0.502   3.477   0.476  0.2678  1.5193 -0.3589
  564MOL0     H74393   0.375   3.589   0.727  0.5713 -1.3422  1.6984
  564MOL0     H74394   0.418   3.424   0.724 -0.1636  1.1634  1.5770
  564MOL0     H74395   0.264   3.405   0.529  2.9204  0.7584  0.1516
  564MOL0     H74396   0.246   3.578   0.519 -0.3596  1.9997  2.4791
  564MOL0     H74397   0.040   3.471   0.618 -3.1172  2.0428  3.5946
  564MOL0     H74398   0.136   3.410   0.754 -0.3864  1.3919  0.4919
  564MOL0     H74399   0.103   3.713   0.689 -1.9624  2.0576  1.3425
  564MOL0     H74400   0.173   3.635   0.826  1.1624 -2.0240 -1.7880
  564MOL0     H74401  -0.162   3.639   0.635  0.2019  1.2458 -0.0792
  564MOL0     H74402  -0.415   3.585   0.694  2.9443 -0.7501  0.3832
  564MOL0     H74403  -0.416   3.735   0.772 -0.3020 -0.1147 -0.0682
  564MOL0     H74404  -0.503   3.653   0.983  0.1980  1.3000  0.2948
  564MOL0     H74405  -0.442   3.484   0.951 -1.2974 -0.9235 -0.1961
  564MOL0     H74406  -0.680   3.640   0.810 -0.6237  0.3029  0.2574
  564MOL0     H74407  -0.633   3.464   0.781  0.9154 -0.4950  0.3055
  564MOL0     H74408  -0.826   3.526   0.936 -0.6227 -2.5749  0.3015
  564MOL0     H74409  -0.717   3.624   1.040 -1.4989  0.3005  0.2818
  564MOL0     H74410  -0.639   3.244   1.231 -0.7312 -0.0192 -1.8764
  564MOL0     H74411  -0.762   3.212   1.443  1.5661  0.4469 -0.1889
  564MOL0     H74412  -1.391   3.329   1.560  0.2416 -1.6104  1.0840
  564MOL0     H74413  -1.500   3.316   1.794 -0.9461  2.6267  2.0347
  564MOL0     H74414  -1.266   3.463   2.152 -0.2807  0.2225 -1.1990
  564MOL0     H74415  -1.278   3.287   2.158  1.1187  0.1814  0.7838
  564MOL0     H74416  -1.404   3.380   2.355 -1.1159  1.7873  0.9391
  564MOL0     H74417  -1.498   3.283   2.239 -1.0364  0.0936 -0.1142
  564MOL0     H74418  -1.578   3.516   2.126 -2.7461 -1.3768  0.5149
  564MOL0     H74419  -1.489   3.582   2.258  2.5422 -1.3666 -1.8579
  564MOL0     H74420  -1.707   3.382   2.317  0.3603 -1.2832  2.2023
  564MOL0     H74421  -1.632   3.494   2.428  0.2512  2.8062  0.1103
  564MOL0     H74422  -1.832   3.568   2.215 -1.4355 -0.8665  1.5700
  564MOL0     H74423  -1.711   3.686   2.292  1.0236 -0.7673  0.4143
  564MOL0     H74424  -1.820   3.649   2.498  1.0953  2.0760 -2.0435
  564MOL0     H74425  -1.893   3.492   2.447  0.7302 -0.6008  0.3767
  564MOL0     H74426  -1.958   3.781   2.341  0.6757 -0.6135 -2.1328
  564MOL0     H74427  -2.034   3.626   2.300  0.3944  0.4903  0.3221
  564MOL0     H74428  -2.143   3.756   2.499  0.3292 -0.1720  1.0195
  564MOL0     H74429  -2.000   3.740   2.584 -0.1858 -2.0127  2.1260
  564MOL0     H74430  -1.140   3.434   1.984 -0.9525  0.6701  0.5286
  564MOL0     H74431  -1.020   3.430   1.771  0.4299  0.1912  1.6030
  564MOL0     H74432  -1.054   3.496   1.318 -0.5919 -0.1849 -4.0954
  564MOL0     H74433  -0.935   3.546   1.115  2.0027 -0.5168 -1.0558
  564MOL0     H74434   1.015   3.763   0.715  0.6453  1.2816  0.1996
  564MOL0     H74435   1.245   3.821   0.826 -1.0302  0.6361 -1.5240
  564MOL0     H74436   1.788   3.615   0.764 -1.3591 -0.0042 -0.2092
  564MOL0     H74437   1.997   3.701   0.870 -0.5133 -2.8424 -0.8871
  564MOL0     H74438   2.119   3.887   0.922 -1.4296  2.0480  0.5028
  564MOL0     H74439   2.155   3.756   1.033 -0.9289 -0.2310 -0.0563
  564MOL0     H74440   2.179   4.068   1.093 -1.0413 -0.7293 -1.5421
  564MOL0     H74441   2.214   3.935   1.205 -1.3766  1.5717  0.7368
  564MOL0     H74442   2.349   3.936   0.929  3.3138 -1.4919  0.3942
  564MOL0     H74443   2.411   3.864   1.063  0.5142  0.3292  0.9061
  564MOL0     H74444   2.386   4.176   1.027 -0.6672 -0.3995  0.2717
  564MOL0     H74445   2.447   4.092   1.175 -0.0458 -1.9393  0.5653
  564MOL0     H74446   2.783   4.085   0.928  0.6045 -0.3087  0.8971
  564MOL0     H74447   1.760   3.896   1.166  0.4685 -0.7500  1.1937
  564MOL0     H74448   1.555   3.810   1.071  0.2405  2.3183 -2.0478
  565MOL0     O74449   9.122   3.487   6.474 -0.1300  0.4091 -0.4160
  565MOL0     C74450   9.126   3.552   6.580 -0.1381  0.1398 -0.9006
  565MOL0     O74451   9.053   3.525   6.697  0.1430 -0.0156  0.3541
  565MOL0     C74452   8.973   3.412   6.687  0.3020  0.8285  0.9015
  565MOL0     C74453   9.027   3.282   6.679  0.7200  0.1580 -0.3629
  565MOL0     C74454   8.935   3.176   6.678  0.6069 -0.2992  0.0899
  565MOL0     C74455   8.794   3.191   6.680  1.2215 -0.1581  0.2168
  565MOL0     O74456   8.713   3.079   6.685 -0.1272  0.8682  0.1504
  565MOL0     C74457   8.572   3.097   6.700 -0.0533  0.5922 -0.0753
  565MOL0     C74458   8.497   2.968   6.696 -0.6709 -0.1482 -0.4188
  565MOL0     C74459   8.342   3.005   6.707 -0.4498  0.2373  0.3367
  565MOL0     C74460   8.272   2.868   6.705 -0.4458  0.0229 -0.2595
  565MOL0     C74461   8.118   2.892   6.727  0.3546 -0.0447  0.1041
  565MOL0     C74462   8.029   2.773   6.749 -0.3488  0.3633 -0.2098
  565MOL0     C74463   7.888   2.819   6.790  0.7393 -0.5320 -0.4937
  565MOL0     C74464   7.792   2.710   6.838 -1.6605  0.0042 -0.2422
  565MOL0     N74465   7.664   2.750   6.880 -0.1371 -0.2723 -0.1118
  565MOL0     C74466   7.622   2.778   7.006  0.6067 -0.8076  0.4158
  565MOL0     C74467   7.488   2.760   7.010  0.2762 -0.3746  0.2569
  565MOL0     C74468   7.403   2.754   7.137 -0.3093 -0.8133 -0.7177
  565MOL0     C74469   7.300   2.865   7.122  0.1928  0.0670 -0.1445
  565MOL0     C74470   7.167   2.811   7.194 -0.9445  0.2812  0.3280
  565MOL0     C74471   7.055   2.915   7.173  0.5230 -0.5480  0.4846
  565MOL0     O74472   6.935   2.884   7.254 -0.2699 -0.1497  0.6718
  565MOL0     C74473   6.826   2.966   7.269 -0.3158 -0.1948  0.1003
  565MOL0     C74474   6.698   2.913   7.258 -0.1982  0.3143 -0.5174
  565MOL0     C74475   6.586   2.990   7.264 -0.0994  0.2832 -0.6334
  565MOL0     C74476   6.597   3.129   7.287  1.2260 -0.1801 -0.4662
  565MOL0     C74477   6.478   3.215   7.291 -0.8252  0.2926  0.4751
  565MOL0     O74478   6.505   3.338   7.334  0.0897 -1.2094 -0.2509
  565MOL0     C74479   6.395   3.418   7.364  0.1442  0.1769 -0.1070
  565MOL0     C74480   6.389   3.472   7.488  0.5459  0.8710  0.6469
  565MOL0     C74481   6.289   3.568   7.518 -0.1011 -0.0100 -0.3158
  565MOL0     C74482   6.186   3.607   7.433  0.3388 -0.7772  0.2962
  565MOL0     O74483   6.090   3.705   7.481 -0.5245  1.2301  0.2486
  565MOL0     C74484   5.952   3.689   7.433 -0.5021 -0.1460 -0.6717
  565MOL0     C74485   5.847   3.774   7.506 -0.0950 -0.3040 -0.0901
  565MOL0     C74486   5.699   3.735   7.468 -0.2927  0.7001 -0.1915
  565MOL0     C74487   5.679   3.753   7.314 -0.1513  0.6233 -0.4902
  565MOL0     C74488   5.538   3.799   7.284 -0.2806 -0.0411  0.3873
  565MOL0     C74489   5.525   3.878   7.152 -0.2757 -0.4452  0.0438
  565MOL0     C74490   5.567   4.025   7.161  0.0849 -0.0846 -0.1766
  565MOL0     C74491   5.575   4.086   7.024 -0.4708  0.2838 -0.5881
  565MOL0    Cl74492   5.423   4.077   6.929 -0.0529 -0.1100 -0.1876
  565MOL0     C74493   6.191   3.542   7.305 -0.4867 -0.9087 -0.2390
  565MOL0     C74494   6.284   3.443   7.276 -1.0057 -0.2445 -0.4797
  565MOL0     O74495   6.365   3.167   7.280  1.0276  0.5300  0.3076
  565MOL0     C74496   6.726   3.182   7.300 -0.0773 -0.2775  0.1509
  565MOL0     C74497   6.842   3.102   7.291  0.3298 -0.5360 -0.0856
  565MOL0     N74498   7.441   2.735   6.878  0.1563  0.3543 -0.4498
  565MOL0     N74499   7.555   2.730   6.799 -0.1265 -0.1762 -0.3640
  565MOL0     C74500   8.742   3.325   6.703 -0.2655 -0.2315  0.2891
  565MOL0     C74501   8.833   3.430   6.695 -0.2088 -1.2766 -0.5281
  565MOL0     C74502   9.190   3.684   6.571  0.2791  0.6665 -0.2372
  565MOL0     C74503   9.153   3.792   6.653 -0.4568  0.6483 -0.5433
  565MOL0     C74504   9.213   3.920   6.642  0.3653 -0.7845 -0.5304
  565MOL0     C74505   9.304   3.935   6.539  0.6402 -0.1574 -0.7008
  565MOL0     O74506   9.347   4.061   6.522  0.2548 -0.0338  0.0526
  565MOL0     C74507   9.467   4.082   6.449  0.2038 -0.5200  0.2732
  565MOL0     C74508   9.527   4.211   6.483 -0.0673  0.3975 -0.4815
  565MOL0     C74509   9.675   4.191   6.540  0.0561 -0.4734  0.2435
  565MOL0     C74510   9.741   4.324   6.544  0.9649  0.4820 -0.0326
  565MOL0     C74511   9.889   4.292   6.556  0.9362 -1.2251 -0.2294
  565MOL0     C74512  10.008   4.291   6.562  0.1307  0.0298  0.6988
  565MOL0     C74513   9.336   3.838   6.445 -0.3772  0.8024 -0.2571
  565MOL0     C74514   9.278   3.714   6.470  0.4829 -0.6309 -0.4718
  565MOL0     H74515   9.132   3.256   6.673  0.7131  0.3473 -1.5332
  565MOL0     H74516   8.974   3.075   6.685  2.8383  0.5824  2.0052
  565MOL0     H74517   8.529   3.163   6.624  0.9863 -0.8356 -2.0033
  565MOL0     H74518   8.547   3.136   6.799 -2.4655 -0.9054  0.0124
  565MOL0     H74519   8.543   2.918   6.781 -0.6215  1.9107  0.8499
  565MOL0     H74520   8.507   2.905   6.607 -0.3542 -0.9420  0.1788
  565MOL0     H74521   8.301   3.054   6.618 -3.1679 -0.2157  1.2366
  565MOL0     H74522   8.326   3.075   6.789  0.6879 -0.5358  1.2400
  565MOL0     H74523   8.301   2.807   6.619  2.8305  0.3910  0.4586
  565MOL0     H74524   8.314   2.814   6.790 -1.8907  0.4955  0.7976
  565MOL0     H74525   8.074   2.943   6.641 -0.9868 -0.9344  0.2277
  565MOL0     H74526   8.120   2.951   6.819  2.2325  1.7566 -1.0205
  565MOL0     H74527   8.075   2.704   6.821  1.2806 -0.6810 -2.1715
  565MOL0     H74528   8.018   2.715   6.657  1.7291  0.7037 -0.7183
  565MOL0     H74529   7.906   2.884   6.876  1.7072 -0.1956 -0.9368
  565MOL0     H74530   7.853   2.891   6.715  2.1056  2.2611  1.3353
  565MOL0     H74531   7.843   2.646   6.911  0.3262 -0.4838 -1.9364
  565MOL0     H74532   7.791   2.638   6.756 -1.1565  0.1716 -0.4026
  565MOL0     H74533   7.681   2.800   7.095 -1.4945 -1.3142  2.0000
  565MOL0     H74534   7.464   2.756   7.228 -0.0947  1.0844 -0.8785
  565MOL0     H74535   7.352   2.657   7.129 -1.0195 -0.5782  0.6843
  565MOL0     H74536   7.281   2.879   7.015  0.6508 -0.3565 -0.2852
  565MOL0     H74537   7.337   2.956   7.170 -0.8278  1.0110 -1.1014
  565MOL0     H74538   7.147   2.718   7.140  3.0302  1.5366 -3.9923
  565MOL0     H74539   7.167   2.797   7.302 -4.3789  3.8069  1.0143
  565MOL0     H74540   7.028   2.901   7.067  1.1138 -0.0668  0.2687
  565MOL0     H74541   7.089   3.016   7.195 -1.6419  1.0704 -2.8101
  565MOL0     H74542   6.702   2.807   7.231  1.2873  0.5252 -1.2421
  565MOL0     H74543   6.490   2.942   7.246  0.0751 -0.0331 -0.7312
  565MOL0     H74544   6.471   3.456   7.556 -0.1337 -2.6588  0.8044
  565MOL0     H74545   6.291   3.617   7.615 -2.1852  0.3502 -0.4221
  565MOL0     H74546   5.926   3.584   7.454 -0.1457  0.5886  5.3548
  565MOL0     H74547   5.962   3.699   7.325  0.4330 -0.2175 -0.6018
  565MOL0     H74548   5.865   3.879   7.480 -0.1235  0.1665  1.6863
  565MOL0     H74549   5.862   3.751   7.612  1.6795 -3.8201 -0.9606
  565MOL0     H74550   5.647   3.822   7.511  1.1126  1.9983 -1.0122
  565MOL0     H74551   5.665   3.635   7.497  0.1112  0.4899 -0.4388
  565MOL0     H74552   5.758   3.823   7.284  0.5230  0.9629  1.8119
  565MOL0     H74553   5.688   3.657   7.264 -2.7825 -0.2369  0.5001
  565MOL0     H74554   5.502   3.869   7.360 -1.1949 -1.6558  1.4996
  565MOL0     H74555   5.458   3.724   7.288 -2.6974  2.3948  1.1370
  565MOL0     H74556   5.420   3.866   7.122 -0.9310 -0.4770  2.1589
  565MOL0     H74557   5.580   3.830   7.070 -1.9382 -0.2700 -1.2344
  565MOL0     H74558   5.492   4.078   7.222 -0.1372  0.1521 -0.6515
  565MOL0     H74559   5.661   4.042   7.213 -0.6056  0.0007  1.0974
  565MOL0     H74560   5.655   4.043   6.962  1.1091  1.5103  0.5017
  565MOL0     H74561   5.591   4.194   7.028 -0.6037  0.2806  0.3100
  565MOL0     H74562   6.117   3.572   7.231 -0.2455 -0.7005 -0.3932
  565MOL0     H74563   6.284   3.407   7.174 -2.4439 -2.2588  0.1744
  565MOL0     H74564   6.723   3.290   7.305  2.1061  0.2946 -4.6618
  565MOL0     H74565   6.942   3.142   7.288 -0.3234  1.2113  0.1127
  565MOL0     H74566   8.635   3.344   6.704 -0.5101 -1.1938 -1.7560
  565MOL0     H74567   8.801   3.532   6.715  1.5627 -1.1732  2.2061
  565MOL0     H74568   9.090   3.770   6.738 -1.3833 -2.6114 -1.9370
  565MOL0     H74569   9.200   4.000   6.714  0.3978 -1.4480  0.2280
  565MOL0     H74570   9.441   4.085   6.342  0.7613  0.1752  0.1462
  565MOL0     H74571   9.547   4.012   6.475  1.6220  0.9504  0.0715
  565MOL0     H74572   9.528   4.272   6.392 -2.4831 -0.0816 -0.8937
  565MOL0     H74573   9.473   4.261   6.564 -0.4063 -1.6169  0.5881
  565MOL0     H74574   9.728   4.120   6.477  1.7377  0.7399  0.2156
  565MOL0     H74575   9.675   4.138   6.636  0.3096 -1.1143 -0.1013
  565MOL0     H74576   9.718   4.399   6.467 -1.8472  0.8390  1.0500
  565MOL0     H74577   9.708   4.375   6.635  0.7301 -0.0088  0.1591
  565MOL0     H74578  10.115   4.282   6.559 -0.0038 -1.7997 -1.1806
  565MOL0     H74579   9.401   3.857   6.360 -0.3353 -1.6124 -0.8202
  565MOL0     H74580   9.306   3.635   6.400 -0.0775 -0.0903 -1.3223
  566MOL0     O74581   4.403   5.507   9.154 -0.6384 -0.0098 -0.3552
  566MOL0     C74582   4.456   5.406   9.097 -0.2174  0.0445 -0.4261
  566MOL0     O74583   4.389   5.343   9.001 -1.1274  0.3025 -0.0418
  566MOL0     C74584   4.281   5.414   8.942 -0.4158  0.8314 -0.1672
  566MOL0     C74585   4.158   5.416   9.000  0.2425  0.3149  1.2123
  566MOL0     C74586   4.055   5.472   8.924 -0.4000 -0.5371  0.5130
  566MOL0     C74587   4.078   5.541   8.800  0.1160  0.3368 -0.3930
  566MOL0     O74588   3.977   5.585   8.727  0.9222 -0.0640  0.0125
  566MOL0     C74589   3.999   5.697   8.632 -0.3092  0.1674 -0.6704
  566MOL0     C74590   3.863   5.748   8.581  0.1832  0.0366  0.6757
  566MOL0     C74591   3.790   5.644   8.492  0.5393 -0.5629 -0.5658
  566MOL0     C74592   3.659   5.712   8.438 -0.3369 -0.6626  0.4101
  566MOL0     C74593   3.684   5.803   8.318 -0.6528  0.1942 -0.4467
  566MOL0     C74594   3.565   5.881   8.274 -0.0999  0.0570 -0.2131
  566MOL0     C74595   3.450   5.798   8.236  0.4860  0.9118  0.3690
  566MOL0     C74596   3.353   5.896   8.174  0.2625  0.2452  0.3661
  566MOL0     N74597   3.245   5.827   8.097  0.2549 -0.1392 -0.3168
  566MOL0     C74598   3.132   5.875   8.028  0.0003  0.4962  0.9198
  566MOL0     C74599   3.047   5.776   7.997 -0.5335 -0.3124 -0.3808
  566MOL0     C74600   2.921   5.791   7.923 -0.0110 -0.3311  0.6279
  566MOL0     C74601   2.826   5.679   7.949  0.3662  0.0767  1.8077
  566MOL0     C74602   2.868   5.553   7.856 -0.6274 -0.3984  0.7971
  566MOL0     C74603   2.794   5.425   7.888  0.5725 -0.4048  0.1592
  566MOL0     O74604   2.773   5.362   7.759 -0.5730 -0.1593 -0.2843
  566MOL0     C74605   2.655   5.290   7.745 -0.4473 -0.1389  1.1557
  566MOL0     C74606   2.567   5.252   7.844 -0.0754  0.0418  0.6181
  566MOL0     C74607   2.450   5.186   7.812 -0.4066 -0.2563  0.0110
  566MOL0     C74608   2.419   5.145   7.676 -0.2191 -0.7936 -0.6303
  566MOL0     C74609   2.287   5.091   7.646 -0.7898  0.1788  0.0181
  566MOL0     O74610   2.219   5.029   7.747  0.2306  0.3089 -0.3377
  566MOL0     C74611   2.100   4.971   7.714  1.1051 -0.6068  0.7585
  566MOL0     C74612   2.092   4.838   7.692  0.4988  0.1966  0.3887
  566MOL0     C74613   1.969   4.784   7.670 -0.0516  0.5361 -0.9617
  566MOL0     C74614   1.855   4.856   7.640  0.2736  0.2333 -0.2821
  566MOL0     O74615   1.741   4.783   7.614 -0.4911  0.1465 -0.8097
  566MOL0     C74616   1.655   4.832   7.519  0.1752  0.4277 -0.0486
  566MOL0     C74617   1.674   4.753   7.389  1.0223 -0.1818  0.3440
  566MOL0     C74618   1.574   4.805   7.292 -0.3552 -0.4372 -0.1254
  566MOL0     C74619   1.424   4.770   7.309  0.3993 -0.2688 -0.0383
  566MOL0     C74620   1.343   4.800   7.182 -0.0688 -0.3708 -0.1761
  566MOL0     C74621   1.317   4.942   7.145 -0.5579 -0.8811 -0.6294
  566MOL0     C74622   1.217   5.016   7.234 -0.4155  0.6295  0.6142
  566MOL0     C74623   1.164   5.148   7.183 -0.1974  0.2901 -0.1066
  566MOL0    Cl74624   1.058   5.108   7.041  0.1417  0.3765  0.2937
  566MOL0     C74625   1.862   4.997   7.658  0.6145  0.1894 -0.4646
  566MOL0     C74626   1.991   5.058   7.688  0.7538  0.3168 -0.1851
  566MOL0     O74627   2.253   5.092   7.527 -0.2343 -0.2440 -0.0065
  566MOL0     C74628   2.505   5.189   7.579  0.4763 -0.7097 -0.4609
  566MOL0     C74629   2.621   5.258   7.614  0.0965  0.3964  0.4858
  566MOL0     N74630   3.098   5.665   8.064 -0.8538  0.0393 -1.0706
  566MOL0     N74631   3.217   5.691   8.112  0.2101 -0.1072 -0.8338
  566MOL0     C74632   4.208   5.538   8.749 -0.3895 -0.8319 -0.9031
  566MOL0     C74633   4.312   5.475   8.815  0.1120 -0.4466  0.4740
  566MOL0     C74634   4.575   5.343   9.158  0.2950 -0.5566  0.2982
  566MOL0     C74635   4.606   5.209   9.120 -0.0992 -0.0685 -0.7685
  566MOL0     C74636   4.742   5.159   9.162  0.3325 -0.1729  0.3247
  566MOL0     C74637   4.830   5.243   9.228  0.3300  0.0459 -0.3242
  566MOL0     O74638   4.954   5.185   9.241 -0.1184 -0.0972  0.1983
  566MOL0     C74639   5.065   5.276   9.236  0.1517  0.2091  0.1580
  566MOL0     C74640   5.191   5.185   9.206  0.1326 -0.2195  0.3350
  566MOL0     C74641   5.321   5.266   9.218  1.0500 -0.3744  0.3384
  566MOL0     C74642   5.333   5.380   9.110 -0.0810 -0.0700 -0.0807
  566MOL0     C74643   5.351   5.323   8.977  0.0985 -0.0960 -0.2617
  566MOL0     C74644   5.360   5.283   8.867 -0.6518  0.0016 -0.1150
  566MOL0     C74645   4.789   5.373   9.265 -0.5107 -0.5937 -0.4979
  566MOL0     C74646   4.661   5.423   9.237  0.1428  0.2712  0.3868
  566MOL0     H74647   4.140   5.360   9.091 -1.4686 -1.5067 -0.1537
  566MOL0     H74648   3.951   5.473   8.953 -0.8373 -1.4924 -0.9243
  566MOL0     H74649   4.060   5.663   8.548  1.2325 -1.3192  0.9620
  566MOL0     H74650   4.054   5.769   8.694 -3.7516 -1.3437  4.8183
  566MOL0     H74651   3.888   5.838   8.525 -2.0485 -0.3396 -1.0644
  566MOL0     H74652   3.806   5.780   8.669  0.9278  2.4309  0.3652
  566MOL0     H74653   3.764   5.557   8.552  1.5959 -0.3045  0.2929
  566MOL0     H74654   3.860   5.620   8.412  2.2961 -0.3386  0.8480
  566MOL0     H74655   3.593   5.630   8.408  1.2177 -2.0707  0.6977
  566MOL0     H74656   3.609   5.776   8.512 -1.4237  1.3731 -1.9114
  566MOL0     H74657   3.711   5.734   8.237 -2.4349 -0.4577 -0.5246
  566MOL0     H74658   3.758   5.880   8.341 -1.5593  1.0449 -0.3223
  566MOL0     H74659   3.603   5.935   8.186 -0.8948 -0.2932 -0.7858
  566MOL0     H74660   3.523   5.950   8.347 -3.2951 -1.8912 -0.0453
  566MOL0     H74661   3.467   5.716   8.166 -0.1150  1.3843 -0.3569
  566MOL0     H74662   3.418   5.753   8.330  1.9449 -1.3680 -0.1530
  566MOL0     H74663   3.398   5.958   8.096  0.5932  0.3337  0.6232
  566MOL0     H74664   3.304   5.959   8.249  0.8116  0.4735  0.5362
  566MOL0     H74665   3.121   5.975   7.989 -0.5303  0.1945  0.2723
  566MOL0     H74666   2.944   5.792   7.816 -0.1514 -1.8869  0.5636
  566MOL0     H74667   2.877   5.888   7.947 -0.3262 -0.9140  2.5633
  566MOL0     H74668   2.723   5.709   7.928  1.2147  2.1420  0.3066
  566MOL0     H74669   2.841   5.653   8.054  1.4946  2.4839  2.2952
  566MOL0     H74670   2.844   5.582   7.754  1.4660  1.3997  0.7476
  566MOL0     H74671   2.972   5.520   7.844 -1.1375 -0.8969 -4.4599
  566MOL0     H74672   2.701   5.453   7.938  0.5767 -2.1264  1.1824
  566MOL0     H74673   2.848   5.362   7.959 -1.3495  1.0088  3.0787
  566MOL0     H74674   2.583   5.278   7.948 -1.5291 -2.4185  1.5363
  566MOL0     H74675   2.379   5.162   7.890  0.0071 -1.9679 -0.1076
  566MOL0     H74676   2.188   4.787   7.700 -0.8121 -2.1527  2.5829
  566MOL0     H74677   1.969   4.676   7.678  1.0712  0.6142  0.4944
  566MOL0     H74678   1.665   4.938   7.494  1.6026  0.1597 -0.7084
  566MOL0     H74679   1.558   4.816   7.568  0.6096 -1.2321  0.3471
  566MOL0     H74680   1.669   4.647   7.416  2.2828 -0.5198 -0.6396
  566MOL0     H74681   1.770   4.771   7.339  1.8113 -1.7345  1.2428
  566MOL0     H74682   1.607   4.790   7.189  0.8224  0.4214  0.1103
  566MOL0     H74683   1.578   4.914   7.302 -0.2927 -0.5832  2.0671
  566MOL0     H74684   1.421   4.660   7.311 -0.2020 -0.4081 -3.2147
  566MOL0     H74685   1.384   4.813   7.401 -3.1147 -1.1065 -1.0111
  566MOL0     H74686   1.251   4.744   7.198  0.7700 -2.2325 -1.3909
  566MOL0     H74687   1.402   4.765   7.096  0.4460  0.7589 -0.3096
  566MOL0     H74688   1.262   4.946   7.051 -0.9674  0.2963 -0.3600
  566MOL0     H74689   1.411   4.995   7.127 -0.9324 -0.2850 -0.8721
  566MOL0     H74690   1.135   4.943   7.236  1.4356 -1.6185 -0.8793
  566MOL0     H74691   1.251   5.024   7.338 -1.2026 -1.2710  1.0740
  566MOL0     H74692   1.249   5.210   7.152  1.0737 -0.6890  1.2639
  566MOL0     H74693   1.108   5.192   7.265  1.3028 -0.7513  1.5497
  566MOL0     H74694   1.775   5.059   7.637 -1.2605 -2.6614 -1.8158
  566MOL0     H74695   1.999   5.165   7.705  0.9451  0.0336  1.7257
  566MOL0     H74696   2.486   5.164   7.476  1.0815 -0.1946 -0.7040
  566MOL0     H74697   2.686   5.300   7.537  2.7368  1.4788  3.1212
  566MOL0     H74698   4.240   5.592   8.661 -0.9827  0.8570 -0.1128
  566MOL0     H74699   4.415   5.476   8.780 -0.4808 -0.2877 -1.3654
  566MOL0     H74700   4.538   5.145   9.065 -2.0426  1.4593 -0.2923
  566MOL0     H74701   4.775   5.057   9.143  0.4525 -0.5119  2.1312
  566MOL0     H74702   5.074   5.318   9.336 -2.1947 -1.2633  1.0621
  566MOL0     H74703   5.063   5.341   9.148  1.6442 -0.2984 -0.2809
  566MOL0     H74704   5.193   5.107   9.282  2.4476  1.4381  2.1415
  566MOL0     H74705   5.182   5.142   9.106 -1.3238  0.5792  0.1051
  566MOL0     H74706   5.409   5.202   9.226  1.7132  0.5445  0.5371
  566MOL0     H74707   5.320   5.316   9.316 -2.7386  2.7048 -1.0266
  566MOL0     H74708   5.241   5.439   9.120  0.7118  0.9001  1.9925
  566MOL0     H74709   5.422   5.440   9.128  2.8697 -3.7750 -0.9498
  566MOL0     H74710   5.362   5.246   8.767 -1.1661 -1.5161  0.3975
  566MOL0     H74711   4.870   5.424   9.316  0.2432 -2.3611  0.1164
  566MOL0     H74712   4.646   5.527   9.264  1.2500  0.5914 -0.1447
  567MOL0     O74713   4.671   3.585   4.829  0.0794  0.0495  1.0077
  567MOL0     C74714   4.628   3.475   4.792 -0.7705 -0.0396  0.0121
  567MOL0     O74715   4.500   3.448   4.756 -0.4389 -0.1112  0.4357
  567MOL0     C74716   4.403   3.544   4.762 -0.1799  0.0134  0.2832
  567MOL0     C74717   4.298   3.528   4.855  0.5701  0.2189 -0.0694
  567MOL0     C74718   4.193   3.616   4.869 -0.2412 -0.1598  0.0032
  567MOL0     C74719   4.200   3.735   4.792 -1.0279  0.3778  0.0004
  567MOL0     O74720   4.101   3.832   4.812 -0.2550  0.3956 -0.0645
  567MOL0     C74721   4.146   3.957   4.762 -0.0103  0.4261 -0.2877
  567MOL0     C74722   4.032   4.054   4.810 -0.4462 -0.3534 -0.2602
  567MOL0     C74723   3.907   4.036   4.722  0.8982 -0.0943 -0.5436
  567MOL0     C74724   3.818   4.156   4.743 -0.2750  0.2702  0.4760
  567MOL0     C74725   3.673   4.132   4.720  1.6218 -0.0997  0.0377
  567MOL0     C74726   3.643   4.100   4.569 -0.3657  0.2831 -0.3807
  567MOL0     C74727   3.493   4.073   4.560 -0.0683  0.3447  0.6960
  567MOL0     C74728   3.464   4.053   4.415  0.0683  0.0950 -0.2078
  567MOL0     N74729   3.320   4.027   4.392  0.1321  0.9026 -0.5604
  567MOL0     C74730   3.230   4.127   4.405  1.1690  0.0898 -0.1930
  567MOL0     C74731   3.108   4.067   4.387  0.6337 -0.0897  0.0922
  567MOL0     C74732   2.979   4.138   4.359  0.3903 -0.2623 -0.4045
  567MOL0     C74733   2.852   4.047   4.351  0.3550 -0.2187  0.1536
  567MOL0     C74734   2.715   4.132   4.324 -0.4693 -0.5274 -0.2041
  567MOL0     C74735   2.590   4.066   4.387 -0.9282 -0.3714  0.9042
  567MOL0     O74736   2.480   4.164   4.379 -0.3548  0.3920 -0.0951
  567MOL0     C74737   2.352   4.131   4.425  0.1921  0.5263  0.2190
  567MOL0     C74738   2.258   4.234   4.425  0.4287  0.5650  0.2714
  567MOL0     C74739   2.134   4.210   4.471 -0.3147 -0.2554  1.1110
  567MOL0     C74740   2.099   4.086   4.518  0.1139  0.5036  0.1748
  567MOL0     C74741   1.955   4.066   4.555 -0.2506 -0.4580  0.2722
  567MOL0     O74742   1.890   4.171   4.608  0.3373 -0.0213  0.0252
  567MOL0     C74743   1.778   4.167   4.690  0.2904  1.3632  0.1939
  567MOL0     C74744   1.708   4.282   4.712  0.0638 -0.3860 -0.2980
  567MOL0     C74745   1.601   4.282   4.798 -0.3589  0.0690 -0.2341
  567MOL0     C74746   1.552   4.161   4.865 -0.0374  0.3266 -0.1074
  567MOL0     O74747   1.456   4.151   4.954  0.5009 -0.3569  0.7618
  567MOL0     C74748   1.366   4.258   4.956  0.3429  0.8574 -0.0765
  567MOL0     C74749   1.234   4.228   5.025  0.1394  0.0098 -0.4180
  567MOL0     C74750   1.160   4.104   4.978 -0.1150  0.5588 -0.0487
  567MOL0     C74751   1.104   4.115   4.837  0.9564  0.7692  0.3189
  567MOL0     C74752   1.065   3.985   4.753 -0.1644 -0.9662 -0.1835
  567MOL0     C74753   0.999   3.877   4.832  0.0773  1.2461 -0.6865
  567MOL0     C74754   0.858   3.921   4.881 -0.0330 -0.4176 -0.7538
  567MOL0     C74755   0.789   3.793   4.932 -0.4897  0.0428  0.2249
  567MOL0    Cl74756   0.687   3.733   4.790  0.0199 -0.5081  0.3245
  567MOL0     C74757   1.627   4.049   4.840 -0.1753  0.7451  0.1460
  567MOL0     C74758   1.732   4.053   4.756  0.3615 -0.2216 -1.0947
  567MOL0     O74759   1.901   3.960   4.526 -0.1434  0.0364  0.2900
  567MOL0     C74760   2.188   3.980   4.514  0.2713 -0.3239 -0.0791
  567MOL0     C74761   2.317   4.004   4.470  0.4148 -0.4698 -0.4882
  567MOL0     N74762   3.133   3.934   4.357 -0.2625  0.2492  0.2781
  567MOL0     N74763   3.262   3.907   4.365  0.8991  0.1352  0.2022
  567MOL0     C74764   4.305   3.751   4.693  0.6491 -0.2641  0.6276
  567MOL0     C74765   4.410   3.658   4.682 -0.1687  0.4539 -0.7897
  567MOL0     C74766   4.734   3.370   4.792  1.0563 -0.3647  0.2882
  567MOL0     C74767   4.701   3.240   4.743  0.0104 -0.4653  0.1298
  567MOL0     C74768   4.799   3.146   4.715  0.4560  0.4534  0.1701
  567MOL0     C74769   4.933   3.174   4.748 -0.3036 -0.2551 -0.4606
  567MOL0     O74770   5.044   3.099   4.719  0.2034  0.4744 -0.0227
  567MOL0     C74771   5.029   2.969   4.672  0.4025  0.1372 -0.6304
  567MOL0     C74772   5.151   2.884   4.712  0.0139 -0.1493 -0.2659
  567MOL0     C74773   5.253   2.887   4.602 -0.1812  0.5297  0.1147
  567MOL0     C74774   5.221   2.775   4.504 -0.0341  0.5375 -0.0970
  567MOL0     C74775   5.316   2.664   4.532 -0.3066  0.1599 -0.2066
  567MOL0     C74776   5.381   2.566   4.557  0.1026 -0.6791 -0.6426
  567MOL0     C74777   4.962   3.300   4.805 -0.5036 -0.2234 -0.6049
  567MOL0     C74778   4.866   3.394   4.834 -0.7825 -0.4091 -0.2386
  567MOL0     H74779   4.295   3.432   4.905 -0.8701 -0.8303 -2.0585
  567MOL0     H74780   4.110   3.598   4.936 -1.6821 -0.1078 -1.6777
  567MOL0     H74781   4.154   3.971   4.654  0.8895  2.3047 -0.0177
  567MOL0     H74782   4.240   3.997   4.801 -1.3371  0.1894  3.5749
  567MOL0     H74783   4.055   4.161   4.808  1.4487 -0.6544  1.9646
  567MOL0     H74784   4.009   4.050   4.916 -3.3132 -1.0120 -0.8166
  567MOL0     H74785   3.841   3.953   4.750  1.6082 -0.7795 -0.8690
  567MOL0     H74786   3.937   4.019   4.619 -0.9725 -0.9590 -0.9889
  567MOL0     H74787   3.831   4.178   4.850  0.9500 -2.7022  1.0561
  567MOL0     H74788   3.855   4.235   4.678 -1.0883 -0.5951 -1.0731
  567MOL0     H74789   3.618   4.220   4.754  1.6080  0.4733 -1.3791
  567MOL0     H74790   3.629   4.048   4.773  2.2083 -1.1614 -1.1004
  567MOL0     H74791   3.705   4.017   4.533  1.4420  2.0127 -1.4561
  567MOL0     H74792   3.672   4.184   4.506 -0.8496  1.2716  0.6970
  567MOL0     H74793   3.465   3.984   4.617 -0.1061  0.4064  0.7738
  567MOL0     H74794   3.443   4.163   4.597  1.2818  1.3609  0.1405
  567MOL0     H74795   3.527   3.971   4.378 -1.7139 -1.3993 -0.0768
  567MOL0     H74796   3.495   4.145   4.365 -1.8592  0.3747 -0.9622
  567MOL0     H74797   3.242   4.231   4.435  0.9549 -0.3698  1.6370
  567MOL0     H74798   2.970   4.186   4.261 -1.0531 -1.2921 -0.8179
  567MOL0     H74799   2.955   4.209   4.439  1.6648 -0.1808 -0.0820
  567MOL0     H74800   2.856   3.984   4.440  0.8684 -2.4377 -1.3426
  567MOL0     H74801   2.856   3.985   4.261  0.5539 -1.4028  0.9541
  567MOL0     H74802   2.732   4.234   4.360 -1.2353 -0.4326 -0.0777
  567MOL0     H74803   2.704   4.148   4.216  2.2398 -0.0707 -0.4687
  567MOL0     H74804   2.601   4.044   4.494 -2.3735  0.1411  1.1740
  567MOL0     H74805   2.567   3.976   4.329  1.1648  1.7449 -3.7436
  567MOL0     H74806   2.284   4.339   4.412 -1.8041  0.9461 -1.8909
  567MOL0     H74807   2.064   4.293   4.468  0.8386  0.7142 -0.7913
  567MOL0     H74808   1.739   4.370   4.657  2.0152 -1.4088 -0.9294
  567MOL0     H74809   1.554   4.380   4.807 -0.6063 -0.0466 -0.2756
  567MOL0     H74810   1.342   4.268   4.850 -1.4490  1.9258  0.3771
  567MOL0     H74811   1.401   4.359   4.982  3.1108 -0.2467  0.7791
  567MOL0     H74812   1.161   4.303   4.996 -1.3221 -0.9632  0.6047
  567MOL0     H74813   1.254   4.221   5.133 -0.0925  0.6013 -0.3345
  567MOL0     H74814   1.075   4.073   5.041 -0.4106 -1.2728 -1.2751
  567MOL0     H74815   1.234   4.024   4.984  0.1532  0.4683 -3.2954
  567MOL0     H74816   1.006   4.164   4.843 -0.0852 -0.5796 -3.1501
  567MOL0     H74817   1.173   4.177   4.780  2.2824 -1.6783 -0.8936
  567MOL0     H74818   1.158   3.954   4.706 -0.4428 -0.2185 -1.2523
  567MOL0     H74819   0.991   4.020   4.680 -2.0085  0.1015  2.0463
  567MOL0     H74820   1.066   3.847   4.912 -2.2781  1.6654  1.5706
  567MOL0     H74821   0.984   3.791   4.765 -1.1040  0.3795  0.6381
  567MOL0     H74822   0.877   3.979   4.972 -1.6063 -3.1831  1.5056
  567MOL0     H74823   0.797   3.975   4.809  1.0147 -0.6600 -1.8457
  567MOL0     H74824   0.740   3.817   5.026 -0.0161 -0.4093  0.6016
  567MOL0     H74825   0.861   3.713   4.955 -0.2501  0.1078 -0.2624
  567MOL0     H74826   1.593   3.952   4.877  1.4215  0.9408  2.3498
  567MOL0     H74827   1.783   3.959   4.738  1.2060  0.1224 -0.6067
  567MOL0     H74828   2.153   3.882   4.544 -1.8150 -0.6326 -3.1244
  567MOL0     H74829   2.390   3.925   4.484  0.4117 -0.2181  1.0425
  567MOL0     H74830   4.304   3.828   4.617 -1.4340 -0.6478  0.2238
  567MOL0     H74831   4.490   3.671   4.610  0.0189  1.0936 -0.4706
  567MOL0     H74832   4.603   3.208   4.710  0.3805 -2.2832  0.7103
  567MOL0     H74833   4.774   3.057   4.658 -1.5297  2.0586 -1.6068
  567MOL0     H74834   5.021   2.984   4.564 -2.0857  2.9590 -0.2137
  567MOL0     H74835   4.938   2.916   4.703 -0.0017 -0.9243 -3.3316
  567MOL0     H74836   5.197   2.933   4.798  1.0601  0.7719 -1.3264
  567MOL0     H74837   5.122   2.784   4.747 -5.5438  1.0877 -0.4546
  567MOL0     H74838   5.355   2.880   4.642 -0.4510  0.2029  0.7623
  567MOL0     H74839   5.253   2.983   4.550 -0.4010 -1.4224 -3.9183
  567MOL0     H74840   5.121   2.732   4.507 -0.0526  0.6154  1.1899
  567MOL0     H74841   5.234   2.809   4.401 -1.0793  0.9142 -0.1117
  567MOL0     H74842   5.435   2.476   4.582  1.0474  0.3735  1.2590
  567MOL0     H74843   5.060   3.332   4.841 -0.6801 -0.1821 -0.1649
  567MOL0     H74844   4.887   3.489   4.883  1.2694 -0.9113 -0.0289
  568MOL0     O74845   2.352   2.727   4.416  0.4416  0.2705 -0.2515
  568MOL0     C74846   2.365   2.850   4.429  0.1538  0.4962  0.0074
  568MOL0     O74847   2.270   2.934   4.473  0.1438 -0.2317 -0.4298
  568MOL0     C74848   2.143   2.893   4.496  0.1079  0.0508 -0.0732
  568MOL0     C74849   2.051   2.993   4.477  0.0483 -0.1502  0.0860
  568MOL0     C74850   1.912   2.973   4.488  0.1943 -0.3770  0.4969
  568MOL0     C74851   1.859   2.855   4.536 -0.7289  0.0192  0.5398
  568MOL0     O74852   1.726   2.844   4.558  0.2450  0.4067 -0.0821
  568MOL0     C74853   1.661   2.711   4.584 -0.0971  0.3029 -0.3275
  568MOL0     C74854   1.610   2.691   4.727  0.1357 -0.0747 -0.5015
  568MOL0     C74855   1.458   2.694   4.747  0.1185  0.7405 -0.2008
  568MOL0     C74856   1.388   2.822   4.696 -0.3322  0.2398  0.0318
  568MOL0     C74857   1.230   2.828   4.719 -0.2863 -0.4021  0.1068
  568MOL0     C74858   1.194   2.839   4.865  0.3381  0.0453  0.0993
  568MOL0     C74859   1.041   2.858   4.878 -0.9871 -0.1936 -0.5407
  568MOL0     C74860   1.001   2.911   5.007  0.8361  0.2730 -0.1441
  568MOL0     N74861   0.886   2.849   5.082  0.2662 -0.5173  0.6984
  568MOL0     C74862   0.754   2.848   5.047 -0.3276 -0.8034 -0.1324
  568MOL0     C74863   0.700   2.762   5.140 -0.3900  1.3709 -0.0732
  568MOL0     C74864   0.560   2.720   5.137 -0.0307  0.1342  0.0181
  568MOL0     C74865   0.460   2.752   5.255 -0.1923 -0.3836  0.0694
  568MOL0     C74866   0.491   2.890   5.314 -0.1300 -0.6653  0.1617
  568MOL0     C74867   0.459   2.996   5.215  0.3237 -0.2462 -0.4998
  568MOL0     O74868   0.398   3.112   5.285  0.2022 -0.4417 -0.4440
  568MOL0     C74869   0.260   3.118   5.311 -0.3828  1.0830 -0.0873
  568MOL0     C74870   0.165   3.017   5.279 -0.2953 -0.0946 -0.0869
  568MOL0     C74871   0.028   3.027   5.299 -0.3983 -0.0661  0.0066
  568MOL0     C74872  -0.017   3.136   5.371 -0.7106  0.1646 -0.1994
  568MOL0     C74873  -0.168   3.140   5.399  0.3889  0.8736  0.0626
  568MOL0     O74874  -0.256   3.033   5.373 -0.5483 -0.4474 -1.5784
  568MOL0     C74875  -0.371   3.031   5.451 -0.7073 -0.7397  0.8517
  568MOL0     C74876  -0.374   2.942   5.558  0.6231  0.4380 -0.5068
  568MOL0     C74877  -0.491   2.934   5.636 -0.2464  0.3600 -0.0231
  568MOL0     C74878  -0.602   3.019   5.604  0.1821  0.7306 -0.0139
  568MOL0     O74879  -0.711   3.011   5.675 -0.3013 -0.1647 -0.8145
  568MOL0     C74880  -0.818   2.924   5.632 -0.6166  0.3299 -0.2513
  568MOL0     C74881  -0.934   2.933   5.716  0.6101  0.0371  0.1595
  568MOL0     C74882  -1.029   3.056   5.715 -0.5447  0.2805  0.5710
  568MOL0     C74883  -0.971   3.196   5.747 -0.8604 -0.6379  0.7806
  568MOL0     C74884  -1.054   3.322   5.701 -0.7707 -0.1801 -0.1946
  568MOL0     C74885  -1.172   3.349   5.788  0.6641 -0.0675 -0.3363
  568MOL0     C74886  -1.310   3.322   5.712 -0.2276  0.1769 -0.5395
  568MOL0     C74887  -1.417   3.290   5.817 -0.0981 -0.6423 -0.6634
  568MOL0    Cl74888  -1.550   3.193   5.739  0.0354  0.2415 -0.0196
  568MOL0     C74889  -0.600   3.110   5.494 -0.7863  0.3543 -0.7657
  568MOL0     C74890  -0.481   3.111   5.417  0.7131 -0.6414  1.1115
  568MOL0     O74891  -0.205   3.250   5.454 -1.2481 -0.2573  0.8676
  568MOL0     C74892   0.071   3.238   5.421 -0.5578  0.3901  0.6993
  568MOL0     C74893   0.206   3.226   5.383 -0.3148  0.9962 -0.0559
  568MOL0     N74894   0.788   2.714   5.231 -0.6067 -0.4849  0.4178
  568MOL0     N74895   0.898   2.770   5.188 -0.1927  0.1402 -0.4477
  568MOL0     C74896   1.958   2.749   4.564  0.0365 -0.1952 -0.1533
  568MOL0     C74897   2.094   2.769   4.537 -0.2131 -0.1574 -0.0561
  568MOL0     C74898   2.494   2.910   4.398  0.2789 -0.1211 -0.5204
  568MOL0     C74899   2.530   3.033   4.452  0.8029  0.1667  0.3925
  568MOL0     C74900   2.642   3.096   4.409 -0.1784 -0.1844 -0.1808
  568MOL0     C74901   2.741   3.034   4.330 -0.0775 -0.9638 -0.1874
  568MOL0     O74902   2.844   3.109   4.283 -0.3654 -0.3981 -0.4718
  568MOL0     C74903   2.943   3.053   4.191  0.5801 -0.6542  0.4530
  568MOL0     C74904   2.996   3.169   4.126 -0.3537 -0.9896 -0.4231
  568MOL0     C74905   3.068   3.266   4.222  0.1973  0.3069  0.4489
  568MOL0     C74906   3.173   3.346   4.149 -0.9070  0.0110 -0.1469
  568MOL0     C74907   3.222   3.438   4.249  0.3274 -0.0363  0.2818
  568MOL0     C74908   3.247   3.510   4.343 -0.1127 -0.4906  0.3947
  568MOL0     C74909   2.712   2.902   4.289  0.0462 -0.4759  0.0185
  568MOL0     C74910   2.585   2.850   4.317  0.1787  0.1515  0.0464
  568MOL0     H74911   2.087   3.093   4.455  2.5013 -0.9594  0.1269
  568MOL0     H74912   1.850   3.059   4.468  2.3075  1.1969  0.3690
  568MOL0     H74913   1.731   2.630   4.566  1.6037  1.8863 -1.1361
  568MOL0     H74914   1.585   2.703   4.505 -0.9373  2.6231  0.1686
  568MOL0     H74915   1.658   2.776   4.776  1.0517 -0.1000 -1.3128
  568MOL0     H74916   1.643   2.599   4.776  3.4061  0.3434 -1.6062
  568MOL0     H74917   1.430   2.682   4.852 -1.5469  0.9835 -0.5955
  568MOL0     H74918   1.423   2.607   4.691 -1.5029  3.5824 -4.0121
  568MOL0     H74919   1.428   2.904   4.756  1.1325  0.1798 -0.8122
  568MOL0     H74920   1.413   2.838   4.591 -0.3631  0.1363  0.0083
  568MOL0     H74921   1.191   2.739   4.669  1.4471  0.1945 -2.4810
  568MOL0     H74922   1.192   2.918   4.671  0.2078 -0.1543  0.1687
  568MOL0     H74923   1.251   2.922   4.908  0.4751 -0.0408  0.0842
  568MOL0     H74924   1.223   2.748   4.918  1.8629 -1.5728 -3.1931
  568MOL0     H74925   1.017   2.930   4.799  2.7319  1.7498 -0.1232
  568MOL0     H74926   0.986   2.765   4.862  2.0760 -2.3710  0.8582
  568MOL0     H74927   0.989   3.018   4.989  1.6164  0.3985  0.0134
  568MOL0     H74928   1.085   2.899   5.077  0.6620 -0.5207 -0.0582
  568MOL0     H74929   0.719   2.908   4.964 -0.3756 -0.1397  0.3591
  568MOL0     H74930   0.576   2.612   5.135  2.6750  0.4819 -0.6361
  568MOL0     H74931   0.515   2.762   5.047 -1.1579 -2.0292 -0.5151
  568MOL0     H74932   0.477   2.681   5.336 -2.1807  0.7477  1.5804
  568MOL0     H74933   0.357   2.733   5.223 -0.8416 -1.8648  2.7734
  568MOL0     H74934   0.429   2.905   5.403  0.6223  4.3731  0.1308
  568MOL0     H74935   0.593   2.893   5.352  0.0959 -0.4024 -0.4500
  568MOL0     H74936   0.380   2.970   5.143  0.1815  0.9506 -0.7829
  568MOL0     H74937   0.546   3.029   5.158  0.0663  0.3396 -0.5534
  568MOL0     H74938   0.197   2.924   5.230  2.1692  1.7680 -2.3678
  568MOL0     H74939  -0.029   2.950   5.248 -1.1713  0.4508  0.0717
  568MOL0     H74940  -0.288   2.881   5.585  0.9948  0.8489 -0.7351
  568MOL0     H74941  -0.497   2.864   5.719 -0.3917  0.7157  0.2665
  568MOL0     H74942  -0.780   2.823   5.614 -0.0725  0.5656 -0.4650
  568MOL0     H74943  -0.847   2.961   5.534 -4.5490 -0.7671  0.3285
  568MOL0     H74944  -0.895   2.906   5.815  1.3379  0.2229 -0.0735
  568MOL0     H74945  -0.992   2.842   5.698 -0.1007  0.5637 -0.2566
  568MOL0     H74946  -1.119   3.035   5.773 -1.2659  1.7494  0.0235
  568MOL0     H74947  -1.062   3.064   5.611  0.4627  1.0600  0.2988
  568MOL0     H74948  -0.933   3.202   5.849  1.3871 -1.4440  0.0624
  568MOL0     H74949  -0.874   3.203   5.696  0.9547 -0.3178  3.9907
  568MOL0     H74950  -1.088   3.311   5.597 -0.2879  1.2576 -0.5326
  568MOL0     H74951  -0.987   3.408   5.703  0.1201 -0.8794  0.8449
  568MOL0     H74952  -1.173   3.451   5.827 -2.9141 -0.4849  1.0550
  568MOL0     H74953  -1.156   3.291   5.879 -0.7444  0.3556  0.2043
  568MOL0     H74954  -1.349   3.398   5.645 -1.4344  0.5125  0.5153
  568MOL0     H74955  -1.304   3.240   5.641 -1.0483  1.5056 -2.1987
  568MOL0     H74956  -1.440   3.387   5.862  1.0087 -0.3784 -0.6454
  568MOL0     H74957  -1.382   3.211   5.883  0.5800 -3.7157 -4.3455
  568MOL0     H74958  -0.674   3.188   5.483  0.8939  1.9515 -1.1999
  568MOL0     H74959  -0.478   3.189   5.341 -1.0657 -3.1818 -1.8222
  568MOL0     H74960   0.040   3.324   5.479 -2.1177  0.6301 -0.4098
  568MOL0     H74961   0.275   3.304   5.412  1.5217 -0.1567 -1.1122
  568MOL0     H74962   1.922   2.658   4.611 -2.5828 -0.3930 -2.2650
  568MOL0     H74963   2.161   2.685   4.554 -0.3806 -1.2697 -4.0800
  568MOL0     H74964   2.462   3.085   4.519 -0.0587 -1.7010  1.0643
  568MOL0     H74965   2.663   3.198   4.439  1.2029 -0.3381 -0.5149
  568MOL0     H74966   2.896   2.988   4.117  1.0637 -0.0582 -0.3968
  568MOL0     H74967   3.026   3.000   4.238  0.1265 -0.9121  0.9768
  568MOL0     H74968   3.066   3.137   4.047  0.6196 -0.9930  0.4195
  568MOL0     H74969   2.919   3.237   4.089  2.0822  2.7934  0.9298
  568MOL0     H74970   3.126   3.208   4.294  0.8967  2.3007  1.5760
  568MOL0     H74971   2.992   3.329   4.270 -0.1938  0.2807 -0.1276
  568MOL0     H74972   3.259   3.283   4.123 -1.1876 -1.2853  1.8468
  568MOL0     H74973   3.134   3.400   4.062 -0.9068  1.1357  0.5283
  568MOL0     H74974   3.281   3.563   4.429 -0.3649 -0.8411  0.7169
  568MOL0     H74975   2.773   2.842   4.223  0.6032  1.3344 -1.2037
  568MOL0     H74976   2.560   2.753   4.275 -0.6260 -0.0771  1.0016
  569MOL0     O74977   7.089   2.159   0.366  0.9579 -0.0930  0.3978
  569MOL0     C74978   7.124   2.048   0.401  0.4952  0.1340  0.3098
  569MOL0     O74979   7.043   1.933   0.382 -0.0666 -0.4119  0.2145
  569MOL0     C74980   6.913   1.936   0.344  0.2287  0.8658 -0.2749
  569MOL0     C74981   6.873   1.832   0.255  0.2744  0.5919 -0.7611
  569MOL0     C74982   6.733   1.826   0.213 -0.0120  0.0211 -0.0701
  569MOL0     C74983   6.646   1.924   0.244  0.4091 -0.5338  0.1102
  569MOL0     O74984   6.520   1.913   0.198  0.6893  0.0312  0.7999
  569MOL0     C74985   6.415   1.940   0.298 -0.2517  0.5715 -0.2257
  569MOL0     C74986   6.281   1.956   0.220  0.1620  0.2305 -0.0061
  569MOL0     C74987   6.249   1.829   0.140 -0.3843 -0.2589  0.0918
  569MOL0     C74988   6.122   1.826   0.063 -0.4883  0.5870  0.2655
  569MOL0     C74989   6.100   1.685   0.009 -0.7573  0.4055  0.3681
  569MOL0     C74990   5.990   1.680  -0.105 -0.4557  0.5477 -0.5641
  569MOL0     C74991   5.971   1.535  -0.150  0.2502  0.6134 -0.2157
  569MOL0     C74992   5.856   1.460  -0.079  0.0572  0.0778  0.4434
  569MOL0     N74993   5.723   1.490  -0.126  0.6251 -0.4652  0.9001
  569MOL0     C74994   5.667   1.428  -0.232 -0.7128 -0.2601 -0.2250
  569MOL0     C74995   5.543   1.485  -0.245  0.2176  0.1372 -0.2402
  569MOL0     C74996   5.443   1.454  -0.358 -0.8615 -0.2759 -0.4819
  569MOL0     C74997   5.489   1.492  -0.496 -0.0519 -0.1215  0.3418
  569MOL0     C74998   5.517   1.648  -0.496  0.7507 -0.0931 -0.3694
  569MOL0     C74999   5.553   1.689  -0.643 -0.2223 -0.3826 -0.8151
  569MOL0     O75000   5.694   1.680  -0.669 -0.4673 -0.7693 -0.5346
  569MOL0     C75001   5.783   1.759  -0.604 -0.9151 -0.5053 -0.6830
  569MOL0     C75002   5.901   1.706  -0.551  0.3941 -0.1400 -0.6034
  569MOL0     C75003   5.983   1.785  -0.467 -0.1016  0.2760 -0.1022
  569MOL0     C75004   5.961   1.921  -0.460 -0.3442 -0.3704  0.1968
  569MOL0     C75005   6.052   2.011  -0.392  0.7003 -0.4689 -2.0781
  569MOL0     O75006   6.178   1.966  -0.346  0.2273 -0.4181  0.8829
  569MOL0     C75007   6.257   2.038  -0.260  0.5824 -0.0594  0.2830
  569MOL0     C75008   6.252   2.174  -0.239 -0.5046 -0.2034 -0.6549
  569MOL0     C75009   6.350   2.235  -0.148  0.4142  0.3324  0.2283
  569MOL0     C75010   6.432   2.154  -0.071 -0.1680  0.6588 -0.4270
  569MOL0     O75011   6.523   2.190   0.024 -0.8003  0.1878  0.3770
  569MOL0     C75012   6.616   2.294  -0.017  1.1864  0.6009 -1.2306
  569MOL0     C75013   6.750   2.283   0.064 -0.0599  0.8316  0.5295
  569MOL0     C75014   6.852   2.376   0.002 -1.0748  0.3330 -0.2338
  569MOL0     C75015   6.984   2.362   0.074 -0.2943 -0.1870 -0.6096
  569MOL0     C75016   7.097   2.442   0.014  0.1765 -0.1339 -0.3538
  569MOL0     C75017   7.131   2.401  -0.130  0.4286  0.3802 -0.1686
  569MOL0     C75018   7.166   2.248  -0.147  0.2211 -0.4616 -0.9710
  569MOL0     C75019   7.235   2.226  -0.275 -0.2657 -0.1227  0.6634
  569MOL0    Cl75020   7.138   2.132  -0.395 -0.6217 -0.0643  0.1950
  569MOL0     C75021   6.424   2.021  -0.092 -0.7534  1.4358 -0.5765
  569MOL0     C75022   6.349   1.964  -0.194 -0.3890  0.7161  0.1894
  569MOL0     O75023   6.004   2.117  -0.358  0.1552  0.1533 -1.0983
  569MOL0     C75024   5.861   1.986  -0.527  0.1967  0.6713  0.4156
  569MOL0     C75025   5.770   1.901  -0.593  0.7063 -0.2029 -0.5091
  569MOL0     N75026   5.533   1.587  -0.152 -0.1111  0.1241  0.1375
  569MOL0     N75027   5.638   1.581  -0.070 -0.1592  0.0418  0.0020
  569MOL0     C75028   6.693   2.026   0.327 -0.8617 -0.4163  0.2073
  569MOL0     C75029   6.821   2.032   0.383  0.8270 -0.1823 -0.3000
  569MOL0     C75030   7.272   2.027   0.432  0.6599 -0.3077  0.3892
  569MOL0     C75031   7.357   2.134   0.464  0.6486 -0.3367 -0.3741
  569MOL0     C75032   7.490   2.109   0.485  0.1010  0.1917  0.1196
  569MOL0     C75033   7.552   1.986   0.468 -0.3406 -0.3612  0.1713
  569MOL0     O75034   7.687   1.988   0.490  0.5596 -0.3218 -0.3911
  569MOL0     C75035   7.753   1.870   0.521 -0.0377  1.0001  0.3902
  569MOL0     C75036   7.883   1.902   0.593 -0.3258  0.0841 -0.6168
  569MOL0     C75037   7.851   1.996   0.715 -0.0442  0.1189  1.2280
  569MOL0     C75038   7.969   2.002   0.814 -0.5605  0.1569 -0.5874
  569MOL0     C75039   7.909   2.057   0.934  0.1441  0.0748 -0.2656
  569MOL0     C75040   7.865   2.088   1.039  0.5656  0.6603 -0.4364
  569MOL0     C75041   7.465   1.879   0.430 -0.2595  0.4350 -0.4373
  569MOL0     C75042   7.324   1.902   0.416 -0.6266 -0.7537  0.2546
  569MOL0     H75043   6.942   1.750   0.239 -1.2303 -0.7464 -0.7664
  569MOL0     H75044   6.692   1.737   0.167 -0.0559 -1.2532  2.2556
  569MOL0     H75045   6.420   2.037   0.347 -2.8794  0.7092 -0.0873
  569MOL0     H75046   6.397   1.852   0.360  0.1715 -0.5034 -1.5678
  569MOL0     H75047   6.291   2.042   0.153 -0.6336 -0.0104 -0.4443
  569MOL0     H75048   6.202   1.975   0.293 -1.6657 -3.1823 -0.8701
  569MOL0     H75049   6.250   1.738   0.201 -1.1483 -0.8378 -0.7421
  569MOL0     H75050   6.331   1.799   0.074  0.1766 -0.1343  0.7145
  569MOL0     H75051   6.043   1.858   0.132 -0.1589  0.0108  0.9259
  569MOL0     H75052   6.125   1.896  -0.021 -3.1180 -2.6240 -2.8419
  569MOL0     H75053   6.077   1.617   0.091 -1.5665 -0.3575 -0.4664
  569MOL0     H75054   6.192   1.654  -0.042 -0.2987  1.3349  0.6030
  569MOL0     H75055   6.018   1.749  -0.185 -2.0638  0.9566 -0.8104
  569MOL0     H75056   5.899   1.725  -0.063 -1.5884 -1.2023 -1.0813
  569MOL0     H75057   5.969   1.526  -0.259 -0.4890 -0.5528 -0.1264
  569MOL0     H75058   6.068   1.486  -0.138 -0.4189 -1.4874 -2.5065
  569MOL0     H75059   5.864   1.480   0.028  0.7518 -1.4757  0.7002
  569MOL0     H75060   5.869   1.353  -0.097  1.4831  0.4124 -0.7639
  569MOL0     H75061   5.700   1.349  -0.298 -4.0778 -0.2738 -2.1148
  569MOL0     H75062   5.350   1.502  -0.327 -0.4080 -0.7958  1.8718
  569MOL0     H75063   5.424   1.347  -0.369 -3.3181  0.0952 -0.3517
  569MOL0     H75064   5.415   1.467  -0.573 -2.0754  3.9529  0.7027
  569MOL0     H75065   5.582   1.449  -0.535 -0.1486  0.3284 -0.4044
  569MOL0     H75066   5.421   1.699  -0.485 -1.3821 -2.5824 -4.9366
  569MOL0     H75067   5.597   1.682  -0.429  3.1782  0.1651 -3.2277
  569MOL0     H75068   5.524   1.795  -0.645  0.2506 -0.1544  1.2434
  569MOL0     H75069   5.503   1.623  -0.713  2.1691 -1.5121 -1.5681
  569MOL0     H75070   5.923   1.600  -0.560  0.9995 -0.0094 -0.6768
  569MOL0     H75071   6.068   1.734  -0.424 -1.2401 -1.1590  0.5491
  569MOL0     H75072   6.178   2.236  -0.289 -1.9420 -0.4181  1.1214
  569MOL0     H75073   6.364   2.343  -0.140  0.4086  0.3310  0.2566
  569MOL0     H75074   6.565   2.387   0.007  1.4065  0.1786  1.0931
  569MOL0     H75075   6.624   2.306  -0.126 -1.1865 -0.5083 -1.5925
  569MOL0     H75076   6.789   2.182   0.057  1.8134  1.3634  2.4456
  569MOL0     H75077   6.739   2.301   0.171  0.2659  0.1558  0.6775
  569MOL0     H75078   6.823   2.481   0.014  1.1349  0.7634  2.4871
  569MOL0     H75079   6.862   2.359  -0.105  0.0463  0.0609 -0.1002
  569MOL0     H75080   6.974   2.397   0.177  0.1611 -0.9860 -0.2807
  569MOL0     H75081   7.019   2.258   0.065  1.8815  0.6422 -2.6575
  569MOL0     H75082   7.189   2.423   0.070 -0.2552  2.2456  1.3407
  569MOL0     H75083   7.075   2.547   0.037  0.1707 -0.6407  2.2919
  569MOL0     H75084   7.223   2.453  -0.159  1.1663 -0.7367  0.1397
  569MOL0     H75085   7.050   2.428  -0.199 -0.7925 -0.2093  1.0020
  569MOL0     H75086   7.223   2.200  -0.067  1.6246 -1.3111 -2.4304
  569MOL0     H75087   7.073   2.190  -0.147  0.1862 -0.4192 -0.3735
  569MOL0     H75088   7.327   2.166  -0.276 -1.4159 -2.0232 -1.7421
  569MOL0     H75089   7.266   2.323  -0.315  1.3132 -0.0682  1.9039
  569MOL0     H75090   6.498   1.956  -0.046 -0.4524  0.5307 -2.2606
  569MOL0     H75091   6.348   1.856  -0.204  2.7271  0.6716 -0.6024
  569MOL0     H75092   5.833   2.090  -0.513 -0.7473  0.6169 -0.9078
  569MOL0     H75093   5.684   1.950  -0.638 -0.2236  0.3688  1.7150
  569MOL0     H75094   6.625   2.107   0.354 -0.2574 -0.0430  0.6350
  569MOL0     H75095   6.851   2.114   0.448  0.5697  0.3935 -0.8880
  569MOL0     H75096   7.315   2.234   0.467  1.4548  0.1835 -3.2079
  569MOL0     H75097   7.552   2.194   0.512  1.5078  0.2382 -2.8838
  569MOL0     H75098   7.773   1.811   0.431  1.5220  0.6229  0.9632
  569MOL0     H75099   7.690   1.809   0.587 -0.2524  0.2933 -0.4466
  569MOL0     H75100   7.927   1.807   0.625  0.4367  1.0830  1.4855
  569MOL0     H75101   7.962   1.949   0.534 -0.6801  0.0855 -1.1006
  569MOL0     H75102   7.767   1.955   0.773 -0.4069  0.2451  0.7951
  569MOL0     H75103   7.826   2.098   0.687 -1.9678  0.0875  2.5943
  569MOL0     H75104   8.004   1.899   0.827 -2.6994 -0.5775 -0.3290
  569MOL0     H75105   8.046   2.062   0.765 -0.6573  0.1017 -0.8076
  569MOL0     H75106   7.811   2.104   1.131 -1.3500 -2.2155 -0.9183
  569MOL0     H75107   7.505   1.778   0.423  0.4247  0.5124  1.5878
  569MOL0     H75108   7.262   1.819   0.388  1.5040 -1.9697 -1.1122
  570MOL0     O75109   5.837   9.322   1.224 -0.0003  0.0761 -0.2006
  570MOL0     C75110   5.866   9.438   1.246 -0.8024 -0.1662  0.2765
  570MOL0     O75111   5.813   9.551   1.188 -0.4355  1.1089  0.4726
  570MOL0     C75112   5.718   9.538   1.085 -0.1292 -0.4589  0.2569
  570MOL0     C75113   5.596   9.472   1.106  0.2814 -0.5592  0.4171
  570MOL0     C75114   5.500   9.463   1.001 -0.2112 -0.4739  0.5708
  570MOL0     C75115   5.521   9.539   0.883  0.3903  0.0532  0.1859
  570MOL0     O75116   5.431   9.549   0.773 -0.1723 -0.2869  0.0503
  570MOL0     C75117   5.304   9.486   0.780 -0.3952 -0.6481  0.7378
  570MOL0     C75118   5.207   9.538   0.888  0.0953 -0.8416 -0.0157
  570MOL0     C75119   5.079   9.459   0.914 -0.3220  0.5687 -0.1595
  570MOL0     C75120   4.983   9.524   1.018 -0.2295  0.0051 -0.2457
  570MOL0     C75121   4.868   9.430   1.059  0.6023  0.3042  1.0172
  570MOL0     C75122   4.755   9.481   1.153  0.2968 -0.1601 -0.1958
  570MOL0     C75123   4.621   9.410   1.113  0.3286 -0.1900  0.2169
  570MOL0     C75124   4.509   9.432   1.221 -0.1152 -0.8091  0.0588
  570MOL0     N75125   4.460   9.571   1.224 -0.0412 -0.0010  0.5453
  570MOL0     C75126   4.365   9.621   1.146 -0.1408 -0.1667  0.6766
  570MOL0     C75127   4.332   9.736   1.202  1.3198 -0.3084 -0.3706
  570MOL0     C75128   4.251   9.854   1.150  1.1433 -0.1716 -0.2438
  570MOL0     C75129   4.100   9.832   1.130  0.2069 -0.0017 -0.7530
  570MOL0     C75130   4.029   9.785   1.261  0.0059 -0.3502  0.9808
  570MOL0     C75131   3.971   9.902   1.351 -0.5144 -0.5471  0.4751
  570MOL0     O75132   3.893   9.992   1.267  0.3800 -0.4243  0.0115
  570MOL0     C75133   3.822  10.084   1.333  0.2613 -0.3445  0.3191
  570MOL0     C75134   3.857  10.137   1.457  0.0788  0.0162 -0.0139
  570MOL0     C75135   3.767  10.225   1.523 -0.7251 -0.4181 -0.8829
  570MOL0     C75136   3.656  10.290   1.461  0.1548  0.0525 -0.2482
  570MOL0     C75137   3.565  10.380   1.531 -0.1497  0.7196  0.4578
  570MOL0     O75138   3.469  10.433   1.452  0.2237 -0.2091 -0.0073
  570MOL0     C75139   3.363  10.503   1.511 -0.0039 -0.4458  0.0926
  570MOL0     C75140   3.308  10.476   1.640 -0.3411 -0.1216 -0.5545
  570MOL0     C75141   3.215  10.558   1.697  0.3712  0.1039 -0.2821
  570MOL0     C75142   3.144  10.653   1.621  0.2681 -0.2448  0.1605
  570MOL0     O75143   3.037  10.715   1.684 -0.1921  0.8023 -0.0588
  570MOL0     C75144   2.950  10.815   1.621 -0.8659  0.1245  0.6834
  570MOL0     C75145   2.859  10.874   1.720 -0.7016 -0.0258 -0.0712
  570MOL0     C75146   2.744  10.965   1.661  1.1566  0.1939  0.0329
  570MOL0     C75147   2.625  10.896   1.610  0.1284 -0.2823  0.3424
  570MOL0     C75148   2.511  10.992   1.562 -0.3002 -0.0774 -0.9007
  570MOL0     C75149   2.378  10.927   1.541 -0.6479  0.1067  0.0886
  570MOL0     C75150   2.264  11.027   1.501  0.4212  1.0338 -0.6510
  570MOL0     C75151   2.127  10.960   1.499  0.7498  0.6883 -0.0715
  570MOL0    Cl75152   2.123  10.815   1.389  0.0158 -0.0992  0.0532
  570MOL0     C75153   3.173  10.661   1.486 -0.3972 -0.2461  0.9628
  570MOL0     C75154   3.291  10.599   1.436  0.1049  0.3069 -0.1536
  570MOL0     O75155   3.588  10.389   1.653 -0.8729 -0.2621 -0.6106
  570MOL0     C75156   3.628  10.238   1.331 -1.1849 -0.0094 -0.6016
  570MOL0     C75157   3.710  10.140   1.271  0.4832 -0.5485 -0.0642
  570MOL0     N75158   4.396   9.745   1.318 -0.5310  0.0560 -0.2903
  570MOL0     N75159   4.478   9.644   1.336  0.7225  0.4505  0.9080
  570MOL0     C75160   5.642   9.599   0.868 -0.0709 -0.2009 -0.6416
  570MOL0     C75161   5.741   9.594   0.968  0.0683  0.2960  0.1369
  570MOL0     C75162   5.981   9.463   1.345  0.5214 -0.1908 -0.6885
  570MOL0     C75163   6.002   9.585   1.401  0.2227  0.1387  0.7693
  570MOL0     C75164   6.099   9.601   1.492  0.6791 -0.2790  0.1423
  570MOL0     C75165   6.174   9.496   1.542  1.1331 -0.0360 -0.0865
  570MOL0     O75166   6.267   9.532   1.638 -0.2033  0.4010 -0.3044
  570MOL0     C75167   6.318   9.421   1.722 -0.8040 -0.4303 -0.2453
  570MOL0     C75168   6.203   9.367   1.820  0.1847 -0.4642 -0.0340
  570MOL0     C75169   6.137   9.481   1.901 -0.1384  0.5878 -0.4490
  570MOL0     C75170   6.016   9.436   1.986  0.1598 -0.0059 -0.3029
  570MOL0     C75171   5.891   9.450   1.910 -0.5615 -0.4619  0.0171
  570MOL0     C75172   5.779   9.450   1.855 -0.4206 -0.2755 -0.0902
  570MOL0     C75173   6.149   9.366   1.488 -0.9169 -0.0388  0.3159
  570MOL0     C75174   6.053   9.357   1.383 -0.6953 -0.1887 -0.7320
  570MOL0     H75175   5.584   9.430   1.205  2.0331  0.2216  1.0058
  570MOL0     H75176   5.411   9.402   1.012 -1.1586  0.3958 -1.6711
  570MOL0     H75177   5.317   9.379   0.798  1.9084 -0.7218 -0.9990
  570MOL0     H75178   5.266   9.496   0.678  1.8836 -0.8416 -0.1826
  570MOL0     H75179   5.173   9.638   0.860  0.6665  0.1946  2.6852
  570MOL0     H75180   5.255   9.545   0.986  1.0785 -0.5612 -0.4985
  570MOL0     H75181   5.117   9.367   0.959 -3.7149 -0.4140  1.0751
  570MOL0     H75182   5.021   9.434   0.825  1.4511  0.8079 -1.4278
  570MOL0     H75183   5.042   9.555   1.105  2.1135 -2.3357 -0.9074
  570MOL0     H75184   4.940   9.617   0.979  1.0284  0.4417 -0.6428
  570MOL0     H75185   4.902   9.335   1.101  0.8916 -0.1961 -0.3015
  570MOL0     H75186   4.819   9.410   0.964  2.6233  1.5429 -0.3546
  570MOL0     H75187   4.746   9.590   1.155 -2.1003 -0.3218  1.3788
  570MOL0     H75188   4.783   9.459   1.256  0.7929  1.3847  0.0201
  570MOL0     H75189   4.584   9.453   1.019  1.5892  3.0887  1.0615
  570MOL0     H75190   4.632   9.304   1.090  0.6267 -0.1534  0.1896
  570MOL0     H75191   4.565   9.409   1.312  1.7044  1.1927 -0.4788
  570MOL0     H75192   4.427   9.359   1.209  0.4754 -1.3216 -1.0529
  570MOL0     H75193   4.343   9.571   1.052  0.3344 -1.8430  1.4222
  570MOL0     H75194   4.287   9.890   1.053  1.3085 -0.4403 -0.2836
  570MOL0     H75195   4.257   9.940   1.218  2.0275 -1.3229  1.2083
  570MOL0     H75196   4.091   9.747   1.060 -0.2942 -1.9256  1.5143
  570MOL0     H75197   4.056   9.928   1.101 -4.0020 -0.9963  1.5436
  570MOL0     H75198   3.943   9.727   1.228  1.7789 -3.1763  0.8883
  570MOL0     H75199   4.085   9.719   1.329  0.8469 -1.4417 -0.7123
  570MOL0     H75200   4.061   9.952   1.389  0.4169 -0.7337 -1.3948
  570MOL0     H75201   3.909   9.860   1.431 -1.4458  2.9175  1.7756
  570MOL0     H75202   3.947  10.112   1.512 -0.7868 -2.2939  0.4593
  570MOL0     H75203   3.801  10.252   1.622  3.8768  1.4278 -2.7260
  570MOL0     H75204   3.358  10.395   1.693  0.4680  0.6816 -0.0583
  570MOL0     H75205   3.182  10.536   1.799  0.6230  1.6573  0.1489
  570MOL0     H75206   2.905  10.776   1.529 -1.5978  0.8743  0.7078
  570MOL0     H75207   3.014  10.897   1.587  0.1265 -0.7648  0.3487
  570MOL0     H75208   2.928  10.924   1.789  1.5114 -2.2608 -0.5301
  570MOL0     H75209   2.811  10.793   1.776  0.8001 -0.9380 -0.0634
  570MOL0     H75210   2.793  11.027   1.585  0.8290 -0.7106 -0.9391
  570MOL0     H75211   2.715  11.038   1.737 -0.4769  1.5777 -1.8325
  570MOL0     H75212   2.645  10.826   1.528 -0.5818 -0.5852  0.4194
  570MOL0     H75213   2.564  10.840   1.682  0.8053 -1.7873 -0.1960
  570MOL0     H75214   2.544  11.060   1.483  0.8316  3.6900  2.4520
  570MOL0     H75215   2.495  11.054   1.651  1.0944 -3.0172  1.5903
  570MOL0     H75216   2.346  10.874   1.630 -0.0454 -0.1373  0.1613
  570MOL0     H75217   2.401  10.866   1.453  1.2945  2.8186 -1.4451
  570MOL0     H75218   2.274  11.114   1.567  0.1695  0.9977 -0.5641
  570MOL0     H75219   2.278  11.071   1.402  1.0932  1.4459 -0.3853
  570MOL0     H75220   2.048  11.028   1.465 -0.8122 -0.1868  1.6087
  570MOL0     H75221   2.108  10.931   1.603  0.0453 -0.4978 -0.5047
  570MOL0     H75222   3.113  10.727   1.423 -0.7340 -0.3315  1.1873
  570MOL0     H75223   3.335  10.626   1.340 -0.8806  0.9273 -0.4464
  570MOL0     H75224   3.537  10.274   1.283 -3.3660 -2.8625  1.0483
  570MOL0     H75225   3.685  10.109   1.170 -1.1949  0.1839  0.0771
  570MOL0     H75226   5.652   9.656   0.776  0.7730  0.8855  0.1095
  570MOL0     H75227   5.827   9.660   0.959 -0.1810  0.5018 -0.9641
  570MOL0     H75228   5.956   9.676   1.365  0.5326  0.3369  0.8803
  570MOL0     H75229   6.132   9.697   1.531  1.8696 -1.2242  1.6168
  570MOL0     H75230   6.396   9.464   1.786 -1.6178  1.0683 -0.2033
  570MOL0     H75231   6.362   9.344   1.658  3.1034  1.3179  0.0438
  570MOL0     H75232   6.126   9.320   1.757  1.4415  0.4248 -2.3497
  570MOL0     H75233   6.252   9.294   1.885  2.3547  2.2526  1.5769
  570MOL0     H75234   6.110   9.562   1.832  1.0686 -0.3868 -2.1205
  570MOL0     H75235   6.216   9.516   1.968 -1.0632  1.4103  0.2506
  570MOL0     H75236   6.039   9.332   2.010 -1.0058  0.5587  4.1920
  570MOL0     H75237   6.003   9.495   2.077 -3.0543  1.2758 -1.4513
  570MOL0     H75238   5.677   9.462   1.824  0.3671 -0.1766 -2.9592
  570MOL0     H75239   6.206   9.281   1.524  0.1860  0.5261 -0.0592
  570MOL0     H75240   6.033   9.260   1.340  1.0649 -1.6312  1.4874
  571MOL0     O75241   7.910  10.117   7.339 -0.0633 -0.4169 -0.4437
  571MOL0     C75242   7.871  10.225   7.383 -0.0327 -0.5886  0.0370
  571MOL0     O75243   7.746  10.280   7.374  0.2767 -0.0049  0.1629
  571MOL0     C75244   7.651  10.226   7.299  0.5443  0.2219  0.4796
  571MOL0     C75245   7.521  10.217   7.350  0.1367 -0.6935  0.3446
  571MOL0     C75246   7.408  10.185   7.265  0.1881 -0.8567 -0.6127
  571MOL0     C75247   7.428  10.180   7.129 -0.3576 -0.1190 -0.2149
  571MOL0     O75248   7.314  10.177   7.055  0.0520 -0.0554  0.1296
  571MOL0     C75249   7.318  10.167   6.916 -0.8431 -0.0514 -0.3422
  571MOL0     C75250   7.179  10.186   6.847  0.1989 -0.5441 -0.0825
  571MOL0     C75251   7.049  10.105   6.898 -0.3043 -0.5707  0.2083
  571MOL0     C75252   7.049   9.959   6.865  0.6255 -0.0741 -1.0156
  571MOL0     C75253   6.919   9.896   6.898  0.1197  0.0611 -0.4943
  571MOL0     C75254   6.933   9.743   6.873  0.0568  0.2569  0.9326
  571MOL0     C75255   6.794   9.670   6.899 -0.1870  0.0264  0.4057
  571MOL0     C75256   6.680   9.713   6.801  0.6502  0.5676 -0.2528
  571MOL0     N75257   6.563   9.623   6.809  0.7081 -0.1491  0.7351
  571MOL0     C75258   6.558   9.486   6.820  0.6107 -0.0189 -0.2836
  571MOL0     C75259   6.421   9.458   6.798 -0.4843  0.5173  0.5312
  571MOL0     C75260   6.364   9.320   6.772 -0.3532 -0.2658  0.6106
  571MOL0     C75261   6.226   9.307   6.829  0.8233  0.2685 -0.1280
  571MOL0     C75262   6.126   9.363   6.732  0.4898  0.3919  0.6973
  571MOL0     C75263   5.982   9.342   6.775  0.4860  0.0276  0.8870
  571MOL0     O75264   5.895   9.405   6.671 -0.1840  0.4036 -0.1626
  571MOL0     C75265   5.760   9.405   6.679 -1.0504 -1.0602  0.7747
  571MOL0     C75266   5.692   9.468   6.572 -0.2409  0.1972  0.2020
  571MOL0     C75267   5.560   9.488   6.573  0.2691 -0.1352 -0.2136
  571MOL0     C75268   5.487   9.450   6.689  0.9501 -0.1628 -0.3417
  571MOL0     C75269   5.336   9.463   6.690 -0.2284  0.8692  0.1996
  571MOL0     O75270   5.272   9.450   6.806  0.5708 -0.3807  0.6578
  571MOL0     C75271   5.135   9.421   6.808  0.1564 -0.2555 -0.0308
  571MOL0     C75272   5.039   9.505   6.754 -0.7572 -0.6873  0.4213
  571MOL0     C75273   4.905   9.482   6.787  0.0345  0.2222  0.2847
  571MOL0     C75274   4.866   9.369   6.861 -0.3809  0.0788  0.3826
  571MOL0     O75275   4.729   9.357   6.879 -0.7700 -0.1463 -0.4613
  571MOL0     C75276   4.680   9.299   7.006 -0.6469 -0.2985  0.1633
  571MOL0     C75277   4.526   9.302   7.000 -0.6111  0.5056 -0.4281
  571MOL0     C75278   4.471   9.263   7.143  0.4265  0.0513  0.0870
  571MOL0     C75279   4.324   9.241   7.138  0.4035  0.0179 -0.1802
  571MOL0     C75280   4.267   9.196   7.277 -0.1483 -0.0657 -0.0698
  571MOL0     C75281   4.112   9.185   7.268  1.0733 -0.3557  0.2352
  571MOL0     C75282   4.041   9.134   7.397 -0.3785 -0.9412  0.3431
  571MOL0     C75283   3.890   9.146   7.389  0.2954 -0.1056 -0.4893
  571MOL0    Cl75284   3.820   9.082   7.538  0.0535 -0.1781 -0.4150
  571MOL0     C75285   4.959   9.286   6.916 -0.3641 -0.6615 -0.2120
  571MOL0     C75286   5.095   9.314   6.892  0.3622  0.0063  0.0087
  571MOL0     O75287   5.282   9.466   6.578  0.7392  0.1219 -0.0473
  571MOL0     C75288   5.557   9.395   6.797 -0.3726 -0.5910  0.2121
  571MOL0     C75289   5.698   9.362   6.794  0.1788  0.0871  0.5719
  571MOL0     N75290   6.357   9.580   6.773 -0.6961 -0.2508  0.2196
  571MOL0     N75291   6.443   9.676   6.777 -0.2549 -1.1653  0.2670
  571MOL0     C75292   7.559  10.173   7.078 -0.3740  0.5248  1.0095
  571MOL0     C75293   7.671  10.196   7.163 -0.5752 -0.1743  0.4832
  571MOL0     C75294   7.973  10.322   7.433 -0.3548  0.6559 -0.1304
  571MOL0     C75295   8.109  10.283   7.436 -0.2185  0.4677  0.2872
  571MOL0     C75296   8.207  10.371   7.493 -0.6331  0.7851  0.4125
  571MOL0     C75297   8.172  10.504   7.541 -0.9302  1.0199  0.8878
  571MOL0     O75298   8.260  10.599   7.595  0.3599 -0.3447  0.2174
  571MOL0     C75299   8.398  10.570   7.601 -0.1237  0.6624 -0.1420
  571MOL0     C75300   8.448  10.703   7.638 -0.4412 -0.3072 -0.3372
  571MOL0     C75301   8.586  10.694   7.690 -0.0651  0.0021  0.3051
  571MOL0     C75302   8.637  10.816   7.755  0.0788 -0.5680  0.7303
  571MOL0     C75303   8.698  10.925   7.668  0.3957 -0.6437  0.4419
  571MOL0     C75304   8.744  11.018   7.595 -0.6340  0.7146  0.5958
  571MOL0     C75305   8.040  10.536   7.530  0.1348  0.1350 -0.3571
  571MOL0     C75306   7.942  10.450   7.486 -0.0926  0.1963  0.5279
  571MOL0     H75307   7.513  10.227   7.458 -0.1450 -1.0083  0.3561
  571MOL0     H75308   7.304  10.177   7.297 -0.0540  0.7573 -0.9384
  571MOL0     H75309   7.356  10.068   6.890 -1.8363  0.3255 -3.7687
  571MOL0     H75310   7.393  10.241   6.884  1.0074 -1.9862 -0.7433
  571MOL0     H75311   7.199  10.152   6.744  3.6028 -1.5416  0.7827
  571MOL0     H75312   7.151  10.291   6.837 -2.9218 -1.1943  0.8362
  571MOL0     H75313   6.964  10.148   6.844 -0.4578 -1.6681 -0.4370
  571MOL0     H75314   7.043  10.116   7.007  2.0085  0.4623  0.2993
  571MOL0     H75315   7.043   9.941   6.758 -1.2698 -1.3659 -0.7338
  571MOL0     H75316   7.136   9.915   6.916 -1.4988 -1.2442  1.8374
  571MOL0     H75317   6.832   9.938   6.848 -0.4110  2.3930  2.1499
  571MOL0     H75318   6.900   9.912   7.005  1.6591 -0.5075 -0.1003
  571MOL0     H75319   7.000   9.694   6.943  0.6020 -0.1365  0.1463
  571MOL0     H75320   6.965   9.715   6.772 -1.0546  0.7506  0.4199
  571MOL0     H75321   6.815   9.564   6.883  0.5786  0.3801 -1.1359
  571MOL0     H75322   6.751   9.697   6.996 -0.8165 -0.8668  0.3788
  571MOL0     H75323   6.715   9.715   6.697  1.1910  1.0667 -0.0678
  571MOL0     H75324   6.655   9.816   6.825 -0.9980  0.8022 -2.6406
  571MOL0     H75325   6.640   9.419   6.844  0.5554  0.0290  0.0429
  571MOL0     H75326   6.428   9.244   6.819  0.2448 -0.7562 -0.9243
  571MOL0     H75327   6.368   9.312   6.663  0.8113  0.9044  0.5531
  571MOL0     H75328   6.209   9.360   6.923 -1.4734  1.2831 -1.0394
  571MOL0     H75329   6.210   9.201   6.851 -2.9291  0.4740 -1.1795
  571MOL0     H75330   6.134   9.471   6.718  1.3199  0.3183  0.5664
  571MOL0     H75331   6.154   9.319   6.635  0.7871  1.5543  0.2432
  571MOL0     H75332   5.960   9.383   6.874 -3.8980  1.1807 -0.3191
  571MOL0     H75333   5.958   9.235   6.778 -1.8974  0.2962 -2.4826
  571MOL0     H75334   5.750   9.508   6.489 -2.4424  2.7569 -0.2545
  571MOL0     H75335   5.524   9.528   6.479 -0.3127  0.6826  0.3495
  571MOL0     H75336   5.062   9.601   6.708  1.7992  0.3800  3.5515
  571MOL0     H75337   4.831   9.543   6.737 -1.0619 -2.7984 -2.1015
  571MOL0     H75338   4.718   9.347   7.096  0.5918  2.1946 -1.5837
  571MOL0     H75339   4.708   9.193   6.998 -2.6019 -0.7251 -2.3510
  571MOL0     H75340   4.486   9.231   6.927 -1.6574  1.1512 -0.5048
  571MOL0     H75341   4.502   9.406   6.975  0.5931  0.1567 -3.4564
  571MOL0     H75342   4.506   9.339   7.213  1.8293  0.3383 -0.8974
  571MOL0     H75343   4.521   9.171   7.174  2.1520  0.5417 -1.1339
  571MOL0     H75344   4.281   9.338   7.109  0.0466  1.4669  4.4656
  571MOL0     H75345   4.308   9.159   7.068  2.2498 -3.2575  2.9058
  571MOL0     H75346   4.291   9.272   7.352  1.7484 -2.5833  2.0657
  571MOL0     H75347   4.319   9.101   7.291  1.7604  0.6128 -1.9944
  571MOL0     H75348   4.083   9.121   7.184 -0.7225 -1.1871  1.4406
  571MOL0     H75349   4.062   9.275   7.233 -2.5891 -2.3542 -0.2014
  571MOL0     H75350   4.078   9.036   7.430 -2.1914 -1.4883  0.8594
  571MOL0     H75351   4.072   9.214   7.464 -2.4395 -0.9937  1.4313
  571MOL0     H75352   3.857   9.091   7.301  0.1486  0.1908 -0.6223
  571MOL0     H75353   3.865   9.252   7.381  0.0914  0.0120  1.1727
  571MOL0     H75354   4.932   9.204   6.982 -1.6268  1.6080  2.3171
  571MOL0     H75355   5.165   9.245   6.938 -0.9451  1.8826  5.5347
  571MOL0     H75356   5.506   9.356   6.884 -2.8510 -0.2072 -0.9709
  571MOL0     H75357   5.747   9.315   6.878  3.4403 -2.2661 -2.3615
  571MOL0     H75358   7.582  10.151   6.974  0.3013 -0.9329  1.4388
  571MOL0     H75359   7.770  10.191   7.118 -0.3192 -2.3544  1.1694
  571MOL0     H75360   8.140  10.183   7.409  0.3534  0.4968  0.8376
  571MOL0     H75361   8.305  10.325   7.491 -0.9426  0.1207  0.3093
  571MOL0     H75362   8.429  10.538   7.501  2.2984 -0.4611  0.8678
  571MOL0     H75363   8.427  10.494   7.674  1.8792  0.5468 -0.9995
  571MOL0     H75364   8.442  10.771   7.553  2.2913 -2.2207 -2.2278
  571MOL0     H75365   8.379  10.736   7.717 -0.2303 -0.0155 -0.2736
  571MOL0     H75366   8.652  10.675   7.606 -0.8703  2.6599 -1.0327
  571MOL0     H75367   8.592  10.610   7.760  0.2744  2.3815  3.3370
  571MOL0     H75368   8.553  10.860   7.810 -0.0953  0.0991 -0.0394
  571MOL0     H75369   8.714  10.792   7.828  2.8338  0.3571 -1.6675
  571MOL0     H75370   8.788  11.103   7.547 -4.5191  0.8960 -3.2265
  571MOL0     H75371   7.999  10.624   7.579 -0.0025 -0.3236  0.3665
  571MOL0     H75372   7.835  10.470   7.484 -0.1816 -0.2463  0.6554
  572MOL0     O75373   4.449   9.823   3.427 -0.5757  0.9750 -0.5528
  572MOL0     C75374   4.453   9.945   3.445 -0.2683  1.0501  0.0411
  572MOL0     O75375   4.359  10.023   3.507 -0.2598 -0.2885  0.0406
  572MOL0     C75376   4.267   9.950   3.581  0.2996  0.3007 -0.2517
  572MOL0     C75377   4.280   9.951   3.719  0.6761 -0.9765 -0.6143
  572MOL0     C75378   4.166   9.914   3.796  1.1495 -0.3674 -0.1341
  572MOL0     C75379   4.052   9.866   3.742 -0.2488  1.2816  1.1756
  572MOL0     O75380   3.949   9.817   3.826  0.2857  0.1153 -0.2178
  572MOL0     C75381   3.936   9.877   3.948 -0.3048 -0.4450  0.1729
  572MOL0     C75382   3.799   9.842   4.007  0.3606 -0.2192 -0.1019
  572MOL0     C75383   3.769   9.906   4.140  0.1023 -0.9746 -0.3875
  572MOL0     C75384   3.657   9.833   4.218 -1.0983 -0.4322 -0.0429
  572MOL0     C75385   3.580   9.932   4.311 -0.0912 -0.7109  0.0463
  572MOL0     C75386   3.670   9.980   4.427  0.7943  0.2995 -0.3893
  572MOL0     C75387   3.669  10.132   4.456  0.1338  0.0820  0.7220
  572MOL0     C75388   3.560  10.176   4.548  0.3252  0.3278  0.2409
  572MOL0     N75389   3.418  10.166   4.494 -0.4764  0.3327  0.3802
  572MOL0     C75390   3.315  10.165   4.584  0.1838  0.1344  0.5692
  572MOL0     C75391   3.206  10.183   4.505 -0.3297 -0.3175 -0.2375
  572MOL0     C75392   3.073  10.197   4.569 -0.1296 -0.1875  0.3557
  572MOL0     C75393   2.988  10.082   4.538  0.5836  0.2740  0.1891
  572MOL0     C75394   2.845  10.132   4.569 -0.9857 -0.3840  0.0895
  572MOL0     C75395   2.740  10.037   4.532  0.0094  0.3582 -0.1410
  572MOL0     O75396   2.610  10.092   4.567 -0.0648  0.0742 -0.2393
  572MOL0     C75397   2.501  10.017   4.514 -1.1693 -0.2759  0.7145
  572MOL0     C75398   2.379  10.085   4.516  0.4206  1.1695 -0.0787
  572MOL0     C75399   2.262  10.024   4.475 -1.0449  0.0915 -0.1212
  572MOL0     C75400   2.265   9.898   4.416 -0.1059  0.0591 -1.4848
  572MOL0     C75401   2.138   9.826   4.385  1.0983 -0.2343 -0.0525
  572MOL0     O75402   2.035   9.854   4.466 -0.0719  0.2490  0.6688
  572MOL0     C75403   1.918   9.774   4.473 -1.0353 -0.4162 -0.0548
  572MOL0     C75404   1.910   9.636   4.440 -0.3869 -0.2739  0.5472
  572MOL0     C75405   1.796   9.565   4.459  1.2288 -0.3920  0.2430
  572MOL0     C75406   1.685   9.620   4.518 -0.3285 -0.9136  0.7502
  572MOL0     O75407   1.566   9.557   4.535  0.0018  0.4534  0.4789
  572MOL0     C75408   1.517   9.457   4.446  0.0722  0.3014 -0.2217
  572MOL0     C75409   1.377   9.402   4.499 -0.1418  0.6199  0.4031
  572MOL0     C75410   1.265   9.503   4.496  0.9053 -0.5825 -0.3061
  572MOL0     C75411   1.126   9.434   4.520 -1.1232 -0.6768  0.4689
  572MOL0     C75412   0.996   9.519   4.497 -0.2697 -0.2666 -0.2845
  572MOL0     C75413   0.991   9.644   4.584 -0.6097 -0.3045  0.0875
  572MOL0     C75414   0.854   9.704   4.563 -0.1178  0.2347 -0.2185
  572MOL0     C75415   0.824   9.837   4.633  0.0118 -0.6669 -0.0538
  572MOL0    Cl75416   0.650   9.845   4.715 -0.0732 -0.1493  0.0302
  572MOL0     C75417   1.702   9.755   4.557 -0.2718  0.2542  0.7362
  572MOL0     C75418   1.814   9.836   4.529  0.0408  0.3015 -0.1337
  572MOL0     O75419   2.136   9.746   4.294 -0.4171 -0.3594  0.1361
  572MOL0     C75420   2.387   9.834   4.415 -0.1311 -0.0151  0.3051
  572MOL0     C75421   2.502   9.887   4.468 -0.4834 -0.1596  0.0538
  572MOL0     N75422   3.246  10.182   4.372 -1.2028  0.1855  0.0082
  572MOL0     N75423   3.381  10.187   4.365 -0.7051 -0.1264  0.3944
  572MOL0     C75424   4.055   9.845   3.602  0.2382  1.3105 -0.4246
  572MOL0     C75425   4.153   9.893   3.519 -0.6172 -1.0802  1.0233
  572MOL0     C75426   4.578  10.011   3.401  0.0213 -0.3341 -0.2117
  572MOL0     C75427   4.587  10.150   3.414 -0.0549 -0.4499  0.5703
  572MOL0     C75428   4.711  10.209   3.385  0.0607  0.2626 -0.2411
  572MOL0     C75429   4.824  10.141   3.350 -0.5257 -0.3611 -0.3385
  572MOL0     O75430   4.937  10.226   3.344  0.2828  0.5733  0.1161
  572MOL0     C75431   5.066  10.168   3.336  0.9176  0.6444  0.0301
  572MOL0     C75432   5.154  10.292   3.324  0.5231 -0.1017  0.6785
  572MOL0     C75433   5.289  10.244   3.278  0.0614  0.1106 -0.1542
  572MOL0     C75434   5.404  10.342   3.276 -0.6520  0.0961 -0.7038
  572MOL0     C75435   5.364  10.469   3.211  0.3235  0.3610 -0.0143
  572MOL0     C75436   5.321  10.574   3.166 -0.6874  0.0711 -0.0041
  572MOL0     C75437   4.814  10.001   3.338 -1.0029  0.9293 -0.5022
  572MOL0     C75438   4.688   9.942   3.351  0.4135  0.3420 -0.0593
  572MOL0     H75439   4.367   9.978   3.777 -0.0238  1.5823 -0.6009
  572MOL0     H75440   4.181   9.924   3.903 -0.5992  1.3303  0.0140
  572MOL0     H75441   3.943   9.985   3.935  1.0236 -0.7809 -2.6917
  572MOL0     H75442   4.013   9.839   4.015  1.9304 -1.1124 -2.5851
  572MOL0     H75443   3.803   9.734   4.025  2.7069 -0.4812 -1.7003
  572MOL0     H75444   3.719   9.870   3.938  0.9404  0.1325 -0.6494
  572MOL0     H75445   3.751  10.013   4.125  0.5916 -0.8016  0.1928
  572MOL0     H75446   3.859   9.904   4.201 -0.8434  0.8884  1.1816
  572MOL0     H75447   3.597   9.768   4.153 -2.3364 -0.4947  1.1212
  572MOL0     H75448   3.712   9.768   4.286  0.9780  0.5003 -0.7325
  572MOL0     H75449   3.494   9.877   4.349 -0.0428 -0.1053  1.0426
  572MOL0     H75450   3.535  10.014   4.254 -0.0045 -1.5035 -1.2082
  572MOL0     H75451   3.777   9.958   4.413  1.1842  1.8994 -0.0925
  572MOL0     H75452   3.633   9.937   4.520 -0.8450  1.0483 -0.6723
  572MOL0     H75453   3.759  10.149   4.516 -0.1434  1.3765  0.8088
  572MOL0     H75454   3.672  10.194   4.366  1.2323 -1.3560 -0.2799
  572MOL0     H75455   3.582  10.280   4.571 -0.0234  2.0024 -5.4408
  572MOL0     H75456   3.569  10.105   4.631 -0.0302  0.3056  0.2613
  572MOL0     H75457   3.326  10.178   4.691 -1.4206  2.9886  0.4964
  572MOL0     H75458   3.030  10.289   4.529 -2.7095 -0.9330  1.2304
  572MOL0     H75459   3.085  10.199   4.678  0.6824 -1.6167  0.3105
  572MOL0     H75460   3.015  10.002   4.607 -0.3259  0.2911  0.5737
  572MOL0     H75461   2.999  10.053   4.433 -1.2861 -0.1535  0.0879
  572MOL0     H75462   2.834  10.149   4.677  0.5099 -2.1041  0.5531
  572MOL0     H75463   2.829  10.224   4.512 -0.3831  1.4865  2.7574
  572MOL0     H75464   2.758   9.943   4.586  0.7726 -0.2897 -1.4632
  572MOL0     H75465   2.755  10.019   4.426  1.4325 -0.7933  0.2284
  572MOL0     H75466   2.368  10.184   4.561 -1.6176  0.6771  0.6057
  572MOL0     H75467   2.170  10.082   4.480 -1.0903 -0.0548  1.1282
  572MOL0     H75468   2.002   9.585   4.415 -0.6385  0.0056 -1.0816
  572MOL0     H75469   1.804   9.462   4.426  0.6228 -1.2792  2.6064
  572MOL0     H75470   1.592   9.379   4.437  1.1745  1.3433 -0.3099
  572MOL0     H75471   1.518   9.505   4.348  0.7216 -1.4139 -1.0815
  572MOL0     H75472   1.396   9.352   4.594 -2.7714 -0.6456  0.3364
  572MOL0     H75473   1.345   9.322   4.432 -0.0087  0.1109  0.9404
  572MOL0     H75474   1.260   9.544   4.395  0.4061  0.6115  0.1794
  572MOL0     H75475   1.281   9.579   4.573  0.9236  1.3236 -2.0940
  572MOL0     H75476   1.121   9.361   4.439 -0.2417 -0.3002  0.0483
  572MOL0     H75477   1.124   9.381   4.616  0.3282 -1.4040  0.1321
  572MOL0     H75478   0.904   9.464   4.518  1.7972 -3.4508  1.1972
  572MOL0     H75479   1.004   9.549   4.392  1.1601  2.5424  0.5357
  572MOL0     H75480   1.068   9.715   4.552 -0.6919 -0.6659 -0.9588
  572MOL0     H75481   1.013   9.613   4.687 -0.6863  2.2395  0.9347
  572MOL0     H75482   0.827   9.714   4.457  1.5472  1.0771 -0.6025
  572MOL0     H75483   0.780   9.630   4.594 -0.8832  1.6056  1.3540
  572MOL0     H75484   0.831   9.915   4.557 -0.4122 -0.3850  0.1952
  572MOL0     H75485   0.901   9.871   4.702 -0.0841 -2.3375  0.9321
  572MOL0     H75486   1.622   9.797   4.616  0.1815  0.1529  1.4342
  572MOL0     H75487   1.806   9.939   4.561 -0.1070 -0.5275  2.7608
  572MOL0     H75488   2.387   9.737   4.366  0.2671  0.5681 -0.8839
  572MOL0     H75489   2.592   9.826   4.464 -0.5572 -0.4045  1.6943
  572MOL0     H75490   3.973   9.793   3.553  0.2323  0.6404  0.2876
  572MOL0     H75491   4.149   9.890   3.410 -1.4136  2.3041  0.8553
  572MOL0     H75492   4.491  10.199   3.428  0.7094  1.0444  0.7926
  572MOL0     H75493   4.721  10.317   3.391 -1.9355  0.5999 -1.7920
  572MOL0     H75494   5.073  10.097   3.254  1.5064 -0.3246  0.8916
  572MOL0     H75495   5.091  10.109   3.425 -0.6029 -0.3075 -0.1418
  572MOL0     H75496   5.110  10.369   3.259  0.8275 -0.4639  0.0369
  572MOL0     H75497   5.178  10.334   3.422  1.3447 -4.2918  2.4653
  572MOL0     H75498   5.278  10.208   3.175  0.6318 -2.2552  0.5300
  572MOL0     H75499   5.318  10.146   3.319  3.1856  0.7868 -0.4759
  572MOL0     H75500   5.442  10.363   3.377  0.7862 -0.6883 -1.0515
  572MOL0     H75501   5.494  10.304   3.226 -1.0343  1.2307 -2.3358
  572MOL0     H75502   5.289  10.663   3.116 -0.8948  0.9069  1.5297
  572MOL0     H75503   4.897   9.937   3.312  0.0937  1.4090  1.6343
  572MOL0     H75504   4.681   9.835   3.338  0.6142  0.2283  0.7097
  573MOL0     O75505   6.245   1.529  10.781  0.2188 -0.4849 -0.1542
  573MOL0     C75506   6.315   1.447  10.721  0.5467  0.0021 -0.9936
  573MOL0     O75507   6.278   1.362  10.623  0.1794 -0.0003  0.4532
  573MOL0     C75508   6.146   1.345  10.594  0.2177  0.4238 -0.2708
  573MOL0     C75509   6.116   1.337  10.459  0.3623  0.7309 -0.0183
  573MOL0     C75510   5.986   1.322  10.416  0.3360 -0.0966  0.0874
  573MOL0     C75511   5.873   1.333  10.498 -0.6249 -0.1584 -0.4404
  573MOL0     O75512   5.739   1.334  10.465 -0.5282  0.0848 -0.2178
  573MOL0     C75513   5.693   1.301  10.327  0.7758  0.1021  0.3468
  573MOL0     C75514   5.534   1.302  10.328  0.2362 -0.2324  0.0988
  573MOL0     C75515   5.459   1.184  10.402 -0.1770  0.0166  0.5435
  573MOL0     C75516   5.310   1.178  10.380 -0.1845  0.1431  0.0565
  573MOL0     C75517   5.245   1.042  10.434  0.2158 -0.0026 -0.0575
  573MOL0     C75518   5.101   1.055  10.476  0.3210  0.1825  0.2470
  573MOL0     C75519   5.035   0.919  10.470  0.1349  0.2129  0.2178
  573MOL0     C75520   4.890   0.915  10.512  0.7200 -0.3106 -0.7857
  573MOL0     N75521   4.857   0.771  10.508 -0.3908 -0.5271  0.4467
  573MOL0     C75522   4.844   0.683  10.607 -0.0959  0.5471 -0.0573
  573MOL0     C75523   4.817   0.566  10.547 -0.0084  0.3857  0.3470
  573MOL0     C75524   4.759   0.444  10.609  0.1014  0.2148 -0.3131
  573MOL0     C75525   4.607   0.435  10.630  0.1036 -0.1081 -0.0056
  573MOL0     C75526   4.519   0.497  10.526  0.3019  0.6342  0.0546
  573MOL0     C75527   4.519   0.412  10.402  0.4466 -0.2935  0.1021
  573MOL0     O75528   4.486   0.275  10.432  0.0899 -0.5964  0.0822
  573MOL0     C75529   4.353   0.250  10.424 -0.2447  0.1504  0.0236
  573MOL0     C75530   4.307   0.204  10.300  0.3609  0.2788  0.8352
  573MOL0     C75531   4.169   0.167  10.276 -0.3844 -0.0615 -0.1771
  573MOL0     C75532   4.083   0.174  10.388 -0.0722 -0.1945  0.2272
  573MOL0     C75533   3.936   0.150  10.376 -0.5457  0.1564  0.5101
  573MOL0     O75534   3.867   0.121  10.492  0.4982  0.3955  0.5905
  573MOL0     C75535   3.735   0.097  10.469 -1.0282  1.0011 -0.2888
  573MOL0     C75536   3.653   0.208  10.458  0.0379 -0.2697  0.9868
  573MOL0     C75537   3.521   0.200  10.415 -0.1454  0.3402 -0.9074
  573MOL0     C75538   3.474   0.073  10.384  0.4817  0.4903 -0.0634
  573MOL0     O75539   3.341   0.059  10.363 -0.2336 -0.0115  0.0865
  573MOL0     C75540   3.310   0.080  10.223  0.0060 -0.9293  0.6464
  573MOL0     C75541   3.157   0.120  10.203 -0.7316 -0.2288  0.2534
  573MOL0     C75542   3.056   0.013  10.247 -0.7064  0.4717 -0.2261
  573MOL0     C75543   2.922   0.027  10.175 -0.2165 -0.3166 -0.1735
  573MOL0     C75544   2.815  -0.044  10.260  0.7379 -0.7600 -0.6528
  573MOL0     C75545   2.667  -0.031  10.203  0.8330  0.8408  0.5597
  573MOL0     C75546   2.646  -0.051  10.052 -0.1356 -0.1558 -0.0283
  573MOL0     C75547   2.514   0.003   9.995  0.8658  0.6399 -0.4656
  573MOL0    Cl75548   2.363  -0.075  10.057  0.0138  0.1187  0.2581
  573MOL0     C75549   3.550  -0.045  10.403  0.1753 -0.0351  0.0321
  573MOL0     C75550   3.685  -0.034  10.446  0.4816  0.9972 -0.4071
  573MOL0     O75551   3.895   0.147  10.260  0.5144 -0.0984 -0.0105
  573MOL0     C75552   4.128   0.222  10.513 -0.4112 -0.0768 -0.2977
  573MOL0     C75553   4.262   0.257  10.530 -0.9352  0.6397 -0.1676
  573MOL0     N75554   4.827   0.586  10.411  0.6746  0.1129  0.0135
  573MOL0     N75555   4.837   0.706  10.387  0.3719 -0.2026 -0.2367
  573MOL0     C75556   5.907   1.331  10.629  0.0572  0.0429  0.0393
  573MOL0     C75557   6.038   1.332  10.684 -0.7724 -0.9418  0.3494
  573MOL0     C75558   6.451   1.428  10.770 -0.0974  0.4996  0.0633
  573MOL0     C75559   6.552   1.373  10.690 -0.3313  1.1898  0.1028
  573MOL0     C75560   6.680   1.356  10.738 -0.9515  0.3462  0.3780
  573MOL0     C75561   6.708   1.396  10.877  0.0758  0.5010 -0.6410
  573MOL0     O75562   6.827   1.393  10.941  0.0356  0.0181  0.3559
  573MOL0     C75563   6.950   1.361  10.862  0.6085  0.1087  0.1476
  573MOL0     C75564   7.077   1.418  10.917 -0.0246  0.5031 -0.6533
  573MOL0     C75565   7.093   1.387  11.067 -0.6789  0.3729 -0.5011
  573MOL0     C75566   7.226   1.433  11.122  0.2620  0.7368  0.3730
  573MOL0     C75567   7.260   1.380  11.252  1.0949  0.2847 -0.9021
  573MOL0     C75568   7.286   1.323  11.358 -0.6306 -0.5086 -0.6489
  573MOL0     C75569   6.605   1.448  10.950  0.7917 -0.2028 -0.1356
  573MOL0     C75570   6.480   1.451  10.900 -0.1683 -0.0818  0.8823
  573MOL0     H75571   6.194   1.334  10.383 -1.3188 -3.0167 -1.9156
  573MOL0     H75572   5.958   1.324  10.311  0.7705 -0.0198 -0.0292
  573MOL0     H75573   5.729   1.201  10.301  0.3817 -0.1940  0.9231
  573MOL0     H75574   5.731   1.370  10.251  3.6184 -1.9359 -0.2046
  573MOL0     H75575   5.497   1.294  10.225 -0.4181  1.9126  0.1166
  573MOL0     H75576   5.507   1.403  10.360 -0.2181 -0.8111  1.5735
  573MOL0     H75577   5.483   1.189  10.508  1.9847 -2.1833  0.2424
  573MOL0     H75578   5.495   1.095  10.350  1.3883  0.7483  0.3080
  573MOL0     H75579   5.270   1.257  10.446  1.1478 -1.1818  2.6141
  573MOL0     H75580   5.279   1.200  10.278  0.3084 -1.1105 -0.3814
  573MOL0     H75581   5.310   1.003  10.512 -0.8884  1.5246  1.7359
  573MOL0     H75582   5.247   0.967  10.355  1.9224 -0.1457  0.0989
  573MOL0     H75583   5.049   1.129  10.414  0.3582  0.6782  0.8030
  573MOL0     H75584   5.098   1.102  10.575 -1.6983  4.1750 -1.4710
  573MOL0     H75585   5.026   0.888  10.365 -0.8093 -0.0872  0.3790
  573MOL0     H75586   5.096   0.844  10.522  2.0217  0.5528 -1.3838
  573MOL0     H75587   4.822   0.976  10.451 -0.3675 -0.0734  0.5929
  573MOL0     H75588   4.881   0.943  10.618 -0.3123  0.8133 -1.1384
  573MOL0     H75589   4.835   0.695  10.714  2.6366 -3.0135  0.7501
  573MOL0     H75590   4.809   0.415  10.702 -1.8110 -1.9087  0.1532
  573MOL0     H75591   4.780   0.359  10.544 -2.2321 -1.0429  0.4523
  573MOL0     H75592   4.589   0.504  10.714  1.3425  0.4396 -0.1698
  573MOL0     H75593   4.573   0.337  10.664  0.4547  0.0396  0.8062
  573MOL0     H75594   4.416   0.502  10.562 -1.3587 -2.1880 -3.6935
  573MOL0     H75595   4.557   0.596  10.498  2.5259 -0.1044  0.2630
  573MOL0     H75596   4.615   0.413  10.350  1.1990  2.5261  1.3791
  573MOL0     H75597   4.447   0.464  10.338 -1.4308 -0.8121  1.7072
  573MOL0     H75598   4.379   0.186  10.221 -1.3503 -2.9939 -0.1673
  573MOL0     H75599   4.143   0.125  10.179  2.5795  0.1491 -1.1610
  573MOL0     H75600   3.697   0.306  10.474 -1.0336  0.4800 -0.3806
  573MOL0     H75601   3.453   0.283  10.404 -0.8754 -0.3353 -1.6905
  573MOL0     H75602   3.326  -0.012  10.166 -0.4157 -1.3931  1.2540
  573MOL0     H75603   3.364   0.168  10.187 -0.6564 -0.8534 -0.2030
  573MOL0     H75604   3.141   0.120  10.095 -0.8077 -1.0916  0.2628
  573MOL0     H75605   3.140   0.218  10.250 -0.2002  0.3103 -0.6421
  573MOL0     H75606   3.048   0.008  10.356  2.1112 -4.0962  0.0367
  573MOL0     H75607   3.104  -0.081  10.220  4.1959  2.9855 -1.3754
  573MOL0     H75608   2.889   0.131  10.172 -1.4148 -0.6705  0.1157
  573MOL0     H75609   2.929  -0.008  10.072  3.0388 -1.0331  0.1942
  573MOL0     H75610   2.814   0.008  10.356 -2.0686  1.0705 -1.5279
  573MOL0     H75611   2.842  -0.150  10.267  0.8108 -0.6691  0.7220
  573MOL0     H75612   2.632   0.072  10.217 -0.6119  0.5212 -0.4440
  573MOL0     H75613   2.596  -0.094  10.257  0.4586 -0.4090 -1.2987
  573MOL0     H75614   2.723  -0.002   9.992 -2.6760  0.8288 -2.7626
  573MOL0     H75615   2.656  -0.158  10.033  0.8934  0.0283 -0.6108
  573MOL0     H75616   2.518  -0.023   9.889  0.7305 -0.4701 -0.2112
  573MOL0     H75617   2.497   0.110  10.009 -1.4610  0.0572  2.2168
  573MOL0     H75618   3.498  -0.139  10.393 -1.1490  0.3703  2.3051
  573MOL0     H75619   3.749  -0.121  10.449  0.1429  0.7571  1.0455
  573MOL0     H75620   4.069   0.217  10.604 -0.7299  2.1799 -0.3320
  573MOL0     H75621   4.289   0.284  10.631  1.6908 -0.5548 -0.4797
  573MOL0     H75622   5.830   1.334  10.705  1.3417  0.5687  1.3704
  573MOL0     H75623   6.054   1.349  10.790 -1.3782 -0.3859  0.3534
  573MOL0     H75624   6.550   1.339  10.587  1.0460 -1.0275  0.7350
  573MOL0     H75625   6.763   1.331  10.673 -0.1787  1.3592  0.9375
  573MOL0     H75626   6.945   1.389  10.757 -0.0385 -0.5781 -0.0134
  573MOL0     H75627   6.973   1.254  10.870  1.5757  0.4092  1.9535
  573MOL0     H75628   7.159   1.381  10.855  0.6282  1.4980 -0.4163
  573MOL0     H75629   7.067   1.525  10.897  0.9043  0.2291 -2.7908
  573MOL0     H75630   7.088   1.280  11.087  2.3551  0.2562  0.1398
  573MOL0     H75631   7.015   1.440  11.123  0.1587  1.1560 -0.0453
  573MOL0     H75632   7.297   1.416  11.041  0.7270  0.4475  0.8334
  573MOL0     H75633   7.216   1.539  11.146 -0.9890  0.6255  0.3857
  573MOL0     H75634   7.306   1.257  11.440 -0.1818  0.4220 -0.0044
  573MOL0     H75635   6.613   1.487  11.051  0.6283  0.8586 -0.5153
  573MOL0     H75636   6.405   1.482  10.972 -0.0187 -0.9163  1.4147
  574MOL0     O75637   7.805   2.817   2.250 -0.1508  0.4140 -0.1844
  574MOL0     C75638   7.815   2.884   2.147 -0.2827 -0.0805  0.5786
  574MOL0     O75639   7.709   2.943   2.081 -0.2455 -0.7926  0.3444
  574MOL0     C75640   7.573   2.940   2.121 -0.5768 -0.0321  0.2861
  574MOL0     C75641   7.491   2.993   2.025  0.0219 -0.7355  0.5674
  574MOL0     C75642   7.354   2.986   2.043  0.1745 -0.2367 -1.0336
  574MOL0     C75643   7.292   2.945   2.162 -0.1117 -0.2564  0.0947
  574MOL0     O75644   7.154   2.945   2.169 -0.5071  0.5164  0.4579
  574MOL0     C75645   7.087   2.894   2.284 -0.1747  0.9834 -0.0114
  574MOL0     C75646   6.941   2.932   2.275  0.1592  0.1353 -0.6552
  574MOL0     C75647   6.922   3.080   2.263  0.7712  0.6170  0.0690
  574MOL0     C75648   6.783   3.129   2.280  1.2703 -0.1240 -0.8292
  574MOL0     C75649   6.660   3.043   2.218  0.5039 -0.3190  0.4263
  574MOL0     C75650   6.645   3.073   2.069 -0.5234  0.6842 -0.1376
  574MOL0     C75651   6.497   3.053   2.021  0.2299  0.2782  0.5411
  574MOL0     C75652   6.505   3.031   1.865  0.2586  0.1748 -0.2668
  574MOL0     N75653   6.384   3.051   1.785  0.0078 -0.3275 -0.3135
  574MOL0     C75654   6.299   2.952   1.742 -0.2773 -0.0369 -0.8403
  574MOL0     C75655   6.202   3.013   1.670  0.2839 -0.9750 -0.3053
  574MOL0     C75656   6.084   2.957   1.613 -0.5542  0.1069 -0.3702
  574MOL0     C75657   5.977   3.068   1.586  0.0176  0.5136 -0.2546
  574MOL0     C75658   5.835   3.013   1.601  0.4008 -0.5382  0.0085
  574MOL0     C75659   5.810   2.971   1.747  0.6100 -0.2851  0.0832
  574MOL0     O75660   5.667   2.960   1.762  0.2328 -0.4018 -0.2335
  574MOL0     C75661   5.612   2.835   1.726  0.6588 -0.6736 -0.4604
  574MOL0     C75662   5.474   2.837   1.693 -0.5836  0.7620  1.1360
  574MOL0     C75663   5.409   2.719   1.660 -0.1344 -0.0166  0.8862
  574MOL0     C75664   5.488   2.597   1.641 -0.4815  0.0522 -0.1650
  574MOL0     C75665   5.431   2.473   1.599 -0.6744  0.3642  0.8784
  574MOL0     O75666   5.321   2.489   1.526  0.0726 -0.2394 -0.1806
  574MOL0     C75667   5.267   2.382   1.463 -0.3757 -0.4810  0.2250
  574MOL0     C75668   5.329   2.299   1.371  0.0821  0.5506  0.2555
  574MOL0     C75669   5.253   2.205   1.302 -1.5347  0.5378  0.0744
  574MOL0     C75670   5.123   2.169   1.323  0.9094 -0.7645  0.4328
  574MOL0     O75671   5.053   2.073   1.256 -0.4442  0.1381 -0.5428
  574MOL0     C75672   5.134   1.972   1.187  1.0494  0.3187 -0.2764
  574MOL0     C75673   5.037   1.856   1.134 -0.1162  0.7697 -0.6900
  574MOL0     C75674   4.930   1.910   1.052  0.1938 -0.1822 -0.1195
  574MOL0     C75675   4.832   1.807   0.998 -0.2169  0.1484  0.3881
  574MOL0     C75676   4.746   1.854   0.881 -0.7445  0.4803 -0.1973
  574MOL0     C75677   4.651   1.749   0.824 -0.0856  0.5904 -0.0482
  574MOL0     C75678   4.584   1.806   0.692 -0.2512  0.3764  0.1682
  574MOL0     C75679   4.474   1.717   0.655  0.6371  0.0155  0.3506
  574MOL0    Cl75680   4.398   1.789   0.512 -0.3107  0.4071 -0.0148
  574MOL0     C75681   5.065   2.256   1.422  0.7887  0.0194 -0.6905
  574MOL0     C75682   5.129   2.363   1.482  0.6004  0.4302 -0.5071
  574MOL0     O75683   5.493   2.366   1.614 -0.5713 -0.0567  0.2763
  574MOL0     C75684   5.626   2.600   1.666 -0.8807 -0.8078  0.3124
  574MOL0     C75685   5.685   2.715   1.716 -0.1518 -0.2932  1.1592
  574MOL0     N75686   6.239   3.148   1.655  0.0703 -0.2928  0.1960
  574MOL0     N75687   6.341   3.170   1.729 -0.5589 -0.0030 -0.2209
  574MOL0     C75688   7.377   2.896   2.259 -0.4954 -0.1735 -0.0361
  574MOL0     C75689   7.514   2.885   2.238 -0.2443 -0.2763  0.2976
  574MOL0     C75690   7.941   2.889   2.073 -0.0859  0.9036 -0.2552
  574MOL0     C75691   7.963   2.968   1.957  0.0743 -0.4584  0.2167
  574MOL0     C75692   8.090   2.976   1.896  0.5955 -0.1709 -0.5314
  574MOL0     C75693   8.199   2.893   1.940  0.6615 -0.4473 -0.6094
  574MOL0     O75694   8.320   2.899   1.874  0.4408  0.0100  0.2130
  574MOL0     C75695   8.428   2.827   1.929 -0.8536 -0.0842 -0.0066
  574MOL0     C75696   8.560   2.835   1.851  0.3851 -0.2970  0.2757
  574MOL0     C75697   8.658   2.957   1.878 -0.3013  0.4252 -0.1652
  574MOL0     C75698   8.786   2.938   1.777 -0.1237  0.0060  0.5585
  574MOL0     C75699   8.767   2.955   1.632  1.1558  1.0707  0.2618
  574MOL0     C75700   8.737   2.959   1.513  0.5564 -0.3756  0.2589
  574MOL0     C75701   8.173   2.813   2.050  0.2794  0.1587  0.9734
  574MOL0     C75702   8.051   2.811   2.119 -0.2053  0.2849 -0.3881
  574MOL0     H75703   7.530   3.041   1.936 -1.3244 -0.8472 -0.1140
  574MOL0     H75704   7.290   3.027   1.965 -0.9256 -0.9492 -0.5182
  574MOL0     H75705   7.142   2.927   2.373  0.8672  0.5297 -0.4704
  574MOL0     H75706   7.092   2.785   2.277 -0.4503  1.0659 -3.1604
  574MOL0     H75707   6.897   2.914   2.373  1.8511  0.7391  0.2700
  574MOL0     H75708   6.888   2.882   2.193  1.1027 -2.0459 -0.0064
  574MOL0     H75709   6.948   3.103   2.160  0.7974 -2.4276 -0.7237
  574MOL0     H75710   6.977   3.144   2.332 -0.3700  0.2924  1.3320
  574MOL0     H75711   6.772   3.162   2.383 -1.1745  1.7408 -1.6022
  574MOL0     H75712   6.780   3.223   2.223  1.3879  0.6489  0.4082
  574MOL0     H75713   6.571   3.062   2.279 -0.2038 -0.2150 -0.6162
  574MOL0     H75714   6.673   2.936   2.236  0.2683 -0.3809  0.2351
  574MOL0     H75715   6.705   2.997   2.018 -2.8355 -2.3443  1.2694
  574MOL0     H75716   6.667   3.172   2.029  2.3041 -0.7122 -2.4556
  574MOL0     H75717   6.459   2.968   2.078  4.1487 -1.6277  0.6576
  574MOL0     H75718   6.446   3.149   2.032  0.1543  0.3333 -0.2489
  574MOL0     H75719   6.543   2.930   1.844  1.5553  0.1423  1.9204
  574MOL0     H75720   6.577   3.105   1.827  1.3329 -1.4137 -1.5192
  574MOL0     H75721   6.311   2.846   1.761  2.3314  0.1570 -1.0420
  574MOL0     H75722   6.048   2.877   1.678  1.9619  0.3388  1.4896
  574MOL0     H75723   6.098   2.916   1.513 -2.3314  1.2765 -1.1585
  574MOL0     H75724   5.993   3.107   1.485 -0.4842  1.0154 -0.1463
  574MOL0     H75725   5.984   3.149   1.659 -2.7853 -0.7662  1.5927
  574MOL0     H75726   5.768   3.095   1.576  1.6241  0.9978  1.5605
  574MOL0     H75727   5.825   2.930   1.530  0.0369  0.6020 -1.3271
  574MOL0     H75728   5.842   3.055   1.810 -2.6433 -0.3173  2.0019
  574MOL0     H75729   5.872   2.886   1.778  0.0609 -0.6463  0.2026
  574MOL0     H75730   5.414   2.927   1.707 -0.7855  0.3588  3.2853
  574MOL0     H75731   5.301   2.731   1.653 -0.1165  3.6444  3.5122
  574MOL0     H75732   5.436   2.307   1.356  0.4406 -0.6707  1.8074
  574MOL0     H75733   5.305   2.145   1.227 -0.8604  0.5212  0.5440
  574MOL0     H75734   5.200   1.935   1.267 -2.1224 -1.9745  1.5085
  574MOL0     H75735   5.178   2.005   1.093 -1.4300  1.5746 -1.0804
  574MOL0     H75736   4.992   1.815   1.224 -0.8933  3.2514  0.1163
  574MOL0     H75737   5.088   1.784   1.068 -2.1099  0.1581 -1.6221
  574MOL0     H75738   4.977   1.959   0.966 -0.8617  1.2366  0.0676
  574MOL0     H75739   4.872   1.989   1.102  1.5412  0.7640  0.0137
  574MOL0     H75740   4.897   1.724   0.968  2.3089  2.1757 -0.2015
  574MOL0     H75741   4.761   1.775   1.075 -1.9432  3.2387  0.2345
  574MOL0     H75742   4.815   1.884   0.802 -3.0100 -0.6462 -2.7687
  574MOL0     H75743   4.690   1.943   0.909  0.9960  1.5673 -0.0143
  574MOL0     H75744   4.573   1.723   0.897  0.0939  2.2243  0.7618
  574MOL0     H75745   4.710   1.658   0.807  2.0422  1.7108  0.9612
  574MOL0     H75746   4.547   1.909   0.703  1.1096  0.8683  0.2736
  574MOL0     H75747   4.660   1.826   0.616  0.1219  1.0835  0.7076
  574MOL0     H75748   4.398   1.709   0.734 -0.2848 -2.5600 -0.6877
  574MOL0     H75749   4.504   1.620   0.615 -3.1283  0.4040 -4.2409
  574MOL0     H75750   4.964   2.221   1.443  1.7436 -2.5532  0.0777
  574MOL0     H75751   5.075   2.422   1.555  2.5714 -0.4254  1.7843
  574MOL0     H75752   5.702   2.522   1.671  2.7581  2.1595 -2.4928
  574MOL0     H75753   5.790   2.716   1.745 -0.3423  3.0673  2.2223
  574MOL0     H75754   7.337   2.850   2.349 -0.0157 -2.6763 -1.0149
  574MOL0     H75755   7.571   2.849   2.323  0.7902  0.4605 -0.0677
  574MOL0     H75756   7.889   3.039   1.919 -0.3774  0.9188  3.3198
  574MOL0     H75757   8.118   3.038   1.812 -1.2389  1.3224 -0.0954
  574MOL0     H75758   8.396   2.723   1.939 -0.3953  0.0001  3.5811
  574MOL0     H75759   8.448   2.863   2.030  0.5297 -0.5385 -0.0909
  574MOL0     H75760   8.615   2.742   1.867 -0.7393 -1.4089 -1.9531
  574MOL0     H75761   8.526   2.835   1.747 -0.7279  0.2431  0.6237
  574MOL0     H75762   8.698   2.954   1.980  0.8602 -0.6484 -0.6179
  574MOL0     H75763   8.610   3.052   1.855 -0.4394  0.5692  0.6827
  574MOL0     H75764   8.863   3.012   1.802 -0.5415  0.2220  1.2288
  574MOL0     H75765   8.839   2.846   1.798  1.3673  0.7608  0.2205
  574MOL0     H75766   8.712   2.986   1.413  0.4841  0.1534  0.4185
  574MOL0     H75767   8.247   2.750   2.099  1.5966  1.9132  1.3403
  574MOL0     H75768   8.032   2.744   2.202 -0.6749 -1.1732 -1.6139
  575MOL0     O75769   1.630   3.008   7.314 -0.1389 -0.3385  0.2836
  575MOL0     C75770   1.693   3.003   7.212  0.3024  0.4951 -0.3636
  575MOL0     O75771   1.636   3.007   7.087 -0.4826 -0.5207  0.1238
  575MOL0     C75772   1.506   3.038   7.070  0.3148 -0.3648  0.4393
  575MOL0     C75773   1.396   2.969   7.117  0.8027  0.6410  0.7556
  575MOL0     C75774   1.264   3.016   7.089 -0.0819  0.9871  0.6092
  575MOL0     C75775   1.255   3.134   7.006  0.3829  0.1932  0.0460
  575MOL0     O75776   1.120   3.168   6.987  0.2301 -0.8838  0.1081
  575MOL0     C75777   1.092   3.274   6.886  0.4356  0.5538  0.6153
  575MOL0     C75778   0.945   3.304   6.872 -0.4436 -0.5190  0.9363
  575MOL0     C75779   0.860   3.187   6.891  0.3977  1.4035  0.3906
  575MOL0     C75780   0.722   3.209   6.823  0.8288 -0.8151 -0.1261
  575MOL0     C75781   0.640   3.335   6.877 -0.0545 -0.0763  0.3773
  575MOL0     C75782   0.495   3.315   6.833  0.3483 -0.5638 -0.1360
  575MOL0     C75783   0.404   3.414   6.910 -0.1667 -0.3488 -0.1935
  575MOL0     C75784   0.251   3.400   6.870  0.1056 -0.3171  0.4119
  575MOL0     N75785   0.172   3.485   6.956 -0.0357 -0.1743 -0.0069
  575MOL0     C75786   0.092   3.453   7.061  0.5274 -0.0128 -0.2894
  575MOL0     C75787   0.023   3.567   7.089 -0.2978 -0.0052  0.2148
  575MOL0     C75788  -0.071   3.580   7.205  0.1828 -0.4827 -0.2033
  575MOL0     C75789  -0.162   3.702   7.194  0.1153 -0.2568 -0.9415
  575MOL0     C75790  -0.289   3.656   7.111 -0.7169  0.9250  0.9303
  575MOL0     C75791  -0.359   3.783   7.060 -0.0949 -0.6692 -0.5684
  575MOL0     O75792  -0.405   3.871   7.166 -0.4973  0.2184 -0.0200
  575MOL0     C75793  -0.519   3.852   7.240 -0.4690  0.1385  1.2783
  575MOL0     C75794  -0.568   3.955   7.324  0.6706 -0.1938 -0.1471
  575MOL0     C75795  -0.666   3.937   7.417 -0.4811 -0.2736  0.6466
  575MOL0     C75796  -0.745   3.821   7.405 -0.2067 -0.9049 -0.1294
  575MOL0     C75797  -0.856   3.806   7.496  0.6756 -0.4804 -0.5115
  575MOL0     O75798  -0.910   3.918   7.552 -0.1971 -0.0833 -0.0558
  575MOL0     C75799  -1.019   3.889   7.634 -0.0078  0.8778  0.3515
  575MOL0     C75800  -1.148   3.914   7.591  0.1942 -1.2147  0.2999
  575MOL0     C75801  -1.255   3.897   7.683 -0.5974 -0.2152 -0.8275
  575MOL0     C75802  -1.235   3.852   7.816  0.6136  0.1959  0.8974
  575MOL0     O75803  -1.350   3.851   7.891  0.0828 -0.9274  0.4946
  575MOL0     C75804  -1.336   3.903   8.022 -0.2879  0.7622  0.0925
  575MOL0     C75805  -1.471   3.877   8.085 -0.1789 -0.7678 -0.4315
  575MOL0     C75806  -1.477   3.890   8.238 -0.5210 -0.4779 -0.0692
  575MOL0     C75807  -1.598   3.830   8.311 -0.3692  0.5993  0.1896
  575MOL0     C75808  -1.721   3.912   8.286 -0.3277 -0.3087  0.1047
  575MOL0     C75809  -1.855   3.840   8.329  0.5623  0.5205  0.3345
  575MOL0     C75810  -1.960   3.943   8.371  0.3632 -0.4745  0.2665
  575MOL0     C75811  -2.088   3.879   8.408  0.1635  0.7563 -0.2542
  575MOL0    Cl75812  -2.154   3.804   8.262 -0.2189 -0.4557  0.2889
  575MOL0     C75813  -1.107   3.818   7.854 -0.5988 -0.0901  0.0395
  575MOL0     C75814  -1.005   3.841   7.758  0.1570 -1.3192 -1.1299
  575MOL0     O75815  -0.895   3.689   7.511 -0.5621  0.9170 -0.1839
  575MOL0     C75816  -0.721   3.731   7.303 -0.1586 -0.7062 -0.2771
  575MOL0     C75817  -0.608   3.747   7.221 -0.1253  0.2610  0.5633
  575MOL0     N75818   0.062   3.663   7.008  0.2056 -0.0770  0.0565
  575MOL0     N75819   0.148   3.613   6.929 -0.0263  0.0538  0.4582
  575MOL0     C75820   1.368   3.200   6.955 -0.0764 -0.2842  0.1890
  575MOL0     C75821   1.492   3.156   6.991  0.2325 -0.4587  0.1453
  575MOL0     C75822   1.841   2.986   7.218 -0.7212 -0.0187 -0.2123
  575MOL0     C75823   1.916   2.971   7.338 -0.6009  0.3352 -0.9672
  575MOL0     C75824   2.052   2.953   7.340 -0.1194 -0.6393  0.4677
  575MOL0     C75825   2.122   2.933   7.221  0.0788 -0.0340  0.3883
  575MOL0     O75826   2.256   2.919   7.236 -0.0726 -0.5265  0.2726
  575MOL0     C75827   2.353   2.900   7.129 -0.0991  0.0206 -0.2450
  575MOL0     C75828   2.428   3.017   7.083 -0.2466 -0.6402  0.1558
  575MOL0     C75829   2.501   2.979   6.956 -1.0370 -0.5691 -0.2900
  575MOL0     C75830   2.622   3.069   6.929 -0.1845 -0.0887  0.6024
  575MOL0     C75831   2.741   3.050   7.013 -0.0407  0.1715 -0.0323
  575MOL0     C75832   2.826   3.022   7.099  0.2621  0.6604  0.3746
  575MOL0     C75833   2.054   2.957   7.099  0.0684  1.0314 -0.9164
  575MOL0     C75834   1.914   2.989   7.105 -0.2480  0.1976 -0.4185
  575MOL0     H75835   1.414   2.884   7.182  0.3796 -0.7914 -0.9157
  575MOL0     H75836   1.178   2.976   7.142 -0.5178  1.5571  0.3381
  575MOL0     H75837   1.140   3.259   6.789 -1.4331  0.3266 -0.3051
  575MOL0     H75838   1.128   3.369   6.929  1.0971  0.3606  0.4976
  575MOL0     H75839   0.921   3.347   6.774  1.7101 -2.1809 -0.4078
  575MOL0     H75840   0.912   3.380   6.944  1.9839  3.7768 -2.0431
  575MOL0     H75841   0.854   3.156   6.996 -0.3888  1.4989  0.3764
  575MOL0     H75842   0.906   3.101   6.842 -0.0798  0.7153  1.1348
  575MOL0     H75843   0.724   3.213   6.714 -1.1752 -0.5751 -0.1951
  575MOL0     H75844   0.661   3.120   6.842  2.5752 -2.0389 -0.0416
  575MOL0     H75845   0.680   3.427   6.834 -1.8070  0.6120  0.1017
  575MOL0     H75846   0.650   3.336   6.986  2.1429 -0.7278  0.2367
  575MOL0     H75847   0.462   3.215   6.863 -1.2320 -0.7699 -2.2617
  575MOL0     H75848   0.491   3.317   6.724  0.2282  0.5476 -0.1277
  575MOL0     H75849   0.420   3.402   7.017  0.0805 -0.1028 -0.2016
  575MOL0     H75850   0.433   3.518   6.896 -0.7563 -0.1956 -0.2669
  575MOL0     H75851   0.218   3.296   6.876 -0.9779 -0.0369 -0.4358
  575MOL0     H75852   0.231   3.433   6.768  1.4605 -0.6878 -0.0027
  575MOL0     H75853   0.073   3.356   7.106 -0.0006  0.6394  0.9404
  575MOL0     H75854  -0.006   3.590   7.292 -0.4236 -1.5925  0.4030
  575MOL0     H75855  -0.120   3.486   7.232 -0.8508  0.5371  1.6479
  575MOL0     H75856  -0.117   3.791   7.149 -1.1626  1.4665  1.0627
  575MOL0     H75857  -0.191   3.735   7.294 -2.9895 -1.9909 -1.1423
  575MOL0     H75858  -0.263   3.588   7.029 -1.9852  0.5497  0.8041
  575MOL0     H75859  -0.354   3.595   7.175  0.7655 -1.0722  0.6279
  575MOL0     H75860  -0.443   3.754   6.997 -1.3385  2.0658 -0.3318
  575MOL0     H75861  -0.297   3.859   7.011 -0.5440  1.3670  1.8201
  575MOL0     H75862  -0.505   4.043   7.335 -1.5071  1.3318  0.8055
  575MOL0     H75863  -0.674   4.016   7.491  2.8623  2.1419 -1.2766
  575MOL0     H75864  -1.155   3.967   7.496  0.7083  0.6621  1.2797
  575MOL0     H75865  -1.347   3.938   7.642 -0.8331 -0.3731 -0.4598
  575MOL0     H75866  -1.316   4.011   8.017 -0.0422  0.8101  1.6379
  575MOL0     H75867  -1.262   3.843   8.074  1.3502 -0.1063 -3.0234
  575MOL0     H75868  -1.503   3.773   8.068 -0.2154 -1.4419  3.0469
  575MOL0     H75869  -1.548   3.947   8.051  0.1571 -0.3535 -0.3380
  575MOL0     H75870  -1.469   3.997   8.263 -0.8484 -0.3286 -0.5924
  575MOL0     H75871  -1.392   3.830   8.274  1.4609  0.6769 -2.5242
  575MOL0     H75872  -1.601   3.733   8.261  1.9365  0.9233 -0.6926
  575MOL0     H75873  -1.571   3.825   8.417 -2.8760 -0.3765  0.8432
  575MOL0     H75874  -1.728   3.957   8.186  1.7539 -0.0162  0.0327
  575MOL0     H75875  -1.717   4.001   8.350 -0.5426  0.0056 -0.3118
  575MOL0     H75876  -1.834   3.768   8.409  0.4119 -1.3861 -1.2744
  575MOL0     H75877  -1.894   3.790   8.240 -0.3932  2.3095 -0.3009
  575MOL0     H75878  -1.912   4.004   8.448  0.1746  1.2427 -0.9291
  575MOL0     H75879  -1.989   4.009   8.289  1.9749 -0.9838 -0.7492
  575MOL0     H75880  -2.165   3.952   8.435 -0.5361  0.7628 -2.1203
  575MOL0     H75881  -2.066   3.810   8.490  2.4058 -0.3588 -1.6892
  575MOL0     H75882  -1.085   3.795   7.958 -0.7362 -3.4536 -0.5709
  575MOL0     H75883  -0.904   3.840   7.800 -1.3256 -2.9218  2.9294
  575MOL0     H75884  -0.794   3.652   7.289 -1.2709  0.3440 -0.6414
  575MOL0     H75885  -0.591   3.668   7.149  1.6233  1.0103  0.0998
  575MOL0     H75886   1.358   3.290   6.895  0.0467 -0.3578  0.0568
  575MOL0     H75887   1.575   3.205   6.942  0.0084  0.4461  0.6490
  575MOL0     H75888   1.857   2.971   7.429 -2.1665  1.8806 -1.9179
  575MOL0     H75889   2.114   2.961   7.429  1.8828  0.1667 -0.9338
  575MOL0     H75890   2.296   2.867   7.041 -1.7082 -1.1150  1.1493
  575MOL0     H75891   2.424   2.819   7.149 -0.2961 -0.3633 -1.0667
  575MOL0     H75892   2.366   3.106   7.069  0.5925 -0.4507 -3.8688
  575MOL0     H75893   2.514   3.034   7.149 -0.2107  0.0316 -0.0548
  575MOL0     H75894   2.429   2.984   6.874 -0.6563 -0.2760 -0.6112
  575MOL0     H75895   2.535   2.875   6.965 -1.0495 -0.6068 -0.6664
  575MOL0     H75896   2.658   3.048   6.828  0.1980  0.2854  0.6585
  575MOL0     H75897   2.596   3.174   6.946 -0.4237 -0.1920  0.8859
  575MOL0     H75898   2.892   2.984   7.174 -0.6702  1.9491  1.9115
  575MOL0     H75899   2.108   2.964   7.005  1.0060  2.0104 -0.3337
  575MOL0     H75900   1.876   3.015   7.007  0.7043 -0.2985 -0.9313
  576MOL0     O75901   9.809   8.590   0.708  0.2653 -0.2486  0.2496
  576MOL0     C75902   9.888   8.632   0.624  0.5024 -0.9885 -0.3271
  576MOL0     O75903   9.854   8.688   0.507 -0.4223  0.3039 -0.2088
  576MOL0     C75904   9.719   8.715   0.489 -0.4014  0.6315 -0.5180
  576MOL0     C75905   9.628   8.625   0.433  0.4926  0.0296 -1.0657
  576MOL0     C75906   9.495   8.658   0.406 -0.4187 -0.6209  0.4469
  576MOL0     C75907   9.443   8.782   0.443 -0.0903 -0.0242 -0.0893
  576MOL0     O75908   9.304   8.800   0.428  0.0346 -0.7759  0.7982
  576MOL0     C75909   9.238   8.890   0.517 -0.0466  0.3318  0.7827
  576MOL0     C75910   9.091   8.864   0.499  0.5540  0.4492  0.4718
  576MOL0     C75911   9.001   8.969   0.578 -0.4693  0.0608  0.6277
  576MOL0     C75912   8.851   8.930   0.556 -0.1859  1.0018 -0.6812
  576MOL0     C75913   8.772   9.009   0.671  0.3075 -0.0566 -0.1902
  576MOL0     C75914   8.623   8.993   0.661 -0.5444  0.9223  0.0354
  576MOL0     C75915   8.579   8.854   0.707  0.5973  0.0564 -0.0144
  576MOL0     C75916   8.429   8.877   0.748 -0.1936 -0.3866  0.8203
  576MOL0     N75917   8.379   8.740   0.770  0.0455 -0.0480  0.4334
  576MOL0     C75918   8.245   8.704   0.737 -1.0448 -0.3225 -0.0633
  576MOL0     C75919   8.233   8.591   0.808  0.0383 -0.1061  1.4944
  576MOL0     C75920   8.100   8.510   0.811  0.0231 -0.6076 -0.1878
  576MOL0     C75921   8.002   8.570   0.916 -0.1514  0.3720 -0.0510
  576MOL0     C75922   7.875   8.492   0.932  0.4362  0.3438 -0.5320
  576MOL0     C75923   7.756   8.571   0.989  0.1652  0.5501 -0.5598
  576MOL0     O75924   7.719   8.690   0.926  0.8849 -0.6240 -0.2618
  576MOL0     C75925   7.582   8.710   0.898 -0.7561 -0.5363  0.4589
  576MOL0     C75926   7.514   8.826   0.939 -0.5223 -0.4409  0.0650
  576MOL0     C75927   7.374   8.843   0.915 -0.1004 -0.0432  0.1448
  576MOL0     C75928   7.313   8.755   0.829  0.3792 -0.5309  0.3801
  576MOL0     C75929   7.168   8.780   0.775 -0.1265 -0.1616 -0.5306
  576MOL0     O75930   7.098   8.675   0.712  0.6531  0.0053  0.8537
  576MOL0     C75931   6.978   8.700   0.649 -0.1792  0.2642 -0.4198
  576MOL0     C75932   6.949   8.673   0.515  0.1031 -0.2859 -0.2865
  576MOL0     C75933   6.826   8.688   0.463  0.8981 -0.4364 -0.0147
  576MOL0     C75934   6.715   8.733   0.539 -0.3157 -0.3272  0.4063
  576MOL0     O75935   6.591   8.747   0.478 -0.0017  0.1267 -0.4102
  576MOL0     C75936   6.486   8.812   0.546 -0.2647 -0.4817  0.1048
  576MOL0     C75937   6.371   8.836   0.451  0.2086 -0.0917  0.3516
  576MOL0     C75938   6.283   8.718   0.418  0.3061  0.5006  0.2317
  576MOL0     C75939   6.177   8.760   0.319  0.7207  0.3987 -0.3394
  576MOL0     C75940   6.067   8.664   0.289  0.0580 -0.3676 -0.2868
  576MOL0     C75941   5.945   8.731   0.219  0.2025 -0.9305  0.0729
  576MOL0     C75942   5.838   8.633   0.182  0.3781  0.3261  0.1411
  576MOL0     C75943   5.857   8.576   0.042 -0.6286 -0.4235  0.6094
  576MOL0    Cl75944   5.780   8.417   0.014 -0.1934 -0.1372 -0.2259
  576MOL0     C75945   6.743   8.766   0.677  0.8732 -0.2092  0.3532
  576MOL0     C75946   6.875   8.761   0.715 -0.2359 -0.0895 -0.1306
  576MOL0     O75947   7.124   8.893   0.785 -0.1504 -0.3572 -0.2085
  576MOL0     C75948   7.378   8.639   0.789 -0.5350 -0.3878 -1.1825
  576MOL0     C75949   7.509   8.620   0.827 -0.6579  0.4658  0.1182
  576MOL0     N75950   8.351   8.552   0.860 -0.3660 -0.2449  0.1630
  576MOL0     N75951   8.438   8.647   0.848 -0.3302  0.0734 -0.1859
  576MOL0     C75952   9.537   8.881   0.490 -0.5568  0.4522 -0.2021
  576MOL0     C75953   9.667   8.847   0.510  0.5490  0.4045 -0.4222
  576MOL0     C75954  10.031   8.619   0.666  0.0927 -0.1617  0.8121
  576MOL0     C75955  10.085   8.602   0.797  0.4722 -0.2669 -0.3721
  576MOL0     C75956  10.222   8.602   0.822 -0.6376  0.2671  0.7007
  576MOL0     C75957  10.312   8.622   0.716 -0.1856  0.4838  0.9614
  576MOL0     O75958  10.451   8.623   0.730 -1.0686  0.0460 -0.4265
  576MOL0     C75959  10.504   8.602   0.863  0.0998  0.8325  0.0977
  576MOL0     C75960  10.656   8.603   0.860  0.1285 -0.1744  0.0586
  576MOL0     C75961  10.712   8.489   0.764  0.4550 -0.0190 -0.4895
  576MOL0     C75962  10.839   8.438   0.827 -0.2425  0.7874 -0.8147
  576MOL0     C75963  10.939   8.551   0.837  1.5493  0.6412 -0.7918
  576MOL0     C75964  11.025   8.632   0.837 -0.3313  0.1414  0.1929
  576MOL0     C75965  10.267   8.652   0.593  0.2317  0.9515  0.5224
  576MOL0     C75966  10.122   8.643   0.563 -0.6293 -0.1559 -0.9342
  576MOL0     H75967   9.664   8.529   0.398  0.5847 -0.3433  0.0119
  576MOL0     H75968   9.430   8.590   0.352 -1.5511  0.9879 -0.2601
  576MOL0     H75969   9.243   8.996   0.492 -3.5176  0.7658  1.4277
  576MOL0     H75970   9.272   8.867   0.618  3.6750  0.4403 -0.3167
  576MOL0     H75971   9.065   8.763   0.531 -2.3518  0.8434 -0.3726
  576MOL0     H75972   9.072   8.868   0.391 -0.1219  0.1638  0.5752
  576MOL0     H75973   9.027   9.067   0.538  3.3150 -0.6631  0.8960
  576MOL0     H75974   9.027   8.976   0.684 -0.8770  2.4207  0.6322
  576MOL0     H75975   8.833   8.966   0.454 -0.8897 -0.8198 -1.2438
  576MOL0     H75976   8.839   8.822   0.567  0.8879  0.8652 -0.6794
  576MOL0     H75977   8.806   9.112   0.660  1.1026 -0.1683  1.0456
  576MOL0     H75978   8.795   8.973   0.772 -0.1229 -0.0186 -0.0775
  576MOL0     H75979   8.573   8.999   0.563 -0.5031 -0.2148 -0.0694
  576MOL0     H75980   8.573   9.075   0.714 -2.5842  2.3307 -3.6516
  576MOL0     H75981   8.597   8.778   0.630 -2.1592 -1.9677  1.1643
  576MOL0     H75982   8.635   8.821   0.795  2.8046 -1.9751 -2.0209
  576MOL0     H75983   8.380   8.915   0.658 -0.2601 -1.0208  0.5785
  576MOL0     H75984   8.407   8.937   0.836 -0.5990  0.0625  0.4199
  576MOL0     H75985   8.168   8.764   0.689 -0.5799 -0.1930 -0.6612
  576MOL0     H75986   8.153   8.421   0.847 -0.1444 -0.8302 -0.4908
  576MOL0     H75987   8.051   8.501   0.714 -0.4862 -1.5825  0.1498
  576MOL0     H75988   7.981   8.667   0.870  0.0355  1.0186  1.1886
  576MOL0     H75989   8.052   8.592   1.011  0.8576  3.8564 -1.2639
  576MOL0     H75990   7.852   8.460   0.830 -0.3345  0.0907 -0.2844
  576MOL0     H75991   7.895   8.401   0.990  0.9811  1.3034  0.8366
  576MOL0     H75992   7.774   8.604   1.092  0.4709 -0.8925 -0.1376
  576MOL0     H75993   7.679   8.495   1.003  0.3676  0.2920 -0.8539
  576MOL0     H75994   7.567   8.904   0.992 -1.4028  1.1260 -1.2473
  576MOL0     H75995   7.319   8.924   0.963  1.1865  1.5722 -0.9754
  576MOL0     H75996   7.026   8.641   0.446  0.6881  1.0008 -0.2515
  576MOL0     H75997   6.816   8.670   0.357  0.7293 -0.2348 -0.0339
  576MOL0     H75998   6.506   8.913   0.583 -3.7051  0.9096 -1.4427
  576MOL0     H75999   6.454   8.754   0.633  3.1013  0.0308  1.8542
  576MOL0     H76000   6.410   8.884   0.360 -2.2658  1.3897 -0.0428
  576MOL0     H76001   6.317   8.914   0.505  0.0886 -0.1318  0.2907
  576MOL0     H76002   6.238   8.680   0.510 -0.6926 -1.2692 -0.9250
  576MOL0     H76003   6.355   8.642   0.387 -0.2700 -0.3360  0.8905
  576MOL0     H76004   6.131   8.855   0.351 -0.8904  0.1223 -1.6768
  576MOL0     H76005   6.230   8.781   0.226  0.3272  1.1882 -0.3942
  576MOL0     H76006   6.029   8.628   0.385  0.8298  1.5081  0.7614
  576MOL0     H76007   6.100   8.585   0.220 -2.6030  0.0723 -2.2117
  576MOL0     H76008   5.974   8.782   0.126  1.0059 -3.4953 -1.1799
  576MOL0     H76009   5.895   8.803   0.285 -0.3886 -2.4114  1.2807
  576MOL0     H76010   5.824   8.556   0.258  1.1199 -1.5659 -1.5382
  576MOL0     H76011   5.741   8.681   0.163 -1.1511 -1.8825  1.8789
  576MOL0     H76012   5.959   8.555   0.009 -1.0137 -2.3337  0.5086
  576MOL0     H76013   5.817   8.640  -0.037  0.8570 -0.6888 -0.4027
  576MOL0     H76014   6.665   8.796   0.746 -0.4052 -2.6937  0.1251
  576MOL0     H76015   6.892   8.792   0.818  1.1144 -0.3164 -0.2737
  576MOL0     H76016   7.324   8.564   0.733  0.4880 -0.0514 -2.6927
  576MOL0     H76017   7.567   8.536   0.791  1.6276  1.9629  0.1274
  576MOL0     H76018   9.495   8.979   0.513  1.2455  1.1841  0.1084
  576MOL0     H76019   9.738   8.920   0.549 -0.4745  0.6197  1.1054
  576MOL0     H76020  10.017   8.589   0.880  1.5584  0.5451  0.6825
  576MOL0     H76021  10.261   8.581   0.921 -2.1028  1.3094  1.5414
  576MOL0     H76022  10.483   8.498   0.891  1.6804  0.0278 -1.5373
  576MOL0     H76023  10.485   8.677   0.941 -1.5968 -0.7538  1.3117
  576MOL0     H76024  10.694   8.703   0.838  1.8104 -1.0316 -1.2157
  576MOL0     H76025  10.694   8.580   0.960  1.3108 -1.0753 -0.5602
  576MOL0     H76026  10.713   8.515   0.658  0.0904 -0.1071 -0.5149
  576MOL0     H76027  10.648   8.400   0.761  0.7801 -0.3953  1.7127
  576MOL0     H76028  10.823   8.404   0.930 -0.7946  1.1289 -0.7835
  576MOL0     H76029  10.873   8.353   0.768 -1.2019 -0.6877  0.6381
  576MOL0     H76030  11.117   8.687   0.841  1.6734 -2.7842 -1.6473
  576MOL0     H76031  10.335   8.653   0.509  0.4676 -6.0231  0.0661
  576MOL0     H76032  10.090   8.642   0.459  2.3665  2.6457 -2.0594
  577MOL0     O76033   6.347   0.915   6.570  0.1953 -0.5842  0.2519
  577MOL0     C76034   6.394   0.986   6.664 -0.1104 -0.1366 -0.3561
  577MOL0     O76035   6.339   1.099   6.706 -0.1032 -0.2150 -1.1491
  577MOL0     C76036   6.216   1.139   6.666 -0.1829  0.9459  0.0919
  577MOL0     C76037   6.191   1.268   6.707  0.3210  0.1660 -0.4596
  577MOL0     C76038   6.073   1.326   6.678  0.0965  0.3818  0.3679
  577MOL0     C76039   5.958   1.255   6.625 -0.4014 -0.8920  0.5786
  577MOL0     O76040   5.836   1.314   6.625  0.3962  0.2417 -0.3526
  577MOL0     C76041   5.722   1.230   6.594  0.2809  0.7701 -0.9592
  577MOL0     C76042   5.601   1.318   6.625  0.4127  0.0869 -0.8024
  577MOL0     C76043   5.467   1.248   6.586 -0.7164 -0.0446  0.0573
  577MOL0     C76044   5.353   1.346   6.582  0.8519  0.6182 -0.1489
  577MOL0     C76045   5.238   1.307   6.672  0.0445  0.4872 -0.2163
  577MOL0     C76046   5.143   1.429   6.664  0.4330  0.9080  0.3370
  577MOL0     C76047   5.005   1.386   6.710  0.2004 -0.4558  0.3762
  577MOL0     C76048   4.927   1.296   6.609 -0.8754 -0.4489  0.3931
  577MOL0     N76049   4.789   1.321   6.607 -0.0389  0.4471  0.3306
  577MOL0     C76050   4.695   1.340   6.707 -0.3995 -0.3913  0.6450
  577MOL0     C76051   4.586   1.368   6.640  0.1097 -0.5597 -0.0021
  577MOL0     C76052   4.446   1.388   6.694 -0.0052  0.7230 -0.3193
  577MOL0     C76053   4.400   1.276   6.791 -0.4085 -0.3210  0.7485
  577MOL0     C76054   4.253   1.312   6.831 -0.1289 -0.2060 -0.3497
  577MOL0     C76055   4.245   1.414   6.944  0.5668 -0.3916  0.0417
  577MOL0     O76056   4.149   1.379   7.046 -0.2948 -0.2318  0.0084
  577MOL0     C76057   4.021   1.331   7.016 -0.2713 -0.8860 -0.4738
  577MOL0     C76058   3.948   1.382   6.910  0.5525  0.7656  0.0094
  577MOL0     C76059   3.813   1.341   6.899  0.0674  0.1130 -0.0220
  577MOL0     C76060   3.754   1.246   6.995 -0.4920 -0.4089  0.6869
  577MOL0     C76061   3.609   1.208   6.983  0.1823  0.7134  0.5604
  577MOL0     O76062   3.543   1.242   6.861 -0.8503  0.0931  0.2937
  577MOL0     C76063   3.427   1.180   6.836  0.3305  0.4935  1.0104
  577MOL0     C76064   3.309   1.183   6.917  0.0201  0.1695  0.6244
  577MOL0     C76065   3.196   1.119   6.865  0.4661  0.5277 -0.3898
  577MOL0     C76066   3.196   1.049   6.742 -0.6136  0.4321  0.1948
  577MOL0     O76067   3.078   0.982   6.712  0.3977 -0.4204 -0.0104
  577MOL0     C76068   3.062   0.946   6.576  0.0392 -0.8344 -0.2833
  577MOL0     C76069   2.918   0.908   6.569 -0.6572  0.6067  0.2578
  577MOL0     C76070   2.873   0.890   6.428 -0.5372 -0.4074 -0.1741
  577MOL0     C76071   2.726   0.841   6.425 -0.1821 -0.5273  0.8591
  577MOL0     C76072   2.696   0.764   6.295 -0.1232 -0.1024  1.2177
  577MOL0     C76073   2.556   0.724   6.294  0.5373  0.1567 -0.5286
  577MOL0     C76074   2.495   0.681   6.167 -0.3251 -0.1587  0.1914
  577MOL0     C76075   2.345   0.673   6.167  0.1749 -0.9287 -0.1553
  577MOL0    Cl76076   2.283   0.535   6.256  0.3952 -0.0316 -0.3915
  577MOL0     C76077   3.315   1.042   6.669 -0.3298 -0.0862 -0.7409
  577MOL0     C76078   3.426   1.107   6.712  0.3397  0.1663 -0.2510
  577MOL0     O76079   3.561   1.142   7.075  0.0681 -1.0241 -0.3618
  577MOL0     C76080   3.835   1.195   7.105 -0.3630  0.3770 -0.7506
  577MOL0     C76081   3.967   1.241   7.112 -0.2211  0.2851  0.1667
  577MOL0     N76082   4.605   1.363   6.502 -0.1183 -0.9061  0.2687
  577MOL0     N76083   4.729   1.333   6.485  0.0696 -0.0587 -0.5039
  577MOL0     C76084   5.982   1.122   6.601  0.0336 -0.5504  0.5019
  577MOL0     C76085   6.107   1.058   6.624  0.7201 -0.5850 -0.2993
  577MOL0     C76086   6.532   0.959   6.719 -1.0882 -0.4715  0.6551
  577MOL0     C76087   6.608   0.859   6.659 -0.5505  0.3941 -0.9755
  577MOL0     C76088   6.743   0.843   6.698  0.3855  0.1121  0.1633
  577MOL0     C76089   6.807   0.923   6.795 -0.1806 -0.5400  0.0557
  577MOL0     O76090   6.933   0.888   6.828 -0.3445  0.8252 -0.2559
  577MOL0     C76091   7.006   0.982   6.905  0.2694 -0.0460  0.6402
  577MOL0     C76092   7.149   0.949   6.884  0.4168 -0.2397 -0.5544
  577MOL0     C76093   7.238   1.036   6.971 -0.3134 -0.2081 -0.3060
  577MOL0     C76094   7.393   1.011   6.944  0.4643  0.4676 -0.0013
  577MOL0     C76095   7.445   1.084   6.831  0.2959  0.3501  0.3973
  577MOL0     C76096   7.480   1.168   6.742  0.6389  0.5425  0.5547
  577MOL0     C76097   6.733   1.025   6.847 -0.7467 -0.0743  0.0523
  577MOL0     C76098   6.595   1.039   6.817  0.0809 -0.2654  0.3588
  577MOL0     H76099   6.258   1.339   6.754 -0.5823  1.5330 -1.1713
  577MOL0     H76100   6.077   1.433   6.693  0.0676  0.2504  1.3330
  577MOL0     H76101   5.718   1.136   6.649 -0.8944 -1.9154 -5.1674
  577MOL0     H76102   5.727   1.195   6.490 -0.2875 -0.1799 -0.6716
  577MOL0     H76103   5.609   1.404   6.557 -1.8148 -1.2818 -3.0195
  577MOL0     H76104   5.589   1.354   6.727 -2.3320 -1.5360 -0.4579
  577MOL0     H76105   5.454   1.166   6.656 -1.0725  0.0975  0.1591
  577MOL0     H76106   5.477   1.200   6.489 -0.2645  0.6360 -0.2434
  577MOL0     H76107   5.387   1.440   6.628 -1.6661  1.4094  0.2553
  577MOL0     H76108   5.316   1.363   6.480  1.2219 -1.2838 -0.6405
  577MOL0     H76109   5.277   1.286   6.773  0.3333  0.4945 -0.3252
  577MOL0     H76110   5.204   1.217   6.621  1.9156 -1.3453  1.5173
  577MOL0     H76111   5.140   1.472   6.563  0.5069 -1.2290 -0.6512
  577MOL0     H76112   5.184   1.495   6.741  3.4673 -2.7818  2.2295
  577MOL0     H76113   5.013   1.341   6.809  2.5639  1.7098  1.2902
  577MOL0     H76114   4.954   1.482   6.720  1.5727  0.2530  0.9720
  577MOL0     H76115   4.933   1.192   6.644 -1.2529 -1.4397 -2.2190
  577MOL0     H76116   4.971   1.309   6.510  2.5872 -2.1937  1.5474
  577MOL0     H76117   4.715   1.344   6.813 -2.4093  1.1736  1.0224
  577MOL0     H76118   4.383   1.378   6.605  0.0975 -0.5240 -0.2627
  577MOL0     H76119   4.433   1.487   6.740 -0.5877  1.0560 -1.1667
  577MOL0     H76120   4.461   1.284   6.881 -2.3138  3.0687  1.9386
  577MOL0     H76121   4.408   1.179   6.742  0.0356  1.1543 -2.3077
  577MOL0     H76122   4.187   1.330   6.747  1.8655 -0.0640 -1.9694
  577MOL0     H76123   4.228   1.224   6.891  0.3427  0.6036  1.0847
  577MOL0     H76124   4.211   1.506   6.896  1.9616 -0.9748 -2.2021
  577MOL0     H76125   4.343   1.433   6.989  0.5840  1.5160 -0.7165
  577MOL0     H76126   4.000   1.450   6.843  0.4862  0.5701 -0.2407
  577MOL0     H76127   3.766   1.381   6.810  0.0922  1.5140  0.5554
  577MOL0     H76128   3.297   1.250   7.002  0.0396 -0.7288  1.3587
  577MOL0     H76129   3.097   1.131   6.909  0.4395 -1.6297  0.2505
  577MOL0     H76130   3.124   0.857   6.558  1.8180  0.0002  1.3825
  577MOL0     H76131   3.082   1.026   6.505  1.3604 -0.5005  0.4350
  577MOL0     H76132   2.856   0.982   6.620 -1.6306  0.6800 -0.9892
  577MOL0     H76133   2.925   0.822   6.635 -0.8437  1.5049  1.4696
  577MOL0     H76134   2.939   0.819   6.376  0.4729  0.2042  0.2409
  577MOL0     H76135   2.879   0.983   6.371  1.1344 -0.7267 -0.5794
  577MOL0     H76136   2.715   0.761   6.499 -0.6573 -0.1193  1.2403
  577MOL0     H76137   2.664   0.930   6.437  0.7139  0.1474  0.5728
  577MOL0     H76138   2.763   0.679   6.277 -0.9474 -0.1671 -2.4047
  577MOL0     H76139   2.720   0.827   6.208  0.7651 -2.3827 -0.2876
  577MOL0     H76140   2.497   0.805   6.337 -1.5672 -1.8156  0.5332
  577MOL0     H76141   2.545   0.642   6.366  1.1437  0.3102 -0.2532
  577MOL0     H76142   2.512   0.738   6.076  0.8468 -1.8472 -0.6838
  577MOL0     H76143   2.537   0.584   6.138 -0.6022 -0.8240  1.8665
  577MOL0     H76144   2.302   0.684   6.067 -0.5154  1.4254  0.3388
  577MOL0     H76145   2.306   0.757   6.225  0.8836 -0.5397 -0.2238
  577MOL0     H76146   3.343   0.981   6.583  3.0741 -0.0176  0.1627
  577MOL0     H76147   3.517   1.099   6.654  0.4366  0.3567 -0.1301
  577MOL0     H76148   3.791   1.129   7.180  1.6353  1.0409  1.1024
  577MOL0     H76149   4.034   1.198   7.185  0.1116 -0.9621 -0.8295
  577MOL0     H76150   5.895   1.063   6.574 -0.7104  0.2261  1.1510
  577MOL0     H76151   6.121   0.952   6.606  4.0216 -0.4605  0.8332
  577MOL0     H76152   6.567   0.792   6.584  0.1274  2.2556 -3.1057
  577MOL0     H76153   6.778   0.747   6.660  0.0101 -0.7620  1.9337
  577MOL0     H76154   6.984   0.976   7.012  0.2242  0.0924  0.6387
  577MOL0     H76155   6.987   1.083   6.870 -0.8848 -0.3941  0.2204
  577MOL0     H76156   7.171   0.849   6.922 -0.2189 -0.1592  0.0424
  577MOL0     H76157   7.180   0.957   6.779  0.7271 -2.7381 -0.7183
  577MOL0     H76158   7.215   1.009   7.074 -1.8746  0.7798 -0.3691
  577MOL0     H76159   7.212   1.140   6.948 -1.6313 -0.3204  0.6380
  577MOL0     H76160   7.450   1.037   7.034 -1.6821 -0.4204  1.7023
  577MOL0     H76161   7.400   0.903   6.927 -0.1175  0.4449 -0.0933
  577MOL0     H76162   7.501   1.233   6.659 -0.4241 -0.2844 -0.4126
  577MOL0     H76163   6.773   1.099   6.917  1.2955 -0.3008 -0.8087
  577MOL0     H76164   6.541   1.123   6.860  1.5550  0.4750  0.8370
  578MOL0     O76165   1.467   0.104   2.366  0.1604 -0.7801  0.0670
  578MOL0     C76166   1.518   0.007   2.428  0.5778  0.3480 -0.1396
  578MOL0     O76167   1.452  -0.091   2.498 -0.0497 -0.0766 -0.0863
  578MOL0     C76168   1.327  -0.084   2.539 -0.2531 -0.0220 -0.6869
  578MOL0     C76169   1.251   0.031   2.552  0.2412  0.3004 -1.0450
  578MOL0     C76170   1.122   0.030   2.606  0.0537 -0.2247  0.2828
  578MOL0     C76171   1.064  -0.090   2.646 -0.2046 -0.1188 -0.6298
  578MOL0     O76172   0.946  -0.112   2.697 -0.0276  0.1988 -0.2537
  578MOL0     C76173   0.846  -0.003   2.694  0.0262  1.0295  0.9470
  578MOL0     C76174   0.729  -0.049   2.780 -0.1703 -0.8013  1.1393
  578MOL0     C76175   0.626  -0.135   2.707  0.1665  0.3492  0.5780
  578MOL0     C76176   0.665  -0.279   2.687 -0.7663  0.3697 -1.1922
  578MOL0     C76177   0.548  -0.359   2.632  0.2412  0.0121  0.7425
  578MOL0     C76178   0.521  -0.318   2.484 -0.6153 -0.3205  0.2704
  578MOL0     C76179   0.432  -0.429   2.434  0.4148  0.8331 -1.1115
  578MOL0     C76180   0.375  -0.391   2.290  0.2623 -0.1754 -0.3218
  578MOL0     N76181   0.257  -0.470   2.273 -0.2343 -0.0182 -0.1796
  578MOL0     C76182   0.132  -0.461   2.325  0.1044  0.0371 -0.2616
  578MOL0     C76183   0.055  -0.559   2.261 -0.2365 -0.0784 -0.3765
  578MOL0     C76184  -0.090  -0.595   2.291 -0.2836 -0.1396  0.5110
  578MOL0     C76185  -0.188  -0.480   2.267 -0.3421 -0.1650 -0.0580
  578MOL0     C76186  -0.319  -0.529   2.325  0.1539 -0.8109 -0.5624
  578MOL0     C76187  -0.432  -0.441   2.288  0.0327  1.1302  0.7667
  578MOL0     O76188  -0.463  -0.349   2.387 -0.0426  0.2147 -0.9851
  578MOL0     C76189  -0.592  -0.350   2.439  0.5914 -0.2936 -0.3648
  578MOL0     C76190  -0.715  -0.360   2.364 -0.1936  0.8237  0.1426
  578MOL0     C76191  -0.840  -0.363   2.429 -0.3134  0.3360 -0.3355
  578MOL0     C76192  -0.848  -0.353   2.567 -0.0230 -0.0958  0.2894
  578MOL0     C76193  -0.984  -0.353   2.620  0.3882  0.3156 -0.3300
  578MOL0     O76194  -1.086  -0.397   2.541 -0.0733 -0.1103 -0.1730
  578MOL0     C76195  -1.216  -0.377   2.588  0.4811 -1.2151 -0.6335
  578MOL0     C76196  -1.295  -0.287   2.511  0.3655 -0.0827 -0.1355
  578MOL0     C76197  -1.432  -0.279   2.549 -0.1089 -0.4651  0.1527
  578MOL0     C76198  -1.492  -0.356   2.653 -0.2064  0.1907  0.0973
  578MOL0     O76199  -1.626  -0.340   2.675 -0.7661 -0.1303 -0.1767
  578MOL0     C76200  -1.672  -0.389   2.799  0.7162 -0.5348  0.6089
  578MOL0     C76201  -1.802  -0.308   2.816  0.1323 -0.0147  0.4974
  578MOL0     C76202  -1.770  -0.161   2.848  0.2699  0.3451  0.8425
  578MOL0     C76203  -1.891  -0.087   2.902 -0.5098 -1.0654  0.5263
  578MOL0     C76204  -1.857   0.060   2.941 -0.1360  0.3891 -0.5483
  578MOL0     C76205  -1.984   0.126   2.994 -0.4589  0.0137  0.0435
  578MOL0     C76206  -1.942   0.262   3.052 -0.1683  0.1924  0.2050
  578MOL0     C76207  -2.062   0.347   3.110 -0.0222  0.1312 -0.4433
  578MOL0    Cl76208  -2.014   0.453   3.247 -0.2438  0.3087  0.0116
  578MOL0     C76209  -1.410  -0.448   2.721 -0.4211  0.3000  0.1285
  578MOL0     C76210  -1.273  -0.461   2.682 -0.1927 -0.0367 -0.4454
  578MOL0     O76211  -0.994  -0.308   2.736  0.2666 -0.0895  0.1274
  578MOL0     C76212  -0.729  -0.337   2.638  0.4933  0.1476  0.2108
  578MOL0     C76213  -0.603  -0.336   2.574 -0.6662 -0.9984  0.0915
  578MOL0     N76214   0.135  -0.619   2.166  0.5844  0.4925  0.1003
  578MOL0     N76215   0.253  -0.567   2.175  0.1703  0.2978 -0.1074
  578MOL0     C76216   1.140  -0.207   2.630 -0.1218  0.4122  0.4293
  578MOL0     C76217   1.271  -0.204   2.583  0.1299 -0.2927  0.1182
  578MOL0     C76218   1.664  -0.000   2.423 -0.5873  0.2876 -0.4012
  578MOL0     C76219   1.731  -0.117   2.456  0.0239  0.1092  0.6799
  578MOL0     C76220   1.866  -0.133   2.434 -0.4000 -0.1246 -0.4879
  578MOL0     C76221   1.950  -0.037   2.384 -0.3555 -0.7917  0.2999
  578MOL0     O76222   2.079  -0.071   2.346 -0.6975 -0.4040 -0.0704
  578MOL0     C76223   2.167   0.028   2.298 -0.1755  0.4184  0.3892
  578MOL0     C76224   2.309  -0.025   2.295  0.1764 -0.4174 -0.9351
  578MOL0     C76225   2.351  -0.063   2.440  0.4650 -0.3658  0.0382
  578MOL0     C76226   2.491  -0.136   2.441  0.3718  0.3607  0.3074
  578MOL0     C76227   2.597  -0.044   2.384 -0.4892  1.1129 -0.7497
  578MOL0     C76228   2.685   0.040   2.340  0.5004  0.6086 -0.5295
  578MOL0     C76229   1.877   0.082   2.344 -0.4338  0.5146  0.4569
  578MOL0     C76230   1.739   0.091   2.354 -0.3382  0.0569 -0.2481
  578MOL0     H76231   1.283   0.126   2.512  1.9951 -0.6577 -2.0440
  578MOL0     H76232   1.068   0.124   2.606 -1.5257 -1.0844 -0.9188
  578MOL0     H76233   0.815   0.012   2.590  0.2035 -0.5095  0.6454
  578MOL0     H76234   0.871   0.096   2.734  0.6985  0.5718  1.7060
  578MOL0     H76235   0.664   0.038   2.795  2.7255  3.1078 -4.9734
  578MOL0     H76236   0.769  -0.093   2.871  3.1604 -3.0791 -1.1915
  578MOL0     H76237   0.594  -0.095   2.611 -2.9059  0.8067  1.6636
  578MOL0     H76238   0.539  -0.132   2.774 -0.6489 -0.9007 -0.3907
  578MOL0     H76239   0.756  -0.283   2.626  1.1263 -2.5656  1.5258
  578MOL0     H76240   0.701  -0.315   2.783 -1.4481  3.7249  0.4730
  578MOL0     H76241   0.459  -0.349   2.694 -1.7858  1.4673 -2.1271
  578MOL0     H76242   0.562  -0.467   2.637 -3.5892 -0.5534  2.7470
  578MOL0     H76243   0.609  -0.324   2.420 -0.2672  1.4776  0.5460
  578MOL0     H76244   0.480  -0.217   2.480  0.8944  0.3364  0.7048
  578MOL0     H76245   0.487  -0.523   2.439 -0.2777  0.4921  0.8550
  578MOL0     H76246   0.347  -0.436   2.503  1.9848 -0.6246  0.7709
  578MOL0     H76247   0.450  -0.423   2.218 -2.2794 -0.8653 -2.8422
  578MOL0     H76248   0.348  -0.286   2.280  0.8135 -0.1173 -1.2523
  578MOL0     H76249   0.114  -0.397   2.410  2.8085  0.2391  0.2619
  578MOL0     H76250  -0.086  -0.613   2.398  3.8752  2.4063  0.9813
  578MOL0     H76251  -0.123  -0.684   2.235 -0.3730 -1.4121  2.4997
  578MOL0     H76252  -0.183  -0.459   2.160 -0.4574  1.0458  0.1658
  578MOL0     H76253  -0.160  -0.391   2.324  0.1487 -0.4046  0.0840
  578MOL0     H76254  -0.341  -0.626   2.280  2.3413 -1.5566 -0.1056
  578MOL0     H76255  -0.322  -0.538   2.433  0.0262 -2.6674 -0.6969
  578MOL0     H76256  -0.512  -0.510   2.261  0.2047  1.5088 -0.8621
  578MOL0     H76257  -0.419  -0.381   2.197 -1.6651  0.4838  0.0604
  578MOL0     H76258  -0.707  -0.366   2.256 -2.7799  0.3639 -0.0723
  578MOL0     H76259  -0.931  -0.374   2.371 -2.0562 -0.8719  2.4446
  578MOL0     H76260  -1.258  -0.235   2.423 -0.6685  1.6435  0.4076
  578MOL0     H76261  -1.498  -0.233   2.476 -2.5988 -4.9224 -0.7965
  578MOL0     H76262  -1.607  -0.376   2.886 -0.6680  0.5357  1.5443
  578MOL0     H76263  -1.695  -0.495   2.795 -1.8349 -0.0878  1.2955
  578MOL0     H76264  -1.849  -0.356   2.902  1.0367 -1.5876  0.1469
  578MOL0     H76265  -1.862  -0.317   2.725  1.7346  1.5702 -0.8042
  578MOL0     H76266  -1.731  -0.118   2.755  0.2520 -1.6187 -0.1333
  578MOL0     H76267  -1.686  -0.140   2.914  0.9360  0.8502 -0.1365
  578MOL0     H76268  -1.971  -0.079   2.828 -1.1244  0.9255  1.3244
  578MOL0     H76269  -1.939  -0.147   2.979  0.4753 -1.7958  0.5921
  578MOL0     H76270  -1.818   0.105   2.849 -0.2237  1.3953 -0.0994
  578MOL0     H76271  -1.776   0.057   3.014 -0.4310  2.8971 -0.0156
  578MOL0     H76272  -2.028   0.070   3.078  0.4158  0.5415  0.8784
  578MOL0     H76273  -2.064   0.137   2.920 -0.9530 -1.5376  0.3269
  578MOL0     H76274  -1.868   0.249   3.131 -2.4198 -1.1132  2.2233
  578MOL0     H76275  -1.896   0.318   2.969 -0.4003  1.3056  0.8161
  578MOL0     H76276  -2.138   0.278   3.147 -0.0573  0.2076 -0.3723
  578MOL0     H76277  -2.111   0.405   3.031  0.0947  0.1936 -0.4711
  578MOL0     H76278  -1.451  -0.506   2.803  0.1568 -1.0449 -0.5091
  578MOL0     H76279  -1.204  -0.534   2.723 -2.5995 -1.4665  1.3779
  578MOL0     H76280  -0.718  -0.325   2.745  5.7620  2.3254 -0.2700
  578MOL0     H76281  -0.511  -0.324   2.631  0.0918  0.0815 -1.2998
  578MOL0     H76282   1.110  -0.310   2.647 -0.2237  0.7487  2.6472
  578MOL0     H76283   1.334  -0.287   2.554 -0.3026 -0.6816  0.2851
  578MOL0     H76284   1.668  -0.193   2.500 -0.4736 -1.1357 -1.9791
  578MOL0     H76285   1.905  -0.229   2.466 -3.3557 -2.4892 -3.3235
  578MOL0     H76286   2.158   0.126   2.344 -0.5617  0.9114 -0.6958
  578MOL0     H76287   2.133   0.035   2.194 -3.4394  2.1185  1.4234
  578MOL0     H76288   2.310  -0.114   2.232  1.1133 -1.7341  0.8324
  578MOL0     H76289   2.380   0.051   2.262 -1.8737  1.6816 -0.7994
  578MOL0     H76290   2.276  -0.131   2.482  2.2788 -2.7888 -0.4083
  578MOL0     H76291   2.356   0.024   2.507  1.5701  0.3397 -0.9192
  578MOL0     H76292   2.516  -0.165   2.543 -2.6359 -1.0907  0.7390
  578MOL0     H76293   2.485  -0.233   2.391  2.6958  0.5082 -0.3836
  578MOL0     H76294   2.749   0.120   2.309 -0.0420  0.8680 -0.9894
  578MOL0     H76295   1.940   0.151   2.288  0.5696  0.1690  1.1209
  578MOL0     H76296   1.688   0.182   2.327 -1.8095 -0.9575 -1.0276
  579MOL0     O76297   3.106   6.093   3.687  0.0747  0.3095 -0.9853
  579MOL0     C76298   3.138   6.186   3.613 -0.2542 -1.1061  0.1035
  579MOL0     O76299   3.060   6.249   3.520  0.0034 -0.4221  0.4463
  579MOL0     C76300   2.946   6.182   3.488  0.7265 -0.6200 -0.0612
  579MOL0     C76301   2.931   6.045   3.457 -0.2861  0.8473 -0.3259
  579MOL0     C76302   2.816   5.994   3.388 -0.0110 -0.1777  0.7943
  579MOL0     C76303   2.707   6.076   3.382  0.6042 -0.4617  1.0026
  579MOL0     O76304   2.595   6.030   3.326  0.8834  0.5966  0.1316
  579MOL0     C76305   2.543   5.906   3.372 -0.1128  0.0752  0.2676
  579MOL0     C76306   2.444   5.849   3.270 -0.1506 -0.1308  0.2110
  579MOL0     C76307   2.321   5.944   3.266 -0.2320  0.6149  0.7330
  579MOL0     C76308   2.204   5.879   3.187 -0.3275  0.1004 -0.6875
  579MOL0     C76309   2.189   5.931   3.044  0.1769 -0.7317  0.2560
  579MOL0     C76310   2.138   5.811   2.950 -0.3950 -0.8412 -0.1335
  579MOL0     C76311   2.075   5.846   2.822 -0.4752 -0.6466  0.3781
  579MOL0     C76312   1.941   5.927   2.856  0.0991 -0.2899  0.5594
  579MOL0     N76313   1.841   5.917   2.745  0.4574  1.0141 -0.1913
  579MOL0     C76314   1.863   5.956   2.616  0.1810 -0.0518  0.3601
  579MOL0     C76315   1.740   5.949   2.554 -0.2582  0.2970 -0.5474
  579MOL0     C76316   1.715   5.964   2.410  0.1142 -0.7863  0.3716
  579MOL0     C76317   1.649   6.103   2.379  0.4378  0.1730  0.1069
  579MOL0     C76318   1.499   6.100   2.410  0.4931 -0.1077 -0.4805
  579MOL0     C76319   1.409   6.017   2.315 -0.4087  0.4338 -0.4377
  579MOL0     O76320   1.271   6.052   2.346  0.3140  0.1388  0.1678
  579MOL0     C76321   1.173   6.002   2.270  0.1699 -0.0944  0.7375
  579MOL0     C76322   1.053   6.065   2.293  0.8421 -0.0509  0.1970
  579MOL0     C76323   0.930   6.026   2.218 -0.0740 -0.2738 -0.6713
  579MOL0     C76324   0.939   5.938   2.113  0.8242 -0.9963 -0.0723
  579MOL0     C76325   0.807   5.899   2.056 -0.2998 -0.7054  0.1312
  579MOL0     O76326   0.716   5.995   2.040 -0.3153  0.4495 -0.2793
  579MOL0     C76327   0.588   5.986   1.994  0.1605 -0.9274  0.2459
  579MOL0     C76328   0.507   5.874   2.000 -0.5136 -0.0011 -0.1087
  579MOL0     C76329   0.384   5.871   1.937  0.0852 -0.3850  0.0092
  579MOL0     C76330   0.335   5.984   1.867  0.2662  0.7397 -0.0270
  579MOL0     O76331   0.222   5.983   1.787 -0.0866  0.3226 -0.3183
  579MOL0     C76332   0.153   5.861   1.763  0.1206 -0.3762 -0.8138
  579MOL0     C76333   0.050   5.882   1.641 -0.3055 -0.1448 -0.3654
  579MOL0     C76334  -0.047   6.008   1.678  0.7331 -0.2671  0.3655
  579MOL0     C76335  -0.187   6.027   1.606  0.9798  0.5121 -0.0505
  579MOL0     C76336  -0.177   6.054   1.458  0.1560 -0.4119  0.0876
  579MOL0     C76337  -0.137   5.938   1.368  0.1404 -0.1539  0.3436
  579MOL0     C76338  -0.133   5.961   1.215  0.2452  0.2452  0.4573
  579MOL0     C76339  -0.099   5.843   1.122  0.0605  0.0330 -0.9634
  579MOL0    Cl76340  -0.137   5.869   0.948  0.5657  0.4062 -0.0286
  579MOL0     C76341   0.413   6.098   1.866  0.0021 -0.2922  0.4847
  579MOL0     C76342   0.536   6.101   1.930  0.3971 -0.3715 -0.9169
  579MOL0     O76343   0.796   5.785   2.017 -0.7666  0.0213 -0.6588
  579MOL0     C76344   1.074   5.892   2.075  0.8046  0.6578 -0.4646
  579MOL0     C76345   1.183   5.929   2.151 -0.4564 -0.0069 -0.7640
  579MOL0     N76346   1.652   5.905   2.650 -0.2143  0.2474  0.3503
  579MOL0     N76347   1.710   5.879   2.763  0.1787 -0.2748  0.3055
  579MOL0     C76348   2.717   6.209   3.419  0.4070  0.2133 -0.9018
  579MOL0     C76349   2.832   6.260   3.466  0.0959 -0.0641 -0.1744
  579MOL0     C76350   3.268   6.244   3.643 -0.3263 -0.2948 -0.1461
  579MOL0     C76351   3.373   6.158   3.694  0.1993  1.1110 -0.8105
  579MOL0     C76352   3.491   6.218   3.728 -0.4791 -0.2592 -0.6373
  579MOL0     C76353   3.529   6.353   3.681  0.0161  1.3756  0.4433
  579MOL0     O76354   3.641   6.417   3.692 -0.0391 -0.0149  0.4493
  579MOL0     C76355   3.737   6.379   3.794  0.1852 -0.0902  0.4571
  579MOL0     C76356   3.844   6.485   3.803  0.5213 -0.2816 -0.2058
  579MOL0     C76357   3.811   6.629   3.847  0.1129 -0.1634  0.2584
  579MOL0     C76358   3.937   6.715   3.811  0.0639 -0.2528 -0.1720
  579MOL0     C76359   4.041   6.697   3.907  0.2704 -0.7410 -0.8582
  579MOL0     C76360   4.124   6.690   3.991 -0.0444  0.5346  0.1981
  579MOL0     C76361   3.426   6.426   3.616 -0.8550  0.5568 -0.0893
  579MOL0     C76362   3.296   6.374   3.603 -1.3148  0.4826  1.0738
  579MOL0     H76363   3.018   5.982   3.464 -0.6300  0.2988 -0.8940
  579MOL0     H76364   2.815   5.890   3.357 -0.2498 -0.8166  2.8063
  579MOL0     H76365   2.491   5.922   3.467  0.4807  2.1402  0.2924
  579MOL0     H76366   2.621   5.829   3.381 -1.0224 -0.6956  2.3271
  579MOL0     H76367   2.423   5.748   3.308  0.4512 -0.5677 -0.5792
  579MOL0     H76368   2.490   5.833   3.172 -0.5153  2.8986 -0.5662
  579MOL0     H76369   2.346   6.044   3.229 -1.0668  0.4620 -0.2982
  579MOL0     H76370   2.293   5.961   3.370 -0.5941 -0.2491  0.7890
  579MOL0     H76371   2.219   5.771   3.184 -4.0845 -0.7343  2.1503
  579MOL0     H76372   2.115   5.891   3.250 -0.6443  0.0845 -1.1240
  579MOL0     H76373   2.290   5.954   3.009 -0.1703 -0.3367 -0.5143
  579MOL0     H76374   2.121   6.016   3.039  1.1605  0.0265 -0.8801
  579MOL0     H76375   2.064   5.750   3.004 -0.8987 -1.3188 -1.3369
  579MOL0     H76376   2.225   5.744   2.946  0.1405 -0.4666  2.7207
  579MOL0     H76377   2.140   5.908   2.758 -2.7993  0.0831 -1.3914
  579MOL0     H76378   2.055   5.752   2.770  0.2890 -1.0852  0.8511
  579MOL0     H76379   1.968   6.033   2.868  0.3822 -0.5347  2.2855
  579MOL0     H76380   1.891   5.894   2.948 -0.9623 -2.8564 -0.8414
  579MOL0     H76381   1.953   5.994   2.569 -0.5376  0.0142 -1.0443
  579MOL0     H76382   1.656   5.875   2.390  0.9463 -1.5779  1.3424
  579MOL0     H76383   1.811   5.965   2.357  0.5616  0.3947  1.1605
  579MOL0     H76384   1.680   6.135   2.279  0.7415  0.3242  0.2489
  579MOL0     H76385   1.699   6.165   2.454  2.6427 -3.7087  2.1475
  579MOL0     H76386   1.480   6.063   2.511  0.0204 -1.6106 -1.0908
  579MOL0     H76387   1.459   6.202   2.405 -1.0340 -0.6111  0.8087
  579MOL0     H76388   1.442   5.913   2.324  1.7011  1.1320  0.6310
  579MOL0     H76389   1.435   6.047   2.213  1.7687  2.4062  0.5986
  579MOL0     H76390   1.039   6.130   2.379  2.7665 -1.4904  1.6864
  579MOL0     H76391   0.831   6.059   2.248  0.1202 -0.9560  0.7726
  579MOL0     H76392   0.543   5.785   2.052  1.9385  1.7605  1.4355
  579MOL0     H76393   0.338   5.773   1.942  0.3554 -0.5272 -0.2350
  579MOL0     H76394   0.117   5.827   1.861  1.4686  1.3115  0.3172
  579MOL0     H76395   0.208   5.773   1.732 -1.2723 -2.0046  1.0864
  579MOL0     H76396  -0.009   5.791   1.624 -0.3663 -0.1070 -0.3572
  579MOL0     H76397   0.113   5.904   1.554 -0.6895  1.0451 -0.3674
  579MOL0     H76398   0.005   6.101   1.654  0.0483  0.0266 -0.0013
  579MOL0     H76399  -0.061   6.009   1.786 -2.9624  0.4771  0.0207
  579MOL0     H76400  -0.235   5.930   1.625  0.8363  0.1673 -2.0460
  579MOL0     H76401  -0.238   6.111   1.652 -1.8234 -1.6832  1.1723
  579MOL0     H76402  -0.121   6.147   1.444 -2.5738  1.1188 -1.5001
  579MOL0     H76403  -0.270   6.088   1.411 -0.1163  1.3405  1.7626
  579MOL0     H76404  -0.203   5.853   1.386  0.3259 -0.3613  0.0506
  579MOL0     H76405  -0.038   5.910   1.407 -0.0038  1.5493  2.0675
  579MOL0     H76406  -0.236   5.991   1.190  0.4191 -0.3672 -1.1019
  579MOL0     H76407  -0.069   6.047   1.193 -1.1577  1.0519 -0.6885
  579MOL0     H76408  -0.152   5.757   1.163  1.9396 -0.8532 -0.2744
  579MOL0     H76409   0.007   5.820   1.134  1.4392  5.1026 -0.9957
  579MOL0     H76410   0.379   6.180   1.804 -0.6255 -1.1664 -0.3638
  579MOL0     H76411   0.608   6.182   1.925  0.1841  0.0970  1.9023
  579MOL0     H76412   1.085   5.831   1.986  0.6305 -0.3611  0.2054
  579MOL0     H76413   1.282   5.896   2.121 -0.0863 -1.0029  1.3710
  579MOL0     H76414   2.627   6.271   3.425 -1.0942 -1.8451 -1.0555
  579MOL0     H76415   2.837   6.368   3.464  1.8308 -0.0992  0.5358
  579MOL0     H76416   3.366   6.052   3.717  0.0787  1.2536 -0.1616
  579MOL0     H76417   3.573   6.157   3.765 -0.7349  0.7443  1.7896
  579MOL0     H76418   3.793   6.295   3.753 -1.5730 -0.5266 -1.1871
  579MOL0     H76419   3.696   6.346   3.890 -1.6111 -5.0687 -1.7427
  579MOL0     H76420   3.925   6.449   3.866  2.0727 -0.2801 -2.0787
  579MOL0     H76421   3.883   6.491   3.700 -0.9289  0.7563 -0.7245
  579MOL0     H76422   3.796   6.617   3.954  0.9817 -0.7165  0.3245
  579MOL0     H76423   3.721   6.676   3.804  0.0833 -0.2805  0.1895
  579MOL0     H76424   3.980   6.690   3.713  0.4977  1.5653 -0.4910
  579MOL0     H76425   3.913   6.822   3.808  0.8977 -0.0826 -2.2049
  579MOL0     H76426   4.187   6.692   4.078  0.8463 -2.6674 -0.2363
  579MOL0     H76427   3.446   6.529   3.589 -1.0676  0.5555 -0.2553
  579MOL0     H76428   3.213   6.429   3.561 -0.0873  1.3605 -0.2841
  580MOL0     O76429   3.409   4.414   9.642  0.6728 -0.4676 -0.2780
  580MOL0     C76430   3.454   4.406   9.532 -0.3079  0.6779  1.0644
  580MOL0     O76431   3.384   4.396   9.408 -0.1210 -0.2142  0.1674
  580MOL0     C76432   3.245   4.399   9.415  0.1376 -0.2738  0.0563
  580MOL0     C76433   3.170   4.514   9.449  0.0250  0.7728  0.9642
  580MOL0     C76434   3.028   4.495   9.454  0.3743 -0.4481  0.0644
  580MOL0     C76435   2.965   4.386   9.399  0.5472 -0.1243  0.4781
  580MOL0     O76436   2.831   4.399   9.399  0.0381  0.6870 -0.3422
  580MOL0     C76437   2.776   4.290   9.479  0.2608 -0.6721 -0.4858
  580MOL0     C76438   2.639   4.313   9.535  0.4359 -0.2132  0.0813
  580MOL0     C76439   2.539   4.343   9.422 -0.7152 -0.2069 -0.8691
  580MOL0     C76440   2.392   4.347   9.472  0.0167 -0.0762  0.1320
  580MOL0     C76441   2.304   4.365   9.350  0.4798  0.3776  0.6189
  580MOL0     C76442   2.161   4.391   9.400 -0.3341  0.0886 -0.6840
  580MOL0     C76443   2.048   4.389   9.286  0.1677 -0.0789  0.1910
  580MOL0     C76444   1.904   4.386   9.347 -0.1057  0.5388 -0.4923
  580MOL0     N76445   1.804   4.391   9.238 -0.1694 -0.3947 -0.2562
  580MOL0     C76446   1.765   4.498   9.157 -1.2194  0.3263  0.0637
  580MOL0     C76447   1.684   4.444   9.068 -0.6662  0.7118  0.2669
  580MOL0     C76448   1.610   4.527   8.957 -0.5953 -0.7720  0.7566
  580MOL0     C76449   1.459   4.501   8.969  1.1459  0.4058  0.5359
  580MOL0     C76450   1.386   4.584   8.861  0.2842 -0.6013  0.3999
  580MOL0     C76451   1.235   4.551   8.856  0.2082 -0.2147  0.8718
  580MOL0     O76452   1.171   4.592   8.981  0.4373  0.1371  0.4950
  580MOL0     C76453   1.040   4.548   9.001 -0.2745  0.3120 -0.4393
  580MOL0     C76454   0.943   4.541   8.896 -0.3240 -0.5090 -0.9289
  580MOL0     C76455   0.814   4.483   8.916  0.1036  0.5246 -0.0282
  580MOL0     C76456   0.788   4.425   9.041 -0.2313  1.0174 -0.3677
  580MOL0     C76457   0.664   4.343   9.055  0.4275  0.7951  0.2559
  580MOL0     O76458   0.595   4.322   8.945  0.3789 -0.2629  0.0129
  580MOL0     C76459   0.468   4.270   8.944  0.0961 -0.4762 -0.6400
  580MOL0     C76460   0.418   4.203   8.827 -0.0097 -0.2833  0.6162
  580MOL0     C76461   0.291   4.175   8.810 -0.0433 -0.1757 -0.3373
  580MOL0     C76462   0.199   4.199   8.914  0.6104 -0.8801 -0.2981
  580MOL0     O76463   0.063   4.185   8.915  0.5683 -0.0185  0.0724
  580MOL0     C76464   0.012   4.148   8.791 -0.6960 -0.0815 -0.3657
  580MOL0     C76465  -0.141   4.135   8.790 -0.3883 -0.2272 -0.0192
  580MOL0     C76466  -0.193   4.083   8.663  0.2280  0.3392  0.9190
  580MOL0     C76467  -0.351   4.092   8.656  0.8119  0.2332  0.2560
  580MOL0     C76468  -0.410   4.035   8.521  0.6324 -0.3163 -0.6325
  580MOL0     C76469  -0.567   4.064   8.502 -0.3472 -0.3814 -1.3429
  580MOL0     C76470  -0.654   3.995   8.610  0.8864  0.4400  0.2678
  580MOL0     C76471  -0.809   3.996   8.580 -0.2709  0.1825 -0.2216
  580MOL0    Cl76472  -0.865   4.164   8.568 -0.3210 -0.7526 -0.1540
  580MOL0     C76473   0.244   4.261   9.031 -0.1981  0.0747 -0.1854
  580MOL0     C76474   0.373   4.310   9.041 -1.1696 -0.2345  0.1211
  580MOL0     O76475   0.642   4.297   9.166  0.6930  0.4970 -0.9899
  580MOL0     C76476   0.881   4.440   9.142 -1.0534  0.5129  0.4940
  580MOL0     C76477   1.007   4.497   9.124 -0.0620 -0.1015 -0.3244
  580MOL0     N76478   1.665   4.312   9.095  0.4454  0.5080 -0.6064
  580MOL0     N76479   1.731   4.283   9.203 -0.2115 -0.2444 -0.2327
  580MOL0     C76480   3.034   4.279   9.357 -0.7195 -0.3537 -0.1201
  580MOL0     C76481   3.178   4.282   9.387  0.9146  0.2530  0.2837
  580MOL0     C76482   3.603   4.426   9.525  0.4809  1.2811  0.0116
  580MOL0     C76483   3.680   4.436   9.639 -0.1366 -0.5535  0.2611
  580MOL0     C76484   3.823   4.446   9.632 -0.2404  0.6032 -0.4455
  580MOL0     C76485   3.885   4.452   9.507 -0.0080 -0.3681 -0.0851
  580MOL0     O76486   4.025   4.482   9.495 -1.3317  0.3658 -0.0376
  580MOL0     C76487   4.095   4.391   9.412 -0.6262  1.0687 -0.3732
  580MOL0     C76488   4.231   4.367   9.476 -0.4706 -0.2576 -0.6555
  580MOL0     C76489   4.223   4.294   9.609 -0.2972  0.7166  0.3036
  580MOL0     C76490   4.365   4.283   9.669 -0.8396  0.1457 -0.3652
  580MOL0     C76491   4.345   4.218   9.797 -0.7048  0.1845 -0.0927
  580MOL0     C76492   4.327   4.167   9.902 -0.2053  0.4648 -0.0402
  580MOL0     C76493   3.808   4.441   9.388 -0.3949 -0.5176  0.2733
  580MOL0     C76494   3.666   4.424   9.402  0.0489  0.1341  0.8255
  580MOL0     H76495   3.219   4.605   9.481  0.2403  1.0105 -0.0060
  580MOL0     H76496   2.964   4.575   9.491  0.4952  0.1420 -0.9692
  580MOL0     H76497   2.842   4.277   9.565 -1.8018  0.9999  1.4589
  580MOL0     H76498   2.768   4.191   9.433 -1.3655 -1.5282  1.4700
  580MOL0     H76499   2.626   4.396   9.605 -1.7065 -0.4799  0.0548
  580MOL0     H76500   2.603   4.225   9.590 -0.2008  0.8184  1.3801
  580MOL0     H76501   2.551   4.270   9.342 -0.1355 -1.8334  0.6496
  580MOL0     H76502   2.564   4.440   9.376 -3.4563  1.0232  0.0402
  580MOL0     H76503   2.376   4.250   9.521  0.0754  0.1336  0.5721
  580MOL0     H76504   2.378   4.430   9.542  0.3637 -0.7445  1.0169
  580MOL0     H76505   2.295   4.269   9.299  0.4163  2.0578 -2.7894
  580MOL0     H76506   2.327   4.442   9.276 -1.8721 -0.2723 -0.8667
  580MOL0     H76507   2.148   4.485   9.454 -1.3307 -0.2309 -0.3569
  580MOL0     H76508   2.139   4.309   9.469  0.0581  1.0471  0.6146
  580MOL0     H76509   2.057   4.479   9.224 -1.0121  0.5449  0.8815
  580MOL0     H76510   2.045   4.302   9.220  1.4370 -0.7038  0.9306
  580MOL0     H76511   1.896   4.464   9.423 -1.6827  1.0330 -1.1251
  580MOL0     H76512   1.902   4.292   9.403  0.2116  2.1890  2.5317
  580MOL0     H76513   1.795   4.602   9.158  0.4192 -0.0764  3.2561
  580MOL0     H76514   1.651   4.499   8.860  0.4780  2.6418  0.1155
  580MOL0     H76515   1.621   4.634   8.973  0.5480 -1.0351  1.9656
  580MOL0     H76516   1.414   4.517   9.068 -3.1170 -2.9413 -0.5674
  580MOL0     H76517   1.446   4.393   8.956 -3.1583  0.7067  0.8276
  580MOL0     H76518   1.410   4.690   8.872  0.8699 -0.6449 -0.3428
  580MOL0     H76519   1.423   4.560   8.761 -0.3098 -3.8565  0.8476
  580MOL0     H76520   1.219   4.446   8.831 -3.1269  0.5727 -0.9081
  580MOL0     H76521   1.196   4.609   8.772  2.3092 -1.3793 -0.9945
  580MOL0     H76522   0.967   4.574   8.795  2.5531 -0.6187 -0.3672
  580MOL0     H76523   0.741   4.466   8.838 -0.3733 -1.8430  0.8555
  580MOL0     H76524   0.482   4.175   8.744  0.4665  2.0642  0.1102
  580MOL0     H76525   0.262   4.130   8.716 -0.2134 -1.2698  0.2256
  580MOL0     H76526   0.046   4.046   8.767  3.1980  0.2247  2.7953
  580MOL0     H76527   0.045   4.213   8.710  0.1492  0.7359  0.6113
  580MOL0     H76528  -0.195   4.227   8.813 -1.0302 -0.7748  0.6871
  580MOL0     H76529  -0.161   4.065   8.871  2.2654  0.6206  1.5030
  580MOL0     H76530  -0.155   3.980   8.662  2.2442  1.0307 -1.0630
  580MOL0     H76531  -0.153   4.137   8.576 -2.3660  1.3140  0.2321
  580MOL0     H76532  -0.401   4.040   8.739 -0.2823 -1.9429 -1.6409
  580MOL0     H76533  -0.367   4.200   8.658  2.8375  0.5589  1.5289
  580MOL0     H76534  -0.411   3.926   8.532  0.5538 -0.1263  1.5725
  580MOL0     H76535  -0.361   4.080   8.434 -0.9318  0.5622 -1.1072
  580MOL0     H76536  -0.606   4.033   8.404 -0.4643  0.6445 -1.6280
  580MOL0     H76537  -0.590   4.169   8.518 -1.2051 -0.7155 -0.2618
  580MOL0     H76538  -0.638   3.887   8.600 -3.5524 -0.2192 -2.3523
  580MOL0     H76539  -0.649   4.042   8.709  0.6066  0.9379  0.0455
  580MOL0     H76540  -0.859   3.937   8.658 -2.1629 -1.1231 -2.2686
  580MOL0     H76541  -0.837   3.948   8.486  1.6192  0.0494 -0.7441
  580MOL0     H76542   0.165   4.280   9.103 -0.0628  0.5029 -0.1507
  580MOL0     H76543   0.399   4.369   9.129  0.4510  2.5730 -2.0752
  580MOL0     H76544   0.855   4.398   9.238  0.6914  1.2353  1.3295
  580MOL0     H76545   1.070   4.499   9.212 -1.6354 -2.4063  0.9623
  580MOL0     H76546   2.990   4.189   9.316 -0.9621 -0.5959  0.6466
  580MOL0     H76547   3.232   4.204   9.335  1.0768  0.5787 -0.0447
  580MOL0     H76548   3.630   4.418   9.734  0.0134 -2.2925  0.0369
  580MOL0     H76549   3.895   4.456   9.713 -1.8366  3.7218  0.7864
  580MOL0     H76550   4.110   4.441   9.316 -0.2562  0.4084 -0.6713
  580MOL0     H76551   4.046   4.294   9.399  0.3347  0.7035 -1.4136
  580MOL0     H76552   4.289   4.314   9.400 -1.4737 -0.3323 -1.3965
  580MOL0     H76553   4.270   4.467   9.497 -0.5880  0.4798 -3.5217
  580MOL0     H76554   4.176   4.196   9.601  0.5013  0.1215  2.3254
  580MOL0     H76555   4.166   4.358   9.677  0.0799  1.4213 -0.0308
  580MOL0     H76556   4.436   4.228   9.607 -2.1431 -0.6307 -1.2288
  580MOL0     H76557   4.406   4.384   9.678  1.7269 -0.7288 -1.4174
  580MOL0     H76558   4.315   4.103   9.988 -2.7819 -0.6678 -1.1359
  580MOL0     H76559   3.852   4.441   9.289  0.9626 -0.1366  0.8495
  580MOL0     H76560   3.622   4.397   9.307  2.4044  2.2842 -1.0252
  581MOL0     O76561   5.486   4.727  10.580  0.3769  0.7117  0.2349
  581MOL0     C76562   5.473   4.848  10.588  0.2346  0.9060 -0.8349
  581MOL0     O76563   5.360   4.917  10.564  0.0820 -0.0581 -0.5320
  581MOL0     C76564   5.253   4.844  10.518  0.3993  0.6096 -0.7274
  581MOL0     C76565   5.156   4.779  10.596 -0.3440  0.2088 -0.6809
  581MOL0     C76566   5.051   4.709  10.546  0.7732  0.4078  0.0725
  581MOL0     C76567   5.048   4.678  10.407  0.1092 -0.1907  0.2270
  581MOL0     O76568   4.965   4.588  10.341 -0.4309  0.3189 -0.2985
  581MOL0     C76569   4.834   4.573  10.398  0.0971 -0.2978 -0.0992
  581MOL0     C76570   4.762   4.495  10.294 -0.3754  0.7980  1.0397
  581MOL0     C76571   4.610   4.486  10.333 -0.0567 -0.3847 -0.2137
  581MOL0     C76572   4.526   4.472  10.204 -0.3109 -0.5544  0.1033
  581MOL0     C76573   4.372   4.485  10.222 -0.3282 -0.0572  0.8636
  581MOL0     C76574   4.293   4.495  10.087 -0.4903 -0.7252 -0.1020
  581MOL0     C76575   4.145   4.461  10.106  0.7843  0.0164 -0.2884
  581MOL0     C76576   4.071   4.454   9.973  0.1918  0.6895  0.7505
  581MOL0     N76577   3.933   4.420  10.000  0.0181 -0.1397  0.1868
  581MOL0     C76578   3.849   4.490  10.085  0.3731  0.7258 -0.0115
  581MOL0     C76579   3.741   4.408  10.105 -0.0748  0.0553  0.2816
  581MOL0     C76580   3.623   4.449  10.184  0.1748 -0.6287  0.3600
  581MOL0     C76581   3.501   4.473  10.098  0.3976  0.1939 -0.6910
  581MOL0     C76582   3.461   4.351  10.008  0.1546 -0.0272 -0.1956
  581MOL0     C76583   3.320   4.366   9.943  0.0029 -0.0367  0.3779
  581MOL0     O76584   3.230   4.398  10.049  0.1335  0.4650  0.0947
  581MOL0     C76585   3.099   4.416  10.015  0.7879  0.3356 -0.4688
  581MOL0     C76586   3.021   4.442  10.121  0.3862  0.1055 -0.1212
  581MOL0     C76587   2.877   4.469  10.117 -0.1516 -0.1205 -0.2225
  581MOL0     C76588   2.813   4.457   9.995  0.1574 -0.1795  0.2468
  581MOL0     C76589   2.670   4.473   9.978 -0.0117 -0.2933  0.3884
  581MOL0     O76590   2.606   4.421   9.864 -0.0843  0.3064 -0.7382
  581MOL0     C76591   2.466   4.436   9.855 -0.5515 -0.9821  0.1536
  581MOL0     C76592   2.406   4.566   9.840  0.5775  0.3005  0.5347
  581MOL0     C76593   2.272   4.585   9.825  0.9141 -0.2939  0.0743
  581MOL0     C76594   2.186   4.472   9.815 -0.4303  0.0824 -0.0397
  581MOL0     O76595   2.054   4.484   9.796 -0.2468  0.0004  0.0068
  581MOL0     C76596   1.996   4.611   9.766  0.1851  0.0210 -0.9941
  581MOL0     C76597   1.859   4.579   9.725  0.0520  0.4532 -0.3372
  581MOL0     C76598   1.788   4.678   9.636 -0.1441 -0.0374 -0.6800
  581MOL0     C76599   1.636   4.646   9.603 -0.2841 -0.1884  0.5652
  581MOL0     C76600   1.561   4.748   9.513 -0.1558  0.0112  0.3422
  581MOL0     C76601   1.406   4.710   9.513  0.3755 -0.1060 -0.1851
  581MOL0     C76602   1.358   4.562   9.479 -0.4975 -0.6929  0.2675
  581MOL0     C76603   1.231   4.525   9.557 -0.3507  0.1546  0.0404
  581MOL0    Cl76604   1.078   4.568   9.477 -0.3821  0.2103 -0.0237
  581MOL0     C76605   2.239   4.341   9.815 -0.2668  0.1115  0.4356
  581MOL0     C76606   2.382   4.325   9.831  0.3949 -0.6774  0.4949
  581MOL0     O76607   2.617   4.534  10.073 -0.2628 -0.0734  0.2770
  581MOL0     C76608   2.888   4.426   9.878 -1.1905  1.6186 -0.2044
  581MOL0     C76609   3.028   4.400   9.890 -0.2981  0.1874 -0.6467
  581MOL0     N76610   3.761   4.295  10.026  0.6048  0.1817  0.3117
  581MOL0     N76611   3.877   4.301   9.962 -0.3020 -0.5257  1.2951
  581MOL0     C76612   5.150   4.742  10.327 -0.0947 -0.1062 -0.0067
  581MOL0     C76613   5.244   4.833  10.380 -0.0074 -0.3667 -0.4335
  581MOL0     C76614   5.589   4.923  10.623 -0.8190 -0.0948  0.5650
  581MOL0     C76615   5.581   5.057  10.658 -0.6933 -0.4104 -1.1133
  581MOL0     C76616   5.697   5.137  10.690  0.2427 -0.0835 -0.2641
  581MOL0     C76617   5.823   5.074  10.683 -0.6641  0.3116  0.2061
  581MOL0     O76618   5.921   5.161  10.723 -0.4690  0.0073  0.5592
  581MOL0     C76619   6.055   5.104  10.751  0.3784 -0.1784  0.0272
  581MOL0     C76620   6.146   5.213  10.813  0.2956  1.0761 -0.3994
  581MOL0     C76621   6.153   5.334  10.719  0.2215  1.0877 -0.2554
  581MOL0     C76622   6.271   5.423  10.742 -0.2489  0.0263  0.4940
  581MOL0     C76623   6.387   5.357  10.687 -0.6782 -0.3200  0.1577
  581MOL0     C76624   6.476   5.295  10.634  0.2143 -0.0103 -0.9265
  581MOL0     C76625   5.829   4.937  10.646 -0.4209 -0.8870 -0.1243
  581MOL0     C76626   5.718   4.862  10.626  0.2381 -0.0965  0.3853
  581MOL0     H76627   5.155   4.775  10.704 -2.2234  0.5869 -0.6518
  581MOL0     H76628   4.982   4.661  10.615  1.3274 -0.6194 -0.0683
  581MOL0     H76629   4.789   4.672  10.415 -0.9554 -1.0245  1.6317
  581MOL0     H76630   4.830   4.533  10.500  0.5820  2.3254  1.0608
  581MOL0     H76631   4.812   4.398  10.295  0.0025  0.9979  1.7512
  581MOL0     H76632   4.778   4.545  10.198 -2.3261  1.2361  0.9030
  581MOL0     H76633   4.580   4.581  10.378 -2.3866 -1.9941  1.9172
  581MOL0     H76634   4.589   4.404  10.403  1.5005 -1.3795 -0.8737
  581MOL0     H76635   4.563   4.548  10.134  1.1270  0.0666  1.4813
  581MOL0     H76636   4.559   4.377  10.162  1.8429  0.9572 -1.9550
  581MOL0     H76637   4.354   4.567  10.292  1.3605  0.3903  0.8224
  581MOL0     H76638   4.349   4.385  10.260  4.6955 -1.8473  0.0142
  581MOL0     H76639   4.344   4.443  10.006  0.0995  0.4994 -0.5430
  581MOL0     H76640   4.289   4.601  10.062  1.9002 -0.2729  1.2331
  581MOL0     H76641   4.144   4.366  10.160  1.0846  1.3895  2.2777
  581MOL0     H76642   4.101   4.538  10.170 -0.2037  1.0149 -2.1145
  581MOL0     H76643   4.117   4.381   9.905 -0.5182  0.7762  0.1703
  581MOL0     H76644   4.074   4.551   9.923  0.7208  0.7763  0.9389
  581MOL0     H76645   3.849   4.593  10.119 -0.2723  0.7710 -0.1325
  581MOL0     H76646   3.648   4.544  10.232 -4.1495  2.7126 -3.0463
  581MOL0     H76647   3.602   4.372  10.258  0.3884 -0.3475  0.7177
  581MOL0     H76648   3.520   4.552  10.025 -0.8368 -0.5071 -1.8174
  581MOL0     H76649   3.415   4.502  10.160  0.0299 -0.0631 -1.0750
  581MOL0     H76650   3.536   4.333   9.930 -0.1779  2.8753 -1.3078
  581MOL0     H76651   3.456   4.259  10.066 -0.3746 -1.1222 -1.8781
  581MOL0     H76652   3.301   4.275   9.885  4.5264  0.8747 -3.0799
  581MOL0     H76653   3.337   4.449   9.874  3.2358 -0.0303  1.0037
  581MOL0     H76654   3.069   4.455  10.218 -2.2767 -2.3245  1.6924
  581MOL0     H76655   2.819   4.502  10.203 -0.7861 -0.4235 -0.5248
  581MOL0     H76656   2.475   4.650   9.843  0.6353  0.2451  0.8727
  581MOL0     H76657   2.232   4.686   9.824  1.5612 -0.0045  1.4851
  581MOL0     H76658   2.048   4.654   9.680  3.0134 -1.4335 -0.1381
  581MOL0     H76659   1.994   4.673   9.856 -0.5738 -0.7240 -0.4855
  581MOL0     H76660   1.800   4.581   9.817  0.1545 -0.6452 -0.2408
  581MOL0     H76661   1.847   4.477   9.688 -3.9235  1.0723 -1.1688
  581MOL0     H76662   1.851   4.681   9.547  0.1151 -0.4913 -0.5132
  581MOL0     H76663   1.787   4.780   9.676  4.1767 -0.2948  0.6068
  581MOL0     H76664   1.641   4.549   9.552 -0.8788 -0.5392  1.1538
  581MOL0     H76665   1.575   4.635   9.693 -0.6723 -1.1339  0.2051
  581MOL0     H76666   1.617   4.749   9.419 -0.4589  0.7510  0.1658
  581MOL0     H76667   1.566   4.851   9.547 -1.4603  0.8866 -1.8905
  581MOL0     H76668   1.356   4.766   9.433 -1.9675 -2.0104 -0.1474
  581MOL0     H76669   1.363   4.748   9.606 -0.1500  1.6144 -1.0972
  581MOL0     H76670   1.342   4.555   9.371 -4.3624  1.0002  0.5533
  581MOL0     H76671   1.437   4.495   9.514 -1.6591 -1.1989  2.0381
  581MOL0     H76672   1.228   4.575   9.654 -3.7852 -3.2462  1.9359
  581MOL0     H76673   1.234   4.417   9.570 -3.4350  0.1413  1.4107
  581MOL0     H76674   2.177   4.253   9.799  1.3509 -1.0435  0.2904
  581MOL0     H76675   2.425   4.226   9.838  1.3292 -0.3194  0.0232
  581MOL0     H76676   2.842   4.402   9.783 -0.0522 -0.7987 -0.2060
  581MOL0     H76677   3.079   4.370   9.799  0.4118 -2.6703  0.5962
  581MOL0     H76678   5.152   4.727  10.220  1.5247  0.4023 -0.0694
  581MOL0     H76679   5.319   4.891  10.327  1.2920 -1.9086 -0.3518
  581MOL0     H76680   5.486   5.106  10.678 -0.6344 -0.4385 -0.7554
  581MOL0     H76681   5.682   5.241  10.714  3.4183  0.4703 -0.2989
  581MOL0     H76682   6.089   5.077  10.651  0.8906  1.4294 -0.2563
  581MOL0     H76683   6.042   5.023  10.823 -0.4856  1.1257  1.3875
  581MOL0     H76684   6.118   5.241  10.915 -1.1783 -2.5283  0.3424
  581MOL0     H76685   6.245   5.168  10.826 -1.3649 -2.7643  0.4091
  581MOL0     H76686   6.072   5.405  10.741 -0.1911  1.1827 -1.9351
  581MOL0     H76687   6.136   5.295  10.618 -1.4844  0.1937  0.3364
  581MOL0     H76688   6.256   5.511  10.680 -0.9973 -0.0280  0.5925
  581MOL0     H76689   6.280   5.451  10.848 -1.8338  2.3029  0.0981
  581MOL0     H76690   6.559   5.234  10.604  3.0229  1.0325  3.7023
  581MOL0     H76691   5.925   4.888  10.639  0.2120  0.1524  0.9244
  581MOL0     H76692   5.728   4.755  10.607 -1.8141 -0.2952  0.1189
  582MOL0     O76693   0.908   4.122  10.122 -0.3704 -0.0753  0.0905
  582MOL0     C76694   1.003   4.059  10.159 -1.0649 -0.5750  0.1732
  582MOL0     O76695   1.008   3.971  10.257  0.3614 -0.5456  0.3381
  582MOL0     C76696   0.897   3.910  10.306  0.3673  0.5142 -0.1645
  582MOL0     C76697   0.769   3.919  10.249 -0.7099  0.2808  0.5744
  582MOL0     C76698   0.656   3.848  10.304  0.0757 -0.0940  0.1416
  582MOL0     C76699   0.670   3.779  10.422  0.6273 -0.0438 -0.0099
  582MOL0     O76700   0.566   3.716  10.488  0.0927 -0.4768 -0.0078
  582MOL0     C76701   0.454   3.663  10.415  0.2544 -0.0014 -0.4956
  582MOL0     C76702   0.365   3.584  10.515  0.1469 -0.3047 -0.9365
  582MOL0     C76703   0.442   3.479  10.586  0.0964 -0.5574 -0.4631
  582MOL0     C76704   0.368   3.385  10.688  0.1193 -0.5527 -0.3057
  582MOL0     C76705   0.450   3.270  10.753  1.2002  0.4584  0.5941
  582MOL0     C76706   0.587   3.304  10.801 -0.6296  0.7243  0.4980
  582MOL0     C76707   0.622   3.215  10.919 -0.6506 -0.8415 -0.4131
  582MOL0     C76708   0.627   3.059  10.899  0.2327 -0.2125 -0.0543
  582MOL0     N76709   0.729   3.019  10.799 -0.3367 -0.0186 -0.0867
  582MOL0     C76710   0.862   3.026  10.805 -0.5295 -1.1299  0.0932
  582MOL0     C76711   0.906   2.970  10.689 -0.0069 -0.2188  0.2048
  582MOL0     C76712   1.050   2.952  10.658  0.1798 -0.4479  0.2145
  582MOL0     C76713   1.142   3.069  10.695  0.4304 -0.5251  0.2089
  582MOL0     C76714   1.188   3.065  10.845  0.4776 -0.0524  0.7597
  582MOL0     C76715   1.337   3.030  10.870 -0.5145  0.3171 -0.5760
  582MOL0     O76716   1.352   2.986  11.012 -0.2841 -0.0600  0.2530
  582MOL0     C76717   1.479   2.964  11.057  0.1305  0.6158 -0.3096
  582MOL0     C76718   1.490   2.940  11.195  0.5442  0.7584 -0.6267
  582MOL0     C76719   1.613   2.916  11.250 -0.9871  0.4407 -0.0064
  582MOL0     C76720   1.726   2.921  11.173  0.6027  0.2866  0.0056
  582MOL0     C76721   1.861   2.914  11.232 -0.0142  0.0355  0.5393
  582MOL0     O76722   1.960   2.853  11.157  0.0536 -0.2149  0.5400
  582MOL0     C76723   2.096   2.859  11.191  0.1893 -0.3566  0.1845
  582MOL0     C76724   2.175   2.758  11.144  0.0722 -0.2259  0.2111
  582MOL0     C76725   2.318   2.769  11.146 -0.1606 -0.0829 -0.6795
  582MOL0     C76726   2.378   2.872  11.218  0.3603  0.2333 -1.1785
  582MOL0     O76727   2.511   2.889  11.229 -0.2085 -0.7933 -0.0437
  582MOL0     C76728   2.601   2.793  11.163  0.0432 -0.7470  0.1130
  582MOL0     C76729   2.731   2.835  11.212 -0.6130  0.2463 -1.1636
  582MOL0     C76730   2.746   2.828  11.371  0.7910 -0.1419 -0.5541
  582MOL0     C76731   2.883   2.889  11.407 -0.4310 -0.1340 -0.5098
  582MOL0     C76732   2.897   2.881  11.557  0.3046 -0.3024 -0.7040
  582MOL0     C76733   3.016   2.967  11.603  0.3250 -0.3399 -0.0726
  582MOL0     C76734   3.030   2.964  11.757 -0.6826 -0.5271 -0.4196
  582MOL0     C76735   3.151   3.053  11.811  0.2115  0.0930 -0.3088
  582MOL0    Cl76736   3.304   2.983  11.765 -0.0244 -0.5891  0.2793
  582MOL0     C76737   2.292   2.952  11.284  0.6922 -0.5828  0.3601
  582MOL0     C76738   2.157   2.960  11.259  0.5383  0.0743 -0.5988
  582MOL0     O76739   1.879   2.965  11.345  0.5720 -0.0840 -0.0087
  582MOL0     C76740   1.715   2.935  11.035  0.0898  0.0078 -0.1487
  582MOL0     C76741   1.590   2.956  10.984  0.3792 -0.0839 -0.7243
  582MOL0     N76742   0.800   2.926  10.610 -0.2425  1.0052 -0.2521
  582MOL0     N76743   0.698   2.953  10.683 -0.0141  0.1645 -1.2302
  582MOL0     C76744   0.795   3.770  10.483  0.2483  0.4315 -0.0410
  582MOL0     C76745   0.905   3.838  10.429 -0.9644 -0.7964 -0.1346
  582MOL0     C76746   1.132   4.108  10.114 -0.2001  0.0919  0.1696
  582MOL0     C76747   1.158   4.223  10.033 -0.7134 -0.1437  0.4082
  582MOL0     C76748   1.283   4.257   9.973 -0.4715  0.4674  0.5687
  582MOL0     C76749   1.396   4.176  10.012  0.2533  0.3955  0.5104
  582MOL0     O76750   1.516   4.204   9.951 -0.2110  0.1237  0.2191
  582MOL0     C76751   1.631   4.164  10.025 -0.2323  0.5737  0.1788
  582MOL0     C76752   1.715   4.288  10.030 -0.1510 -0.5732  0.4156
  582MOL0     C76753   1.856   4.263  10.068 -0.4522 -0.2680 -0.4772
  582MOL0     C76754   1.869   4.199  10.198 -0.1596 -0.2675  0.0728
  582MOL0     C76755   2.009   4.186  10.242  0.6696 -0.6750  0.0099
  582MOL0     C76756   2.125   4.177  10.268  0.6272 -0.4179 -0.3091
  582MOL0     C76757   1.380   4.069  10.101  0.9185 -0.3793  0.4374
  582MOL0     C76758   1.253   4.038  10.149  0.0117  0.2323  0.2938
  582MOL0     H76759   0.750   3.956  10.148 -1.5493  0.4757  0.7949
  582MOL0     H76760   0.560   3.851  10.253  0.7770 -1.2732 -1.3308
  582MOL0     H76761   0.468   3.594  10.332 -3.8814  0.0405 -1.4281
  582MOL0     H76762   0.396   3.749  10.381  0.8665  0.6776  0.1318
  582MOL0     H76763   0.274   3.550  10.464 -1.0777 -1.5243  1.8650
  582MOL0     H76764   0.345   3.662  10.590 -0.4957 -0.2022 -1.2003
  582MOL0     H76765   0.518   3.536  10.640  0.0477 -0.0171 -0.9512
  582MOL0     H76766   0.495   3.415  10.516  0.9631 -0.2130 -0.1335
  582MOL0     H76767   0.311   3.451  10.754 -1.1865 -0.7252 -1.2258
  582MOL0     H76768   0.289   3.332  10.633 -0.1534 -0.4117 -0.0536
  582MOL0     H76769   0.468   3.182  10.691 -0.1876  0.6981 -0.2127
  582MOL0     H76770   0.395   3.223  10.835  0.4162 -0.6661 -0.5230
  582MOL0     H76771   0.593   3.408  10.833 -3.8123  1.3390 -0.5302
  582MOL0     H76772   0.654   3.294  10.715  0.9824  3.6237  1.2761
  582MOL0     H76773   0.720   3.238  10.961 -1.5256  0.5207  0.9892
  582MOL0     H76774   0.556   3.238  11.004 -1.1714 -2.2801 -0.4032
  582MOL0     H76775   0.531   3.016  10.869  1.6212 -3.3890 -0.3587
  582MOL0     H76776   0.650   3.008  10.993 -3.8979 -0.2091  1.1728
  582MOL0     H76777   0.903   3.073  10.894 -2.0391 -0.7446  0.6014
  582MOL0     H76778   1.054   2.929  10.551  1.9417  4.6334 -1.1002
  582MOL0     H76779   1.078   2.864  10.716  0.4745  1.0007  2.4060
  582MOL0     H76780   1.099   3.162  10.655  0.3172 -1.5593 -2.2534
  582MOL0     H76781   1.229   3.057  10.629 -0.8516  1.8387 -2.1072
  582MOL0     H76782   1.176   3.170  10.874  0.1252  1.2247 -3.2881
  582MOL0     H76783   1.123   2.996  10.899 -0.0173  0.2968  0.6190
  582MOL0     H76784   1.394   3.122  10.857  0.5518 -0.0158  1.2985
  582MOL0     H76785   1.378   2.951  10.805  0.2053  2.0968 -2.3779
  582MOL0     H76786   1.406   2.939  11.265  2.1645 -1.1520  1.4385
  582MOL0     H76787   1.620   2.901  11.357  1.6949  2.1586  0.1486
  582MOL0     H76788   2.134   2.671  11.094  0.0964 -1.8420  2.8331
  582MOL0     H76789   2.375   2.685  11.107  0.0525 -0.4356  0.3733
  582MOL0     H76790   2.595   2.806  11.054 -3.1823 -1.2722  0.1281
  582MOL0     H76791   2.583   2.687  11.183  0.1454 -1.3472 -2.5189
  582MOL0     H76792   2.766   2.933  11.179  0.9497 -0.1775 -0.8469
  582MOL0     H76793   2.793   2.755  11.171  0.4066  0.7807 -0.6948
  582MOL0     H76794   2.732   2.724  11.400 -1.0676 -0.0684 -1.0613
  582MOL0     H76795   2.671   2.886  11.426  1.6435 -1.8337  2.6707
  582MOL0     H76796   2.956   2.842  11.340  0.4114 -0.1494  0.3938
  582MOL0     H76797   2.881   2.994  11.375  0.9169 -0.8902 -3.3832
  582MOL0     H76798   2.906   2.781  11.601  1.4530  0.2362  0.3914
  582MOL0     H76799   2.807   2.934  11.590 -0.7244 -3.3582  1.9514
  582MOL0     H76800   2.993   3.072  11.582  0.6841  0.2767  2.2494
  582MOL0     H76801   3.110   2.938  11.555  1.5561  3.5731 -0.3664
  582MOL0     H76802   2.935   2.994  11.803 -0.7462 -0.8191 -0.3550
  582MOL0     H76803   3.047   2.860  11.787 -4.3627 -0.4154  2.8498
  582MOL0     H76804   3.155   3.045  11.920  1.7149 -3.0664 -0.4859
  582MOL0     H76805   3.142   3.155  11.773 -1.9841 -0.3309 -1.0153
  582MOL0     H76806   2.326   3.039  11.338  0.5128  0.3992 -1.0679
  582MOL0     H76807   2.094   3.036  11.303  1.0505 -0.8205  1.8959
  582MOL0     H76808   1.802   2.930  10.970  0.8725 -1.6441  0.9447
  582MOL0     H76809   1.580   2.963  10.876  0.1844  0.0146 -0.7012
  582MOL0     H76810   0.801   3.699  10.565  1.6948  1.6503  0.9731
  582MOL0     H76811   1.001   3.828  10.479 -1.0445 -0.3755  0.1069
  582MOL0     H76812   1.073   4.282  10.000 -1.3759 -0.6267  1.2083
  582MOL0     H76813   1.292   4.328   9.891 -0.1694 -2.0123 -1.7064
  582MOL0     H76814   1.687   4.083   9.978  2.5486  1.9966  0.8635
  582MOL0     H76815   1.610   4.141  10.130 -0.9016  1.6350  0.2935
  582MOL0     H76816   1.719   4.333   9.930 -1.0824  2.7734  1.7225
  582MOL0     H76817   1.659   4.350  10.101  0.4145  0.5078 -0.0623
  582MOL0     H76818   1.907   4.360  10.072  0.2913 -0.6396  3.7342
  582MOL0     H76819   1.908   4.192  10.004  1.8226 -0.6518  1.6550
  582MOL0     H76820   1.807   4.261  10.263  0.3095  1.7678 -1.3059
  582MOL0     H76821   1.829   4.098  10.197 -0.6728 -0.0737 -0.8216
  582MOL0     H76822   2.228   4.175  10.296  0.3879  2.4178  1.1062
  582MOL0     H76823   1.460   4.002  10.133 -0.3601  0.1300  5.4019
  582MOL0     H76824   1.245   3.946  10.207 -1.1844  1.4132  2.0966
  583MOL0     O76825  11.159   3.233   8.161  0.5050 -0.2448 -0.3348
  583MOL0     C76826  11.266   3.211   8.226  0.7045  0.7693 -0.3062
  583MOL0     O76827  11.270   3.197   8.359 -0.4970 -0.0788 -0.8925
  583MOL0     C76828  11.155   3.205   8.438 -0.3646  0.2028 -0.1493
  583MOL0     C76829  11.145   3.291   8.551  0.1061  0.7679 -0.4523
  583MOL0     C76830  11.027   3.295   8.618  0.1005  0.3444  0.0384
  583MOL0     C76831  10.916   3.214   8.585 -0.8620 -0.4383  0.5035
  583MOL0     O76832  10.800   3.231   8.649  0.4216 -0.7627  0.0613
  583MOL0     C76833  10.798   3.222   8.791 -0.1933 -0.4942 -0.2075
  583MOL0     C76834  10.660   3.206   8.842 -0.4287 -0.6371 -0.3475
  583MOL0     C76835  10.589   3.081   8.791  1.1965  0.0335  0.0604
  583MOL0     C76836  10.435   3.074   8.834 -1.6351 -0.4131  0.0674
  583MOL0     C76837  10.367   2.949   8.774  0.1518 -0.6904 -0.4738
  583MOL0     C76838  10.221   2.932   8.808  0.0078 -0.6474 -0.4339
  583MOL0     C76839  10.166   2.786   8.771 -0.6633 -0.7534 -0.3824
  583MOL0     C76840  10.165   2.741   8.620 -0.5713  0.0205  0.5107
  583MOL0     N76841  10.073   2.629   8.593 -0.0231  0.1823  0.7140
  583MOL0     C76842  10.044   2.528   8.680 -0.2621 -0.2388 -0.6841
  583MOL0     C76843   9.945   2.461   8.615 -0.0535 -0.0928  0.0162
  583MOL0     C76844   9.856   2.360   8.674 -0.4167 -0.2632 -0.0412
  583MOL0     C76845   9.734   2.416   8.756  0.3426 -0.2320 -0.9501
  583MOL0     C76846   9.755   2.512   8.877 -0.7386 -0.3217  0.2470
  583MOL0     C76847   9.631   2.579   8.928  1.0421  0.3433 -0.7416
  583MOL0     O76848   9.538   2.473   8.966  0.5780 -0.4838 -0.1136
  583MOL0     C76849   9.405   2.494   8.971  0.1125 -0.1359  0.0772
  583MOL0     C76850   9.350   2.626   8.986 -0.1951  0.5981 -0.7752
  583MOL0     C76851   9.214   2.643   8.995  0.6326  0.0818  0.4877
  583MOL0     C76852   9.129   2.537   9.010 -0.1722 -0.5693  0.6060
  583MOL0     C76853   8.988   2.559   9.043  0.2532  0.5133  0.0706
  583MOL0     O76854   8.899   2.465   9.003 -0.2043 -0.6736 -0.2599
  583MOL0     C76855   8.763   2.480   9.020 -0.4168  0.5397 -0.5745
  583MOL0     C76856   8.699   2.399   8.931  0.3553 -0.0927 -0.4734
  583MOL0     C76857   8.554   2.398   8.933  0.4004  0.6635  0.4002
  583MOL0     C76858   8.482   2.481   9.017 -0.1864 -0.6718  0.9555
  583MOL0     O76859   8.348   2.496   9.025  0.5621  0.9599 -0.4296
  583MOL0     C76860   8.261   2.375   8.993 -0.0899 -0.6132 -0.6959
  583MOL0     C76861   8.115   2.423   9.010 -0.3595  0.5490  0.5882
  583MOL0     C76862   8.016   2.297   8.998 -0.7779 -0.8079 -0.4639
  583MOL0     C76863   7.877   2.351   8.994 -0.0025  0.2484  0.2911
  583MOL0     C76864   7.784   2.228   8.979 -0.9193 -0.6693 -0.5213
  583MOL0     C76865   7.637   2.261   8.957 -0.1525  0.4123 -1.0714
  583MOL0     C76866   7.551   2.134   8.915  0.0958  0.3093 -1.1812
  583MOL0     C76867   7.399   2.151   8.944 -0.7422  0.5824  1.3348
  583MOL0    Cl76868   7.315   1.993   8.914 -0.1744  0.0427 -0.0413
  583MOL0     C76869   8.552   2.571   9.100 -0.2660 -0.0747  0.4006
  583MOL0     C76870   8.691   2.566   9.109 -0.0872 -0.3406  0.4234
  583MOL0     O76871   8.959   2.667   9.090 -0.5492 -0.2530  0.0014
  583MOL0     C76872   9.180   2.408   9.015 -0.3564  0.9021 -0.1978
  583MOL0     C76873   9.320   2.389   8.985  0.5334  0.2531  0.5972
  583MOL0     N76874   9.920   2.519   8.494 -0.0673  0.4847  0.4114
  583MOL0     N76875   9.997   2.616   8.480 -0.6310 -0.1004  0.0093
  583MOL0     C76876  10.926   3.141   8.469  0.0404  0.6115 -0.9231
  583MOL0     C76877  11.040   3.136   8.392  0.1827  0.7022  0.2703
  583MOL0     C76878  11.382   3.167   8.148 -0.3739 -0.4257  0.6495
  583MOL0     C76879  11.501   3.119   8.216  0.7134 -0.7710 -0.0809
  583MOL0     C76880  11.614   3.084   8.135  0.5439  0.4614 -0.7947
  583MOL0     C76881  11.609   3.073   8.000  0.2332 -1.3234  0.1280
  583MOL0     O76882  11.730   3.034   7.937 -0.0222 -0.6811  0.1039
  583MOL0     C76883  11.741   3.067   7.804  0.3827 -0.8532  0.1280
  583MOL0     C76884  11.869   3.015   7.728 -0.2936 -0.3905  0.3739
  583MOL0     C76885  11.980   3.074   7.808 -0.4368  0.0106  0.0349
  583MOL0     C76886  12.103   2.993   7.760  0.5381 -0.0847 -0.9242
  583MOL0     C76887  12.202   3.000   7.868 -0.0149  0.3683 -0.4276
  583MOL0     C76888  12.291   2.985   7.958  0.2034 -0.2142  0.5446
  583MOL0     C76889  11.491   3.114   7.929 -1.2551 -0.3065 -0.0085
  583MOL0     C76890  11.382   3.166   7.999  0.4264 -0.6186  0.2837
  583MOL0     H76891  11.228   3.341   8.599 -1.1947  1.1308  1.5064
  583MOL0     H76892  11.020   3.360   8.705 -1.5742 -0.7409  0.7632
  583MOL0     H76893  10.849   3.308   8.836 -0.5736 -2.3342  4.2462
  583MOL0     H76894  10.857   3.132   8.812  0.2953 -0.3916 -1.1060
  583MOL0     H76895  10.599   3.294   8.817  0.4038 -0.6486 -2.6447
  583MOL0     H76896  10.661   3.203   8.951  1.4808  4.4969  0.0613
  583MOL0     H76897  10.639   2.990   8.826 -0.2457 -1.7797 -2.2890
  583MOL0     H76898  10.593   3.083   8.682 -2.7809  1.8380 -0.1875
  583MOL0     H76899  10.427   3.073   8.943  0.5782 -3.0285  0.3238
  583MOL0     H76900  10.383   3.160   8.792 -0.3310 -1.0346 -3.1363
  583MOL0     H76901  10.433   2.881   8.829 -1.3098 -0.8305  1.2148
  583MOL0     H76902  10.384   2.938   8.667 -1.7814 -1.3213 -0.7555
  583MOL0     H76903  10.166   3.013   8.758 -1.1527  0.1038  1.9157
  583MOL0     H76904  10.194   2.944   8.913  1.6926  4.3651 -0.3090
  583MOL0     H76905  10.236   2.718   8.822  1.2644  1.2481 -0.2065
  583MOL0     H76906  10.068   2.781   8.818  0.1344 -1.4762  1.2877
  583MOL0     H76907  10.260   2.698   8.589  0.3410  1.1071  1.7098
  583MOL0     H76908  10.137   2.828   8.560 -0.2980  0.8766  1.5956
  583MOL0     H76909  10.079   2.520   8.782  2.5246 -1.4616 -1.6350
  583MOL0     H76910   9.919   2.303   8.743  0.5034  0.4266 -0.2803
  583MOL0     H76911   9.829   2.293   8.592  0.2927 -0.0684 -0.4455
  583MOL0     H76912   9.685   2.328   8.800 -2.2170  0.4449 -2.2520
  583MOL0     H76913   9.665   2.468   8.690 -0.4362 -0.0753 -0.0327
  583MOL0     H76914   9.810   2.461   8.957 -0.8597 -0.0548  0.5029
  583MOL0     H76915   9.816   2.590   8.830  4.0826 -2.4242  2.3308
  583MOL0     H76916   9.595   2.631   8.839  0.4510  0.3056 -0.5293
  583MOL0     H76917   9.666   2.650   9.004 -1.9756  1.2821 -0.0939
  583MOL0     H76918   9.396   2.723   9.001 -3.2755  2.2893 -1.4393
  583MOL0     H76919   9.175   2.744   9.004 -0.8503 -0.4402  0.2604
  583MOL0     H76920   8.759   2.334   8.867 -0.6260 -2.6281  1.0554
  583MOL0     H76921   8.505   2.335   8.859  0.8685 -1.1245  1.5661
  583MOL0     H76922   8.275   2.293   9.064  1.1901 -1.8208 -2.2563
  583MOL0     H76923   8.279   2.333   8.894 -3.1579  0.2911 -1.7507
  583MOL0     H76924   8.096   2.490   8.926 -2.3275  0.4888  0.9384
  583MOL0     H76925   8.097   2.476   9.103 -1.7005 -1.7462  1.7336
  583MOL0     H76926   8.032   2.236   9.087 -0.7896 -0.2461 -0.0699
  583MOL0     H76927   8.035   2.232   8.912  0.3441 -0.0145 -0.8370
  583MOL0     H76928   7.846   2.400   9.087  1.0277  0.5210  0.4997
  583MOL0     H76929   7.862   2.424   8.914 -0.1137  0.9592  0.9406
  583MOL0     H76930   7.786   2.165   9.069  2.0489  1.4120  1.0321
  583MOL0     H76931   7.814   2.161   8.899 -1.2110 -0.1675 -1.0598
  583MOL0     H76932   7.632   2.339   8.880  1.5094  1.4583 -0.1848
  583MOL0     H76933   7.588   2.310   9.041  0.3785  3.2066 -2.2455
  583MOL0     H76934   7.570   2.123   8.808 -0.0360 -1.6866 -1.0348
  583MOL0     H76935   7.597   2.048   8.965 -1.3606  0.7110  0.9844
  583MOL0     H76936   7.365   2.229   8.874  0.1968 -0.3032 -0.1813
  583MOL0     H76937   7.391   2.189   9.046  0.4536 -0.0408  1.6792
  583MOL0     H76938   8.502   2.642   9.166 -0.9765 -0.7427  0.5980
  583MOL0     H76939   8.751   2.628   9.175  0.7670 -0.9895  0.2853
  583MOL0     H76940   9.121   2.323   9.048  3.8503 -0.5668  4.9907
  583MOL0     H76941   9.365   2.291   8.980 -0.6729 -0.3208 -4.1482
  583MOL0     H76942  10.832   3.097   8.438 -0.6551  0.6964  0.9320
  583MOL0     H76943  11.035   3.067   8.308 -3.5012 -0.2239  1.0881
  583MOL0     H76944  11.507   3.101   8.323  0.4867  0.8207  0.2278
  583MOL0     H76945  11.704   3.060   8.191  0.2216 -2.9309 -1.5179
  583MOL0     H76946  11.731   3.176   7.799 -0.0342 -0.8822  0.2566
  583MOL0     H76947  11.653   3.026   7.754 -0.5584  2.1721 -0.9156
  583MOL0     H76948  11.870   2.906   7.731 -2.6616 -0.4578  2.6476
  583MOL0     H76949  11.871   3.054   7.626  3.0255 -0.1447  0.4303
  583MOL0     H76950  11.968   3.058   7.915  0.6126 -1.7543 -0.0644
  583MOL0     H76951  11.983   3.182   7.791 -0.3047 -0.1924 -1.3330
  583MOL0     H76952  12.079   2.889   7.736 -1.7888 -0.3976  2.2009
  583MOL0     H76953  12.147   3.035   7.669 -1.4274  0.2833 -1.7482
  583MOL0     H76954  12.354   2.970   8.043  0.7963 -4.7918 -0.4123
  583MOL0     H76955  11.478   3.112   7.821 -0.1611  0.5333 -0.1670
  583MOL0     H76956  11.303   3.202   7.934  2.2972 -0.7793 -2.2290
  584MOL0     O76957   7.510   5.046   9.264 -0.4488 -0.2748  0.2129
  584MOL0     C76958   7.582   5.070   9.363  0.9590 -0.9028  0.6703
  584MOL0     O76959   7.542   5.062   9.494 -0.3714 -0.6891  0.1492
  584MOL0     C76960   7.407   5.031   9.529 -0.4002 -0.7265  0.9813
  584MOL0     C76961   7.403   4.995   9.661 -0.1349 -0.0999  0.8919
  584MOL0     C76962   7.280   4.980   9.733 -0.9867 -0.2159  0.2621
  584MOL0     C76963   7.158   4.990   9.665  0.5379  0.2543  0.6838
  584MOL0     O76964   7.038   4.965   9.730 -0.4255  0.9037 -0.2389
  584MOL0     C76965   6.922   5.038   9.676  1.0568 -0.8152 -0.3137
  584MOL0     C76966   6.804   5.023   9.775 -0.2341 -0.2489 -0.2981
  584MOL0     C76967   6.754   4.880   9.769 -0.3616  0.3117  0.4680
  584MOL0     C76968   6.648   4.847   9.878  0.4331  0.6170  0.5979
  584MOL0     C76969   6.606   4.705   9.879  0.9619 -0.5014  0.0035
  584MOL0     C76970   6.490   4.680   9.968 -0.0624  0.0077  0.2325
  584MOL0     C76971   6.449   4.535   9.956  0.7216  0.5875 -0.5759
  584MOL0     C76972   6.331   4.495  10.045  0.0290  0.4030 -0.2795
  584MOL0     N76973   6.201   4.518   9.984 -0.6574  0.2344  0.6624
  584MOL0     C76974   6.133   4.425   9.911  1.1426  0.2290  0.1650
  584MOL0     C76975   6.024   4.493   9.868 -0.5537 -0.5513  0.1432
  584MOL0     C76976   5.905   4.435   9.795  0.4631  0.3925  0.5307
  584MOL0     C76977   5.799   4.382   9.897 -0.3227  0.4502  0.5161
  584MOL0     C76978   5.658   4.447   9.904  0.1184 -0.5785 -0.9434
  584MOL0     C76979   5.657   4.598   9.945 -0.1191 -0.6342 -0.0222
  584MOL0     O76980   5.518   4.626   9.972 -0.4112  0.0409 -0.0761
  584MOL0     C76981   5.425   4.625   9.872  0.2871  1.2937 -0.2052
  584MOL0     C76982   5.456   4.624   9.736 -0.1406  0.3937 -0.1802
  584MOL0     C76983   5.351   4.631   9.641 -0.0489 -0.3754  0.0033
  584MOL0     C76984   5.216   4.633   9.675 -0.0900 -0.6458  0.4785
  584MOL0     C76985   5.105   4.653   9.577 -0.0271  0.8370  0.8633
  584MOL0     O76986   5.137   4.661   9.444 -0.0324  0.1769  0.0016
  584MOL0     C76987   5.041   4.692   9.356 -1.1899  0.5342 -0.0043
  584MOL0     C76988   5.075   4.799   9.270  0.6834 -0.6872 -0.0511
  584MOL0     C76989   4.979   4.835   9.175 -1.3476  0.0525 -0.4075
  584MOL0     C76990   4.859   4.768   9.153  0.6368  0.3934  0.0280
  584MOL0     O76991   4.777   4.814   9.051  0.0939 -0.5255  0.0900
  584MOL0     C76992   4.688   4.719   8.989 -0.6153  0.3849 -0.5721
  584MOL0     C76993   4.648   4.780   8.857 -0.3696 -0.5062  0.4850
  584MOL0     C76994   4.557   4.901   8.866  0.5576 -1.5503  0.9606
  584MOL0     C76995   4.513   4.942   8.720  0.3977  0.0588 -0.1877
  584MOL0     C76996   4.387   5.038   8.707 -0.1742  0.1706  0.4776
  584MOL0     C76997   4.262   4.982   8.765 -0.2339  0.2811  0.2638
  584MOL0     C76998   4.142   5.077   8.729  0.1342 -0.4246  0.2035
  584MOL0     C76999   4.014   5.030   8.796 -0.2855 -1.1312  0.0204
  584MOL0    Cl77000   4.008   5.057   8.976  0.0019  0.4828  0.1253
  584MOL0     C77001   4.831   4.661   9.238  0.6736  0.1140  0.0674
  584MOL0     C77002   4.918   4.627   9.343  0.3488  0.5290  0.0518
  584MOL0     O77003   4.989   4.668   9.623 -0.4520  0.0513 -0.7652
  584MOL0     C77004   5.181   4.630   9.808  0.1844  0.7928  0.0747
  584MOL0     C77005   5.287   4.631   9.902  0.3710 -0.2048 -0.0685
  584MOL0     N77006   6.035   4.629   9.893 -0.2220  1.2446 -0.5052
  584MOL0     N77007   6.137   4.635   9.979 -0.6318 -0.3245 -0.8737
  584MOL0     C77008   7.160   5.010   9.527 -0.5131 -0.5629 -0.7494
  584MOL0     C77009   7.284   5.026   9.459 -0.6729 -0.6919  0.1051
  584MOL0     C77010   7.730   5.089   9.327 -0.2645  0.3311 -0.2143
  584MOL0     C77011   7.815   5.140   9.423  0.8668  0.6240 -0.0218
  584MOL0     C77012   7.952   5.164   9.393 -0.0269 -0.4475 -0.6484
  584MOL0     C77013   8.001   5.134   9.264 -0.6125  0.3306  0.5191
  584MOL0     O77014   8.126   5.175   9.223  0.3166 -0.1033 -0.2292
  584MOL0     C77015   8.226   5.206   9.317 -0.7466 -0.3441  0.7510
  584MOL0     C77016   8.361   5.210   9.240 -0.2261 -0.0720  0.1734
  584MOL0     C77017   8.473   5.249   9.341  0.0443  0.1735 -0.0209
  584MOL0     C77018   8.606   5.282   9.283  0.6643 -0.3310  0.5893
  584MOL0     C77019   8.611   5.418   9.229  0.0661  0.0633 -0.2823
  584MOL0     C77020   8.608   5.532   9.193 -0.0715  0.1678 -0.3061
  584MOL0     C77021   7.911   5.088   9.169 -0.3486  0.8773  0.1934
  584MOL0     C77022   7.777   5.075   9.195  0.4691 -0.3788  0.2579
  584MOL0     H77023   7.491   4.987   9.724 -0.2941 -0.8974  1.0283
  584MOL0     H77024   7.273   4.955   9.839 -3.3430  0.6357  0.3674
  584MOL0     H77025   6.896   5.007   9.574  0.0741 -0.2956 -0.2284
  584MOL0     H77026   6.962   5.139   9.670  3.2532 -1.4803  1.5890
  584MOL0     H77027   6.719   5.088   9.754 -0.6037 -0.0213  1.6939
  584MOL0     H77028   6.844   5.044   9.875 -0.7720  0.2787 -0.1845
  584MOL0     H77029   6.842   4.819   9.790 -0.2704  0.4697  0.5500
  584MOL0     H77030   6.723   4.849   9.669 -1.0534  0.7870  0.5284
  584MOL0     H77031   6.693   4.864   9.976  2.2967 -1.6262  0.2140
  584MOL0     H77032   6.567   4.916   9.854  0.7690  0.5015 -0.9735
  584MOL0     H77033   6.692   4.642   9.901 -0.4653 -2.6876 -0.3675
  584MOL0     H77034   6.578   4.684   9.776  1.4432 -2.7463  0.2792
  584MOL0     H77035   6.411   4.749   9.935 -0.3895 -1.3147 -1.9480
  584MOL0     H77036   6.525   4.699  10.070  0.1829  0.5061  0.0605
  584MOL0     H77037   6.413   4.513   9.855 -2.5710  0.7287  0.4518
  584MOL0     H77038   6.534   4.470   9.980 -2.1197 -3.9214 -1.3877
  584MOL0     H77039   6.330   4.553  10.137 -1.1637  0.4870 -0.3259
  584MOL0     H77040   6.342   4.391  10.076  1.4903  0.7201  0.2999
  584MOL0     H77041   6.150   4.318   9.908 -1.7300 -0.2869 -0.7936
  584MOL0     H77042   5.932   4.347   9.736 -0.7327 -0.1964  0.8460
  584MOL0     H77043   5.851   4.517   9.748  0.5308  2.0372  3.1040
  584MOL0     H77044   5.833   4.383  10.001  0.0471  0.3359  0.3957
  584MOL0     H77045   5.796   4.274   9.876  0.6391  0.6709 -0.8731
  584MOL0     H77046   5.602   4.436   9.811  0.1352  0.6541 -1.1124
  584MOL0     H77047   5.609   4.388   9.981 -1.2872  1.5575 -0.1056
  584MOL0     H77048   5.697   4.656   9.861  2.5916 -3.0916 -0.5765
  584MOL0     H77049   5.716   4.612  10.036  1.9734 -0.0776 -1.4040
  584MOL0     H77050   5.557   4.620   9.696 -0.6356 -3.9808 -1.5185
  584MOL0     H77051   5.383   4.641   9.538  0.4902  0.5632  0.2469
  584MOL0     H77052   5.167   4.856   9.280  3.0656 -4.0089 -1.2846
  584MOL0     H77053   4.999   4.926   9.119  1.4641  1.0529  1.9885
  584MOL0     H77054   4.595   4.709   9.046  0.7051 -1.8210  1.3770
  584MOL0     H77055   4.734   4.620   8.980  0.1182  0.8875 -3.3951
  584MOL0     H77056   4.588   4.702   8.809 -0.0622 -0.8958  0.7308
  584MOL0     H77057   4.739   4.796   8.797 -1.8680  0.1455 -1.7507
  584MOL0     H77058   4.606   4.983   8.918  2.7896 -1.6969 -0.7431
  584MOL0     H77059   4.465   4.880   8.922  0.5776  2.1217  2.6103
  584MOL0     H77060   4.594   4.991   8.665  1.1814 -2.4679 -1.4361
  584MOL0     H77061   4.501   4.851   8.661  0.0110  0.7676 -1.2236
  584MOL0     H77062   4.364   5.040   8.600  1.5298 -0.0676  0.0758
  584MOL0     H77063   4.402   5.135   8.754 -0.3761 -0.3502  1.6503
  584MOL0     H77064   4.269   4.960   8.872 -2.3979 -2.2859 -0.0172
  584MOL0     H77065   4.238   4.885   8.722 -0.1949 -0.7571  2.4663
  584MOL0     H77066   4.173   5.177   8.759  1.3425 -0.5710 -0.4848
  584MOL0     H77067   4.125   5.077   8.621  0.0104 -2.9638  0.1505
  584MOL0     H77068   3.998   4.925   8.769  3.5238 -2.4460  2.0442
  584MOL0     H77069   3.927   5.083   8.757  0.5597 -0.5023 -1.0839
  584MOL0     H77070   4.740   4.603   9.220 -0.5900  2.3111 -1.0588
  584MOL0     H77071   4.897   4.555   9.422  0.5811  0.6720  0.2434
  584MOL0     H77072   5.078   4.627   9.840 -0.6049 -2.4250 -2.2308
  584MOL0     H77073   5.241   4.636  10.000 -0.0204  1.7550 -0.3138
  584MOL0     H77074   7.064   5.018   9.478 -2.5968 -1.3625  2.8000
  584MOL0     H77075   7.274   5.043   9.352 -0.6164  1.1624  0.3590
  584MOL0     H77076   7.775   5.170   9.519  2.8268  3.7546 -0.0642
  584MOL0     H77077   8.019   5.207   9.467 -0.2766 -2.6011  0.9312
  584MOL0     H77078   8.230   5.133   9.399 -1.4721  0.0909  1.1910
  584MOL0     H77079   8.199   5.300   9.367 -2.6492 -1.8520  2.7459
  584MOL0     H77080   8.379   5.115   9.190 -1.3608  0.3621 -1.1398
  584MOL0     H77081   8.352   5.285   9.160 -0.5939 -1.5237 -1.1991
  584MOL0     H77082   8.489   5.168   9.413 -0.0238  1.9608  2.1532
  584MOL0     H77083   8.435   5.331   9.403  0.5319 -0.1838  0.7816
  584MOL0     H77084   8.677   5.277   9.366  0.3235  0.5567  0.9437
  584MOL0     H77085   8.629   5.208   9.205  0.9389 -0.7327  1.0465
  584MOL0     H77086   8.620   5.635   9.169 -0.5430  0.3153  0.0733
  584MOL0     H77087   7.937   5.080   9.064  0.5887  1.3336  0.3791
  584MOL0     H77088   7.704   5.059   9.116 -0.3764 -1.9765  1.3045
  585MOL0     O77089   4.809   8.901   9.963 -0.6942 -0.2667 -0.5926
  585MOL0     C77090   4.824   8.777   9.948  0.1966 -0.5491 -0.5099
  585MOL0     O77091   4.723   8.692   9.918  0.2875  0.4582  0.8449
  585MOL0     C77092   4.594   8.737   9.910 -0.4810 -0.3130 -0.3860
  585MOL0     C77093   4.527   8.730   9.790 -0.0799 -0.1984  0.3355
  585MOL0     C77094   4.397   8.782   9.778  0.2690  0.3270 -0.3941
  585MOL0     C77095   4.330   8.833   9.895  0.0242  1.1508  0.2142
  585MOL0     O77096   4.199   8.871   9.887 -0.2358  0.0209  0.5348
  585MOL0     C77097   4.130   8.909  10.000  0.0884 -0.6077  0.0376
  585MOL0     C77098   3.988   8.931   9.955 -0.5505 -0.2257  0.0674
  585MOL0     C77099   3.928   9.021  10.063  0.3123 -0.4366 -0.1599
  585MOL0     C77100   3.775   9.049  10.037 -0.7703 -0.1007  0.2958
  585MOL0     C77101   3.690   8.950  10.119 -1.0699 -0.1282 -0.9687
  585MOL0     C77102   3.546   8.976  10.105  0.0693 -0.5296  0.4443
  585MOL0     C77103   3.462   8.876  10.171 -0.6875  0.5661 -0.7122
  585MOL0     C77104   3.453   8.738  10.103 -0.7759  0.1498 -0.3435
  585MOL0     N77105   3.344   8.730   9.999 -0.0113  0.0897 -0.3015
  585MOL0     C77106   3.342   8.627   9.907 -0.1748 -0.3793 -0.0029
  585MOL0     C77107   3.218   8.628   9.862 -0.5061 -0.1360 -0.5609
  585MOL0     C77108   3.167   8.527   9.760 -0.3593  0.3693 -0.1152
  585MOL0     C77109   3.011   8.534   9.736 -0.2908 -0.2721 -0.2526
  585MOL0     C77110   2.921   8.493   9.851 -0.0183  0.1548  0.5791
  585MOL0     C77111   2.776   8.551   9.852 -0.3421  0.0127 -0.2929
  585MOL0     O77112   2.703   8.521   9.972 -0.2285 -0.4031  0.6946
  585MOL0     C77113   2.629   8.406   9.981 -0.8239 -0.1186  0.0235
  585MOL0     C77114   2.557   8.394  10.095 -0.8644 -0.0898 -0.3619
  585MOL0     C77115   2.453   8.295  10.111 -0.2457  0.1949  0.1030
  585MOL0     C77116   2.427   8.204  10.006 -0.6616 -0.7375  0.3888
  585MOL0     C77117   2.301   8.125  10.019 -0.5107  0.1306  0.9589
  585MOL0     O77118   2.204   8.168  10.103  0.3047  0.1979  0.3667
  585MOL0     C77119   2.073   8.121  10.104 -0.0278 -0.2227  0.5361
  585MOL0     C77120   2.008   8.084  10.213  0.1291 -0.0510  0.1508
  585MOL0     C77121   1.871   8.046  10.206 -0.8128  0.3659 -0.4219
  585MOL0     C77122   1.799   8.045  10.093 -0.5600  0.2818 -0.3064
  585MOL0     O77123   1.673   7.990  10.103  0.8006  0.2677  0.1767
  585MOL0     C77124   1.609   7.933   9.988  0.3138  0.3685  0.6512
  585MOL0     C77125   1.474   7.890  10.030  0.0827 -1.0689 -0.0032
  585MOL0     C77126   1.473   7.741  10.059 -1.0426 -0.9081  0.6670
  585MOL0     C77127   1.362   7.684  10.151 -0.4625  0.5461  0.8380
  585MOL0     C77128   1.222   7.697  10.084  0.0932  0.2574 -0.4453
  585MOL0     C77129   1.140   7.572  10.082  0.0778  0.1869 -0.3311
  585MOL0     C77130   1.024   7.586   9.995  1.1006  0.4689  0.2571
  585MOL0     C77131   0.937   7.460   9.987  0.1766 -0.1046 -0.4397
  585MOL0    Cl77132   0.788   7.512   9.884  0.0783 -0.2873  0.2578
  585MOL0     C77133   1.866   8.085   9.975  0.0906  0.0871 -0.0106
  585MOL0     C77134   1.999   8.124   9.982 -0.0213  1.3030  0.6134
  585MOL0     O77135   2.287   8.035   9.939  0.1398 -0.2976 -0.8384
  585MOL0     C77136   2.506   8.208   9.891 -0.4862  0.9389  0.2599
  585MOL0     C77137   2.610   8.303   9.881 -0.0367 -0.0793 -0.4690
  585MOL0     N77138   3.148   8.730   9.926  0.4608 -0.1745  0.0236
  585MOL0     N77139   3.230   8.797   9.995 -0.4435  0.0640  0.1932
  585MOL0     C77140   4.401   8.840  10.018  1.1111 -0.3557  0.1291
  585MOL0     C77141   4.529   8.779  10.019  0.7406 -0.5730 -0.3215
  585MOL0     C77142   4.965   8.722   9.970 -0.2894  0.3422 -0.1434
  585MOL0     C77143   5.076   8.807   9.983  0.2989 -0.0917 -0.1972
  585MOL0     C77144   5.203   8.755  10.008 -0.0937  0.5630 -0.0981
  585MOL0     C77145   5.216   8.614  10.013 -1.6388 -0.0257  0.4803
  585MOL0     O77146   5.340   8.548  10.013  0.1792 -0.3506 -0.1645
  585MOL0     C77147   5.456   8.621  10.035 -0.4500 -0.1911  0.3296
  585MOL0     C77148   5.583   8.553  10.069 -0.0313 -0.4037  0.1271
  585MOL0     C77149   5.563   8.474  10.199 -0.4282  0.0330 -0.1652
  585MOL0     C77150   5.690   8.416  10.252  0.1333  0.0968  0.6309
  585MOL0     C77151   5.773   8.521  10.319 -1.4317  0.0315 -0.0909
  585MOL0     C77152   5.840   8.618  10.365  0.5273  0.3004 -0.0333
  585MOL0     C77153   5.106   8.531  10.004  0.5747  0.1072 -0.0978
  585MOL0     C77154   4.979   8.583   9.984 -0.1648  1.8773  0.0217
  585MOL0     H77155   4.578   8.678   9.710  0.2046  0.9956 -0.2896
  585MOL0     H77156   4.344   8.774   9.684 -0.1746 -1.8933  0.0107
  585MOL0     H77157   4.175   9.000  10.042  0.0266 -0.4205 -0.2980
  585MOL0     H77158   4.132   8.830  10.075  3.6269 -0.6139  0.0955
  585MOL0     H77159   3.934   8.839   9.934  0.9102 -0.7698 -1.5948
  585MOL0     H77160   3.993   8.993   9.864 -0.3401  0.3209  0.4481
  585MOL0     H77161   3.982   9.116  10.051 -1.6441  0.7102 -0.1732
  585MOL0     H77162   3.939   8.971  10.160  0.9755 -2.7688 -1.3699
  585MOL0     H77163   3.743   9.148  10.069  0.4563  0.3961  0.0401
  585MOL0     H77164   3.749   9.029   9.932 -0.0148  2.0299 -0.3497
  585MOL0     H77165   3.701   8.963  10.227  0.4330 -2.4383 -0.7804
  585MOL0     H77166   3.715   8.847  10.092 -2.4955 -1.7782  3.1839
  585MOL0     H77167   3.525   8.956   9.999  0.4615  0.5895  0.1385
  585MOL0     H77168   3.520   9.080  10.125  1.2633 -0.1657  0.2168
  585MOL0     H77169   3.513   8.857  10.266  0.1863  3.8233 -0.4143
  585MOL0     H77170   3.366   8.921  10.197 -0.5346 -0.6143  2.1768
  585MOL0     H77171   3.425   8.657  10.171  2.7841 -1.2858 -0.3562
  585MOL0     H77172   3.549   8.714  10.056 -0.6486 -1.7509  0.7463
  585MOL0     H77173   3.421   8.557   9.880  2.6685  2.7304 -0.3407
  585MOL0     H77174   3.193   8.425   9.792  1.5248  0.1737 -2.0096
  585MOL0     H77175   3.211   8.544   9.661 -3.3756  2.1840 -1.2991
  585MOL0     H77176   2.978   8.484   9.645 -1.2324  2.0865 -1.2911
  585MOL0     H77177   2.997   8.641   9.717  0.3063  0.0235  0.8892
  585MOL0     H77178   2.906   8.386   9.834  0.1777  0.6003 -3.4522
  585MOL0     H77179   2.968   8.510   9.948  1.2449  0.9939 -0.1599
  585MOL0     H77180   2.713   8.526   9.766 -2.2836 -0.2807  1.1307
  585MOL0     H77181   2.799   8.658   9.848  0.3613  0.1701  3.5139
  585MOL0     H77182   2.584   8.459  10.177 -3.6410  1.7615 -0.7850
  585MOL0     H77183   2.393   8.297  10.201  0.7243 -1.6931  0.8498
  585MOL0     H77184   2.062   8.077  10.308 -0.3547 -2.0845  0.3177
  585MOL0     H77185   1.827   8.004  10.296 -1.1737  0.2741 -0.6417
  585MOL0     H77186   1.668   7.849   9.952 -2.7313 -1.4135 -0.6095
  585MOL0     H77187   1.595   8.008   9.909 -3.4167  1.3887  2.0464
  585MOL0     H77188   1.400   7.913   9.953 -2.9298  0.6236  3.1326
  585MOL0     H77189   1.440   7.943  10.119  2.6589 -0.1666  0.5529
  585MOL0     H77190   1.561   7.712  10.116  0.4011  0.3153 -0.8194
  585MOL0     H77191   1.485   7.680   9.969 -0.1502 -0.2060  0.2911
  585MOL0     H77192   1.396   7.580  10.160  2.8149  0.9617 -3.2538
  585MOL0     H77193   1.356   7.728  10.250 -2.2041 -2.2815  2.1165
  585MOL0     H77194   1.235   7.730   9.980 -0.2164  2.4172  0.1529
  585MOL0     H77195   1.166   7.772  10.141  0.6338  0.1996  0.1618
  585MOL0     H77196   1.105   7.550  10.183 -1.2598 -2.6696 -1.2888
  585MOL0     H77197   1.204   7.490  10.049 -1.4455 -0.9575 -0.5697
  585MOL0     H77198   0.957   7.668  10.022 -2.3284 -1.9974 -0.2020
  585MOL0     H77199   1.058   7.608   9.893  0.4853 -0.9161 -0.2654
  585MOL0     H77200   0.894   7.427  10.082 -1.2733  2.2285 -0.2103
  585MOL0     H77201   0.987   7.371   9.947 -1.6518 -1.9662  1.1704
  585MOL0     H77202   1.806   8.095   9.885  1.2593 -3.1106 -1.3204
  585MOL0     H77203   2.053   8.156   9.893 -1.8837 -2.3973 -2.1648
  585MOL0     H77204   2.498   8.145   9.803 -4.0781 -0.7899  1.6541
  585MOL0     H77205   2.653   8.316   9.783 -0.6730  0.3379 -0.7016
  585MOL0     H77206   4.357   8.881  10.109 -0.1478 -2.0423  0.3345
  585MOL0     H77207   4.585   8.775  10.112 -2.8178 -1.4136  1.9937
  585MOL0     H77208   5.065   8.914   9.965 -0.6151  0.2267  1.9323
  585MOL0     H77209   5.287   8.824  10.012  1.1166 -0.9129  2.1570
  585MOL0     H77210   5.438   8.685  10.122  3.5428 -1.3265  2.2601
  585MOL0     H77211   5.472   8.674   9.941 -3.1157  1.0795  0.5183
  585MOL0     H77212   5.629   8.500   9.984  0.7168 -0.4539  0.5525
  585MOL0     H77213   5.648   8.635  10.103 -2.0475  1.3510 -0.0597
  585MOL0     H77214   5.500   8.390  10.168 -0.0456 -1.1690  2.0686
  585MOL0     H77215   5.516   8.537  10.274 -0.1330  0.7210 -0.5530
  585MOL0     H77216   5.667   8.345  10.332 -2.8722  1.7618  1.4130
  585MOL0     H77217   5.741   8.367  10.169 -1.4853  1.1065 -1.0369
  585MOL0     H77218   5.883   8.703  10.414  0.3466  0.1892  0.3258
  585MOL0     H77219   5.137   8.427  10.013  1.9687  0.4595 -0.5634
  585MOL0     H77220   4.900   8.510   9.993  0.5301  0.8328 -1.8567
  586MOL0     O77221   1.979  10.873   4.882 -0.2878 -0.3805  0.0272
  586MOL0     C77222   2.037  10.860   4.780 -1.1860 -0.0329 -0.3726
  586MOL0     O77223   2.002  10.771   4.689 -0.0995  1.0856  0.2793
  586MOL0     C77224   1.916  10.668   4.736  0.3276 -0.0139  0.0308
  586MOL0     C77225   1.828  10.619   4.639  0.2515  0.4443 -0.5727
  586MOL0     C77226   1.751  10.508   4.655  1.0094  0.6665 -0.3144
  586MOL0     C77227   1.759  10.440   4.777  0.4976  0.4077  0.1907
  586MOL0     O77228   1.677  10.333   4.799  0.3315 -0.4170  0.7177
  586MOL0     C77229   1.725  10.222   4.867 -0.1030 -0.0244  0.4774
  586MOL0     C77230   1.662  10.085   4.830 -0.6053 -0.8948  0.8074
  586MOL0     C77231   1.511  10.075   4.864 -0.0063  1.3118 -0.4505
  586MOL0     C77232   1.452   9.933   4.848  0.2185  0.4076  0.0846
  586MOL0     C77233   1.318   9.915   4.913 -0.1999 -0.3505 -0.3691
  586MOL0     C77234   1.258   9.784   4.863 -0.6723  0.8634 -1.1915
  586MOL0     C77235   1.166   9.709   4.965  0.4868 -0.3661 -0.4058
  586MOL0     C77236   1.227   9.657   5.095  0.4190  0.6782 -0.2252
  586MOL0     N77237   1.137   9.565   5.171  0.7009 -0.4150  0.0590
  586MOL0     C77238   1.157   9.430   5.176 -0.6217 -0.0240 -0.0727
  586MOL0     C77239   1.056   9.374   5.251 -0.3680 -0.3338  0.1895
  586MOL0     C77240   1.020   9.230   5.283  0.1354  0.0003 -0.2149
  586MOL0     C77241   0.882   9.201   5.330 -0.3372 -0.5361 -0.0569
  586MOL0     C77242   0.863   9.054   5.378 -0.3419 -0.5786  0.1021
  586MOL0     C77243   0.717   9.026   5.402 -0.3124  0.1379 -0.2187
  586MOL0     O77244   0.620   9.064   5.300 -0.1705  0.0684  0.2435
  586MOL0     C77245   0.485   9.014   5.315  0.2030  0.3837 -0.9105
  586MOL0     C77246   0.414   8.968   5.204  0.5611  0.4518 -0.1309
  586MOL0     C77247   0.278   8.939   5.216  0.1718  0.0606  0.0817
  586MOL0     C77248   0.212   8.956   5.335 -0.2136  0.6714 -0.1687
  586MOL0     C77249   0.069   8.922   5.346  0.6327 -0.7304  0.9767
  586MOL0     O77250   0.011   8.961   5.462  0.3168  0.0928  0.1479
  586MOL0     C77251  -0.125   8.957   5.489 -0.0886  0.5443  0.1667
  586MOL0     C77252  -0.228   8.977   5.394 -0.2005  0.3043 -0.0689
  586MOL0     C77253  -0.359   8.995   5.424 -0.2669 -0.9319  0.2479
  586MOL0     C77254  -0.399   8.994   5.556 -0.9837 -0.1839  0.4670
  586MOL0     O77255  -0.523   9.020   5.596  0.3947  0.4839  0.2609
  586MOL0     C77256  -0.585   8.906   5.667  0.2382 -0.2855  0.4798
  586MOL0     C77257  -0.730   8.944   5.683  0.4140  0.0307 -0.4377
  586MOL0     C77258  -0.743   9.053   5.781 -0.1833  0.6811 -0.4132
  586MOL0     C77259  -0.890   9.095   5.791  0.8404  0.2437 -0.0020
  586MOL0     C77260  -0.906   9.240   5.851  0.2242 -0.0663 -0.7697
  586MOL0     C77261  -0.892   9.221   6.003  0.1417 -0.0973  0.0850
  586MOL0     C77262  -0.868   9.359   6.064 -0.0093 -0.4380 -0.2866
  586MOL0     C77263  -0.922   9.361   6.211  0.2971 -0.3333  1.0502
  586MOL0    Cl77264  -1.096   9.349   6.204 -0.1065 -0.4273  0.0532
  586MOL0     C77265  -0.303   8.979   5.656 -0.6149  0.3024  0.5731
  586MOL0     C77266  -0.170   8.957   5.624  0.7279  0.6260  0.1409
  586MOL0     O77267   0.013   8.874   5.249 -1.0060  0.5597  0.6145
  586MOL0     C77268   0.280   8.991   5.445 -0.1126  0.4524 -0.2924
  586MOL0     C77269   0.421   9.028   5.437  0.0241 -0.0656 -0.0023
  586MOL0     N77270   0.985   9.480   5.290  0.4255 -0.5697 -0.6195
  586MOL0     N77271   1.018   9.594   5.240 -0.3443 -0.0261 -0.1256
  586MOL0     C77272   1.843  10.491   4.886  0.1032  0.1006  0.1783
  586MOL0     C77273   1.926  10.601   4.855 -0.1794 -0.2185  0.0243
  586MOL0     C77274   2.164  10.934   4.756 -0.6138 -0.1238 -0.4202
  586MOL0     C77275   2.212  11.033   4.846  0.1640 -0.3484  0.0636
  586MOL0     C77276   2.326  11.120   4.810  0.8819  0.1729  0.2400
  586MOL0     C77277   2.387  11.095   4.686  1.0205 -0.1841 -0.3385
  586MOL0     O77278   2.475  11.193   4.651  0.4958  0.4257  0.0575
  586MOL0     C77279   2.558  11.155   4.537 -0.4015  0.0958  0.3797
  586MOL0     C77280   2.685  11.238   4.538  0.3722  0.2151  0.3874
  586MOL0     C77281   2.645  11.391   4.528  0.4452 -0.0111  0.9243
  586MOL0     C77282   2.751  11.487   4.456  0.0084  0.7620  0.6059
  586MOL0     C77283   2.861  11.518   4.549  0.3691  0.3266 -0.4596
  586MOL0     C77284   2.949  11.568   4.616  0.1494  0.8467 -0.1232
  586MOL0     C77285   2.352  10.981   4.599  0.2571 -0.7878  0.3003
  586MOL0     C77286   2.235  10.914   4.637  0.2761 -0.3942  0.1811
  586MOL0     H77287   1.815  10.690   4.558 -0.5333 -0.4120 -1.2240
  586MOL0     H77288   1.674  10.474   4.586  1.3294 -1.9634  0.5313
  586MOL0     H77289   1.724  10.243   4.974 -1.9605  1.2072  0.2473
  586MOL0     H77290   1.831  10.219   4.837 -0.6191  2.1582 -1.8921
  586MOL0     H77291   1.721  10.014   4.889  2.5329 -0.2060 -1.2669
  586MOL0     H77292   1.679  10.064   4.724  1.5448  0.2365  0.8597
  586MOL0     H77293   1.462  10.147   4.797 -0.9062  2.6011  1.5135
  586MOL0     H77294   1.500  10.102   4.969  2.7000  0.5434  0.1113
  586MOL0     H77295   1.441   9.925   4.739  0.0048  2.4522 -0.0849
  586MOL0     H77296   1.523   9.859   4.886 -2.5177 -3.1196 -1.0393
  586MOL0     H77297   1.254  10.002   4.893  1.6435  1.0479 -0.5335
  586MOL0     H77298   1.328   9.898   5.021  0.0502 -1.0233 -0.4951
  586MOL0     H77299   1.343   9.717   4.849 -0.0255  0.7115  2.4872
  586MOL0     H77300   1.206   9.795   4.768 -0.2139  1.5246 -1.3646
  586MOL0     H77301   1.090   9.782   4.995 -0.6848 -1.0307 -1.5944
  586MOL0     H77302   1.113   9.632   4.908 -1.1638  1.6611 -1.7771
  586MOL0     H77303   1.260   9.733   5.166  2.2041 -2.9733  3.2051
  586MOL0     H77304   1.307   9.599   5.048 -1.4688 -1.8052 -0.5725
  586MOL0     H77305   1.239   9.379   5.126 -1.5106 -2.5099  0.8733
  586MOL0     H77306   1.093   9.200   5.358 -0.2255  0.0291  0.1520
  586MOL0     H77307   1.034   9.172   5.191 -0.4685  0.0389 -0.3379
  586MOL0     H77308   0.819   9.206   5.241  0.9632  0.5707 -0.9539
  586MOL0     H77309   0.846   9.269   5.408 -1.4547  1.1429 -1.9322
  586MOL0     H77310   0.888   8.989   5.293  1.6759  2.8929 -2.2305
  586MOL0     H77311   0.932   9.035   5.460  0.4452 -1.0429 -0.6437
  586MOL0     H77312   0.691   9.078   5.495 -1.9210 -0.0379 -0.5456
  586MOL0     H77313   0.700   8.924   5.438 -3.0156  0.8409  0.6833
  586MOL0     H77314   0.452   8.954   5.104  0.2597  2.9003 -0.6596
  586MOL0     H77315   0.213   8.924   5.131  1.7546  0.7741 -1.3067
  586MOL0     H77316  -0.200   8.987   5.289 -1.7288 -3.5598 -1.0208
  586MOL0     H77317  -0.429   9.021   5.345 -0.7431  1.4984  1.3893
  586MOL0     H77318  -0.543   8.888   5.767 -0.4936  1.8407  1.2236
  586MOL0     H77319  -0.586   8.817   5.604 -2.9773  1.9999 -3.1430
  586MOL0     H77320  -0.785   8.858   5.722 -1.4914  1.4028  0.0658
  586MOL0     H77321  -0.769   8.971   5.584 -0.8424  3.9964  0.9320
  586MOL0     H77322  -0.677   9.138   5.762 -1.9776  1.8639 -1.6916
  586MOL0     H77323  -0.709   9.008   5.875 -0.0223  0.2412 -0.6783
  586MOL0     H77324  -0.931   9.098   5.689 -0.2798 -1.4760  0.3478
  586MOL0     H77325  -0.954   9.023   5.843  1.1957 -1.9528 -2.4147
  586MOL0     H77326  -1.002   9.279   5.816  0.5863  0.0334 -1.7050
  586MOL0     H77327  -0.825   9.303   5.813  0.9740 -2.2922 -3.1440
  586MOL0     H77328  -0.812   9.150   6.027  0.1513  0.3607  1.4909
  586MOL0     H77329  -0.982   9.172   6.041  1.4164 -3.3779 -0.8303
  586MOL0     H77330  -0.760   9.381   6.066  0.0934 -0.9710  0.1534
  586MOL0     H77331  -0.918   9.434   6.002  3.5975 -0.5524 -3.7683
  586MOL0     H77332  -0.879   9.446   6.266  0.1261  0.4631 -0.0047
  586MOL0     H77333  -0.872   9.274   6.256  2.4474 -0.0632 -0.6360
  586MOL0     H77334  -0.330   8.976   5.761  1.5194 -0.8924  1.1386
  586MOL0     H77335  -0.100   8.938   5.705 -0.8736 -1.7422  1.0630
  586MOL0     H77336   0.229   8.985   5.541  0.3716 -4.0838 -0.1112
  586MOL0     H77337   0.461   9.063   5.531  1.2755  1.0249 -0.9182
  586MOL0     H77338   1.855  10.435   4.978  1.6160 -1.3293 -0.8326
  586MOL0     H77339   1.998  10.636   4.929  2.3752  1.0231 -2.8333
  586MOL0     H77340   2.163  11.051   4.941  2.6494  1.6281  1.0753
  586MOL0     H77341   2.344  11.191   4.891 -1.3390 -0.7010  1.6259
  586MOL0     H77342   2.502  11.178   4.446 -1.5234 -0.7718  0.8356
  586MOL0     H77343   2.584  11.049   4.540 -0.5584  0.0676  1.2170
  586MOL0     H77344   2.737  11.227   4.633  0.1310  3.6085  1.0403
  586MOL0     H77345   2.741  11.212   4.448 -0.7302 -0.5599 -0.1065
  586MOL0     H77346   2.626  11.436   4.626  0.5532 -1.6769  1.7429
  586MOL0     H77347   2.554  11.405   4.469  0.9005  1.5050  0.5305
  586MOL0     H77348   2.791  11.439   4.366  1.4751  0.0211  1.6009
  586MOL0     H77349   2.706  11.584   4.436 -1.8625 -0.2666 -0.5270
  586MOL0     H77350   3.034  11.593   4.675  0.1629  0.1270  0.1791
  586MOL0     H77351   2.399  10.965   4.503  0.7241 -1.8397  0.6861
  586MOL0     H77352   2.205  10.839   4.565  0.0545  0.0984 -0.2506
  587MOL0     O77353   6.662   3.536   2.591  0.0885  0.4578  0.2678
  587MOL0     C77354   6.738   3.571   2.504 -0.8271  0.5325 -0.0172
  587MOL0     O77355   6.704   3.655   2.405  0.4712  0.8883  0.3109
  587MOL0     C77356   6.576   3.675   2.385  0.4362  0.6233 -0.3374
  587MOL0     C77357   6.492   3.765   2.458 -0.9110  0.0651  1.0537
  587MOL0     C77358   6.360   3.793   2.422 -0.6310 -0.2398 -0.6716
  587MOL0     C77359   6.312   3.722   2.310  0.3852 -0.4100 -0.0564
  587MOL0     O77360   6.175   3.721   2.269 -0.8231  0.2386  0.6489
  587MOL0     C77361   6.076   3.794   2.326 -0.7308  0.6456 -0.1940
  587MOL0     C77362   5.953   3.723   2.319  0.6560  0.8061  0.1020
  587MOL0     C77363   5.835   3.801   2.382  0.2279  0.4300 -0.2151
  587MOL0     C77364   5.808   3.936   2.316  0.4717  0.1522  0.5156
  587MOL0     C77365   5.730   3.925   2.181  0.5959  0.5988  0.4211
  587MOL0     C77366   5.719   4.064   2.114 -0.4147 -0.5169 -0.3867
  587MOL0     C77367   5.621   4.166   2.179  0.4936 -0.8470  0.3958
  587MOL0     C77368   5.483   4.099   2.173  0.7252 -0.7432 -0.4846
  587MOL0     N77369   5.430   4.071   2.036 -0.2518  0.0193 -0.0226
  587MOL0     C77370   5.358   4.160   1.960 -0.0823 -0.8462  0.5667
  587MOL0     C77371   5.329   4.103   1.844  0.2846  0.2060 -0.3162
  587MOL0     C77372   5.258   4.164   1.723  0.0870 -0.3015  0.0094
  587MOL0     C77373   5.145   4.087   1.663 -0.9283  0.0190  0.1129
  587MOL0     C77374   5.071   4.175   1.558 -0.0380  0.5215  0.4546
  587MOL0     C77375   4.959   4.096   1.501 -0.0413 -0.4998  0.5495
  587MOL0     O77376   4.892   4.172   1.399  0.4815  0.1295  0.2816
  587MOL0     C77377   4.761   4.141   1.370  0.2768  0.5481  0.1986
  587MOL0     C77378   4.688   4.026   1.403  0.3920  0.6041 -0.7182
  587MOL0     C77379   4.565   3.998   1.351 -0.2140 -1.7520 -0.2385
  587MOL0     C77380   4.506   4.080   1.256 -0.2656 -0.3341 -0.1003
  587MOL0     C77381   4.377   4.043   1.204 -0.0634  0.7788 -0.0592
  587MOL0     O77382   4.325   4.143   1.133 -0.3762 -0.4882  0.1962
  587MOL0     C77383   4.194   4.151   1.122 -0.7897  0.0912 -0.3716
  587MOL0     C77384   4.116   4.164   1.236  0.3027 -0.0895 -0.1063
  587MOL0     C77385   3.971   4.166   1.236  0.1607  0.2869  0.1641
  587MOL0     C77386   3.906   4.154   1.110 -0.3195  0.7358 -0.3485
  587MOL0     O77387   3.769   4.140   1.103 -0.4544 -0.9734 -0.2703
  587MOL0     C77388   3.692   4.147   1.225 -0.2427  0.2306  0.2682
  587MOL0     C77389   3.540   4.137   1.209 -0.7293 -0.2727  0.6858
  587MOL0     C77390   3.464   4.227   1.309 -0.2793  0.1295  0.5624
  587MOL0     C77391   3.465   4.163   1.450 -1.3301  0.5778 -0.4076
  587MOL0     C77392   3.428   4.252   1.563  0.1211 -0.0546 -0.1829
  587MOL0     C77393   3.290   4.316   1.530  0.3453  0.0629 -0.0133
  587MOL0     C77394   3.214   4.384   1.647 -0.7944  0.5953 -0.1368
  587MOL0     C77395   3.062   4.380   1.626  0.3999  0.8149 -0.2782
  587MOL0    Cl77396   2.996   4.451   1.777  0.2169 -0.2909  0.1344
  587MOL0     C77397   3.974   4.138   0.993 -0.2107 -0.0309  0.2420
  587MOL0     C77398   4.123   4.138   0.996  0.9163 -0.7593  0.3613
  587MOL0     O77399   4.323   3.939   1.238 -0.3334 -0.1996  0.2192
  587MOL0     C77400   4.582   4.198   1.221  0.7864 -0.7293  0.4394
  587MOL0     C77401   4.702   4.226   1.275 -0.4450  0.2487  0.0900
  587MOL0     N77402   5.378   3.975   1.864  0.7437 -0.3394 -0.5957
  587MOL0     N77403   5.435   3.950   1.981 -0.5233 -0.1135  0.6899
  587MOL0     C77404   6.392   3.637   2.243 -0.4397  0.0530 -0.4473
  587MOL0     C77405   6.525   3.610   2.273 -0.0838  0.4517  0.4250
  587MOL0     C77406   6.878   3.528   2.496  1.0286 -0.1090 -1.0338
  587MOL0     C77407   6.936   3.454   2.601  0.3929  0.4350  0.2491
  587MOL0     C77408   7.074   3.421   2.594 -0.1685  0.0098 -0.2650
  587MOL0     C77409   7.154   3.448   2.480  0.8446  0.3112 -0.8063
  587MOL0     O77410   7.282   3.413   2.455 -0.0001 -0.0459  0.4233
  587MOL0     C77411   7.331   3.304   2.540 -1.0121  0.2718  0.5086
  587MOL0     C77412   7.423   3.213   2.455 -0.2135 -1.1536 -0.3823
  587MOL0     C77413   7.554   3.285   2.434  0.1981  0.2473  1.2167
  587MOL0     C77414   7.654   3.192   2.374  0.2054 -0.7627 -0.3070
  587MOL0     C77415   7.777   3.264   2.318  0.3397 -1.0034  0.7916
  587MOL0     C77416   7.873   3.320   2.277  0.0774  0.6596 -0.2697
  587MOL0     C77417   7.090   3.528   2.383  0.3414  0.6122  0.7431
  587MOL0     C77418   6.958   3.578   2.392 -0.4533  0.2981  1.2027
  587MOL0     H77419   6.533   3.821   2.541  0.5018 -1.2643  1.2870
  587MOL0     H77420   6.302   3.861   2.483  2.0055 -0.1217  1.9297
  587MOL0     H77421   6.076   3.891   2.275  1.4779  1.7263  1.6766
  587MOL0     H77422   6.099   3.814   2.431  3.1044  0.9474 -0.9348
  587MOL0     H77423   5.962   3.626   2.368 -1.4650  0.5598  0.1038
  587MOL0     H77424   5.940   3.703   2.212  3.0953 -1.1026  0.0767
  587MOL0     H77425   5.865   3.818   2.486  1.6180 -0.6249 -0.4096
  587MOL0     H77426   5.738   3.749   2.384 -0.1061  1.0328  1.8857
  587MOL0     H77427   5.738   3.991   2.380 -0.2472 -1.0507  0.7777
  587MOL0     H77428   5.897   3.998   2.302  0.4454 -0.3909 -2.7576
  587MOL0     H77429   5.633   3.877   2.196  0.8453 -0.7302 -1.7941
  587MOL0     H77430   5.785   3.863   2.109  0.4069 -1.6488  2.0739
  587MOL0     H77431   5.699   4.061   2.006  0.2189  0.8386 -0.5671
  587MOL0     H77432   5.820   4.106   2.113 -0.9939  1.0682 -2.9905
  587MOL0     H77433   5.646   4.177   2.285 -0.2092 -2.4391  0.7657
  587MOL0     H77434   5.620   4.260   2.123  3.0494 -0.4490  0.9125
  587MOL0     H77435   5.416   4.167   2.226  1.4851 -1.6812  1.8055
  587MOL0     H77436   5.471   4.005   2.227 -3.1005 -0.4712 -0.6082
  587MOL0     H77437   5.329   4.262   1.985  0.0682 -1.4833  3.6874
  587MOL0     H77438   5.337   4.187   1.650  0.8138  2.3378  1.5006
  587MOL0     H77439   5.213   4.256   1.761 -0.2142  0.3502 -1.7844
  587MOL0     H77440   5.082   4.054   1.746  0.7928 -3.4889  0.1958
  587MOL0     H77441   5.180   4.000   1.607  0.4672 -0.4781  1.6632
  587MOL0     H77442   5.034   4.268   1.602 -0.0077  0.0115  1.6039
  587MOL0     H77443   5.149   4.187   1.481 -1.4320 -1.4862 -1.3741
  587MOL0     H77444   4.890   4.060   1.578  1.1928 -1.4424  1.2435
  587MOL0     H77445   5.000   4.004   1.460  0.3595  0.6622 -1.8176
  587MOL0     H77446   4.738   3.948   1.460 -0.1548  1.4393  0.9641
  587MOL0     H77447   4.523   3.907   1.393 -3.3448  0.1254  1.0886
  587MOL0     H77448   4.166   4.173   1.332 -1.2770 -0.3799  0.7894
  587MOL0     H77449   3.925   4.180   1.333  0.3850  2.3407  0.0104
  587MOL0     H77450   3.716   4.228   1.296 -0.4615 -1.4991  2.4255
  587MOL0     H77451   3.707   4.052   1.276 -1.6515 -0.8901 -1.3227
  587MOL0     H77452   3.506   4.033   1.200 -1.5276 -0.0096  0.6021
  587MOL0     H77453   3.514   4.173   1.110 -0.8360  1.1263  1.1984
  587MOL0     H77454   3.360   4.234   1.275 -0.7428 -5.0998  0.0327
  587MOL0     H77455   3.509   4.326   1.305  0.8658 -0.4084 -0.2857
  587MOL0     H77456   3.411   4.068   1.442  2.6260 -2.1034  1.6322
  587MOL0     H77457   3.564   4.127   1.478 -1.2945 -1.3022 -2.6492
  587MOL0     H77458   3.503   4.331   1.570  2.0070 -1.6366 -1.2520
  587MOL0     H77459   3.424   4.196   1.657  0.2659  0.4379  0.1183
  587MOL0     H77460   3.223   4.244   1.484 -0.3798 -1.4638  3.1251
  587MOL0     H77461   3.316   4.396   1.460  1.2272  1.5249  1.8807
  587MOL0     H77462   3.232   4.340   1.745  0.1652  2.4424  0.5695
  587MOL0     H77463   3.244   4.489   1.650  2.6362 -0.2706  3.0443
  587MOL0     H77464   3.027   4.282   1.593  0.5838  1.4900 -2.6606
  587MOL0     H77465   3.038   4.428   1.531  1.1986  0.6203 -0.5900
  587MOL0     H77466   3.916   4.131   0.902  0.3592 -1.6108 -0.0308
  587MOL0     H77467   4.176   4.135   0.901  1.6939  2.8469  0.5598
  587MOL0     H77468   4.542   4.259   1.140 -2.5694 -1.4962  1.3608
  587MOL0     H77469   4.760   4.309   1.236 -2.1365  0.5703 -1.9526
  587MOL0     H77470   6.348   3.585   2.158  0.9493  0.2113 -1.2797
  587MOL0     H77471   6.584   3.544   2.210  0.1914 -1.4008  2.4968
  587MOL0     H77472   6.882   3.427   2.691  0.5925 -0.7545  0.0345
  587MOL0     H77473   7.114   3.355   2.670 -3.3007 -2.4891 -0.5740
  587MOL0     H77474   7.252   3.239   2.579 -0.6903 -0.1091  0.5245
  587MOL0     H77475   7.387   3.340   2.626  0.0755 -1.0729  0.3895
  587MOL0     H77476   7.446   3.119   2.506 -1.9857 -1.0385  0.6966
  587MOL0     H77477   7.384   3.195   2.354  0.6408  0.3496 -1.0076
  587MOL0     H77478   7.590   3.334   2.525  1.6945  2.0054 -0.2512
  587MOL0     H77479   7.531   3.366   2.364  0.5185 -1.0357 -0.4050
  587MOL0     H77480   7.686   3.132   2.460 -1.2022  0.0802  0.8555
  587MOL0     H77481   7.618   3.132   2.289  0.0543 -2.0413  0.6357
  587MOL0     H77482   7.961   3.373   2.246  0.7914 -0.7311 -0.7100
  587MOL0     H77483   7.158   3.561   2.305 -0.0470 -1.1387 -0.3839
  587MOL0     H77484   6.917   3.644   2.317  1.1530 -1.5042 -1.4212
  588MOL0     O77485  11.120   4.405   4.170 -0.6137 -0.6607 -0.2155
  588MOL0     C77486  11.172   4.406   4.284 -0.7257 -0.9798  0.7383
  588MOL0     O77487  11.115   4.360   4.399 -0.1839  0.0489  0.8040
  588MOL0     C77488  10.977   4.334   4.389 -0.9157  0.0918 -0.7253
  588MOL0     C77489  10.929   4.207   4.368  0.0782 -0.0602  0.6073
  588MOL0     C77490  10.789   4.186   4.360  0.0788 -0.4579  0.4557
  588MOL0     C77491  10.699   4.301   4.370 -0.8371 -0.0142  0.0019
  588MOL0     O77492  10.567   4.306   4.351 -0.9328 -0.2977 -0.1950
  588MOL0     C77493  10.495   4.239   4.449 -0.7097  0.4956  0.2121
  588MOL0     C77494  10.351   4.267   4.431 -0.5354 -0.4757  0.2875
  588MOL0     C77495  10.261   4.196   4.529  0.5886 -0.0832 -0.1966
  588MOL0     C77496  10.115   4.223   4.485  0.9073  0.4682  0.5355
  588MOL0     C77497  10.023   4.153   4.592 -0.2455 -0.0144 -0.2615
  588MOL0     C77498   9.870   4.171   4.545  0.1915  0.4834  0.7279
  588MOL0     C77499   9.763   4.084   4.627  0.4922  0.4455  0.3907
  588MOL0     C77500   9.757   4.139   4.765  0.2116  0.1717  0.2877
  588MOL0     N77501   9.646   4.097   4.846 -0.0809  0.6799  0.2798
  588MOL0     C77502   9.640   4.083   4.977  0.1810  0.3413 -0.4936
  588MOL0     C77503   9.512   4.041   5.011  0.1423 -0.8199  0.2856
  588MOL0     C77504   9.443   4.026   5.144 -0.5965 -0.6104  0.4961
  588MOL0     C77505   9.523   3.936   5.227 -0.1087  0.9548 -0.7976
  588MOL0     C77506   9.507   3.785   5.194 -0.1764 -0.1025 -1.0984
  588MOL0     C77507   9.352   3.744   5.181 -1.2961 -0.3821  0.7390
  588MOL0     O77508   9.279   3.779   5.303  0.3279  0.7275 -0.3070
  588MOL0     C77509   9.144   3.741   5.291 -0.9308  0.3421 -0.0712
  588MOL0     C77510   9.072   3.689   5.180  0.0170 -0.5673 -0.3922
  588MOL0     C77511   8.943   3.640   5.200  0.5941 -0.0454  0.6830
  588MOL0     C77512   8.879   3.654   5.324  0.2801  0.3649  0.1791
  588MOL0     C77513   8.737   3.619   5.349 -0.5037  0.0048  0.0494
  588MOL0     O77514   8.711   3.583   5.482 -0.5423  0.1504 -0.0947
  588MOL0     C77515   8.584   3.539   5.511  0.2117  0.2573  0.3433
  588MOL0     C77516   8.471   3.611   5.468 -0.1934 -0.7311 -0.5115
  588MOL0     C77517   8.336   3.569   5.497 -0.3542 -0.1425  0.3385
  588MOL0     C77518   8.313   3.449   5.573  0.1052 -0.4542  0.4204
  588MOL0     O77519   8.198   3.393   5.603  0.1167 -0.1582 -0.0518
  588MOL0     C77520   8.092   3.494   5.606  0.0751 -0.2123  0.5272
  588MOL0     C77521   7.969   3.440   5.667  0.0262  0.2500 -0.2029
  588MOL0     C77522   7.878   3.553   5.714  0.0306  0.0680 -0.2373
  588MOL0     C77523   7.743   3.496   5.757  0.1827 -0.1565 -0.5643
  588MOL0     C77524   7.750   3.433   5.892  0.4317 -0.3957  0.0789
  588MOL0     C77525   7.746   3.536   6.000  0.3942 -0.6700  0.2183
  588MOL0     C77526   7.794   3.500   6.137 -0.0526 -0.4323 -0.7898
  588MOL0     C77527   7.942   3.471   6.144 -0.5140  0.3771 -1.0196
  588MOL0    Cl77528   8.033   3.620   6.092  0.0738  0.0347 -0.0044
  588MOL0     C77529   8.425   3.381   5.615  0.1277  0.2315 -0.1375
  588MOL0     C77530   8.558   3.425   5.587 -0.1574  1.3357 -0.3830
  588MOL0     O77531   8.661   3.601   5.258 -0.0755 -0.1143  0.6915
  588MOL0     C77532   8.959   3.697   5.427 -0.0262  0.1833 -0.5813
  588MOL0     C77533   9.084   3.745   5.418 -0.6955 -0.6173  0.0468
  588MOL0     N77534   9.447   4.033   4.889 -0.2306  0.0134 -0.1851
  588MOL0     N77535   9.523   4.080   4.795 -0.5107  0.2717  0.3138
  588MOL0     C77536  10.757   4.430   4.399 -0.8592 -0.3787 -0.3910
  588MOL0     C77537  10.895   4.443   4.410  0.0781  0.6939 -0.1977
  588MOL0     C77538  11.303   4.466   4.288  0.1250  0.2965  0.2101
  588MOL0     C77539  11.385   4.438   4.404 -0.0760  0.5400 -0.2236
  588MOL0     C77540  11.515   4.482   4.415  0.6099  0.1913  0.4465
  588MOL0     C77541  11.578   4.550   4.310  0.1229  0.3008  0.4989
  588MOL0     O77542  11.712   4.580   4.314  0.0824  0.1831  0.2837
  588MOL0     C77543  11.768   4.658   4.207 -0.7676  0.6193  0.3244
  588MOL0     C77544  11.915   4.694   4.236 -0.0261 -0.2217  0.0164
  588MOL0     C77545  11.954   4.831   4.162 -0.9276  0.1227 -0.5209
  588MOL0     C77546  12.094   4.818   4.098  0.1430  0.4481  0.2892
  588MOL0     C77547  12.130   4.946   4.036 -0.9900 -0.0992 -0.3437
  588MOL0     C77548  12.156   5.055   3.985  0.6395  0.3578  0.3526
  588MOL0     C77549  11.493   4.596   4.205  0.4404 -0.6183 -0.1440
  588MOL0     C77550  11.358   4.552   4.197  0.8994 -0.4469  0.3094
  588MOL0     H77551  11.008   4.132   4.363 -0.7174 -1.0102  1.7284
  588MOL0     H77552  10.763   4.082   4.339 -1.6739  0.3800 -2.0433
  588MOL0     H77553  10.525   4.278   4.547 -2.1098  2.9775 -0.2715
  588MOL0     H77554  10.516   4.132   4.443  2.5420  0.9432  1.7775
  588MOL0     H77555  10.331   4.236   4.328 -0.3185 -0.2489  0.1739
  588MOL0     H77556  10.329   4.374   4.431 -0.9946 -0.5677  0.0067
  588MOL0     H77557  10.281   4.237   4.629  2.7580 -1.0726 -0.1590
  588MOL0     H77558  10.282   4.090   4.544 -0.9915 -0.3651  0.2089
  588MOL0     H77559  10.090   4.329   4.474 -0.4153  0.3583  2.0609
  588MOL0     H77560  10.088   4.180   4.389 -2.7433  0.8642  1.2454
  588MOL0     H77561  10.049   4.194   4.690 -1.7571 -2.6456  1.3404
  588MOL0     H77562  10.060   4.050   4.599  1.2744  0.2602 -2.9150
  588MOL0     H77563   9.859   4.154   4.437 -0.2852 -0.4577  0.9079
  588MOL0     H77564   9.846   4.277   4.558 -1.6463  0.0659  1.0828
  588MOL0     H77565   9.672   4.097   4.568  0.2791 -1.6920  0.1710
  588MOL0     H77566   9.788   3.979   4.615 -0.3452  0.3188 -0.3779
  588MOL0     H77567   9.765   4.248   4.772  1.0461  0.1177  0.1789
  588MOL0     H77568   9.854   4.112   4.807 -1.1724 -1.9016  2.4226
  588MOL0     H77569   9.720   4.090   5.050 -1.4290  1.3991  1.2581
  588MOL0     H77570   9.336   4.005   5.135 -0.9574  1.6685 -2.5682
  588MOL0     H77571   9.458   4.129   5.177 -1.1161  1.0774 -3.7851
  588MOL0     H77572   9.504   3.944   5.335  0.5788 -1.2161 -0.4543
  588MOL0     H77573   9.631   3.946   5.211  0.4040 -0.8756  1.0416
  588MOL0     H77574   9.564   3.762   5.104 -1.0800 -1.5072 -1.3346
  588MOL0     H77575   9.557   3.735   5.278  0.2005  2.0420  0.0521
  588MOL0     H77576   9.341   3.638   5.157  3.3121 -1.0506  0.7569
  588MOL0     H77577   9.318   3.796   5.091  0.6228  0.9071  0.6983
  588MOL0     H77578   9.130   3.683   5.089  0.9287  0.3353  0.1213
  588MOL0     H77579   8.885   3.597   5.118  0.2052 -0.1194  0.9925
  588MOL0     H77580   8.488   3.703   5.414 -0.3786  0.4345  1.3183
  588MOL0     H77581   8.252   3.626   5.457  1.6283  2.3714 -0.5345
  588MOL0     H77582   8.063   3.529   5.506 -2.0885  0.7931  1.4531
  588MOL0     H77583   8.122   3.581   5.664 -0.0475  0.5181 -0.4701
  588MOL0     H77584   7.994   3.372   5.749 -0.1556  2.3319  1.6844
  588MOL0     H77585   7.913   3.379   5.595  2.9098 -1.2675 -1.3403
  588MOL0     H77586   7.854   3.616   5.627 -0.9609 -0.5180 -0.3998
  588MOL0     H77587   7.924   3.610   5.796 -2.6420  2.1099 -0.0129
  588MOL0     H77588   7.665   3.573   5.756 -0.2868 -0.5094  1.9892
  588MOL0     H77589   7.693   3.430   5.686  0.2719 -1.4040  0.5045
  588MOL0     H77590   7.845   3.381   5.897 -0.0210 -1.1150  2.4115
  588MOL0     H77591   7.671   3.359   5.907  0.4926 -0.2832  1.0478
  588MOL0     H77592   7.642   3.569   6.014  0.2305 -1.3655  0.6716
  588MOL0     H77593   7.805   3.623   5.968  0.6810 -1.5119 -1.6482
  588MOL0     H77594   7.781   3.585   6.205  3.0581 -0.6224  0.1674
  588MOL0     H77595   7.724   3.421   6.166 -0.6308  0.2961 -0.1644
  588MOL0     H77596   7.977   3.389   6.081  0.0974 -0.3032  0.1808
  588MOL0     H77597   7.978   3.441   6.243  3.4298 -0.5315 -2.5517
  588MOL0     H77598   8.428   3.291   5.676  1.5855  1.6856  2.0757
  588MOL0     H77599   8.638   3.363   5.626 -1.0156  1.8087  2.3197
  588MOL0     H77600   8.915   3.700   5.526  1.9534 -2.0868  0.4676
  588MOL0     H77601   9.134   3.789   5.504 -3.1491  1.7139  0.4202
  588MOL0     H77602  10.684   4.507   4.420 -0.2227 -0.0251  0.6211
  588MOL0     H77603  10.938   4.541   4.426  2.3504 -0.2368 -0.2662
  588MOL0     H77604  11.349   4.379   4.488  0.7434  2.0108  1.2241
  588MOL0     H77605  11.568   4.456   4.506  3.0531 -0.7397 -1.1427
  588MOL0     H77606  11.707   4.749   4.198 -0.9825  0.4703  0.2566
  588MOL0     H77607  11.760   4.611   4.108  0.5324  3.3412 -1.1864
  588MOL0     H77608  11.929   4.701   4.344  2.9111  0.1194 -0.3218
  588MOL0     H77609  11.978   4.614   4.196  2.5993  1.3767  0.7471
  588MOL0     H77610  11.951   4.913   4.235 -1.7758  1.0595 -1.5834
  588MOL0     H77611  11.878   4.860   4.089  0.3716  1.7984 -1.2604
  588MOL0     H77612  12.163   4.792   4.179 -1.2853 -0.5225  1.2376
  588MOL0     H77613  12.080   4.739   4.023 -1.9022  0.1708  0.9122
  588MOL0     H77614  12.186   5.151   3.946 -1.2708 -0.3649 -3.4034
  588MOL0     H77615  11.532   4.654   4.122 -1.1941  0.4667 -0.2019
  588MOL0     H77616  11.297   4.579   4.111  0.1401 -1.6250  0.4542
  589MOL0     O77617   9.385   5.893   1.444  1.0415 -0.3030  0.0251
  589MOL0     C77618   9.411   5.803   1.520  0.9608 -0.3715  0.8260
  589MOL0     O77619   9.315   5.731   1.601  0.0426 -0.2948 -0.4374
  589MOL0     C77620   9.184   5.771   1.594  0.7765  0.2674  0.2904
  589MOL0     C77621   9.136   5.817   1.713 -0.1663 -0.7425 -0.6075
  589MOL0     C77622   9.019   5.891   1.730  0.6628  0.9102 -0.2855
  589MOL0     C77623   8.929   5.885   1.621  0.4459  0.0718  0.3354
  589MOL0     O77624   8.800   5.924   1.634 -0.7013 -1.3185 -0.2488
  589MOL0     C77625   8.771   6.056   1.691 -1.0869  0.7716  0.2736
  589MOL0     C77626   8.622   6.060   1.690 -0.3082 -0.3425 -0.1846
  589MOL0     C77627   8.558   6.170   1.779  0.1527  0.0183 -0.6909
  589MOL0     C77628   8.398   6.159   1.768 -0.2037 -0.7032  0.3952
  589MOL0     C77629   8.324   6.236   1.878 -0.4149 -0.2172  0.0855
  589MOL0     C77630   8.179   6.274   1.846 -0.4465  0.3672 -0.5725
  589MOL0     C77631   8.113   6.386   1.929  1.0977 -0.1461  0.4548
  589MOL0     C77632   8.117   6.361   2.084 -0.1778 -0.2317  0.3714
  589MOL0     N77633   8.020   6.267   2.131 -0.1892  0.1002 -0.1255
  589MOL0     C77634   8.044   6.132   2.122 -0.0150 -1.0469  0.4707
  589MOL0     C77635   7.926   6.081   2.166  0.5221  0.7245 -0.2169
  589MOL0     C77636   7.883   5.945   2.181  0.4195  0.4857  0.4703
  589MOL0     C77637   7.969   5.889   2.297  0.0582 -0.5063  0.2002
  589MOL0     C77638   7.966   5.739   2.287  0.1712 -0.0444  0.1935
  589MOL0     C77639   7.827   5.679   2.302 -0.6147 -1.1602 -0.3495
  589MOL0     O77640   7.807   5.666   2.446  0.4343 -0.1224  0.6988
  589MOL0     C77641   7.695   5.598   2.476  0.2760 -0.5229  0.4275
  589MOL0     C77642   7.609   5.540   2.380 -0.0871  0.2592  0.2557
  589MOL0     C77643   7.480   5.489   2.423  0.2226 -1.0234  0.6021
  589MOL0     C77644   7.441   5.489   2.557 -0.5877  0.8993 -0.3884
  589MOL0     C77645   7.310   5.451   2.607 -0.1111  0.1851  0.4680
  589MOL0     O77646   7.251   5.342   2.567 -0.2021  0.7852 -0.3760
  589MOL0     C77647   7.126   5.304   2.605  0.9283 -0.0241 -0.3526
  589MOL0     C77648   7.075   5.320   2.739 -0.1711 -0.1207  0.2909
  589MOL0     C77649   6.944   5.284   2.772  0.6925  0.0060 -0.4509
  589MOL0     C77650   6.868   5.210   2.681 -0.5618 -0.1053 -0.4312
  589MOL0     O77651   6.750   5.156   2.723  0.7043 -0.0172  0.8264
  589MOL0     C77652   6.641   5.122   2.632  0.0175 -0.2884 -0.1439
  589MOL0     C77653   6.520   5.098   2.724 -0.2996  0.5315  0.1032
  589MOL0     C77654   6.474   5.229   2.788  0.7123  0.6556  0.4509
  589MOL0     C77655   6.325   5.219   2.837 -0.0322  0.6789  0.5427
  589MOL0     C77656   6.316   5.324   2.950 -0.5201  0.7359 -0.8072
  589MOL0     C77657   6.178   5.302   3.023  0.5732 -0.1776 -0.3249
  589MOL0     C77658   6.047   5.330   2.933 -0.8149  0.0541 -0.3277
  589MOL0     C77659   5.921   5.303   3.019 -0.0070 -0.3847 -0.4867
  589MOL0    Cl77660   5.895   5.420   3.150  0.0154  0.4278 -0.2355
  589MOL0     C77661   6.921   5.190   2.549 -0.7655 -0.1672 -0.5336
  589MOL0     C77662   7.044   5.239   2.509  0.2131  0.1120 -0.7715
  589MOL0     O77663   7.258   5.543   2.674 -0.1430 -0.3416 -0.2960
  589MOL0     C77664   7.526   5.550   2.645 -0.3959 -0.0341 -0.3595
  589MOL0     C77665   7.652   5.601   2.606  0.1049 -1.0103  1.0419
  589MOL0     N77666   7.837   6.191   2.198  0.1984  0.0931  0.6401
  589MOL0     N77667   7.893   6.299   2.170  0.4867 -0.2093  0.5359
  589MOL0     C77668   8.973   5.843   1.496  0.6914 -0.0538 -0.0346
  589MOL0     C77669   9.103   5.790   1.480 -0.4560  0.5863  0.3464
  589MOL0     C77670   9.547   5.764   1.518 -0.0159 -0.0097 -0.7321
  589MOL0     C77671   9.590   5.671   1.614 -0.6823  0.5668  0.5261
  589MOL0     C77672   9.723   5.634   1.616 -0.4719  0.1113 -0.7918
  589MOL0     C77673   9.817   5.699   1.539 -0.4753 -0.1523  0.1406
  589MOL0     O77674   9.949   5.659   1.559  0.2204 -0.2034  0.1475
  589MOL0     C77675  10.059   5.746   1.520  0.5536  0.3879  0.1608
  589MOL0     C77676  10.189   5.695   1.574 -0.5679 -0.4692 -1.0510
  589MOL0     C77677  10.307   5.783   1.561 -0.4004 -0.0832  0.6330
  589MOL0     C77678  10.424   5.706   1.620  0.8601  0.1251  0.8695
  589MOL0     C77679  10.539   5.792   1.603 -0.4505  0.3143  0.5319
  589MOL0     C77680  10.651   5.848   1.606  0.8037 -0.3303  0.1450
  589MOL0     C77681   9.781   5.791   1.447 -0.4283 -0.2931 -0.0842
  589MOL0     C77682   9.648   5.824   1.427 -0.2125 -0.2377  0.3837
  589MOL0     H77683   9.204   5.816   1.798 -0.2174 -0.0431 -0.5460
  589MOL0     H77684   8.982   5.924   1.827  0.3604  0.6341 -0.3075
  589MOL0     H77685   8.811   6.120   1.612  0.2801 -0.7837 -0.3519
  589MOL0     H77686   8.820   6.071   1.788 -0.0772 -0.3127 -0.0361
  589MOL0     H77687   8.588   5.966   1.735 -1.4933  0.1368 -0.0310
  589MOL0     H77688   8.586   6.066   1.587  1.4061  0.3248 -0.7899
  589MOL0     H77689   8.586   6.271   1.747  0.0794  0.5035  0.7140
  589MOL0     H77690   8.580   6.158   1.885  1.2154 -0.6002 -0.9713
  589MOL0     H77691   8.366   6.186   1.667  0.1948 -2.7878 -0.3306
  589MOL0     H77692   8.364   6.055   1.767 -1.0033 -0.5464  2.8784
  589MOL0     H77693   8.381   6.329   1.888  1.4677 -1.2342 -0.5631
  589MOL0     H77694   8.318   6.166   1.962 -2.0362 -2.2831 -1.6361
  589MOL0     H77695   8.111   6.189   1.840  0.9970 -0.8702 -0.1540
  589MOL0     H77696   8.173   6.311   1.744  0.3284 -0.9816 -1.1291
  589MOL0     H77697   8.168   6.478   1.905 -0.5353  0.1556 -2.6774
  589MOL0     H77698   8.012   6.415   1.897 -0.2014 -0.1255  4.1776
  589MOL0     H77699   8.096   6.450   2.144 -2.5789 -1.3804  1.3650
  589MOL0     H77700   8.219   6.329   2.107  0.7728  2.2644 -0.0420
  589MOL0     H77701   8.135   6.076   2.104 -0.3074 -0.5334 -3.7583
  589MOL0     H77702   7.911   5.890   2.090 -0.0110 -0.7399  1.0473
  589MOL0     H77703   7.777   5.937   2.206  0.4846 -2.5460  0.2204
  589MOL0     H77704   7.928   5.915   2.395 -0.8314 -1.4065  0.0773
  589MOL0     H77705   8.073   5.923   2.286  0.0267 -1.0409 -2.2307
  589MOL0     H77706   8.001   5.719   2.185  0.1646  3.9363 -0.7224
  589MOL0     H77707   8.038   5.691   2.355  0.6055  0.0049 -0.2199
  589MOL0     H77708   7.841   5.585   2.248 -0.9436 -0.3193 -1.9578
  589MOL0     H77709   7.750   5.741   2.255 -0.2737 -0.6104 -0.1999
  589MOL0     H77710   7.647   5.530   2.279  3.8013 -1.4624  1.6961
  589MOL0     H77711   7.419   5.442   2.346  0.9594 -1.6116  0.3655
  589MOL0     H77712   7.136   5.380   2.805  0.0073  0.7035 -0.6009
  589MOL0     H77713   6.887   5.295   2.863 -2.1467 -1.6538 -1.8592
  589MOL0     H77714   6.668   5.031   2.578 -2.0943 -0.4782 -0.9736
  589MOL0     H77715   6.632   5.202   2.558  0.2654 -0.4409 -0.3371
  589MOL0     H77716   6.541   5.025   2.803  1.8822  1.0049  0.0109
  589MOL0     H77717   6.436   5.068   2.660 -1.3999 -0.9707  2.1380
  589MOL0     H77718   6.475   5.295   2.701  2.9586  2.3708  1.6722
  589MOL0     H77719   6.545   5.259   2.866 -0.5869 -0.6512  2.2445
  589MOL0     H77720   6.261   5.249   2.753  2.1953  0.7733 -1.1999
  589MOL0     H77721   6.307   5.117   2.871  4.0889 -0.3002  0.2458
  589MOL0     H77722   6.319   5.425   2.908  1.6616  0.6432 -0.9818
  589MOL0     H77723   6.398   5.322   3.022  0.1303  0.6983 -1.5424
  589MOL0     H77724   6.175   5.373   3.106 -1.3315 -0.1083 -0.4115
  589MOL0     H77725   6.173   5.198   3.058  1.0683  0.0999  0.6040
  589MOL0     H77726   6.029   5.433   2.901 -2.6592 -0.2350 -0.3713
  589MOL0     H77727   6.050   5.268   2.843 -1.0746  0.3358 -0.5356
  589MOL0     H77728   5.925   5.205   3.067  0.0731 -0.6572 -1.0400
  589MOL0     H77729   5.836   5.307   2.949 -2.2615  2.0668  2.1308
  589MOL0     H77730   6.871   5.124   2.479  1.9055 -1.1506 -1.6384
  589MOL0     H77731   7.088   5.209   2.414 -2.8262  0.6723 -2.4625
  589MOL0     H77732   7.494   5.565   2.748  2.8296 -1.8599  1.0915
  589MOL0     H77733   7.709   5.641   2.689  0.3386  0.7450  0.0843
  589MOL0     H77734   8.900   5.833   1.416 -0.6085 -1.6213  1.2654
  589MOL0     H77735   9.141   5.751   1.386  5.3728  1.3571  1.9744
  589MOL0     H77736   9.520   5.633   1.687 -0.4497  0.1898  0.5549
  589MOL0     H77737   9.761   5.568   1.693  3.6897 -0.0045 -2.6986
  589MOL0     H77738  10.032   5.848   1.548  0.9288  0.5630 -0.1058
  589MOL0     H77739  10.062   5.752   1.411 -2.2295 -1.7572 -0.1562
  589MOL0     H77740  10.174   5.678   1.681 -1.1900 -0.0999 -1.0781
  589MOL0     H77741  10.215   5.606   1.515 -0.1184  0.5778 -2.4896
  589MOL0     H77742  10.278   5.868   1.623  0.5908 -1.1734  2.7015
  589MOL0     H77743  10.320   5.825   1.461 -0.1532 -0.0419  0.6825
  589MOL0     H77744  10.411   5.684   1.727  1.0257  0.4617  0.9588
  589MOL0     H77745  10.446   5.611   1.571  1.0802 -0.1738  1.5289
  589MOL0     H77746  10.732   5.914   1.626 -0.3324  0.5424  2.1667
  589MOL0     H77747   9.856   5.842   1.388 -1.0635 -1.3306 -1.8684
  589MOL0     H77748   9.621   5.904   1.360 -0.2140  1.3518  2.1891
  590MOL0     O77749   7.909   3.714   6.778  0.1695  0.1447  0.1404
  590MOL0     C77750   7.872   3.764   6.672  0.2421  0.3831  0.2481
  590MOL0     O77751   7.737   3.784   6.645  0.6311 -0.5345  0.4169
  590MOL0     C77752   7.655   3.785   6.758  1.0542  0.4681  0.6032
  590MOL0     C77753   7.687   3.859   6.873  0.4259 -0.6547 -0.2899
  590MOL0     C77754   7.597   3.858   6.982 -0.1388  0.5579 -0.7851
  590MOL0     C77755   7.469   3.799   6.977 -0.2866 -0.5820  0.0565
  590MOL0     O77756   7.372   3.823   7.077 -0.1741 -0.2954  0.1326
  590MOL0     C77757   7.390   3.955   7.149  0.3930 -0.3221  1.2146
  590MOL0     C77758   7.268   3.977   7.238 -0.1265  0.1058 -1.0232
  590MOL0     C77759   7.236   3.863   7.330  0.3520  1.1348  0.4540
  590MOL0     C77760   7.131   3.883   7.432  0.1199  0.4666 -0.1711
  590MOL0     C77761   7.146   3.773   7.542  0.0768 -0.5810  0.2561
  590MOL0     C77762   7.013   3.709   7.590 -0.4889  0.2870 -0.6550
  590MOL0     C77763   6.900   3.813   7.620 -0.2663  0.3974  0.4615
  590MOL0     C77764   6.805   3.758   7.731 -0.2511  0.5305 -0.1996
  590MOL0     N77765   6.695   3.855   7.761 -0.0693  0.4618  0.0583
  590MOL0     C77766   6.595   3.891   7.672 -0.3704 -0.2961  0.0165
  590MOL0     C77767   6.530   3.990   7.735  0.1250 -0.4688  0.8033
  590MOL0     C77768   6.419   4.065   7.667 -0.5987  0.2645  0.6488
  590MOL0     C77769   6.308   3.963   7.642 -1.2788  0.4301 -0.1391
  590MOL0     C77770   6.250   3.909   7.764 -0.4286 -0.3297 -0.0972
  590MOL0     C77771   6.195   4.016   7.858 -0.4360  0.3153 -0.7742
  590MOL0     O77772   6.100   3.964   7.951 -0.5352 -0.8391  0.3304
  590MOL0     C77773   6.019   4.045   8.021  0.1331 -0.0776 -0.2620
  590MOL0     C77774   5.904   3.989   8.079 -0.9252  0.3790  0.3389
  590MOL0     C77775   5.807   4.068   8.140 -0.6030 -0.0277  0.5270
  590MOL0     C77776   5.828   4.208   8.144  0.5440 -0.0494  0.2649
  590MOL0     C77777   5.735   4.298   8.209  0.3752 -0.3297 -0.1641
  590MOL0     O77778   5.628   4.236   8.270 -0.1877  0.5405  0.4775
  590MOL0     C77779   5.543   4.305   8.346 -0.3659  0.7663  0.1849
  590MOL0     C77780   5.586   4.353   8.469 -0.0396  0.0480 -0.1172
  590MOL0     C77781   5.505   4.414   8.559  0.2722 -0.5684  0.1146
  590MOL0     C77782   5.366   4.439   8.527 -0.5776  0.1595  0.4223
  590MOL0     O77783   5.279   4.483   8.614  0.3315 -0.3219 -0.7310
  590MOL0     C77784   5.213   4.606   8.567 -0.1495 -0.2868  0.8965
  590MOL0     C77785   5.189   4.701   8.689  0.3144 -0.6885  0.1136
  590MOL0     C77786   5.122   4.834   8.654  0.5880  0.3570 -0.6580
  590MOL0     C77787   5.083   4.899   8.790  0.8075  0.2767 -0.1481
  590MOL0     C77788   5.022   5.037   8.755 -0.5425  0.2378  0.1782
  590MOL0     C77789   4.954   5.097   8.876  0.0039  0.0401 -0.3136
  590MOL0     C77790   4.902   5.241   8.852  0.3210  0.5216  0.0644
  590MOL0     C77791   4.765   5.226   8.781 -0.1421  0.4746 -0.0911
  590MOL0    Cl77792   4.706   5.387   8.757 -0.0384 -0.4958  0.3550
  590MOL0     C77793   5.320   4.392   8.402 -0.0803  0.1678 -0.8189
  590MOL0     C77794   5.409   4.327   8.314  0.2324  0.4666 -0.4460
  590MOL0     O77795   5.752   4.419   8.205  0.1061  0.2500  0.0102
  590MOL0     C77796   5.946   4.262   8.086 -0.4612  0.1010 -1.0092
  590MOL0     C77797   6.040   4.181   8.026  0.1979 -0.4340  0.4347
  590MOL0     N77798   6.591   4.013   7.855  0.1512 -0.7810 -0.2830
  590MOL0     N77799   6.687   3.936   7.869 -0.0825  0.8968  0.4032
  590MOL0     C77800   7.444   3.720   6.865 -0.1741 -0.7381  1.0208
  590MOL0     C77801   7.530   3.721   6.755  0.0692  0.4400 -0.6231
  590MOL0     C77802   7.966   3.799   6.565 -0.5478 -0.0129 -0.0386
  590MOL0     C77803   8.107   3.797   6.591 -0.1276 -0.2571  0.3442
  590MOL0     C77804   8.202   3.826   6.495  0.6221 -0.7299 -0.1572
  590MOL0     C77805   8.156   3.867   6.372  0.2299  0.4653 -0.6423
  590MOL0     O77806   8.253   3.915   6.290 -0.1119  0.3828  0.3071
  590MOL0     C77807   8.241   3.897   6.150 -1.3227  0.2904  0.6204
  590MOL0     C77808   8.370   3.950   6.073 -0.6359  0.1058 -0.1871
  590MOL0     C77809   8.384   4.102   6.064  0.6670 -0.4228  0.3437
  590MOL0     C77810   8.522   4.138   6.003  0.2963  0.3261  0.2681
  590MOL0     C77811   8.531   4.283   5.964  0.5402 -0.5272  0.6015
  590MOL0     C77812   8.525   4.400   5.940  0.1560  0.3584  0.4391
  590MOL0     C77813   8.020   3.871   6.336 -0.4530 -0.3933 -0.2008
  590MOL0     C77814   7.921   3.827   6.432  0.5680 -0.2574 -0.6505
  590MOL0     H77815   7.778   3.916   6.881  0.7822 -1.4098  1.7775
  590MOL0     H77816   7.629   3.916   7.068  0.8006  1.8007 -1.9266
  590MOL0     H77817   7.390   4.040   7.081  1.4371  0.3052  1.9696
  590MOL0     H77818   7.483   3.965   7.206  2.0688  4.5083 -1.7472
  590MOL0     H77819   7.176   4.004   7.185  0.1919  2.0891 -0.6507
  590MOL0     H77820   7.288   4.066   7.298  1.7883 -0.0171 -1.4280
  590MOL0     H77821   7.332   3.837   7.376  0.8603 -0.7665 -1.5098
  590MOL0     H77822   7.210   3.774   7.273  2.9338  2.3366 -2.9647
  590MOL0     H77823   7.129   3.978   7.486  5.3785 -0.9567  3.3947
  590MOL0     H77824   7.033   3.874   7.385 -0.8932  2.8244  1.3148
  590MOL0     H77825   7.200   3.824   7.622  0.8907  2.6500 -2.1222
  590MOL0     H77826   7.209   3.697   7.496 -1.0766  0.3707 -3.3099
  590MOL0     H77827   7.028   3.646   7.678  1.9818 -0.9082 -1.8334
  590MOL0     H77828   6.982   3.644   7.508  1.7983 -1.0971 -0.5066
  590MOL0     H77829   6.933   3.916   7.628 -1.8983  1.0764 -0.9373
  590MOL0     H77830   6.833   3.822   7.534 -1.3030  1.1600  1.3327
  590MOL0     H77831   6.875   3.749   7.816  1.0376  1.2822 -1.1374
  590MOL0     H77832   6.766   3.659   7.707  1.0564  0.2027 -1.1252
  590MOL0     H77833   6.575   3.856   7.572 -2.8997  0.2062  0.2974
  590MOL0     H77834   6.458   4.094   7.569 -1.6573 -1.3057 -0.2827
  590MOL0     H77835   6.387   4.159   7.713  0.8129  0.9218  0.3400
  590MOL0     H77836   6.336   3.882   7.573 -0.6273  0.3917  0.1618
  590MOL0     H77837   6.226   4.000   7.579 -1.6450 -2.0642 -1.2542
  590MOL0     H77838   6.164   3.845   7.741 -0.7642  0.5325 -1.3403
  590MOL0     H77839   6.326   3.850   7.816 -1.4964 -1.5711  0.1151
  590MOL0     H77840   6.151   4.102   7.805  1.9961  1.5963 -0.8613
  590MOL0     H77841   6.279   4.057   7.915 -0.0707 -0.4845 -0.7321
  590MOL0     H77842   5.889   3.882   8.069  0.4147  0.1653  0.3705
  590MOL0     H77843   5.714   4.026   8.177 -1.2391  0.9852  0.1363
  590MOL0     H77844   5.688   4.321   8.490  0.2344  0.1226 -1.2625
  590MOL0     H77845   5.541   4.437   8.659  0.3865 -2.8422  0.6576
  590MOL0     H77846   5.120   4.595   8.511 -0.4265 -2.5001  1.7011
  590MOL0     H77847   5.277   4.660   8.496 -0.6109 -0.3601  0.4190
  590MOL0     H77848   5.282   4.735   8.734  0.6297 -0.9596 -0.3270
  590MOL0     H77849   5.129   4.640   8.758 -1.9223 -0.2753 -1.3406
  590MOL0     H77850   5.031   4.815   8.595 -0.6319 -1.6534  1.6814
  590MOL0     H77851   5.187   4.898   8.593 -0.2741  0.7066 -1.2327
  590MOL0     H77852   5.014   4.838   8.849 -0.5882  0.0069 -1.9705
  590MOL0     H77853   5.173   4.905   8.852  1.1109  0.6160 -0.6184
  590MOL0     H77854   4.943   5.031   8.679 -0.2771 -0.0267 -0.0806
  590MOL0     H77855   5.100   5.106   8.721  0.2304  0.8882  3.0122
  590MOL0     H77856   5.021   5.104   8.962 -0.4784  0.2522  0.0464
  590MOL0     H77857   4.867   5.037   8.903  0.0347  0.2288  0.2143
  590MOL0     H77858   4.885   5.294   8.946  3.3741  1.8100  0.0137
  590MOL0     H77859   4.973   5.300   8.793  0.5047  0.1536 -0.0893
  590MOL0     H77860   4.695   5.160   8.833  0.2691  1.7304  2.1965
  590MOL0     H77861   4.793   5.187   8.683 -0.3582  1.2968 -0.4867
  590MOL0     H77862   5.212   4.399   8.399 -0.2372 -1.4628 -0.2162
  590MOL0     H77863   5.387   4.290   8.214 -1.0140  1.4450 -0.5558
  590MOL0     H77864   5.967   4.368   8.086  1.1207 -0.1850 -2.0254
  590MOL0     H77865   6.131   4.222   7.985  0.0355  0.4070  0.8914
  590MOL0     H77866   7.347   3.672   6.866 -0.1113 -0.8659  0.8800
  590MOL0     H77867   7.493   3.668   6.668  0.5880 -0.7596 -0.1480
  590MOL0     H77868   8.146   3.772   6.689  3.3391  0.3459 -0.7534
  590MOL0     H77869   8.305   3.828   6.528  0.0573  1.1615  1.7235
  590MOL0     H77870   8.155   3.956   6.116 -1.3277 -0.7206 -1.2839
  590MOL0     H77871   8.227   3.792   6.125 -0.1584 -0.0868  1.4924
  590MOL0     H77872   8.450   3.897   6.125 -1.2804  1.0911  1.9266
  590MOL0     H77873   8.365   3.910   5.972 -1.1538 -0.9475  0.2372
  590MOL0     H77874   8.374   4.154   6.160 -3.8127  0.0519 -0.1805
  590MOL0     H77875   8.299   4.128   6.000  1.2194 -1.0669 -0.6909
  590MOL0     H77876   8.590   4.128   6.089  1.6729 -0.5986 -0.8770
  590MOL0     H77877   8.566   4.071   5.928  0.6516 -1.2363  1.8109
  590MOL0     H77878   8.518   4.505   5.920 -0.3019  0.6485  1.9781
  590MOL0     H77879   7.980   3.919   6.247  3.4260  1.5147 -1.1534
  590MOL0     H77880   7.819   3.815   6.394  0.7606  0.5605 -1.4543
  591MOL0     O77881   1.911  11.086   1.770 -0.9442  0.4518  0.5409
  591MOL0     C77882   1.822  11.148   1.826 -0.1841 -0.0327 -0.3423
  591MOL0     O77883   1.696  11.097   1.848 -1.2572  0.5883 -0.1175
  591MOL0     C77884   1.661  10.973   1.817 -0.1546 -0.6112  0.8494
  591MOL0     C77885   1.530  10.961   1.778  0.1512 -0.1134 -0.4581
  591MOL0     C77886   1.472  10.835   1.768 -0.1803 -0.1096 -0.1726
  591MOL0     C77887   1.549  10.718   1.769  0.5156 -0.4293  0.1318
  591MOL0     O77888   1.492  10.594   1.745  0.3098  0.3800 -0.1053
  591MOL0     C77889   1.483  10.507   1.862  0.0839 -0.2440 -0.9477
  591MOL0     C77890   1.343  10.524   1.938 -0.5112 -0.0670 -0.1097
  591MOL0     C77891   1.324  10.440   2.069 -0.1899 -0.0491  0.1122
  591MOL0     C77892   1.203  10.485   2.153  0.2593 -0.8439  0.0431
  591MOL0     C77893   1.219  10.470   2.300 -0.2984 -0.2887 -0.2213
  591MOL0     C77894   1.251  10.325   2.338  0.5034 -0.4753 -0.6847
  591MOL0     C77895   1.123  10.242   2.315  0.2267 -0.9929 -0.8648
  591MOL0     C77896   1.139  10.109   2.244 -0.2836  0.0168  0.6247
  591MOL0     N77897   1.015  10.027   2.261 -1.0168 -0.7766  0.2521
  591MOL0     C77898   0.980   9.957   2.374 -0.0175 -0.0777 -0.6635
  591MOL0     C77899   0.856   9.925   2.355 -0.0439 -0.0973 -0.1259
  591MOL0     C77900   0.786   9.834   2.440 -0.3723  0.1155  0.1136
  591MOL0     C77901   0.645   9.801   2.388 -0.1412  0.2201  0.2257
  591MOL0     C77902   0.591   9.666   2.435 -0.6256  0.0218 -0.3597
  591MOL0     C77903   0.438   9.663   2.423 -0.1195  0.2808 -0.1652
  591MOL0     O77904   0.403   9.529   2.462  0.2155 -0.5018 -0.1705
  591MOL0     C77905   0.265   9.511   2.480  0.3819  0.0175  0.6276
  591MOL0     C77906   0.233   9.382   2.513  0.1009  0.8060  0.1000
  591MOL0     C77907   0.100   9.340   2.515 -0.1680 -0.3070 -0.4873
  591MOL0     C77908  -0.005   9.436   2.498 -0.6298  0.5263 -0.0300
  591MOL0     C77909  -0.143   9.388   2.494  0.0905  0.0358 -0.0704
  591MOL0     O77910  -0.239   9.487   2.481  0.0468  0.1474  0.5210
  591MOL0     C77911  -0.371   9.450   2.480  0.5153  0.1054  0.1032
  591MOL0     C77912  -0.429   9.395   2.599  0.5943 -0.2134 -0.5687
  591MOL0     C77913  -0.566   9.385   2.611  0.4292 -0.1084  0.1645
  591MOL0     C77914  -0.648   9.417   2.499 -0.1202  0.5243  0.1581
  591MOL0     O77915  -0.784   9.408   2.492 -0.2832  0.0843 -0.0466
  591MOL0     C77916  -0.853   9.471   2.599  1.3463 -0.4148 -0.0174
  591MOL0     C77917  -1.005   9.459   2.556 -0.7542  0.0999 -0.2411
  591MOL0     C77918  -1.110   9.474   2.672 -0.0925  0.4192  0.0962
  591MOL0     C77919  -1.253   9.461   2.615 -0.4689 -0.3060 -0.6007
  591MOL0     C77920  -1.355   9.480   2.724 -0.7772  0.3756  0.8983
  591MOL0     C77921  -1.495   9.455   2.676  0.9887 -0.3068 -0.1083
  591MOL0     C77922  -1.597   9.414   2.786  0.4805  0.5534  0.5049
  591MOL0     C77923  -1.728   9.421   2.713  0.7511 -0.5938 -0.5245
  591MOL0    Cl77924  -1.829   9.567   2.747 -0.2193  0.3924 -0.2596
  591MOL0     C77925  -0.590   9.468   2.382 -0.9183  0.9728  0.3783
  591MOL0     C77926  -0.449   9.487   2.370  0.4211  0.2447  0.1327
  591MOL0     O77927  -0.167   9.269   2.520  0.3452 -0.2638  0.1956
  591MOL0     C77928   0.032   9.568   2.472  0.8031  0.2360  0.1489
  591MOL0     C77929   0.164   9.608   2.452  0.9142  0.1301 -0.5520
  591MOL0     N77930   0.804   9.987   2.239  0.1051 -0.3526 -0.2852
  591MOL0     N77931   0.901  10.051   2.188 -0.2437  0.1993  0.0330
  591MOL0     C77932   1.687  10.730   1.803  0.1567 -0.1986  0.2548
  591MOL0     C77933   1.739  10.855   1.838 -0.1776 -0.2099 -0.3433
  591MOL0     C77934   1.857  11.273   1.895  0.3055  0.1949  0.0636
  591MOL0     C77935   1.764  11.371   1.910  0.9743  0.1112 -0.0797
  591MOL0     C77936   1.800  11.490   1.972 -0.0847  0.2711 -0.1790
  591MOL0     C77937   1.921  11.510   2.046 -0.2439  0.1266  0.1055
  591MOL0     O77938   1.953  11.624   2.115 -0.1427  0.2964  0.3347
  591MOL0     C77939   1.866  11.739   2.110  0.0202  0.6189  0.3550
  591MOL0     C77940   1.946  11.854   2.166 -0.4337  0.1973  0.2032
  591MOL0     C77941   2.020  11.928   2.050 -0.7550 -0.8038  0.1539
  591MOL0     C77942   2.077  12.066   2.101  0.0404  0.7330 -0.9277
  591MOL0     C77943   1.964  12.164   2.093 -0.0149  0.9036  0.6954
  591MOL0     C77944   1.870  12.239   2.053 -0.5635 -0.3617  0.1023
  591MOL0     C77945   2.010  11.403   2.027 -0.0219 -0.3349 -0.4248
  591MOL0     C77946   1.988  11.290   1.954 -0.3508  0.0863  0.0392
  591MOL0     H77947   1.467  11.049   1.778 -0.0275 -0.2391 -0.2842
  591MOL0     H77948   1.368  10.834   1.738 -0.2931  3.1505 -0.2737
  591MOL0     H77949   1.566  10.529   1.930  0.4989 -0.6825 -1.3017
  591MOL0     H77950   1.492  10.402   1.834  0.3329  0.1578 -2.4617
  591MOL0     H77951   1.253  10.500   1.882  0.4056 -0.6763 -1.3540
  591MOL0     H77952   1.346  10.630   1.965 -0.5474  0.6740 -2.7570
  591MOL0     H77953   1.418  10.448   2.126 -1.1411  3.0336  1.4732
  591MOL0     H77954   1.312  10.333   2.049 -1.7833 -0.3697  2.4319
  591MOL0     H77955   1.180  10.591   2.140 -0.2456 -0.4070  3.6353
  591MOL0     H77956   1.112  10.435   2.117 -0.6603  0.7176  0.1249
  591MOL0     H77957   1.136  10.503   2.363 -0.0767 -2.4459  1.3251
  591MOL0     H77958   1.304  10.531   2.333 -0.6353 -1.4866  3.2822
  591MOL0     H77959   1.271  10.325   2.446 -2.3236 -0.5356 -0.0946
  591MOL0     H77960   1.338  10.293   2.280  0.1723  0.5535 -1.7880
  591MOL0     H77961   1.080  10.234   2.415  2.8562 -2.5440  0.2346
  591MOL0     H77962   1.057  10.309   2.259 -1.4376 -0.6081  1.3940
  591MOL0     H77963   1.229  10.062   2.285  0.4525 -2.9974 -3.8206
  591MOL0     H77964   1.165  10.133   2.141  0.5370 -1.1507  0.5389
  591MOL0     H77965   1.042   9.932   2.459  1.3357  1.1882 -1.2579
  591MOL0     H77966   0.782   9.870   2.543  0.8281  2.7266 -0.6447
  591MOL0     H77967   0.847   9.745   2.424 -2.5125 -0.8258 -4.9230
  591MOL0     H77968   0.642   9.780   2.281  1.5693  1.5220 -0.1228
  591MOL0     H77969   0.577   9.884   2.412 -0.4748 -0.1060  0.4234
  591MOL0     H77970   0.636   9.579   2.387  0.1236 -0.1610  0.6440
  591MOL0     H77971   0.619   9.652   2.540  2.2804  0.9012 -0.9125
  591MOL0     H77972   0.400   9.668   2.321  1.1588 -1.2503 -0.7667
  591MOL0     H77973   0.393   9.739   2.488 -0.1688  0.3761 -0.3096
  591MOL0     H77974   0.313   9.311   2.533 -1.3535 -1.2493 -0.9801
  591MOL0     H77975   0.078   9.239   2.547 -0.4061  0.7686  3.1219
  591MOL0     H77976  -0.368   9.372   2.686  0.2629 -1.2273 -0.5920
  591MOL0     H77977  -0.620   9.363   2.702 -1.5168 -1.8438 -1.3214
  591MOL0     H77978  -0.821   9.574   2.613  0.8149 -0.4856  2.2557
  591MOL0     H77979  -0.831   9.414   2.690 -1.1528 -0.5139  0.6048
  591MOL0     H77980  -1.025   9.366   2.502  0.4144 -0.8490  0.8841
  591MOL0     H77981  -1.020   9.547   2.493  0.4415  0.3757 -0.1659
  591MOL0     H77982  -1.086   9.560   2.734  4.1539 -1.8144  1.9831
  591MOL0     H77983  -1.099   9.391   2.741  0.6720 -0.5197 -1.1084
  591MOL0     H77984  -1.270   9.541   2.542  1.9991 -0.3730 -1.3461
  591MOL0     H77985  -1.262   9.363   2.568  2.0495 -0.7929 -0.2293
  591MOL0     H77986  -1.352   9.579   2.770  2.1679  1.0138 -0.4694
  591MOL0     H77987  -1.331   9.401   2.796 -0.0888 -1.3594 -1.1502
  591MOL0     H77988  -1.481   9.369   2.610  4.2392 -0.0030  0.0276
  591MOL0     H77989  -1.524   9.544   2.620 -1.9903  0.4207  2.3273
  591MOL0     H77990  -1.585   9.308   2.811  0.7372  0.8235  1.6117
  591MOL0     H77991  -1.599   9.473   2.878  0.3952 -0.2019  0.9962
  591MOL0     H77992  -1.776   9.324   2.731 -1.9774  0.8713  0.4836
  591MOL0     H77993  -1.724   9.417   2.603 -2.2494 -2.1651 -0.6654
  591MOL0     H77994  -0.660   9.494   2.303 -0.7242  1.7586  0.4514
  591MOL0     H77995  -0.406   9.521   2.276  0.2036  1.2282  0.3818
  591MOL0     H77996  -0.048   9.641   2.463 -0.1908 -0.8219  0.1679
  591MOL0     H77997   0.188   9.714   2.442  0.7571  0.2434  0.2712
  591MOL0     H77998   1.742  10.637   1.798  0.7041  0.0078  2.0045
  591MOL0     H77999   1.841  10.868   1.872  0.6378  0.9316 -2.9319
  591MOL0     H78000   1.667  11.377   1.862  1.4454  3.3097 -0.8417
  591MOL0     H78001   1.721  11.564   1.969 -1.5491 -1.1720  0.9255
  591MOL0     H78002   1.774  11.728   2.168 -0.1308 -0.4902 -0.0694
  591MOL0     H78003   1.833  11.751   2.006 -1.3844  1.6288  0.8739
  591MOL0     H78004   1.878  11.920   2.221 -1.5733  0.4316 -1.4146
  591MOL0     H78005   2.011  11.819   2.247  0.4951  1.5045  0.0480
  591MOL0     H78006   1.943  11.937   1.973  0.2195 -2.3059 -1.0565
  591MOL0     H78007   2.098  11.865   2.007 -1.0677  0.4358 -2.3995
  591MOL0     H78008   2.120  12.053   2.201  2.6796 -0.5122 -2.1188
  591MOL0     H78009   2.156  12.084   2.027 -0.4899 -2.2769 -2.3948
  591MOL0     H78010   1.791  12.306   2.024 -0.5534 -0.1910  0.4599
  591MOL0     H78011   2.110  11.419   2.065 -0.3298 -0.3213  0.4024
  591MOL0     H78012   2.055  11.208   1.930  1.0282  0.0335  3.5217
  592MOL0     O78013   5.710   7.089   6.075  0.6399 -0.1976 -0.0738
  592MOL0     C78014   5.697   7.206   6.047  0.1208  0.1592  0.1241
  592MOL0     O78015   5.789   7.304   6.054  0.5314 -0.3725  0.3730
  592MOL0     C78016   5.923   7.277   6.091  1.4048 -0.0672  0.1588
  592MOL0     C78017   6.025   7.327   6.014  0.7382  0.6884  0.3006
  592MOL0     C78018   6.163   7.300   6.048  0.3982 -0.1434 -0.2549
  592MOL0     C78019   6.191   7.231   6.167  0.1160  0.2506 -0.7141
  592MOL0     O78020   6.318   7.212   6.226 -0.3791  0.2127 -0.3262
  592MOL0     C78021   6.421   7.193   6.131  0.4263  0.3230 -0.3663
  592MOL0     C78022   6.543   7.136   6.215  1.0217  0.0732  0.5900
  592MOL0     C78023   6.646   7.062   6.114 -0.0390 -0.0342 -0.1675
  592MOL0     C78024   6.745   6.968   6.192 -0.3387  0.2620  0.6727
  592MOL0     C78025   6.817   7.045   6.301 -0.3953  0.8811  0.1293
  592MOL0     C78026   6.919   7.139   6.233  0.5652  0.6436 -0.0732
  592MOL0     C78027   7.019   7.188   6.328  0.3867 -0.8555  0.0345
  592MOL0     C78028   7.137   7.276   6.261  0.1476 -0.1675  0.0207
  592MOL0     N78029   7.226   7.323   6.364 -0.2289  0.0075  0.3531
  592MOL0     C78030   7.250   7.453   6.399  0.1147 -0.9271 -0.0688
  592MOL0     C78031   7.369   7.447   6.465  0.5980  0.3559  0.0839
  592MOL0     C78032   7.450   7.568   6.500 -0.0239  0.1941 -0.0311
  592MOL0     C78033   7.450   7.578   6.652 -0.7460  0.0157 -0.9354
  592MOL0     C78034   7.518   7.714   6.700  0.2973  0.2661  0.4890
  592MOL0     C78035   7.506   7.725   6.851 -0.9538 -0.1718  0.2176
  592MOL0     O78036   7.548   7.606   6.928  0.3166  0.2562 -0.1439
  592MOL0     C78037   7.675   7.557   6.928  0.1129  0.4601 -0.6341
  592MOL0     C78038   7.783   7.615   6.876 -0.0381 -0.5950  0.3668
  592MOL0     C78039   7.912   7.556   6.874 -0.0657  0.5076  0.0344
  592MOL0     C78040   7.926   7.430   6.940 -0.2548 -0.1754 -0.0497
  592MOL0     C78041   8.059   7.366   6.949  0.7273  0.5581 -0.5306
  592MOL0     O78042   8.159   7.437   6.894  0.0049 -1.0324  0.3888
  592MOL0     C78043   8.271   7.362   6.852 -0.6772  0.2786  0.1001
  592MOL0     C78044   8.394   7.416   6.874 -1.1525  0.7576  0.6623
  592MOL0     C78045   8.512   7.351   6.830  0.4123 -0.4721 -0.2072
  592MOL0     C78046   8.510   7.230   6.756 -0.5934  0.6121 -0.0583
  592MOL0     O78047   8.611   7.160   6.693 -0.6391  0.1038  0.6640
  592MOL0     C78048   8.733   7.223   6.654 -0.1489 -0.0017 -0.1069
  592MOL0     C78049   8.719   7.310   6.530 -0.1569 -0.0391 -0.4830
  592MOL0     C78050   8.845   7.386   6.494 -0.2882  0.2178  0.2778
  592MOL0     C78051   8.886   7.515   6.567 -0.0024 -0.3506 -0.1591
  592MOL0     C78052   9.033   7.561   6.560  0.1057 -0.3835  0.0412
  592MOL0     C78053   9.124   7.465   6.642  0.3293 -0.1073 -0.8571
  592MOL0     C78054   9.269   7.517   6.635  0.9119 -0.1200 -0.0502
  592MOL0     C78055   9.359   7.398   6.691 -0.6599  0.2934 -0.0235
  592MOL0    Cl78056   9.532   7.412   6.642  0.1289  0.2776  0.2627
  592MOL0     C78057   8.382   7.172   6.735  0.3501  0.0047 -0.2426
  592MOL0     C78058   8.265   7.237   6.777 -0.2672  0.0767  0.3919
  592MOL0     O78059   8.064   7.253   7.006  0.3840 -0.2570  0.3799
  592MOL0     C78060   7.814   7.369   6.999  0.4271 -0.7022  0.0252
  592MOL0     C78061   7.685   7.431   6.985 -0.5086 -0.7218 -1.0493
  592MOL0     N78062   7.400   7.311   6.488  0.4113 -0.2168 -0.0346
  592MOL0     N78063   7.326   7.244   6.420  0.5950  0.2182  0.1930
  592MOL0     C78064   6.085   7.182   6.243 -0.2863 -0.1904 -0.0186
  592MOL0     C78065   5.951   7.212   6.216  0.1701 -0.4742  0.1756
  592MOL0     C78066   5.561   7.242   6.002 -0.9479  0.5043 -0.4393
  592MOL0     C78067   5.451   7.175   6.050 -0.3391  1.0654  0.2944
  592MOL0     C78068   5.327   7.227   6.040  0.1058  0.2535 -0.0222
  592MOL0     C78069   5.302   7.351   5.985  0.4071  0.4766 -0.0062
  592MOL0     O78070   5.166   7.390   5.983  0.0482  0.2342  0.1967
  592MOL0     C78071   5.131   7.523   5.966 -0.2681  0.8460  0.0369
  592MOL0     C78072   5.010   7.540   6.044  0.4822  0.0905  0.4779
  592MOL0     C78073   5.019   7.485   6.188 -0.2764 -0.3173 -0.1142
  592MOL0     C78074   4.915   7.552   6.273 -0.4583  0.6115 -0.4204
  592MOL0     C78075   4.779   7.506   6.244  0.8003  0.1889 -0.1142
  592MOL0     C78076   4.666   7.457   6.231 -0.3832  0.2790  0.2015
  592MOL0     C78077   5.418   7.421   5.931 -0.4151 -0.2380 -0.8373
  592MOL0     C78078   5.537   7.362   5.935 -0.6115  0.2616  0.2276
  592MOL0     H78079   5.997   7.381   5.924 -2.4651 -0.9370  0.1872
  592MOL0     H78080   6.253   7.323   5.991 -0.5395 -0.8078 -2.0783
  592MOL0     H78081   6.459   7.283   6.083  0.1722 -0.0232 -1.2358
  592MOL0     H78082   6.392   7.118   6.057  2.9232 -0.8605 -0.2225
  592MOL0     H78083   6.502   7.059   6.281 -2.9556 -1.1996 -2.8978
  592MOL0     H78084   6.594   7.218   6.267  4.1318 -1.1112 -0.3673
  592MOL0     H78085   6.694   7.147   6.064  2.9304  0.2884  2.8900
  592MOL0     H78086   6.585   7.008   6.041 -1.4884  0.7690  0.3998
  592MOL0     H78087   6.685   6.887   6.234  2.0197 -0.9483  1.9306
  592MOL0     H78088   6.814   6.916   6.124  0.2934  1.0578  0.6866
  592MOL0     H78089   6.873   6.972   6.360 -2.0994 -0.4139  0.2109
  592MOL0     H78090   6.745   7.096   6.365 -1.5179  1.3389 -1.4270
  592MOL0     H78091   6.884   7.213   6.161 -0.0314  0.2403 -0.2037
  592MOL0     H78092   6.981   7.065   6.181  1.3794 -0.1515  1.9089
  592MOL0     H78093   6.966   7.244   6.405  2.1429 -1.9511  2.1353
  592MOL0     H78094   7.067   7.106   6.382  1.1254  0.1503  0.9310
  592MOL0     H78095   7.091   7.359   6.207 -3.1538 -1.5464  0.4254
  592MOL0     H78096   7.189   7.213   6.189 -2.3571 -0.1774 -1.9267
  592MOL0     H78097   7.190   7.539   6.370  0.8744 -0.2377  0.3430
  592MOL0     H78098   7.410   7.659   6.455  0.4637  0.5376  0.2226
  592MOL0     H78099   7.547   7.551   6.452  0.5513  2.1008  0.3991
  592MOL0     H78100   7.511   7.500   6.698 -0.2393 -0.2124 -1.9844
  592MOL0     H78101   7.348   7.571   6.691  0.1624  1.1468  1.9220
  592MOL0     H78102   7.625   7.728   6.683  0.8194 -0.8810  2.4912
  592MOL0     H78103   7.453   7.786   6.648  0.5729  0.4828  0.4414
  592MOL0     H78104   7.406   7.759   6.880  0.9208  3.5430  3.1970
  592MOL0     H78105   7.575   7.804   6.881 -1.9048  0.0435  2.0026
  592MOL0     H78106   7.776   7.718   6.842 -0.7321  0.0756  2.3539
  592MOL0     H78107   7.998   7.605   6.829 -1.1314  2.3052 -0.1369
  592MOL0     H78108   8.396   7.513   6.922 -3.2337  1.2261 -0.0920
  592MOL0     H78109   8.604   7.408   6.837 -0.2750  0.5568  0.9594
  592MOL0     H78110   8.805   7.144   6.630 -1.1094 -0.7100 -0.7417
  592MOL0     H78111   8.768   7.277   6.742 -2.9728  0.6148  0.7443
  592MOL0     H78112   8.642   7.387   6.542 -0.6546 -0.6736  0.5641
  592MOL0     H78113   8.688   7.246   6.447  2.1285 -0.5932 -0.9701
  592MOL0     H78114   8.844   7.414   6.388  2.0136  0.2656  0.2221
  592MOL0     H78115   8.933   7.321   6.494  0.2011  0.8221  1.8451
  592MOL0     H78116   8.809   7.584   6.530 -0.4206 -1.0369 -0.5833
  592MOL0     H78117   8.867   7.514   6.675 -1.2632  0.6568 -0.3421
  592MOL0     H78118   9.043   7.665   6.593 -0.6461 -0.1687 -0.3793
  592MOL0     H78119   9.067   7.554   6.457 -0.5968  1.4848 -0.3556
  592MOL0     H78120   9.112   7.370   6.591 -2.1530 -0.1382 -0.3392
  592MOL0     H78121   9.086   7.455   6.744  2.6108 -1.8729 -0.1008
  592MOL0     H78122   9.299   7.533   6.531  1.1282  0.3163  0.0763
  592MOL0     H78123   9.288   7.602   6.700 -0.9230  0.0352  0.3339
  592MOL0     H78124   9.319   7.300   6.662 -1.2327  0.7551 -0.8414
  592MOL0     H78125   9.360   7.403   6.800 -1.7351 -2.7893  0.2264
  592MOL0     H78126   8.385   7.078   6.682  3.6660 -1.1785  1.7281
  592MOL0     H78127   8.175   7.177   6.766  1.5721 -3.1376  1.3859
  592MOL0     H78128   7.802   7.276   7.054 -1.7832 -0.5079 -0.0472
  592MOL0     H78129   7.594   7.390   7.026  0.0201 -0.1389  0.8058
  592MOL0     H78130   6.102   7.131   6.337 -2.6859  2.0729  1.7936
  592MOL0     H78131   5.869   7.188   6.282 -0.4316  0.8662 -0.0451
  592MOL0     H78132   5.463   7.080   6.102  1.9069  1.2901  0.3147
  592MOL0     H78133   5.248   7.174   6.094  0.6932 -0.1679  0.4379
  592MOL0     H78134   5.113   7.538   5.860  0.1678  2.1138  0.1291
  592MOL0     H78135   5.212   7.589   6.002  0.5562  0.9690 -1.9420
  592MOL0     H78136   4.980   7.645   6.039 -1.9639 -0.5970 -0.2516
  592MOL0     H78137   4.925   7.488   6.000 -1.5374  3.8348 -0.4248
  592MOL0     H78138   5.118   7.514   6.225 -0.2055  2.1955 -2.0112
  592MOL0     H78139   5.006   7.377   6.188  3.3775 -0.9821  2.8565
  592MOL0     H78140   4.932   7.508   6.372  0.9716 -0.1235 -0.9577
  592MOL0     H78141   4.929   7.660   6.268  0.3202  0.6140  1.1275
  592MOL0     H78142   4.573   7.412   6.205 -0.1044 -0.3287  0.2380
  592MOL0     H78143   5.399   7.517   5.884 -0.9964  1.0078  1.7601
  592MOL0     H78144   5.626   7.415   5.901  0.3903 -0.5944  1.4116
  593MOL0     O78145   4.088   2.415   0.304 -0.0990  0.5206 -0.7210
  593MOL0     C78146   4.051   2.503   0.380  0.2176 -0.4136 -0.7223
  593MOL0     O78147   3.922   2.513   0.431 -0.9621  0.1145 -0.6453
  593MOL0     C78148   3.835   2.434   0.370  0.0414 -0.2467 -0.3686
  593MOL0     C78149   3.793   2.458   0.237  0.8863  0.7057 -0.4964
  593MOL0     C78150   3.700   2.367   0.181 -0.0638 -0.4836  0.5542
  593MOL0     C78151   3.644   2.264   0.255 -0.0189 -0.5424 -0.8029
  593MOL0     O78152   3.546   2.195   0.196 -0.6637 -0.1595 -0.1923
  593MOL0     C78153   3.419   2.261   0.185 -0.3042  0.4371  1.0286
  593MOL0     C78154   3.310   2.163   0.148  0.2236 -0.0448  0.3737
  593MOL0     C78155   3.263   2.080   0.275 -0.7370 -0.5326  0.2455
  593MOL0     C78156   3.154   1.980   0.254  0.5383 -1.0638  0.4383
  593MOL0     C78157   3.014   2.036   0.212 -0.4776  0.4925  0.3995
  593MOL0     C78158   2.916   1.918   0.185  0.3869  0.7486  0.3434
  593MOL0     C78159   2.761   1.962   0.156 -0.7157 -0.0021 -0.6037
  593MOL0     C78160   2.664   1.839   0.174 -1.1259 -0.1466  1.1694
  593MOL0     N78161   2.519   1.878   0.156 -0.4514  0.3779 -0.6106
  593MOL0     C78162   2.438   1.927   0.256 -1.1445  0.8685  0.3013
  593MOL0     C78163   2.317   1.934   0.188 -0.1281  0.3357 -0.3467
  593MOL0     C78164   2.199   2.001   0.273 -0.9390 -0.3588  0.3861
  593MOL0     C78165   2.114   1.906   0.359  0.5976  0.5889 -0.3839
  593MOL0     C78166   1.974   1.972   0.372 -1.0628  0.2610  0.0466
  593MOL0     C78167   1.889   1.923   0.254 -0.2609 -0.7746 -0.7975
  593MOL0     O78168   1.767   1.999   0.245 -0.6136  0.1388 -0.0266
  593MOL0     C78169   1.704   2.028   0.364  0.4443  0.1467  0.7248
  593MOL0     C78170   1.620   1.935   0.424  0.1010 -0.3114  0.0723
  593MOL0     C78171   1.559   1.969   0.543  0.8892  0.4571 -0.8591
  593MOL0     C78172   1.566   2.097   0.594 -0.7197  0.9041 -1.1168
  593MOL0     C78173   1.503   2.133   0.717  0.3075  0.2682 -0.1430
  593MOL0     O78174   1.408   2.047   0.761  0.3527 -0.0476  0.0473
  593MOL0     C78175   1.348   2.067   0.884 -0.8777  0.2540  0.0321
  593MOL0     C78176   1.217   2.011   0.902 -1.3716 -0.6384 -0.3295
  593MOL0     C78177   1.158   2.023   1.024  0.2314 -0.0990 -0.8310
  593MOL0     C78178   1.216   2.088   1.129 -0.1224  0.2450  0.3771
  593MOL0     O78179   1.158   2.101   1.250  0.2310 -0.4890  0.0542
  593MOL0     C78180   1.016   2.086   1.251 -0.1458 -0.1911  0.2031
  593MOL0     C78181   0.977   2.135   1.397 -0.4995 -0.2243  0.1401
  593MOL0     C78182   0.836   2.122   1.436  0.0479  0.3159 -0.3550
  593MOL0     C78183   0.783   1.969   1.439 -0.8758 -0.2649  0.6634
  593MOL0     C78184   0.636   1.959   1.475 -0.1058 -0.3232 -0.1166
  593MOL0     C78185   0.542   2.017   1.361  0.0218  0.5296 -0.3770
  593MOL0     C78186   0.569   1.983   1.217  0.7181  0.5717  0.8440
  593MOL0     C78187   0.463   2.031   1.117 -0.1879 -0.5550  0.6328
  593MOL0    Cl78188   0.311   1.946   1.129 -0.3224  0.3800 -0.1619
  593MOL0     C78189   1.343   2.126   1.118 -0.0064 -0.2923  0.3309
  593MOL0     C78190   1.413   2.126   0.995 -0.6903  0.5715  0.1228
  593MOL0     O78191   1.544   2.238   0.774  0.6895  0.1185  0.3507
  593MOL0     C78192   1.642   2.193   0.527  0.1096  0.4803  0.5724
  593MOL0     C78193   1.707   2.161   0.409  0.6804  0.0493 -0.0203
  593MOL0     N78194   2.324   1.902   0.056 -0.4357 -0.0987 -0.2994
  593MOL0     N78195   2.451   1.871   0.037  0.0368 -0.6272  0.6347
  593MOL0     C78196   3.691   2.234   0.381 -0.4589 -0.2811  0.4124
  593MOL0     C78197   3.790   2.316   0.436 -0.6012 -0.5411  0.1554
  593MOL0     C78198   4.151   2.610   0.420  0.3239  0.1242 -0.1722
  593MOL0     C78199   4.286   2.615   0.372  0.7233  0.0780 -0.5404
  593MOL0     C78200   4.378   2.709   0.415  0.3058 -0.4094 -0.6569
  593MOL0     C78201   4.346   2.807   0.505 -0.0287  0.1432 -0.9955
  593MOL0     O78202   4.455   2.885   0.550  0.2865  0.2818 -0.1272
  593MOL0     C78203   4.425   3.025   0.564 -0.0542  0.6337  0.3073
  593MOL0     C78204   4.399   3.092   0.431 -0.7500 -0.4278 -0.1824
  593MOL0     C78205   4.502   3.073   0.320  0.4143  0.2024 -0.0574
  593MOL0     C78206   4.436   3.109   0.178 -0.5983 -0.5128 -0.1392
  593MOL0     C78207   4.337   3.009   0.134  0.8345 -0.5310 -0.4474
  593MOL0     C78208   4.252   2.934   0.086 -0.3576  0.9962  0.7072
  593MOL0     C78209   4.213   2.811   0.552  0.0788  0.8039  0.4129
  593MOL0     C78210   4.116   2.714   0.510 -0.3680 -0.1879  0.4837
  593MOL0     H78211   3.835   2.545   0.187  2.3467 -0.4193 -1.3360
  593MOL0     H78212   3.642   2.398   0.095 -1.1479  4.0060  2.5706
  593MOL0     H78213   3.422   2.338   0.107 -4.8992 -1.5318 -1.5166
  593MOL0     H78214   3.391   2.308   0.280  1.2352 -1.3474  2.4246
  593MOL0     H78215   3.346   2.102   0.065 -3.9954 -1.5270 -0.6277
  593MOL0     H78216   3.230   2.226   0.106  1.1218  0.7091 -0.2455
  593MOL0     H78217   3.227   2.150   0.351  0.5809  0.9337 -0.4104
  593MOL0     H78218   3.346   2.019   0.312  1.9951  2.1018 -1.0640
  593MOL0     H78219   3.204   1.918   0.179  1.0253 -1.1844  0.8552
  593MOL0     H78220   3.149   1.929   0.351  2.3884 -2.4004 -0.0931
  593MOL0     H78221   3.022   2.097   0.121 -0.4188 -2.9610 -2.1131
  593MOL0     H78222   2.998   2.093   0.304  0.5853 -0.2460  1.0689
  593MOL0     H78223   2.938   1.846   0.264 -1.7658  0.6817  0.9531
  593MOL0     H78224   2.947   1.866   0.094  1.9801  2.8621 -0.4045
  593MOL0     H78225   2.732   2.039   0.228  1.4179  0.6763 -0.4080
  593MOL0     H78226   2.749   1.999   0.054 -2.3675  2.4560  0.3961
  593MOL0     H78227   2.690   1.789   0.268 -2.0526 -1.3295  0.8248
  593MOL0     H78228   2.683   1.768   0.092 -2.9261  1.1469 -0.4642
  593MOL0     H78229   2.469   1.954   0.356 -1.9305  0.5888  0.6308
  593MOL0     H78230   2.132   2.042   0.197 -1.8200 -0.3730  1.1449
  593MOL0     H78231   2.242   2.082   0.332  2.1969 -1.0484 -0.7452
  593MOL0     H78232   2.152   1.875   0.457 -1.0211  1.0752  0.4285
  593MOL0     H78233   2.095   1.812   0.306  0.8781 -0.1782  0.8355
  593MOL0     H78234   1.931   1.945   0.469 -2.9330  1.5152 -0.3917
  593MOL0     H78235   1.975   2.081   0.368 -0.6081  0.2348 -0.8899
  593MOL0     H78236   1.877   1.816   0.275  2.5952 -1.1439 -0.7421
  593MOL0     H78237   1.938   1.937   0.158  1.1684 -0.4157 -0.0427
  593MOL0     H78238   1.604   1.841   0.372 -0.3370  0.0341 -0.4335
  593MOL0     H78239   1.497   1.888   0.582  3.7634 -0.6665  1.7801
  593MOL0     H78240   1.173   1.939   0.833 -1.6470 -0.8364  0.0492
  593MOL0     H78241   1.060   1.977   1.031  1.3468 -2.3963  2.2741
  593MOL0     H78242   0.989   1.981   1.238  3.8178 -1.6589  2.0087
  593MOL0     H78243   0.964   2.156   1.185 -2.1804  4.1344  5.5960
  593MOL0     H78244   1.001   2.241   1.406  1.6970 -0.8461  3.2141
  593MOL0     H78245   1.035   2.075   1.467  0.1139  0.1368 -0.0482
  593MOL0     H78246   0.777   2.184   1.367 -1.1361 -0.5274 -0.1359
  593MOL0     H78247   0.822   2.161   1.537  0.0021 -0.2482 -0.1404
  593MOL0     H78248   0.801   1.919   1.343  2.2946  1.5743  0.1652
  593MOL0     H78249   0.845   1.913   1.510  0.1960  0.2815  0.1839
  593MOL0     H78250   0.620   2.022   1.563 -0.9949  0.2766 -0.6903
  593MOL0     H78251   0.603   1.857   1.493  1.7519 -0.4722  3.1418
  593MOL0     H78252   0.557   2.125   1.362  3.4713  0.1433  0.2612
  593MOL0     H78253   0.438   1.996   1.390  0.4451 -1.3682 -0.1107
  593MOL0     H78254   0.664   2.029   1.186  0.5983  0.2672  0.0034
  593MOL0     H78255   0.580   1.874   1.211 -2.7113  0.2225 -1.6663
  593MOL0     H78256   0.495   2.017   1.013 -2.0619  1.4043 -0.2958
  593MOL0     H78257   0.450   2.138   1.132  2.0380  0.1677 -1.8777
  593MOL0     H78258   1.400   2.166   1.201 -1.1565  0.3458  0.8288
  593MOL0     H78259   1.517   2.156   0.996  0.3490 -2.6474  1.0463
  593MOL0     H78260   1.638   2.296   0.559  1.7343  0.8973 -0.4710
  593MOL0     H78261   1.757   2.238   0.351  0.2511 -0.8373 -1.6109
  593MOL0     H78262   3.658   2.148   0.438  0.0706 -0.3223  0.6644
  593MOL0     H78263   3.835   2.298   0.533  1.3102 -0.1253 -0.6247
  593MOL0     H78264   4.313   2.536   0.302  0.9131  0.3422 -0.7660
  593MOL0     H78265   4.479   2.708   0.374  0.2229 -5.0632 -1.2990
  593MOL0     H78266   4.510   3.076   0.610  0.3009  2.4852 -2.1769
  593MOL0     H78267   4.329   3.029   0.615 -2.1808 -0.3734 -3.2611
  593MOL0     H78268   4.303   3.056   0.392 -0.5894 -2.3199  1.0537
  593MOL0     H78269   4.386   3.199   0.452 -2.1243 -0.2270 -1.8308
  593MOL0     H78270   4.538   2.970   0.312 -0.3281 -0.0702  0.0565
  593MOL0     H78271   4.596   3.122   0.346  1.7996 -2.3720  0.0798
  593MOL0     H78272   4.385   3.206   0.176 -2.6425 -1.5123 -3.0949
  593MOL0     H78273   4.521   3.111   0.108 -0.1155  0.0754  0.4446
  593MOL0     H78274   4.166   2.875   0.060  0.3295 -0.3472  1.3805
  593MOL0     H78275   4.183   2.888   0.622  0.5638  3.0370 -1.6971
  593MOL0     H78276   4.014   2.719   0.549 -0.7675  1.6845 -0.6551
  594MOL0     O78277  10.790   7.386   9.602 -0.0361 -0.0190 -0.2962
  594MOL0     C78278  10.836   7.495   9.627  0.2892 -0.2175 -0.8357
  594MOL0     O78279  10.768   7.604   9.675  0.5758  0.0940 -0.6998
  594MOL0     C78280  10.628   7.595   9.679 -0.2134 -0.4403 -0.0672
  594MOL0     C78281  10.565   7.498   9.754  0.2938 -0.3244  0.7360
  594MOL0     C78282  10.423   7.491   9.764 -0.1576 -0.5574  0.5425
  594MOL0     C78283  10.341   7.579   9.692  0.1941 -0.6229  0.2524
  594MOL0     O78284  10.204   7.576   9.693  0.0513  0.2517  0.0632
  594MOL0     C78285  10.127   7.516   9.800  0.0166 -1.3174 -0.5917
  594MOL0     C78286  10.145   7.587   9.943  0.2466 -0.5352 -0.5964
  594MOL0     C78287  10.091   7.728   9.958 -0.2378  0.3410  0.3713
  594MOL0     C78288  10.175   7.836   9.897  0.4078 -0.0442 -0.4085
  594MOL0     C78289  10.094   7.970   9.895  0.2765  0.2152 -0.5725
  594MOL0     C78290   9.994   7.976   9.781 -0.0758  0.7706  0.7721
  594MOL0     C78291   9.913   8.109   9.762  0.1229 -1.0900  0.5501
  594MOL0     C78292   9.790   8.116   9.851 -0.0553  1.1464  0.1180
  594MOL0     N78293   9.737   8.253   9.889  0.3524  0.1001  0.1141
  594MOL0     C78294   9.644   8.282   9.987 -0.2228 -0.0888 -0.2010
  594MOL0     C78295   9.611   8.413   9.967  0.9980 -0.0124 -0.6314
  594MOL0     C78296   9.504   8.481  10.049 -0.8840  0.1912  0.2285
  594MOL0     C78297   9.362   8.449  10.012  0.1857 -0.1750 -0.5894
  594MOL0     C78298   9.275   8.532  10.113 -0.4277  0.7147  0.6685
  594MOL0     C78299   9.123   8.515  10.094  0.4710  0.4732  0.8238
  594MOL0     O78300   9.083   8.382  10.121 -0.1509 -0.3329  0.1753
  594MOL0     C78301   8.947   8.354  10.105 -0.0325  0.6064  0.3027
  594MOL0     C78302   8.907   8.235  10.161  0.0146 -0.0182  1.0368
  594MOL0     C78303   8.775   8.190  10.160 -0.5424  0.1660  0.1101
  594MOL0     C78304   8.671   8.272  10.104  0.2547  0.4672  0.1314
  594MOL0     C78305   8.527   8.244  10.117  0.1672 -0.8682  0.3324
  594MOL0     O78306   8.505   8.135  10.194 -0.8375  0.3450  0.6297
  594MOL0     C78307   8.386   8.118  10.251 -0.2920  0.0565 -0.1936
  594MOL0     C78308   8.371   8.155  10.385  1.2163 -0.6468  0.2608
  594MOL0     C78309   8.239   8.129  10.433 -0.4395 -0.3526  0.2722
  594MOL0     C78310   8.139   8.071  10.363 -0.2831  0.5098  0.4570
  594MOL0     O78311   8.021   8.050  10.438 -0.4214  0.3265 -0.7464
  594MOL0     C78312   7.921   7.983  10.366  0.0792 -0.7048  0.5119
  594MOL0     C78313   7.799   7.968  10.451 -0.2558  0.3238  0.1826
  594MOL0     C78314   7.677   7.900  10.381 -0.8960 -1.1487 -0.1958
  594MOL0     C78315   7.548   7.904  10.466  0.0161 -0.5132 -0.3746
  594MOL0     C78316   7.438   7.835  10.398  0.4524 -0.2626 -0.2962
  594MOL0     C78317   7.324   7.804  10.495  0.5748  0.6416 -0.2966
  594MOL0     C78318   7.241   7.924  10.545 -0.7271  0.0450  0.1495
  594MOL0     C78319   7.161   7.994  10.433 -0.3517  0.0258  0.7225
  594MOL0    Cl78320   7.159   8.175  10.451  0.5626 -0.0460  0.1365
  594MOL0     C78321   8.161   8.022  10.224 -0.0153 -0.7616 -0.8250
  594MOL0     C78322   8.294   8.043  10.172 -0.0749  0.3468 -0.3998
  594MOL0     O78323   8.451   8.318  10.071  1.0480 -0.4467  0.6764
  594MOL0     C78324   8.712   8.395  10.047 -0.3298 -0.0293 -0.0661
  594MOL0     C78325   8.848   8.434  10.046 -0.0843 -0.3550  0.1739
  594MOL0     N78326   9.673   8.469   9.858  0.5161  1.0020 -0.0482
  594MOL0     N78327   9.747   8.373   9.817 -0.2161 -0.4144  0.2004
  594MOL0     C78328  10.406   7.669   9.607  1.1161 -1.3782 -0.4128
  594MOL0     C78329  10.546   7.679   9.603 -0.1103 -0.5149 -0.3880
  594MOL0     C78330  10.978   7.510   9.617 -1.0806  0.8239 -0.2210
  594MOL0     C78331  11.059   7.419   9.545 -0.2818  0.1211  0.1972
  594MOL0     C78332  11.198   7.432   9.525  0.0590  0.1545  0.2532
  594MOL0     C78333  11.260   7.543   9.572 -0.3298 -0.2948  0.2643
  594MOL0     O78334  11.397   7.548   9.559 -0.2494 -0.5638  0.6960
  594MOL0     C78335  11.483   7.644   9.632 -0.0066 -0.4829  0.0064
  594MOL0     C78336  11.627   7.584   9.656  0.0352  0.4981  1.0866
  594MOL0     C78337  11.715   7.571   9.528 -0.7400 -0.9577 -0.4655
  594MOL0     C78338  11.840   7.484   9.553 -0.7304  0.1000  1.1621
  594MOL0     C78339  11.926   7.478   9.433 -0.4865  0.5359  0.4687
  594MOL0     C78340  12.007   7.473   9.346  0.4794 -0.5502  0.1833
  594MOL0     C78341  11.186   7.634   9.649 -0.3589  0.1019 -0.2619
  594MOL0     C78342  11.051   7.618   9.679  0.3976 -0.7546  0.4170
  594MOL0     H78343  10.625   7.433   9.816  1.5143  0.0131 -0.0687
  594MOL0     H78344  10.380   7.412   9.824 -0.2027  0.6321  2.1487
  594MOL0     H78345  10.147   7.410   9.815  1.4616 -1.0315 -0.3017
  594MOL0     H78346  10.022   7.528   9.772 -0.3176 -1.9262  0.3285
  594MOL0     H78347  10.251   7.585   9.974  0.0809 -0.9767 -0.0315
  594MOL0     H78348  10.094   7.525  10.017  1.3877 -0.7269  0.0726
  594MOL0     H78349  10.076   7.756  10.062 -2.3232  0.7616  0.0081
  594MOL0     H78350   9.993   7.737   9.910  0.2280  0.3769 -0.5896
  594MOL0     H78351  10.269   7.845   9.951  1.2264 -0.3086 -1.7537
  594MOL0     H78352  10.196   7.817   9.792 -1.0482  2.4590 -1.2517
  594MOL0     H78353  10.160   8.057   9.903  0.3598 -0.0148  2.2215
  594MOL0     H78354  10.051   7.979   9.995  0.4074  0.0693 -0.5020
  594MOL0     H78355   9.920   7.897   9.799  1.1801 -0.2699  1.6542
  594MOL0     H78356  10.038   7.942   9.687 -0.6879 -2.7058  1.5894
  594MOL0     H78357   9.974   8.199   9.772  0.3310 -1.1421 -0.1875
  594MOL0     H78358   9.868   8.117   9.663 -0.8484  1.2936  1.1128
  594MOL0     H78359   9.809   8.052   9.937 -2.0080 -0.2115 -0.3988
  594MOL0     H78360   9.707   8.062   9.804 -2.1774  2.1193  2.4435
  594MOL0     H78361   9.609   8.212  10.062  0.4593 -0.0576  0.1533
  594MOL0     H78362   9.531   8.582  10.017  0.4624 -0.2663 -0.1361
  594MOL0     H78363   9.522   8.466  10.156 -3.4008 -0.7229  0.5957
  594MOL0     H78364   9.331   8.345  10.021 -0.1710 -0.0943 -0.8639
  594MOL0     H78365   9.341   8.487   9.912  1.7980  1.4483 -0.3664
  594MOL0     H78366   9.303   8.499  10.213 -2.7719  2.5415  2.0132
  594MOL0     H78367   9.290   8.640  10.105  0.9243  0.4579 -0.9758
  594MOL0     H78368   9.085   8.545   9.996 -0.2502  2.7822  1.7447
  594MOL0     H78369   9.077   8.585  10.164  0.8512 -0.5268  2.1246
  594MOL0     H78370   8.984   8.177  10.210 -0.5719  0.6825  2.8787
  594MOL0     H78371   8.755   8.092  10.203 -1.0816  0.8595  1.5030
  594MOL0     H78372   8.447   8.204  10.446  0.9213  0.4915 -0.2657
  594MOL0     H78373   8.224   8.155  10.538  1.0775  2.7778 -0.1642
  594MOL0     H78374   7.952   7.881  10.342  0.7457 -0.6722  1.1964
  594MOL0     H78375   7.889   8.044  10.280 -0.1383  0.0205  1.0978
  594MOL0     H78376   7.768   8.068  10.485  1.0610  0.5414  0.7965
  594MOL0     H78377   7.827   7.918  10.544 -1.3997 -2.1057 -0.7113
  594MOL0     H78378   7.693   7.796  10.348  0.4239 -1.2475  0.7072
  594MOL0     H78379   7.652   7.949  10.286 -0.0643 -0.5922 -0.1330
  594MOL0     H78380   7.570   7.845  10.556 -0.3877 -0.1474 -0.0344
  594MOL0     H78381   7.514   8.003  10.497  1.0557 -0.1116 -0.4856
  594MOL0     H78382   7.474   7.738  10.361 -0.6162  0.5262 -3.7770
  594MOL0     H78383   7.405   7.891  10.310  1.3595  0.9079  0.0946
  594MOL0     H78384   7.361   7.757  10.587  0.4396 -0.3030 -0.7115
  594MOL0     H78385   7.261   7.729  10.447  2.2666 -1.3871  0.4276
  594MOL0     H78386   7.184   7.900  10.634 -1.2731 -2.1493 -0.7375
  594MOL0     H78387   7.315   7.998  10.578 -1.2396  0.1260  1.1277
  594MOL0     H78388   7.058   7.957  10.425 -0.1225 -0.5814  0.5566
  594MOL0     H78389   7.201   7.972  10.333  0.0280  2.8208  0.1633
  594MOL0     H78390   8.073   7.981  10.175  0.2212 -1.9988 -0.2407
  594MOL0     H78391   8.305   8.021  10.066 -4.7822 -2.3112 -0.5830
  594MOL0     H78392   8.635   8.464  10.016  2.1577  2.6124 -0.7313
  594MOL0     H78393   8.876   8.534  10.014  0.3466  0.4351  2.7674
  594MOL0     H78394  10.345   7.732   9.543 -1.7914 -2.4791  1.0727
  594MOL0     H78395  10.588   7.751   9.533 -1.0018 -0.4934 -0.9203
  594MOL0     H78396  11.019   7.329   9.498  0.9991 -2.3193  3.4056
  594MOL0     H78397  11.251   7.352   9.473 -0.4778  0.9558 -1.6034
  594MOL0     H78398  11.437   7.683   9.724  1.1585  0.6866  0.1191
  594MOL0     H78399  11.502   7.731   9.568  4.5750 -2.2534 -1.4514
  594MOL0     H78400  11.684   7.624   9.741  0.8558 -1.2907  1.4255
  594MOL0     H78401  11.610   7.485   9.699  0.8087  0.4162  1.2164
  594MOL0     H78402  11.742   7.675   9.508  1.7629 -1.1119  1.7125
  594MOL0     H78403  11.666   7.528   9.440  3.0151  1.6937 -4.2410
  594MOL0     H78404  11.900   7.521   9.637  0.4252  1.4723 -0.2315
  594MOL0     H78405  11.814   7.381   9.580  3.1632 -0.5173  3.2972
  594MOL0     H78406  12.077   7.468   9.264 -0.7476 -1.0910 -0.8692
  594MOL0     H78407  11.236   7.723   9.685  1.7033 -0.5164 -1.4157
  594MOL0     H78408  10.993   7.693   9.732  0.4378 -1.6613  1.8129
  595MOL0     O78409   8.088   4.681   0.120 -0.8969  0.0435 -0.7736
  595MOL0     C78410   8.069   4.799   0.089 -0.1511  1.2870  0.4486
  595MOL0     O78411   8.146   4.871  -0.000 -0.1790  0.0184 -0.1566
  595MOL0     C78412   8.270   4.820  -0.031 -0.4261 -0.5185  0.8317
  595MOL0     C78413   8.375   4.838   0.067 -0.3358  0.8241  0.0812
  595MOL0     C78414   8.503   4.801   0.026  0.2391  1.1351  0.8676
  595MOL0     C78415   8.527   4.754  -0.100 -0.2007 -1.1020  1.2077
  595MOL0     O78416   8.659   4.710  -0.116  0.3663  0.6259 -0.3557
  595MOL0     C78417   8.713   4.665  -0.240  0.1036 -0.3744 -0.5498
  595MOL0     C78418   8.869   4.629  -0.226  0.6573  0.3281 -0.0967
  595MOL0     C78419   8.960   4.750  -0.229  0.8937  0.7245 -0.9903
  595MOL0     C78420   9.105   4.703  -0.220 -0.6168 -0.4390 -0.4868
  595MOL0     C78421   9.205   4.820  -0.210  0.0284  0.0944 -0.1415
  595MOL0     C78422   9.182   4.923  -0.098  0.5235  0.2181  0.5421
  595MOL0     C78423   9.172   4.885   0.054 -0.8911  0.2481 -0.6102
  595MOL0     C78424   9.158   5.010   0.138  0.4266 -0.6978  0.0028
  595MOL0     N78425   9.050   5.103   0.089  0.3556  0.7446 -0.3676
  595MOL0     C78426   9.062   5.230   0.044  0.5461  0.2118  0.0505
  595MOL0     C78427   8.934   5.259   0.019 -0.8819 -0.5074 -0.3237
  595MOL0     C78428   8.895   5.370  -0.065 -0.0115 -0.3638  0.2854
  595MOL0     C78429   8.879   5.310  -0.206  0.6386 -0.7693  0.1082
  595MOL0     C78430   8.754   5.219  -0.207  0.2503  0.4970  0.7199
  595MOL0     C78431   8.721   5.190  -0.352  0.0808  0.6854  0.3011
  595MOL0     O78432   8.610   5.107  -0.358  0.1051 -0.3336  0.3439
  595MOL0     C78433   8.490   5.153  -0.311  1.0984  0.0468 -0.1104
  595MOL0     C78434   8.448   5.093  -0.190 -0.0282 -0.3727 -1.0316
  595MOL0     C78435   8.353   5.152  -0.114 -0.4125 -0.6372  0.4443
  595MOL0     C78436   8.291   5.268  -0.154  0.3011  0.3677 -0.3871
  595MOL0     C78437   8.193   5.331  -0.068  0.0537 -0.0611 -0.5680
  595MOL0     O78438   8.154   5.461  -0.090 -0.1141  0.0787 -0.1395
  595MOL0     C78439   8.063   5.514   0.004 -0.1427  0.1354 -0.9576
  595MOL0     C78440   8.088   5.639   0.074  0.3974 -0.7142 -0.3319
  595MOL0     C78441   7.998   5.689   0.168  0.2639  0.7280  0.1806
  595MOL0     C78442   7.875   5.630   0.193 -0.5579 -0.2314 -0.3890
  595MOL0     O78443   7.779   5.696   0.263 -0.1628  0.0416 -0.3539
  595MOL0     C78444   7.648   5.626   0.288  0.1516 -0.1469  0.4887
  595MOL0     C78445   7.572   5.707   0.399 -0.5428 -0.6189  0.2411
  595MOL0     C78446   7.421   5.673   0.410  0.0253  0.2147 -0.0140
  595MOL0     C78447   7.392   5.525   0.411  0.2825  0.3722  0.9525
  595MOL0     C78448   7.250   5.495   0.363  0.1791 -0.5377  0.0329
  595MOL0     C78449   7.240   5.346   0.359  0.0797 -0.2425  0.6149
  595MOL0     C78450   7.095   5.303   0.344 -0.1387  0.1218  0.0328
  595MOL0     C78451   7.081   5.147   0.322  0.0661 -0.5750  0.4020
  595MOL0    Cl78452   7.125   5.098   0.153 -0.0491  0.1616 -0.0040
  595MOL0     C78453   7.858   5.512   0.129  0.4189  0.4071 -0.6960
  595MOL0     C78454   7.941   5.455   0.037 -0.3989 -0.3809  0.2238
  595MOL0     O78455   8.162   5.267   0.033  0.4033 -0.6401 -0.0833
  595MOL0     C78456   8.321   5.322  -0.288 -0.5128  0.0857  0.1103
  595MOL0     C78457   8.423   5.269  -0.367 -0.2853  0.1218 -0.4647
  595MOL0     N78458   8.847   5.160   0.062 -0.4386  0.4817 -0.1870
  595MOL0     N78459   8.920   5.067   0.106  0.1100  0.5325  0.0957
  595MOL0     C78460   8.430   4.741  -0.198 -0.4822 -0.3695  0.1746
  595MOL0     C78461   8.298   4.771  -0.162 -0.2947  0.4678 -0.0345
  595MOL0     C78462   7.943   4.857   0.131 -0.1648  0.4478  0.4971
  595MOL0     C78463   7.918   4.997   0.119 -0.2966  0.5471  1.0222
  595MOL0     C78464   7.791   5.046   0.156 -0.8896 -0.2754 -0.1310
  595MOL0     C78465   7.694   4.963   0.204 -0.0021  0.1777 -0.2454
  595MOL0     O78466   7.575   5.025   0.216  0.3873 -0.5388 -0.5303
  595MOL0     C78467   7.505   4.997   0.341  0.1482 -0.0370 -0.6729
  595MOL0     C78468   7.589   5.058   0.455 -0.4979 -0.1157  0.0317
  595MOL0     C78469   7.622   5.207   0.447  0.1126  0.6562  0.4147
  595MOL0     C78470   7.709   5.235   0.575 -0.4404 -0.2787 -0.3717
  595MOL0     C78471   7.742   5.384   0.589 -0.5723  0.2211 -0.7642
  595MOL0     C78472   7.762   5.497   0.614 -0.1695  0.1830 -1.0742
  595MOL0     C78473   7.718   4.833   0.231  0.4813  0.8149  0.2430
  595MOL0     C78474   7.846   4.780   0.187  0.3849  0.1354 -0.9380
  595MOL0     H78475   8.355   4.879   0.166 -3.0442  0.5682 -0.3052
  595MOL0     H78476   8.592   4.813   0.087  1.3821 -1.6202 -0.1075
  595MOL0     H78477   8.689   4.736  -0.320 -1.5930 -0.9002 -0.5473
  595MOL0     H78478   8.667   4.568  -0.263 -0.3146  0.2185 -2.3471
  595MOL0     H78479   8.884   4.567  -0.314  1.3977 -0.4377  0.5522
  595MOL0     H78480   8.880   4.559  -0.143  3.2101 -0.6829 -1.1844
  595MOL0     H78481   8.937   4.807  -0.139  2.8023 -1.3021  0.8944
  595MOL0     H78482   8.944   4.811  -0.318  0.4471  1.6235 -0.3030
  595MOL0     H78483   9.112   4.640  -0.131 -1.1425  0.2650  0.0569
  595MOL0     H78484   9.125   4.643  -0.310 -2.4420  2.4339 -3.0276
  595MOL0     H78485   9.211   4.881  -0.300  0.4128  0.5807  0.2087
  595MOL0     H78486   9.301   4.767  -0.204 -0.8750 -1.5971 -0.0135
  595MOL0     H78487   9.085   4.966  -0.127 -0.1384 -0.9340  0.9444
  595MOL0     H78488   9.263   4.995  -0.105  0.1873  0.4360 -2.1056
  595MOL0     H78489   9.095   4.807   0.062 -1.4396  0.7990 -0.3903
  595MOL0     H78490   9.268   4.840   0.080 -0.2944 -1.5260 -4.9368
  595MOL0     H78491   9.250   5.067   0.119 -0.8221  0.3314 -3.8792
  595MOL0     H78492   9.149   4.981   0.243 -1.9395 -2.4276 -0.6156
  595MOL0     H78493   9.150   5.289   0.023 -0.0506  2.0326  2.3082
  595MOL0     H78494   8.968   5.451  -0.060  0.7930 -0.8382 -2.1407
  595MOL0     H78495   8.797   5.403  -0.030 -0.9469 -2.3903 -0.2320
  595MOL0     H78496   8.968   5.255  -0.237  2.1325  2.4088 -1.6301
  595MOL0     H78497   8.867   5.389  -0.280 -0.0520  0.3756  1.3848
  595MOL0     H78498   8.785   5.122  -0.168 -1.1613 -0.0104  0.6499
  595MOL0     H78499   8.668   5.255  -0.149  0.6204  0.8702  1.0396
  595MOL0     H78500   8.812   5.140  -0.389 -1.3175 -1.7509 -0.0561
  595MOL0     H78501   8.703   5.276  -0.417 -1.9339 -0.0413 -0.1841
  595MOL0     H78502   8.514   5.011  -0.162  1.0183  0.3572 -1.3071
  595MOL0     H78503   8.332   5.111  -0.016  0.4005 -2.6497 -0.1830
  595MOL0     H78504   8.179   5.692   0.050  0.6403 -0.9623  0.0393
  595MOL0     H78505   8.019   5.780   0.224 -1.0345 -0.5171  2.8899
  595MOL0     H78506   7.662   5.525   0.328 -3.6980 -0.2424  1.9552
  595MOL0     H78507   7.583   5.620   0.200  1.7416  0.3908 -0.7871
  595MOL0     H78508   7.571   5.811   0.366  2.5115 -0.7427 -0.5473
  595MOL0     H78509   7.633   5.699   0.490  0.5774 -0.4986 -0.4747
  595MOL0     H78510   7.377   5.727   0.326  0.7216  2.2213  0.8503
  595MOL0     H78511   7.378   5.726   0.495  0.2019  2.3492 -1.1766
  595MOL0     H78512   7.454   5.463   0.344  0.8573 -0.1079  1.9102
  595MOL0     H78513   7.410   5.483   0.510  3.0856 -0.2474  0.2834
  595MOL0     H78514   7.235   5.540   0.264 -2.0955 -3.2550 -0.9997
  595MOL0     H78515   7.184   5.526   0.445  2.4437 -1.9783  2.5595
  595MOL0     H78516   7.275   5.298   0.450 -1.7253 -1.5185  0.6931
  595MOL0     H78517   7.296   5.318   0.269 -0.1834 -1.5473  0.8373
  595MOL0     H78518   7.047   5.322   0.441  2.1993 -1.2462  1.5720
  595MOL0     H78519   7.046   5.354   0.262  1.7454  0.8062 -0.7332
  595MOL0     H78520   6.978   5.119   0.344 -0.1000 -0.1796  0.1402
  595MOL0     H78521   7.148   5.091   0.388  1.2673  0.5681  0.2028
  595MOL0     H78522   7.766   5.461   0.158 -0.1614  1.4395 -0.6726
  595MOL0     H78523   7.903   5.363  -0.006  0.6011 -0.4701 -0.4991
  595MOL0     H78524   8.272   5.413  -0.320  0.4832  0.4643 -0.3928
  595MOL0     H78525   8.450   5.304  -0.466  0.2415 -0.4396 -0.5209
  595MOL0     H78526   8.446   4.701  -0.297  2.7891  3.0378 -0.9155
  595MOL0     H78527   8.215   4.766  -0.232 -0.1826  0.4703 -0.1690
  595MOL0     H78528   7.992   5.062   0.073 -2.7849  1.7248 -1.5687
  595MOL0     H78529   7.778   5.154   0.156  1.3863  0.1177  2.6306
  595MOL0     H78530   7.488   4.890   0.356 -2.3919  0.2857 -0.7278
  595MOL0     H78531   7.410   5.050   0.329 -0.5122 -1.1568 -0.5888
  595MOL0     H78532   7.532   5.044   0.547 -0.4873  0.4561  0.1301
  595MOL0     H78533   7.683   5.001   0.463  0.3227  0.8554 -2.1522
  595MOL0     H78534   7.528   5.262   0.431 -1.2789 -1.8890 -0.9830
  595MOL0     H78535   7.666   5.229   0.349 -0.7815 -0.5054 -0.2927
  595MOL0     H78536   7.653   5.203   0.663 -1.5010 -2.7886 -1.8415
  595MOL0     H78537   7.801   5.177   0.574  0.5088  1.1696 -0.3061
  595MOL0     H78538   7.768   5.601   0.639 -0.2531  0.7384 -3.1729
  595MOL0     H78539   7.641   4.763   0.260  3.0189 -2.6972 -0.7841
  595MOL0     H78540   7.876   4.677   0.205  2.7172  1.2076  2.3276
  596MOL0     O78541   7.558  10.429   6.771 -0.1889 -0.8047 -0.4782
  596MOL0     C78542   7.649  10.486   6.713  0.5570 -0.0981 -0.7609
  596MOL0     O78543   7.633  10.529   6.579  0.3559 -0.1271 -0.2278
  596MOL0     C78544   7.509  10.512   6.522 -0.5212 -0.3125  1.0665
  596MOL0     C78545   7.402  10.594   6.561 -0.4977  0.7431 -0.2537
  596MOL0     C78546   7.274  10.563   6.510  0.1326  0.0392  0.4689
  596MOL0     C78547   7.257  10.488   6.394  0.0621 -0.0539  0.2163
  596MOL0     O78548   7.131  10.473   6.326 -0.6884 -0.4620 -0.3315
  596MOL0     C78549   7.000  10.488   6.391  0.3645 -0.4991 -0.6431
  596MOL0     C78550   6.898  10.424   6.294  0.1734  0.4097  0.3639
  596MOL0     C78551   6.756  10.421   6.335 -0.7717 -0.3755  0.3063
  596MOL0     C78552   6.671  10.397   6.206 -0.1584 -0.4811  0.3548
  596MOL0     C78553   6.525  10.371   6.239  0.0755  0.6797 -0.0973
  596MOL0     C78554   6.432  10.399   6.111  0.5960 -0.1141  0.4654
  596MOL0     C78555   6.282  10.396   6.130 -0.4961 -0.1392  0.1378
  596MOL0     C78556   6.228  10.255   6.165 -0.5571 -0.2139 -0.2213
  596MOL0     N78557   6.083  10.238   6.162  0.5984  0.1327  0.3392
  596MOL0     C78558   5.998  10.305   6.072 -0.0837  0.6367 -0.5107
  596MOL0     C78559   5.873  10.260   6.101  0.0876 -0.3755 -0.5074
  596MOL0     C78560   5.759  10.282   6.009 -0.6859 -0.0223  0.0574
  596MOL0     C78561   5.707  10.429   6.029 -0.8084  0.5488  1.2566
  596MOL0     C78562   5.569  10.467   6.002  0.0021 -0.2860 -0.0024
  596MOL0     C78563   5.531  10.437   5.863  0.8860 -0.6723 -0.2611
  596MOL0     O78564   5.448  10.541   5.811  0.3753 -0.3594 -0.1647
  596MOL0     C78565   5.310  10.524   5.814  0.3658  0.1753  0.1638
  596MOL0     C78566   5.240  10.550   5.931 -0.2227  0.2343  0.3273
  596MOL0     C78567   5.097  10.531   5.941  0.5871  0.0575  0.4605
  596MOL0     C78568   5.023  10.505   5.818 -0.2016 -0.9218 -0.4269
  596MOL0     C78569   4.868  10.486   5.818 -0.1874 -0.2097  0.2132
  596MOL0     O78570   4.811  10.503   5.939 -0.2906 -0.6373  0.1856
  596MOL0     C78571   4.675  10.494   5.946  0.2203  1.8406  0.2435
  596MOL0     C78572   4.608  10.368   5.908  0.0636  0.2450  0.3870
  596MOL0     C78573   4.474  10.372   5.892 -0.0003 -0.0066 -0.3650
  596MOL0     C78574   4.396  10.483   5.914 -0.0926  0.4694 -1.0185
  596MOL0     O78575   4.266  10.468   5.891 -0.9072  0.3906 -0.3273
  596MOL0     C78576   4.160  10.555   5.936  0.7940 -0.1970 -0.5804
  596MOL0     C78577   4.027  10.495   5.914 -0.1897  0.6909  0.3628
  596MOL0     C78578   3.911  10.587   5.917  0.5002  0.2118  0.3066
  596MOL0     C78579   3.784  10.535   5.843 -0.1289 -0.6911  0.7718
  596MOL0     C78580   3.656  10.557   5.922  0.2948  0.0780  0.2742
  596MOL0     C78581   3.528  10.532   5.837 -0.7674 -0.3107 -0.8228
  596MOL0     C78582   3.401  10.536   5.929  0.0831  0.2069 -0.0865
  596MOL0     C78583   3.282  10.537   5.837  0.7312 -0.0404  0.8359
  596MOL0    Cl78584   3.255  10.379   5.740 -0.0283 -0.1151  0.4587
  596MOL0     C78585   4.451  10.595   5.961 -0.1901 -0.4904  0.0913
  596MOL0     C78586   4.590  10.603   5.973  0.5202  0.5703  0.7336
  596MOL0     O78587   4.812  10.495   5.710 -0.5829 -0.2756  0.0853
  596MOL0     C78588   5.101  10.488   5.700 -0.0954  0.4681 -0.7038
  596MOL0     C78589   5.240  10.502   5.693  0.1775  0.4971  0.0265
  596MOL0     N78590   5.887  10.161   6.205  0.1338 -0.0057  0.4952
  596MOL0     N78591   6.013  10.142   6.238 -0.0789 -0.0272  0.5967
  596MOL0     C78592   7.370  10.423   6.343  0.3100 -0.1844 -0.5150
  596MOL0     C78593   7.493  10.440   6.402 -0.2486 -0.4409 -0.3395
  596MOL0     C78594   7.779  10.512   6.784  0.0816 -0.0713 -0.2390
  596MOL0     C78595   7.804  10.469   6.915  0.1242 -0.7538  0.1799
  596MOL0     C78596   7.933  10.496   6.981  0.5843  0.4709  0.1217
  596MOL0     C78597   8.038  10.545   6.906 -0.2639  0.1538 -0.3227
  596MOL0     O78598   8.168  10.559   6.956 -0.3665 -0.5333 -0.4631
  596MOL0     C78599   8.181  10.493   7.090  0.7698 -0.0471 -0.2665
  596MOL0     C78600   8.323  10.486   7.124 -0.6648 -0.2529 -0.1121
  596MOL0     C78601   8.404  10.587   7.202 -0.1236  0.2726  1.4279
  596MOL0     C78602   8.345  10.729   7.197  0.1774  0.0845 -0.0927
  596MOL0     C78603   8.454  10.820   7.243 -0.7600 -0.7390  0.2390
  596MOL0     C78604   8.553  10.886   7.290 -0.2570  0.2218 -0.1796
  596MOL0     C78605   8.016  10.578   6.772  0.6835  0.2190  0.0508
  596MOL0     C78606   7.889  10.563   6.713  0.2274 -0.5120 -0.1931
  596MOL0     H78607   7.419  10.648   6.654 -1.3448 -0.8895  0.9133
  596MOL0     H78608   7.190  10.609   6.561  0.5699  1.8070 -0.3202
  596MOL0     H78609   6.975  10.594   6.404  0.5803 -0.3726 -1.2265
  596MOL0     H78610   6.988  10.448   6.492 -1.5421  2.5829  0.5068
  596MOL0     H78611   6.938  10.324   6.274  2.3053  1.5254 -1.4397
  596MOL0     H78612   6.908  10.484   6.203 -0.3356  2.8674  1.8203
  596MOL0     H78613   6.741  10.523   6.373  2.1242 -0.8172  3.0703
  596MOL0     H78614   6.742  10.341   6.408  0.9997 -1.6472 -0.6588
  596MOL0     H78615   6.677  10.481   6.136 -0.7192 -2.4435 -2.2109
  596MOL0     H78616   6.708  10.311   6.148  0.1179 -0.4984  0.5538
  596MOL0     H78617   6.489  10.438   6.318  0.3014 -0.0837  0.6594
  596MOL0     H78618   6.506  10.272   6.280  2.9347 -0.4227 -1.1541
  596MOL0     H78619   6.463  10.328   6.033  1.9336  2.6043 -1.6590
  596MOL0     H78620   6.461  10.496   6.070  2.1499  0.1603  2.0990
  596MOL0     H78621   6.261  10.471   6.207  0.6542  0.2816  0.0659
  596MOL0     H78622   6.235  10.433   6.038  1.7547  2.7434  0.0142
  596MOL0     H78623   6.271  10.238   6.264 -3.4347 -2.1364  0.8202
  596MOL0     H78624   6.270  10.179   6.098 -0.1681 -0.4339  0.2627
  596MOL0     H78625   6.027  10.376   5.996 -1.2691 -1.2023 -2.8002
  596MOL0     H78626   5.668  10.226   6.034 -1.0405  1.0579  1.2957
  596MOL0     H78627   5.786  10.269   5.904  0.3235  4.2360 -0.3875
  596MOL0     H78628   5.773  10.490   5.967 -0.7347 -1.5188 -0.8180
  596MOL0     H78629   5.732  10.448   6.134  1.2395 -0.1210  0.9477
  596MOL0     H78630   5.514  10.411   6.078 -1.2170 -0.6064 -1.0806
  596MOL0     H78631   5.574  10.575   6.020  0.8781 -0.3976  0.4798
  596MOL0     H78632   5.484  10.338   5.860  0.2382 -0.4065  0.6616
  596MOL0     H78633   5.621  10.448   5.802  2.6856 -1.1865  2.1760
  596MOL0     H78634   5.302  10.566   6.019  1.0800  0.4827 -0.5985
  596MOL0     H78635   5.042  10.550   6.032 -2.6528  2.2397 -1.7250
  596MOL0     H78636   4.666  10.284   5.871  0.7180 -0.5978  3.0426
  596MOL0     H78637   4.409  10.297   5.847 -2.1575  1.2061  0.5471
  596MOL0     H78638   4.171  10.639   5.866  0.4517  1.8619  1.6885
  596MOL0     H78639   4.169  10.584   6.041  0.5227 -0.1187 -0.5771
  596MOL0     H78640   4.010  10.399   5.965  0.0772  1.8781  2.8583
  596MOL0     H78641   4.031  10.463   5.810  3.7636  0.5018  0.4211
  596MOL0     H78642   3.952  10.673   5.864 -1.1902  1.5332  1.0678
  596MOL0     H78643   3.883  10.617   6.018  1.9773  2.6286  0.0656
  596MOL0     H78644   3.787  10.590   5.749  4.0279 -1.6182  0.1798
  596MOL0     H78645   3.789  10.428   5.824  0.0773 -0.1678 -2.6174
  596MOL0     H78646   3.660  10.663   5.948  1.0367  0.4361 -1.1911
  596MOL0     H78647   3.640  10.495   6.011  0.0499  1.2229  1.0522
  596MOL0     H78648   3.515  10.433   5.793  0.2668 -1.2540  0.9109
  596MOL0     H78649   3.528  10.605   5.755 -2.2141 -2.8101 -3.2136
  596MOL0     H78650   3.386  10.459   6.005  2.1206  0.3877  0.5551
  596MOL0     H78651   3.401  10.627   5.989 -1.7895 -0.0742  0.4169
  596MOL0     H78652   3.290  10.608   5.755 -3.2222 -1.1356 -0.7413
  596MOL0     H78653   3.187  10.559   5.887 -0.0486 -2.8792  0.7614
  596MOL0     H78654   4.387  10.676   5.996 -1.7203 -1.8468  0.5267
  596MOL0     H78655   4.647  10.683   6.021  0.0591  0.5443  1.3256
  596MOL0     H78656   5.062  10.444   5.608 -0.8309  1.0248 -0.6652
  596MOL0     H78657   5.289  10.490   5.597  2.3950 -3.4244  1.4160
  596MOL0     H78658   7.349  10.370   6.251 -2.2291 -0.1598 -0.0249
  596MOL0     H78659   7.584  10.393   6.365  0.6164 -0.7808  1.9894
  596MOL0     H78660   7.721  10.428   6.971 -1.7938  0.3278 -1.7113
  596MOL0     H78661   7.934  10.467   7.086 -0.3293  2.4115  0.7139
  596MOL0     H78662   8.139  10.392   7.090 -0.3530  0.4003  0.3066
  596MOL0     H78663   8.123  10.552   7.161  2.3121  0.4686  0.6046
  596MOL0     H78664   8.343  10.390   7.173  2.3749  1.0673  1.5096
  596MOL0     H78665   8.368  10.473   7.025 -0.9153  1.2915 -0.4521
  596MOL0     H78666   8.504  10.591   7.158 -0.5447 -2.9682 -0.1087
  596MOL0     H78667   8.414  10.558   7.307 -1.5555 -1.1554  1.2178
  596MOL0     H78668   8.314  10.753   7.095  1.5355 -0.4394 -0.6452
  596MOL0     H78669   8.259  10.736   7.264  0.2411  0.5060 -0.0540
  596MOL0     H78670   8.639  10.942   7.319 -1.0959  1.4974 -0.0773
  596MOL0     H78671   8.099  10.616   6.714  2.2553  0.3102  2.2487
  596MOL0     H78672   7.864  10.588   6.611 -0.4030  1.4336  0.3894
  597MOL0     O78673   5.683   2.419   0.382  0.0796 -0.3695  0.0931
  597MOL0     C78674   5.692   2.530   0.441  0.3387  0.1898 -0.3872
  597MOL0     O78675   5.589   2.599   0.494 -0.1944  0.1024  0.0420
  597MOL0     C78676   5.451   2.567   0.472 -0.4004  0.1748 -0.6817
  597MOL0     C78677   5.391   2.503   0.356 -0.2026 -0.6184  0.7027
  597MOL0     C78678   5.259   2.466   0.351  0.2937 -0.2758  0.2483
  597MOL0     C78679   5.178   2.491   0.466  0.1041 -0.4198 -0.1911
  597MOL0     O78680   5.051   2.434   0.471 -0.3789 -0.0792  0.2146
  597MOL0     C78681   4.981   2.417   0.346  0.2457 -0.3713  0.6553
  597MOL0     C78682   4.840   2.362   0.373 -0.2383 -0.2689  0.0519
  597MOL0     C78683   4.776   2.333   0.236  0.4328  0.1242 -0.6748
  597MOL0     C78684   4.633   2.286   0.243  0.0757  0.6807  0.0051
  597MOL0     C78685   4.576   2.269   0.103  0.6572 -0.6400  0.3543
  597MOL0     C78686   4.418   2.275   0.112 -1.0234 -0.4048 -0.4019
  597MOL0     C78687   4.344   2.253  -0.018  0.5076  0.1911 -0.2180
  597MOL0     C78688   4.381   2.350  -0.126 -0.3782  0.5780 -0.3724
  597MOL0     N78689   4.280   2.361  -0.229 -0.0233  0.0747 -0.1670
  597MOL0     C78690   4.214   2.264  -0.308 -0.1019  0.1177 -0.3368
  597MOL0     C78691   4.130   2.333  -0.390  0.5571  0.4470 -0.5352
  597MOL0     C78692   4.035   2.289  -0.498  0.7241 -0.2196 -0.0492
  597MOL0     C78693   4.097   2.324  -0.633  0.1276 -0.8073 -0.6576
  597MOL0     C78694   4.014   2.322  -0.758 -0.4149  0.2535  0.1784
  597MOL0     C78695   3.962   2.184  -0.783 -0.0969  0.1298 -0.6581
  597MOL0     O78696   3.864   2.158  -0.685  0.1832  0.6446 -0.2616
  597MOL0     C78697   3.732   2.192  -0.714  0.6388 -0.8356  0.0014
  597MOL0     C78698   3.632   2.139  -0.632  0.4540  0.2952  0.3913
  597MOL0     C78699   3.493   2.175  -0.665  0.5549 -0.1234  0.5411
  597MOL0     C78700   3.456   2.251  -0.770  0.0288 -0.6717  0.2925
  597MOL0     C78701   3.314   2.271  -0.796 -0.0095  0.1996  0.0714
  597MOL0     O78702   3.231   2.204  -0.709  0.1203 -0.0868  0.5868
  597MOL0     C78703   3.096   2.196  -0.742 -1.3271 -0.0226 -0.9012
  597MOL0     C78704   3.035   2.088  -0.808  0.0874  0.7282  0.7472
  597MOL0     C78705   2.899   2.103  -0.840  0.4126  0.1830 -0.1856
  597MOL0     C78706   2.817   2.214  -0.809 -0.6010 -0.0014  0.4784
  597MOL0     O78707   2.691   2.224  -0.857 -0.1748  0.6313 -0.2083
  597MOL0     C78708   2.601   2.297  -0.780 -0.1669 -0.9209  0.9830
  597MOL0     C78709   2.453   2.294  -0.834  0.0822 -0.6564 -0.1431
  597MOL0     C78710   2.353   2.345  -0.728 -0.3022 -0.2763  0.5540
  597MOL0     C78711   2.215   2.366  -0.796  0.6241 -0.4250 -0.6776
  597MOL0     C78712   2.105   2.402  -0.692 -0.4189  0.0765  0.2837
  597MOL0     C78713   1.969   2.365  -0.752  0.2795  0.4678 -0.0277
  597MOL0     C78714   1.853   2.419  -0.661  0.0166 -0.6459 -0.1381
  597MOL0     C78715   1.727   2.331  -0.665 -0.1043 -0.7477  0.3170
  597MOL0    Cl78716   1.641   2.363  -0.819 -0.1102  0.0258  0.1467
  597MOL0     C78717   2.888   2.322  -0.755 -0.0504  0.1220  0.3515
  597MOL0     C78718   3.022   2.314  -0.712 -0.2531  0.3096 -0.6277
  597MOL0     O78719   3.287   2.357  -0.881  0.1789  0.1768  0.0090
  597MOL0     C78720   3.562   2.301  -0.856 -0.7555 -0.0199 -0.3107
  597MOL0     C78721   3.695   2.271  -0.819 -0.3573  0.8138  0.9644
  597MOL0     N78722   4.140   2.473  -0.370 -0.5007 -0.2711 -0.2532
  597MOL0     N78723   4.234   2.480  -0.282 -0.3606  0.0658 -0.5112
  597MOL0     C78724   5.236   2.551   0.582  0.4691 -0.2833 -0.1964
  597MOL0     C78725   5.372   2.602   0.580  0.3592  0.4169  1.2506
  597MOL0     C78726   5.823   2.602   0.440  0.2214  1.0277  0.6935
  597MOL0     C78727   5.929   2.572   0.349  0.1754  0.9451 -0.0256
  597MOL0     C78728   6.040   2.659   0.345 -1.0026  0.3118  0.1616
  597MOL0     C78729   6.035   2.785   0.413 -0.2367  0.6912 -0.0455
  597MOL0     O78730   6.150   2.861   0.399 -0.0741  0.2221  0.1065
  597MOL0     C78731   6.140   3.005   0.417 -0.0239 -0.4957 -0.2241
  597MOL0     C78732   6.197   3.039   0.553 -0.2173 -0.2183 -1.0269
  597MOL0     C78733   6.124   3.147   0.622  1.1006 -0.5017  1.1786
  597MOL0     C78734   6.217   3.193   0.731  0.1042 -1.1513 -0.0383
  597MOL0     C78735   6.129   3.272   0.815  0.1942 -0.2702 -0.0503
  597MOL0     C78736   6.061   3.335   0.890 -0.0850  0.3838 -0.3969
  597MOL0     C78737   5.934   2.811   0.499 -0.4287 -0.1549  0.4095
  597MOL0     C78738   5.838   2.715   0.519  0.2125 -0.2461 -0.1830
  597MOL0     H78739   5.446   2.479   0.266  0.4479  1.5569  0.4716
  597MOL0     H78740   5.220   2.422   0.260 -1.2863  0.8080  0.3586
  597MOL0     H78741   5.023   2.349   0.272 -2.0143 -1.6843  0.4963
  597MOL0     H78742   4.970   2.510   0.290 -2.5627 -1.8914 -1.5559
  597MOL0     H78743   4.774   2.436   0.419 -2.6177 -0.9361 -2.0614
  597MOL0     H78744   4.841   2.277   0.442  0.6649  0.4739  0.9836
  597MOL0     H78745   4.829   2.254   0.182 -1.5411 -1.1913 -0.7890
  597MOL0     H78746   4.767   2.424   0.176  0.0780  1.0668  0.7576
  597MOL0     H78747   4.627   2.193   0.300 -1.3603  0.1244 -0.9888
  597MOL0     H78748   4.571   2.356   0.300  0.5155 -0.7185  2.3370
  597MOL0     H78749   4.609   2.172   0.066 -0.9953 -1.8275  1.8184
  597MOL0     H78750   4.617   2.348   0.039 -1.1341  2.8870  3.1234
  597MOL0     H78751   4.388   2.374   0.149 -0.1463 -0.8771  1.6795
  597MOL0     H78752   4.384   2.203   0.186 -0.4745  1.0991  1.3736
  597MOL0     H78753   4.380   2.155  -0.050  0.3914  1.1538 -3.6920
  597MOL0     H78754   4.238   2.254   0.010  0.7379 -0.9878  0.7790
  597MOL0     H78755   4.471   2.325  -0.182 -0.6352  0.5262 -0.7626
  597MOL0     H78756   4.397   2.447  -0.077 -2.4400  0.8369 -0.0883
  597MOL0     H78757   4.225   2.157  -0.302 -2.1617 -0.1296 -0.2337
  597MOL0     H78758   3.942   2.344  -0.481 -1.2692 -3.1036 -0.8823
  597MOL0     H78759   4.016   2.181  -0.496 -1.9570  0.1631 -1.5171
  597MOL0     H78760   4.184   2.258  -0.642  2.4409  1.7754  1.1924
  597MOL0     H78761   4.152   2.418  -0.637 -0.0656 -0.7418 -2.7820
  597MOL0     H78762   3.933   2.394  -0.746  0.1675  0.8985  0.3125
  597MOL0     H78763   4.079   2.365  -0.835 -0.9849  2.0471  0.6580
  597MOL0     H78764   4.041   2.110  -0.771 -0.9138 -0.5981  0.4612
  597MOL0     H78765   3.924   2.161  -0.884 -1.3119 -1.0092  0.0307
  597MOL0     H78766   3.661   2.063  -0.560 -2.8888 -0.4549  1.1349
  597MOL0     H78767   3.426   2.134  -0.590  0.0421 -0.7512 -0.2404
  597MOL0     H78768   3.088   1.996  -0.832  0.2970  0.3907  2.3789
  597MOL0     H78769   2.855   2.021  -0.895  2.4323 -2.1627  1.4682
  597MOL0     H78770   2.628   2.403  -0.784 -1.1935 -0.6621  0.6159
  597MOL0     H78771   2.598   2.270  -0.674 -1.1837  1.6474  1.6688
  597MOL0     H78772   2.427   2.190  -0.856  1.6808 -2.2487  4.4054
  597MOL0     H78773   2.444   2.363  -0.918 -1.9530 -0.4646  0.1841
  597MOL0     H78774   2.386   2.441  -0.688 -1.4396 -0.6170  2.4257
  597MOL0     H78775   2.350   2.275  -0.644 -1.9718 -0.8612  0.0497
  597MOL0     H78776   2.219   2.450  -0.866  2.5308  0.2537  0.1884
  597MOL0     H78777   2.192   2.280  -0.860 -0.8673 -0.5144 -0.0523
  597MOL0     H78778   2.107   2.510  -0.672  1.5785  0.1037  0.1977
  597MOL0     H78779   2.117   2.348  -0.598 -2.6557 -1.1656 -0.0783
  597MOL0     H78780   1.959   2.257  -0.745 -0.8117  0.3763 -2.2882
  597MOL0     H78781   1.957   2.396  -0.856 -0.2154 -1.2287 -0.5072
  597MOL0     H78782   1.883   2.439  -0.558 -0.3092  3.7865 -0.7334
  597MOL0     H78783   1.828   2.518  -0.699  2.1236 -0.3632 -0.8893
  597MOL0     H78784   1.652   2.353  -0.589  0.3220 -1.9577  1.1024
  597MOL0     H78785   1.752   2.225  -0.669 -0.8846 -0.9335  0.3058
  597MOL0     H78786   2.844   2.420  -0.741  1.1103  0.5761  0.9547
  597MOL0     H78787   3.086   2.389  -0.667 -1.0776  0.0976  0.9877
  597MOL0     H78788   3.534   2.362  -0.941 -2.0070  0.2729  0.2817
  597MOL0     H78789   3.768   2.311  -0.888  0.1553  1.1475  1.7020
  597MOL0     H78790   5.189   2.558   0.680  2.5883 -0.9058  0.9552
  597MOL0     H78791   5.427   2.646   0.661  4.3509 -0.4454 -0.7402
  597MOL0     H78792   5.932   2.473   0.304  1.7486  0.0477  1.8940
  597MOL0     H78793   6.120   2.621   0.282  0.4134 -0.4970  2.3225
  597MOL0     H78794   6.032   3.019   0.416 -0.3599 -2.6479  1.1873
  597MOL0     H78795   6.182   3.057   0.330  1.6772 -0.6546  0.4538
  597MOL0     H78796   6.188   2.952   0.618  0.0796  0.4525 -0.0754
  597MOL0     H78797   6.302   3.066   0.547 -0.0557  0.1275  2.0679
  597MOL0     H78798   6.028   3.112   0.660  1.8583 -1.6168  2.1574
  597MOL0     H78799   6.101   3.221   0.545 -3.8005 -0.5615  2.2931
  597MOL0     H78800   6.252   3.106   0.788 -0.4395 -1.7757 -0.6371
  597MOL0     H78801   6.306   3.250   0.705  0.2392  0.5865  3.5679
  597MOL0     H78802   6.000   3.393   0.957 -1.0794 -0.0644 -0.8940
  597MOL0     H78803   5.945   2.890   0.572 -0.3889 -2.1990  2.7565
  597MOL0     H78804   5.763   2.740   0.593  2.5060  1.5004  1.7242
  598MOL0     O78805   1.064   6.103   8.137  0.3084 -0.0233  0.2757
  598MOL0     C78806   1.010   6.003   8.186  0.0527 -0.0904 -0.3433
  598MOL0     O78807   0.884   5.992   8.218  0.0120  0.1112 -0.7007
  598MOL0     C78808   0.791   6.080   8.183 -0.3311 -0.2853  0.5659
  598MOL0     C78809   0.669   6.025   8.140  0.1854 -0.8284 -0.0288
  598MOL0     C78810   0.557   6.100   8.114 -0.1379  0.2828 -0.6200
  598MOL0     C78811   0.569   6.239   8.104  1.1364  0.1328 -0.8855
  598MOL0     O78812   0.468   6.323   8.061 -0.2333  0.2815 -0.3410
  598MOL0     C78813   0.337   6.310   8.125  0.4990 -0.1276  0.7211
  598MOL0     C78814   0.242   6.390   8.031 -0.3000 -0.3664  0.3482
  598MOL0     C78815   0.213   6.317   7.903 -0.1684  0.7301 -0.2463
  598MOL0     C78816   0.100   6.388   7.832  0.5971 -0.0601 -1.2381
  598MOL0     C78817   0.090   6.352   7.682 -0.1076  0.2941  0.7891
  598MOL0     C78818  -0.029   6.415   7.612 -0.4995 -0.5918  0.0588
  598MOL0     C78819  -0.043   6.336   7.483 -0.0749 -0.0105 -0.1427
  598MOL0     C78820  -0.106   6.415   7.366  0.4404 -0.3510  0.3414
  598MOL0     N78821  -0.247   6.450   7.387  0.7674 -0.1649  0.9413
  598MOL0     C78822  -0.335   6.449   7.289  0.7718  0.4193  0.2475
  598MOL0     C78823  -0.451   6.484   7.340  0.1955 -0.0531 -0.6233
  598MOL0     C78824  -0.580   6.498   7.264 -1.2467  0.6258 -0.2758
  598MOL0     C78825  -0.647   6.637   7.286 -0.0560  0.4923 -0.2139
  598MOL0     C78826  -0.777   6.667   7.211 -0.1426 -0.3532 -0.2982
  598MOL0     C78827  -0.906   6.600   7.272 -0.2367  0.1620  0.2709
  598MOL0     O78828  -1.016   6.640   7.190 -0.2477 -0.5557 -0.2112
  598MOL0     C78829  -1.134   6.575   7.189 -0.1248 -0.0339 -0.7086
  598MOL0     C78830  -1.235   6.646   7.127  0.6673  0.1824  1.0135
  598MOL0     C78831  -1.368   6.603   7.147 -0.5687 -0.0528  0.5497
  598MOL0     C78832  -1.398   6.471   7.193 -0.3814 -0.2572 -0.1569
  598MOL0     C78833  -1.530   6.413   7.197  0.4195 -0.3139 -0.2948
  598MOL0     O78834  -1.620   6.494   7.132  0.7451  0.4835 -0.0219
  598MOL0     C78835  -1.742   6.440   7.094  1.3462 -0.2685 -0.2661
  598MOL0     C78836  -1.773   6.361   6.979  0.5507  0.0298  0.5394
  598MOL0     C78837  -1.911   6.355   6.943  0.0788  0.1018  1.0161
  598MOL0     C78838  -2.018   6.411   7.019 -0.3953  0.0130  0.2531
  598MOL0     O78839  -2.139   6.389   6.972 -0.1951  0.7629  0.6161
  598MOL0     C78840  -2.246   6.436   7.064 -0.8933 -0.1070  0.0175
  598MOL0     C78841  -2.380   6.374   7.014 -0.4120 -0.3056  0.0578
  598MOL0     C78842  -2.497   6.427   7.085 -0.0025  0.2571 -0.2944
  598MOL0     C78843  -2.624   6.395   7.009  0.7667  0.1386  0.7273
  598MOL0     C78844  -2.740   6.472   7.075  0.3245  0.1768  1.0012
  598MOL0     C78845  -2.873   6.449   6.997  0.2612 -0.0034 -0.7466
  598MOL0     C78846  -2.983   6.515   7.070 -0.2971 -0.1217 -0.4412
  598MOL0     C78847  -3.129   6.490   7.023  0.5155 -0.4467 -0.3605
  598MOL0    Cl78848  -3.242   6.578   7.134 -0.0443 -0.0577  0.0853
  598MOL0     C78849  -1.978   6.481   7.136  0.2476 -0.1824  0.1990
  598MOL0     C78850  -1.844   6.489   7.176 -0.4974 -0.2291 -0.6483
  598MOL0     O78851  -1.552   6.302   7.235 -0.4449 -0.3500  0.2614
  598MOL0     C78852  -1.285   6.408   7.243  0.2664  0.7114 -0.1761
  598MOL0     C78853  -1.156   6.453   7.246 -0.0014 -0.0415  0.2942
  598MOL0     N78854  -0.428   6.505   7.475  0.4392  0.4237 -0.4023
  598MOL0     N78855  -0.302   6.494   7.503  0.5418  0.0316  0.3689
  598MOL0     C78856   0.685   6.305   8.149 -0.3072 -0.0854 -0.3676
  598MOL0     C78857   0.796   6.219   8.186  0.7818  0.9388 -0.0116
  598MOL0     C78858   1.102   5.893   8.231 -0.6857 -0.6034 -0.7796
  598MOL0     C78859   1.050   5.781   8.304  0.3376 -0.9812  0.1545
  598MOL0     C78860   1.140   5.685   8.349 -0.3404  0.3082  0.0883
  598MOL0     C78861   1.282   5.697   8.328 -0.1022  1.3171 -0.1660
  598MOL0     O78862   1.373   5.602   8.370 -0.7317  0.9844 -0.2371
  598MOL0     C78863   1.334   5.512   8.481  0.3920 -0.5000  0.0577
  598MOL0     C78864   1.443   5.427   8.536  0.1501  0.2271  0.4672
  598MOL0     C78865   1.572   5.503   8.565  0.8572 -0.2229 -0.5874
  598MOL0     C78866   1.673   5.512   8.443 -0.0749 -0.1955  0.0196
  598MOL0     C78867   1.792   5.583   8.490 -0.5483 -0.3739 -0.2471
  598MOL0     C78868   1.896   5.638   8.537 -0.4520 -0.1292  0.5264
  598MOL0     C78869   1.333   5.803   8.258 -0.9372 -0.6750 -0.3348
  598MOL0     C78870   1.246   5.899   8.205  0.5888 -0.1089  0.0498
  598MOL0     H78871   0.665   5.916   8.147  0.5586 -0.7441  2.4853
  598MOL0     H78872   0.466   6.047   8.089 -2.2450  1.5243  3.5549
  598MOL0     H78873   0.328   6.355   8.224 -2.8169 -0.0819  0.5327
  598MOL0     H78874   0.308   6.205   8.132 -1.5828  0.2736 -0.6679
  598MOL0     H78875   0.287   6.487   8.009 -0.6920 -0.3322 -0.3281
  598MOL0     H78876   0.150   6.418   8.084 -0.8839 -2.5154  0.5592
  598MOL0     H78877   0.187   6.213   7.927  2.8058 -0.1732 -0.4082
  598MOL0     H78878   0.302   6.310   7.839  2.0383  0.6770  2.6374
  598MOL0     H78879   0.008   6.349   7.877  1.8820 -1.5965  0.1749
  598MOL0     H78880   0.100   6.496   7.850  0.9385 -0.4313  1.3380
  598MOL0     H78881   0.086   6.243   7.673  0.2819  0.4686 -3.8179
  598MOL0     H78882   0.181   6.385   7.632 -1.0791 -0.4164 -1.6028
  598MOL0     H78883  -0.016   6.519   7.582  2.0852 -1.0114 -0.5125
  598MOL0     H78884  -0.122   6.409   7.669 -0.3497  0.4457  0.4242
  598MOL0     H78885   0.054   6.309   7.440  1.0736  2.4871  0.7085
  598MOL0     H78886  -0.105   6.250   7.510  0.6837  0.0914  2.1041
  598MOL0     H78887  -0.090   6.360   7.272  0.1619  0.8208 -0.4097
  598MOL0     H78888  -0.055   6.511   7.352 -1.7682  0.5872 -2.0100
  598MOL0     H78889  -0.313   6.418   7.188 -0.7793  1.7197 -0.5381
  598MOL0     H78890  -0.646   6.415   7.290 -0.4736 -0.4524 -1.6298
  598MOL0     H78891  -0.563   6.486   7.157  0.3264 -0.6588  0.0772
  598MOL0     H78892  -0.576   6.706   7.241 -0.6741 -0.3424 -2.6087
  598MOL0     H78893  -0.665   6.640   7.394  0.2492  0.5758 -0.1664
  598MOL0     H78894  -0.786   6.776   7.208  0.9909 -0.2527 -1.0147
  598MOL0     H78895  -0.763   6.635   7.107  3.0252  0.4567 -0.2355
  598MOL0     H78896  -0.922   6.629   7.376 -0.5809  1.9051 -0.2343
  598MOL0     H78897  -0.892   6.492   7.272 -1.2972  0.0071  1.3176
  598MOL0     H78898  -1.208   6.728   7.062 -0.8730  0.4618  0.6857
  598MOL0     H78899  -1.445   6.670   7.109  1.6414  1.5456 -1.4734
  598MOL0     H78900  -1.691   6.320   6.922 -0.8850 -3.5335  0.7927
  598MOL0     H78901  -1.927   6.294   6.855  0.8976 -0.5092  1.2757
  598MOL0     H78902  -2.241   6.545   7.059  0.7105 -0.1773 -0.4481
  598MOL0     H78903  -2.221   6.403   7.165  1.4579 -1.9677 -1.0603
  598MOL0     H78904  -2.380   6.265   7.021 -1.6178 -0.6150 -3.0752
  598MOL0     H78905  -2.385   6.400   6.908 -0.9188 -0.2006  0.1085
  598MOL0     H78906  -2.489   6.536   7.091 -1.1480  0.2993  1.0114
  598MOL0     H78907  -2.505   6.386   7.186 -1.2662  0.1998 -0.3971
  598MOL0     H78908  -2.618   6.427   6.905  3.3113  0.6413  0.9722
  598MOL0     H78909  -2.644   6.287   7.004  0.0219  0.3151 -0.3815
  598MOL0     H78910  -2.728   6.580   7.084  0.6509  0.3323 -0.9376
  598MOL0     H78911  -2.747   6.424   7.173 -0.8785 -0.0148  0.8364
  598MOL0     H78912  -2.903   6.344   7.001  0.1446  0.0528 -0.1650
  598MOL0     H78913  -2.869   6.487   6.894  0.5167 -2.4940 -1.7354
  598MOL0     H78914  -2.980   6.472   7.170 -0.5539  3.2649  1.1450
  598MOL0     H78915  -2.957   6.619   7.091 -2.8795  0.4807  0.0793
  598MOL0     H78916  -3.154   6.384   7.030 -4.2103  0.4928  0.2362
  598MOL0     H78917  -3.144   6.526   6.921 -0.5651  0.0604 -0.0355
  598MOL0     H78918  -2.054   6.515   7.206 -1.3848 -4.2912  0.7065
  598MOL0     H78919  -1.817   6.557   7.256 -1.1363 -0.6661 -0.0511
  598MOL0     H78920  -1.289   6.308   7.284  0.9868  0.8889  0.3372
  598MOL0     H78921  -1.075   6.395   7.289  1.7255  2.8912  1.2619
  598MOL0     H78922   0.709   6.410   8.143  0.1598 -0.2628 -2.9776
  598MOL0     H78923   0.894   6.264   8.202 -0.1572  3.1250 -0.0107
  598MOL0     H78924   0.946   5.764   8.330 -0.5207  2.3798 -0.5614
  598MOL0     H78925   1.093   5.603   8.402 -3.2290  0.1241 -2.5012
  598MOL0     H78926   1.255   5.449   8.441 -0.3606  1.6430 -2.0956
  598MOL0     H78927   1.297   5.570   8.566  2.1713 -1.7592  1.7774
  598MOL0     H78928   1.415   5.383   8.633  2.3948  3.6959  2.9484
  598MOL0     H78929   1.454   5.347   8.462 -1.1920 -0.5135  1.0248
  598MOL0     H78930   1.630   5.456   8.645  0.0134  0.5149  0.4878
  598MOL0     H78931   1.536   5.602   8.594  2.0204 -0.1400  0.6633
  598MOL0     H78932   1.698   5.410   8.413  1.2197 -0.2936  1.3336
  598MOL0     H78933   1.627   5.573   8.364  2.6487  1.7031 -0.2284
  598MOL0     H78934   1.975   5.700   8.573  0.7127 -0.7351 -0.8743
  598MOL0     H78935   1.436   5.807   8.225 -1.0959 -1.6626 -0.9664
  598MOL0     H78936   1.274   5.976   8.134 -3.7205  0.9813 -0.7572
  599MOL0     O78937  10.705  10.246   3.712  0.6546  0.3380 -0.4552
  599MOL0     C78938  10.779  10.188   3.791  0.5543  0.5727 -0.1228
  599MOL0     O78939  10.755  10.162   3.930 -0.7066 -0.1854  0.5047
  599MOL0     C78940  10.633  10.188   3.997 -0.1042 -0.3393  0.1741
  599MOL0     C78941  10.532  10.266   3.941  0.6370 -0.9826 -0.0068
  599MOL0     C78942  10.419  10.287   4.015  0.6802 -0.6135  0.1540
  599MOL0     C78943  10.396  10.234   4.143  0.1146  0.6603  0.7392
  599MOL0     O78944  10.289  10.250   4.228  0.2906 -0.1572  0.3173
  599MOL0     C78945  10.190  10.349   4.193 -0.3064  1.1012 -0.3512
  599MOL0     C78946  10.068  10.330   4.285 -0.2783 -0.6356  0.0498
  599MOL0     C78947   9.945  10.405   4.240 -0.7976 -0.2618  0.7095
  599MOL0     C78948   9.813  10.341   4.276  0.7425  0.0469  0.1711
  599MOL0     C78949   9.800  10.359   4.427  0.1485 -0.1263 -0.8225
  599MOL0     C78950   9.679  10.278   4.474 -0.0399 -0.0837 -0.5798
  599MOL0     C78951   9.542  10.296   4.404 -1.1338 -0.9574  0.1122
  599MOL0     C78952   9.435  10.228   4.481  0.1746  0.2285  0.4037
  599MOL0     N78953   9.294  10.230   4.423  0.3690 -0.2419  0.4963
  599MOL0     C78954   9.266  10.194   4.290 -0.0509  0.0921 -0.1853
  599MOL0     C78955   9.134  10.213   4.285 -0.0897 -0.6241  0.1269
  599MOL0     C78956   9.051  10.204   4.159  0.3694 -0.6792  0.6680
  599MOL0     C78957   8.953  10.085   4.180  0.3135 -0.5233  0.2250
  599MOL0     C78958   8.917  10.019   4.039  0.0225  0.5907 -0.4685
  599MOL0     C78959   8.819  10.109   3.963  0.3833 -0.5368  0.0025
  599MOL0     O78960   8.756  10.031   3.858 -0.2533 -0.5683  0.4179
  599MOL0     C78961   8.623  10.050   3.831 -0.3196  0.6491  0.1893
  599MOL0     C78962   8.539  10.155   3.882  0.5272 -0.9177  0.3510
  599MOL0     C78963   8.419  10.178   3.826  0.3200 -0.1796 -0.2619
  599MOL0     C78964   8.352  10.078   3.753  0.0371  0.5913  0.2196
  599MOL0     C78965   8.216  10.095   3.695 -0.2144  0.0546 -0.2481
  599MOL0     O78966   8.138  10.192   3.741 -0.4381 -0.5548 -1.0323
  599MOL0     C78967   8.000  10.194   3.726  0.7058 -0.0356  0.4263
  599MOL0     C78968   7.913  10.095   3.777  0.9262  0.3308  0.7345
  599MOL0     C78969   7.773  10.122   3.785  0.5368  0.0077 -0.4760
  599MOL0     C78970   7.715  10.220   3.719 -0.2511 -0.0363  0.0700
  599MOL0     O78971   7.585  10.250   3.706 -0.5312 -0.5995  0.4624
  599MOL0     C78972   7.490  10.140   3.685 -0.6251  0.0351  0.4414
  599MOL0     C78973   7.406  10.172   3.562  1.2839 -0.3429 -0.0761
  599MOL0     C78974   7.311  10.295   3.595  0.3755 -0.5026  0.0870
  599MOL0     C78975   7.210  10.328   3.479  0.1460  0.1386 -0.1111
  599MOL0     C78976   7.282  10.362   3.355  0.4262  0.2118 -0.0596
  599MOL0     C78977   7.184  10.422   3.250 -0.0103 -0.1492  1.2138
  599MOL0     C78978   7.262  10.475   3.130 -0.4762  0.5334 -0.8396
  599MOL0     C78979   7.170  10.485   3.001 -0.1747  0.5313  0.4294
  599MOL0    Cl78980   7.031  10.597   3.038 -0.3596 -0.0353 -0.2246
  599MOL0     C78981   7.794  10.306   3.650 -0.6016 -0.4778 -0.4354
  599MOL0     C78982   7.935  10.299   3.664  1.0930 -0.3673  0.4168
  599MOL0     O78983   8.182  10.017   3.611 -0.1474  0.6781  0.2928
  599MOL0     C78984   8.424   9.964   3.723  0.1014 -0.3233 -0.0031
  599MOL0     C78985   8.559   9.946   3.764  0.1782 -0.2115  0.8717
  599MOL0     N78986   9.083  10.249   4.405  0.1559  0.0697  0.2444
  599MOL0     N78987   9.180  10.257   4.486 -0.0143 -0.0740 -1.0320
  599MOL0     C78988  10.493  10.153   4.199 -1.1344  0.4799 -0.0472
  599MOL0     C78989  10.615  10.130   4.131  0.6942  0.6158  0.4136
  599MOL0     C78990  10.907  10.143   3.731 -0.2184  0.9124 -0.2547
  599MOL0     C78991  10.997  10.083   3.811 -0.5009 -0.2022 -0.4305
  599MOL0     C78992  11.108  10.015   3.758 -0.1426 -0.8775  0.3098
  599MOL0     C78993  11.132  10.021   3.620  0.8067 -1.2031  0.2608
  599MOL0     O78994  11.257   9.968   3.584 -0.3405 -0.9934 -0.0407
  599MOL0     C78995  11.307   9.981   3.452 -0.8544  0.5435  0.0797
  599MOL0     C78996  11.461   9.949   3.451 -0.0846 -0.0228 -0.1746
  599MOL0     C78997  11.531   9.961   3.582 -0.2037 -0.8098  0.2047
  599MOL0     C78998  11.659  10.047   3.569 -0.4672 -1.4592  0.8339
  599MOL0     C78999  11.627  10.193   3.543 -0.2451 -0.7314 -0.1852
  599MOL0     C79000  11.589  10.314   3.535 -0.2960 -0.2629  0.2428
  599MOL0     C79001  11.038  10.083   3.537 -0.1702 -0.0729 -0.4372
  599MOL0     C79002  10.928  10.147   3.589 -0.6159 -1.0957 -0.2866
  599MOL0     H79003  10.544  10.320   3.848  0.6299 -3.7633 -1.7340
  599MOL0     H79004  10.355  10.360   3.965  0.5902  0.0204  1.1800
  599MOL0     H79005  10.157  10.344   4.089  2.0348  2.1569 -1.2361
  599MOL0     H79006  10.231  10.451   4.202 -2.1476  1.9711 -1.3401
  599MOL0     H79007  10.089  10.366   4.386  2.9608 -1.3733 -0.2757
  599MOL0     H79008  10.051  10.222   4.285 -4.4840 -0.1676 -0.2363
  599MOL0     H79009   9.946  10.418   4.132  0.4063  1.8622  0.9265
  599MOL0     H79010   9.950  10.507   4.280 -0.8928  0.7171 -1.5946
  599MOL0     H79011   9.741  10.396   4.213  0.5917 -1.3748 -0.9433
  599MOL0     H79012   9.803  10.235   4.250 -2.5380 -0.6752  3.4598
  599MOL0     H79013   9.794  10.463   4.461 -0.5962 -0.9896  1.9598
  599MOL0     H79014   9.892  10.336   4.481  1.5764  3.7161 -1.2788
  599MOL0     H79015   9.682  10.296   4.581  0.5879  0.4094 -0.6722
  599MOL0     H79016   9.714  10.174   4.466 -0.0008 -0.0171 -1.3581
  599MOL0     H79017   9.521  10.403   4.398  1.4948 -0.4212 -2.7897
  599MOL0     H79018   9.561  10.263   4.301 -0.7072 -0.1392 -0.0790
  599MOL0     H79019   9.431  10.265   4.584 -0.5639  0.2959  0.3504
  599MOL0     H79020   9.461  10.121   4.489  0.8933 -0.3116 -5.1958
  599MOL0     H79021   9.338  10.151   4.221  0.1915  0.4885 -0.1804
  599MOL0     H79022   9.119  10.190   4.075  1.1921 -0.7013  1.3285
  599MOL0     H79023   8.990  10.295   4.148 -0.9570 -1.2238  2.8117
  599MOL0     H79024   8.858  10.120   4.223  1.3030  1.6419  0.7997
  599MOL0     H79025   8.993  10.008   4.246  0.6855  0.2762  0.9534
  599MOL0     H79026   9.005  10.004   3.975  0.1134  0.9571 -0.4276
  599MOL0     H79027   8.876   9.920   4.064  2.3520  0.1938  2.4295
  599MOL0     H79028   8.861  10.204   3.929  0.3273  0.1679  1.8135
  599MOL0     H79029   8.741  10.134   4.035  1.5847 -0.0641  1.1836
  599MOL0     H79030   8.583  10.224   3.953  0.4367 -0.4812 -0.0187
  599MOL0     H79031   8.365  10.268   3.854 -1.2711 -0.7321 -1.3873
  599MOL0     H79032   7.954  10.010   3.830  0.0592 -0.5108  0.0852
  599MOL0     H79033   7.719  10.051   3.847 -1.3052 -0.1930 -2.1779
  599MOL0     H79034   7.434  10.117   3.775 -0.1259  2.7916  1.5737
  599MOL0     H79035   7.546  10.048   3.669 -1.9007 -0.9502  1.4714
  599MOL0     H79036   7.345  10.082   3.547  2.3207 -1.2396  0.8830
  599MOL0     H79037   7.464  10.188   3.470  0.8733  3.7001  0.2285
  599MOL0     H79038   7.376  10.381   3.611  0.5717 -1.0284  2.4774
  599MOL0     H79039   7.260  10.288   3.691 -0.6398 -0.4680 -0.4326
  599MOL0     H79040   7.148  10.238   3.472  1.6112 -0.7558 -3.2403
  599MOL0     H79041   7.147  10.413   3.508  0.3607  0.7056 -1.2424
  599MOL0     H79042   7.322  10.271   3.309  0.5040  1.7383 -3.3610
  599MOL0     H79043   7.362  10.431   3.384  1.4618 -1.4006  1.0513
  599MOL0     H79044   7.144  10.516   3.290  1.4128  1.6452 -1.2869
  599MOL0     H79045   7.098  10.357   3.230 -0.5686  0.6386  0.9879
  599MOL0     H79046   7.308  10.572   3.146  0.5831  0.2260 -1.8349
  599MOL0     H79047   7.337  10.400   3.101  1.4061  1.8164  0.5381
  599MOL0     H79048   7.143  10.385   2.967 -0.1126  0.7293 -0.2090
  599MOL0     H79049   7.232  10.539   2.928  0.4298 -0.0344  0.5165
  599MOL0     H79050   7.744  10.392   3.606 -2.6415 -0.9013  0.9167
  599MOL0     H79051   7.997  10.374   3.617 -0.9943 -0.0616 -2.0356
  599MOL0     H79052   8.384   9.886   3.660  0.3018  0.4324 -1.0891
  599MOL0     H79053   8.602   9.852   3.732 -1.6253 -0.8254  0.1284
  599MOL0     H79054  10.486  10.109   4.299  2.1106  0.1281  0.1405
  599MOL0     H79055  10.683  10.058   4.173 -0.3533 -1.5087 -1.3507
  599MOL0     H79056  10.980  10.091   3.918 -1.1650 -0.5882 -0.5020
  599MOL0     H79057  11.183   9.965   3.818  0.5811  0.0777  0.2315
  599MOL0     H79058  11.289  10.081   3.410 -2.1790 -0.8019 -2.8648
  599MOL0     H79059  11.263   9.906   3.385  0.9689  1.3070 -2.0971
  599MOL0     H79060  11.459   9.841   3.431 -3.8294 -0.0637 -0.1754
  599MOL0     H79061  11.515   9.996   3.368  0.8545  1.1526  1.0680
  599MOL0     H79062  11.557   9.861   3.620 -0.9423 -0.8635  0.5919
  599MOL0     H79063  11.474  10.017   3.657  2.4929  1.7668  0.5354
  599MOL0     H79064  11.717  10.045   3.661  0.2559 -0.3883  0.4078
  599MOL0     H79065  11.712  10.001   3.485 -0.6034 -2.5378  1.3170
  599MOL0     H79066  11.570  10.416   3.508  0.9495 -0.1980 -0.4706
  599MOL0     H79067  11.043  10.092   3.429 -2.8891  0.4716 -0.5861
  599MOL0     H79068  10.846  10.183   3.528  0.9583  2.7636 -0.4321
  600MOL0     O79069   0.324   2.341   8.829 -0.1109  0.1491  0.3583
  600MOL0     C79070   0.326   2.403   8.724 -0.0540  0.5301 -0.4732
  600MOL0     O79071   0.231   2.484   8.677  0.4726  0.6077  0.4851
  600MOL0     C79072   0.110   2.478   8.734  0.1279 -0.7408  0.5911
  600MOL0     C79073  -0.005   2.421   8.672  0.1452 -0.2814  0.0498
  600MOL0     C79074  -0.132   2.418   8.735 -0.0966  0.4246 -0.6089
  600MOL0     C79075  -0.147   2.472   8.864  0.0859 -0.2819 -0.3029
  600MOL0     O79076  -0.272   2.475   8.930 -0.0221  0.3543  0.2078
  600MOL0     C79077  -0.395   2.429   8.867 -0.0795 -0.9788  0.6219
  600MOL0     C79078  -0.511   2.480   8.954 -0.3695  1.3369  0.3453
  600MOL0     C79079  -0.647   2.424   8.909 -0.2877 -0.4010  0.3218
  600MOL0     C79080  -0.755   2.484   8.991  0.6874 -0.3857 -0.0752
  600MOL0     C79081  -0.892   2.444   8.949  0.4512 -0.0104 -0.6248
  600MOL0     C79082  -0.935   2.307   9.019 -0.6547 -0.1439 -0.5198
  600MOL0     C79083  -1.075   2.271   8.977  0.6431  0.0468  0.1246
  600MOL0     C79084  -1.108   2.122   9.005 -0.4325 -0.0219 -0.3309
  600MOL0     N79085  -1.234   2.083   8.943 -0.7417  1.2791 -0.3742
  600MOL0     C79086  -1.240   2.001   8.836  1.2157  0.2023  0.1717
  600MOL0     C79087  -1.374   1.982   8.819  0.3668  0.9404  0.6871
  600MOL0     C79088  -1.436   1.892   8.719 -0.5775  0.8723  0.6137
  600MOL0     C79089  -1.550   1.812   8.783  0.0023  0.1034  0.1989
  600MOL0     C79090  -1.671   1.793   8.680 -0.2766  0.3043  0.4157
  600MOL0     C79091  -1.788   1.731   8.755 -0.1893 -0.6472 -1.0216
  600MOL0     O79092  -1.893   1.696   8.652  0.0117 -0.2899  0.4451
  600MOL0     C79093  -2.005   1.642   8.703  0.3630 -0.3379  0.2505
  600MOL0     C79094  -2.089   1.578   8.615  0.4046 -0.6505  0.0535
  600MOL0     C79095  -2.212   1.536   8.650  0.0076  0.1480  0.0354
  600MOL0     C79096  -2.258   1.547   8.779 -0.3707  0.9081 -0.1410
  600MOL0     C79097  -2.391   1.493   8.823  0.4795  0.2438  0.7344
  600MOL0     O79098  -2.431   1.514   8.948  0.0141  0.6025 -0.1044
  600MOL0     C79099  -2.561   1.472   8.968 -0.4869 -0.0482 -0.8640
  600MOL0     C79100  -2.664   1.555   8.937  0.3674 -1.0279  0.2553
  600MOL0     C79101  -2.795   1.506   8.930  0.0827 -0.9344  0.2513
  600MOL0     C79102  -2.828   1.379   8.973  0.5546  0.5193  0.1674
  600MOL0     O79103  -2.957   1.323   8.962 -0.5622 -0.2767  0.1834
  600MOL0     C79104  -3.071   1.398   8.932  0.3975 -0.4146 -0.4454
  600MOL0     C79105  -3.122   1.482   9.055  0.1737 -0.5430 -0.4520
  600MOL0     C79106  -3.239   1.409   9.125 -0.3012  0.0805  0.0881
  600MOL0     C79107  -3.196   1.296   9.215  0.4518  0.0375 -1.0808
  600MOL0     C79108  -3.293   1.257   9.324  0.2790  0.0304  0.1067
  600MOL0     C79109  -3.418   1.185   9.263  0.6478 -0.5360 -0.6801
  600MOL0     C79110  -3.538   1.159   9.360 -0.1223  0.1321  0.7581
  600MOL0     C79111  -3.663   1.119   9.276 -0.0379 -0.3612  0.0740
  600MOL0    Cl79112  -3.770   1.258   9.227 -0.3844  0.0322  0.4232
  600MOL0     C79113  -2.727   1.297   9.013  0.1964 -0.0199  0.1362
  600MOL0     C79114  -2.594   1.339   9.010 -0.0490 -0.3302  1.0620
  600MOL0     O79115  -2.455   1.431   8.739 -1.0806 -1.1647  0.1633
  600MOL0     C79116  -2.183   1.617   8.871  0.4397 -0.1479  0.1184
  600MOL0     C79117  -2.058   1.662   8.835  0.5079 -0.2933  0.1040
  600MOL0     N79118  -1.441   2.067   8.904  1.1957 -0.0839  0.1314
  600MOL0     N79119  -1.358   2.132   8.982  0.1274 -0.9978  0.0979
  600MOL0     C79120  -0.037   2.538   8.917  0.6762 -0.3047  0.1819
  600MOL0     C79121   0.086   2.540   8.854 -0.1028  0.6690 -0.4788
  600MOL0     C79122   0.442   2.386   8.637  0.2987  0.5523  0.6201
  600MOL0     C79123   0.442   2.426   8.499  0.9576  0.0232  0.6094
  600MOL0     C79124   0.550   2.393   8.416 -0.1019 -0.0873  0.5675
  600MOL0     C79125   0.665   2.323   8.463  0.0449 -0.5386  0.0444
  600MOL0     O79126   0.774   2.302   8.388  0.6822  0.0343 -0.1034
  600MOL0     C79127   0.896   2.254   8.442 -1.4294  0.0415 -0.0488
  600MOL0     C79128   0.996   2.296   8.328 -1.0624 -0.4203  0.0399
  600MOL0     C79129   0.995   2.226   8.196 -0.0870 -0.0429  0.8055
  600MOL0     C79130   1.128   2.247   8.123  0.1840  0.1030  0.3435
  600MOL0     C79131   1.242   2.181   8.192  0.5562  1.3054  0.3815
  600MOL0     C79132   1.340   2.132   8.251 -0.2157  0.8490  0.3651
  600MOL0     C79133   0.666   2.287   8.598  0.5592  0.4393 -0.1524
  600MOL0     C79134   0.553   2.315   8.680 -0.2844 -0.1008  0.4032
  600MOL0     H79135   0.002   2.392   8.567 -0.2985  0.2077 -0.1191
  600MOL0     H79136  -0.208   2.376   8.670  1.2684  0.1338 -2.0932
  600MOL0     H79137  -0.404   2.320   8.867  1.0162 -1.0737  0.7193
  600MOL0     H79138  -0.396   2.462   8.763  0.0018 -0.0110  0.9206
  600MOL0     H79139  -0.511   2.589   8.953 -2.2132  1.4083 -2.0146
  600MOL0     H79140  -0.494   2.435   9.053 -2.4210 -0.3276  0.0209
  600MOL0     H79141  -0.647   2.315   8.913 -0.9828 -0.3731  1.9278
  600MOL0     H79142  -0.654   2.454   8.804  0.4786 -1.4813 -0.0528
  600MOL0     H79143  -0.742   2.473   9.099 -0.3228  1.9466  0.3588
  600MOL0     H79144  -0.746   2.592   8.977 -0.0138 -0.4890 -1.5191
  600MOL0     H79145  -0.881   2.446   8.841  2.3631 -0.2915 -0.4688
  600MOL0     H79146  -0.961   2.522   8.983  1.4151  1.3897 -1.7851
  600MOL0     H79147  -0.922   2.314   9.127 -0.6281 -0.3764 -0.5068
  600MOL0     H79148  -0.871   2.223   8.989 -1.2266 -0.8236  0.1177
  600MOL0     H79149  -1.152   2.331   9.027 -0.0674 -0.4955 -0.2968
  600MOL0     H79150  -1.087   2.293   8.870  0.5217 -1.2709 -0.1469
  600MOL0     H79151  -1.110   2.096   9.111 -0.8339  0.2406 -0.2736
  600MOL0     H79152  -1.022   2.068   8.964  0.6451  0.5767  1.0669
  600MOL0     H79153  -1.168   1.942   8.780 -0.5359 -0.4769 -1.4793
  600MOL0     H79154  -1.361   1.819   8.686  0.1508  1.2031  1.5009
  600MOL0     H79155  -1.482   1.950   8.638 -0.0704 -0.1688 -0.4656
  600MOL0     H79156  -1.596   1.868   8.865 -0.0515  0.6124 -0.1735
  600MOL0     H79157  -1.495   1.728   8.827 -2.7606 -2.3017 -0.6178
  600MOL0     H79158  -1.705   1.886   8.633 -1.6926 -0.0244  0.7510
  600MOL0     H79159  -1.638   1.727   8.599 -1.8291 -1.3533  1.0753
  600MOL0     H79160  -1.827   1.795   8.835 -0.0139 -1.9291  0.1235
  600MOL0     H79161  -1.769   1.639   8.811 -2.5141 -0.9571 -0.6402
  600MOL0     H79162  -2.067   1.570   8.509  0.5475  2.0078 -0.1898
  600MOL0     H79163  -2.274   1.487   8.577  0.1009 -1.0606  0.7531
  600MOL0     H79164  -2.641   1.655   8.900  2.4615 -1.5104  0.0957
  600MOL0     H79165  -2.869   1.575   8.891  2.3170  1.6000  0.2306
  600MOL0     H79166  -3.146   1.322   8.908  2.4265 -1.5868 -3.6990
  600MOL0     H79167  -3.052   1.455   8.841  3.1233 -1.1878 -0.4647
  600MOL0     H79168  -3.155   1.579   9.016  1.5105  1.2751  2.5768
  600MOL0     H79169  -3.048   1.512   9.130  1.6904 -2.0231 -1.2886
  600MOL0     H79170  -3.302   1.368   9.045  1.1626 -0.8623 -0.6220
  600MOL0     H79171  -3.303   1.479   9.178 -2.1465 -0.1054 -1.7636
  600MOL0     H79172  -3.160   1.207   9.163 -0.6025 -1.3214  0.4103
  600MOL0     H79173  -3.115   1.326   9.282 -1.5234  1.4718  0.8115
  600MOL0     H79174  -3.324   1.344   9.382 -1.2931  0.2781 -1.0466
  600MOL0     H79175  -3.246   1.174   9.377 -0.8916  0.3601  1.7148
  600MOL0     H79176  -3.384   1.092   9.216  0.7036 -0.1943 -1.3411
  600MOL0     H79177  -3.472   1.237   9.183  0.2507 -0.2175 -0.2039
  600MOL0     H79178  -3.506   1.078   9.427  1.2801 -0.5448 -0.6674
  600MOL0     H79179  -3.552   1.249   9.421  0.2783 -0.9570  2.5459
  600MOL0     H79180  -3.726   1.062   9.344  0.6298  1.3773  2.2690
  600MOL0     H79181  -3.633   1.057   9.191  0.1880 -0.3969  0.1802
  600MOL0     H79182  -2.749   1.194   9.041 -2.2432  0.4562  0.1719
  600MOL0     H79183  -2.518   1.262   9.020  1.5720  0.6588 -2.1844
  600MOL0     H79184  -2.229   1.646   8.965  1.7309 -1.0898  1.0889
  600MOL0     H79185  -2.007   1.707   8.920 -0.7543  2.5484 -0.5335
  600MOL0     H79186  -0.053   2.572   9.019 -0.4331 -1.4453  0.4136
  600MOL0     H79187   0.173   2.581   8.903 -0.7121 -1.1567  2.3723
  600MOL0     H79188   0.343   2.461   8.473  0.2311 -2.0009  0.4773
  600MOL0     H79189   0.549   2.429   8.314  2.0118 -1.6218 -0.0603
  600MOL0     H79190   0.892   2.146   8.460 -1.4520 -0.5666 -3.0900
  600MOL0     H79191   0.920   2.311   8.532  0.9984  0.2593 -0.7608
  600MOL0     H79192   0.988   2.404   8.307 -0.8846 -0.3864  0.1525
  600MOL0     H79193   1.094   2.287   8.374 -0.7222  0.0970 -0.5527
  600MOL0     H79194   0.910   2.248   8.132 -0.4148 -0.7817  0.9730
  600MOL0     H79195   0.981   2.119   8.217 -1.8151  0.0984  0.5204
  600MOL0     H79196   1.121   2.194   8.027 -1.7142 -1.4513  1.2759
  600MOL0     H79197   1.151   2.354   8.118 -1.2242  0.3711 -1.2957
  600MOL0     H79198   1.422   2.088   8.304 -0.1662 -1.4812 -1.5009
  600MOL0     H79199   0.743   2.231   8.650 -0.3124  0.8123  1.6536
  600MOL0     H79200   0.552   2.296   8.787  1.8027  0.0187  0.4727
  601MOL0     O79201   7.854  10.690   9.786  0.2932 -1.1127 -0.1652
  601MOL0     C79202   7.850  10.616   9.688  0.1158  0.1064  0.5342
  601MOL0     O79203   7.957  10.568   9.617 -0.0459 -0.6907  0.0429
  601MOL0     C79204   8.089  10.582   9.662 -0.1218  0.1301  0.6138
  601MOL0     C79205   8.152  10.705   9.684  0.6326 -0.1345  0.7094
  601MOL0     C79206   8.286  10.711   9.680  0.2968  0.0663  0.2298
  601MOL0     C79207   8.373  10.603   9.663 -0.9894 -0.4701 -1.1241
  601MOL0     O79208   8.508  10.605   9.652 -1.1638  0.4694 -0.1771
  601MOL0     C79209   8.592  10.695   9.728  0.2486 -0.2101  0.0730
  601MOL0     C79210   8.682  10.621   9.827 -0.0000 -0.4759 -0.2942
  601MOL0     C79211   8.603  10.538   9.927 -0.5801 -0.2225  0.6497
  601MOL0     C79212   8.543  10.636  10.024  1.0737 -1.0355  0.2594
  601MOL0     C79213   8.480  10.556  10.135  0.0825  0.7839  0.5389
  601MOL0     C79214   8.431  10.653  10.248 -0.5586  0.5243  0.2784
  601MOL0     C79215   8.305  10.751  10.207 -0.4021  0.1295 -0.0551
  601MOL0     C79216   8.170  10.712  10.273 -0.7294  0.0615  0.0969
  601MOL0     N79217   8.111  10.579  10.234 -0.2748  0.1154 -0.0979
  601MOL0     C79218   8.047  10.563  10.117  0.3510  0.6929  0.6797
  601MOL0     C79219   8.045  10.431  10.085  0.3769 -0.7739  0.2136
  601MOL0     C79220   7.978  10.387   9.961  0.2040  0.8663 -0.2638
  601MOL0     C79221   7.842  10.329  10.003 -0.3816  0.2466 -0.2036
  601MOL0     C79222   7.736  10.419   9.972 -0.3662 -0.2928  0.0425
  601MOL0     C79223   7.603  10.375  10.037  0.0800 -0.2952  0.6771
  601MOL0     O79224   7.497  10.461   9.994  0.1111 -0.0748 -0.4175
  601MOL0     C79225   7.367  10.417   9.994  0.2912  0.8150 -0.4010
  601MOL0     C79226   7.269  10.521   9.985  0.5020  0.4459  0.0094
  601MOL0     C79227   7.129  10.493  10.003  0.5807 -0.6270  0.8618
  601MOL0     C79228   7.085  10.362  10.014  0.7224 -0.2521 -0.4269
  601MOL0     C79229   6.938  10.333  10.031 -0.7373 -0.2693 -0.0861
  601MOL0     O79230   6.862  10.414   9.963  1.0432 -0.0427  0.4283
  601MOL0     C79231   6.729  10.390   9.970  0.0261 -0.5703 -0.2610
  601MOL0     C79232   6.675  10.308   9.873 -0.0550  0.3872  0.0392
  601MOL0     C79233   6.538  10.289   9.866 -0.3330 -0.7287 -0.0625
  601MOL0     C79234   6.453  10.339   9.966  1.2608 -0.3633  0.3059
  601MOL0     O79235   6.320  10.315   9.946  0.7875  0.0546  1.0015
  601MOL0     C79236   6.224  10.356  10.053 -0.9527 -0.4563  0.0610
  601MOL0     C79237   6.189  10.505  10.038 -0.7096 -0.1106  1.0288
  601MOL0     C79238   6.116  10.532   9.904 -0.3114  1.0164  0.2129
  601MOL0     C79239   5.964  10.492   9.907 -0.4639 -0.2488 -0.7302
  601MOL0     C79240   5.910  10.471   9.761  0.5579 -0.3736 -0.1910
  601MOL0     C79241   5.916  10.592   9.666  0.4037 -0.4002 -0.0436
  601MOL0     C79242   5.851  10.557   9.534 -0.2668 -0.5872  0.2712
  601MOL0     C79243   5.902  10.659   9.420  0.1414 -0.3047 -0.0068
  601MOL0    Cl79244   6.063  10.616   9.362 -0.3937  0.2473 -0.1484
  601MOL0     C79245   6.507  10.424  10.069  0.0321 -0.1517 -0.0538
  601MOL0     C79246   6.641  10.460  10.060 -0.2894  0.4207 -0.0895
  601MOL0     O79247   6.904  10.233  10.100  0.6973  0.8575  0.6986
  601MOL0     C79248   7.173  10.260  10.020  0.0134 -0.6919 -0.5869
  601MOL0     C79249   7.309  10.289  10.014 -0.7058  0.1590  0.0611
  601MOL0     N79250   8.106  10.365  10.190 -0.3477  0.4663  0.3755
  601MOL0     N79251   8.150  10.455  10.277 -0.3934 -0.6761 -0.1832
  601MOL0     C79252   8.306  10.481   9.650  0.8009  0.0162  0.2785
  601MOL0     C79253   8.166  10.467   9.646  0.1945 -0.7081 -0.2290
  601MOL0     C79254   7.715  10.567   9.648  0.5110  0.6050  0.3681
  601MOL0     C79255   7.705  10.463   9.549  0.1708  1.3010 -0.0231
  601MOL0     C79256   7.568  10.414   9.522 -0.7015  0.2086  1.0786
  601MOL0     C79257   7.454  10.466   9.584 -0.0529  0.2466 -0.1970
  601MOL0     O79258   7.342  10.397   9.563 -0.3669  0.1148 -0.3529
  601MOL0     C79259   7.229  10.442   9.635 -0.8979  0.2349  0.5430
  601MOL0     C79260   7.108  10.350   9.597 -0.3560 -1.1272  0.0996
  601MOL0     C79261   7.051  10.384   9.460  0.2608  0.3024  0.3258
  601MOL0     C79262   6.965  10.281   9.391  0.9453  0.4331 -0.0717
  601MOL0     C79263   6.836  10.251   9.457  0.1180  0.0070 -0.7047
  601MOL0     C79264   6.721  10.236   9.506  0.0785 -0.0228 -0.0921
  601MOL0     C79265   7.471  10.584   9.657 -0.2185 -0.0549  0.3965
  601MOL0     C79266   7.595  10.622   9.697 -0.7831 -0.8043  0.1589
  601MOL0     H79267   8.090  10.793   9.699  2.2663  1.2114 -0.1661
  601MOL0     H79268   8.320  10.814   9.690 -1.8948  0.7107  2.0435
  601MOL0     H79269   8.533  10.767   9.785 -0.5348  0.9497 -2.0605
  601MOL0     H79270   8.655  10.749   9.656 -1.0294 -0.6471 -1.4354
  601MOL0     H79271   8.740  10.701   9.874 -1.1238 -0.3434  0.9082
  601MOL0     H79272   8.753  10.563   9.767  2.3116  0.3971  1.4397
  601MOL0     H79273   8.679  10.476   9.975  0.0590 -1.8380 -2.2395
  601MOL0     H79274   8.539  10.471   9.869  2.8953 -2.1564 -1.2529
  601MOL0     H79275   8.618  10.706  10.060 -2.5817  1.8421  3.1091
  601MOL0     H79276   8.468  10.694   9.969  2.8478  1.5537  0.3864
  601MOL0     H79277   8.563  10.497  10.173  0.3086  1.3824  1.0026
  601MOL0     H79278   8.391  10.498  10.108 -0.0672  1.4347 -0.4332
  601MOL0     H79279   8.514  10.717  10.280 -1.4287  1.8246 -0.0097
  601MOL0     H79280   8.403  10.600  10.340 -0.5120  0.3698  0.2066
  601MOL0     H79281   8.324  10.854  10.239 -0.9079  0.4041 -0.6254
  601MOL0     H79282   8.301  10.750  10.098 -0.6905 -0.8159 -0.0441
  601MOL0     H79283   8.099  10.789  10.242  0.2003  1.9337  2.3837
  601MOL0     H79284   8.169  10.713  10.382  0.4636 -1.3088  0.1561
  601MOL0     H79285   8.008  10.634  10.045  0.9166 -0.0394 -0.3731
  601MOL0     H79286   8.034  10.309   9.907 -1.4612 -1.5459  1.2747
  601MOL0     H79287   7.961  10.469   9.891 -1.6314  0.1714 -0.6855
  601MOL0     H79288   7.839  10.318  10.112  2.5015 -0.8076 -0.1429
  601MOL0     H79289   7.829  10.230   9.959  2.1448  0.6254 -1.9934
  601MOL0     H79290   7.765  10.518  10.010  2.7702 -0.1926 -2.2121
  601MOL0     H79291   7.731  10.427   9.863 -3.5536  2.3283  0.2412
  601MOL0     H79292   7.612  10.378  10.146 -2.3262  1.1401  0.9077
  601MOL0     H79293   7.579  10.271  10.013  0.6510 -0.1412 -0.6424
  601MOL0     H79294   7.299  10.625   9.977 -0.5478  0.6904 -1.0948
  601MOL0     H79295   7.069  10.581  10.026  1.0099 -0.1676  0.2360
  601MOL0     H79296   6.743  10.264   9.801  0.1541  0.4988  0.1682
  601MOL0     H79297   6.512  10.214   9.790  1.3378  0.2962 -1.7227
  601MOL0     H79298   6.273  10.337  10.149 -2.6993  2.5425  1.6999
  601MOL0     H79299   6.134  10.294  10.061 -0.7304 -1.0531 -1.6345
  601MOL0     H79300   6.284  10.560  10.038  0.4774 -2.0550  0.1337
  601MOL0     H79301   6.126  10.542  10.119 -0.3318  3.4772 -0.1591
  601MOL0     H79302   6.160  10.466   9.829 -1.7106  0.1515  0.1013
  601MOL0     H79303   6.128  10.638   9.883  0.9066  1.3718  2.4713
  601MOL0     H79304   5.951  10.400   9.965 -0.8921 -0.1443 -0.6626
  601MOL0     H79305   5.898  10.565   9.954 -0.6342 -0.9949  0.2102
  601MOL0     H79306   5.807  10.434   9.773  1.0893 -1.9242 -0.1269
  601MOL0     H79307   5.972  10.390   9.721  1.5069  1.5849 -3.0013
  601MOL0     H79308   6.019  10.624   9.647 -0.0954  0.5179 -1.3540
  601MOL0     H79309   5.864  10.676   9.714  1.3838  0.8841 -1.1309
  601MOL0     H79310   5.871  10.454   9.502 -0.9880 -0.3398 -1.0245
  601MOL0     H79311   5.744  10.574   9.544 -0.3177 -1.0054  0.4575
  601MOL0     H79312   5.907  10.763   9.453 -0.7283 -0.1888 -0.2035
  601MOL0     H79313   5.830  10.648   9.338  1.5166  0.2418 -1.3475
  601MOL0     H79314   6.443  10.463  10.148  1.6027  1.2204  0.6038
  601MOL0     H79315   6.680  10.533  10.130  2.5895 -0.5895 -0.5358
  601MOL0     H79316   7.142  10.157  10.033 -0.2809 -0.4611  0.6703
  601MOL0     H79317   7.377  10.210  10.041 -0.1400 -0.3750 -2.6967
  601MOL0     H79318   8.366  10.395   9.622  1.7706  0.5836  0.5417
  601MOL0     H79319   8.117  10.378   9.606 -0.8093 -0.1098 -0.3748
  601MOL0     H79320   7.789  10.418   9.497  1.1391  1.3463  1.4414
  601MOL0     H79321   7.574  10.325   9.460  1.5335 -0.7036  2.5125
  601MOL0     H79322   7.202  10.545   9.610 -0.0850  0.0836 -1.0946
  601MOL0     H79323   7.251  10.429   9.741  0.1817 -0.7729  0.2158
  601MOL0     H79324   7.138  10.245   9.607  0.3662 -0.8350  1.2047
  601MOL0     H79325   7.029  10.362   9.672 -0.4408  0.4576 -0.2004
  601MOL0     H79326   7.127  10.408   9.385 -0.4800  0.3729 -0.4159
  601MOL0     H79327   6.997  10.477   9.479  2.9626  1.7847  1.3037
  601MOL0     H79328   6.942  10.304   9.286  1.5403  1.2370 -0.0347
  601MOL0     H79329   7.025  10.190   9.384  0.5515  0.1020  0.7687
  601MOL0     H79330   6.621  10.239   9.543  0.1905  4.0339  0.4176
  601MOL0     H79331   7.392  10.648   9.695 -0.5502  0.1229 -0.5808
  601MOL0     H79332   7.609  10.713   9.755 -0.1895  0.2687 -1.5804
  602MOL0     O79333   1.927   1.265   1.265  0.1243  0.2498  0.8091
  602MOL0     C79334   1.908   1.391   1.253  0.0574  0.0327 -0.2976
  602MOL0     O79335   1.793   1.453   1.273 -0.0737 -0.2824  0.6987
  602MOL0     C79336   1.671   1.385   1.284 -0.5134  0.1251 -0.9034
  602MOL0     C79337   1.641   1.240   1.276 -0.4879 -0.5453 -0.6590
  602MOL0     C79338   1.514   1.193   1.262 -0.7708  0.0706 -0.0365
  602MOL0     C79339   1.403   1.272   1.279  0.3748 -0.0721 -0.8824
  602MOL0     O79340   1.272   1.236   1.272  0.1026 -0.3866 -0.1649
  602MOL0     C79341   1.242   1.102   1.223 -0.2155 -0.5554 -0.6141
  602MOL0     C79342   1.102   1.052   1.256  0.2136  0.0160  0.5367
  602MOL0     C79343   0.995   1.141   1.188  1.2175  0.0170  0.2481
  602MOL0     C79344   0.860   1.077   1.168 -0.4103 -0.2720 -0.1663
  602MOL0     C79345   0.766   1.194   1.132 -1.0071  0.2225  0.2118
  602MOL0     C79346   0.629   1.144   1.092  0.5408 -0.5349  0.8167
  602MOL0     C79347   0.545   1.257   1.034  0.2718  0.7169  0.0502
  602MOL0     C79348   0.418   1.187   0.988  0.4603  0.2871 -0.9643
  602MOL0     N79349   0.322   1.150   1.095  0.2596  0.2733  0.5591
  602MOL0     C79350   0.243   1.231   1.172  0.2101 -0.0157  0.8872
  602MOL0     C79351   0.163   1.146   1.240  0.2033 -0.0209 -1.0149
  602MOL0     C79352   0.046   1.170   1.336  1.0239 -0.0773  0.0454
  602MOL0     C79353  -0.076   1.161   1.255  0.1684 -1.6126  0.1227
  602MOL0     C79354  -0.104   1.287   1.164 -0.0373  1.0732  0.1966
  602MOL0     C79355  -0.242   1.275   1.099 -0.3349 -0.3108  0.1787
  602MOL0     O79356  -0.345   1.276   1.192 -0.9022 -0.6492  0.4862
  602MOL0     C79357  -0.474   1.314   1.148 -0.1327  0.6546  0.2360
  602MOL0     C79358  -0.532   1.293   1.021  0.3219  0.0598 -0.2966
  602MOL0     C79359  -0.655   1.350   0.990  0.2635 -0.0482 -0.1202
  602MOL0     C79360  -0.727   1.419   1.093  0.6177 -0.3206 -0.2720
  602MOL0     C79361  -0.868   1.464   1.057 -0.0886 -0.0760  0.0216
  602MOL0     O79362  -0.927   1.530   1.159 -0.8013 -0.3482 -0.2305
  602MOL0     C79363  -1.064   1.555   1.148  0.2861 -0.0423 -0.1492
  602MOL0     C79364  -1.153   1.450   1.127  1.4873  0.2210  0.4487
  602MOL0     C79365  -1.290   1.478   1.134 -0.5463  0.4075 -1.0419
  602MOL0     C79366  -1.337   1.603   1.158  0.7723  0.0284  0.0879
  602MOL0     O79367  -1.476   1.625   1.178 -0.1082 -0.7313 -0.1991
  602MOL0     C79368  -1.525   1.757   1.141 -0.2233  0.4190  0.4777
  602MOL0     C79369  -1.670   1.753   1.112  0.5265  0.2575  0.4099
  602MOL0     C79370  -1.758   1.721   1.228  0.5532 -0.8663  0.6132
  602MOL0     C79371  -1.902   1.738   1.174  0.7802 -0.6025 -0.3192
  602MOL0     C79372  -2.004   1.729   1.285  0.4327  0.5060  0.3104
  602MOL0     C79373  -2.150   1.786   1.241  0.3653 -0.3798  0.0833
  602MOL0     C79374  -2.243   1.676   1.190  0.2942  0.1222 -0.2678
  602MOL0     C79375  -2.189   1.598   1.068 -0.1590 -0.0802 -0.2417
  602MOL0    Cl79376  -2.312   1.485   1.005  0.0449 -0.6522  0.1883
  602MOL0     C79377  -1.243   1.707   1.183  0.6434 -0.0379  0.2124
  602MOL0     C79378  -1.107   1.684   1.173 -0.2467  0.1024 -0.3941
  602MOL0     O79379  -0.920   1.420   0.959 -0.2901  0.6828 -0.3780
  602MOL0     C79380  -0.671   1.444   1.218  0.1275 -0.0161  0.3134
  602MOL0     C79381  -0.546   1.388   1.241 -0.0830 -0.0228  0.6076
  602MOL0     N79382   0.208   1.015   1.229 -0.4643  0.0790 -0.1541
  602MOL0     N79383   0.308   1.024   1.141 -0.0752 -0.0072  0.6419
  602MOL0     C79384   1.426   1.410   1.299  0.1284 -0.2639 -0.8078
  602MOL0     C79385   1.559   1.461   1.296 -0.6002 -0.7264  0.3668
  602MOL0     C79386   2.012   1.481   1.208 -0.2360 -0.1460  0.0697
  602MOL0     C79387   2.130   1.424   1.161 -0.2374 -0.1938  1.1175
  602MOL0     C79388   2.238   1.501   1.126 -0.0679 -0.2354  0.2615
  602MOL0     C79389   2.233   1.634   1.131 -0.4212 -0.2415  0.3160
  602MOL0     O79390   2.332   1.725   1.115 -0.0813 -0.1660 -0.7098
  602MOL0     C79391   2.464   1.669   1.080  0.1206 -0.6527 -0.1908
  602MOL0     C79392   2.552   1.789   1.045  0.1012 -0.4512 -0.3335
  602MOL0     C79393   2.693   1.742   1.017 -0.6537 -0.0468 -0.7254
  602MOL0     C79394   2.789   1.741   1.135 -0.3169  0.3092  0.1594
  602MOL0     C79395   2.902   1.645   1.119  0.4520  0.0263 -0.5192
  602MOL0     C79396   3.009   1.591   1.092 -0.4916 -0.4396 -1.0137
  602MOL0     C79397   2.118   1.697   1.173  0.1934 -0.0014 -0.4125
  602MOL0     C79398   2.009   1.614   1.209  0.0506  0.3392  0.5091
  602MOL0     H79399   1.732   1.180   1.267  2.7768  3.7642  0.2659
  602MOL0     H79400   1.499   1.093   1.223 -1.6587  0.2258 -0.1227
  602MOL0     H79401   1.319   1.040   1.270  0.7975  0.6057 -0.7047
  602MOL0     H79402   1.244   1.106   1.113 -0.6910 -0.4744 -0.6203
  602MOL0     H79403   1.100   1.050   1.365  1.1428  0.6082  0.5736
  602MOL0     H79404   1.086   0.951   1.219 -0.4575 -0.1200  1.1731
  602MOL0     H79405   1.022   1.149   1.082 -1.6795 -0.9232 -0.6497
  602MOL0     H79406   0.991   1.227   1.255  0.3796 -0.9784  1.5233
  602MOL0     H79407   0.871   1.007   1.086  0.6537 -1.4996  0.9755
  602MOL0     H79408   0.826   1.035   1.263 -1.1326  0.6879  0.0221
  602MOL0     H79409   0.809   1.242   1.043 -2.5997  1.3852  0.0099
  602MOL0     H79410   0.758   1.273   1.208  1.1808  0.4186  0.2995
  602MOL0     H79411   0.580   1.110   1.184  0.7537  3.1108  2.4473
  602MOL0     H79412   0.654   1.061   1.025  3.8147  0.2569  0.8717
  602MOL0     H79413   0.527   1.332   1.112 -1.6839 -0.1593  0.5128
  602MOL0     H79414   0.601   1.309   0.956  0.6969 -0.0644 -0.1795
  602MOL0     H79415   0.437   1.096   0.930 -0.3186  0.0720 -0.8890
  602MOL0     H79416   0.368   1.256   0.919  1.8428  1.7317 -0.5845
  602MOL0     H79417   0.242   1.340   1.177 -0.1379 -0.0007  0.5111
  602MOL0     H79418   0.059   1.264   1.390 -1.1983  0.5157 -0.3240
  602MOL0     H79419   0.044   1.092   1.413  1.0534  0.8919  1.0504
  602MOL0     H79420  -0.153   1.150   1.331 -0.6173  4.9152  0.8755
  602MOL0     H79421  -0.074   1.070   1.194  2.1909 -1.6342  0.1401
  602MOL0     H79422  -0.114   1.379   1.222 -1.6414  1.1166 -0.0830
  602MOL0     H79423  -0.027   1.293   1.087 -0.0698  0.1916  0.0860
  602MOL0     H79424  -0.244   1.181   1.044 -0.2707  1.4044 -3.0045
  602MOL0     H79425  -0.250   1.362   1.032  2.4116  0.3378  0.5955
  602MOL0     H79426  -0.480   1.244   0.939 -1.1373  0.6376 -1.6208
  602MOL0     H79427  -0.699   1.336   0.892  0.2768  1.1971 -0.3200
  602MOL0     H79428  -1.116   1.349   1.111  1.0423  0.0498  0.4816
  602MOL0     H79429  -1.360   1.396   1.124 -1.1646  0.6916  0.5590
  602MOL0     H79430  -1.470   1.805   1.060 -1.0308  2.0788  0.8615
  602MOL0     H79431  -1.517   1.824   1.227  1.1482  0.2594  0.4835
  602MOL0     H79432  -1.685   1.679   1.033 -0.2903  1.2252 -0.3579
  602MOL0     H79433  -1.694   1.853   1.075  0.0246 -0.2537 -0.6876
  602MOL0     H79434  -1.753   1.812   1.288 -1.4797  0.1476 -0.6400
  602MOL0     H79435  -1.749   1.628   1.284  0.7800 -1.9654 -1.1760
  602MOL0     H79436  -1.920   1.833   1.124  1.1095 -0.3110  0.1091
  602MOL0     H79437  -1.927   1.661   1.101 -0.0197 -1.2231  0.5801
  602MOL0     H79438  -1.976   1.789   1.372 -0.5616 -0.1015  1.0745
  602MOL0     H79439  -2.000   1.626   1.322  4.5618 -0.1427 -1.2733
  602MOL0     H79440  -2.147   1.851   1.153  1.2481 -2.3623 -1.4070
  602MOL0     H79441  -2.187   1.840   1.329 -1.3152 -2.5608  0.8034
  602MOL0     H79442  -2.269   1.622   1.282 -0.4552 -0.9824 -1.1017
  602MOL0     H79443  -2.341   1.719   1.167  0.7555  1.2560 -0.2015
  602MOL0     H79444  -2.098   1.547   1.101  0.8262  1.0648 -1.1461
  602MOL0     H79445  -2.159   1.668   0.990  2.5727 -0.5636  0.2847
  602MOL0     H79446  -1.273   1.806   1.214 -1.1652  0.3471 -2.4936
  602MOL0     H79447  -1.036   1.762   1.199 -1.3908  0.5818  1.4615
  602MOL0     H79448  -0.734   1.495   1.291  0.4637  0.9961 -0.0839
  602MOL0     H79449  -0.500   1.406   1.338 -0.7904 -1.5915  1.2723
  602MOL0     H79450   1.349   1.486   1.299  1.0797  0.7305 -0.7724
  602MOL0     H79451   1.574   1.568   1.295  0.6141 -0.8663  1.2528
  602MOL0     H79452   2.140   1.316   1.162  0.8343 -0.1133  2.3608
  602MOL0     H79453   2.327   1.442   1.106  0.9967 -0.0392  3.7655
  602MOL0     H79454   2.453   1.613   0.986 -0.6262 -4.2696  1.8872
  602MOL0     H79455   2.498   1.601   1.159  0.4523 -0.1770  0.0785
  602MOL0     H79456   2.519   1.840   0.954  0.0752  1.1207  0.5388
  602MOL0     H79457   2.549   1.861   1.127  0.5516 -1.0229  0.2036
  602MOL0     H79458   2.736   1.799   0.934 -0.7299  2.2438  0.7101
  602MOL0     H79459   2.682   1.645   0.970  2.1041  0.0922 -1.7969
  602MOL0     H79460   2.824   1.843   1.154 -0.5850  0.4589 -0.1404
  602MOL0     H79461   2.741   1.697   1.224 -1.4586 -2.8069 -1.8143
  602MOL0     H79462   3.101   1.543   1.065  0.3784  0.3552  0.3719
  602MOL0     H79463   2.121   1.805   1.178 -1.7658  0.0323  0.8715
  602MOL0     H79464   1.917   1.665   1.238 -1.1063 -2.1587  1.5000
  603MOL0     O79465   9.817   7.131   1.091  0.3534  0.2893  0.3554
  603MOL0     C79466   9.921   7.193   1.132 -0.1459  0.1187 -0.3118
  603MOL0     O79467   9.921   7.277   1.232  0.7243 -0.1084  0.0264
  603MOL0     C79468   9.803   7.284   1.310 -0.3323 -0.1506  0.0018
  603MOL0     C79469   9.706   7.381   1.276  0.2417 -0.2139  0.0762
  603MOL0     C79470   9.592   7.409   1.359 -0.1784 -0.2192  0.5231
  603MOL0     C79471   9.579   7.325   1.478 -0.9237 -0.0078  1.2012
  603MOL0     O79472   9.476   7.336   1.563  0.2381  0.1205 -0.2147
  603MOL0     C79473   9.388   7.442   1.560  0.7283  0.2655 -0.1403
  603MOL0     C79474   9.446   7.580   1.595 -0.1405  0.0235  0.3753
  603MOL0     C79475   9.484   7.599   1.738 -0.4327  0.1152  0.1181
  603MOL0     C79476   9.590   7.712   1.757 -0.4008 -0.4242 -0.2583
  603MOL0     C79477   9.661   7.713   1.894 -0.1505 -0.3417  0.5069
  603MOL0     C79478   9.775   7.816   1.916 -0.3654 -0.5179  0.1042
  603MOL0     C79479   9.900   7.770   1.834 -0.4110 -0.0957 -0.2515
  603MOL0     C79480  10.003   7.867   1.873 -0.1522 -0.2982 -0.1062
  603MOL0     N79481  10.129   7.807   1.832 -0.5362  0.2567 -0.0164
  603MOL0     C79482  10.159   7.733   1.725 -0.4368  0.3582  0.1868
  603MOL0     C79483  10.294   7.737   1.723  0.3311  0.1136  0.4472
  603MOL0     C79484  10.375   7.665   1.610  0.2448  0.6417  0.1218
  603MOL0     C79485  10.471   7.563   1.661  0.5828  0.2165  0.0548
  603MOL0     C79486  10.416   7.444   1.739 -0.5246 -1.0766  0.7739
  603MOL0     C79487  10.304   7.365   1.672  0.3746  0.6356 -0.7014
  603MOL0     O79488  10.187   7.450   1.678 -0.1067 -0.1452 -0.3507
  603MOL0     C79489  10.079   7.400   1.745  0.6041 -0.8207 -1.1397
  603MOL0     C79490  10.093   7.319   1.856  0.3779  0.2553 -0.0801
  603MOL0     C79491   9.981   7.266   1.909  1.4806  0.0485  0.4225
  603MOL0     C79492   9.847   7.287   1.855 -0.4059  0.1685 -0.1187
  603MOL0     C79493   9.720   7.240   1.915  0.0435  0.0915  0.1520
  603MOL0     O79494   9.610   7.249   1.837  0.4600 -0.1284 -0.3854
  603MOL0     C79495   9.486   7.229   1.891  0.0511  0.0832  0.8390
  603MOL0     C79496   9.439   7.281   2.015  1.0965 -0.9129 -0.6653
  603MOL0     C79497   9.309   7.273   2.065 -0.3180 -1.0201 -0.8589
  603MOL0     C79498   9.221   7.197   1.988 -0.5929 -0.3625  0.7370
  603MOL0     O79499   9.091   7.165   2.026  0.3003 -0.4407 -0.3822
  603MOL0     C79500   9.002   7.268   2.080 -0.0293 -0.7892  0.7799
  603MOL0     C79501   8.938   7.347   1.968  0.1964  0.5394 -0.5155
  603MOL0     C79502   8.838   7.271   1.879 -0.4975 -0.9457  0.3709
  603MOL0     C79503   8.755   7.169   1.955 -0.1415 -0.2223  0.1055
  603MOL0     C79504   8.650   7.230   2.046 -0.8224 -0.6575 -1.0278
  603MOL0     C79505   8.541   7.129   2.081 -0.5796 -0.2055 -0.2185
  603MOL0     C79506   8.461   7.192   2.194 -0.9706  0.2669 -0.1624
  603MOL0     C79507   8.358   7.293   2.150  0.1052  0.6970  0.9774
  603MOL0    Cl79508   8.239   7.200   2.041 -0.0424 -0.4301 -0.0625
  603MOL0     C79509   9.259   7.138   1.866 -0.4408  0.3157 -0.1258
  603MOL0     C79510   9.386   7.167   1.812 -1.1724  0.1362  0.7443
  603MOL0     O79511   9.727   7.210   2.035 -0.1950 -0.3962 -0.2161
  603MOL0     C79512   9.841   7.379   1.752 -0.0692  0.0411 -0.1759
  603MOL0     C79513   9.954   7.440   1.697 -0.2317 -0.0940  0.4745
  603MOL0     N79514  10.350   7.796   1.831  0.0065 -0.0476  0.6262
  603MOL0     N79515  10.243   7.850   1.894 -0.4052  0.5086  0.5178
  603MOL0     C79516   9.680   7.223   1.509 -0.3674 -0.9070  0.1428
  603MOL0     C79517   9.787   7.199   1.421 -0.2005 -0.8866  0.1621
  603MOL0     C79518  10.041   7.181   1.051 -1.2208  0.5790 -0.2270
  603MOL0     C79519  10.044   7.114   0.926 -0.7192  0.4685 -0.2841
  603MOL0     C79520  10.153   7.130   0.836  0.2129 -0.1541 -0.7588
  603MOL0     C79521  10.274   7.193   0.874  0.4423 -0.4857  0.2193
  603MOL0     O79522  10.390   7.199   0.800 -0.4145  0.3856  0.0434
  603MOL0     C79523  10.397   7.104   0.686  0.2922 -0.1740  0.0115
  603MOL0     C79524  10.538   7.106   0.624  0.7451 -0.9921  0.1776
  603MOL0     C79525  10.650   7.070   0.717  0.4949 -0.0144 -0.8052
  603MOL0     C79526  10.786   7.065   0.642 -0.5114 -0.1185 -0.8381
  603MOL0     C79527  10.791   6.952   0.542 -0.4602 -1.6268 -0.1641
  603MOL0     C79528  10.781   6.866   0.463 -0.8668  0.3611 -0.7136
  603MOL0     C79529  10.265   7.268   0.999 -0.1593  0.6480 -0.4484
  603MOL0     C79530  10.159   7.253   1.087 -0.3578  0.3625  0.4397
  603MOL0     H79531   9.734   7.455   1.201 -1.6756  0.3468 -0.1498
  603MOL0     H79532   9.535   7.493   1.323  0.6364 -1.3025 -3.8210
  603MOL0     H79533   9.314   7.422   1.638  0.3382  1.6978 -0.1095
  603MOL0     H79534   9.337   7.440   1.463  0.3982 -1.2515  0.0444
  603MOL0     H79535   9.368   7.655   1.586  0.2764  0.4770  0.5045
  603MOL0     H79536   9.532   7.604   1.531 -0.2785 -0.8903 -0.1713
  603MOL0     H79537   9.530   7.509   1.779 -0.4557  0.5093  1.0185
  603MOL0     H79538   9.398   7.626   1.799 -0.3537  0.3630  0.1232
  603MOL0     H79539   9.666   7.713   1.678  0.0529 -0.9587  0.1667
  603MOL0     H79540   9.537   7.808   1.747 -2.6458 -1.1328  3.2401
  603MOL0     H79541   9.707   7.617   1.921  1.7517  0.5520  0.5432
  603MOL0     H79542   9.586   7.729   1.972 -0.6735  2.2472 -0.4363
  603MOL0     H79543   9.797   7.809   2.023  0.1234 -2.0478 -0.0745
  603MOL0     H79544   9.749   7.919   1.889  3.4064  0.8037  0.9685
  603MOL0     H79545   9.926   7.668   1.863  0.4033 -0.0281 -0.7254
  603MOL0     H79546   9.884   7.767   1.726 -0.6383  0.5788 -0.2415
  603MOL0     H79547  10.004   7.873   1.982 -0.8443 -1.7843  0.0013
  603MOL0     H79548   9.984   7.958   1.815  0.3301 -0.6321 -0.8115
  603MOL0     H79549  10.096   7.701   1.642  2.5558  0.0939 -2.1395
  603MOL0     H79550  10.437   7.749   1.577 -0.7218  1.5713  0.5939
  603MOL0     H79551  10.314   7.628   1.527  0.9531 -1.1981  0.3891
  603MOL0     H79552  10.544   7.616   1.723  1.0711  1.0691 -1.2111
  603MOL0     H79553  10.532   7.519   1.581  3.2885  1.0346  1.5411
  603MOL0     H79554  10.496   7.371   1.752 -1.2668 -1.8986  0.8650
  603MOL0     H79555  10.387   7.457   1.844  1.7456 -2.2533  1.6126
  603MOL0     H79556  10.296   7.266   1.718 -0.8968  0.4853 -1.1943
  603MOL0     H79557  10.332   7.343   1.568  0.3208 -1.2779 -0.3463
  603MOL0     H79558  10.187   7.300   1.906 -0.2562  1.0665  1.4924
  603MOL0     H79559  10.005   7.193   1.985  3.2564 -1.4003 -1.4198
  603MOL0     H79560   9.512   7.335   2.074  0.7433  0.5572 -1.5250
  603MOL0     H79561   9.276   7.322   2.155  0.1531 -2.6256  0.2276
  603MOL0     H79562   9.059   7.334   2.146 -0.0533  0.1543 -0.1156
  603MOL0     H79563   8.923   7.226   2.144 -1.1650  1.9413  1.3257
  603MOL0     H79564   9.016   7.399   1.911  0.7232  1.0601  0.6382
  603MOL0     H79565   8.889   7.430   2.021  0.7392  0.6059 -0.1093
  603MOL0     H79566   8.895   7.225   1.797  3.7066  2.7109  0.8705
  603MOL0     H79567   8.765   7.341   1.839 -1.3650 -1.4125  1.0969
  603MOL0     H79568   8.705   7.100   1.886 -1.7697 -1.6177  2.5334
  603MOL0     H79569   8.818   7.097   2.009  0.7093 -1.3063 -2.2163
  603MOL0     H79570   8.598   7.316   2.003  0.3176  0.4345 -0.2915
  603MOL0     H79571   8.700   7.258   2.139 -0.5561 -2.8577 -0.4474
  603MOL0     H79572   8.579   7.037   2.127 -0.2649  0.4994  0.9882
  603MOL0     H79573   8.490   7.102   1.989 -1.9574  2.8030 -0.4366
  603MOL0     H79574   8.399   7.119   2.248 -2.7992  2.5403  1.0081
  603MOL0     H79575   8.523   7.245   2.266 -1.7376 -0.9219  1.4326
  603MOL0     H79576   8.408   7.378   2.103  1.5579  0.2433  1.6342
  603MOL0     H79577   8.306   7.324   2.241  0.2813  1.3858  0.8450
  603MOL0     H79578   9.192   7.073   1.811 -0.9639  0.6841  0.0680
  603MOL0     H79579   9.407   7.135   1.711  1.1487 -0.0955  1.2388
  603MOL0     H79580   9.743   7.411   1.718  0.6939  0.9190 -1.6151
  603MOL0     H79581   9.964   7.516   1.620  0.3858 -1.4640 -0.8544
  603MOL0     H79582   9.668   7.162   1.598 -1.5823  1.8572  2.0022
  603MOL0     H79583   9.861   7.126   1.451 -2.4990 -2.7139  1.8443
  603MOL0     H79584   9.960   7.048   0.908 -0.9828  1.2663 -2.2226
  603MOL0     H79585  10.145   7.073   0.744  0.6256 -0.2023 -0.7659
  603MOL0     H79586  10.320   7.128   0.613 -0.4439  0.8134  1.0624
  603MOL0     H79587  10.367   7.003   0.714 -0.7590  0.5742  1.8069
  603MOL0     H79588  10.533   7.047   0.531  1.1369 -0.7681  0.0099
  603MOL0     H79589  10.554   7.211   0.598 -0.5576 -0.4644  1.3749
  603MOL0     H79590  10.618   6.978   0.766  1.1597 -0.6977 -1.6082
  603MOL0     H79591  10.665   7.140   0.800 -1.0602 -2.0358  1.3149
  603MOL0     H79592  10.822   7.165   0.616 -1.4934  0.2318 -0.8906
  603MOL0     H79593  10.859   7.038   0.719 -2.7344 -0.5463  1.2446
  603MOL0     H79594  10.784   6.773   0.409  1.3607 -0.0037 -0.0671
  603MOL0     H79595  10.351   7.327   1.027  0.6605 -0.5056 -0.4738
  603MOL0     H79596  10.168   7.320   1.171 -0.3824 -0.2827  0.9623
  604MOL0     O79597   8.022   3.107   0.321 -0.2684 -0.2396  0.2092
  604MOL0     C79598   8.104   3.197   0.300  0.0645  0.7354  0.0209
  604MOL0     O79599   8.110   3.318   0.360 -0.1462  0.4230 -0.1625
  604MOL0     C79600   8.028   3.370   0.452  0.6998 -0.6270  0.2668
  604MOL0     C79601   7.903   3.316   0.496 -0.8934 -0.5435  0.4877
  604MOL0     C79602   7.830   3.383   0.594 -0.1506  0.2275 -0.4175
  604MOL0     C79603   7.877   3.504   0.653  0.6326  1.4159 -0.4189
  604MOL0     O79604   7.795   3.554   0.755  0.5229 -0.4372  0.6227
  604MOL0     C79605   7.773   3.695   0.748  1.7265 -0.1630  0.2936
  604MOL0     C79606   7.641   3.724   0.810  0.2030 -0.1202  0.1324
  604MOL0     C79607   7.635   3.688   0.959 -0.3801 -0.0423 -0.8947
  604MOL0     C79608   7.509   3.733   1.035 -0.1699  0.0158  0.3691
  604MOL0     C79609   7.506   3.706   1.189 -0.2218 -0.5228 -0.1227
  604MOL0     C79610   7.451   3.567   1.222  0.0524  0.5538  0.5575
  604MOL0     C79611   7.473   3.543   1.379  0.1064  0.0233  0.4041
  604MOL0     C79612   7.470   3.396   1.402 -0.0674 -0.3821 -0.7127
  604MOL0     N79613   7.343   3.333   1.357 -0.5473 -0.0019  0.4265
  604MOL0     C79614   7.219   3.383   1.377  0.5091 -0.7147  0.2130
  604MOL0     C79615   7.139   3.306   1.301  0.1137  1.4993  0.3655
  604MOL0     C79616   6.989   3.317   1.313 -1.0166  0.1128  0.5312
  604MOL0     C79617   6.930   3.193   1.382  0.1750  0.5579  0.2611
  604MOL0     C79618   6.796   3.226   1.446  0.0307 -0.0515 -0.0312
  604MOL0     C79619   6.690   3.117   1.432 -0.2232 -0.1751  0.0360
  604MOL0     O79620   6.657   3.075   1.298 -0.0421 -0.2640 -1.1670
  604MOL0     C79621   6.529   3.091   1.250 -0.3458 -0.4336  0.3186
  604MOL0     C79622   6.484   2.988   1.165 -0.5284 -0.5079  0.4570
  604MOL0     C79623   6.349   2.990   1.126  0.5440 -0.5365 -0.5742
  604MOL0     C79624   6.258   3.090   1.176 -0.5499  0.0733 -1.4474
  604MOL0     C79625   6.118   3.088   1.131 -0.1450  0.6137 -0.1706
  604MOL0     O79626   6.070   2.982   1.065  0.4758  0.2378  0.0196
  604MOL0     C79627   5.944   2.970   1.009  0.1819  0.4055  0.8798
  604MOL0     C79628   5.838   3.059   1.012  0.8500 -0.2784 -0.4202
  604MOL0     C79629   5.716   3.026   0.956  0.2103 -0.8686  0.1674
  604MOL0     C79630   5.692   2.907   0.892 -0.0315  0.0540  0.6453
  604MOL0     O79631   5.568   2.867   0.831 -0.3352 -0.7188  0.1318
  604MOL0     C79632   5.458   2.954   0.870  0.0736  0.9078 -0.1789
  604MOL0     C79633   5.318   2.902   0.827  0.5181  0.6050  0.4047
  604MOL0     C79634   5.269   2.943   0.686 -0.1451 -0.2068  0.8220
  604MOL0     C79635   5.267   3.089   0.650  0.1170 -0.7733  0.0714
  604MOL0     C79636   5.170   3.090   0.517 -0.3278 -0.4952 -0.2808
  604MOL0     C79637   5.116   3.231   0.490 -0.1181 -0.1198  0.2558
  604MOL0     C79638   5.053   3.252   0.345  0.2118  0.2054 -0.2321
  604MOL0     C79639   4.938   3.153   0.314  0.1782  0.0771  0.2150
  604MOL0    Cl79640   4.841   3.190   0.169 -0.0412  0.5082  0.2640
  604MOL0     C79641   5.802   2.819   0.880  0.2349  0.3717 -0.7047
  604MOL0     C79642   5.921   2.844   0.945 -0.4680 -1.1812 -0.0571
  604MOL0     O79643   6.054   3.192   1.161 -0.2580  0.8860 -0.2150
  604MOL0     C79644   6.311   3.192   1.254 -0.6683 -0.2922 -0.1025
  604MOL0     C79645   6.447   3.187   1.290 -0.0064 -0.1377 -0.3689
  604MOL0     N79646   7.217   3.207   1.238  0.5171 -0.2641 -0.7530
  604MOL0     N79647   7.335   3.224   1.279  0.0343 -0.5062  0.1300
  604MOL0     C79648   8.001   3.555   0.610  0.2394 -0.0735  0.2082
  604MOL0     C79649   8.078   3.483   0.515  0.6289 -0.1682  0.6128
  604MOL0     C79650   8.176   3.189   0.174 -0.5139  0.5155 -0.7599
  604MOL0     C79651   8.123   3.125   0.053 -0.4198 -0.6403  0.4700
  604MOL0     C79652   8.195   3.115  -0.067 -0.6476 -0.9806  0.1210
  604MOL0     C79653   8.320   3.167  -0.073  0.5174 -0.5995  0.3627
  604MOL0     O79654   8.384   3.151  -0.192 -0.2156 -0.4609  0.0304
  604MOL0     C79655   8.479   3.244  -0.235  0.1101  0.0136 -0.1785
  604MOL0     C79656   8.526   3.223  -0.378 -1.4343 -0.6155  0.4154
  604MOL0     C79657   8.676   3.259  -0.403  0.8218 -0.2275  1.3952
  604MOL0     C79658   8.716   3.255  -0.553 -0.0104  0.2953 -0.1444
  604MOL0     C79659   8.637   3.344  -0.634  0.4814 -0.1726  0.7108
  604MOL0     C79660   8.556   3.405  -0.700 -0.0037  0.0481 -0.3107
  604MOL0     C79661   8.378   3.223   0.044  0.3225 -0.7434 -0.3314
  604MOL0     C79662   8.305   3.233   0.161  0.5072  0.6198 -0.5109
  604MOL0     H79663   7.857   3.226   0.457 -3.1787 -0.4454  2.6798
  604MOL0     H79664   7.733   3.345   0.623 -0.8853 -1.1073 -4.0174
  604MOL0     H79665   7.775   3.725   0.643 -0.4595  0.5528  0.4060
  604MOL0     H79666   7.850   3.755   0.798  1.5861 -0.4385  0.8518
  604MOL0     H79667   7.564   3.671   0.752  1.0051  0.4344 -1.4943
  604MOL0     H79668   7.629   3.831   0.790  1.5773  0.4465  2.0909
  604MOL0     H79669   7.715   3.734   1.017 -0.8923  1.7317 -1.5517
  604MOL0     H79670   7.644   3.579   0.963 -1.9744 -0.3664 -3.5393
  604MOL0     H79671   7.499   3.841   1.023  0.8465 -0.0790 -1.8853
  604MOL0     H79672   7.421   3.685   0.991  2.3691 -5.2511  0.3422
  604MOL0     H79673   7.442   3.780   1.239  1.1825  0.8062 -0.2304
  604MOL0     H79674   7.606   3.713   1.233 -1.0798  0.6348  1.7833
  604MOL0     H79675   7.508   3.497   1.161  0.0232  0.8678  0.1692
  604MOL0     H79676   7.347   3.545   1.197  0.1728 -1.6008  1.7182
  604MOL0     H79677   7.571   3.577   1.414  1.1040 -1.1586 -1.1636
  604MOL0     H79678   7.388   3.586   1.434 -1.6679  0.2027 -2.3004
  604MOL0     H79679   7.475   3.379   1.510  0.0513 -1.4625 -0.8807
  604MOL0     H79680   7.563   3.354   1.363 -0.1132 -2.2771  1.0692
  604MOL0     H79681   7.193   3.458   1.451 -1.7612 -0.0731 -1.1246
  604MOL0     H79682   6.947   3.326   1.213 -0.2518  1.3192  0.2926
  604MOL0     H79683   6.956   3.406   1.370  0.1996  0.2776  1.0035
  604MOL0     H79684   6.997   3.144   1.454 -2.4742 -2.9467  0.5964
  604MOL0     H79685   6.908   3.120   1.304  1.9185 -0.3204  0.5348
  604MOL0     H79686   6.814   3.238   1.554 -0.4584 -2.4862  0.3720
  604MOL0     H79687   6.762   3.323   1.407  1.1868  0.0359 -0.8402
  604MOL0     H79688   6.598   3.153   1.478 -0.0363 -0.1935  0.4253
  604MOL0     H79689   6.726   3.028   1.485  0.7256 -0.2344 -0.6898
  604MOL0     H79690   6.551   2.908   1.134  0.4836  0.0330  1.1675
  604MOL0     H79691   6.319   2.920   1.049  0.1101 -1.8010  0.6843
  604MOL0     H79692   5.838   3.160   1.052 -1.8639 -0.4355  0.1381
  604MOL0     H79693   5.639   3.102   0.968  1.1917  0.3453 -0.8712
  604MOL0     H79694   5.470   3.059   0.843  1.2917  1.2101  1.3821
  604MOL0     H79695   5.461   2.946   0.979 -3.0188  0.1778 -0.0454
  604MOL0     H79696   5.246   2.928   0.906  0.6416 -0.2043  0.7922
  604MOL0     H79697   5.323   2.793   0.825 -2.9026  0.3558 -0.3035
  604MOL0     H79698   5.174   2.891   0.667 -0.4939  0.3155  1.1243
  604MOL0     H79699   5.336   2.904   0.608 -2.5160  1.2326 -2.1667
  604MOL0     H79700   5.228   3.146   0.735  0.4019  1.0477 -0.9810
  604MOL0     H79701   5.365   3.131   0.626  0.1112 -1.0642 -0.4779
  604MOL0     H79702   5.089   3.017   0.529 -0.8383 -0.3394 -2.3744
  604MOL0     H79703   5.212   3.047   0.426 -0.3607 -0.5134 -0.2878
  604MOL0     H79704   5.202   3.299   0.497  0.0888 -0.1627 -1.4383
  604MOL0     H79705   5.046   3.255   0.570  1.9944  2.3316  1.5428
  604MOL0     H79706   5.008   3.351   0.334  2.2895  1.1905 -0.3160
  604MOL0     H79707   5.132   3.240   0.271 -0.0721 -0.4409 -0.4372
  604MOL0     H79708   4.873   3.136   0.400 -1.3920  0.2145 -0.9183
  604MOL0     H79709   4.990   3.058   0.299  1.5057  0.8315 -0.1864
  604MOL0     H79710   5.795   2.723   0.830 -0.1947  0.8437 -1.5604
  604MOL0     H79711   6.008   2.780   0.957  0.0880 -0.3989  0.1711
  604MOL0     H79712   6.256   3.275   1.295 -0.0833 -1.5665  3.6600
  604MOL0     H79713   6.479   3.272   1.348  2.3400 -0.3881 -1.1903
  604MOL0     H79714   8.036   3.648   0.654 -0.7323  0.6585 -0.5232
  604MOL0     H79715   8.176   3.522   0.486  0.5504 -0.5316 -0.1561
  604MOL0     H79716   8.020   3.089   0.047 -0.3180 -0.7261 -1.1586
  604MOL0     H79717   8.156   3.074  -0.160 -0.6005 -0.9084  0.0687
  604MOL0     H79718   8.570   3.246  -0.175  0.1852  0.9267 -0.2986
  604MOL0     H79719   8.441   3.347  -0.228 -0.8874 -0.1495 -2.3372
  604MOL0     H79720   8.517   3.119  -0.409 -2.1889 -0.0790 -1.2565
  604MOL0     H79721   8.465   3.288  -0.441  0.6836  3.7921  2.4606
  604MOL0     H79722   8.739   3.187  -0.351  1.1552 -1.9670 -1.2581
  604MOL0     H79723   8.706   3.356  -0.362  2.3034  0.9545 -2.1117
  604MOL0     H79724   8.816   3.299  -0.560 -0.1888  0.4956 -2.4090
  604MOL0     H79725   8.716   3.151  -0.589  0.7244 -0.5550  2.1790
  604MOL0     H79726   8.488   3.463  -0.759 -0.4471  1.6438  1.6730
  604MOL0     H79727   8.484   3.247   0.039  0.2113 -0.1497  0.1590
  604MOL0     H79728   8.364   3.261   0.248 -0.9826 -1.6968  1.3871
  605MOL0     O79729   2.517   5.967   3.761 -0.0277  0.3647 -0.0858
  605MOL0     C79730   2.544   5.998   3.879 -0.1021 -0.3073 -0.5275
  605MOL0     O79731   2.474   5.959   3.992  0.3424 -0.4385  0.6209
  605MOL0     C79732   2.359   5.892   3.973  0.2557  0.1644 -0.5593
  605MOL0     C79733   2.348   5.769   4.027  0.0799 -0.4242 -0.1510
  605MOL0     C79734   2.227   5.701   4.020  0.6333 -0.8621  0.5976
  605MOL0     C79735   2.114   5.765   3.978 -0.0784  0.0607 -0.1606
  605MOL0     O79736   1.998   5.691   3.981  0.4137  0.3609 -0.0884
  605MOL0     C79737   1.969   5.628   3.852 -0.3350  1.1658 -0.1449
  605MOL0     C79738   1.830   5.561   3.861  0.8875 -0.0229  0.2343
  605MOL0     C79739   1.733   5.675   3.879  1.0949 -0.0741 -0.4587
  605MOL0     C79740   1.587   5.616   3.866  0.1046  0.3595 -0.1965
  605MOL0     C79741   1.477   5.719   3.876  0.8598 -0.2323  0.1655
  605MOL0     C79742   1.329   5.659   3.863  0.4442  0.1537  0.6025
  605MOL0     C79743   1.220   5.741   3.937  0.0715 -0.2360 -0.2568
  605MOL0     C79744   1.090   5.683   3.891  0.1518 -0.0667 -0.3773
  605MOL0     N79745   0.978   5.750   3.958 -0.0094  0.2005 -0.5835
  605MOL0     C79746   0.897   5.689   4.051 -0.2574 -0.4303 -0.2379
  605MOL0     C79747   0.843   5.791   4.130  0.7084  0.2004 -0.1242
  605MOL0     C79748   0.770   5.776   4.265  1.1263 -0.1715  0.3230
  605MOL0     C79749   0.620   5.767   4.238  0.5363  0.0545  0.2955
  605MOL0     C79750   0.548   5.749   4.373  0.6614  0.7758 -0.2418
  605MOL0     C79751   0.400   5.721   4.350  0.8481  0.9002  0.2506
  605MOL0     O79752   0.386   5.597   4.277  0.3306  0.2885  0.6547
  605MOL0     C79753   0.256   5.550   4.270  0.3349 -0.0390  0.4909
  605MOL0     C79754   0.239   5.433   4.200 -1.9769 -1.0457 -0.0633
  605MOL0     C79755   0.122   5.358   4.200 -0.0287 -0.0486  0.7017
  605MOL0     C79756  -0.002   5.422   4.245  0.2364 -0.3504  0.0988
  605MOL0     C79757  -0.141   5.375   4.208  0.6525 -0.0964 -0.7246
  605MOL0     O79758  -0.253   5.427   4.273 -0.2196 -0.0793  0.0402
  605MOL0     C79759  -0.376   5.373   4.239  0.9843 -0.0371  0.6785
  605MOL0     C79760  -0.426   5.259   4.305 -0.5678 -0.0611  0.6274
  605MOL0     C79761  -0.559   5.210   4.280 -0.3269 -0.3252 -0.4267
  605MOL0     C79762  -0.643   5.272   4.185 -1.2232 -0.0625 -0.4866
  605MOL0     O79763  -0.757   5.212   4.153 -0.1404  0.1763  0.0583
  605MOL0     C79764  -0.864   5.297   4.124 -0.1278  0.4582  0.0244
  605MOL0     C79765  -1.000   5.232   4.128  0.5063  0.2365 -0.3069
  605MOL0     C79766  -1.115   5.329   4.149 -0.4698 -0.1396  0.4663
  605MOL0     C79767  -1.125   5.372   4.291 -0.7917 -0.2722  0.0497
  605MOL0     C79768  -1.229   5.484   4.310 -0.2267 -0.2142 -0.2864
  605MOL0     C79769  -1.360   5.469   4.246  0.7087 -0.3406 -0.3132
  605MOL0     C79770  -1.442   5.353   4.305 -0.4085  0.0552 -0.3940
  605MOL0     C79771  -1.587   5.378   4.282 -0.6491 -0.5517 -0.2879
  605MOL0    Cl79772  -1.623   5.407   4.107  0.1298 -0.1265 -0.1612
  605MOL0     C79773  -0.593   5.386   4.130  0.1177 -0.2142  0.5429
  605MOL0     C79774  -0.461   5.441   4.154 -0.9701 -0.1118 -0.2360
  605MOL0     O79775  -0.148   5.292   4.121 -0.8031  0.4457 -0.3947
  605MOL0     C79776   0.015   5.544   4.309  0.3538 -0.1976  0.7058
  605MOL0     C79777   0.137   5.603   4.327  0.7963  0.1990  0.8773
  605MOL0     N79778   0.884   5.909   4.068 -0.2426  0.2358  0.5698
  605MOL0     N79779   0.963   5.888   3.968  0.8520  0.7827 -0.9424
  605MOL0     C79780   2.113   5.898   3.942  0.1257 -1.0638  0.6518
  605MOL0     C79781   2.237   5.965   3.937 -0.0489  1.0969  0.6424
  605MOL0     C79782   2.661   6.075   3.906 -0.4138 -0.2538 -0.4758
  605MOL0     C79783   2.731   6.147   3.807 -1.1107 -0.1596 -0.2440
  605MOL0     C79784   2.842   6.223   3.837  0.1347 -0.3216  0.4394
  605MOL0     C79785   2.895   6.224   3.968  0.6588 -0.0014  0.1620
  605MOL0     O79786   3.004   6.298   3.996  0.2243  0.3997 -0.1778
  605MOL0     C79787   3.116   6.233   4.054 -0.3877 -0.3747 -0.2437
  605MOL0     C79788   3.242   6.329   4.045  0.3042  0.5190  0.5380
  605MOL0     C79789   3.222   6.461   4.124 -0.3660  0.5157 -0.0832
  605MOL0     C79790   3.318   6.571   4.103 -0.0504 -0.4543 -0.8587
  605MOL0     C79791   3.458   6.525   4.127  1.3732  0.0543  0.2117
  605MOL0     C79792   3.560   6.467   4.156  1.8233 -0.0554 -0.2157
  605MOL0     C79793   2.826   6.151   4.069  0.2853  0.1851 -0.5064
  605MOL0     C79794   2.712   6.081   4.043  0.4631  0.6938  0.0791
  605MOL0     H79795   2.427   5.716   4.080  0.3388 -0.2212 -0.3371
  605MOL0     H79796   2.209   5.605   4.069 -1.8270  0.2732  2.1090
  605MOL0     H79797   2.038   5.549   3.821 -1.1637  0.7856 -1.0557
  605MOL0     H79798   1.968   5.699   3.768 -0.8560 -1.0409 -2.1008
  605MOL0     H79799   1.824   5.483   3.938  1.6963 -1.1311 -0.7837
  605MOL0     H79800   1.799   5.504   3.773  1.8199 -1.0711  0.5663
  605MOL0     H79801   1.753   5.742   3.795  0.5231  0.0706 -0.4812
  605MOL0     H79802   1.746   5.731   3.972 -3.8340 -1.5625  1.4437
  605MOL0     H79803   1.580   5.568   3.768 -0.3883 -2.0353  0.9558
  605MOL0     H79804   1.576   5.537   3.940  1.8615 -0.7915 -1.1076
  605MOL0     H79805   1.481   5.798   3.800 -2.0517 -1.7436 -1.7361
  605MOL0     H79806   1.487   5.772   3.971  1.0712 -0.9604  0.5512
  605MOL0     H79807   1.329   5.567   3.923  0.1121  1.4191  2.6368
  605MOL0     H79808   1.299   5.633   3.761  0.8858 -1.6514  0.8894
  605MOL0     H79809   1.230   5.724   4.044 -1.2754 -1.3992 -0.2914
  605MOL0     H79810   1.236   5.847   3.915  0.1832 -0.0314  0.7626
  605MOL0     H79811   1.085   5.575   3.906  2.6834 -0.0017  1.6161
  605MOL0     H79812   1.088   5.697   3.783  2.0133  1.3345 -0.2816
  605MOL0     H79813   0.890   5.582   4.068 -1.9466 -0.4902 -1.1472
  605MOL0     H79814   0.778   5.872   4.318 -4.1805  0.1250  1.1354
  605MOL0     H79815   0.821   5.700   4.324  1.8854  1.3088  1.6526
  605MOL0     H79816   0.607   5.676   4.179  1.3498 -0.6166  1.1230
  605MOL0     H79817   0.595   5.857   4.180  0.2683  0.5070  1.0998
  605MOL0     H79818   0.596   5.665   4.424 -0.6415 -0.8700 -1.5917
  605MOL0     H79819   0.564   5.845   4.423 -0.2827  2.3191 -2.7304
  605MOL0     H79820   0.359   5.806   4.294 -1.5583  0.2255  0.8792
  605MOL0     H79821   0.347   5.727   4.445  1.2797  2.1511  0.4402
  605MOL0     H79822   0.330   5.403   4.149 -1.6193 -0.4070  0.1906
  605MOL0     H79823   0.118   5.262   4.148 -1.7536  0.3737 -0.0454
  605MOL0     H79824  -0.367   5.207   4.380  1.3685 -0.8707 -1.3482
  605MOL0     H79825  -0.595   5.127   4.339  0.2679  0.3232  0.8978
  605MOL0     H79826  -0.842   5.330   4.022 -0.3451 -0.4842 -0.3365
  605MOL0     H79827  -0.855   5.383   4.192  2.2670  0.5076 -0.2692
  605MOL0     H79828  -1.008   5.155   4.205 -1.6190  2.6500  2.0819
  605MOL0     H79829  -1.015   5.170   4.039 -1.4545 -1.3016  1.0105
  605MOL0     H79830  -1.211   5.281   4.127  0.0022 -0.8788  0.0032
  605MOL0     H79831  -1.101   5.417   4.085 -0.0097  1.1503  2.2555
  605MOL0     H79832  -1.162   5.280   4.339 -2.1028 -0.5300 -1.3892
  605MOL0     H79833  -1.028   5.401   4.335 -0.6670 -0.8620  0.1842
  605MOL0     H79834  -1.194   5.579   4.267 -3.8115  1.1154 -0.6604
  605MOL0     H79835  -1.239   5.495   4.418  2.0673 -1.6615  0.1366
  605MOL0     H79836  -1.352   5.464   4.137  1.0449 -1.6553 -0.2447
  605MOL0     H79837  -1.412   5.563   4.269 -0.9561 -1.8180  2.5743
  605MOL0     H79838  -1.413   5.267   4.244 -0.5116  0.7496 -1.4577
  605MOL0     H79839  -1.418   5.335   4.410 -1.0318 -1.5695 -0.5038
  605MOL0     H79840  -1.601   5.471   4.339  1.7353 -0.5574  0.4045
  605MOL0     H79841  -1.649   5.296   4.320  1.9760 -2.0118  1.1628
  605MOL0     H79842  -0.656   5.432   4.055 -2.6001 -4.3719 -0.0541
  605MOL0     H79843  -0.420   5.537   4.122 -0.7866 -0.2770 -0.4989
  605MOL0     H79844  -0.074   5.598   4.341  0.7352  0.3004  0.9358
  605MOL0     H79845   0.135   5.704   4.368 -0.6529  1.0009 -0.9737
  605MOL0     H79846   2.015   5.934   3.915  0.5583 -0.0982  0.3199
  605MOL0     H79847   2.242   6.071   3.915 -0.9433  1.0514  0.1762
  605MOL0     H79848   2.680   6.156   3.711  0.7997 -0.2889 -1.3140
  605MOL0     H79849   2.892   6.282   3.761  1.9585 -1.0007  1.0481
  605MOL0     H79850   3.136   6.132   4.016 -0.4636 -0.4066 -0.2000
  605MOL0     H79851   3.089   6.212   4.158  0.2472  1.3674  0.3058
  605MOL0     H79852   3.322   6.266   4.085 -1.1358 -0.3422  2.2064
  605MOL0     H79853   3.263   6.343   3.938 -1.6596 -1.3189 -0.1517
  605MOL0     H79854   3.222   6.429   4.228 -1.3206  0.2138 -0.1682
  605MOL0     H79855   3.123   6.499   4.096  0.5505  2.1846 -1.2126
  605MOL0     H79856   3.314   6.617   4.004 -0.4096  1.4470 -0.0040
  605MOL0     H79857   3.304   6.650   4.178 -0.2980 -3.6326  2.7763
  605MOL0     H79858   3.654   6.420   4.177  1.8357  0.4258  0.8247
  605MOL0     H79859   2.856   6.160   4.174 -3.5652  3.8166  0.5568
  605MOL0     H79860   2.661   6.037   4.128 -0.1639 -0.6621 -0.9455
  606MOL0     O79861   8.484   2.741   2.268  0.2218  0.6315  0.0536
  606MOL0     C79862   8.547   2.637   2.260 -0.0501 -1.0207  1.3834
  606MOL0     O79863   8.501   2.512   2.272  0.0136 -0.2429 -0.0168
  606MOL0     C79864   8.362   2.499   2.267 -0.3099 -0.3341 -0.6984
  606MOL0     C79865   8.286   2.509   2.385 -0.5313  0.5136 -0.5706
  606MOL0     C79866   8.144   2.499   2.383 -0.2794  0.1675 -0.3544
  606MOL0     C79867   8.087   2.468   2.258 -0.0916  0.0149  0.2332
  606MOL0     O79868   7.955   2.461   2.232 -1.0355 -0.3811  0.6727
  606MOL0     C79869   7.868   2.456   2.344 -0.1001 -0.9336 -0.9087
  606MOL0     C79870   7.721   2.485   2.303  0.1241 -0.1199 -0.7037
  606MOL0     C79871   7.639   2.479   2.430  0.0821 -0.2164 -0.4060
  606MOL0     C79872   7.495   2.519   2.422 -0.8149  0.3717 -0.6799
  606MOL0     C79873   7.426   2.503   2.564  0.2956 -0.1131  0.4472
  606MOL0     C79874   7.282   2.554   2.567 -0.3132 -0.6383 -0.1195
  606MOL0     C79875   7.189   2.438   2.521  0.0125  0.6387 -0.4643
  606MOL0     C79876   7.064   2.501   2.461 -0.7016  0.4738 -0.6420
  606MOL0     N79877   6.992   2.575   2.570 -0.4591  0.5826  0.1081
  606MOL0     C79878   6.919   2.502   2.657 -0.3335 -0.6120 -1.3380
  606MOL0     C79879   6.851   2.597   2.730  0.1259  0.9310 -1.2411
  606MOL0     C79880   6.772   2.571   2.851  0.7001  0.1804 -0.6603
  606MOL0     C79881   6.667   2.678   2.884 -0.0380  0.3347 -0.5405
  606MOL0     C79882   6.584   2.636   3.011  0.1242 -0.0207 -0.1514
  606MOL0     C79883   6.437   2.698   3.026  0.1140  0.3000  0.3143
  606MOL0     O79884   6.433   2.839   2.981  0.1790 -0.5920 -0.1387
  606MOL0     C79885   6.317   2.906   3.018  0.2430  0.3232 -0.5839
  606MOL0     C79886   6.196   2.853   3.075 -0.0554  0.1957 -0.0746
  606MOL0     C79887   6.092   2.930   3.118 -0.8622  0.2439  0.4956
  606MOL0     C79888   6.104   3.065   3.115 -0.9406  0.1045 -0.0461
  606MOL0     C79889   5.990   3.144   3.176  0.0999 -0.8194 -0.0706
  606MOL0     O79890   5.888   3.081   3.238  0.6858  0.9233 -0.6614
  606MOL0     C79891   5.811   3.159   3.322  0.1253 -0.1025 -0.0333
  606MOL0     C79892   5.815   3.161   3.460 -0.0957  0.2620 -0.5427
  606MOL0     C79893   5.724   3.238   3.534  0.2492  0.7529  0.7186
  606MOL0     C79894   5.638   3.328   3.473 -1.1823  0.3594  0.6687
  606MOL0     O79895   5.547   3.397   3.551 -0.9066 -0.0321 -0.1667
  606MOL0     C79896   5.444   3.472   3.481 -0.7482 -0.0967  0.5747
  606MOL0     C79897   5.326   3.498   3.571  0.6328  0.1707  0.2959
  606MOL0     C79898   5.233   3.597   3.494 -0.2378 -0.2333  0.1386
  606MOL0     C79899   5.128   3.652   3.585  0.1981 -0.5593  0.1922
  606MOL0     C79900   5.039   3.752   3.523 -1.3420  0.1217  0.2037
  606MOL0     C79901   4.958   3.695   3.411 -0.6984 -0.6423 -0.2245
  606MOL0     C79902   4.874   3.802   3.349  0.3384  0.5854 -0.3241
  606MOL0     C79903   4.788   3.883   3.456 -0.2642  0.3935  0.5335
  606MOL0    Cl79904   4.674   3.768   3.528  0.2854 -0.1922  0.0865
  606MOL0     C79905   5.645   3.333   3.331  0.1659  0.0500 -0.7531
  606MOL0     C79906   5.726   3.255   3.256 -0.2252 -0.4298  0.2950
  606MOL0     O79907   5.999   3.266   3.166  0.5781  0.0765  0.2032
  606MOL0     C79908   6.209   3.128   3.048  0.0458  0.1119 -0.6574
  606MOL0     C79909   6.315   3.049   2.998  0.8131 -0.5657  0.1484
  606MOL0     N79910   6.877   2.720   2.667  0.5193  0.3856 -0.4267
  606MOL0     N79911   6.959   2.702   2.562 -0.5986 -0.1968 -0.3540
  606MOL0     C79912   8.161   2.455   2.144  0.4302 -0.7309 -0.7228
  606MOL0     C79913   8.298   2.471   2.150 -0.2860  0.4531  0.4767
  606MOL0     C79914   8.697   2.663   2.240  0.0195  0.4621  0.1107
  606MOL0     C79915   8.779   2.550   2.224 -0.5224  0.2894 -0.1241
  606MOL0     C79916   8.914   2.568   2.186 -0.5614 -0.2558 -0.2253
  606MOL0     C79917   8.969   2.693   2.153  1.1043 -0.2638 -0.7763
  606MOL0     O79918   9.100   2.712   2.118  0.5867 -1.5073  0.2632
  606MOL0     C79919   9.193   2.604   2.108 -0.3991 -0.4571  0.6188
  606MOL0     C79920   9.325   2.655   2.042  0.0595 -0.0444 -0.4028
  606MOL0     C79921   9.306   2.709   1.900 -0.0205  0.5701  0.0257
  606MOL0     C79922   9.440   2.730   1.819  0.8898 -0.1590 -0.0518
  606MOL0     C79923   9.543   2.808   1.884 -1.0777  0.4593 -0.4643
  606MOL0     C79924   9.646   2.858   1.928  0.5306 -0.9345  0.1920
  606MOL0     C79925   8.885   2.806   2.164 -0.7944  1.2373  0.6937
  606MOL0     C79926   8.750   2.786   2.204 -0.4443 -0.1221  0.3869
  606MOL0     H79927   8.338   2.524   2.479 -3.5337 -1.0369  1.5039
  606MOL0     H79928   8.089   2.525   2.473  4.1439 -0.8634  3.0273
  606MOL0     H79929   7.896   2.546   2.399 -2.7474  0.9255 -2.3526
  606MOL0     H79930   7.875   2.363   2.403  1.0381  0.0111  0.5176
  606MOL0     H79931   7.684   2.404   2.239 -1.8380  0.5134 -0.4377
  606MOL0     H79932   7.712   2.586   2.264 -2.6743  1.2548  2.9349
  606MOL0     H79933   7.684   2.554   2.495  0.2546 -1.7432  1.3142
  606MOL0     H79934   7.660   2.386   2.483 -1.1678  0.0084  0.5360
  606MOL0     H79935   7.483   2.623   2.391 -1.9148  0.3319 -0.4543
  606MOL0     H79936   7.440   2.458   2.350  0.7211 -1.7838 -0.1287
  606MOL0     H79937   7.485   2.566   2.632  0.6119  0.4430 -0.3353
  606MOL0     H79938   7.433   2.397   2.591 -0.8527 -1.0549 -2.6199
  606MOL0     H79939   7.277   2.635   2.494  0.9228  0.2536  0.7583
  606MOL0     H79940   7.256   2.599   2.663  1.4091  1.8995 -0.7499
  606MOL0     H79941   7.237   2.380   2.441  0.1031  2.7444 -2.0157
  606MOL0     H79942   7.168   2.373   2.607  2.5350  0.8841  0.4200
  606MOL0     H79943   7.006   2.421   2.414 -1.0535  1.4376 -1.8747
  606MOL0     H79944   7.090   2.575   2.386  0.9654  1.1652  0.5451
  606MOL0     H79945   6.933   2.400   2.689 -0.7070 -0.0790  0.6326
  606MOL0     H79946   6.840   2.570   2.936 -1.4266  0.2177  1.1582
  606MOL0     H79947   6.730   2.470   2.842 -0.7404  0.5689  1.0299
  606MOL0     H79948   6.604   2.684   2.794 -1.1165 -0.8938  0.0875
  606MOL0     H79949   6.715   2.775   2.898  0.4771  0.1099 -0.6989
  606MOL0     H79950   6.569   2.528   3.008 -1.6491  0.1833 -3.0756
  606MOL0     H79951   6.642   2.663   3.099  1.3669  0.0099 -0.9514
  606MOL0     H79952   6.417   2.694   3.133  3.0173  1.3993  1.0133
  606MOL0     H79953   6.367   2.631   2.975 -0.1064  0.4890  0.3667
  606MOL0     H79954   6.192   2.744   3.077  0.0027  0.1184 -2.1341
  606MOL0     H79955   6.011   2.877   3.167 -1.8353 -0.3113 -1.6157
  606MOL0     H79956   5.880   3.087   3.506  0.4566  0.3791 -1.1295
  606MOL0     H79957   5.709   3.224   3.640 -4.4027  1.4478  0.3715
  606MOL0     H79958   5.417   3.422   3.388  4.0810 -0.4628 -0.9168
  606MOL0     H79959   5.500   3.562   3.456 -1.3210 -0.3057 -1.6487
  606MOL0     H79960   5.357   3.533   3.669 -2.7361 -1.8591  2.2897
  606MOL0     H79961   5.270   3.408   3.599  0.0378  0.2675 -0.5139
  606MOL0     H79962   5.184   3.548   3.409  1.2828  2.9470 -2.8155
  606MOL0     H79963   5.289   3.679   3.448  3.3430 -1.9211  1.1280
  606MOL0     H79964   5.078   3.560   3.616  2.8067 -1.8241  0.8537
  606MOL0     H79965   5.174   3.696   3.674 -1.2969  0.8987  0.3049
  606MOL0     H79966   5.089   3.844   3.493 -2.6800  0.6058 -0.6252
  606MOL0     H79967   4.966   3.774   3.602 -2.0794  1.4533 -0.8059
  606MOL0     H79968   4.892   3.618   3.452  0.3548 -0.2286  2.4326
  606MOL0     H79969   5.024   3.652   3.335  0.4961 -0.1459  0.4955
  606MOL0     H79970   4.935   3.878   3.300 -0.4707  0.8554 -0.9285
  606MOL0     H79971   4.804   3.757   3.277 -0.4154 -0.0288  0.7518
  606MOL0     H79972   4.736   3.969   3.414  0.2072 -0.4552 -1.9674
  606MOL0     H79973   4.848   3.919   3.540  1.9768 -3.7134  0.9381
  606MOL0     H79974   5.590   3.408   3.276  1.4522  0.4705 -1.5207
  606MOL0     H79975   5.725   3.247   3.148  1.2355 -5.0756  0.3778
  606MOL0     H79976   6.221   3.235   3.033 -0.2213  0.0544 -1.3451
  606MOL0     H79977   6.403   3.100   2.959 -1.5038  3.4888 -0.3471
  606MOL0     H79978   8.116   2.437   2.047 -1.2111  1.6089 -0.4650
  606MOL0     H79979   8.358   2.463   2.059 -1.8986 -1.1726 -0.5073
  606MOL0     H79980   8.745   2.447   2.234  1.9657 -0.7120 -1.2595
  606MOL0     H79981   8.982   2.483   2.184 -0.2004 -0.0394  1.3978
  606MOL0     H79982   9.156   2.528   2.038  0.1879  0.2363 -0.4684
  606MOL0     H79983   9.216   2.549   2.200  1.7861 -0.7698 -0.0695
  606MOL0     H79984   9.372   2.731   2.105 -1.1196  1.1984 -0.9820
  606MOL0     H79985   9.390   2.566   2.040 -1.7670 -1.5569  1.9897
  606MOL0     H79986   9.249   2.802   1.906  1.0281  1.3516 -1.4578
  606MOL0     H79987   9.244   2.644   1.837 -2.7796  3.0807 -0.0745
  606MOL0     H79988   9.488   2.640   1.779  0.7156 -0.3760  0.2244
  606MOL0     H79989   9.416   2.782   1.726  1.0538  1.7122  0.8925
  606MOL0     H79990   9.735   2.909   1.958  0.4586 -1.0767  0.6459
  606MOL0     H79991   8.920   2.907   2.141 -2.4813  1.6993  0.0229
  606MOL0     H79992   8.682   2.870   2.211  0.5922  0.7416  0.2894
  607MOL0     O79993   2.435   8.254   1.370  0.1420 -0.2138  0.1808
  607MOL0     C79994   2.496   8.287   1.476  0.0273 -0.1414 -0.2145
  607MOL0     O79995   2.453   8.251   1.603 -0.0465 -0.3113 -0.0571
  607MOL0     C79996   2.362   8.149   1.619  0.2253 -0.6389  0.1236
  607MOL0     C79997   2.395   8.029   1.676 -1.7320  0.1336 -0.0015
  607MOL0     C79998   2.299   7.931   1.679 -0.7820 -0.1397  0.4161
  607MOL0     C79999   2.165   7.954   1.657 -0.1176  0.2434 -0.6857
  607MOL0     O80000   2.088   7.835   1.664  0.4371  0.4863 -0.8140
  607MOL0     C80001   1.943   7.845   1.668 -0.1118 -0.4077 -0.1370
  607MOL0     C80002   1.896   7.887   1.808 -0.1198 -0.2245 -0.3694
  607MOL0     C80003   1.746   7.900   1.793 -0.7677 -0.3175 -0.5448
  607MOL0     C80004   1.679   7.953   1.927  0.3725  0.3435  1.0828
  607MOL0     C80005   1.524   7.939   1.925  0.0795 -0.6496  0.2552
  607MOL0     C80006   1.466   8.038   1.816  0.1449  0.0460 -0.1700
  607MOL0     C80007   1.459   8.186   1.869  0.4251  0.4195 -0.8591
  607MOL0     C80008   1.375   8.209   1.989  0.5768  0.3237 -0.2386
  607MOL0     N80009   1.232   8.160   1.958  0.2998 -0.2468 -0.4911
  607MOL0     C80010   1.145   8.218   1.865 -0.0592  0.3228 -0.8973
  607MOL0     C80011   1.026   8.149   1.880  0.0980  0.6548  0.2791
  607MOL0     C80012   0.893   8.181   1.814  0.7453 -0.0144 -0.1145
  607MOL0     C80013   0.899   8.158   1.663 -0.1555 -0.1691 -0.0121
  607MOL0     C80014   0.766   8.136   1.590 -0.2247 -0.1681  0.2322
  607MOL0     C80015   0.656   8.232   1.621  0.4225 -0.4048 -0.0591
  607MOL0     O80016   0.691   8.365   1.579  0.1360 -0.4810  1.0643
  607MOL0     C80017   0.628   8.482   1.599  0.3291 -0.0353 -0.6281
  607MOL0     C80018   0.515   8.494   1.678  1.0893  0.7904 -0.7990
  607MOL0     C80019   0.445   8.610   1.691 -0.7476 -0.8794 -0.1979
  607MOL0     C80020   0.463   8.717   1.608 -0.2894  0.5600 -0.7057
  607MOL0     C80021   0.378   8.834   1.607  0.8014 -1.0922 -0.1272
  607MOL0     O80022   0.413   8.932   1.520  0.7038  0.1664  0.6077
  607MOL0     C80023   0.367   9.062   1.539  0.2711 -0.0786 -0.6053
  607MOL0     C80024   0.330   9.124   1.661  0.6354 -0.5355 -0.0360
  607MOL0     C80025   0.309   9.265   1.659  0.2162  0.2501  0.4197
  607MOL0     C80026   0.328   9.350   1.554  0.1265 -0.6013 -0.0769
  607MOL0     O80027   0.345   9.483   1.566 -0.1872 -0.4496  0.4288
  607MOL0     C80028   0.308   9.549   1.690 -0.5799  0.0930  0.6486
  607MOL0     C80029   0.153   9.582   1.699  0.5529 -0.1568  0.3749
  607MOL0     C80030   0.094   9.642   1.576 -0.5349 -0.1077  0.3150
  607MOL0     C80031  -0.042   9.711   1.604 -0.1754 -0.2868  0.4589
  607MOL0     C80032  -0.144   9.703   1.493  0.1948 -0.3636 -0.2025
  607MOL0     C80033  -0.092   9.730   1.346 -0.0914 -0.6281  0.6314
  607MOL0     C80034  -0.042   9.881   1.341 -0.2944 -0.0166  0.2291
  607MOL0     C80035  -0.031   9.949   1.200 -0.5225  0.1941 -0.2760
  607MOL0    Cl80036  -0.187   9.957   1.127  0.0626 -0.4921  0.3861
  607MOL0     C80037   0.364   9.295   1.436  0.4515  0.0490 -0.3979
  607MOL0     C80038   0.373   9.152   1.430 -0.1463  0.0786 -1.2030
  607MOL0     O80039   0.289   8.840   1.692  0.4873  0.2976 -0.6062
  607MOL0     C80040   0.580   8.708   1.524 -0.4966  0.4996  0.6591
  607MOL0     C80041   0.661   8.593   1.522 -0.0505  0.4005 -0.1655
  607MOL0     N80042   1.056   8.040   1.964  0.1222 -0.1496 -0.1105
  607MOL0     N80043   1.175   8.039   2.007 -0.7052 -0.3080  0.1637
  607MOL0     C80044   2.131   8.079   1.603  0.3086  0.1761  0.8231
  607MOL0     C80045   2.229   8.174   1.584 -1.0107 -0.5266  0.4793
  607MOL0     C80046   2.631   8.350   1.456  0.4151  0.6193  0.1362
  607MOL0     C80047   2.668   8.385   1.331 -0.2568 -0.4051 -0.1142
  607MOL0     C80048   2.792   8.457   1.296 -1.0304  0.2271  0.4046
  607MOL0     C80049   2.879   8.486   1.398 -0.2481 -0.0838 -0.4715
  607MOL0     O80050   3.001   8.548   1.392 -0.5973 -0.1115 -0.3747
  607MOL0     C80051   3.044   8.593   1.260 -0.6385  0.3023  0.3071
  607MOL0     C80052   3.196   8.622   1.260 -0.0041 -0.7067  0.4751
  607MOL0     C80053   3.267   8.489   1.294  0.3735 -0.8670  0.3533
  607MOL0     C80054   3.414   8.485   1.241 -0.0743 -0.5727  0.4227
  607MOL0     C80055   3.506   8.562   1.333  0.3336 -0.4812  0.1052
  607MOL0     C80056   3.595   8.602   1.405  0.3531  0.9933  0.7905
  607MOL0     C80057   2.849   8.441   1.530  0.2846 -0.2143 -0.3809
  607MOL0     C80058   2.729   8.377   1.554  0.6054  1.1367 -0.4202
  607MOL0     H80059   2.495   8.031   1.719 -1.4835 -1.3189 -0.4671
  607MOL0     H80060   2.343   7.832   1.686 -0.0480 -0.0211 -1.6224
  607MOL0     H80061   1.900   7.749   1.637 -0.4463  0.2091 -1.6706
  607MOL0     H80062   1.896   7.919   1.601 -0.7872  0.9251  1.7248
  607MOL0     H80063   1.946   7.981   1.835  1.7355 -1.3469  0.3034
  607MOL0     H80064   1.918   7.810   1.883  2.0462 -0.5010 -1.2246
  607MOL0     H80065   1.710   7.800   1.768  1.2300 -1.5967  1.2599
  607MOL0     H80066   1.720   7.973   1.716 -1.9175 -0.1331  0.0087
  607MOL0     H80067   1.711   7.897   2.015 -1.8220 -1.4236  0.8412
  607MOL0     H80068   1.709   8.058   1.932  1.3248  0.5356 -3.6355
  607MOL0     H80069   1.482   7.957   2.025 -1.2512 -0.7993 -0.2503
  607MOL0     H80070   1.494   7.836   1.904 -0.4774 -0.9792  2.4086
  607MOL0     H80071   1.368   8.004   1.781  0.2944 -1.6271  0.9048
  607MOL0     H80072   1.521   8.042   1.722 -2.5762  0.4026 -1.8440
  607MOL0     H80073   1.561   8.216   1.896  0.1664 -0.5246  1.3247
  607MOL0     H80074   1.422   8.251   1.789 -0.0599  2.5956  1.0400
  607MOL0     H80075   1.375   8.316   2.010 -2.3253  0.5926 -1.1703
  607MOL0     H80076   1.424   8.160   2.074  0.5871  1.9563  0.7422
  607MOL0     H80077   1.166   8.300   1.797  1.2247  1.6339  1.0070
  607MOL0     H80078   0.874   8.288   1.830 -1.1317 -0.2415 -0.6165
  607MOL0     H80079   0.824   8.124   1.876  2.1625 -1.9404 -0.2352
  607MOL0     H80080   0.967   8.073   1.653  1.3912  0.8936  1.0574
  607MOL0     H80081   0.944   8.242   1.610  1.0888 -2.1069 -2.2192
  607MOL0     H80082   0.784   8.144   1.483  1.1545 -0.7420  0.3965
  607MOL0     H80083   0.732   8.036   1.615  0.0961 -0.6775 -1.2781
  607MOL0     H80084   0.632   8.216   1.727 -1.1796 -2.0396 -0.6209
  607MOL0     H80085   0.572   8.203   1.557 -0.5196  2.0886 -0.0667
  607MOL0     H80086   0.473   8.409   1.730 -2.5858  2.7864 -0.1635
  607MOL0     H80087   0.362   8.615   1.760  0.5526  0.3086  1.3624
  607MOL0     H80088   0.312   9.080   1.759 -3.2743  0.1128 -0.3033
  607MOL0     H80089   0.280   9.292   1.760 -3.5367  0.1745 -0.4609
  607MOL0     H80090   0.348   9.649   1.669  0.1206 -0.3846 -0.4064
  607MOL0     H80091   0.351   9.520   1.786 -0.8864  1.9066  1.3721
  607MOL0     H80092   0.142   9.649   1.785  0.6747 -1.3362  1.3304
  607MOL0     H80093   0.092   9.498   1.734 -0.3214  0.3800  0.1879
  607MOL0     H80094   0.092   9.562   1.501 -1.4567 -0.3594  0.5933
  607MOL0     H80095   0.158   9.724   1.542 -0.4725  0.5540  1.9721
  607MOL0     H80096  -0.086   9.666   1.694  2.1033 -1.2602  1.1436
  607MOL0     H80097  -0.028   9.816   1.630 -2.5689  0.0336  0.7524
  607MOL0     H80098  -0.221   9.776   1.519  2.0292  1.1507  1.1624
  607MOL0     H80099  -0.196   9.607   1.491  0.0048 -0.2568 -1.7112
  607MOL0     H80100  -0.174   9.716   1.275  1.1184 -1.0928 -0.7239
  607MOL0     H80101  -0.008   9.662   1.326  2.1039  2.5255 -1.9866
  607MOL0     H80102  -0.122   9.932   1.395  1.5437  1.8620  1.3389
  607MOL0     H80103   0.051   9.892   1.398  1.1855 -0.2300 -2.0133
  607MOL0     H80104   0.034   9.887   1.137 -0.7935 -2.4166  1.8421
  607MOL0     H80105   0.011  10.049   1.215  0.5696 -0.3910  0.6609
  607MOL0     H80106   0.375   9.352   1.344  1.3336  0.4402 -0.0642
  607MOL0     H80107   0.376   9.124   1.325 -4.0350  0.3800 -1.5401
  607MOL0     H80108   0.605   8.786   1.454  1.3601  1.0804  1.8941
  607MOL0     H80109   0.751   8.590   1.461  1.0633  2.4278  1.2566
  607MOL0     H80110   2.037   8.111   1.561  1.0380  2.0120  0.4861
  607MOL0     H80111   2.209   8.265   1.528  0.6070 -0.7715 -0.5659
  607MOL0     H80112   2.606   8.359   1.245  0.3021 -0.3146 -0.5481
  607MOL0     H80113   2.817   8.478   1.192  1.7247  0.8499  1.1161
  607MOL0     H80114   2.987   8.682   1.230  1.3452  1.3946 -0.4283
  607MOL0     H80115   3.023   8.515   1.186 -0.7528 -0.4860  1.1483
  607MOL0     H80116   3.228   8.656   1.161  1.0191 -2.3604  0.1880
  607MOL0     H80117   3.220   8.692   1.341 -0.4427  0.7700 -0.6241
  607MOL0     H80118   3.219   8.405   1.244  0.9885 -1.2750  0.4316
  607MOL0     H80119   3.256   8.454   1.397 -1.6291 -1.3103  0.0225
  607MOL0     H80120   3.463   8.388   1.234  1.8034  0.3813 -0.4376
  607MOL0     H80121   3.416   8.530   1.141  0.7394 -0.0737  0.6475
  607MOL0     H80122   3.673   8.637   1.469  0.2277  3.7107 -0.3845
  607MOL0     H80123   2.912   8.456   1.617 -1.6918 -2.9882  1.6987
  607MOL0     H80124   2.706   8.344   1.655 -1.0748 -0.5969 -1.2992
  608MOL0     O80125  11.098   4.249   5.480 -0.1306  0.6624 -0.4582
  608MOL0     C80126  11.189   4.261   5.563 -0.8628  0.0648 -0.0190
  608MOL0     O80127  11.168   4.254   5.697  0.0062 -0.0633 -0.8831
  608MOL0     C80128  11.039   4.229   5.755 -1.1083 -0.1285  0.1478
  608MOL0     C80129  10.922   4.293   5.716 -0.9347 -0.1778  0.2343
  608MOL0     C80130  10.799   4.281   5.782  0.3956  0.1140 -0.3564
  608MOL0     C80131  10.791   4.204   5.902 -0.1740  0.0660 -0.4765
  608MOL0     O80132  10.671   4.170   5.958  0.3398  0.4367  0.2953
  608MOL0     C80133  10.553   4.227   5.904 -0.0511 -0.6424  0.6564
  608MOL0     C80134  10.439   4.199   6.003 -0.4765  0.0692 -0.1772
  608MOL0     C80135  10.317   4.285   5.957 -0.8325 -0.6306 -0.2563
  608MOL0     C80136  10.196   4.276   6.038 -0.7374  0.2435 -0.1605
  608MOL0     C80137  10.113   4.149   6.026 -0.8845  0.1778  0.9252
  608MOL0     C80138   9.966   4.160   6.082 -0.2123 -0.5247  0.2693
  608MOL0     C80139   9.893   4.031   6.084 -1.5713 -0.3733 -0.3722
  608MOL0     C80140   9.750   4.050   6.131  0.2569  0.2616 -0.1921
  608MOL0     N80141   9.681   3.922   6.143  0.6981 -0.0949  0.0398
  608MOL0     C80142   9.597   3.874   6.052 -0.0338  0.1783  0.0047
  608MOL0     C80143   9.539   3.762   6.105  0.0253 -0.9165 -0.7424
  608MOL0     C80144   9.444   3.678   6.029  0.7109  0.1209 -0.0788
  608MOL0     C80145   9.315   3.646   6.114  0.0014  0.2291 -0.2132
  608MOL0     C80146   9.206   3.580   6.030 -1.2466  0.4896 -0.0439
  608MOL0     C80147   9.090   3.519   6.118  0.1121  0.0846  0.5885
  608MOL0     O80148   8.997   3.450   6.034 -0.3111  0.0516 -0.3702
  608MOL0     C80149   8.903   3.378   6.105 -0.0420  0.2499 -0.0274
  608MOL0     C80150   8.884   3.379   6.242  0.0639  0.1896 -0.7625
  608MOL0     C80151   8.777   3.306   6.302  0.2366 -1.1445 -0.9213
  608MOL0     C80152   8.694   3.229   6.222  0.3418 -0.4954 -0.0030
  608MOL0     C80153   8.588   3.142   6.265 -0.0016  0.0274 -0.1189
  608MOL0     O80154   8.565   3.033   6.190  0.1723 -0.6089  0.2560
  608MOL0     C80155   8.479   2.934   6.221 -0.4075  0.5278  0.0510
  608MOL0     C80156   8.391   2.918   6.329 -0.6503  0.2868  0.7226
  608MOL0     C80157   8.304   2.809   6.339  0.2630  0.0204 -0.0191
  608MOL0     C80158   8.311   2.707   6.237 -0.1753 -0.0171 -0.4125
  608MOL0     O80159   8.227   2.606   6.221 -0.5479  0.1670  0.4978
  608MOL0     C80160   8.129   2.579   6.326 -0.1287 -0.6274 -1.5180
  608MOL0     C80161   7.996   2.640   6.319  0.8076 -0.5140  0.4924
  608MOL0     C80162   7.889   2.584   6.409 -0.3946  0.3777 -1.1292
  608MOL0     C80163   7.750   2.644   6.371  0.4321  0.3581  0.4145
  608MOL0     C80164   7.625   2.571   6.413 -0.6937  0.4328 -0.7509
  608MOL0     C80165   7.507   2.655   6.353 -0.3169 -0.2505 -0.2312
  608MOL0     C80166   7.371   2.590   6.373 -0.8503  0.4539 -0.1669
  608MOL0     C80167   7.243   2.673   6.352 -0.1210  0.1940  0.0149
  608MOL0    Cl80168   7.105   2.574   6.429 -0.0579 -0.0660  0.4692
  608MOL0     C80169   8.417   2.723   6.144  0.7721  1.3905  0.8356
  608MOL0     C80170   8.485   2.839   6.130 -0.5921  0.2406 -0.4072
  608MOL0     O80171   8.528   3.169   6.371 -0.0526 -0.2508 -0.4820
  608MOL0     C80172   8.730   3.226   6.082 -0.3829  0.4517 -0.5174
  608MOL0     C80173   8.822   3.304   6.022  0.5410  0.5689  1.0067
  608MOL0     N80174   9.590   3.746   6.234 -0.0023 -0.1598  0.2156
  608MOL0     N80175   9.682   3.839   6.245  0.8259  0.2670  0.3534
  608MOL0     C80176  10.910   4.140   5.938 -0.1822 -0.4108  0.0606
  608MOL0     C80177  11.037   4.153   5.870  0.7717  0.0003  0.0577
  608MOL0     C80178  11.329   4.293   5.528  0.6363  0.4721  0.9113
  608MOL0     C80179  11.366   4.302   5.387  0.7062  0.2834  0.4049
  608MOL0     C80180  11.501   4.313   5.359 -0.3170 -0.6400 -1.9559
  608MOL0     C80181  11.599   4.333   5.462 -0.3469  0.0525  1.1296
  608MOL0     O80182  11.735   4.341   5.430  0.5866  0.4954  0.0833
  608MOL0     C80183  11.762   4.441   5.336 -0.5882 -0.0166  0.3543
  608MOL0     C80184  11.858   4.381   5.215  0.5977 -0.2501 -0.3765
  608MOL0     C80185  12.001   4.362   5.259 -0.9184 -0.5009 -0.5875
  608MOL0     C80186  12.042   4.225   5.320  0.0987 -0.3492 -0.3005
  608MOL0     C80187  12.181   4.233   5.376  0.0433 -0.0371  0.0609
  608MOL0     C80188  12.295   4.224   5.421  0.6204  0.0953 -0.2282
  608MOL0     C80189  11.560   4.327   5.588  0.8270 -0.1453 -0.7845
  608MOL0     C80190  11.430   4.304   5.626  0.0676 -0.1318  0.4217
  608MOL0     H80191  10.933   4.347   5.622  0.8227  3.2174  2.1818
  608MOL0     H80192  10.709   4.324   5.739  0.3370  1.6505  1.2034
  608MOL0     H80193  10.526   4.187   5.806 -1.4826 -0.1051  0.8000
  608MOL0     H80194  10.568   4.334   5.890 -0.2468 -0.9072 -1.9185
  608MOL0     H80195  10.475   4.222   6.104 -0.7875 -0.0085 -0.0492
  608MOL0     H80196  10.414   4.092   6.003  2.3214 -0.6941  0.8299
  608MOL0     H80197  10.296   4.264   5.852  2.7340 -1.3265 -0.9686
  608MOL0     H80198  10.350   4.389   5.948 -0.3383 -0.7922 -0.3503
  608MOL0     H80199  10.216   4.289   6.145 -0.7777 -1.4170  0.0699
  608MOL0     H80200  10.134   4.362   6.010 -1.7284 -0.8160 -1.2971
  608MOL0     H80201  10.166   4.067   6.075  3.9645  1.3896 -1.6041
  608MOL0     H80202  10.100   4.134   5.918  0.8950 -0.8714  0.8150
  608MOL0     H80203   9.908   4.217   6.009 -0.5242  1.6700  2.1085
  608MOL0     H80204   9.963   4.218   6.175  2.0494 -0.4515  0.3551
  608MOL0     H80205   9.889   3.979   5.988  0.6430  0.6247 -1.0646
  608MOL0     H80206   9.947   3.966   6.153 -0.7604  0.3355 -0.3277
  608MOL0     H80207   9.702   4.114   6.057  1.2617  1.2833 -0.0049
  608MOL0     H80208   9.741   4.103   6.227 -0.5518  2.4385 -1.3977
  608MOL0     H80209   9.586   3.913   5.951 -2.6414 -2.2609 -0.7859
  608MOL0     H80210   9.499   3.592   5.988  3.1309  2.6053 -2.4561
  608MOL0     H80211   9.404   3.730   5.941  0.5892 -1.9283 -1.3030
  608MOL0     H80212   9.273   3.732   6.167  1.7123  0.2334  1.2178
  608MOL0     H80213   9.340   3.574   6.192  0.6645  1.5836  0.8618
  608MOL0     H80214   9.168   3.646   5.952 -0.6574  1.4758  0.4935
  608MOL0     H80215   9.248   3.496   5.974 -0.4094  0.2844  0.8792
  608MOL0     H80216   9.044   3.602   6.172 -0.4808 -0.8305  1.5080
  608MOL0     H80217   9.137   3.449   6.186  0.2892 -0.6622 -0.2831
  608MOL0     H80218   8.952   3.444   6.296  1.1847 -0.8470 -0.9054
  608MOL0     H80219   8.764   3.320   6.409  0.5950  0.2806 -1.0384
  608MOL0     H80220   8.385   3.000   6.400  0.6867  1.0775 -0.0416
  608MOL0     H80221   8.229   2.812   6.418 -0.5178 -0.4050 -0.7334
  608MOL0     H80222   8.166   2.599   6.427 -1.0949 -2.2467 -0.7930
  608MOL0     H80223   8.125   2.470   6.320 -2.1503 -1.0363  2.8698
  608MOL0     H80224   7.970   2.635   6.213 -0.5932  2.8621  0.5607
  608MOL0     H80225   8.003   2.748   6.334 -1.5276  0.2203 -2.6603
  608MOL0     H80226   7.905   2.588   6.517  0.4839  0.5972 -1.2615
  608MOL0     H80227   7.889   2.477   6.385  1.1783  0.1018 -0.0086
  608MOL0     H80228   7.747   2.747   6.410  0.2480 -0.4489  2.6985
  608MOL0     H80229   7.749   2.642   6.262 -0.1970 -0.9247  0.4375
  608MOL0     H80230   7.628   2.563   6.522  1.3312 -1.6592 -0.8952
  608MOL0     H80231   7.621   2.466   6.383  0.4503 -0.2848  1.4086
  608MOL0     H80232   7.528   2.670   6.247 -0.3690 -3.9028 -0.9120
  608MOL0     H80233   7.502   2.747   6.412 -2.9777 -0.4075 -0.1073
  608MOL0     H80234   7.377   2.502   6.308  1.3879 -2.5594  3.6345
  608MOL0     H80235   7.356   2.545   6.472 -0.7168  2.4090  0.7953
  608MOL0     H80236   7.216   2.690   6.248  0.3863  1.5908  0.0884
  608MOL0     H80237   7.245   2.765   6.412 -1.0827  0.3202 -0.1298
  608MOL0     H80238   8.426   2.646   6.067 -1.5175 -0.3118  2.1369
  608MOL0     H80239   8.556   2.849   6.049 -0.9398 -0.7525 -0.8381
  608MOL0     H80240   8.668   3.170   6.013 -0.5956  0.7938 -0.6065
  608MOL0     H80241   8.829   3.308   5.913 -1.7300 -0.2456  0.7840
  608MOL0     H80242  10.913   4.083   6.030  0.0585 -0.0291  0.2920
  608MOL0     H80243  11.130   4.113   5.910  1.7585  1.6840 -0.4815
  608MOL0     H80244  11.291   4.278   5.313 -1.1608 -0.2783  2.3633
  608MOL0     H80245  11.540   4.311   5.258 -1.1733  0.0121 -2.3155
  608MOL0     H80246  11.819   4.524   5.378  2.0730 -0.8345 -1.4191
  608MOL0     H80247  11.671   4.484   5.292  0.9674  3.8525  0.5709
  608MOL0     H80248  11.805   4.295   5.172  0.9726  0.6206 -2.7067
  608MOL0     H80249  11.862   4.466   5.146  0.3868  0.9123  0.9992
  608MOL0     H80250  12.029   4.443   5.327  0.1411 -1.1080 -0.2768
  608MOL0     H80251  12.057   4.381   5.167 -1.4195  1.1146 -0.5908
  608MOL0     H80252  11.967   4.191   5.392  0.1565 -2.3986 -1.1555
  608MOL0     H80253  12.050   4.159   5.233 -1.0919  1.8710 -2.2127
  608MOL0     H80254  12.384   4.181   5.461  0.1216  1.8479  3.1449
  608MOL0     H80255  11.624   4.359   5.670 -1.3813 -1.5898  1.6632
  608MOL0     H80256  11.409   4.279   5.729 -0.5597 -0.2989  0.2575
  609MOL0     O80257   8.890   9.776   7.864 -0.1145 -0.1358 -0.0409
  609MOL0     C80258   9.003   9.744   7.904 -0.0445  0.8312  0.7735
  609MOL0     O80259   9.027   9.659   8.019  0.9188  0.3563 -0.3978
  609MOL0     C80260   8.918   9.622   8.094  1.2008 -0.5101  1.2030
  609MOL0     C80261   8.803   9.563   8.042 -0.2110 -1.0482  0.8397
  609MOL0     C80262   8.700   9.520   8.122 -0.4591 -0.7944 -0.1856
  609MOL0     C80263   8.704   9.534   8.260 -0.3859  0.3348 -0.1068
  609MOL0     O80264   8.616   9.475   8.345 -0.5218  0.4652 -0.1035
  609MOL0     C80265   8.606   9.334   8.306 -1.4945 -0.6418  0.8209
  609MOL0     C80266   8.551   9.250   8.413  0.4257  0.5372 -0.1710
  609MOL0     C80267   8.406   9.297   8.451 -0.1129 -0.3708 -0.1294
  609MOL0     C80268   8.349   9.187   8.540  0.0247  0.4405  0.4211
  609MOL0     C80269   8.204   9.206   8.586 -1.1701 -0.7339 -0.5522
  609MOL0     C80270   8.180   9.339   8.647 -0.0421  0.3474 -0.2179
  609MOL0     C80271   8.046   9.346   8.713  0.4572  0.0035 -0.7300
  609MOL0     C80272   8.046   9.300   8.854 -0.2475  0.4050  0.1014
  609MOL0     N80273   7.913   9.268   8.907 -0.0418 -0.0852 -0.1407
  609MOL0     C80274   7.827   9.340   8.982  0.4540  0.5275 -0.0553
  609MOL0     C80275   7.715   9.263   8.996 -0.0136  0.0500  0.0998
  609MOL0     C80276   7.585   9.287   9.071  0.3155  1.1826 -0.1033
  609MOL0     C80277   7.595   9.385   9.188 -0.0774  0.3172 -0.2398
  609MOL0     C80278   7.472   9.373   9.300  0.0735  0.3068  0.8792
  609MOL0     C80279   7.336   9.417   9.247 -0.6910  0.2120 -0.4654
  609MOL0     O80280   7.230   9.336   9.289 -0.4747 -0.6124  0.6044
  609MOL0     C80281   7.117   9.334   9.214 -0.3073  0.1566 -0.3321
  609MOL0     C80282   7.091   9.431   9.111  0.0918  0.9693 -0.0428
  609MOL0     C80283   6.966   9.440   9.061 -0.0101 -0.2482 -0.1116
  609MOL0     C80284   6.869   9.349   9.084 -0.5489 -1.4279 -0.4751
  609MOL0     C80285   6.732   9.372   9.026  1.1116 -0.0037 -0.0482
  609MOL0     O80286   6.700   9.489   8.960 -0.2079  0.9426 -0.3724
  609MOL0     C80287   6.577   9.506   8.902 -0.0213  0.4754 -0.1153
  609MOL0     C80288   6.488   9.403   8.850  0.6694  0.2433  0.1393
  609MOL0     C80289   6.365   9.440   8.791 -0.3140  0.6516 -0.3587
  609MOL0     C80290   6.327   9.573   8.774 -0.5201 -0.1148 -0.4591
  609MOL0     O80291   6.219   9.618   8.718  0.6412 -0.1310 -0.3529
  609MOL0     C80292   6.135   9.524   8.658 -0.3493  0.0116  0.9221
  609MOL0     C80293   6.004   9.576   8.600 -0.6281 -0.7457  0.1391
  609MOL0     C80294   5.910   9.465   8.551  0.3452 -0.1879 -0.1502
  609MOL0     C80295   5.778   9.534   8.494 -0.6583 -0.0437 -0.1334
  609MOL0     C80296   5.688   9.427   8.428 -0.3739 -0.0976 -0.7746
  609MOL0     C80297   5.575   9.496   8.349 -0.3074 -0.5557  0.2972
  609MOL0     C80298   5.438   9.507   8.420 -0.2895 -0.0144 -0.4537
  609MOL0     C80299   5.447   9.594   8.547  0.3480  0.2822 -0.4037
  609MOL0    Cl80300   5.282   9.624   8.604 -0.7342 -0.0720  0.2470
  609MOL0     C80301   6.419   9.671   8.829 -0.3547 -0.5389  0.7114
  609MOL0     C80302   6.541   9.637   8.895 -0.0826  0.4850 -1.1107
  609MOL0     O80303   6.650   9.286   9.063 -0.3588 -0.7587 -0.0328
  609MOL0     C80304   6.897   9.250   9.185  0.6574 -0.4212 -0.0664
  609MOL0     C80305   7.016   9.249   9.255  0.9916  0.1482  0.6047
  609MOL0     N80306   7.746   9.140   8.931 -0.3618  0.2606 -0.2233
  609MOL0     N80307   7.857   9.145   8.873 -0.3660 -0.2363  0.5309
  609MOL0     C80308   8.818   9.599   8.312  0.4479  0.3499  0.1692
  609MOL0     C80309   8.922   9.645   8.233  0.1359 -0.1703  0.3832
  609MOL0     C80310   9.113   9.802   7.818 -0.2490  0.6093  0.5008
  609MOL0     C80311   9.237   9.736   7.823 -0.0839 -0.0874 -0.1492
  609MOL0     C80312   9.343   9.773   7.748 -1.1474 -0.1229  0.1139
  609MOL0     C80313   9.341   9.895   7.679 -0.2977  0.7259 -0.0930
  609MOL0     O80314   9.442   9.963   7.614  0.2811 -0.2083 -0.5561
  609MOL0     C80315   9.576   9.918   7.635  0.2335  0.1835  0.6692
  609MOL0     C80316   9.660  10.004   7.539 -0.4577  0.4838 -0.7129
  609MOL0     C80317   9.808   9.972   7.548  0.1496  0.0582  0.5806
  609MOL0     C80318   9.841   9.835   7.492  0.1404  0.8187  0.1752
  609MOL0     C80319   9.983   9.826   7.489 -0.0291 -0.7347  1.2018
  609MOL0     C80320  10.100   9.808   7.470  0.3561  0.4638 -0.4565
  609MOL0     C80321   9.220   9.960   7.683  0.6108  0.5989  0.9608
  609MOL0     C80322   9.094   9.914   7.739 -0.5492  0.1080 -0.2623
  609MOL0     H80323   8.810   9.552   7.934  2.6797 -0.0538  0.8514
  609MOL0     H80324   8.619   9.477   8.064 -1.2309  1.0020 -0.5239
  609MOL0     H80325   8.707   9.295   8.295 -1.3901 -1.4422  3.7744
  609MOL0     H80326   8.551   9.325   8.211 -1.2508 -4.4487  0.8569
  609MOL0     H80327   8.618   9.260   8.499 -0.9448 -2.4203  1.3833
  609MOL0     H80328   8.558   9.145   8.385 -1.1189  0.1452  0.7948
  609MOL0     H80329   8.340   9.301   8.364  2.3311  0.1638 -2.0506
  609MOL0     H80330   8.399   9.398   8.492 -1.8283  1.3066 -4.0749
  609MOL0     H80331   8.357   9.097   8.478  0.3473 -2.3477  4.1403
  609MOL0     H80332   8.412   9.179   8.629 -1.1167  1.3038  1.3322
  609MOL0     H80333   8.183   9.120   8.650 -0.7511  0.3545  1.1393
  609MOL0     H80334   8.146   9.203   8.494 -0.4115  0.5694 -1.1064
  609MOL0     H80335   8.184   9.414   8.567  5.6361  1.1321  0.3437
  609MOL0     H80336   8.256   9.362   8.722 -0.0336 -0.7244  0.1235
  609MOL0     H80337   8.017   9.451   8.705  0.8706  0.2023  0.1885
  609MOL0     H80338   7.978   9.290   8.648 -2.2892  1.1980  0.9260
  609MOL0     H80339   8.097   9.379   8.911 -0.4480  0.2663  0.4734
  609MOL0     H80340   8.106   9.209   8.860 -2.3324 -0.9077  2.5871
  609MOL0     H80341   7.826   9.445   9.010  0.8646  0.9294 -1.4449
  609MOL0     H80342   7.541   9.196   9.115  1.0437  1.7852  2.0192
  609MOL0     H80343   7.513   9.330   9.002  0.5819  1.2136 -0.3627
  609MOL0     H80344   7.599   9.485   9.144  4.0689 -0.6536 -2.6274
  609MOL0     H80345   7.688   9.363   9.242  2.3780  1.7593 -3.4988
  609MOL0     H80346   7.467   9.269   9.335 -3.4701 -0.2795 -0.9222
  609MOL0     H80347   7.505   9.439   9.381 -1.6331 -0.2949  2.1398
  609MOL0     H80348   7.352   9.400   9.140  3.0231 -2.5626  0.3214
  609MOL0     H80349   7.306   9.521   9.263 -0.3008  0.3273 -0.4820
  609MOL0     H80350   7.154   9.515   9.085  0.4548  0.1479 -2.0460
  609MOL0     H80351   6.938   9.529   9.005  1.4001  1.0424  1.1579
  609MOL0     H80352   6.523   9.300   8.848  1.7568  0.5787  1.0327
  609MOL0     H80353   6.312   9.358   8.744  0.7236 -0.7722  0.8695
  609MOL0     H80354   6.102   9.454   8.736 -0.7791  0.4699  1.1544
  609MOL0     H80355   6.194   9.474   8.581  0.7058  0.2550  1.5579
  609MOL0     H80356   6.034   9.639   8.516 -1.0002 -3.4147 -2.1463
  609MOL0     H80357   5.953   9.627   8.682  3.0140  0.6626  1.7674
  609MOL0     H80358   5.881   9.402   8.635  2.2311  0.6376  1.1883
  609MOL0     H80359   5.958   9.407   8.471  0.6990 -0.7139  0.4405
  609MOL0     H80360   5.724   9.597   8.565  1.7688  0.3857  1.4553
  609MOL0     H80361   5.812   9.593   8.409 -1.9343  0.3019 -0.4286
  609MOL0     H80362   5.640   9.364   8.504 -2.6238 -0.6637 -2.5439
  609MOL0     H80363   5.746   9.358   8.365 -0.5943 -2.1178  1.1061
  609MOL0     H80364   5.553   9.431   8.264 -2.3193  1.4184 -0.7792
  609MOL0     H80365   5.610   9.591   8.308 -3.7355  0.8517  0.3104
  609MOL0     H80366   5.362   9.556   8.358 -0.6165 -0.6027 -0.5280
  609MOL0     H80367   5.406   9.402   8.428  0.2540 -0.6239 -4.0493
  609MOL0     H80368   5.508   9.680   8.518  1.5366 -1.0069 -1.9117
  609MOL0     H80369   5.498   9.539   8.627 -0.0906 -0.9294 -0.9240
  609MOL0     H80370   6.399   9.778   8.825  1.8319 -0.0678  0.7810
  609MOL0     H80371   6.600   9.713   8.945 -1.6490  2.5080 -2.1961
  609MOL0     H80372   6.814   9.184   9.208 -0.0340  0.8498  1.1896
  609MOL0     H80373   7.037   9.179   9.335  1.3871  3.1074  3.2852
  609MOL0     H80374   8.836   9.593   8.418 -0.2569 -0.8613  0.2270
  609MOL0     H80375   9.010   9.689   8.278  2.8178 -3.0649 -1.5456
  609MOL0     H80376   9.260   9.652   7.888 -0.3284  0.4181  0.6053
  609MOL0     H80377   9.436   9.716   7.748 -1.5083 -0.7473 -1.7442
  609MOL0     H80378   9.585   9.813   7.605 -0.3806 -0.0021  1.1243
  609MOL0     H80379   9.611   9.926   7.738 -1.3918  3.0457  1.1151
  609MOL0     H80380   9.607   9.983   7.446 -1.3383  1.9317 -0.5891
  609MOL0     H80381   9.653  10.111   7.563 -3.5256 -0.0965  1.6593
  609MOL0     H80382   9.849   9.980   7.649  0.8898 -0.0440  0.2983
  609MOL0     H80383   9.864  10.045   7.488 -0.4899  1.1994  1.3566
  609MOL0     H80384   9.809   9.752   7.557 -1.8420  0.5046 -1.0913
  609MOL0     H80385   9.802   9.823   7.390  1.1907  0.4138 -0.1899
  609MOL0     H80386  10.204   9.801   7.443  0.6776 -1.4747  1.0954
  609MOL0     H80387   9.213  10.055   7.630 -1.6637  1.1772  2.1630
  609MOL0     H80388   9.004   9.973   7.732  0.7913  2.1535 -1.2149
  610MOL0     O80389   9.152   0.382   7.118  0.4345 -0.1344 -0.2439
  610MOL0     C80390   9.143   0.490   7.179 -0.0414 -0.3045  0.2653
  610MOL0     O80391   9.027   0.557   7.203  0.8666 -0.6245  0.6781
  610MOL0     C80392   8.903   0.508   7.154  0.9393  0.1751 -0.0222
  610MOL0     C80393   8.803   0.516   7.252 -0.0833 -0.5107 -0.1692
  610MOL0     C80394   8.676   0.471   7.232  0.4569  0.6244  0.7191
  610MOL0     C80395   8.648   0.422   7.099  0.4441 -0.6767  0.8197
  610MOL0     O80396   8.519   0.388   7.055 -0.0320  0.0065  0.1488
  610MOL0     C80397   8.422   0.385   7.160 -0.7480  0.3936 -0.6727
  610MOL0     C80398   8.278   0.363   7.106  0.1749  0.0632 -0.3529
  610MOL0     C80399   8.178   0.360   7.214 -0.0111  0.0240  0.1300
  610MOL0     C80400   8.038   0.373   7.155 -0.2545  1.3192 -0.0771
  610MOL0     C80401   7.930   0.342   7.257  0.0462 -0.1338 -0.5909
  610MOL0     C80402   7.901   0.461   7.346  0.4238  0.9051  0.3772
  610MOL0     C80403   7.781   0.433   7.438 -0.0991 -0.4506 -0.4982
  610MOL0     C80404   7.761   0.549   7.543  0.0205 -0.8485 -0.0447
  610MOL0     N80405   7.643   0.536   7.622  0.7976  0.8548 -0.4281
  610MOL0     C80406   7.610   0.427   7.700  0.4601 -0.0164  0.3554
  610MOL0     C80407   7.474   0.428   7.711 -0.2615 -1.1797  0.0543
  610MOL0     C80408   7.393   0.322   7.776  0.7705 -0.9809 -0.0007
  610MOL0     C80409   7.239   0.347   7.783  0.0402  0.1140 -0.4754
  610MOL0     C80410   7.208   0.459   7.882 -0.3995  0.2558  0.0403
  610MOL0     C80411   7.062   0.493   7.882  0.3170  0.1993 -0.2491
  610MOL0     O80412   6.975   0.386   7.929 -0.3666  0.5511 -0.2521
  610MOL0     C80413   6.844   0.391   7.924 -0.7074  0.2967 -0.5120
  610MOL0     C80414   6.772   0.504   7.887 -0.6711  0.3020  0.2776
  610MOL0     C80415   6.631   0.505   7.880  0.4757 -0.6410  0.3968
  610MOL0     C80416   6.566   0.380   7.892  0.2365 -0.2039  0.7159
  610MOL0     C80417   6.421   0.365   7.890 -0.4820  0.3217  0.5503
  610MOL0     O80418   6.338   0.462   7.833  0.3101  0.1333 -0.0317
  610MOL0     C80419   6.203   0.425   7.817  0.2506 -0.0819 -0.4591
  610MOL0     C80420   6.104   0.499   7.882 -0.1491 -0.2977 -0.1650
  610MOL0     C80421   5.967   0.477   7.862  0.0342  0.5680  0.5564
  610MOL0     C80422   5.929   0.365   7.780 -0.1242 -0.2925  0.5516
  610MOL0     O80423   5.799   0.336   7.733 -0.4724 -0.1466 -0.6388
  610MOL0     C80424   5.697   0.410   7.769  0.5091  0.4524  0.6464
  610MOL0     C80425   5.560   0.352   7.710 -0.4182 -0.0612  0.4244
  610MOL0     C80426   5.452   0.464   7.711  0.5530  0.7305  0.2680
  610MOL0     C80427   5.327   0.399   7.641  0.7637 -0.5683  0.0675
  610MOL0     C80428   5.199   0.471   7.682 -0.4618 -0.5342 -0.4016
  610MOL0     C80429   5.071   0.386   7.659 -1.3856  0.1304  0.6361
  610MOL0     C80430   4.953   0.446   7.722 -0.3319  0.1614 -0.1011
  610MOL0     C80431   4.834   0.460   7.626  0.1746  0.3097 -0.0123
  610MOL0    Cl80432   4.692   0.513   7.716 -0.3254 -0.1517  0.4888
  610MOL0     C80433   6.028   0.289   7.713  0.8794  0.1993  0.3944
  610MOL0     C80434   6.164   0.318   7.738  0.8147  0.2955  1.1614
  610MOL0     O80435   6.382   0.280   7.969 -0.1339 -0.5247  0.1341
  610MOL0     C80436   6.640   0.264   7.917 -0.3767  0.0486 -0.2746
  610MOL0     C80437   6.780   0.271   7.938  1.3232 -0.2193 -0.0907
  610MOL0     N80438   7.423   0.531   7.634  0.7150  0.1299  0.0862
  610MOL0     N80439   7.525   0.586   7.582  0.3848  0.4481  0.7685
  610MOL0     C80440   8.747   0.397   7.003 -0.7021  0.4192 -0.3567
  610MOL0     C80441   8.873   0.439   7.038  0.3399  0.5044  0.9983
  610MOL0     C80442   9.262   0.551   7.231  1.0369  0.0940  0.1502
  610MOL0     C80443   9.256   0.650   7.325 -0.6027 -1.2169 -0.2874
  610MOL0     C80444   9.371   0.710   7.375  0.9582 -0.1923 -0.6627
  610MOL0     C80445   9.494   0.671   7.340  0.0617 -0.5841  0.4817
  610MOL0     O80446   9.596   0.732   7.405  0.1514 -0.4686  0.6380
  610MOL0     C80447   9.731   0.689   7.385  0.0200 -0.1155 -0.0654
  610MOL0     C80448   9.817   0.801   7.435 -0.9141 -0.3061  0.1337
  610MOL0     C80449   9.961   0.800   7.374 -0.5604  1.5446  0.1301
  610MOL0     C80450   9.954   0.844   7.228  0.5509 -0.5869 -0.2783
  610MOL0     C80451  10.089   0.878   7.187  0.1588  0.2665 -0.0738
  610MOL0     C80452  10.197   0.916   7.147 -0.2727  0.0182 -0.7133
  610MOL0     C80453   9.501   0.570   7.248  0.0970 -0.2108  0.2316
  610MOL0     C80454   9.391   0.509   7.191 -0.6536 -0.4865 -0.1148
  610MOL0     H80455   8.842   0.558   7.345 -0.8433  2.1876 -0.9899
  610MOL0     H80456   8.606   0.480   7.314  0.6639  0.9630  0.8623
  610MOL0     H80457   8.419   0.476   7.221  2.9395  2.0072 -2.5681
  610MOL0     H80458   8.435   0.302   7.230 -0.4353  1.9302  1.1770
  610MOL0     H80459   8.277   0.264   7.059 -1.1351 -0.8727  1.5481
  610MOL0     H80460   8.254   0.446   7.037  2.4233  1.1066  0.0227
  610MOL0     H80461   8.194   0.440   7.287  0.4620 -0.7432  0.8820
  610MOL0     H80462   8.182   0.264   7.266  0.2986 -0.6809 -1.1482
  610MOL0     H80463   8.030   0.478   7.126  0.6925  2.6330  3.7904
  610MOL0     H80464   8.017   0.309   7.069 -3.6296  1.0090  0.8097
  610MOL0     H80465   7.950   0.248   7.309 -1.2824 -0.5582 -0.7986
  610MOL0     H80466   7.838   0.314   7.203  0.1344  0.0262 -0.8281
  610MOL0     H80467   7.879   0.551   7.287  1.3606 -0.1465 -1.6512
  610MOL0     H80468   7.989   0.484   7.408  1.0327 -1.8036  0.6367
  610MOL0     H80469   7.698   0.421   7.368 -0.3537 -0.5070 -0.1828
  610MOL0     H80470   7.809   0.343   7.493  0.6599 -0.3526 -0.7013
  610MOL0     H80471   7.752   0.644   7.490  2.3702 -0.6287 -0.1567
  610MOL0     H80472   7.858   0.547   7.594  0.0669 -1.2196 -0.1465
  610MOL0     H80473   7.678   0.355   7.743  4.4263  1.4906 -2.6924
  610MOL0     H80474   7.438   0.297   7.873  2.7310  0.7832 -0.3928
  610MOL0     H80475   7.414   0.233   7.716  0.9397 -1.4865  0.7823
  610MOL0     H80476   7.195   0.254   7.820  0.3476  0.1543 -0.0049
  610MOL0     H80477   7.203   0.353   7.679  2.5972 -0.6752 -1.4922
  610MOL0     H80478   7.238   0.435   7.984 -5.1157 -1.7845  1.2131
  610MOL0     H80479   7.262   0.549   7.850 -0.6833  0.1189 -0.8762
  610MOL0     H80480   7.028   0.519   7.781  1.3341 -1.2668 -1.0010
  610MOL0     H80481   7.038   0.571   7.954  0.6074 -1.8669  2.2257
  610MOL0     H80482   6.835   0.592   7.879  1.4327 -0.7837  3.1222
  610MOL0     H80483   6.568   0.591   7.859  0.4895 -0.6156  0.4584
  610MOL0     H80484   6.127   0.585   7.945 -0.4066  0.1944 -0.7267
  610MOL0     H80485   5.891   0.547   7.896  1.4957  2.2093  0.5849
  610MOL0     H80486   5.708   0.507   7.719  1.9822  0.5076  1.0321
  610MOL0     H80487   5.678   0.420   7.876 -2.7030 -0.1617  0.2487
  610MOL0     H80488   5.530   0.261   7.761 -1.9803 -0.1664 -0.6201
  610MOL0     H80489   5.584   0.327   7.606  0.5273 -1.0716  0.8803
  610MOL0     H80490   5.480   0.551   7.653 -4.4748  2.3851 -0.1828
  610MOL0     H80491   5.437   0.494   7.815  3.1587  1.1366  0.5986
  610MOL0     H80492   5.333   0.420   7.533  1.2889  1.7625  0.4826
  610MOL0     H80493   5.313   0.296   7.674 -0.9737 -0.5514 -0.5315
  610MOL0     H80494   5.193   0.564   7.624  0.6590  0.2676  0.7038
  610MOL0     H80495   5.195   0.487   7.790 -2.6646 -1.4568 -0.3009
  610MOL0     H80496   5.107   0.289   7.694  2.2112  1.5022  1.0782
  610MOL0     H80497   5.050   0.363   7.554 -2.5692  2.5812  0.2707
  610MOL0     H80498   4.936   0.382   7.809 -0.5474 -0.1388 -0.3634
  610MOL0     H80499   4.971   0.550   7.753 -1.8522  0.1764  0.8607
  610MOL0     H80500   4.813   0.368   7.571  0.7992  0.5492 -0.6642
  610MOL0     H80501   4.857   0.533   7.548 -1.2949 -0.9179 -1.7012
  610MOL0     H80502   5.992   0.220   7.638  0.9222  1.2742 -0.6476
  610MOL0     H80503   6.237   0.260   7.682 -0.5742 -3.6357  2.9838
  610MOL0     H80504   6.596   0.165   7.926  0.8515 -0.4452  0.6065
  610MOL0     H80505   6.829   0.181   7.972 -1.3913 -1.5444  0.6197
  610MOL0     H80506   8.718   0.345   6.912 -3.3047 -1.5380  1.4121
  610MOL0     H80507   8.957   0.430   6.970  0.4074 -0.2172  1.1708
  610MOL0     H80508   9.158   0.685   7.358 -0.7926 -1.7574 -0.2658
  610MOL0     H80509   9.351   0.786   7.450 -2.7074 -3.7234  2.4075
  610MOL0     H80510   9.754   0.667   7.280  1.6209 -0.4549  0.3319
  610MOL0     H80511   9.741   0.603   7.451  1.9010  0.1988  0.1128
  610MOL0     H80512   9.765   0.893   7.406  1.0986  0.4213 -1.4274
  610MOL0     H80513   9.833   0.787   7.543  2.2577 -3.0615 -0.5640
  610MOL0     H80514   9.996   0.697   7.380 -1.1698  1.3843  1.4640
  610MOL0     H80515  10.034   0.864   7.423  0.8310  0.1711 -0.0746
  610MOL0     H80516   9.928   0.759   7.163 -0.1646 -0.6556  0.0836
  610MOL0     H80517   9.887   0.929   7.217 -0.5654 -0.7394  3.6449
  610MOL0     H80518  10.293   0.953   7.117  0.2203 -0.7843 -0.1602
  610MOL0     H80519   9.593   0.528   7.208  2.1560  2.5683  1.7143
  610MOL0     H80520   9.406   0.430   7.118 -0.4375 -0.9379  0.4203
  611MOL0     O80521   8.510   2.075   7.091 -0.2020  0.5201 -0.2571
  611MOL0     C80522   8.482   2.077   6.975 -0.4009 -0.6049 -0.4647
  611MOL0     O80523   8.355   2.073   6.925  0.1500  0.0818  0.4298
  611MOL0     C80524   8.244   2.055   7.003  0.6140  0.0434 -0.0046
  611MOL0     C80525   8.243   2.014   7.141  0.1273 -1.2169 -1.0822
  611MOL0     C80526   8.120   1.980   7.198 -0.1875  0.0646  0.3078
  611MOL0     C80527   8.004   1.976   7.130  0.1222 -0.0947 -0.4050
  611MOL0     O80528   7.881   1.957   7.192 -0.0380  0.2374  1.6104
  611MOL0     C80529   7.878   1.936   7.329 -0.2038 -0.4189  0.1695
  611MOL0     C80530   7.729   1.921   7.357  0.1157 -0.0495 -0.5291
  611MOL0     C80531   7.676   1.783   7.301  0.5052  0.6123 -0.1640
  611MOL0     C80532   7.522   1.787   7.324 -0.2704  0.5899 -0.7833
  611MOL0     C80533   7.468   1.653   7.263 -0.4465 -1.0118  0.2483
  611MOL0     C80534   7.323   1.647   7.214 -0.0069  0.0771 -0.0972
  611MOL0     C80535   7.225   1.652   7.329  1.0445 -0.1335  0.1246
  611MOL0     C80536   7.201   1.522   7.414  0.3755  0.2734 -0.4545
  611MOL0     N80537   7.127   1.419   7.340  0.0597 -0.4085 -0.1914
  611MOL0     C80538   6.993   1.417   7.323  0.5307 -0.5525 -0.3448
  611MOL0     C80539   6.967   1.300   7.265 -0.3829  1.1198  0.4226
  611MOL0     C80540   6.834   1.250   7.212  1.1930 -0.2821  0.8872
  611MOL0     C80541   6.762   1.136   7.284  0.4885 -0.6518 -0.6723
  611MOL0     C80542   6.838   1.010   7.301  0.4611  0.3858 -0.8733
  611MOL0     C80543   6.739   0.892   7.324  0.4456  0.1733  0.0961
  611MOL0     O80544   6.688   0.852   7.199 -0.3861 -0.2263  0.0984
  611MOL0     C80545   6.549   0.869   7.169 -0.1860  0.3794 -0.5148
  611MOL0     C80546   6.511   0.844   7.040  1.0004 -0.4670 -0.4138
  611MOL0     C80547   6.378   0.845   7.000  0.1268 -0.4237 -0.0776
  611MOL0     C80548   6.275   0.872   7.095 -0.2158 -0.0324 -0.1764
  611MOL0     C80549   6.133   0.894   7.046  0.0775  0.1481  1.0952
  611MOL0     O80550   6.038   0.922   7.141  0.0888  0.4232 -0.4219
  611MOL0     C80551   5.908   0.951   7.107 -0.0473  0.4204 -0.0852
  611MOL0     C80552   5.859   1.064   7.039 -0.4196  0.5930  0.2330
  611MOL0     C80553   5.731   1.072   7.001  0.6041  0.2250 -0.2883
  611MOL0     C80554   5.632   0.977   7.027  0.8781 -0.2839 -0.4733
  611MOL0     O80555   5.502   0.993   6.981 -0.8997  0.1513  0.0026
  611MOL0     C80556   5.402   0.884   6.980  1.1760 -0.1234  0.1708
  611MOL0     C80557   5.292   0.923   6.882 -0.2197 -0.2184 -0.1165
  611MOL0     C80558   5.162   0.934   6.956  0.7341  0.3053 -0.2056
  611MOL0     C80559   5.043   0.970   6.869  0.0133  0.7976  0.5551
  611MOL0     C80560   4.929   1.029   6.940 -0.1482  0.1080  0.5101
  611MOL0     C80561   4.798   0.981   6.897  0.0696 -0.0035 -0.2995
  611MOL0     C80562   4.678   1.056   6.975  0.2563  0.2345 -0.7498
  611MOL0     C80563   4.659   1.012   7.124 -0.5567  0.2896 -0.3429
  611MOL0    Cl80564   4.801   1.043   7.225  0.5445 -0.2632 -0.1684
  611MOL0     C80565   5.672   0.863   7.099  0.9137 -0.2819  0.9496
  611MOL0     C80566   5.808   0.854   7.136  0.5296 -0.0710 -1.0116
  611MOL0     O80567   6.110   0.883   6.924 -0.0535 -0.0765 -0.2209
  611MOL0     C80568   6.309   0.896   7.233 -0.1545  0.5252  0.3804
  611MOL0     C80569   6.447   0.883   7.264  0.0404 -0.1831  0.4139
  611MOL0     N80570   7.085   1.231   7.248  0.2404 -0.2714 -0.1588
  611MOL0     N80571   7.185   1.308   7.286  0.3011 -0.2994  0.0663
  611MOL0     C80572   8.004   2.032   7.005 -0.3416  0.8646 -0.4041
  611MOL0     C80573   8.115   2.064   6.944 -0.4174 -0.1702  0.2995
  611MOL0     C80574   8.591   2.123   6.894  0.1891  0.2065  0.2027
  611MOL0     C80575   8.722   2.154   6.947  0.0052  0.3093  0.5149
  611MOL0     C80576   8.822   2.212   6.864  0.2370  0.3592  0.8045
  611MOL0     C80577   8.801   2.238   6.730  0.9850 -0.2860 -0.3764
  611MOL0     O80578   8.896   2.288   6.653  0.2070  0.7922  0.7591
  611MOL0     C80579   8.995   2.185   6.632  0.0045 -0.5891  0.0004
  611MOL0     C80580   9.091   2.223   6.525 -0.1066  0.3452 -0.3898
  611MOL0     C80581   9.181   2.340   6.590 -0.5660  0.5296  0.8667
  611MOL0     C80582   9.298   2.387   6.495  0.5883 -0.3916 -0.8500
  611MOL0     C80583   9.391   2.293   6.467 -0.8442  0.2417  0.4497
  611MOL0     C80584   9.476   2.201   6.441 -0.3181  0.1582 -0.3801
  611MOL0     C80585   8.670   2.205   6.681 -0.7531 -0.2243 -0.2037
  611MOL0     C80586   8.574   2.148   6.759 -0.0179  0.1626  0.1791
  611MOL0     H80587   8.330   1.997   7.204 -0.8320 -3.7795 -0.3335
  611MOL0     H80588   8.129   1.956   7.303  2.3668 -0.3395  0.0702
  611MOL0     H80589   7.920   2.024   7.378  0.4444 -1.5006  1.6532
  611MOL0     H80590   7.936   1.850   7.366  3.2006  1.5406 -0.1625
  611MOL0     H80591   7.673   2.009   7.323  0.4233 -0.1266 -1.2616
  611MOL0     H80592   7.717   1.923   7.465 -1.8011  0.8818 -0.7107
  611MOL0     H80593   7.715   1.700   7.359 -4.5511 -0.8031  1.7244
  611MOL0     H80594   7.705   1.774   7.195 -0.5307  1.0900 -0.5014
  611MOL0     H80595   7.495   1.801   7.429 -0.1721 -0.8320 -0.5450
  611MOL0     H80596   7.473   1.872   7.274  1.0424  1.5149 -0.5360
  611MOL0     H80597   7.488   1.571   7.333 -2.7803 -2.4175 -0.6131
  611MOL0     H80598   7.528   1.635   7.174  1.1124 -0.9227  1.2568
  611MOL0     H80599   7.313   1.556   7.155  0.5451 -0.0126 -0.0546
  611MOL0     H80600   7.309   1.725   7.138  0.0914 -0.4601 -0.6772
  611MOL0     H80601   7.260   1.727   7.400 -1.2066  2.4911 -1.3338
  611MOL0     H80602   7.126   1.688   7.300 -0.5983 -1.3036  3.6612
  611MOL0     H80603   7.152   1.559   7.504  0.7740  2.6508 -1.1442
  611MOL0     H80604   7.301   1.490   7.445  0.1073 -0.3167 -0.1701
  611MOL0     H80605   6.922   1.493   7.355 -1.1627 -1.2099 -2.2578
  611MOL0     H80606   6.838   1.236   7.104 -1.5895  0.8583  0.5692
  611MOL0     H80607   6.765   1.332   7.232 -0.7036 -1.6507  0.2190
  611MOL0     H80608   6.676   1.116   7.218  0.6679 -0.2214 -1.0406
  611MOL0     H80609   6.738   1.167   7.386  0.6087 -2.7619  0.0398
  611MOL0     H80610   6.890   0.998   7.205  0.8573  2.9566 -1.0588
  611MOL0     H80611   6.908   1.004   7.385 -2.7488 -0.7918  1.9574
  611MOL0     H80612   6.675   0.912   7.411 -0.2044  0.0215 -0.3416
  611MOL0     H80613   6.802   0.813   7.366 -0.1735 -1.4747 -1.9209
  611MOL0     H80614   6.582   0.808   6.966  3.2032  0.2576  1.2309
  611MOL0     H80615   6.344   0.836   6.897  1.1343  3.1915 -0.8890
  611MOL0     H80616   5.924   1.146   7.011  0.7047  0.5131  2.3465
  611MOL0     H80617   5.689   1.151   6.938 -0.3186 -0.5674 -0.6925
  611MOL0     H80618   5.371   0.871   7.085  1.3630  1.6866  0.4898
  611MOL0     H80619   5.448   0.791   6.948  0.2950 -0.5472  0.1217
  611MOL0     H80620   5.294   0.845   6.805  0.2462  0.3885 -0.7248
  611MOL0     H80621   5.311   1.024   6.846 -1.8626  0.7270  1.5289
  611MOL0     H80622   5.176   1.010   7.032 -0.4214 -1.7441  2.1915
  611MOL0     H80623   5.155   0.839   7.009  1.5318 -0.4051 -1.3100
  611MOL0     H80624   5.084   1.050   6.806 -0.2683 -0.1912 -0.9198
  611MOL0     H80625   5.013   0.890   6.801 -1.9910  2.1267 -0.2186
  611MOL0     H80626   4.919   1.138   6.942 -0.5471  0.0718  1.1543
  611MOL0     H80627   4.941   0.988   7.041 -0.2554 -0.9224  0.1147
  611MOL0     H80628   4.783   0.874   6.913  1.4450 -0.3106 -0.9010
  611MOL0     H80629   4.786   0.996   6.790  0.6740  0.5137 -0.3020
  611MOL0     H80630   4.706   1.162   6.977  0.1426  0.2796 -1.2718
  611MOL0     H80631   4.582   1.037   6.925 -1.1230  1.4202  1.2632
  611MOL0     H80632   4.632   0.906   7.130 -0.8630  0.3685 -0.2876
  611MOL0     H80633   4.577   1.078   7.156 -0.9307  1.2401 -2.9944
  611MOL0     H80634   5.592   0.795   7.127  0.0852  0.9429  1.6735
  611MOL0     H80635   5.853   0.767   7.182 -0.1287  0.1628  0.1012
  611MOL0     H80636   6.233   0.917   7.307  0.4634  0.5097  1.0260
  611MOL0     H80637   6.467   0.887   7.371 -0.8972  1.4239  0.5735
  611MOL0     H80638   7.916   2.054   6.946  0.9794  0.3404 -2.6898
  611MOL0     H80639   8.097   2.097   6.842 -1.6842  1.9563  1.1477
  611MOL0     H80640   8.746   2.140   7.052  0.0100  1.1878  0.6407
  611MOL0     H80641   8.921   2.234   6.902  0.8527  1.1116 -1.1392
  611MOL0     H80642   8.952   2.088   6.606 -2.8419  0.1506  1.5385
  611MOL0     H80643   9.046   2.170   6.728 -0.7742  1.9080  0.8731
  611MOL0     H80644   9.149   2.134   6.498  0.4252  0.3420  0.7047
  611MOL0     H80645   9.046   2.258   6.432 -1.9541 -0.9809 -0.0409
  611MOL0     H80646   9.226   2.302   6.683 -3.5966  0.6770  2.5256
  611MOL0     H80647   9.128   2.433   6.613 -0.4114  0.0347  3.6514
  611MOL0     H80648   9.274   2.450   6.410  0.6211  1.5563  0.5105
  611MOL0     H80649   9.357   2.448   6.565  2.0757 -2.5166 -0.1235
  611MOL0     H80650   9.553   2.127   6.437  1.6642  2.0176  0.8571
  611MOL0     H80651   8.649   2.234   6.579  1.6692  1.7194 -0.2337
  611MOL0     H80652   8.478   2.138   6.710  0.5902  0.3488 -1.0903
  612MOL0     O80653   5.704   5.822   6.746 -0.5047 -1.0176  0.1658
  612MOL0     C80654   5.744   5.904   6.666 -0.1446 -0.3334  0.0868
  612MOL0     O80655   5.657   5.989   6.604  0.0992 -0.2048 -0.5756
  612MOL0     C80656   5.524   5.997   6.652  0.5078 -0.3997 -0.4129
  612MOL0     C80657   5.482   6.015   6.786 -0.7007 -0.6957 -0.2092
  612MOL0     C80658   5.348   6.014   6.829  0.0366 -0.8501  0.0399
  612MOL0     C80659   5.245   5.986   6.734  0.3586 -0.2756 -0.4050
  612MOL0     O80660   5.113   5.979   6.779 -0.1236 -0.1455 -0.1161
  612MOL0     C80661   5.015   6.040   6.692 -0.0840 -0.8513  0.5678
  612MOL0     C80662   4.883   6.059   6.767  0.1743  0.1920 -0.7369
  612MOL0     C80663   4.777   6.122   6.678 -0.3381 -0.3283 -0.2952
  612MOL0     C80664   4.646   6.131   6.752  0.7198 -0.2841  0.5796
  612MOL0     C80665   4.534   6.191   6.667  0.4471  0.4879  0.6178
  612MOL0     C80666   4.507   6.124   6.527  0.4778  0.1739  0.8335
  612MOL0     C80667   4.365   6.149   6.479  0.2015 -0.6086 -0.5298
  612MOL0     C80668   4.255   6.057   6.536 -0.2274 -0.3812  0.9489
  612MOL0     N80669   4.118   6.116   6.509 -0.2271  0.3280 -0.1252
  612MOL0     C80670   4.014   6.052   6.448  0.5206  0.0897 -0.0275
  612MOL0     C80671   3.909   6.144   6.427 -0.2622 -0.0082 -0.0962
  612MOL0     C80672   3.772   6.114   6.364 -0.3181 -0.1753  0.2773
  612MOL0     C80673   3.657   6.206   6.410  1.0232 -0.3447  0.4295
  612MOL0     C80674   3.535   6.192   6.331 -1.1352 -0.8465 -0.7063
  612MOL0     C80675   3.466   6.332   6.319 -1.0022  0.6302  0.5100
  612MOL0     O80676   3.352   6.308   6.231 -0.3604 -0.5099 -0.4350
  612MOL0     C80677   3.260   6.407   6.226  0.4062  0.1370  0.1336
  612MOL0     C80678   3.127   6.363   6.209  0.0388 -0.5227  0.6420
  612MOL0     C80679   3.023   6.457   6.202  0.5488 -0.6642  0.7154
  612MOL0     C80680   3.046   6.592   6.217  0.0929 -0.3471  0.8064
  612MOL0     C80681   2.939   6.689   6.214  0.1762  0.0986 -0.2214
  612MOL0     O80682   2.813   6.647   6.231 -0.0424 -0.6395  0.3143
  612MOL0     C80683   2.702   6.723   6.200 -0.8669 -0.2885  0.3471
  612MOL0     C80684   2.602   6.651   6.143  0.2950 -0.5804  0.3154
  612MOL0     C80685   2.485   6.711   6.098  0.7976 -0.9085  0.2600
  612MOL0     C80686   2.464   6.849   6.113 -0.2248  0.6978 -0.1256
  612MOL0     O80687   2.363   6.922   6.058  0.1013  0.1830  0.1530
  612MOL0     C80688   2.261   6.869   5.968 -0.1308 -0.6372  0.7854
  612MOL0     C80689   2.190   6.989   5.894  0.1122  0.0993 -0.3008
  612MOL0     C80690   2.283   7.068   5.799 -0.1510  0.9323  0.4064
  612MOL0     C80691   2.298   6.986   5.662  0.9370  0.1595  0.6113
  612MOL0     C80692   2.386   7.069   5.560 -0.4769  0.6468 -0.0406
  612MOL0     C80693   2.317   7.202   5.512  0.0237 -0.0274  0.4832
  612MOL0     C80694   2.184   7.172   5.442 -0.6506  0.0822  0.0020
  612MOL0     C80695   2.133   7.295   5.354 -0.0476 -0.4351  0.1651
  612MOL0    Cl80696   2.087   7.442   5.440  0.3960 -0.2793 -0.0838
  612MOL0     C80697   2.562   6.918   6.182 -0.5576 -0.2637  0.6141
  612MOL0     C80698   2.684   6.862   6.220  0.5316  0.2136  0.5134
  612MOL0     O80699   2.966   6.806   6.199 -0.0029 -0.2563 -0.1601
  612MOL0     C80700   3.176   6.631   6.225 -0.5490  0.3315  0.2835
  612MOL0     C80701   3.283   6.542   6.236 -0.3020  0.1098  0.0736
  612MOL0     N80702   3.960   6.256   6.476 -0.6258 -0.2326 -0.0071
  612MOL0     N80703   4.079   6.241   6.529 -0.0241  0.1239 -0.1411
  612MOL0     C80704   5.288   5.978   6.604 -0.2712 -0.1388  0.7909
  612MOL0     C80705   5.417   5.992   6.556 -0.3675 -0.2371  0.5546
  612MOL0     C80706   5.883   5.903   6.614  0.2792  1.1056  0.4202
  612MOL0     C80707   5.909   5.939   6.483  0.2736 -1.3500 -0.0783
  612MOL0     C80708   6.034   5.931   6.432 -0.2001  0.5633  0.1303
  612MOL0     C80709   6.147   5.883   6.507  0.8414 -0.0817 -0.2399
  612MOL0     O80710   6.265   5.887   6.449  0.2665 -0.0182  0.3782
  612MOL0     C80711   6.363   5.815   6.519  0.7698 -0.2355 -0.8231
  612MOL0     C80712   6.487   5.800   6.437 -0.4724 -0.1047 -0.3113
  612MOL0     C80713   6.585   5.702   6.511  0.0775 -1.1721 -0.6875
  612MOL0     C80714   6.723   5.679   6.440  1.1581  0.2290 -0.1201
  612MOL0     C80715   6.788   5.800   6.407  0.6724 -0.0286  0.3769
  612MOL0     C80716   6.831   5.913   6.374  0.2395  1.0515  0.5181
  612MOL0     C80717   6.117   5.840   6.639  0.0491 -0.7140  0.0922
  612MOL0     C80718   5.985   5.846   6.690  0.4054 -0.4431  0.7077
  612MOL0     H80719   5.565   6.024   6.855 -0.4083  2.9650 -0.8354
  612MOL0     H80720   5.326   6.033   6.933  0.8661 -0.1171  0.1023
  612MOL0     H80721   5.000   5.987   6.597 -1.2949  0.0477  0.2372
  612MOL0     H80722   5.041   6.140   6.655 -2.1369  0.4923  2.5127
  612MOL0     H80723   4.891   6.125   6.854  1.9888  0.9424 -1.4137
  612MOL0     H80724   4.854   5.960   6.801 -2.3023  0.9379 -0.4691
  612MOL0     H80725   4.773   6.063   6.587 -1.3798 -0.8899  0.1020
  612MOL0     H80726   4.811   6.222   6.649  3.9737 -1.8581 -1.2791
  612MOL0     H80727   4.619   6.025   6.762  1.3256 -0.3671  1.3906
  612MOL0     H80728   4.658   6.176   6.850  0.8240  2.4229 -0.5849
  612MOL0     H80729   4.554   6.297   6.647 -0.8964  0.2679 -2.4761
  612MOL0     H80730   4.444   6.181   6.728 -0.0922 -2.4546 -0.4957
  612MOL0     H80731   4.523   6.018   6.549  2.0906  0.7180  2.5501
  612MOL0     H80732   4.590   6.148   6.460  2.0726 -0.8885  2.3552
  612MOL0     H80733   4.337   6.252   6.501 -1.2304 -1.2185  0.6440
  612MOL0     H80734   4.368   6.150   6.370  1.3521  1.2278 -0.5313
  612MOL0     H80735   4.268   6.051   6.644  1.2807  2.6117  1.0215
  612MOL0     H80736   4.266   5.955   6.497 -0.5442 -1.4035  3.3607
  612MOL0     H80737   4.018   5.949   6.412 -0.7632  0.0672 -0.1734
  612MOL0     H80738   3.753   6.007   6.375  2.9865 -1.4362 -3.6461
  612MOL0     H80739   3.769   6.113   6.254 -6.5038 -1.0667  0.1016
  612MOL0     H80740   3.694   6.309   6.418  1.5175 -0.3647 -1.3001
  612MOL0     H80741   3.636   6.175   6.513  1.0763 -1.2990  0.1584
  612MOL0     H80742   3.566   6.150   6.234  1.9455  0.7141 -0.5038
  612MOL0     H80743   3.465   6.114   6.360  0.5271 -3.4036 -2.9813
  612MOL0     H80744   3.531   6.409   6.276 -3.9835  3.2105  0.2857
  612MOL0     H80745   3.424   6.372   6.412 -2.1243  0.4045  0.1084
  612MOL0     H80746   3.112   6.259   6.185 -0.2758  0.1392 -2.4728
  612MOL0     H80747   2.922   6.418   6.193  0.6822 -0.8926  0.1764
  612MOL0     H80748   2.613   6.545   6.120 -0.2666 -0.1556 -2.1805
  612MOL0     H80749   2.409   6.661   6.041 -0.5931  0.0535  1.2059
  612MOL0     H80750   2.183   6.824   6.031 -2.2556  0.7545 -0.7137
  612MOL0     H80751   2.296   6.793   5.898  4.1659  1.6846  0.0291
  612MOL0     H80752   2.157   7.059   5.972  2.3273 -1.2663  2.0342
  612MOL0     H80753   2.103   6.952   5.839 -0.9646 -0.7316  1.8533
  612MOL0     H80754   2.380   7.077   5.850  0.3937  0.8882 -0.6055
  612MOL0     H80755   2.237   7.165   5.778  0.1120  1.5921  2.6222
  612MOL0     H80756   2.344   6.888   5.672  0.4591 -0.0043  1.2765
  612MOL0     H80757   2.202   6.961   5.616  2.4340 -2.1526 -1.4624
  612MOL0     H80758   2.401   6.999   5.478 -0.6689 -2.4977  2.4345
  612MOL0     H80759   2.483   7.095   5.604 -0.0383 -0.7607 -0.1475
  612MOL0     H80760   2.382   7.260   5.446 -0.5394  0.2726  0.1832
  612MOL0     H80761   2.291   7.272   5.592  0.6361  0.8388 -0.0618
  612MOL0     H80762   2.203   7.089   5.374  1.0765  0.6970 -0.3322
  612MOL0     H80763   2.110   7.135   5.513 -1.2308 -1.3779 -1.3129
  612MOL0     H80764   2.046   7.257   5.300  0.7841  2.4946 -3.7029
  612MOL0     H80765   2.214   7.319   5.284  0.8871 -0.2210  1.2873
  612MOL0     H80766   2.559   7.024   6.202  3.0516 -0.0669  0.8019
  612MOL0     H80767   2.758   6.926   6.268  1.6252  0.2506 -1.1072
  612MOL0     H80768   3.217   6.731   6.228  3.6686 -1.2083  0.5967
  612MOL0     H80769   3.381   6.580   6.262 -0.4700 -1.1891  2.9022
  612MOL0     H80770   5.225   5.967   6.516  1.3484  1.7265 -0.7081
  612MOL0     H80771   5.444   5.996   6.451  2.1024  0.7828  1.1579
  612MOL0     H80772   5.827   5.976   6.422 -0.1074  0.5618  1.4713
  612MOL0     H80773   6.057   5.969   6.333  0.1010 -0.0258 -0.0319
  612MOL0     H80774   6.330   5.714   6.543  1.6080 -0.4219 -0.4172
  612MOL0     H80775   6.392   5.862   6.613 -0.6649  0.6103 -0.7685
  612MOL0     H80776   6.483   5.757   6.337  1.5045  0.2406 -0.5901
  612MOL0     H80777   6.526   5.902   6.429 -1.3608  0.2702  0.0654
  612MOL0     H80778   6.534   5.606   6.526 -0.1980 -0.7237  1.6394
  612MOL0     H80779   6.605   5.733   6.614  2.1181 -0.4362 -1.2679
  612MOL0     H80780   6.783   5.617   6.508  2.2868  0.2810 -1.0503
  612MOL0     H80781   6.708   5.622   6.348 -0.0621  0.7502 -0.2560
  612MOL0     H80782   6.883   6.007   6.366  1.6148  0.2314 -0.4341
  612MOL0     H80783   6.195   5.798   6.702  2.4284  0.4795 -1.9030
  612MOL0     H80784   5.971   5.804   6.789  3.2660  0.7861  1.7445
  613MOL0     O80785   2.851  11.181   6.756  0.0818  0.7293  0.9505
  613MOL0     C80786   2.770  11.266   6.728  1.6076  0.1850  0.0342
  613MOL0     O80787   2.793  11.407   6.722  0.3573  0.2563 -0.0507
  613MOL0     C80788   2.906  11.439   6.783 -1.0218 -0.3014 -0.7021
  613MOL0     C80789   2.901  11.527   6.898  0.4676 -0.0973  0.4121
  613MOL0     C80790   3.006  11.575   6.974 -0.0335  0.6416 -0.4570
  613MOL0     C80791   3.138  11.544   6.925 -0.0760 -0.5606 -0.5796
  613MOL0     O80792   3.238  11.585   7.004  0.0894 -0.1565  0.2216
  613MOL0     C80793   3.371  11.540   6.985 -0.6880  0.5726  0.5158
  613MOL0     C80794   3.448  11.626   7.082  0.2723  0.7608 -0.8885
  613MOL0     C80795   3.592  11.606   7.058 -0.1043  0.4507 -0.7410
  613MOL0     C80796   3.667  11.698   7.157 -0.3222 -0.5783  0.0709
  613MOL0     C80797   3.827  11.691   7.161  0.3659 -0.3447 -0.8639
  613MOL0     C80798   3.886  11.785   7.267 -0.2545  0.2109  0.3163
  613MOL0     C80799   3.867  11.735   7.407 -0.7141 -0.7268  0.2706
  613MOL0     C80800   3.960  11.798   7.511 -0.2887 -0.5473 -0.0434
  613MOL0     N80801   3.896  11.926   7.544  0.1874  0.2797  0.1810
  613MOL0     C80802   3.814  11.946   7.650  0.5269  0.6712  0.6423
  613MOL0     C80803   3.770  12.077   7.638 -0.1079 -0.8904  0.5235
  613MOL0     C80804   3.675  12.146   7.733 -0.3872  0.2706  0.9789
  613MOL0     C80805   3.532  12.098   7.706  0.0368  0.0756 -0.4343
  613MOL0     C80806   3.446  12.120   7.838  0.5428 -0.5751  0.1084
  613MOL0     C80807   3.416  12.273   7.842  0.3832  0.0410 -0.1775
  613MOL0     O80808   3.322  12.313   7.736 -0.0438 -0.3922 -0.4271
  613MOL0     C80809   3.189  12.295   7.742  0.5728 -0.3431 -0.2148
  613MOL0     C80810   3.113  12.208   7.834  0.6408 -1.3522 -0.1430
  613MOL0     C80811   2.973  12.199   7.820 -1.0489 -0.0132 -0.1567
  613MOL0     C80812   2.905  12.284   7.727  0.2359 -0.5707 -0.1324
  613MOL0     C80813   2.755  12.301   7.742  0.0450 -0.7928  1.0711
  613MOL0     O80814   2.686  12.344   7.631  0.5059  0.6396 -0.1361
  613MOL0     C80815   2.554  12.310   7.626  0.3228 -1.0010 -0.4018
  613MOL0     C80816   2.469  12.421   7.637  0.2385  0.2770 -0.1291
  613MOL0     C80817   2.330  12.411   7.611  0.3584 -0.2636 -0.5312
  613MOL0     C80818   2.268  12.288   7.619  0.3763  0.5784 -0.1960
  613MOL0     O80819   2.128  12.262   7.612 -0.0471 -0.0154  1.1232
  613MOL0     C80820   2.032  12.377   7.615  0.2092  0.2605 -0.5704
  613MOL0     C80821   1.892  12.307   7.590 -0.6914 -0.2630  0.1570
  613MOL0     C80822   1.781  12.371   7.672  0.0998  0.0254 -0.6920
  613MOL0     C80823   1.646  12.290   7.646  0.5706 -0.3904 -0.7560
  613MOL0     C80824   1.524  12.364   7.711 -0.3581 -0.0753  0.4355
  613MOL0     C80825   1.538  12.340   7.857 -0.8065  0.1376 -0.2530
  613MOL0     C80826   1.412  12.408   7.918  0.1167 -0.5083 -0.1148
  613MOL0     C80827   1.417  12.413   8.075  0.2850 -0.0639  0.1758
  613MOL0    Cl80828   1.456  12.252   8.146 -0.0123 -0.0648  0.3486
  613MOL0     C80829   2.353  12.174   7.612  0.0052  0.2231 -0.7411
  613MOL0     C80830   2.497  12.184   7.613  0.2968  1.1046  0.3798
  613MOL0     O80831   2.705  12.263   7.848  0.2568  1.0143 -0.7866
  613MOL0     C80832   2.979  12.350   7.629  0.1311  0.4380 -0.1777
  613MOL0     C80833   3.120  12.356   7.639 -0.7650  0.7036  0.2332
  613MOL0     N80834   3.828  12.140   7.532 -0.0772 -0.2820 -0.3725
  613MOL0     N80835   3.898  12.047   7.475  0.0971  0.3712 -0.7920
  613MOL0     C80836   3.159  11.474   6.810  0.2071  0.5197  0.5746
  613MOL0     C80837   3.043  11.419   6.740 -0.0304 -0.2531 -0.5055
  613MOL0     C80838   2.629  11.219   6.711 -0.4287 -0.4511  0.7787
  613MOL0     C80839   2.524  11.315   6.732  0.1531 -0.0387 -0.2890
  613MOL0     C80840   2.391  11.275   6.698  0.0432 -0.7908  0.6523
  613MOL0     C80841   2.372  11.148   6.652  0.3906  0.3759  0.1876
  613MOL0     O80842   2.250  11.100   6.611  0.0614 -0.7459  0.5720
  613MOL0     C80843   2.141  11.193   6.574  0.2326 -0.5809  0.1919
  613MOL0     C80844   2.027  11.106   6.525 -0.6133 -0.6812  0.2982
  613MOL0     C80845   1.918  11.189   6.456  0.0752  0.1937  0.3810
  613MOL0     C80846   1.811  11.095   6.405 -0.4031 -0.8763  0.5054
  613MOL0     C80847   1.684  11.158   6.365  0.4571  0.6063 -0.7815
  613MOL0     C80848   1.574  11.192   6.325  1.4132  0.1777 -0.4843
  613MOL0     C80849   2.481  11.059   6.630  0.3330 -0.1898 -0.7504
  613MOL0     C80850   2.610  11.090   6.668  0.9706 -0.0232  0.0173
  613MOL0     H80851   2.798  11.547   6.927  0.5511  0.4802  0.3217
  613MOL0     H80852   2.993  11.628   7.067  1.7656  2.4876 -1.1589
  613MOL0     H80853   3.413  11.565   6.887  1.2386 -0.9578  0.8989
  613MOL0     H80854   3.382  11.435   7.012 -1.8674  0.6473  1.3622
  613MOL0     H80855   3.425  11.597   7.185  0.7020 -0.0137 -1.0022
  613MOL0     H80856   3.427  11.732   7.068  1.5264  0.9789 -1.2442
  613MOL0     H80857   3.618  11.644   6.959  0.6198 -0.9482 -1.1070
  613MOL0     H80858   3.618  11.501   7.074  1.2271  1.2498  3.9982
  613MOL0     H80859   3.636  11.798   7.127  3.9414  0.8498 -0.3149
  613MOL0     H80860   3.631  11.678   7.259 -0.1953  0.3669  0.3146
  613MOL0     H80861   3.853  11.708   7.057 -3.9899  3.6007 -1.6278
  613MOL0     H80862   3.857  11.591   7.193  1.3228 -0.0695 -0.8709
  613MOL0     H80863   3.832  11.879   7.250 -2.4654 -1.2283 -1.1027
  613MOL0     H80864   3.992  11.796   7.244 -0.5937  2.0475 -0.6005
  613MOL0     H80865   3.767  11.765   7.440 -0.2114 -0.5783  1.7387
  613MOL0     H80866   3.881  11.626   7.412  1.7756 -0.5325 -0.9981
  613MOL0     H80867   4.059  11.816   7.469  0.4437 -0.1346  1.7667
  613MOL0     H80868   3.961  11.731   7.597  1.1685 -0.0239  0.3725
  613MOL0     H80869   3.800  11.870   7.726  0.7288 -3.1979 -2.8545
  613MOL0     H80870   3.679  12.255   7.735 -4.1829  0.6030 -0.5574
  613MOL0     H80871   3.716  12.105   7.826 -0.2860 -0.8212  0.4649
  613MOL0     H80872   3.535  11.990   7.689  0.5303 -0.2382  1.4477
  613MOL0     H80873   3.492  12.147   7.616 -0.4506 -1.0297 -0.8417
  613MOL0     H80874   3.355  12.059   7.839  0.4308 -0.4713 -1.6104
  613MOL0     H80875   3.510  12.090   7.922 -1.3173 -2.7934  0.8455
  613MOL0     H80876   3.509  12.330   7.843  0.6150 -0.3141 -0.6840
  613MOL0     H80877   3.375  12.297   7.940 -1.7706 -2.9486 -0.2127
  613MOL0     H80878   3.160  12.155   7.916 -2.3428  2.0143  4.2064
  613MOL0     H80879   2.917  12.140   7.892  0.3688  2.5541  3.3720
  613MOL0     H80880   2.509  12.521   7.644  1.4864 -0.1730 -0.6760
  613MOL0     H80881   2.266  12.499   7.607 -0.2879 -0.5163  2.3240
  613MOL0     H80882   2.047  12.450   7.534 -2.2376 -0.5059 -1.8100
  613MOL0     H80883   2.037  12.426   7.712 -2.1176 -0.5807  0.0169
  613MOL0     H80884   1.892  12.202   7.618 -0.0090 -0.5372 -0.8040
  613MOL0     H80885   1.864  12.313   7.484 -2.4565  2.6200  0.6890
  613MOL0     H80886   1.770  12.470   7.626  4.1726  1.5734  1.1898
  613MOL0     H80887   1.798  12.381   7.779  0.0759 -0.4262 -0.6463
  613MOL0     H80888   1.617  12.289   7.540  1.1582  1.7651 -0.9847
  613MOL0     H80889   1.646  12.189   7.688 -1.4122  0.8468  2.5037
  613MOL0     H80890   1.437  12.314   7.668 -0.7709 -0.1226  1.2990
  613MOL0     H80891   1.514  12.470   7.687 -1.7778 -0.4134 -0.5271
  613MOL0     H80892   1.628  12.385   7.899 -0.7176  0.4384 -0.7513
  613MOL0     H80893   1.542  12.233   7.875  2.2521  0.2167  0.0994
  613MOL0     H80894   1.397  12.510   7.880  0.5080 -0.1055  0.7763
  613MOL0     H80895   1.333  12.338   7.891  2.7634 -4.8858  2.3327
  613MOL0     H80896   1.319  12.436   8.118  0.3009 -1.1675  0.8339
  613MOL0     H80897   1.483  12.490   8.116 -1.2075  1.7304 -0.6394
  613MOL0     H80898   2.315  12.073   7.602  0.0878  0.1429 -0.2405
  613MOL0     H80899   2.562  12.099   7.596  1.8027  2.6402 -2.3390
  613MOL0     H80900   2.923  12.400   7.551 -0.2230 -0.0745 -0.2606
  613MOL0     H80901   3.170  12.427   7.575 -2.2072 -0.1174 -1.9442
  613MOL0     H80902   3.259  11.452   6.776 -0.9774 -1.0065 -2.2126
  613MOL0     H80903   3.063  11.375   6.642  3.4993  1.0114 -0.5195
  613MOL0     H80904   2.545  11.416   6.765  1.8791 -0.7810  1.0357
  613MOL0     H80905   2.313  11.345   6.724  0.3620 -0.2281  0.1244
  613MOL0     H80906   2.149  11.267   6.494 -3.2578  1.9732  1.9142
  613MOL0     H80907   2.111  11.255   6.659  1.7382 -2.3624  2.1429
  613MOL0     H80908   2.069  11.030   6.459 -0.8410  0.1052 -0.7841
  613MOL0     H80909   1.978  11.064   6.613 -0.2480  0.4521  1.0614
  613MOL0     H80910   1.952  11.237   6.364 -0.4030 -2.3674 -1.2385
  613MOL0     H80911   1.876  11.260   6.529  0.5555 -0.2185  1.0721
  613MOL0     H80912   1.863  11.044   6.323  1.1714 -0.1002  0.9864
  613MOL0     H80913   1.793  11.010   6.471 -1.1323  0.4617  2.0973
  613MOL0     H80914   1.473  11.206   6.291  1.0976 -0.3452  0.2097
  613MOL0     H80915   2.449  10.964   6.590 -0.5276  0.3972 -1.4924
  613MOL0     H80916   2.686  11.015   6.648  1.6229  0.6864 -0.1983
  614MOL0     O80917   2.706   8.592   6.805  0.2970 -0.1210 -0.5419
  614MOL0     C80918   2.738   8.707   6.831 -0.0457 -0.0326  0.4283
  614MOL0     O80919   2.657   8.800   6.874  0.0125 -0.0869 -0.5556
  614MOL0     C80920   2.531   8.754   6.911 -0.6482 -0.6165 -0.3376
  614MOL0     C80921   2.526   8.651   6.996  0.7082  1.5141  0.3203
  614MOL0     C80922   2.401   8.596   7.030  0.3361 -0.5015  0.3164
  614MOL0     C80923   2.283   8.648   6.980 -0.6996  0.3072 -0.0968
  614MOL0     O80924   2.167   8.579   7.016 -0.6430  0.2987  0.1439
  614MOL0     C80925   2.048   8.658   7.012  0.0142  0.8888  0.5399
  614MOL0     C80926   1.936   8.581   7.086  0.8362 -0.0603  0.3606
  614MOL0     C80927   1.892   8.449   7.007 -0.5979  0.3874 -0.8067
  614MOL0     C80928   1.771   8.476   6.919  0.4163 -0.6325 -0.5599
  614MOL0     C80929   1.775   8.391   6.790  1.2265  0.0945 -0.9944
  614MOL0     C80930   1.669   8.420   6.688 -0.1717 -0.0461 -0.6817
  614MOL0     C80931   1.529   8.369   6.729 -0.0758 -1.2365  0.0470
  614MOL0     C80932   1.423   8.423   6.623  0.0444  0.5331  0.2144
  614MOL0     N80933   1.288   8.358   6.632 -0.2047  0.5959  0.3829
  614MOL0     C80934   1.212   8.346   6.744 -0.5648  0.3790  0.4693
  614MOL0     C80935   1.098   8.298   6.705  0.0064 -0.4044 -0.4025
  614MOL0     C80936   0.985   8.271   6.797  0.2527  0.3316  0.6453
  614MOL0     C80937   0.985   8.119   6.817 -0.4868  0.0961  0.0758
  614MOL0     C80938   0.868   8.076   6.905 -0.6304 -0.1112 -0.4806
  614MOL0     C80939   0.739   8.068   6.828  0.1439 -0.8632 -0.4180
  614MOL0     O80940   0.665   7.974   6.910 -0.4444  0.0239  0.3601
  614MOL0     C80941   0.527   7.969   6.901 -0.1031  0.2119 -0.4862
  614MOL0     C80942   0.468   7.884   6.996  0.0625 -0.2260 -0.1961
  614MOL0     C80943   0.331   7.851   6.994 -0.6676 -0.5199 -0.4738
  614MOL0     C80944   0.246   7.901   6.898  0.5418  0.2336  0.4376
  614MOL0     C80945   0.102   7.857   6.886 -0.1670  0.0774  1.2230
  614MOL0     O80946   0.045   7.782   6.989 -0.3218 -0.1667  0.1887
  614MOL0     C80947  -0.091   7.767   6.985 -0.5358  0.4023 -0.6247
  614MOL0     C80948  -0.142   7.647   6.930 -0.3105  0.4153 -0.0685
  614MOL0     C80949  -0.282   7.631   6.927 -0.0684 -0.2578 -0.6923
  614MOL0     C80950  -0.375   7.729   6.975  0.2523 -0.1486 -0.4317
  614MOL0     O80951  -0.511   7.704   6.970 -0.3398  0.6657  0.2045
  614MOL0     C80952  -0.601   7.801   7.032  0.4108  0.0741 -0.0860
  614MOL0     C80953  -0.748   7.751   7.028  0.6084 -0.6396  0.5922
  614MOL0     C80954  -0.841   7.862   7.065 -0.6220  0.6384 -0.5137
  614MOL0     C80955  -0.987   7.837   7.056 -0.3735  0.3927 -0.0574
  614MOL0     C80956  -1.059   7.962   7.104 -0.6193  0.0241 -0.3251
  614MOL0     C80957  -1.216   7.954   7.060 -0.7377  0.4903  0.1439
  614MOL0     C80958  -1.291   8.073   7.113 -0.0175 -0.2498  0.7136
  614MOL0     C80959  -1.436   8.064   7.090 -0.3264  0.4564  0.3109
  614MOL0    Cl80960  -1.527   7.924   7.160 -0.0011  0.2209 -0.3307
  614MOL0     C80961  -0.320   7.849   7.014  0.0602 -0.2052  0.8214
  614MOL0     C80962  -0.182   7.869   7.015 -0.4681  0.6410 -0.4153
  614MOL0     O80963   0.041   7.898   6.787  0.2392  0.4973 -0.1274
  614MOL0     C80964   0.308   7.990   6.798 -0.1371  1.1665  0.0772
  614MOL0     C80965   0.441   8.025   6.806 -0.5580 -0.7700  0.3232
  614MOL0     N80966   1.116   8.267   6.571  0.3217  0.1413 -0.7779
  614MOL0     N80967   1.227   8.303   6.527 -0.2311  0.1726 -0.3605
  614MOL0     C80968   2.289   8.755   6.890  0.6477 -0.6218 -0.2072
  614MOL0     C80969   2.411   8.806   6.851  0.1452  0.9674 -0.3124
  614MOL0     C80970   2.875   8.749   6.787 -0.2816  0.4800 -0.0293
  614MOL0     C80971   2.905   8.874   6.740 -0.4221 -0.1666  0.7077
  614MOL0     C80972   3.036   8.909   6.703 -0.5203 -0.4211 -0.3522
  614MOL0     C80973   3.138   8.813   6.701  0.5997 -0.7177 -0.7792
  614MOL0     O80974   3.259   8.867   6.665  0.0598  0.1432  0.5149
  614MOL0     C80975   3.369   8.783   6.669  0.3618 -0.7110  0.1542
  614MOL0     C80976   3.490   8.872   6.657 -0.0321  0.2652 -0.1808
  614MOL0     C80977   3.618   8.793   6.716 -0.1014  0.6544 -0.1667
  614MOL0     C80978   3.733   8.896   6.726 -0.0668 -0.1414 -0.6423
  614MOL0     C80979   3.853   8.819   6.752 -0.0597 -0.5706 -0.1561
  614MOL0     C80980   3.958   8.763   6.777 -0.3042  0.1491 -0.0762
  614MOL0     C80981   3.102   8.685   6.747 -0.2117 -0.0997  0.7562
  614MOL0     C80982   2.978   8.652   6.792  0.4009  0.1332 -0.8276
  614MOL0     H80983   2.607   8.611   7.057  0.0362 -1.7768 -0.7380
  614MOL0     H80984   2.383   8.510   7.094 -2.6872 -1.1799 -1.2919
  614MOL0     H80985   2.026   8.683   6.908 -0.4484  1.6626  0.8192
  614MOL0     H80986   2.074   8.757   7.051  1.3535 -0.3029  2.8905
  614MOL0     H80987   1.846   8.642   7.099 -0.1689 -1.0802 -1.4126
  614MOL0     H80988   1.969   8.552   7.186  0.9867 -2.3157 -0.2816
  614MOL0     H80989   1.863   8.369   7.076  0.4015 -0.7584 -1.6636
  614MOL0     H80990   1.980   8.414   6.951 -0.2999  1.5223 -1.0728
  614MOL0     H80991   1.680   8.454   6.977 -0.5351  2.6334 -0.6500
  614MOL0     H80992   1.763   8.580   6.887 -0.7748 -0.4674  0.2235
  614MOL0     H80993   1.778   8.287   6.825 -0.0076  1.0022  2.2291
  614MOL0     H80994   1.870   8.402   6.738  3.3379  0.7772  2.6324
  614MOL0     H80995   1.698   8.380   6.590 -1.4361  3.5065 -2.7130
  614MOL0     H80996   1.664   8.529   6.679 -1.5389 -0.2340 -3.0221
  614MOL0     H80997   1.535   8.260   6.714  0.8867 -0.9275 -2.3415
  614MOL0     H80998   1.506   8.397   6.832 -0.4979 -0.2793 -0.2955
  614MOL0     H80999   1.463   8.409   6.523 -0.8028 -2.4919  0.2230
  614MOL0     H81000   1.406   8.531   6.632 -1.8475  0.1053  2.7124
  614MOL0     H81001   1.245   8.377   6.843  0.1264 -1.2142  0.7741
  614MOL0     H81002   0.892   8.316   6.760  0.1834  0.3541  0.8429
  614MOL0     H81003   1.006   8.313   6.897 -2.6093 -0.0371  1.4947
  614MOL0     H81004   1.078   8.082   6.863 -1.2287 -2.5773 -0.4238
  614MOL0     H81005   0.977   8.065   6.722  0.3555 -0.0994  0.1046
  614MOL0     H81006   0.902   7.980   6.944  0.6172 -0.4071 -2.1765
  614MOL0     H81007   0.864   8.137   6.996  1.0388 -0.9096  0.1701
  614MOL0     H81008   0.763   8.036   6.726  1.9954 -0.4352 -0.1544
  614MOL0     H81009   0.691   8.165   6.813 -0.8006 -1.8020 -4.7039
  614MOL0     H81010   0.534   7.827   7.060 -1.3581 -0.3651  1.2098
  614MOL0     H81011   0.289   7.782   7.067 -2.2124 -0.2186 -1.0419
  614MOL0     H81012  -0.069   7.574   6.896  1.6734  2.3413 -0.1872
  614MOL0     H81013  -0.329   7.543   6.884 -2.5577  1.2930 -1.3357
  614MOL0     H81014  -0.583   7.895   6.979  1.3170 -0.3677 -0.5876
  614MOL0     H81015  -0.577   7.825   7.136 -2.8791  1.1939  0.5469
  614MOL0     H81016  -0.750   7.668   7.099  4.9685 -2.0114 -0.5244
  614MOL0     H81017  -0.775   7.713   6.929  0.9163  1.1894 -0.2495
  614MOL0     H81018  -0.810   7.940   6.994 -0.3837 -0.0852 -1.2077
  614MOL0     H81019  -0.813   7.888   7.168 -1.4469 -2.4580  0.5876
  614MOL0     H81020  -1.013   7.816   6.952 -2.6229 -0.8379  0.6712
  614MOL0     H81021  -1.000   7.745   7.113  0.5490  0.8649  0.9439
  614MOL0     H81022  -1.018   8.055   7.065  2.2014 -0.4308  1.2799
  614MOL0     H81023  -1.058   7.968   7.213  0.5805  2.0404 -0.4172
  614MOL0     H81024  -1.260   7.861   7.099  0.4339  0.9232  2.7076
  614MOL0     H81025  -1.229   7.946   6.951 -0.4169 -1.7340  0.2220
  614MOL0     H81026  -1.267   8.077   7.219 -2.8484 -0.4940  1.4378
  614MOL0     H81027  -1.256   8.167   7.069 -5.2368  1.6262 -0.0421
  614MOL0     H81028  -1.458   8.072   6.983 -3.5820  2.0057  0.9846
  614MOL0     H81029  -1.475   8.156   7.134 -0.7791  0.4235 -0.0202
  614MOL0     H81030  -0.382   7.933   7.046  2.2122  1.7164  0.1932
  614MOL0     H81031  -0.137   7.964   7.041 -0.2580  0.9871 -1.9384
  614MOL0     H81032   0.264   8.034   6.709 -1.6863 -1.1258 -0.3743
  614MOL0     H81033   0.488   8.097   6.739 -1.3758  0.3722  0.9307
  614MOL0     H81034   2.201   8.788   6.836 -0.8542 -3.7636  0.1166
  614MOL0     H81035   2.428   8.886   6.779  2.0470 -0.8051 -1.9446
  614MOL0     H81036   2.821   8.944   6.740 -0.4158 -0.1236 -0.8092
  614MOL0     H81037   3.041   9.010   6.665 -0.6321  0.0158  0.7489
  614MOL0     H81038   3.373   8.703   6.594  1.8080 -0.9525  0.4489
  614MOL0     H81039   3.378   8.740   6.769  1.7175  0.1114  0.4038
  614MOL0     H81040   3.503   8.909   6.555 -0.3771  0.9826  0.0286
  614MOL0     H81041   3.470   8.959   6.720 -0.5179  1.0753 -1.4321
  614MOL0     H81042   3.646   8.705   6.659  0.6743  1.1281 -0.5370
  614MOL0     H81043   3.581   8.766   6.816  1.6988 -0.4983  0.2513
  614MOL0     H81044   3.733   8.953   6.633  0.1895  0.0120 -0.5479
  614MOL0     H81045   3.712   8.961   6.811 -2.0217 -0.7692 -0.5867
  614MOL0     H81046   4.047   8.707   6.798  2.2128  2.7629 -2.8684
  614MOL0     H81047   3.178   8.609   6.763  0.3959  0.4804  0.6559
  614MOL0     H81048   2.970   8.557   6.843  2.2284 -0.2509 -1.1865
  615MOL0     O81049   5.209   4.457   2.098  0.2680 -0.5158 -0.0184
  615MOL0     C81050   5.170   4.396   2.192  0.2495 -0.2424 -0.8381
  615MOL0     O81051   5.044   4.338   2.196 -0.4030 -0.2560 -0.3293
  615MOL0     C81052   4.970   4.355   2.078 -0.2908  0.3477 -0.9944
  615MOL0     C81053   4.882   4.465   2.051 -0.1254  0.4612 -0.3637
  615MOL0     C81054   4.796   4.455   1.936 -0.0342 -0.1854  0.7332
  615MOL0     C81055   4.774   4.337   1.859 -0.4705 -0.0512  0.0159
  615MOL0     O81056   4.687   4.325   1.750 -0.7383 -0.1315 -0.6258
  615MOL0     C81057   4.720   4.388   1.630  0.2777 -0.7190  0.2835
  615MOL0     C81058   4.591   4.387   1.544 -0.0169 -0.3537  0.9265
  615MOL0     C81059   4.472   4.449   1.608  0.2440  0.7112  0.4964
  615MOL0     C81060   4.345   4.423   1.524  0.1712 -0.0890 -0.0431
  615MOL0     C81061   4.246   4.532   1.567 -0.0185 -0.2124  0.0006
  615MOL0     C81062   4.112   4.495   1.505  0.3447 -0.3051 -0.1511
  615MOL0     C81063   4.002   4.590   1.565 -0.2505 -0.5148 -0.7174
  615MOL0     C81064   3.881   4.585   1.472  0.3517 -0.2007  0.8823
  615MOL0     N81065   3.773   4.682   1.503  0.2529 -0.7813  0.0942
  615MOL0     C81066   3.662   4.653   1.573 -0.6432 -0.2889 -0.1630
  615MOL0     C81067   3.585   4.767   1.563 -0.2264  0.5531 -0.9314
  615MOL0     C81068   3.448   4.776   1.619 -0.3676 -0.0510 -0.0031
  615MOL0     C81069   3.459   4.832   1.756 -0.7273 -0.7072  0.0150
  615MOL0     C81070   3.309   4.883   1.796 -0.2070 -0.6236  0.0082
  615MOL0     C81071   3.301   4.872   1.945  0.2673 -0.3056 -0.0751
  615MOL0     O81072   3.196   4.955   1.981  0.7828  0.1427 -0.1139
  615MOL0     C81073   3.197   5.080   2.044  0.2241 -0.4277  0.4243
  615MOL0     C81074   3.099   5.171   2.025  0.5431 -0.0941  0.4224
  615MOL0     C81075   3.102   5.299   2.090  0.3571 -0.1022 -0.7632
  615MOL0     C81076   3.198   5.330   2.185 -0.0014  0.4429 -0.3085
  615MOL0     C81077   3.200   5.448   2.266  0.6185 -0.0122 -0.5099
  615MOL0     O81078   3.277   5.454   2.376 -0.0825  0.1202  0.3846
  615MOL0     C81079   3.286   5.558   2.456 -0.3959 -0.6856  0.1429
  615MOL0     C81080   3.199   5.576   2.574 -0.1972  0.1477 -0.1879
  615MOL0     C81081   3.226   5.686   2.659  0.3062  0.1532 -0.5127
  615MOL0     C81082   3.336   5.783   2.641  0.4300  0.3266 -1.0116
  615MOL0     O81083   3.341   5.892   2.729  0.4298  0.3573  0.1224
  615MOL0     C81084   3.438   5.999   2.706 -0.1684  1.1184  0.0627
  615MOL0     C81085   3.438   6.092   2.827  0.0032  0.7235 -0.0356
  615MOL0     C81086   3.548   6.199   2.812  1.3376 -0.1467 -0.1748
  615MOL0     C81087   3.541   6.287   2.927  0.1598 -0.8927 -0.1022
  615MOL0     C81088   3.679   6.334   2.962 -0.0068 -0.0838 -0.2955
  615MOL0     C81089   3.666   6.418   3.088  0.1146  0.1265  1.1015
  615MOL0     C81090   3.793   6.474   3.141  0.0147 -0.6644 -0.3191
  615MOL0     C81091   3.770   6.582   3.247  0.8154  0.1208  0.0161
  615MOL0    Cl81092   3.693   6.500   3.391  0.0711  0.3368 -0.1067
  615MOL0     C81093   3.422   5.758   2.529 -0.4561  0.2269  0.1676
  615MOL0     C81094   3.392   5.653   2.435  0.5554 -0.5205  0.4500
  615MOL0     O81095   3.123   5.536   2.218 -0.2498  0.3782  0.6154
  615MOL0     C81096   3.293   5.225   2.213 -0.1081  0.1777  0.3235
  615MOL0     C81097   3.304   5.115   2.127  0.5117 -0.4920 -0.6121
  615MOL0     N81098   3.644   4.857   1.489  0.2435 -0.4236 -0.3978
  615MOL0     N81099   3.753   4.807   1.446  0.2353 -0.6926  0.2672
  615MOL0     C81100   4.859   4.230   1.890 -0.8928 -0.1814  0.3215
  615MOL0     C81101   4.959   4.242   1.993  0.0942  0.1102  0.0731
  615MOL0     C81102   5.254   4.398   2.311 -0.2751 -0.5151 -0.8909
  615MOL0     C81103   5.198   4.348   2.426  0.1118 -0.5015 -0.5401
  615MOL0     C81104   5.275   4.325   2.532 -0.2851  0.4253  0.7156
  615MOL0     C81105   5.414   4.345   2.522 -0.5975  1.4433  0.1306
  615MOL0     O81106   5.500   4.303   2.625  0.1963  0.3029 -0.5199
  615MOL0     C81107   5.432   4.238   2.742  0.1437 -0.3451  0.4756
  615MOL0     C81108   5.528   4.203   2.849  0.0645  1.1760  0.2914
  615MOL0     C81109   5.636   4.308   2.865 -0.4578 -0.6663  0.3964
  615MOL0     C81110   5.721   4.280   2.986 -0.6065 -0.3508 -0.6160
  615MOL0     C81111   5.810   4.172   2.956  0.0535 -0.2836  0.3120
  615MOL0     C81112   5.885   4.082   2.941  0.0352 -0.8647  0.3303
  615MOL0     C81113   5.471   4.395   2.406  0.5365  0.0425 -0.9397
  615MOL0     C81114   5.394   4.432   2.296  0.3199 -0.2243  0.5155
  615MOL0     H81115   4.872   4.539   2.131 -1.2341 -3.0062  3.0143
  615MOL0     H81116   4.733   4.540   1.913  0.7804  0.2676  0.1304
  615MOL0     H81117   4.798   4.328   1.581  1.5942  0.5803  0.6945
  615MOL0     H81118   4.763   4.486   1.654  0.4021 -0.4583 -0.9546
  615MOL0     H81119   4.573   4.282   1.520  0.7169 -0.9759  2.8846
  615MOL0     H81120   4.623   4.434   1.450  0.0049 -3.6388 -0.8817
  615MOL0     H81121   4.472   4.558   1.617 -1.5347  0.8174 -0.4295
  615MOL0     H81122   4.448   4.401   1.704  0.6435 -2.0168 -0.6729
  615MOL0     H81123   4.375   4.439   1.420  1.3357 -0.1465  0.2728
  615MOL0     H81124   4.294   4.326   1.536 -0.7386  0.4753  0.8301
  615MOL0     H81125   4.281   4.628   1.528  2.0237  0.0014  2.1043
  615MOL0     H81126   4.244   4.531   1.677  0.1203  0.3442  0.0114
  615MOL0     H81127   4.084   4.392   1.530  0.3807 -0.3738 -0.3895
  615MOL0     H81128   4.119   4.504   1.396  0.5413 -1.2715 -0.2306
  615MOL0     H81129   3.971   4.563   1.666  3.0403 -0.8242  0.3306
  615MOL0     H81130   4.044   4.690   1.576  0.7353 -1.1542  1.8861
  615MOL0     H81131   3.844   4.482   1.483 -0.7680  0.3333  2.4174
  615MOL0     H81132   3.911   4.604   1.369 -0.0279  0.4151  0.8846
  615MOL0     H81133   3.635   4.561   1.624 -2.1985  0.7383  0.9689
  615MOL0     H81134   3.392   4.683   1.633 -2.1307  1.3964  3.8702
  615MOL0     H81135   3.388   4.833   1.547 -0.4445 -1.7299 -1.3401
  615MOL0     H81136   3.519   4.923   1.766  0.5527 -1.4860 -0.3203
  615MOL0     H81137   3.495   4.758   1.827  0.2456  2.0115  2.5656
  615MOL0     H81138   3.303   4.986   1.757 -2.0774 -1.4567 -2.1089
  615MOL0     H81139   3.235   4.828   1.737 -0.3941  0.5288 -0.8901
  615MOL0     H81140   3.391   4.898   2.000 -1.8430  2.4284  2.3715
  615MOL0     H81141   3.284   4.768   1.974 -0.4216  0.0447  0.8257
  615MOL0     H81142   3.017   5.162   1.954 -0.2805  1.7526  1.0902
  615MOL0     H81143   3.012   5.358   2.075  1.1159  1.5105  0.6049
  615MOL0     H81144   3.112   5.518   2.601  1.1134 -0.1570  4.0153
  615MOL0     H81145   3.149   5.710   2.732  1.1040  0.2629  0.3056
  615MOL0     H81146   3.416   6.047   2.610 -0.0674 -1.6086 -1.4316
  615MOL0     H81147   3.544   5.973   2.706 -0.5405 -0.5485 -0.0172
  615MOL0     H81148   3.463   6.035   2.917 -1.4295  0.1061  0.0017
  615MOL0     H81149   3.338   6.134   2.843 -0.7268 -1.7266  2.7488
  615MOL0     H81150   3.519   6.264   2.729 -3.2186  1.6304  2.4445
  615MOL0     H81151   3.648   6.154   2.810  2.0271  1.0249  2.8368
  615MOL0     H81152   3.477   6.374   2.912  2.4867  0.7508 -1.2324
  615MOL0     H81153   3.509   6.230   3.015  1.9053  2.4790  3.0309
  615MOL0     H81154   3.720   6.405   2.890  1.7133  0.7778  1.4289
  615MOL0     H81155   3.735   6.241   2.973  0.4708  0.1510 -0.7039
  615MOL0     H81156   3.613   6.366   3.168 -0.1540 -3.2082 -1.0531
  615MOL0     H81157   3.603   6.505   3.066 -1.0425 -0.7230  0.9600
  615MOL0     H81158   3.844   6.391   3.192  0.5748  0.2823  0.6925
  615MOL0     H81159   3.853   6.515   3.059  1.2491 -1.8420 -0.0511
  615MOL0     H81160   3.702   6.661   3.214  0.1801 -0.3085  0.2516
  615MOL0     H81161   3.858   6.640   3.276  0.7039  0.5562 -0.5041
  615MOL0     H81162   3.498   5.835   2.522 -0.6067  0.2799 -1.0137
  615MOL0     H81163   3.451   5.630   2.347  1.8099 -1.2078  1.4326
  615MOL0     H81164   3.377   5.239   2.280 -1.5788  0.3667  2.2151
  615MOL0     H81165   3.383   5.042   2.142 -1.2283 -2.1983  0.6828
  615MOL0     H81166   4.851   4.138   1.833  3.2988 -1.3879  1.3230
  615MOL0     H81167   5.025   4.159   2.017  0.5957  0.6217  0.5009
  615MOL0     H81168   5.091   4.333   2.435  0.0714  0.2809  0.5668
  615MOL0     H81169   5.220   4.285   2.616 -0.4167  1.0982  0.9634
  615MOL0     H81170   5.390   4.143   2.709  2.1477 -0.8310 -0.9165
  615MOL0     H81171   5.355   4.306   2.781 -0.6314 -0.7376 -0.3367
  615MOL0     H81172   5.467   4.194   2.939  0.7748 -0.0105  0.6866
  615MOL0     H81173   5.569   4.102   2.833 -0.6649  0.9667 -0.3028
  615MOL0     H81174   5.590   4.406   2.876  2.2150  0.6497  0.8540
  615MOL0     H81175   5.705   4.313   2.780  2.2682  0.2309  2.4771
  615MOL0     H81176   5.799   4.356   2.999  0.2248 -1.4124  0.8268
  615MOL0     H81177   5.664   4.278   3.079 -1.3264  0.0724 -1.0374
  615MOL0     H81178   5.958   4.004   2.943  1.3793  0.3243  0.2508
  615MOL0     H81179   5.577   4.417   2.407  0.7237 -0.8359  0.2422
  615MOL0     H81180   5.422   4.483   2.205 -2.0495  0.2049 -0.0394
  616MOL0     O81181  10.624   9.599   1.995  0.3821  0.1041  0.3903
  616MOL0     C81182  10.701   9.534   1.926  0.1673 -0.4276 -0.1863
  616MOL0     O81183  10.659   9.462   1.818 -0.2014  0.5813  0.4096
  616MOL0     C81184  10.523   9.458   1.793  0.2725 -0.3045 -0.1042
  616MOL0     C81185  10.431   9.389   1.875  0.0420 -0.0995  0.3364
  616MOL0     C81186  10.291   9.387   1.838  0.2071 -0.0751 -0.5574
  616MOL0     C81187  10.240   9.456   1.723 -0.8340  0.2660  0.0323
  616MOL0     O81188  10.108   9.465   1.680  0.0784 -1.1680 -0.1141
  616MOL0     C81189  10.016   9.371   1.739 -0.5337 -0.1983 -0.1916
  616MOL0     C81190   9.895   9.366   1.643 -0.3740 -0.1506 -0.0564
  616MOL0     C81191   9.779   9.280   1.702 -0.2646 -0.2590 -0.6599
  616MOL0     C81192   9.657   9.295   1.617  0.2818  0.3836  0.1451
  616MOL0     C81193   9.531   9.271   1.698  0.5250  0.2598  0.5301
  616MOL0     C81194   9.399   9.262   1.608 -0.0847  0.0199  0.6576
  616MOL0     C81195   9.361   9.392   1.534  0.6131  0.6362 -0.2902
  616MOL0     C81196   9.327   9.509   1.636  0.2725  0.1424 -0.6368
  616MOL0     N81197   9.209   9.466   1.710 -0.1738  0.3321 -0.0947
  616MOL0     C81198   9.080   9.482   1.671 -0.0965  0.2739 -0.1152
  616MOL0     C81199   9.008   9.418   1.767  0.6420 -0.2034  0.4378
  616MOL0     C81200   8.859   9.420   1.758  0.3412  0.3093 -0.2667
  616MOL0     C81201   8.809   9.279   1.705 -0.2674  0.3037 -0.7201
  616MOL0     C81202   8.656   9.282   1.706 -0.2638 -0.1589  0.4256
  616MOL0     C81203   8.585   9.359   1.589  0.3691 -0.6994  0.2270
  616MOL0     O81204   8.445   9.372   1.633 -0.0834 -0.2460 -0.5542
  616MOL0     C81205   8.345   9.417   1.546  0.3123  0.0856 -0.0079
  616MOL0     C81206   8.371   9.445   1.414  0.0543  0.0104 -0.0313
  616MOL0     C81207   8.262   9.489   1.332 -0.7384 -0.9955  0.4686
  616MOL0     C81208   8.136   9.513   1.371  0.5301  0.1129  0.0818
  616MOL0     C81209   8.040   9.582   1.283  0.2341 -0.5831  0.1691
  616MOL0     O81210   7.919   9.617   1.333 -0.1396 -0.1504 -0.3454
  616MOL0     C81211   7.827   9.681   1.258 -0.5898  0.5359  0.1317
  616MOL0     C81212   7.762   9.784   1.319 -0.5227 -0.6288 -0.0971
  616MOL0     C81213   7.683   9.869   1.239  0.0376  0.0844 -0.4089
  616MOL0     C81214   7.664   9.843   1.097 -0.4141  1.0597  0.7079
  616MOL0     O81215   7.586   9.939   1.025 -0.3135  0.1256 -0.2567
  616MOL0     C81216   7.581   9.924   0.880 -0.2914 -0.0920 -0.0266
  616MOL0     C81217   7.485  10.040   0.840  0.1232 -0.5811 -0.8913
  616MOL0     C81218   7.345  10.013   0.900  0.0816 -0.2606  0.7157
  616MOL0     C81219   7.262  10.144   0.861 -0.7007  0.2339 -0.0007
  616MOL0     C81220   7.116  10.114   0.908  0.1721  0.5197 -0.4205
  616MOL0     C81221   7.020  10.220   0.880 -0.0127  0.3622  0.1104
  616MOL0     C81222   6.970  10.225   0.742  0.2761 -0.7639  0.0731
  616MOL0     C81223   6.865  10.326   0.703 -0.4886  0.1085  0.3963
  616MOL0    Cl81224   6.718  10.289   0.790  0.0792 -0.1658  0.0417
  616MOL0     C81225   7.723   9.725   1.049 -0.2140  0.2108 -0.1475
  616MOL0     C81226   7.805   9.647   1.125 -0.1483 -1.2698  0.5520
  616MOL0     O81227   8.088   9.619   1.175 -0.5509 -0.0403 -0.1874
  616MOL0     C81228   8.111   9.480   1.510  0.2580 -0.9517  0.6195
  616MOL0     C81229   8.218   9.431   1.591  0.4203  0.1130 -0.0230
  616MOL0     N81230   9.089   9.367   1.869 -0.1208  0.3020 -0.2419
  616MOL0     N81231   9.211   9.398   1.833 -0.9145 -0.6847  0.3141
  616MOL0     C81232  10.334   9.528   1.651 -0.2095 -0.0181 -0.4782
  616MOL0     C81233  10.463   9.531   1.685 -0.1930 -0.3259  0.0915
  616MOL0     C81234  10.844   9.527   1.968 -0.0619  0.7491 -0.3904
  616MOL0     C81235  10.902   9.621   2.064 -0.2210  0.2799 -0.3468
  616MOL0     C81236  11.039   9.601   2.110  0.0784  0.1760  1.0350
  616MOL0     C81237  11.122   9.506   2.053  0.8100 -0.3844 -0.1240
  616MOL0     O81238  11.249   9.493   2.107  1.0231 -0.3223 -0.2720
  616MOL0     C81239  11.332   9.379   2.065 -0.5656  0.3419  0.0442
  616MOL0     C81240  11.475   9.435   2.070  0.6335 -0.6082  0.0245
  616MOL0     C81241  11.575   9.322   2.035  0.2326 -0.6008 -0.3528
  616MOL0     C81242  11.712   9.333   2.091 -0.0152  0.0309  0.1096
  616MOL0     C81243  11.770   9.462   2.040 -0.6044  0.2366  0.0536
  616MOL0     C81244  11.828   9.560   1.994  0.8249  0.6812 -0.0522
  616MOL0     C81245  11.070   9.422   1.948  0.6754 -0.6504  0.4330
  616MOL0     C81246  10.932   9.431   1.917 -1.1925  0.6326  0.3195
  616MOL0     H81247  10.467   9.339   1.965  1.2959 -2.5602 -1.4268
  616MOL0     H81248  10.218   9.335   1.900  2.1313 -1.7370  0.4300
  616MOL0     H81249   9.990   9.376   1.845 -3.2090 -0.6861 -0.7385
  616MOL0     H81250  10.061   9.271   1.734 -0.2268 -0.0052 -1.7185
  616MOL0     H81251   9.930   9.332   1.545  0.3625  1.1213 -0.2562
  616MOL0     H81252   9.862   9.470   1.637  0.2748  0.0534 -0.2585
  616MOL0     H81253   9.763   9.323   1.802 -0.3517 -2.9888  0.6077
  616MOL0     H81254   9.805   9.175   1.723 -1.3709  0.1096  3.6184
  616MOL0     H81255   9.642   9.396   1.579  1.6788  0.9207  0.9256
  616MOL0     H81256   9.667   9.221   1.537  0.6591  1.1958 -0.5673
  616MOL0     H81257   9.525   9.353   1.770  3.7162 -0.0487  1.2921
  616MOL0     H81258   9.542   9.179   1.755 -1.6291 -1.0705 -1.0563
  616MOL0     H81259   9.312   9.228   1.664 -0.8771  0.6664 -0.1412
  616MOL0     H81260   9.417   9.186   1.531 -4.8939  0.7418 -1.5206
  616MOL0     H81261   9.454   9.406   1.478  0.4997 -1.4649 -1.1113
  616MOL0     H81262   9.286   9.386   1.455  1.0198  0.2016 -0.6562
  616MOL0     H81263   9.302   9.601   1.583  0.4764  0.1019 -0.8037
  616MOL0     H81264   9.402   9.522   1.714 -1.5459  0.7999  1.0711
  616MOL0     H81265   9.047   9.538   1.584  0.2015 -0.9494 -1.0398
  616MOL0     H81266   8.830   9.502   1.692  1.6837  0.9799 -0.0332
  616MOL0     H81267   8.812   9.430   1.857 -0.2588 -2.7964 -0.1188
  616MOL0     H81268   8.834   9.192   1.766  0.8189  0.8360 -0.3742
  616MOL0     H81269   8.853   9.266   1.606 -0.3476 -2.1206 -0.4973
  616MOL0     H81270   8.609   9.183   1.704  0.0394 -0.2913 -1.2487
  616MOL0     H81271   8.626   9.329   1.800 -1.0087  1.3358 -0.5150
  616MOL0     H81272   8.604   9.298   1.501 -1.0561  0.3406 -0.8573
  616MOL0     H81273   8.627   9.458   1.566  1.0937 -1.6091 -2.7214
  616MOL0     H81274   8.474   9.432   1.382  0.5176 -1.9496  2.0541
  616MOL0     H81275   8.300   9.517   1.234 -1.3374 -0.6163  0.3393
  616MOL0     H81276   7.773   9.792   1.427 -0.9157  0.3710 -0.1234
  616MOL0     H81277   7.645   9.963   1.279  0.2678 -0.2844  0.7040
  616MOL0     H81278   7.548   9.827   0.842  0.0163  0.0327 -0.6268
  616MOL0     H81279   7.685   9.935   0.846 -1.3910  0.3796 -3.6578
  616MOL0     H81280   7.481  10.044   0.731 -2.6974  1.6835 -0.8041
  616MOL0     H81281   7.530  10.132   0.879 -1.7417 -0.1731  0.4075
  616MOL0     H81282   7.347   9.996   1.008 -2.0245 -2.4546  0.4888
  616MOL0     H81283   7.302   9.924   0.854  0.8068  0.9760 -2.6094
  616MOL0     H81284   7.303  10.226   0.919 -1.6473  1.0802 -0.5053
  616MOL0     H81285   7.268  10.160   0.753 -0.7128 -3.3875 -0.6707
  616MOL0     H81286   7.121  10.111   1.017  0.3515  2.4457 -0.3520
  616MOL0     H81287   7.081  10.017   0.871 -1.4614  1.4736 -1.4918
  616MOL0     H81288   7.058  10.318   0.910 -1.0668  0.8187 -0.0032
  616MOL0     H81289   6.932  10.194   0.940 -0.9119  0.8381 -0.9576
  616MOL0     H81290   7.063  10.251   0.691 -1.4101  0.4387 -2.6221
  616MOL0     H81291   6.940  10.130   0.696 -3.8742  0.5070 -0.2777
  616MOL0     H81292   6.865  10.318   0.594  3.3611  0.2864  0.2772
  616MOL0     H81293   6.901  10.427   0.721  2.1129 -1.0205  2.0105
  616MOL0     H81294   7.700   9.689   0.949 -0.5721  1.2874 -0.4616
  616MOL0     H81295   7.853   9.556   1.090  0.1932 -0.2426 -1.7953
  616MOL0     H81296   8.011   9.493   1.549 -1.1987 -0.4467 -2.9387
  616MOL0     H81297   8.190   9.404   1.692 -1.0681 -2.1333 -0.9423
  616MOL0     H81298  10.296   9.584   1.566 -1.0357 -0.8329 -0.6642
  616MOL0     H81299  10.536   9.588   1.628  1.1606 -1.8984  0.2037
  616MOL0     H81300  10.848   9.702   2.110 -2.1783 -2.4116  2.5174
  616MOL0     H81301  11.084   9.657   2.191  0.3856  0.9087  0.3761
  616MOL0     H81302  11.320   9.341   1.963  0.7223 -0.1968  0.0813
  616MOL0     H81303  11.320   9.298   2.137  0.7659  1.8885  2.1514
  616MOL0     H81304  11.485   9.517   1.998  0.2560  1.0974  1.8127
  616MOL0     H81305  11.487   9.484   2.167 -3.2127  2.2031 -0.6923
  616MOL0     H81306  11.587   9.318   1.926 -0.1714  1.0248 -0.4718
  616MOL0     H81307  11.524   9.229   2.064  2.7240 -2.9609 -2.8143
  616MOL0     H81308  11.717   9.329   2.200  1.5344 -1.8911  0.0292
  616MOL0     H81309  11.773   9.250   2.053  2.1121  0.8433  1.5882
  616MOL0     H81310  11.876   9.643   1.945 -0.3450  0.7992 -1.0546
  616MOL0     H81311  11.136   9.355   1.894  0.3458 -1.1077  0.5947
  616MOL0     H81312  10.894   9.367   1.838  1.6130  1.0452 -1.4665
  617MOL0     O81313  10.600   1.822   1.339 -0.1076  0.7019  0.2319
  617MOL0     C81314  10.596   1.902   1.435 -0.2780 -0.4587  0.2743
  617MOL0     O81315  10.495   1.990   1.449 -0.3896 -0.4583  0.0207
  617MOL0     C81316  10.391   2.014   1.357  0.1161 -0.4870  0.5943
  617MOL0     C81317  10.390   2.005   1.213 -0.7068 -1.1452 -0.5780
  617MOL0     C81318  10.273   2.021   1.139 -0.5442 -0.0017 -1.0886
  617MOL0     C81319  10.153   2.051   1.197  0.1657  0.0649  0.8628
  617MOL0     O81320  10.048   2.063   1.121 -0.0491 -0.0194  0.5303
  617MOL0     C81321   9.932   2.129   1.164  0.1064  0.2537 -0.5253
  617MOL0     C81322   9.859   2.211   1.056  0.8327  0.4891 -0.6882
  617MOL0     C81323   9.951   2.319   0.986  0.5215  0.0069  0.4064
  617MOL0     C81324   9.881   2.377   0.858 -0.0426  0.1453 -0.3347
  617MOL0     C81325   9.961   2.479   0.778  0.3896  0.0322 -0.9056
  617MOL0     C81326   9.998   2.610   0.845  0.3717  0.2843 -0.4072
  617MOL0     C81327  10.105   2.676   0.763 -0.9828 -0.3025  0.3407
  617MOL0     C81328  10.127   2.820   0.808 -0.6631  0.2649 -0.7159
  617MOL0     N81329  10.012   2.920   0.803 -0.3317 -0.1086  0.1594
  617MOL0     C81330   9.990   3.037   0.869 -0.0277 -1.2993  0.6436
  617MOL0     C81331   9.868   3.076   0.827  0.3738  0.1025 -0.0962
  617MOL0     C81332   9.786   3.177   0.894  1.4815  0.5954 -0.3210
  617MOL0     C81333   9.678   3.250   0.811  0.8200  0.7473  0.2075
  617MOL0     C81334   9.548   3.169   0.796  0.7679  0.9833  0.6028
  617MOL0     C81335   9.441   3.240   0.703 -0.5681  0.0505  0.3516
  617MOL0     O81336   9.393   3.359   0.759 -0.0272  0.2542  0.0550
  617MOL0     C81337   9.301   3.343   0.860 -0.8444  0.3852 -0.8134
  617MOL0     C81338   9.200   3.241   0.857 -0.2495  0.1245  0.6521
  617MOL0     C81339   9.122   3.209   0.967  0.0111 -0.6363  0.1502
  617MOL0     C81340   9.117   3.295   1.072 -0.0624 -0.0087 -0.5655
  617MOL0     C81341   9.028   3.268   1.188  0.3904  0.4060  0.1201
  617MOL0     O81342   9.024   3.359   1.280 -0.4042 -0.0682 -0.6090
  617MOL0     C81343   8.940   3.345   1.388 -0.3037  0.1795  0.3083
  617MOL0     C81344   8.807   3.363   1.377  0.8713 -0.5180  0.0156
  617MOL0     C81345   8.730   3.386   1.487 -0.6234 -0.8337  0.0998
  617MOL0     C81346   8.777   3.371   1.622  0.8025 -0.6510  0.1263
  617MOL0     O81347   8.703   3.383   1.736 -0.1420 -0.0524 -0.5575
  617MOL0     C81348   8.563   3.339   1.715  1.0050 -1.2204 -0.2225
  617MOL0     C81349   8.503   3.327   1.860  0.2381 -0.2802  0.1245
  617MOL0     C81350   8.349   3.288   1.850  1.1096 -0.3702 -0.1859
  617MOL0     C81351   8.280   3.292   1.992 -0.4127  0.8654  0.0561
  617MOL0     C81352   8.330   3.188   2.088 -0.0550 -0.2524  0.4758
  617MOL0     C81353   8.227   3.160   2.201 -0.0330  0.1155  0.6551
  617MOL0     C81354   8.277   3.052   2.304  0.0396  0.2874 -0.0989
  617MOL0     C81355   8.205   3.043   2.436 -0.3018  0.5779 -0.5734
  617MOL0    Cl81356   8.029   3.037   2.408 -0.2668  0.1952 -0.0301
  617MOL0     C81357   8.913   3.339   1.627 -0.3581 -0.6016  0.0387
  617MOL0     C81358   8.999   3.331   1.514 -0.0184 -0.0851 -0.8889
  617MOL0     O81359   8.948   3.167   1.180 -0.4564  0.2091  0.3286
  617MOL0     C81360   9.211   3.396   1.077 -0.3267 -0.3790 -0.3853
  617MOL0     C81361   9.306   3.425   0.976  0.3230 -0.3238  0.1349
  617MOL0     N81362   9.834   3.000   0.719 -0.3708  1.3652 -0.0381
  617MOL0     N81363   9.924   2.907   0.702 -0.7638 -0.3223 -1.0285
  617MOL0     C81364  10.153   2.057   1.342 -0.0492 -0.2308  0.2454
  617MOL0     C81365  10.270   2.043   1.418  0.3458 -0.1743  0.1141
  617MOL0     C81366  10.707   1.889   1.536 -0.1660  0.4650 -0.1619
  617MOL0     C81367  10.781   1.776   1.539 -0.2053  0.7574  0.0916
  617MOL0     C81368  10.879   1.760   1.632  0.4522  0.8564 -0.2727
  617MOL0     C81369  10.913   1.868   1.717 -0.3115 -0.3101  1.0261
  617MOL0     O81370  11.019   1.845   1.804  0.7749  0.7407  0.6290
  617MOL0     C81371  11.116   1.944   1.824  0.1322 -0.5668 -0.5563
  617MOL0     C81372  11.228   1.942   1.725 -0.0609 -0.6499  0.1995
  617MOL0     C81373  11.280   1.799   1.718  0.0901  0.4376 -0.2307
  617MOL0     C81374  11.408   1.783   1.634 -0.7096  0.1541 -1.1566
  617MOL0     C81375  11.516   1.849   1.716  0.7142 -0.3683  0.0926
  617MOL0     C81376  11.597   1.919   1.768 -0.0122 -0.5127  0.6554
  617MOL0     C81377  10.838   1.987   1.722 -0.4204 -0.0687  0.5946
  617MOL0     C81378  10.727   1.993   1.630 -0.7764 -0.3623 -0.2304
  617MOL0     H81379  10.483   1.982   1.163 -0.8470 -0.4320 -1.2073
  617MOL0     H81380  10.262   2.015   1.031  1.9259  0.9198 -1.4436
  617MOL0     H81381   9.950   2.198   1.248  1.1758  0.0169 -0.5504
  617MOL0     H81382   9.863   2.053   1.201 -0.7766  1.1050 -0.3761
  617MOL0     H81383   9.774   2.266   1.097 -0.9874 -2.4696 -0.1736
  617MOL0     H81384   9.819   2.137   0.985 -1.8765  1.3411 -0.1838
  617MOL0     H81385  10.042   2.272   0.947  2.1840  1.3314  2.4722
  617MOL0     H81386   9.979   2.404   1.049  1.4960  0.4608 -0.6136
  617MOL0     H81387   9.863   2.301   0.782  0.2375 -1.9550  1.6069
  617MOL0     H81388   9.784   2.421   0.885 -1.9470 -0.7346 -4.8820
  617MOL0     H81389   9.911   2.510   0.686  0.7845 -1.7565 -1.7556
  617MOL0     H81390  10.057   2.434   0.753  0.6286  0.2159 -0.3584
  617MOL0     H81391  10.037   2.593   0.946 -2.0812  0.1962  0.6064
  617MOL0     H81392   9.906   2.669   0.846  0.9656  1.3420 -2.6590
  617MOL0     H81393  10.199   2.621   0.761 -1.1350 -0.7570 -3.7260
  617MOL0     H81394  10.077   2.670   0.657 -1.6178 -2.7919  0.5945
  617MOL0     H81395  10.212   2.853   0.748  0.4320  0.3039  0.8036
  617MOL0     H81396  10.163   2.817   0.911 -0.3539 -0.7067 -0.8375
  617MOL0     H81397  10.051   3.077   0.949  0.0580 -2.6775  1.2991
  617MOL0     H81398   9.854   3.245   0.947  3.0408 -2.0299  1.2373
  617MOL0     H81399   9.729   3.140   0.980  1.0305  1.1038 -0.3933
  617MOL0     H81400   9.724   3.268   0.714  1.4496  0.4341  0.4432
  617MOL0     H81401   9.664   3.351   0.851  0.6233  1.1853 -0.9431
  617MOL0     H81402   9.568   3.072   0.749 -1.6410  0.9807 -0.5812
  617MOL0     H81403   9.502   3.154   0.894 -0.6680 -1.7307 -0.3923
  617MOL0     H81404   9.362   3.169   0.676 -0.1589 -0.5235  0.6205
  617MOL0     H81405   9.495   3.257   0.610  0.9706 -0.4206  1.1201
  617MOL0     H81406   9.171   3.176   0.776 -1.0821  0.6821  0.4987
  617MOL0     H81407   9.044   3.134   0.962  0.3528 -0.9220 -2.9801
  617MOL0     H81408   8.756   3.357   1.282 -0.6759  0.1650  0.7697
  617MOL0     H81409   8.632   3.415   1.453  0.2299 -0.0789 -1.8641
  617MOL0     H81410   8.560   3.241   1.667  2.6380 -2.0236  1.2253
  617MOL0     H81411   8.513   3.420   1.661 -0.1068 -0.2388  2.1323
  617MOL0     H81412   8.519   3.420   1.916 -1.6548 -0.4552  1.0317
  617MOL0     H81413   8.565   3.254   1.912  2.1685  1.1236 -0.0935
  617MOL0     H81414   8.329   3.190   1.808 -1.0997  0.6692 -1.7659
  617MOL0     H81415   8.304   3.366   1.788 -0.5300  0.1098  1.5136
  617MOL0     H81416   8.315   3.387   2.033  0.4538  0.5509  0.0763
  617MOL0     H81417   8.172   3.279   1.980 -0.4246  2.2412 -1.7868
  617MOL0     H81418   8.418   3.230   2.138  0.7502 -0.2490 -0.8996
  617MOL0     H81419   8.354   3.090   2.045 -2.2955 -1.3731  1.6397
  617MOL0     H81420   8.132   3.121   2.164 -2.1723  2.8954  2.8269
  617MOL0     H81421   8.200   3.252   2.254  0.8919 -0.2078  1.7421
  617MOL0     H81422   8.291   2.949   2.269  1.5094  0.0711  1.0264
  617MOL0     H81423   8.377   3.081   2.337 -0.3303  1.0369  0.3824
  617MOL0     H81424   8.237   3.129   2.495  2.0014 -1.3920  1.2931
  617MOL0     H81425   8.244   2.960   2.496 -2.1348 -0.8004 -1.2010
  617MOL0     H81426   8.951   3.328   1.728 -2.1254  1.0576  0.9646
  617MOL0     H81427   9.106   3.313   1.523 -0.3177 -4.0563 -2.9625
  617MOL0     H81428   9.222   3.463   1.162 -0.1795  1.0559 -1.5025
  617MOL0     H81429   9.383   3.500   0.967  1.7390 -1.7451  0.0506
  617MOL0     H81430  10.070   2.087   1.406 -1.0059 -3.1568  0.5046
  617MOL0     H81431  10.276   2.055   1.526  1.5370  0.1196  0.0236
  617MOL0     H81432  10.760   1.692   1.474  4.3583 -2.3681  2.1788
  617MOL0     H81433  10.936   1.668   1.642 -2.5911 -1.1997 -0.5780
  617MOL0     H81434  11.156   1.939   1.926 -2.9859  1.3819  0.9328
  617MOL0     H81435  11.073   2.045   1.821  0.2038 -0.5271 -0.2642
  617MOL0     H81436  11.204   1.976   1.624 -3.5237 -0.9886  0.7613
  617MOL0     H81437  11.307   2.007   1.762 -0.0726 -0.3426 -0.3064
  617MOL0     H81438  11.200   1.738   1.677 -0.5323 -1.2626  3.1115
  617MOL0     H81439  11.294   1.770   1.823 -2.7507  0.2936  0.1693
  617MOL0     H81440  11.439   1.678   1.624  2.0229  0.5141  1.7520
  617MOL0     H81441  11.397   1.826   1.535 -2.7165  0.4736 -0.8350
  617MOL0     H81442  11.669   1.976   1.824  1.4718 -2.0303  0.3898
  617MOL0     H81443  10.858   2.066   1.793  1.5925  1.9637 -2.0294
  617MOL0     H81444  10.656   2.075   1.636 -1.2278 -0.8420  2.0784
  618MOL0     O81445   0.304   1.233   5.478 -0.2009  0.5295  0.2480
  618MOL0     C81446   0.389   1.182   5.553  0.2743 -0.7397  0.5237
  618MOL0     O81447   0.358   1.146   5.682  0.0478 -0.3833  0.0007
  618MOL0     C81448   0.239   1.188   5.737  0.0296  0.3346  0.1106
  618MOL0     C81449   0.202   1.317   5.769  0.2681 -0.7516 -0.4784
  618MOL0     C81450   0.090   1.354   5.842 -0.6997  0.7851 -0.0372
  618MOL0     C81451   0.005   1.247   5.879  0.1664  0.3299  0.1352
  618MOL0     O81452  -0.117   1.272   5.944 -0.3497 -0.1060 -0.2278
  618MOL0     C81453  -0.144   1.396   6.010  0.8908 -1.0329 -0.1954
  618MOL0     C81454  -0.264   1.479   5.937 -0.0050  0.5261 -0.9675
  618MOL0     C81455  -0.252   1.477   5.786  0.1314 -0.3238  0.5221
  618MOL0     C81456  -0.354   1.574   5.734  0.2766  0.2496 -0.0265
  618MOL0     C81457  -0.341   1.571   5.578  0.4088  1.1304  0.8057
  618MOL0     C81458  -0.428   1.675   5.505  0.5436 -1.0664 -0.4917
  618MOL0     C81459  -0.571   1.698   5.547  0.1844  0.0578  0.5622
  618MOL0     C81460  -0.647   1.578   5.525 -0.4448  0.7236 -0.5964
  618MOL0     N81461  -0.791   1.591   5.556 -0.0313 -0.0507  0.0205
  618MOL0     C81462  -0.883   1.648   5.469 -0.0086 -0.0834  0.5467
  618MOL0     C81463  -1.005   1.624   5.531  0.6160 -0.1497  1.9625
  618MOL0     C81464  -1.144   1.643   5.475 -0.0015 -0.0216  0.2020
  618MOL0     C81465  -1.253   1.590   5.565  0.1840  0.2618 -0.0681
  618MOL0     C81466  -1.387   1.593   5.500  0.3640  1.3315  0.1808
  618MOL0     C81467  -1.508   1.542   5.584  0.6484  0.6765 -0.9541
  618MOL0     O81468  -1.626   1.614   5.543 -0.4155  0.0671  0.0907
  618MOL0     C81469  -1.744   1.578   5.598  0.2838  0.3276  0.1750
  618MOL0     C81470  -1.768   1.460   5.666  0.0011  0.3431 -0.0719
  618MOL0     C81471  -1.893   1.445   5.720  0.3575 -1.0508  0.0151
  618MOL0     C81472  -1.989   1.546   5.722 -0.7010 -0.2338  1.0051
  618MOL0     C81473  -2.122   1.516   5.781 -0.7951  1.1638  0.0605
  618MOL0     O81474  -2.134   1.393   5.834  0.2393  0.1616  0.5839
  618MOL0     C81475  -2.255   1.357   5.896  0.5838  0.0681 -0.0350
  618MOL0     C81476  -2.253   1.357   6.036  0.3928 -1.1967  0.3125
  618MOL0     C81477  -2.371   1.350   6.105 -0.4145 -0.0080  0.5150
  618MOL0     C81478  -2.494   1.325   6.034  0.4288 -0.4214 -0.1985
  618MOL0     O81479  -2.613   1.286   6.091  0.4921 -0.0149  0.3447
  618MOL0     C81480  -2.627   1.290   6.230 -0.8839 -0.4147 -0.8182
  618MOL0     C81481  -2.774   1.247   6.273 -0.0148  0.0775  0.5016
  618MOL0     C81482  -2.878   1.335   6.210  0.0160  0.3296 -0.3122
  618MOL0     C81483  -3.017   1.285   6.254 -1.0035 -0.1508 -0.4348
  618MOL0     C81484  -3.122   1.391   6.251  0.0898 -0.5750 -0.3501
  618MOL0     C81485  -3.250   1.354   6.341 -0.3942 -0.6290  0.3248
  618MOL0     C81486  -3.228   1.343   6.488 -0.7303  0.3266  0.1066
  618MOL0     C81487  -3.357   1.309   6.552  0.3265 -0.7879  0.0332
  618MOL0    Cl81488  -3.344   1.285   6.728 -0.0899  0.2440 -0.1910
  618MOL0     C81489  -2.496   1.315   5.897 -0.4881  0.1844 -0.1327
  618MOL0     C81490  -2.380   1.343   5.828  1.1254  0.5799  0.1730
  618MOL0     O81491  -2.215   1.596   5.775 -0.0486 -0.5507 -0.2828
  618MOL0     C81492  -1.967   1.665   5.646 -0.5400 -0.6305  0.7547
  618MOL0     C81493  -1.842   1.677   5.583  0.3485 -0.1925  0.5652
  618MOL0     N81494  -0.982   1.576   5.653  0.5563  0.1729 -0.0900
  618MOL0     N81495  -0.857   1.557   5.672  0.1579  0.0147 -0.4806
  618MOL0     C81496   0.036   1.115   5.844 -0.0167  0.6253  0.5856
  618MOL0     C81497   0.151   1.084   5.767 -0.8809 -0.6165  0.3143
  618MOL0     C81498   0.523   1.155   5.499 -0.2328  0.3110  0.2003
  618MOL0     C81499   0.585   1.223   5.396 -0.0648  0.3299  0.2504
  618MOL0     C81500   0.714   1.197   5.352 -0.4064  0.3676  0.5236
  618MOL0     C81501   0.795   1.091   5.406  0.0210 -0.1866  0.5719
  618MOL0     O81502   0.907   1.045   5.343 -0.4615 -0.5748 -0.1700
  618MOL0     C81503   1.024   1.126   5.359 -0.2288 -0.3762 -0.0957
  618MOL0     C81504   1.142   1.041   5.376 -0.1455  0.3038  0.0636
  618MOL0     C81505   1.168   0.968   5.247  0.0033  0.3177 -0.0701
  618MOL0     C81506   1.314   0.928   5.228 -0.3636  0.0827 -0.1526
  618MOL0     C81507   1.425   1.027   5.234 -0.2274  0.0939  0.2023
  618MOL0     C81508   1.498   1.120   5.227 -0.6482  0.1973 -0.2172
  618MOL0     C81509   0.739   1.023   5.517 -0.1033 -0.1039 -0.8057
  618MOL0     C81510   0.604   1.050   5.559 -0.5864  1.0817 -0.1892
  618MOL0     H81511   0.270   1.396   5.736 -1.0555  0.5012 -0.2897
  618MOL0     H81512   0.068   1.458   5.862  0.3887  0.9508  0.3386
  618MOL0     H81513  -0.056   1.461   6.018 -0.2664  0.4070  2.1062
  618MOL0     H81514  -0.182   1.382   6.112 -0.5088  2.4190 -0.0963
  618MOL0     H81515  -0.263   1.581   5.978 -2.6435  0.4274 -0.4788
  618MOL0     H81516  -0.357   1.424   5.954  1.3139 -1.9227 -1.2114
  618MOL0     H81517  -0.261   1.372   5.756 -0.8266  0.0561 -0.5883
  618MOL0     H81518  -0.153   1.513   5.757 -0.3727  0.8284  0.1665
  618MOL0     H81519  -0.454   1.552   5.771 -0.5305  0.1524 -2.1621
  618MOL0     H81520  -0.326   1.677   5.759  1.6952  0.4740 -2.2744
  618MOL0     H81521  -0.358   1.469   5.544  5.0475  0.6836 -0.9214
  618MOL0     H81522  -0.234   1.585   5.556  1.0440 -0.2104  2.7479
  618MOL0     H81523  -0.430   1.665   5.396 -2.2765  0.6282 -0.7096
  618MOL0     H81524  -0.368   1.764   5.525  1.5639 -1.3002 -2.3120
  618MOL0     H81525  -0.569   1.723   5.654  2.0254 -0.7732  0.7452
  618MOL0     H81526  -0.616   1.783   5.494  0.8490 -1.1635 -2.1135
  618MOL0     H81527  -0.597   1.501   5.585  0.1785  2.6236  1.4383
  618MOL0     H81528  -0.636   1.556   5.419 -0.8773  3.1742 -1.2125
  618MOL0     H81529  -0.862   1.706   5.380 -0.7414  1.6438  1.4619
  618MOL0     H81530  -1.157   1.591   5.380  0.8839 -0.3880  0.2730
  618MOL0     H81531  -1.163   1.750   5.463  0.8617  0.1575  0.3614
  618MOL0     H81532  -1.255   1.654   5.654  1.2364  0.8553 -0.4493
  618MOL0     H81533  -1.226   1.487   5.591  0.9785  0.3953 -0.3395
  618MOL0     H81534  -1.416   1.698   5.485 -0.1199  1.2219  0.3682
  618MOL0     H81535  -1.387   1.533   5.409 -1.9409 -0.9988  1.6042
  618MOL0     H81536  -1.485   1.555   5.690 -1.4362 -1.3358 -0.1826
  618MOL0     H81537  -1.521   1.437   5.556  1.6076  0.6210 -1.2553
  618MOL0     H81538  -1.707   1.375   5.696 -0.3631  0.3396  0.6825
  618MOL0     H81539  -1.926   1.352   5.766 -0.3700  0.3151  2.4417
  618MOL0     H81540  -2.157   1.379   6.080  0.2522  0.2865 -0.0776
  618MOL0     H81541  -2.379   1.352   6.213 -1.3608  1.3064  0.4560
  618MOL0     H81542  -2.602   1.390   6.268 -2.7155  0.1703 -1.0687
  618MOL0     H81543  -2.566   1.213   6.279 -0.8692  0.1732  0.1150
  618MOL0     H81544  -2.778   1.249   6.383  0.2181 -2.7815  0.6393
  618MOL0     H81545  -2.786   1.141   6.249  2.0154 -0.5355  1.9084
  618MOL0     H81546  -2.862   1.333   6.101  1.4512 -2.9296 -0.1546
  618MOL0     H81547  -2.848   1.437   6.236  3.4209 -0.9493  1.4425
  618MOL0     H81548  -3.040   1.199   6.190  2.5424  0.7722 -3.3271
  618MOL0     H81549  -3.009   1.245   6.356 -1.4797  0.5301 -0.1236
  618MOL0     H81550  -3.167   1.411   6.153  1.0226 -2.6885 -1.2611
  618MOL0     H81551  -3.074   1.486   6.279 -0.8616  0.5278 -2.2197
  618MOL0     H81552  -3.281   1.255   6.305  0.7363 -0.6941 -0.5055
  618MOL0     H81553  -3.328   1.431   6.336  0.6737  0.4372 -0.3221
  618MOL0     H81554  -3.158   1.268   6.525 -2.5434 -0.7968  1.3995
  618MOL0     H81555  -3.205   1.443   6.528 -1.8841  0.8609 -0.5025
  618MOL0     H81556  -3.406   1.223   6.506  0.0382 -0.5349 -0.1424
  618MOL0     H81557  -3.428   1.390   6.530  0.0047 -1.6472 -2.4388
  618MOL0     H81558  -2.581   1.269   5.847 -0.5573  0.8106 -0.6061
  618MOL0     H81559  -2.401   1.344   5.721  1.0711 -0.4080  0.1712
  618MOL0     H81560  -2.044   1.741   5.646  0.2279  0.2200 -1.3399
  618MOL0     H81561  -1.808   1.761   5.523  0.3873  0.9312  2.0905
  618MOL0     H81562  -0.040   1.038   5.859  0.3915  0.2434  0.7398
  618MOL0     H81563   0.179   0.985   5.732 -0.4743 -0.4733  0.2367
  618MOL0     H81564   0.526   1.303   5.352  1.0204  0.1290 -1.6929
  618MOL0     H81565   0.755   1.254   5.270  0.1520  1.5542  1.5881
  618MOL0     H81566   1.012   1.206   5.433  2.5087 -0.8304  0.9612
  618MOL0     H81567   1.030   1.179   5.263 -1.2610 -1.2405 -0.6626
  618MOL0     H81568   1.218   1.119   5.390  0.3155  0.0510 -0.8907
  618MOL0     H81569   1.125   0.978   5.464 -1.6640  0.2677 -0.2272
  618MOL0     H81570   1.131   1.030   5.165 -0.9883 -0.8956 -0.5710
  618MOL0     H81571   1.120   0.870   5.252  1.4876 -0.6044 -2.1545
  618MOL0     H81572   1.332   0.854   5.307 -2.4088 -0.6678 -0.3235
  618MOL0     H81573   1.311   0.871   5.135  0.4277 -1.6326  0.8220
  618MOL0     H81574   1.583   1.182   5.207  0.0471  0.0154  1.8787
  618MOL0     H81575   0.787   0.935   5.557 -0.7860  0.3992  1.2166
  618MOL0     H81576   0.576   0.989   5.643  1.1575 -2.1933 -1.7932
  619MOL0     O81577   2.685   4.440   0.962  0.3262  0.0193 -0.0621
  619MOL0     C81578   2.658   4.550   0.918  0.4570 -0.1169 -0.2222
  619MOL0     O81579   2.536   4.604   0.898 -0.7001 -0.1329  0.3434
  619MOL0     C81580   2.414   4.549   0.944 -1.2193 -0.9522  0.3276
  619MOL0     C81581   2.299   4.598   0.895  0.9835  0.0016 -0.0162
  619MOL0     C81582   2.172   4.561   0.939 -0.0404  0.3094 -0.0999
  619MOL0     C81583   2.166   4.463   1.041 -0.4697 -0.0230 -0.1555
  619MOL0     O81584   2.051   4.418   1.094  0.3929 -1.0414 -0.0451
  619MOL0     C81585   1.933   4.498   1.063 -0.3482  0.3058 -0.2755
  619MOL0     C81586   1.821   4.430   1.116  0.3210  0.4525  0.2347
  619MOL0     C81587   1.685   4.497   1.063  0.0717  0.5794  0.3578
  619MOL0     C81588   1.571   4.425   1.127 -0.2166 -0.3961 -1.0499
  619MOL0     C81589   1.441   4.484   1.068  0.3073 -0.3079 -0.0631
  619MOL0     C81590   1.319   4.397   1.102  0.4322 -0.1829 -0.4182
  619MOL0     C81591   1.188   4.479   1.101 -0.3658  0.2730 -0.3324
  619MOL0     C81592   1.100   4.442   0.986  0.5279  0.2332  0.6192
  619MOL0     N81593   1.035   4.310   0.978 -0.3740  0.0488  0.8435
  619MOL0     C81594   1.004   4.239   0.860  0.0407  1.0330  0.0390
  619MOL0     C81595   0.953   4.122   0.912  0.8252  0.1491  0.3189
  619MOL0     C81596   0.889   4.012   0.839 -0.2680  0.4030  0.5405
  619MOL0     C81597   0.745   4.047   0.800 -0.3946 -0.6280 -0.3973
  619MOL0     C81598   0.696   3.939   0.705 -0.1072 -1.0404  0.2670
  619MOL0     C81599   0.548   3.971   0.666  0.1080 -0.1611 -0.3096
  619MOL0     O81600   0.466   3.963   0.780 -1.2417  0.3183 -0.1790
  619MOL0     C81601   0.330   3.969   0.761  0.4775  0.3696 -0.7444
  619MOL0     C81602   0.247   3.968   0.874  0.0875 -0.5526 -0.4557
  619MOL0     C81603   0.109   3.980   0.853 -0.2300 -0.0159 -0.7785
  619MOL0     C81604   0.048   3.980   0.728  0.9759 -0.3797  0.1743
  619MOL0     C81605  -0.102   3.994   0.715 -0.0377 -0.0533  0.6116
  619MOL0     O81606  -0.173   3.975   0.830 -0.3612  0.2507  0.5087
  619MOL0     C81607  -0.314   3.989   0.840  0.7214 -0.1792  0.3460
  619MOL0     C81608  -0.368   3.965   0.962  0.5242  0.1970 -0.4155
  619MOL0     C81609  -0.505   3.983   0.986 -0.1713 -0.7935  0.2527
  619MOL0     C81610  -0.588   4.035   0.891  0.0688  1.1099 -0.5314
  619MOL0     O81611  -0.720   4.050   0.926  0.0366  0.6779 -0.5694
  619MOL0     C81612  -0.795   4.140   0.844  0.2693  0.1947  0.3926
  619MOL0     C81613  -0.944   4.143   0.880 -0.5648  0.0205 -0.1556
  619MOL0     C81614  -0.952   4.219   1.020 -0.1433  0.4327  0.2820
  619MOL0     C81615  -1.090   4.262   1.053 -0.3037  0.5481 -0.1031
  619MOL0     C81616  -1.110   4.345   1.186  0.3993  0.2350  0.2745
  619MOL0     C81617  -1.255   4.408   1.187 -0.0717  0.6717 -0.2778
  619MOL0     C81618  -1.357   4.292   1.174  0.8238  0.8717 -0.7850
  619MOL0     C81619  -1.498   4.332   1.208  0.7460 -0.9526  0.2871
  619MOL0    Cl81620  -1.604   4.182   1.183 -0.0941  0.3191  0.0786
  619MOL0     C81621  -0.534   4.077   0.770 -1.0266  0.0554 -0.3022
  619MOL0     C81622  -0.399   4.047   0.742 -0.6673  0.1860  0.5257
  619MOL0     O81623  -0.142   4.031   0.603  0.3085  0.2974  0.3436
  619MOL0     C81624   0.136   3.982   0.619 -0.1645  0.6478  0.9353
  619MOL0     C81625   0.274   3.976   0.633 -0.1242 -0.5365  0.0315
  619MOL0     N81626   0.972   4.127   1.048  0.3776  0.7690  0.0005
  619MOL0     N81627   1.013   4.242   1.091 -0.3703 -0.5636  0.5787
  619MOL0     C81628   2.283   4.414   1.096  0.2910  0.6594  0.2272
  619MOL0     C81629   2.410   4.460   1.051  0.3200  0.5921 -0.5408
  619MOL0     C81630   2.768   4.638   0.886 -0.1831 -0.3225  0.4287
  619MOL0     C81631   2.886   4.584   0.837 -0.1482 -0.4280  0.1420
  619MOL0     C81632   2.997   4.666   0.810 -0.5662 -0.4830  0.1811
  619MOL0     C81633   2.991   4.811   0.827 -0.3230  0.1011  0.2200
  619MOL0     O81634   3.097   4.888   0.782  0.6542  0.2618  0.2568
  619MOL0     C81635   3.211   4.835   0.717  0.4656  0.7187 -0.3217
  619MOL0     C81636   3.323   4.939   0.680  0.0435 -0.3684  0.3501
  619MOL0     C81637   3.463   4.880   0.647  0.5714  1.0147  0.0159
  619MOL0     C81638   3.534   4.836   0.774 -0.3078  0.0572  0.8912
  619MOL0     C81639   3.673   4.815   0.736 -0.1310  0.4017 -0.3159
  619MOL0     C81640   3.785   4.808   0.697 -0.7248  0.5429  0.1576
  619MOL0     C81641   2.872   4.868   0.867  0.5843  0.3393  0.6020
  619MOL0     C81642   2.762   4.781   0.893  0.2705 -0.2277 -0.2057
  619MOL0     H81643   2.303   4.679   0.823 -0.8450 -2.1588 -2.7219
  619MOL0     H81644   2.090   4.613   0.892 -0.9648 -2.0013 -1.2172
  619MOL0     H81645   1.919   4.509   0.955  2.3928  1.6544 -0.5792
  619MOL0     H81646   1.943   4.602   1.098  0.2454  1.0912 -2.5911
  619MOL0     H81647   1.816   4.432   1.225 -2.6404 -2.2827  0.3064
  619MOL0     H81648   1.826   4.329   1.074 -0.0747  1.1669 -1.6606
  619MOL0     H81649   1.685   4.480   0.955 -0.5780  2.7293 -0.0183
  619MOL0     H81650   1.688   4.604   1.084 -0.2009  0.4983  0.8146
  619MOL0     H81651   1.579   4.318   1.106 -1.3815 -0.8706  0.7022
  619MOL0     H81652   1.576   4.435   1.236 -0.8867 -1.8980 -0.8644
  619MOL0     H81653   1.449   4.500   0.960 -0.1070  1.4926  0.1438
  619MOL0     H81654   1.425   4.586   1.104  0.6227 -0.8083  1.5570
  619MOL0     H81655   1.334   4.367   1.206  2.0711  0.4096 -0.4614
  619MOL0     H81656   1.310   4.300   1.052 -4.2100 -0.2134 -0.0071
  619MOL0     H81657   1.140   4.461   1.197  1.3205  0.3200  0.5603
  619MOL0     H81658   1.212   4.585   1.091 -1.5657  0.5707 -0.2245
  619MOL0     H81659   1.163   4.449   0.897 -0.8812 -0.5975 -0.4929
  619MOL0     H81660   1.010   4.503   0.974 -0.5840 -1.5863 -0.9028
  619MOL0     H81661   1.017   4.269   0.756 -0.1266  2.7227  0.4818
  619MOL0     H81662   0.889   3.923   0.903 -2.5116  1.5294  2.2101
  619MOL0     H81663   0.944   3.987   0.747 -0.4516  1.5259  0.1080
  619MOL0     H81664   0.748   4.137   0.737  0.3379 -1.5079 -1.6665
  619MOL0     H81665   0.677   4.053   0.885 -0.5440 -1.1459 -0.4765
  619MOL0     H81666   0.755   3.935   0.613 -1.3836 -0.9288 -0.5863
  619MOL0     H81667   0.697   3.836   0.740  1.7316 -0.7278  1.2597
  619MOL0     H81668   0.520   3.903   0.586 -1.2286  0.2940 -0.2475
  619MOL0     H81669   0.538   4.069   0.619 -1.1297  0.4227  1.0710
  619MOL0     H81670   0.297   3.964   0.970 -1.1931  0.9050  0.3045
  619MOL0     H81671   0.048   3.992   0.942 -0.3553  1.3746 -1.0261
  619MOL0     H81672  -0.306   3.942   1.048 -0.8666  2.0370  1.1883
  619MOL0     H81673  -0.538   3.965   1.088  1.8180 -0.7734  0.9371
  619MOL0     H81674  -0.793   4.090   0.747  3.9314 -0.2596  0.5881
  619MOL0     H81675  -0.748   4.238   0.838  0.8798 -0.2075 -2.8914
  619MOL0     H81676  -0.984   4.043   0.899  0.1446 -0.5881 -1.7072
  619MOL0     H81677  -0.993   4.206   0.806  0.9032  1.3591 -0.0441
  619MOL0     H81678  -0.883   4.304   1.012  0.2139  0.1297  0.0892
  619MOL0     H81679  -0.912   4.158   1.101  1.8046  3.5419  1.8691
  619MOL0     H81680  -1.126   4.324   0.970 -0.9469  1.2698  0.7037
  619MOL0     H81681  -1.154   4.173   1.056 -0.8674  0.9062 -1.2064
  619MOL0     H81682  -1.033   4.421   1.203  0.7086 -0.0579  0.1919
  619MOL0     H81683  -1.096   4.276   1.270 -0.6473  0.3464  0.5513
  619MOL0     H81684  -1.264   4.490   1.116 -1.1867  1.3149  0.5787
  619MOL0     H81685  -1.270   4.463   1.281  2.0217  0.7257  0.0800
  619MOL0     H81686  -1.361   4.254   1.072 -1.3022  1.4576 -0.9675
  619MOL0     H81687  -1.327   4.203   1.229  0.5243 -0.5085 -2.7444
  619MOL0     H81688  -1.526   4.403   1.129  0.9247 -2.7424 -1.4621
  619MOL0     H81689  -1.516   4.376   1.306 -0.6361  0.3427 -0.5050
  619MOL0     H81690  -0.580   4.127   0.686  0.4645 -0.6937 -1.6193
  619MOL0     H81691  -0.363   4.077   0.644  1.9821  1.3502  1.7584
  619MOL0     H81692   0.099   3.986   0.517 -0.3513  0.7173  1.0054
  619MOL0     H81693   0.330   3.984   0.540 -0.7074  2.6317 -0.1387
  619MOL0     H81694   2.277   4.340   1.175 -0.5809  2.0271  1.5006
  619MOL0     H81695   2.498   4.414   1.095 -1.3848 -1.7916  0.5873
  619MOL0     H81696   2.902   4.478   0.817 -0.8960 -0.4042 -0.6018
  619MOL0     H81697   3.079   4.621   0.755 -2.1300 -0.2645 -2.5292
  619MOL0     H81698   3.196   4.778   0.625  2.2561 -1.1996  0.4791
  619MOL0     H81699   3.255   4.755   0.778  0.2155  0.5869 -0.3114
  619MOL0     H81700   3.285   5.001   0.599 -3.5029 -2.2500  0.3710
  619MOL0     H81701   3.328   5.005   0.767  1.3118  1.6010 -1.1190
  619MOL0     H81702   3.514   4.950   0.580  1.3017 -1.3001 -1.9969
  619MOL0     H81703   3.444   4.789   0.589 -0.2260  1.5732 -0.6141
  619MOL0     H81704   3.537   4.915   0.850  0.4909  2.4869 -1.5338
  619MOL0     H81705   3.490   4.743   0.812 -0.1521 -1.1008 -1.5955
  619MOL0     H81706   3.884   4.791   0.658 -0.9088 -1.2364  0.3691
  619MOL0     H81707   2.867   4.976   0.870  2.9759  0.4971  0.9568
  619MOL0     H81708   2.665   4.817   0.925 -1.3086 -2.4651 -2.0885
  620MOL0     O81709  10.157   5.387   2.962  0.1415 -0.0309  0.2287
  620MOL0     C81710  10.121   5.454   3.057 -0.3067  0.1224 -0.7123
  620MOL0     O81711  10.190   5.469   3.179 -0.3930 -0.5109  0.1411
  620MOL0     C81712  10.316   5.410   3.178 -0.2840 -0.1756  0.1509
  620MOL0     C81713  10.356   5.328   3.285  0.5203  0.6775  0.5269
  620MOL0     C81714  10.484   5.273   3.283 -0.2554  0.9469 -0.1784
  620MOL0     C81715  10.579   5.308   3.186 -0.1657 -0.2402 -0.0808
  620MOL0     O81716  10.714   5.270   3.177 -0.0667 -0.1810  0.2518
  620MOL0     C81717  10.754   5.151   3.249  0.5552  0.3505  0.7030
  620MOL0     C81718  10.901   5.129   3.228 -0.2473  0.3077 -0.2084
  620MOL0     C81719  10.929   4.987   3.283 -0.1556  0.0271  0.2255
  620MOL0     C81720  11.080   4.958   3.276  0.3608  0.4592 -0.5576
  620MOL0     C81721  11.113   4.821   3.331 -0.3485 -0.0581 -0.1995
  620MOL0     C81722  11.257   4.829   3.382 -0.3990  0.5916 -1.1740
  620MOL0     C81723  11.318   4.692   3.429 -0.2470 -0.1065  0.6544
  620MOL0     C81724  11.350   4.607   3.302  0.1553  0.0935 -0.6721
  620MOL0     N81725  11.436   4.497   3.333  0.2466 -0.5359 -0.8203
  620MOL0     C81726  11.415   4.392   3.424  0.0561  0.4700  1.1330
  620MOL0     C81727  11.531   4.323   3.444 -1.2402  0.1814  0.0654
  620MOL0     C81728  11.541   4.219   3.544  0.4930  0.0571 -0.0835
  620MOL0     C81729  11.485   4.092   3.487  0.7720  0.6377 -0.1963
  620MOL0     C81730  11.495   3.965   3.577 -0.2729  0.6501 -0.3018
  620MOL0     C81731  11.406   3.857   3.519  0.1438  0.6689 -0.1550
  620MOL0     O81732  11.349   3.784   3.634  0.1199  0.0249  0.4826
  620MOL0     C81733  11.213   3.764   3.652 -0.5717  0.0585  0.6357
  620MOL0     C81734  11.113   3.777   3.556  0.7627  0.4295 -0.4261
  620MOL0     C81735  10.976   3.767   3.596 -0.0932  0.0365 -0.5113
  620MOL0     C81736  10.942   3.735   3.734  0.8516 -0.3880  0.9075
  620MOL0     C81737  10.799   3.728   3.780  0.4671 -0.5539  0.1425
  620MOL0     O81738  10.702   3.792   3.706 -0.3388  0.5007 -0.4525
  620MOL0     C81739  10.572   3.798   3.737  0.3765 -0.2862 -0.2855
  620MOL0     C81740  10.518   3.919   3.742 -0.0779  0.5032  0.6348
  620MOL0     C81741  10.385   3.926   3.772  0.1753  0.3791  0.7222
  620MOL0     C81742  10.303   3.814   3.802 -0.5779  0.1812  0.2137
  620MOL0     O81743  10.169   3.816   3.836  0.1149 -0.9569 -0.3397
  620MOL0     C81744  10.127   3.947   3.898 -0.4142 -0.2385 -0.1627
  620MOL0     C81745   9.994   3.933   3.965 -0.1900 -0.0165 -0.0096
  620MOL0     C81746   9.883   3.945   3.860  0.3752 -0.9075 -0.5222
  620MOL0     C81747   9.751   3.930   3.939 -0.6451 -0.5113 -0.4298
  620MOL0     C81748   9.637   4.014   3.871  0.1969  0.4282 -1.5295
  620MOL0     C81749   9.503   3.980   3.927 -0.4701  0.1854  0.3284
  620MOL0     C81750   9.390   4.051   3.858  0.2570 -0.0854 -0.2139
  620MOL0     C81751   9.268   4.036   3.956 -0.6069  0.1391  0.5026
  620MOL0    Cl81752   9.122   4.124   3.877 -0.1946  0.3095 -0.1838
  620MOL0     C81753  10.365   3.683   3.803  0.3777 -0.0327  0.1353
  620MOL0     C81754  10.498   3.679   3.763  0.7197 -0.2569 -0.5441
  620MOL0     O81755  10.780   3.663   3.885 -0.0810  0.1541  0.9913
  620MOL0     C81756  11.043   3.715   3.824 -0.2896 -0.9524  0.7519
  620MOL0     C81757  11.179   3.726   3.782  0.1490  0.3298 -0.6426
  620MOL0     N81758  11.626   4.394   3.376  0.9263  0.4823  0.4538
  620MOL0     N81759  11.567   4.493   3.311  0.4057  0.0646  0.2471
  620MOL0     C81760  10.539   5.387   3.081  0.2520 -0.0856  0.2255
  620MOL0     C81761  10.410   5.439   3.077  1.2018 -0.5242  0.5365
  620MOL0     C81762   9.990   5.525   3.060 -0.1155 -0.1411 -0.3230
  620MOL0     C81763   9.921   5.558   3.173  1.0401 -0.2476  0.2279
  620MOL0     C81764   9.798   5.622   3.166  0.0452 -0.6383  0.6825
  620MOL0     C81765   9.734   5.651   3.046  0.3407  0.6937  0.2334
  620MOL0     O81766   9.617   5.714   3.030  0.5789 -0.2378 -0.2198
  620MOL0     C81767   9.594   5.831   3.111  0.0527 -0.5878 -0.4107
  620MOL0     C81768   9.527   5.947   3.038 -0.6311  0.4634  1.7675
  620MOL0     C81769   9.526   6.072   3.121 -0.7192 -0.4822 -0.3351
  620MOL0     C81770   9.384   6.139   3.139  0.6850 -0.4145 -0.0509
  620MOL0     C81771   9.282   6.056   3.207 -0.5327  0.1581  0.0073
  620MOL0     C81772   9.192   5.980   3.239  0.0110  0.7157  0.5564
  620MOL0     C81773   9.795   5.606   2.926 -0.3777  0.0981  0.7775
  620MOL0     C81774   9.924   5.550   2.932 -0.0776 -0.6470  0.1142
  620MOL0     H81775  10.279   5.307   3.358  1.2469  0.4651  1.2390
  620MOL0     H81776  10.508   5.203   3.363 -2.7864 -1.3539 -1.2625
  620MOL0     H81777  10.700   5.060   3.221  1.3012 -0.1073  0.7168
  620MOL0     H81778  10.740   5.175   3.355 -2.3373  3.1093 -0.1377
  620MOL0     H81779  10.959   5.207   3.279  1.4978 -0.5164 -0.8214
  620MOL0     H81780  10.935   5.145   3.125 -0.5835  3.9557  0.1282
  620MOL0     H81781  10.874   4.908   3.232 -0.2683 -0.5483  1.2154
  620MOL0     H81782  10.900   4.983   3.389 -0.1855 -1.8099  0.1837
  620MOL0     H81783  11.110   4.945   3.171  3.0106 -1.4687  0.3305
  620MOL0     H81784  11.138   5.033   3.331 -0.2569  0.6937 -0.2132
  620MOL0     H81785  11.094   4.748   3.253 -0.4653 -0.9064  0.6092
  620MOL0     H81786  11.047   4.794   3.415 -2.9037  0.4217 -1.9394
  620MOL0     H81787  11.270   4.893   3.469  0.4324  0.9362 -1.5411
  620MOL0     H81788  11.324   4.873   3.307  0.7158  3.0990  1.1620
  620MOL0     H81789  11.415   4.708   3.477  0.4711 -0.0113 -0.7732
  620MOL0     H81790  11.255   4.641   3.502 -0.1788 -1.8647 -0.4701
  620MOL0     H81791  11.395   4.646   3.210  3.4938 -0.0853  0.7579
  620MOL0     H81792  11.253   4.558   3.283  0.6216 -0.8698 -0.6068
  620MOL0     H81793  11.317   4.364   3.462 -1.1363  1.1047 -1.3058
  620MOL0     H81794  11.480   4.238   3.633  0.1652 -2.7576  0.3704
  620MOL0     H81795  11.645   4.206   3.577  0.2583  1.0123  1.1222
  620MOL0     H81796  11.524   4.078   3.386  1.2649  3.0125 -0.4191
  620MOL0     H81797  11.379   4.116   3.475  0.2173 -0.7534  1.4364
  620MOL0     H81798  11.599   3.939   3.597  0.5596  1.3707 -3.2089
  620MOL0     H81799  11.450   3.986   3.675 -0.1009 -2.7379  0.6114
  620MOL0     H81800  11.464   3.788   3.457 -0.6447  0.0019 -0.1553
  620MOL0     H81801  11.329   3.893   3.451 -0.6920 -0.6722  0.0546
  620MOL0     H81802  11.141   3.799   3.454 -0.8406 -2.1004 -1.4788
  620MOL0     H81803  10.906   3.789   3.517 -2.2718  0.5264  1.4409
  620MOL0     H81804  10.577   4.010   3.740  2.4172 -1.0445 -1.9127
  620MOL0     H81805  10.332   4.020   3.773 -1.8371 -0.5373 -2.8847
  620MOL0     H81806  10.135   4.028   3.824 -0.5786 -2.5721 -2.9486
  620MOL0     H81807  10.190   3.976   3.983 -2.5132 -0.7196  1.6330
  620MOL0     H81808   9.982   4.018   4.032 -0.2138  0.0861 -0.1435
  620MOL0     H81809   9.990   3.833   4.011  0.8663 -0.1859 -0.2549
  620MOL0     H81810   9.905   3.863   3.791  1.2995 -0.1024 -1.2107
  620MOL0     H81811   9.880   4.039   3.804 -0.2115 -0.8825 -0.4616
  620MOL0     H81812   9.729   3.824   3.957 -0.3465 -0.3017  1.3107
  620MOL0     H81813   9.762   3.970   4.040  2.1095 -2.6453  0.2455
  620MOL0     H81814   9.634   3.999   3.763 -2.1481 -0.3974 -1.3970
  620MOL0     H81815   9.664   4.119   3.882  0.7721  0.2635 -1.2622
  620MOL0     H81816   9.502   4.005   4.033 -0.1686  4.6670 -0.5472
  620MOL0     H81817   9.483   3.873   3.916  0.4049 -0.2807  2.6488
  620MOL0     H81818   9.413   4.158   3.844 -0.9135 -0.1067 -2.8521
  620MOL0     H81819   9.360   4.005   3.764 -1.1377  1.0466 -0.3579
  620MOL0     H81820   9.280   4.085   4.053 -0.7094 -0.4779  0.8268
  620MOL0     H81821   9.252   3.933   3.988  0.9140 -0.3250 -0.1433
  620MOL0     H81822  10.307   3.595   3.829 -0.3848  0.6499  0.7765
  620MOL0     H81823  10.546   3.582   3.777 -2.9419 -1.8198  3.3757
  620MOL0     H81824  11.020   3.697   3.929  0.7371 -3.2246  0.6377
  620MOL0     H81825  11.259   3.729   3.855 -0.4672 -0.8027  0.1069
  620MOL0     H81826  10.611   5.402   3.002 -1.4296 -0.2648 -1.4063
  620MOL0     H81827  10.380   5.500   2.993  0.7584  1.0426  1.7926
  620MOL0     H81828   9.959   5.542   3.273  2.9064 -4.0415 -0.9350
  620MOL0     H81829   9.742   5.657   3.252  0.2681  4.2341 -0.8534
  620MOL0     H81830   9.680   5.865   3.171 -1.3248  1.0849  0.7057
  620MOL0     H81831   9.521   5.808   3.189  0.1907  1.4509  0.3657
  620MOL0     H81832   9.582   5.967   2.946 -0.9487  0.2815  1.5362
  620MOL0     H81833   9.424   5.928   3.005 -0.0256 -1.1573  0.7319
  620MOL0     H81834   9.599   6.138   3.073  0.8366 -3.6709 -2.6636
  620MOL0     H81835   9.563   6.052   3.222  2.1257 -0.4305 -1.2848
  620MOL0     H81836   9.404   6.222   3.206  0.4478  1.3749 -2.0822
  620MOL0     H81837   9.354   6.179   3.041 -0.4028  0.9872  0.8311
  620MOL0     H81838   9.103   5.934   3.277  0.7132  0.3988  1.8761
  620MOL0     H81839   9.753   5.621   2.827  0.7420 -0.8267  0.1366
  620MOL0     H81840   9.972   5.520   2.839  1.5966 -1.0898  1.0829
  621MOL0     O81841   8.060   0.627  10.043 -0.1612 -0.3865  0.6462
  621MOL0     C81842   8.088   0.563   9.943  0.9643 -0.7198  0.4431
  621MOL0     O81843   8.034   0.438   9.914  0.0974  0.0524  0.4304
  621MOL0     C81844   7.933   0.376   9.979  0.3424  0.8414 -0.0777
  621MOL0     C81845   7.835   0.447  10.048  0.3127 -0.0691 -0.0996
  621MOL0     C81846   7.716   0.390  10.096  1.4138 -0.1616  0.6302
  621MOL0     C81847   7.701   0.251  10.081  0.2160 -0.5026 -1.2200
  621MOL0     O81848   7.590   0.188  10.125  0.2959 -0.5916  0.1792
  621MOL0     C81849   7.469   0.251  10.107 -0.0532 -0.5042 -0.0833
  621MOL0     C81850   7.378   0.139  10.160 -0.7393  0.8394  0.2301
  621MOL0     C81851   7.238   0.192  10.205 -0.3551 -0.4274 -0.5701
  621MOL0     C81852   7.153   0.251  10.093 -0.2828 -0.2407  0.1394
  621MOL0     C81853   7.097   0.145  10.000  0.2181 -0.7164 -0.0388
  621MOL0     C81854   7.048   0.203   9.865  0.2788  0.0729  0.3840
  621MOL0     C81855   6.968   0.091   9.789 -0.1115  0.5590  0.6884
  621MOL0     C81856   6.829   0.090   9.839  0.3304  0.2316 -0.7976
  621MOL0     N81857   6.744   0.196   9.801 -0.1523 -0.4676 -0.3862
  621MOL0     C81858   6.649   0.257   9.878 -0.7016  0.2119  0.1266
  621MOL0     C81859   6.611   0.355   9.804  0.9486 -1.0435  0.1764
  621MOL0     C81860   6.517   0.471   9.856  0.1619 -0.2253 -0.2711
  621MOL0     C81861   6.391   0.461   9.780 -0.9085 -0.1402 -0.1629
  621MOL0     C81862   6.392   0.539   9.654  0.7466  0.2037  0.0685
  621MOL0     C81863   6.248   0.582   9.611  0.3239  0.3098  0.0374
  621MOL0     O81864   6.182   0.459   9.603 -1.0079 -0.6593  0.0526
  621MOL0     C81865   6.071   0.454   9.518  0.1255  0.2311  0.5033
  621MOL0     C81866   5.989   0.558   9.486 -0.0751 -0.0042  0.0520
  621MOL0     C81867   5.881   0.540   9.393 -0.3713 -0.1793  0.2018
  621MOL0     C81868   5.861   0.408   9.335  0.7960  0.5528  0.0738
  621MOL0     C81869   5.769   0.387   9.219 -0.0331 -0.5410  0.6871
  621MOL0     O81870   5.744   0.502   9.153 -0.6018  0.5445  0.3339
  621MOL0     C81871   5.653   0.496   9.050 -0.0733 -0.5268  0.5437
  621MOL0     C81872   5.694   0.561   8.932 -0.1232 -0.3347  0.4805
  621MOL0     C81873   5.632   0.536   8.808  0.2903 -0.0102 -0.2153
  621MOL0     C81874   5.517   0.454   8.810  0.2633 -0.3796  0.6196
  621MOL0     O81875   5.467   0.410   8.692 -0.3991 -0.4626 -0.3799
  621MOL0     C81876   5.403   0.496   8.593  0.7678  0.2272  0.3743
  621MOL0     C81877   5.253   0.516   8.625 -0.2841  0.4364  0.2515
  621MOL0     C81878   5.172   0.385   8.643 -1.2919  0.4271 -0.1411
  621MOL0     C81879   5.031   0.418   8.675  0.4146  0.3661 -0.2644
  621MOL0     C81880   4.949   0.289   8.652  0.1216 -0.2650  0.1118
  621MOL0     C81881   4.801   0.300   8.695  0.8977 -0.1074 -0.0298
  621MOL0     C81882   4.726   0.166   8.665 -0.1482  0.1055  0.1158
  621MOL0     C81883   4.608   0.137   8.754 -0.5424  0.8175  0.1967
  621MOL0    Cl81884   4.493   0.271   8.755 -0.0907  0.1479  0.0757
  621MOL0     C81885   5.467   0.403   8.926  0.3233 -0.4358 -0.3737
  621MOL0     C81886   5.527   0.427   9.053  0.1508 -0.5146  0.4117
  621MOL0     O81887   5.726   0.279   9.203 -0.4042 -0.5181 -0.0695
  621MOL0     C81888   5.940   0.298   9.380 -0.2276  0.0713 -0.4579
  621MOL0     C81889   6.051   0.321   9.465 -0.2266 -0.5117 -0.0687
  621MOL0     N81890   6.678   0.359   9.684 -0.7550  0.2575 -0.1288
  621MOL0     N81891   6.771   0.265   9.686 -0.6342 -0.0035 -0.2390
  621MOL0     C81892   7.803   0.171  10.028  0.4447  0.6192  0.4805
  621MOL0     C81893   7.911   0.234   9.964 -0.4051  0.4499  0.1847
  621MOL0     C81894   8.201   0.613   9.855 -0.1748 -0.1913 -0.2425
  621MOL0     C81895   8.234   0.540   9.742 -0.4299 -0.4474 -0.4811
  621MOL0     C81896   8.328   0.589   9.650 -0.0959 -0.9822 -1.3546
  621MOL0     C81897   8.401   0.707   9.673  0.0922 -0.1718 -0.1342
  621MOL0     O81898   8.489   0.750   9.571  0.5377 -0.2507 -0.5338
  621MOL0     C81899   8.600   0.841   9.590 -0.6759 -0.9455  0.2760
  621MOL0     C81900   8.723   0.778   9.654  0.4741  0.2243  0.3803
  621MOL0     C81901   8.788   0.669   9.570 -0.9884  0.2646 -0.5546
  621MOL0     C81902   8.724   0.529   9.568 -0.4734  0.1875  0.8225
  621MOL0     C81903   8.689   0.462   9.698 -0.0118  0.2673  0.3100
  621MOL0     C81904   8.675   0.411   9.809  1.4013 -0.6408 -0.0357
  621MOL0     C81905   8.371   0.772   9.797 -0.0466 -0.0233 -0.5716
  621MOL0     C81906   8.265   0.732   9.884  0.1892 -0.5642  0.1625
  621MOL0     H81907   7.846   0.554  10.060 -3.0298  0.2210  1.3974
  621MOL0     H81908   7.638   0.457  10.129 -0.1078  1.9771 -5.8411
  621MOL0     H81909   7.444   0.282  10.005  0.0842 -0.0320  0.0279
  621MOL0     H81910   7.469   0.338  10.173 -0.1594 -1.2270  0.9003
  621MOL0     H81911   7.429   0.083  10.239 -0.4278  0.1245 -0.4670
  621MOL0     H81912   7.369   0.070  10.076  0.8185  0.3006  0.4719
  621MOL0     H81913   7.241   0.268  10.284 -0.8077 -0.0527 -0.9066
  621MOL0     H81914   7.187   0.111  10.259 -1.6680  2.2830  2.6548
  621MOL0     H81915   7.074   0.317  10.130  1.1252  2.4705 -1.3286
  621MOL0     H81916   7.222   0.321  10.044  1.4527 -2.3138 -0.5093
  621MOL0     H81917   7.008   0.101  10.047 -0.3134  1.0412  0.6765
  621MOL0     H81918   7.169   0.066   9.977  0.4534 -0.3509 -0.5677
  621MOL0     H81919   7.140   0.214   9.807  0.1437  1.0602  0.3493
  621MOL0     H81920   6.989   0.295   9.873 -0.2892 -0.3794  1.7640
  621MOL0     H81921   6.964   0.104   9.680  1.4280 -3.7686 -0.0602
  621MOL0     H81922   7.012  -0.007   9.809 -0.2601  0.7717  2.1069
  621MOL0     H81923   6.832   0.080   9.948 -1.5409  1.6765 -0.5811
  621MOL0     H81924   6.789  -0.003   9.797 -2.2196  0.3716  1.1332
  621MOL0     H81925   6.620   0.224   9.977  1.1557  0.5972  0.8412
  621MOL0     H81926   6.573   0.565   9.850  1.7872 -1.2351 -1.6609
  621MOL0     H81927   6.494   0.455   9.962  0.7669  1.6173  0.1740
  621MOL0     H81928   6.308   0.504   9.836 -0.1594  1.7680 -0.4570
  621MOL0     H81929   6.361   0.357   9.764  2.4931 -1.4911  1.3551
  621MOL0     H81930   6.467   0.619   9.656  1.7214 -0.6686 -0.6135
  621MOL0     H81931   6.434   0.482   9.571  2.2605 -0.7642  1.4428
  621MOL0     H81932   6.244   0.632   9.514  2.1603  1.9167  0.7147
  621MOL0     H81933   6.213   0.651   9.688 -0.7334 -0.2901  0.1119
  621MOL0     H81934   6.014   0.656   9.525  1.8188 -0.6717  0.5926
  621MOL0     H81935   5.832   0.631   9.360  1.9230  1.3549  0.7479
  621MOL0     H81936   5.792   0.607   8.929 -1.0420  1.6801 -0.3492
  621MOL0     H81937   5.658   0.580   8.712 -0.0610 -0.2258 -0.4090
  621MOL0     H81938   5.414   0.452   8.494  0.4244 -0.7022  0.7392
  621MOL0     H81939   5.457   0.591   8.583  1.4032 -0.2603 -1.0616
  621MOL0     H81940   5.215   0.556   8.531  0.2231 -0.7790 -0.4926
  621MOL0     H81941   5.240   0.590   8.704  1.3670 -1.5055  2.4793
  621MOL0     H81942   5.214   0.332   8.729  1.4424 -3.2356 -3.3850
  621MOL0     H81943   5.185   0.318   8.557 -1.9401 -0.7668  0.6724
  621MOL0     H81944   5.025   0.459   8.776 -0.3802 -1.5158  0.5025
  621MOL0     H81945   4.990   0.493   8.606 -2.4019  0.7945  1.6839
  621MOL0     H81946   4.989   0.220   8.727 -0.2221 -0.1467  0.4030
  621MOL0     H81947   4.964   0.259   8.547  1.9152  2.1222 -0.3932
  621MOL0     H81948   4.752   0.382   8.643  3.0701  2.0993  1.1786
  621MOL0     H81949   4.797   0.335   8.799  0.1223  2.2270 -0.7865
  621MOL0     H81950   4.690   0.179   8.562 -1.0550  2.2420  0.6406
  621MOL0     H81951   4.801   0.087   8.674 -0.3208 -0.0101  0.5492
  621MOL0     H81952   4.646   0.123   8.855 -1.6812  1.7037  0.7728
  621MOL0     H81953   4.567   0.039   8.730  0.8288 -0.2678  2.0143
  621MOL0     H81954   5.371   0.354   8.915 -0.7191  0.8557  2.2170
  621MOL0     H81955   5.489   0.389   9.147 -2.0840  1.7625  0.5183
  621MOL0     H81956   5.934   0.199   9.338  0.8128  0.4824 -1.6607
  621MOL0     H81957   6.118   0.243   9.498 -0.3134 -1.0951 -1.2219
  621MOL0     H81958   7.783   0.065  10.029  1.1085  0.4118 -1.9385
  621MOL0     H81959   7.988   0.168   9.927 -0.4330 -1.3660  2.9903
  621MOL0     H81960   8.186   0.443   9.731 -2.4446  0.4999 -0.3149
  621MOL0     H81961   8.343   0.542   9.553  0.8316 -0.9400 -1.2392
  621MOL0     H81962   8.575   0.930   9.648  0.5954  0.3618 -1.1048
  621MOL0     H81963   8.629   0.892   9.498  1.4051 -1.9024  0.3236
  621MOL0     H81964   8.798   0.856   9.667  1.7686 -0.5215 -1.9266
  621MOL0     H81965   8.703   0.728   9.749  1.2170 -2.2881 -0.6782
  621MOL0     H81966   8.886   0.653   9.616 -0.6972 -1.8632 -1.8076
  621MOL0     H81967   8.801   0.705   9.467 -2.9127 -0.5967 -1.1318
  621MOL0     H81968   8.640   0.518   9.499 -0.8393  1.1309  1.1108
  621MOL0     H81969   8.798   0.469   9.514 -0.7588 -0.8081  1.5058
  621MOL0     H81970   8.673   0.366   9.907  1.4476  0.1568  0.3393
  621MOL0     H81971   8.432   0.859   9.819  1.7273 -0.3730 -3.6134
  621MOL0     H81972   8.228   0.794   9.964 -1.5393  1.3072 -1.9563
  622MOL0     O81973   8.002   0.411   7.794  0.3291  0.3464 -0.6616
  622MOL0     C81974   8.067   0.333   7.859 -0.0799 -0.0271 -0.3192
  622MOL0     O81975   8.044   0.197   7.868  0.9025 -0.0593 -0.3118
  622MOL0     C81976   7.938   0.153   7.789 -0.1500  0.0272 -0.3301
  622MOL0     C81977   7.975   0.107   7.666 -0.2085  0.5695  0.1665
  622MOL0     C81978   7.882   0.047   7.580  0.5735  0.1731  0.2672
  622MOL0     C81979   7.746   0.047   7.623 -0.1974  1.0473  0.0885
  622MOL0     O81980   7.646   0.008   7.539  0.1879 -0.0088  0.2073
  622MOL0     C81981   7.646   0.051   7.404 -0.3522  0.1648  0.7444
  622MOL0     C81982   7.540  -0.027   7.343 -0.2770  0.2601 -0.1167
  622MOL0     C81983   7.526   0.006   7.191 -0.0295 -0.1750 -0.5740
  622MOL0     C81984   7.447  -0.096   7.117  1.3895  0.6457  0.1117
  622MOL0     C81985   7.298  -0.062   7.104 -0.2888  0.7572  0.0891
  622MOL0     C81986   7.205  -0.120   7.220 -0.3443 -0.5879 -0.1426
  622MOL0     C81987   7.062  -0.126   7.171  0.4125  0.0032  0.2068
  622MOL0     C81988   6.996   0.006   7.150 -1.0129 -0.0755 -1.2954
  622MOL0     N81989   6.867  -0.016   7.087 -0.1056  0.7414  0.4740
  622MOL0     C81990   6.746   0.043   7.110 -0.5561  0.3687  0.3308
  622MOL0     C81991   6.667  -0.012   7.017 -0.6185  0.1509 -0.3257
  622MOL0     C81992   6.517   0.018   7.020 -0.7746 -0.5480  1.0853
  622MOL0     C81993   6.465   0.048   6.875  0.5032 -0.4921 -1.4675
  622MOL0     C81994   6.336   0.123   6.885 -0.3608 -0.0418  0.2409
  622MOL0     C81995   6.255   0.123   6.746  0.4630  0.2299 -0.4838
  622MOL0     O81996   6.138   0.203   6.777  0.3299  0.1899  0.2341
  622MOL0     C81997   6.043   0.223   6.680 -0.1101 -0.0032  0.5936
  622MOL0     C81998   5.925   0.272   6.727  0.7445 -0.7179  0.5869
  622MOL0     C81999   5.820   0.300   6.636  0.3239 -0.3461  0.5848
  622MOL0     C82000   5.828   0.271   6.497 -0.1978  0.1212 -0.3519
  622MOL0     C82001   5.716   0.290   6.403  0.4175 -0.0886 -0.1450
  622MOL0     O82002   5.591   0.318   6.456  0.9200  0.1687  0.7296
  622MOL0     C82003   5.476   0.288   6.391  0.3140 -0.4749  0.7416
  622MOL0     C82004   5.455   0.169   6.322 -0.0030 -0.1628  0.4058
  622MOL0     C82005   5.324   0.129   6.275 -0.2388  0.1359  0.7903
  622MOL0     C82006   5.218   0.223   6.276  0.3604 -0.2432  0.0607
  622MOL0     O82007   5.087   0.209   6.232 -0.5491 -0.2552 -0.0512
  622MOL0     C82008   5.049   0.078   6.167  0.2329  0.1646  0.4220
  622MOL0     C82009   4.906   0.084   6.115 -0.6751  0.3311  0.7659
  622MOL0     C82010   4.815   0.119   6.233  0.7122  0.1025 -0.7103
  622MOL0     C82011   4.677   0.156   6.182 -0.1983  0.2993 -0.1573
  622MOL0     C82012   4.573   0.165   6.290  1.1564  0.0753 -0.1152
  622MOL0     C82013   4.442   0.197   6.228 -0.0773 -0.0648 -0.7776
  622MOL0     C82014   4.327   0.186   6.326  0.7733  0.1007  0.3456
  622MOL0     C82015   4.196   0.225   6.256 -0.9390  0.1715 -1.0143
  622MOL0    Cl82016   4.183   0.399   6.264  0.5141 -0.2373  0.1606
  622MOL0     C82017   5.231   0.337   6.358 -0.6965  0.7006 -0.2494
  622MOL0     C82018   5.359   0.366   6.417  0.5442  0.0875  0.4529
  622MOL0     O82019   5.740   0.275   6.286 -0.1036 -0.6812  0.0567
  622MOL0     C82020   5.952   0.219   6.453 -0.2739  1.1372  0.4581
  622MOL0     C82021   6.058   0.198   6.540  0.5370  0.3152  0.7276
  622MOL0     N82022   6.735  -0.103   6.940  0.0060 -0.9105 -0.4368
  622MOL0     N82023   6.856  -0.099   6.979  0.3517 -0.1125 -0.0227
  622MOL0     C82024   7.711   0.078   7.755  0.3929 -0.1373 -0.8604
  622MOL0     C82025   7.811   0.135   7.841 -0.1355 -1.1708 -0.6511
  622MOL0     C82026   8.180   0.393   7.942  0.1262  0.7714 -0.1688
  622MOL0     C82027   8.176   0.534   7.967  0.5589  0.7175  0.3270
  622MOL0     C82028   8.267   0.583   8.066 -0.6325 -0.0423 -0.8542
  622MOL0     C82029   8.356   0.499   8.135 -0.0078 -0.3145 -1.1379
  622MOL0     O82030   8.453   0.534   8.239 -0.0044 -0.2026 -0.2697
  622MOL0     C82031   8.471   0.671   8.277 -0.4272 -0.0292  0.0916
  622MOL0     C82032   8.567   0.676   8.400 -0.6318 -0.4906  0.3627
  622MOL0     C82033   8.583   0.812   8.467  0.5459 -0.5971 -0.1139
  622MOL0     C82034   8.660   0.923   8.392  0.0718  0.5832 -0.0110
  622MOL0     C82035   8.796   0.882   8.390 -0.1076  0.0672 -0.3803
  622MOL0     C82036   8.913   0.860   8.412 -0.3420  0.9135  0.3896
  622MOL0     C82037   8.350   0.362   8.112 -0.6418  0.0344  0.6834
  622MOL0     C82038   8.271   0.306   8.014 -0.6205 -0.1458 -0.1819
  622MOL0     H82039   8.081   0.118   7.643 -0.3369 -0.8921 -1.3023
  622MOL0     H82040   7.898   0.009   7.480 -2.4910  0.1222 -0.2960
  622MOL0     H82041   7.741   0.028   7.355 -1.5604 -1.4815 -0.9673
  622MOL0     H82042   7.626   0.158   7.407 -2.2358 -0.1432  0.3146
  622MOL0     H82043   7.451  -0.004   7.403 -0.1645  1.3919 -0.3512
  622MOL0     H82044   7.575  -0.129   7.360 -1.0956 -0.0708 -0.3337
  622MOL0     H82045   7.624   0.006   7.143  0.0877 -1.1838 -0.3458
  622MOL0     H82046   7.487   0.108   7.180 -0.7439 -0.4282 -0.4197
  622MOL0     H82047   7.493  -0.117   7.020 -3.3538 -3.0374 -1.7176
  622MOL0     H82048   7.455  -0.195   7.164 -1.1975  1.3376  2.2565
  622MOL0     H82049   7.277  -0.114   7.010  0.4622  0.8876 -0.1587
  622MOL0     H82050   7.276   0.044   7.092 -2.2389  0.4679  0.8199
  622MOL0     H82051   7.218  -0.058   7.309  1.3963 -1.8199  0.5002
  622MOL0     H82052   7.237  -0.219   7.253  1.6635 -0.3249 -1.1665
  622MOL0     H82053   7.072  -0.190   7.083  0.2122 -2.5036  1.8789
  622MOL0     H82054   7.011  -0.188   7.246  0.8896 -3.2806 -1.9728
  622MOL0     H82055   7.058   0.069   7.085 -0.7523 -0.7343 -1.7001
  622MOL0     H82056   6.988   0.052   7.249 -1.3249 -1.3564 -0.7060
  622MOL0     H82057   6.715   0.117   7.183 -0.4015  1.8141 -1.0001
  622MOL0     H82058   6.503   0.097   7.094  0.2209 -0.1369  0.8523
  622MOL0     H82059   6.463  -0.070   7.054  0.4023 -0.8182  2.3245
  622MOL0     H82060   6.451  -0.047   6.823 -0.1852 -0.4401 -1.3868
  622MOL0     H82061   6.538   0.109   6.821  1.7294  0.0998  0.7352
  622MOL0     H82062   6.268   0.081   6.959 -1.1148  1.2754  0.3408
  622MOL0     H82063   6.366   0.223   6.918 -2.6177  0.7648  0.0392
  622MOL0     H82064   6.223   0.022   6.719  0.7567  0.5169 -2.0012
  622MOL0     H82065   6.308   0.169   6.662 -0.6903  0.1606 -1.2780
  622MOL0     H82066   5.910   0.293   6.832 -3.8991  0.2497 -0.0483
  622MOL0     H82067   5.733   0.345   6.682 -3.2832 -2.7938 -3.1834
  622MOL0     H82068   5.541   0.103   6.328  1.8536  2.2329  4.3892
  622MOL0     H82069   5.309   0.032   6.228  1.6894  0.1979 -0.0544
  622MOL0     H82070   5.052  -0.002   6.241 -0.0317 -1.9011 -1.7051
  622MOL0     H82071   5.111   0.052   6.081 -0.6565  0.2819 -0.2744
  622MOL0     H82072   4.881  -0.013   6.072  0.1858  0.4032  0.0875
  622MOL0     H82073   4.903   0.154   6.031  3.5602 -0.8909 -0.6899
  622MOL0     H82074   4.854   0.212   6.278 -1.4368  1.6706 -1.8976
  622MOL0     H82075   4.815   0.046   6.315  0.1473  1.2083  0.3130
  622MOL0     H82076   4.661   0.244   6.118 -0.8466  0.1775 -0.1682
  622MOL0     H82077   4.660   0.078   6.107 -0.5369 -1.3088  1.5283
  622MOL0     H82078   4.599   0.248   6.356 -0.8382 -0.3704  1.3220
  622MOL0     H82079   4.575   0.071   6.346 -0.6003  0.7135  1.1174
  622MOL0     H82080   4.410   0.132   6.146 -0.7606 -0.9801  0.1752
  622MOL0     H82081   4.447   0.301   6.197  2.1657  1.0202  2.6322
  622MOL0     H82082   4.320   0.078   6.338 -0.5291  0.0346 -0.7896
  622MOL0     H82083   4.337   0.246   6.418 -0.2639  1.6084 -0.4735
  622MOL0     H82084   4.112   0.169   6.298 -0.9932 -0.7415 -2.2697
  622MOL0     H82085   4.208   0.203   6.149  0.5028 -1.7285 -0.5059
  622MOL0     H82086   5.140   0.393   6.379 -0.6628 -0.3588  3.4911
  622MOL0     H82087   5.374   0.456   6.476  1.1399  0.0892  0.3117
  622MOL0     H82088   5.974   0.193   6.350  1.4587  2.3941  0.4536
  622MOL0     H82089   6.147   0.154   6.498  0.0867  0.1719 -0.0908
  622MOL0     H82090   7.610   0.064   7.791  0.2519 -0.4490 -1.3743
  622MOL0     H82091   7.785   0.167   7.941 -0.9169 -1.1721 -0.8447
  622MOL0     H82092   8.116   0.606   7.911 -0.4323  1.0491  1.7565
  622MOL0     H82093   8.267   0.689   8.091 -0.9009 -0.4171  0.8811
  622MOL0     H82094   8.381   0.730   8.296  0.2894  0.5553  1.8955
  622MOL0     H82095   8.529   0.714   8.195 -1.2706  1.2504  0.1435
  622MOL0     H82096   8.534   0.601   8.474 -0.1756 -1.8849 -0.8058
  622MOL0     H82097   8.664   0.650   8.356 -0.9871 -0.2560 -0.5816
  622MOL0     H82098   8.636   0.779   8.556 -1.9825 -1.0932  1.3044
  622MOL0     H82099   8.485   0.843   8.505  0.3183 -1.6726  0.1964
  622MOL0     H82100   8.627   0.942   8.289  0.0572  1.9175  0.2153
  622MOL0     H82101   8.641   1.019   8.442  1.1657  1.6599 -1.5464
  622MOL0     H82102   9.014   0.841   8.442  0.7790 -0.6342 -3.6306
  622MOL0     H82103   8.412   0.292   8.168 -2.0991 -2.1299 -0.2626
  622MOL0     H82104   8.260   0.200   7.997 -1.3942  0.1160 -1.4090
  623MOL0     O82105   5.483   1.021   1.947 -0.0352 -0.0981  0.3532
  623MOL0     C82106   5.495   0.911   1.905 -0.3172  0.3258  0.2137
  623MOL0     O82107   5.606   0.854   1.871 -0.5736  0.7143  0.6081
  623MOL0     C82108   5.732   0.913   1.878 -0.3542 -0.2504 -0.5055
  623MOL0     C82109   5.836   0.858   1.795  0.9898  0.0442  0.8730
  623MOL0     C82110   5.961   0.919   1.784  0.2256 -0.0304 -0.0192
  623MOL0     C82111   5.992   1.026   1.879 -0.5028  1.1550 -1.0191
  623MOL0     O82112   6.111   1.091   1.858  0.0191 -0.4401 -0.1813
  623MOL0     C82113   6.224   1.028   1.917  0.9108 -0.3586 -0.4828
  623MOL0     C82114   6.339   1.129   1.904 -1.1637 -0.1709  0.4678
  623MOL0     C82115   6.312   1.253   1.994  0.0137  0.4241  0.7138
  623MOL0     C82116   6.405   1.375   1.955 -0.4998  0.3128 -0.1481
  623MOL0     C82117   6.432   1.473   2.068 -0.2647 -1.5671  0.0959
  623MOL0     C82118   6.313   1.570   2.082  0.3592  0.0933  0.5412
  623MOL0     C82119   6.312   1.651   2.209 -0.8538 -0.1546 -0.2339
  623MOL0     C82120   6.180   1.728   2.204 -0.3702 -0.8117  0.3074
  623MOL0     N82121   6.177   1.844   2.293  0.2458 -0.6693 -0.3161
  623MOL0     C82122   6.173   1.978   2.261 -0.0346  0.2924 -0.5110
  623MOL0     C82123   6.141   2.033   2.381 -0.5598  0.4794  1.1579
  623MOL0     C82124   6.121   2.185   2.393  0.1635  0.2023  0.0712
  623MOL0     C82125   6.135   2.225   2.538 -0.2950 -0.0454  0.7547
  623MOL0     C82126   6.163   2.375   2.560  0.1312 -0.5974 -0.0290
  623MOL0     C82127   6.071   2.477   2.489  0.4275  0.4580 -0.0612
  623MOL0     O82128   5.936   2.423   2.482  0.8156 -0.3997  0.3781
  623MOL0     C82129   5.834   2.518   2.499 -0.9068  0.8519 -0.0334
  623MOL0     C82130   5.838   2.638   2.425 -0.5983 -0.3721 -0.0262
  623MOL0     C82131   5.729   2.721   2.427  0.0818 -0.3111  0.2793
  623MOL0     C82132   5.615   2.693   2.509  0.1151 -0.4806 -0.1687
  623MOL0     C82133   5.504   2.791   2.511  0.8604 -0.3879 -0.3077
  623MOL0     O82134   5.532   2.911   2.451 -0.0591  0.3085 -0.7378
  623MOL0     C82135   5.435   3.003   2.456  0.3721 -0.4742 -0.3395
  623MOL0     C82136   5.456   3.125   2.520 -0.4213  0.4058  0.3639
  623MOL0     C82137   5.366   3.234   2.508  0.2995  0.4965 -0.0382
  623MOL0     C82138   5.238   3.206   2.441 -0.0050  0.3778  0.6792
  623MOL0     O82139   5.132   3.294   2.436  0.3335 -0.1199 -0.2160
  623MOL0     C82140   5.140   3.430   2.486 -0.6377 -0.0815  0.5061
  623MOL0     C82141   4.991   3.479   2.497 -0.3941 -0.3854  0.0384
  623MOL0     C82142   4.989   3.606   2.589  0.0715 -0.0923 -0.0252
  623MOL0     C82143   4.868   3.701   2.556  0.0453  0.6981 -0.0503
  623MOL0     C82144   4.837   3.804   2.675  0.2519 -0.8254  0.1771
  623MOL0     C82145   4.765   3.719   2.793 -0.0639 -0.3594  0.4048
  623MOL0     C82146   4.695   3.805   2.902 -0.2249  0.2957  0.0412
  623MOL0     C82147   4.650   3.727   3.023 -0.3062  0.1472 -0.4890
  623MOL0    Cl82148   4.520   3.608   2.974 -0.3062  0.1376 -0.0424
  623MOL0     C82149   5.219   3.086   2.373  0.5666 -0.5020 -0.4317
  623MOL0     C82150   5.319   2.991   2.380  0.2521 -0.1156  0.1924
  623MOL0     O82151   5.406   2.768   2.589 -0.1847 -0.1082 -0.1057
  623MOL0     C82152   5.622   2.589   2.603 -0.7434  0.9173 -0.3710
  623MOL0     C82153   5.727   2.494   2.584  0.6841 -0.2485  0.0593
  623MOL0     N82154   6.121   1.936   2.479 -0.1464  0.1531 -0.9781
  623MOL0     N82155   6.141   1.824   2.420  0.1318 -0.0318 -0.4178
  623MOL0     C82156   5.897   1.077   1.962 -0.3531  0.8115 -0.2380
  623MOL0     C82157   5.767   1.022   1.963  0.0347  1.4019 -0.2318
  623MOL0     C82158   5.372   0.836   1.880 -0.1697 -0.1619 -0.3716
  623MOL0     C82159   5.245   0.891   1.890 -0.2173 -1.1002  0.3349
  623MOL0     C82160   5.137   0.809   1.868  0.5921 -0.4050  0.3875
  623MOL0     C82161   5.145   0.679   1.818 -0.3774  0.3338 -0.5781
  623MOL0     O82162   5.032   0.612   1.794 -0.1165  0.1000 -0.0293
  623MOL0     C82163   5.032   0.471   1.775  0.3184  0.2360  0.1686
  623MOL0     C82164   5.035   0.395   1.914  0.3920  0.6189 -0.4991
  623MOL0     C82165   5.045   0.240   1.885  0.1418 -0.3988 -0.3867
  623MOL0     C82166   5.045   0.153   2.014  0.3975 -0.3585  0.0518
  623MOL0     C82167   5.001   0.018   1.986  0.2953 -0.2807  0.2416
  623MOL0     C82168   4.977  -0.101   1.966  1.7333 -0.3900  0.2338
  623MOL0     C82169   5.274   0.627   1.800 -0.7524 -0.4668 -0.1882
  623MOL0     C82170   5.385   0.705   1.827  0.4275  0.3516  0.0687
  623MOL0     H82171   5.812   0.772   1.733 -2.1107 -0.3750  2.4908
  623MOL0     H82172   6.039   0.895   1.713  0.9314 -1.0907  1.0650
  623MOL0     H82173   6.248   0.938   1.860 -0.2528  0.1915 -1.9196
  623MOL0     H82174   6.207   1.005   2.022 -0.5172  0.1320 -0.5880
  623MOL0     H82175   6.347   1.161   1.800  0.8714 -0.0351  0.6180
  623MOL0     H82176   6.437   1.084   1.923 -1.7856 -1.6001  0.4801
  623MOL0     H82177   6.337   1.237   2.099 -0.4513  0.5285  0.8402
  623MOL0     H82178   6.210   1.291   2.001 -0.2291 -0.4724  3.1099
  623MOL0     H82179   6.496   1.318   1.933 -2.0197 -2.9421  1.2086
  623MOL0     H82180   6.378   1.424   1.861 -2.1649  1.4007  0.8645
  623MOL0     H82181   6.525   1.530   2.058 -1.1070 -0.0109  0.7325
  623MOL0     H82182   6.442   1.423   2.165  0.9049 -1.5656 -0.0113
  623MOL0     H82183   6.219   1.515   2.068 -0.1246  1.2574 -1.0782
  623MOL0     H82184   6.324   1.637   1.996  1.5961 -0.0336  0.5825
  623MOL0     H82185   6.316   1.584   2.295  4.1735  1.4269  1.1139
  623MOL0     H82186   6.403   1.711   2.220 -1.0983  0.5362 -1.7697
  623MOL0     H82187   6.099   1.661   2.233 -0.8927 -1.8639 -3.1255
  623MOL0     H82188   6.152   1.764   2.105 -2.6530  0.6490  1.3815
  623MOL0     H82189   6.185   2.022   2.163  1.6721  0.8621 -0.0878
  623MOL0     H82190   6.018   2.202   2.362  1.0321  2.9142 -1.6810
  623MOL0     H82191   6.187   2.229   2.318 -2.9468 -1.2447 -3.9033
  623MOL0     H82192   6.217   2.165   2.576 -1.1745 -1.8633 -0.0844
  623MOL0     H82193   6.048   2.194   2.597 -0.5632  1.4538  1.2062
  623MOL0     H82194   6.149   2.394   2.666 -1.3389 -0.0437 -0.2931
  623MOL0     H82195   6.268   2.389   2.533  0.5075 -2.3102  0.4541
  623MOL0     H82196   6.103   2.487   2.385  2.8169 -0.8886  0.4687
  623MOL0     H82197   6.066   2.571   2.545  0.2681  0.0491  0.6237
  623MOL0     H82198   5.916   2.676   2.360  0.4157  0.7042  1.7493
  623MOL0     H82199   5.740   2.805   2.360 -1.4068  1.2815  1.9281
  623MOL0     H82200   5.542   3.136   2.585 -1.8841  1.6014  2.1971
  623MOL0     H82201   5.376   3.323   2.570 -1.6735 -1.0515  2.7713
  623MOL0     H82202   5.202   3.494   2.423 -0.9315  0.1786  0.4784
  623MOL0     H82203   5.182   3.432   2.587 -1.4510  0.9833  0.8460
  623MOL0     H82204   4.934   3.396   2.540 -0.5139 -0.1605  0.3173
  623MOL0     H82205   4.948   3.492   2.397  0.1490 -0.5042 -0.2173
  623MOL0     H82206   5.076   3.669   2.568  0.1095  0.3779  1.4279
  623MOL0     H82207   4.994   3.571   2.692 -0.4732  0.1229  0.0765
  623MOL0     H82208   4.879   3.748   2.458  0.4833  1.0958  0.1853
  623MOL0     H82209   4.779   3.638   2.548 -1.0355  1.5560  3.3260
  623MOL0     H82210   4.751   3.870   2.662 -1.3008 -2.6428  0.7333
  623MOL0     H82211   4.927   3.854   2.713 -0.2750  2.0266 -1.9997
  623MOL0     H82212   4.831   3.655   2.852 -0.8595 -0.7416  0.8951
  623MOL0     H82213   4.687   3.663   2.741 -1.6151  1.3912  0.7444
  623MOL0     H82214   4.766   3.882   2.936 -0.4069  0.2873  0.4447
  623MOL0     H82215   4.613   3.860   2.856 -0.5037  0.1629  0.3770
  623MOL0     H82216   4.612   3.798   3.097 -2.0018 -1.1405 -0.0676
  623MOL0     H82217   4.734   3.673   3.069 -0.9799  1.6519  2.8411
  623MOL0     H82218   5.128   3.067   2.316  1.4759  0.1410 -2.1722
  623MOL0     H82219   5.302   2.897   2.328  3.5189 -1.2713  1.0160
  623MOL0     H82220   5.536   2.576   2.668 -3.0358  1.4961 -3.0392
  623MOL0     H82221   5.728   2.397   2.633 -0.8433  1.0457  2.8811
  623MOL0     H82222   5.924   1.157   2.030 -2.6951  0.8837  0.7066
  623MOL0     H82223   5.700   1.060   2.040 -2.4023  0.2559 -1.6647
  623MOL0     H82224   5.241   0.990   1.934  2.2025 -1.6846  2.1073
  623MOL0     H82225   5.040   0.851   1.890  0.2656 -0.2989 -1.1145
  623MOL0     H82226   5.118   0.443   1.714  0.3693  0.8001 -0.0336
  623MOL0     H82227   4.947   0.435   1.716  1.5316  2.2457 -3.1303
  623MOL0     H82228   5.119   0.430   1.973  0.0513 -1.5370  1.3983
  623MOL0     H82229   4.943   0.420   1.968  1.2132 -2.5645  2.7183
  623MOL0     H82230   5.138   0.235   1.828  0.9514  0.6503  0.7787
  623MOL0     H82231   4.954   0.217   1.828 -0.7218  1.6938  0.0456
  623MOL0     H82232   5.141   0.168   2.064  0.9014 -0.6104 -0.8183
  623MOL0     H82233   4.968   0.197   2.079 -3.4463 -2.1273 -2.8447
  623MOL0     H82234   4.974  -0.207   1.959  1.0511 -0.2618 -3.1091
  623MOL0     H82235   5.297   0.526   1.768 -1.2101  0.2635 -3.1977
  623MOL0     H82236   5.479   0.661   1.796  0.9231  0.7479  0.9642
  624MOL0     O82237   5.298   1.691   0.822 -0.6088 -0.0315  0.3369
  624MOL0     C82238   5.290   1.810   0.864  0.9139 -0.3656 -0.3359
  624MOL0     O82239   5.190   1.903   0.830  0.0217  1.0142 -0.5835
  624MOL0     C82240   5.103   1.883   0.726 -0.0526 -0.6733  0.5648
  624MOL0     C82241   5.074   1.762   0.656  0.1780  0.5894  0.2197
  624MOL0     C82242   4.992   1.762   0.546  0.0376  0.7962 -0.4290
  624MOL0     C82243   4.916   1.874   0.512 -0.0123 -0.5319 -0.6525
  624MOL0     O82244   4.830   1.880   0.406 -0.6657  1.3451  0.4139
  624MOL0     C82245   4.802   1.766   0.328  0.1464  0.0584 -0.7316
  624MOL0     C82246   4.692   1.791   0.229 -0.0394 -0.6443  0.3370
  624MOL0     C82247   4.639   1.667   0.150 -0.0157  0.2801 -0.3722
  624MOL0     C82248   4.527   1.703   0.048  0.0834 -0.4123 -0.6463
  624MOL0     C82249   4.448   1.577   0.004 -0.3742 -0.0492 -0.4650
  624MOL0     C82250   4.328   1.616  -0.073 -0.4165  1.2183  0.5243
  624MOL0     C82251   4.231   1.499  -0.106 -0.1185 -0.1269  0.3119
  624MOL0     C82252   4.116   1.553  -0.189 -0.0640 -0.4574  0.2704
  624MOL0     N82253   4.028   1.445  -0.243  0.1064 -0.1388  0.2364
  624MOL0     C82254   3.966   1.445  -0.363  0.9892  1.2203  0.7900
  624MOL0     C82255   3.882   1.332  -0.350  0.3764  0.2443  0.6172
  624MOL0     C82256   3.784   1.294  -0.450 -0.7693 -0.0431 -0.5535
  624MOL0     C82257   3.645   1.335  -0.430 -0.3069  0.1341 -0.1335
  624MOL0     C82258   3.557   1.238  -0.499 -0.5817  0.0840  0.4171
  624MOL0     C82259   3.410   1.282  -0.497 -0.5090  0.2330  0.8362
  624MOL0     O82260   3.382   1.405  -0.572 -0.1006 -0.1501  0.2236
  624MOL0     C82261   3.255   1.453  -0.586  0.2188  0.0579 -0.2701
  624MOL0     C82262   3.134   1.381  -0.570 -0.5370 -0.5570 -0.7306
  624MOL0     C82263   3.006   1.443  -0.583 -0.7077  0.2458  0.1637
  624MOL0     C82264   2.996   1.580  -0.613 -0.1789 -0.0974 -0.3220
  624MOL0     C82265   2.860   1.632  -0.645  0.0977  1.1397  0.1080
  624MOL0     O82266   2.760   1.550  -0.645  0.3759  0.9379 -0.5866
  624MOL0     C82267   2.636   1.587  -0.685 -0.2839 -1.3648 -0.2594
  624MOL0     C82268   2.586   1.554  -0.813 -0.5073  0.8212  0.0700
  624MOL0     C82269   2.452   1.591  -0.848 -0.1111 -0.2242 -0.1982
  624MOL0     C82270   2.366   1.651  -0.757 -0.1441 -0.1711  0.1421
  624MOL0     O82271   2.236   1.672  -0.794  0.6459 -0.3485 -0.1973
  624MOL0     C82272   2.174   1.793  -0.749 -0.6616  0.3747  0.4194
  624MOL0     C82273   2.031   1.777  -0.793  0.1462  0.2074  0.1585
  624MOL0     C82274   1.983   1.921  -0.806 -0.3016  0.1616 -0.3866
  624MOL0     C82275   1.847   1.936  -0.863  0.0423  0.3434  0.2071
  624MOL0     C82276   1.734   1.892  -0.764 -0.8938 -0.1137 -0.0023
  624MOL0     C82277   1.605   1.954  -0.802  0.1817 -0.1375  0.2871
  624MOL0     C82278   1.504   1.897  -0.705 -0.3635  0.4291 -0.1214
  624MOL0     C82279   1.381   1.980  -0.695 -0.0770 -0.0746 -0.6310
  624MOL0    Cl82280   1.432   2.148  -0.639  0.6145 -0.1350 -0.3713
  624MOL0     C82281   2.416   1.683  -0.623 -0.7642 -0.1965  0.7596
  624MOL0     C82282   2.554   1.655  -0.594  0.2415 -0.7620 -0.7268
  624MOL0     O82283   2.863   1.753  -0.676 -0.0553  0.7517  0.0250
  624MOL0     C82284   3.111   1.656  -0.630 -0.6454  0.4986 -0.2195
  624MOL0     C82285   3.242   1.593  -0.617  0.6062  0.4286  0.0701
  624MOL0     N82286   3.898   1.276  -0.228 -0.0490  0.7882 -0.1006
  624MOL0     N82287   3.984   1.340  -0.172 -0.4918 -0.1723 -0.6307
  624MOL0     C82288   4.935   1.990   0.587 -0.2052 -0.0582 -0.4397
  624MOL0     C82289   5.030   1.997   0.688 -0.3521  0.0457 -0.7299
  624MOL0     C82290   5.386   1.860   0.970 -0.3737 -0.1691 -0.1032
  624MOL0     C82291   5.422   1.775   1.073 -0.0152  0.6845 -0.4260
  624MOL0     C82292   5.505   1.820   1.175  0.7459  0.0174 -0.0335
  624MOL0     C82293   5.548   1.952   1.180  0.4547 -1.1520  0.5745
  624MOL0     O82294   5.632   1.973   1.288 -0.3584  0.0323 -0.7824
  624MOL0     C82295   5.704   2.101   1.291  0.2678 -0.6194 -0.6004
  624MOL0     C82296   5.772   2.135   1.424 -0.0841  0.0110  0.2243
  624MOL0     C82297   5.839   2.271   1.435  0.5777  1.0784 -0.0170
  624MOL0     C82298   5.920   2.294   1.560  0.4612  0.0374 -0.1324
  624MOL0     C82299   5.950   2.434   1.588 -0.0722 -0.1545  0.6091
  624MOL0     C82300   5.979   2.548   1.604  0.2616  0.1120 -0.6759
  624MOL0     C82301   5.511   2.045   1.078 -0.5251  0.1702 -0.0027
  624MOL0     C82302   5.426   1.997   0.978  0.0107 -0.3184 -0.5180
  624MOL0     H82303   5.115   1.668   0.689  1.1783  1.4471  1.5375
  624MOL0     H82304   4.983   1.667   0.494  1.4908 -0.2454  1.1037
  624MOL0     H82305   4.766   1.696   0.403 -0.8565  0.6621 -0.6363
  624MOL0     H82306   4.892   1.730   0.278 -0.3533 -1.3057 -0.6816
  624MOL0     H82307   4.719   1.867   0.154 -4.4813  1.4835  0.5562
  624MOL0     H82308   4.603   1.837   0.274 -1.3842 -0.7426 -2.0340
  624MOL0     H82309   4.592   1.596   0.218 -2.4631  1.6911 -0.4842
  624MOL0     H82310   4.722   1.617   0.100 -0.7882 -0.5641 -0.8227
  624MOL0     H82311   4.461   1.775   0.097  1.3625  0.6687 -0.4469
  624MOL0     H82312   4.567   1.769  -0.029  1.3098  1.8534  1.7486
  624MOL0     H82313   4.425   1.516   0.092  2.3822 -1.7235 -0.8007
  624MOL0     H82314   4.517   1.514  -0.053 -0.0423 -0.3189  0.2301
  624MOL0     H82315   4.362   1.663  -0.166  0.7195 -0.5898 -0.0411
  624MOL0     H82316   4.266   1.692  -0.026 -1.9997  0.9702 -1.0467
  624MOL0     H82317   4.286   1.420  -0.158  0.9721  1.3378 -0.8605
  624MOL0     H82318   4.189   1.448  -0.020  1.5938 -0.0242  1.2420
  624MOL0     H82319   4.161   1.613  -0.269  2.8299  1.1197  2.8658
  624MOL0     H82320   4.053   1.613  -0.123  0.2765  0.3845 -0.1625
  624MOL0     H82321   3.976   1.516  -0.445 -3.8564 -1.0371 -2.2099
  624MOL0     H82322   3.784   1.185  -0.443  0.4747  0.0080  0.5316
  624MOL0     H82323   3.818   1.323  -0.550  1.0670  0.7690  0.2508
  624MOL0     H82324   3.628   1.434  -0.474  1.9383 -0.1431 -1.8347
  624MOL0     H82325   3.625   1.339  -0.323  1.0134 -1.1647  0.1988
  624MOL0     H82326   3.589   1.237  -0.604  0.5938 -2.4424  0.7324
  624MOL0     H82327   3.567   1.137  -0.458  1.5111  1.2903  3.1985
  624MOL0     H82328   3.384   1.306  -0.393 -2.7300 -1.9919  0.9022
  624MOL0     H82329   3.342   1.203  -0.531 -2.2815  2.1945 -0.4085
  624MOL0     H82330   3.149   1.280  -0.533  1.9944  0.4670  1.3686
  624MOL0     H82331   2.920   1.378  -0.572 -0.9606  0.6341  0.4825
  624MOL0     H82332   2.656   1.505  -0.879  0.2275  3.1718 -1.0328
  624MOL0     H82333   2.409   1.564  -0.944  0.2080 -0.1293 -0.3681
  624MOL0     H82334   2.224   1.883  -0.785  2.9056 -1.4667  0.3644
  624MOL0     H82335   2.176   1.817  -0.642  0.3523  1.3892  0.1995
  624MOL0     H82336   1.960   1.717  -0.736  2.0858 -1.7023  0.6673
  624MOL0     H82337   2.028   1.734  -0.894  1.4528  3.1000 -1.2457
  624MOL0     H82338   2.052   1.973  -0.874 -0.8849  0.3936 -0.8070
  624MOL0     H82339   1.986   1.970  -0.709 -0.7621  0.8641 -0.7200
  624MOL0     H82340   1.835   2.043  -0.881  0.2936 -0.0166 -2.4561
  624MOL0     H82341   1.853   1.882  -0.958  1.2846  2.0671 -0.7487
  624MOL0     H82342   1.761   1.936  -0.668 -0.2230  0.2476 -0.3475
  624MOL0     H82343   1.731   1.783  -0.762  0.7006 -0.4021 -3.7430
  624MOL0     H82344   1.579   1.923  -0.904 -0.0001 -1.1472  0.6308
  624MOL0     H82345   1.616   2.063  -0.798  0.8055 -0.1663 -0.5489
  624MOL0     H82346   1.477   1.803  -0.755 -2.3652  1.7283 -1.6256
  624MOL0     H82347   1.542   1.866  -0.607 -1.8718 -1.2878 -0.0170
  624MOL0     H82348   1.310   1.953  -0.616  0.5798  1.9495  0.7238
  624MOL0     H82349   1.329   1.969  -0.791 -1.2984 -2.9784  0.2656
  624MOL0     H82350   2.347   1.727  -0.552 -0.3874  0.5713  0.6694
  624MOL0     H82351   2.581   1.694  -0.496  0.0482 -0.3837 -0.8207
  624MOL0     H82352   3.118   1.764  -0.642 -0.4373  0.4016 -1.0492
  624MOL0     H82353   3.336   1.648  -0.621  0.6039  0.4738  0.5187
  624MOL0     H82354   4.873   2.076   0.562 -0.2627  0.3532  1.0292
  624MOL0     H82355   5.048   2.092   0.739 -1.8757  0.4224 -0.8427
  624MOL0     H82356   5.374   1.678   1.068 -2.0932  1.6474 -0.2990
  624MOL0     H82357   5.544   1.754   1.252 -1.9528 -0.0878  1.3715
  624MOL0     H82358   5.644   2.192   1.278  0.1435 -0.7877 -1.2099
  624MOL0     H82359   5.780   2.091   1.214  0.7217 -0.7931 -0.1304
  624MOL0     H82360   5.690   2.145   1.497  0.9720 -1.1814  1.6316
  624MOL0     H82361   5.847   2.059   1.447 -1.1367 -1.6977 -1.6385
  624MOL0     H82362   5.756   2.343   1.431 -0.9501 -0.4777  1.4743
  624MOL0     H82363   5.915   2.284   1.359  3.9827 -0.8905  2.7451
  624MOL0     H82364   5.855   2.260   1.641 -1.9654  1.4680 -1.3537
  624MOL0     H82365   6.006   2.227   1.558 -0.3819 -1.0313 -1.4392
  624MOL0     H82366   6.015   2.649   1.615 -2.7214  1.2358 -0.4911
  624MOL0     H82367   5.552   2.145   1.072  1.3430 -0.6262 -2.4605
  624MOL0     H82368   5.397   2.061   0.895 -1.7468  0.0038  0.3066
  625MOL0     O82369   9.212   6.136   6.565 -0.4679 -0.0707  0.0849
  625MOL0     C82370   9.230   6.262   6.575 -0.4931 -0.0640 -0.0922
  625MOL0     O82371   9.129   6.350   6.586 -0.3541 -0.4159 -0.1242
  625MOL0     C82372   9.000   6.311   6.602 -0.4814 -0.4718  0.7791
  625MOL0     C82373   8.910   6.358   6.506  0.1873 -0.2007  0.7241
  625MOL0     C82374   8.768   6.317   6.506 -0.1051  0.2231 -0.6101
  625MOL0     C82375   8.716   6.234   6.602 -0.6931 -0.1081 -0.0817
  625MOL0     O82376   8.585   6.185   6.614  0.6392  1.0241 -1.0061
  625MOL0     C82377   8.487   6.223   6.521 -0.1599  0.3500  0.5375
  625MOL0     C82378   8.445   6.367   6.532  0.5217 -0.3599  0.5347
  625MOL0     C82379   8.311   6.393   6.457 -0.2585  0.1858  0.3116
  625MOL0     C82380   8.263   6.534   6.481 -0.5121 -0.2818 -0.4831
  625MOL0     C82381   8.145   6.567   6.387 -0.4276  0.4872 -0.6983
  625MOL0     C82382   8.071   6.695   6.403  0.8854 -0.6112  0.2233
  625MOL0     C82383   8.166   6.804   6.361 -0.3572  0.4098  0.5719
  625MOL0     C82384   8.110   6.932   6.427  0.9605  0.6941  0.8860
  625MOL0     N82385   8.168   7.057   6.369  0.5660 -0.6258  0.0627
  625MOL0     C82386   8.304   7.100   6.381  0.2771 -0.7805  0.2463
  625MOL0     C82387   8.324   7.208   6.302  0.4604  0.1223  0.1423
  625MOL0     C82388   8.450   7.279   6.283 -0.5303 -0.4032  0.2271
  625MOL0     C82389   8.475   7.304   6.133  1.0265 -0.0469  0.6626
  625MOL0     C82390   8.619   7.340   6.108 -0.0577 -0.4772 -0.3810
  625MOL0     C82391   8.651   7.396   5.967  0.1376 -0.0992  0.2433
  625MOL0     O82392   8.650   7.302   5.849 -0.1591 -0.2741 -0.2284
  625MOL0     C82393   8.528   7.270   5.799  0.1354  0.0313  0.2786
  625MOL0     C82394   8.435   7.365   5.764 -0.5687 -0.7017 -0.1057
  625MOL0     C82395   8.319   7.327   5.703  0.7953 -0.2068  0.0052
  625MOL0     C82396   8.278   7.191   5.689 -1.1309  0.4823  0.6044
  625MOL0     C82397   8.155   7.159   5.606 -0.4665  0.9054 -0.6417
  625MOL0     O82398   8.123   7.024   5.594 -0.0940  0.3349 -0.2926
  625MOL0     C82399   7.998   7.003   5.530 -0.2767 -0.2165 -0.7906
  625MOL0     C82400   7.877   7.030   5.597 -0.5391  0.2609  0.0615
  625MOL0     C82401   7.760   7.001   5.537 -0.1426 -0.4501 -0.3339
  625MOL0     C82402   7.757   6.960   5.399  0.2597 -0.6980  0.3347
  625MOL0     O82403   7.634   6.955   5.341  0.2376 -0.2209  0.9378
  625MOL0     C82404   7.624   6.942   5.199  0.0142 -0.6311  0.1555
  625MOL0     C82405   7.480   6.941   5.161 -0.1168  0.0603  1.0888
  625MOL0     C82406   7.445   6.967   5.013  0.0548  0.0003 -0.1286
  625MOL0     C82407   7.470   7.111   4.965 -0.5627 -0.4560  0.1881
  625MOL0     C82408   7.423   7.136   4.818 -0.2751 -0.6564 -0.6326
  625MOL0     C82409   7.405   7.283   4.774  0.6791  0.2262 -0.4355
  625MOL0     C82410   7.326   7.293   4.651 -0.2648  0.1742  0.3706
  625MOL0     C82411   7.182   7.254   4.652  0.4001  0.8581 -0.4840
  625MOL0    Cl82412   7.099   7.304   4.503  0.1625  0.5351  0.4260
  625MOL0     C82413   7.875   6.935   5.331 -0.7527  0.0223 -0.4974
  625MOL0     C82414   7.998   6.952   5.403  0.4536 -0.1423 -0.7379
  625MOL0     O82415   8.078   7.250   5.570  0.2054  1.0355 -0.4178
  625MOL0     C82416   8.376   7.092   5.722  0.1832 -0.3138  0.6354
  625MOL0     C82417   8.489   7.135   5.776 -0.3751 -0.6156 -0.6713
  625MOL0     N82418   8.199   7.235   6.241  0.0893 -0.2290 -0.2322
  625MOL0     N82419   8.109   7.143   6.285  0.1230  0.5949  0.3848
  625MOL0     C82420   8.810   6.200   6.705  0.8943  1.2081  0.6227
  625MOL0     C82421   8.947   6.237   6.705  0.3782  0.8824  0.9212
  625MOL0     C82422   9.364   6.315   6.553 -0.5848  0.2216 -0.0169
  625MOL0     C82423   9.386   6.455   6.555 -0.2779  0.2743  0.0450
  625MOL0     C82424   9.516   6.507   6.539 -0.2587  0.3992 -0.7647
  625MOL0     C82425   9.630   6.427   6.522  0.2949  0.6008 -0.0069
  625MOL0     O82426   9.761   6.462   6.481 -0.1955  0.6225 -1.1292
  625MOL0     C82427   9.795   6.595   6.462 -0.0031 -0.6698 -0.3901
  625MOL0     C82428   9.944   6.612   6.478  0.3451  0.0219 -0.3948
  625MOL0     C82429  10.025   6.548   6.359 -0.3982  0.3716  0.5172
  625MOL0     C82430  10.175   6.519   6.406  0.2597  0.2715 -0.0195
  625MOL0     C82431  10.255   6.457   6.303 -0.1991  0.0502  0.9052
  625MOL0     C82432  10.315   6.382   6.227  0.0434  0.2233  0.1352
  625MOL0     C82433   9.605   6.294   6.529 -0.2943 -0.3597  0.2708
  625MOL0     C82434   9.480   6.233   6.545  0.9988 -0.5940  0.9023
  625MOL0     H82435   8.957   6.415   6.426  1.4291  0.1071  1.6497
  625MOL0     H82436   8.703   6.352   6.427 -0.4596 -3.7932 -2.3441
  625MOL0     H82437   8.401   6.159   6.540 -0.8095  1.2230  0.6067
  625MOL0     H82438   8.516   6.197   6.418 -0.9257 -0.8740  0.6080
  625MOL0     H82439   8.515   6.443   6.497 -0.9889  2.5584  3.2851
  625MOL0     H82440   8.436   6.385   6.639  2.6931 -2.3926  1.1425
  625MOL0     H82441   8.237   6.322   6.495 -0.1433  0.1512  0.4732
  625MOL0     H82442   8.324   6.378   6.349 -0.3779 -2.0163  0.5533
  625MOL0     H82443   8.235   6.529   6.587  0.9024 -1.4871 -0.1415
  625MOL0     H82444   8.342   6.608   6.469 -1.6431  0.7469 -1.9547
  625MOL0     H82445   8.075   6.484   6.402 -0.2557  0.8128  2.7689
  625MOL0     H82446   8.177   6.564   6.283  0.2201 -0.0638 -0.4897
  625MOL0     H82447   8.030   6.714   6.503  3.0052  0.8824  0.8948
  625MOL0     H82448   7.989   6.695   6.330  1.1337  0.8533 -0.0922
  625MOL0     H82449   8.268   6.798   6.399  1.0742 -0.4639 -2.9589
  625MOL0     H82450   8.176   6.810   6.252  2.8342 -1.3754  0.6119
  625MOL0     H82451   8.117   6.930   6.536  1.9742  1.4582  0.8432
  625MOL0     H82452   8.005   6.944   6.397  0.8747  0.7870  1.2231
  625MOL0     H82453   8.384   7.067   6.447  1.2604  0.7111 -0.1465
  625MOL0     H82454   8.526   7.207   6.315  0.9509  0.5170 -1.0661
  625MOL0     H82455   8.477   7.366   6.344  0.3251 -1.4022  1.3330
  625MOL0     H82456   8.416   7.393   6.107  1.0199 -0.3386 -0.3685
  625MOL0     H82457   8.450   7.221   6.067  2.5864 -0.5208  0.6327
  625MOL0     H82458   8.641   7.419   6.180  0.5698 -0.2294 -0.8325
  625MOL0     H82459   8.692   7.264   6.134 -0.5033 -0.6564  0.3782
  625MOL0     H82460   8.748   7.445   5.975  0.3749 -0.7906  1.9259
  625MOL0     H82461   8.583   7.480   5.950 -0.8671 -1.1328 -1.0290
  625MOL0     H82462   8.458   7.468   5.791 -0.6412 -0.5245 -0.7110
  625MOL0     H82463   8.242   7.400   5.682 -2.3539 -2.3208  3.0700
  625MOL0     H82464   7.883   7.073   5.696  1.8420 -2.6264  1.3240
  625MOL0     H82465   7.669   7.030   5.589  0.6195  2.1940 -0.3038
  625MOL0     H82466   7.674   6.850   5.166 -0.9660 -1.4407  0.8741
  625MOL0     H82467   7.677   7.025   5.151 -1.7042  1.4762  1.6683
  625MOL0     H82468   7.430   7.020   5.218  1.5523  2.8837 -1.0736
  625MOL0     H82469   7.437   6.846   5.194  1.8801 -1.9389 -1.6025
  625MOL0     H82470   7.336   6.952   5.007 -0.3678  2.2865  0.5570
  625MOL0     H82471   7.495   6.904   4.939  1.3319 -0.1396  0.8239
  625MOL0     H82472   7.415   7.177   5.033 -1.2042 -0.9693  0.1717
  625MOL0     H82473   7.575   7.141   4.966 -0.2547 -1.4874 -0.1110
  625MOL0     H82474   7.325   7.089   4.806 -0.1093 -0.8617 -1.2485
  625MOL0     H82475   7.495   7.081   4.755  0.5191 -2.5033  1.7412
  625MOL0     H82476   7.500   7.337   4.766  0.2565  1.2353  0.8113
  625MOL0     H82477   7.353   7.329   4.859 -0.9932 -1.1242 -0.6676
  625MOL0     H82478   7.326   7.399   4.621 -0.6731 -0.4978 -2.2425
  625MOL0     H82479   7.376   7.231   4.576 -1.3452 -0.5550  0.2295
  625MOL0     H82480   7.124   7.302   4.732 -0.5533 -0.6317 -0.2506
  625MOL0     H82481   7.165   7.148   4.669  2.6115  0.8119  2.0434
  625MOL0     H82482   7.879   6.889   5.233 -2.8371 -4.0196  1.0828
  625MOL0     H82483   8.096   6.937   5.360  0.3085 -0.1207 -1.0772
  625MOL0     H82484   8.337   6.991   5.717 -3.9510  1.0968  0.1566
  625MOL0     H82485   8.558   7.058   5.810  1.6406  1.0757 -0.7092
  625MOL0     H82486   8.776   6.128   6.779 -1.3599  0.4576 -1.0200
  625MOL0     H82487   9.011   6.200   6.785  2.0458  2.8940  0.6055
  625MOL0     H82488   9.304   6.523   6.574 -1.2475 -0.8847  0.1281
  625MOL0     H82489   9.518   6.616   6.539  0.6502  0.4169  0.8188
  625MOL0     H82490   9.740   6.659   6.531  1.0986 -0.6381  0.4753
  625MOL0     H82491   9.776   6.609   6.355 -1.1395 -1.0299 -0.2546
  625MOL0     H82492   9.953   6.721   6.473 -3.9356  0.6418  1.4332
  625MOL0     H82493   9.978   6.574   6.575  1.6517  1.0148 -0.4328
  625MOL0     H82494  10.022   6.618   6.274 -1.5595 -0.4957 -0.1757
  625MOL0     H82495   9.974   6.455   6.334 -1.2017  0.7293  0.7873
  625MOL0     H82496  10.218   6.610   6.450 -0.6097  0.4312  0.5336
  625MOL0     H82497  10.168   6.445   6.485 -2.6585  0.7836  0.2954
  625MOL0     H82498  10.366   6.312   6.164  0.6083 -0.4267  1.2848
  625MOL0     H82499   9.689   6.226   6.525 -0.0449  0.0002 -2.3361
  625MOL0     H82500   9.473   6.127   6.522  3.3062 -0.3694 -1.2963
  626MOL0     O82501   6.022   4.727   1.373  0.1177 -0.1699 -0.9448
  626MOL0     C82502   5.973   4.814   1.442  0.7676  0.5393 -1.2520
  626MOL0     O82503   5.837   4.840   1.448  0.3164 -0.2455  0.1844
  626MOL0     C82504   5.759   4.763   1.366  0.5341  0.2468  0.4007
  626MOL0     C82505   5.710   4.634   1.392  0.6107  0.5668 -0.0448
  626MOL0     C82506   5.640   4.561   1.299  1.1402 -0.2666  0.0618
  626MOL0     C82507   5.590   4.637   1.189 -0.1177  0.4558 -0.0118
  626MOL0     O82508   5.509   4.571   1.097 -0.5230  0.4032 -1.1867
  626MOL0     C82509   5.380   4.620   1.089 -0.1372  0.6581  0.2992
  626MOL0     C82510   5.317   4.546   0.968  0.2715 -0.3417  0.4483
  626MOL0     C82511   5.164   4.539   0.977  0.0957 -0.6307 -0.1401
  626MOL0     C82512   5.120   4.464   0.853 -0.3847  0.9580 -0.6302
  626MOL0     C82513   4.971   4.447   0.877  0.2579  0.5994  0.7885
  626MOL0     C82514   4.899   4.376   0.765  1.0058 -0.9483  0.1913
  626MOL0     C82515   4.748   4.394   0.774  0.2098  0.4065 -0.0590
  626MOL0     C82516   4.676   4.306   0.672  0.1083  0.5220  0.2599
  626MOL0     N82517   4.534   4.314   0.685  0.0615 -0.5845  1.1027
  626MOL0     C82518   4.443   4.276   0.587  0.3045  0.0255  0.3391
  626MOL0     C82519   4.318   4.303   0.642 -0.0864 -0.6286  0.0841
  626MOL0     C82520   4.185   4.259   0.595 -0.2312 -0.2804  0.1844
  626MOL0     C82521   4.127   4.340   0.486 -0.5989  0.6187 -0.0582
  626MOL0     C82522   4.038   4.463   0.536 -0.0705  0.5595 -0.0805
  626MOL0     C82523   4.035   4.576   0.432 -0.2012 -0.1045 -0.0115
  626MOL0     O82524   3.972   4.527   0.307  0.1723  0.1741 -0.5111
  626MOL0     C82525   3.840   4.490   0.321  0.0872  0.1005 -0.5773
  626MOL0     C82526   3.790   4.388   0.235  0.2816  0.5649 -0.2745
  626MOL0     C82527   3.655   4.345   0.234  0.1586  0.5344 -0.9921
  626MOL0     C82528   3.574   4.397   0.335  0.0970 -0.1923  0.8483
  626MOL0     C82529   3.435   4.347   0.351 -0.6871  0.3999  0.6957
  626MOL0     O82530   3.369   4.403   0.457 -0.3620 -0.1439  0.3131
  626MOL0     C82531   3.247   4.352   0.481 -0.3826 -0.1910 -0.7102
  626MOL0     C82532   3.213   4.212   0.491 -0.1531  0.0402 -0.5858
  626MOL0     C82533   3.090   4.172   0.526  0.8010  0.4228 -0.6098
  626MOL0     C82534   2.988   4.263   0.553 -0.7205  0.9820 -0.2722
  626MOL0     O82535   2.866   4.197   0.575  0.1153  0.3476  0.4290
  626MOL0     C82536   2.754   4.280   0.607  0.0108  0.1627  0.4259
  626MOL0     C82537   2.629   4.194   0.602  0.7115  0.0750 -0.1738
  626MOL0     C82538   2.512   4.281   0.644 -0.7771 -0.3598 -1.0981
  626MOL0     C82539   2.393   4.190   0.626  0.5369  0.3266  1.4408
  626MOL0     C82540   2.271   4.267   0.679  0.4466 -0.0581 -0.1507
  626MOL0     C82541   2.139   4.198   0.646  0.4041 -0.5480  0.3593
  626MOL0     C82542   2.026   4.276   0.707  0.2945 -0.3304 -0.2014
  626MOL0     C82543   1.913   4.176   0.739  0.2422 -0.6684 -0.4377
  626MOL0    Cl82544   1.768   4.284   0.793 -0.5542 -0.3616  0.3824
  626MOL0     C82545   3.020   4.400   0.551 -0.0113 -0.4318 -0.3835
  626MOL0     C82546   3.149   4.445   0.528  0.0391  0.1908 -0.1495
  626MOL0     O82547   3.407   4.256   0.289  0.6434  1.2707  0.6910
  626MOL0     C82548   3.622   4.492   0.433  0.4441 -0.1114  0.7678
  626MOL0     C82549   3.752   4.541   0.421 -0.0355  0.3988  0.8604
  626MOL0     N82550   4.341   4.349   0.766  0.3030 -0.7018 -0.3466
  626MOL0     N82551   4.465   4.360   0.792 -0.3029 -0.1714 -0.0515
  626MOL0     C82552   5.631   4.765   1.156  0.3644 -0.6651  0.1254
  626MOL0     C82553   5.712   4.827   1.250  0.5263 -0.1281  0.2752
  626MOL0     C82554   6.049   4.889   1.541 -0.2492 -0.2257  0.8209
  626MOL0     C82555   6.188   4.873   1.535  0.1353 -0.3437 -0.3386
  626MOL0     C82556   6.273   4.942   1.626 -0.3025 -0.8863  0.0749
  626MOL0     C82557   6.229   5.036   1.715 -0.0483  0.6148 -0.9528
  626MOL0     O82558   6.308   5.115   1.799  0.7126  0.0686 -0.3939
  626MOL0     C82559   6.445   5.072   1.814 -0.0828 -0.1320 -0.3271
  626MOL0     C82560   6.527   5.133   1.700 -0.3445  0.9121 -0.2499
  626MOL0     C82561   6.498   5.286   1.692 -0.5095 -0.8934 -0.1740
  626MOL0     C82562   6.518   5.364   1.821 -0.2562  0.0409  0.1571
  626MOL0     C82563   6.654   5.369   1.870  0.4085  0.8989  0.1531
  626MOL0     C82564   6.770   5.366   1.915 -0.4409  0.1110  0.8107
  626MOL0     C82565   6.090   5.053   1.717  0.2178 -0.2589 -0.2199
  626MOL0     C82566   6.002   4.990   1.628  0.8609  0.3393  0.6092
  626MOL0     H82567   5.736   4.587   1.487 -0.8618 -1.0493 -0.3857
  626MOL0     H82568   5.598   4.462   1.317 -1.4620  0.9123  1.1027
  626MOL0     H82569   5.383   4.729   1.081 -0.0321  0.6164 -0.2933
  626MOL0     H82570   5.316   4.595   1.174 -0.9853 -0.3787 -0.6182
  626MOL0     H82571   5.353   4.444   0.978  0.6576 -0.1118  1.5664
  626MOL0     H82572   5.357   4.599   0.881  0.1582  0.2689  0.7632
  626MOL0     H82573   5.129   4.643   0.976 -2.0247 -1.3107 -1.0738
  626MOL0     H82574   5.138   4.495   1.074  1.3294  0.6147  0.8130
  626MOL0     H82575   5.142   4.518   0.760 -0.5519  0.7570 -0.7869
  626MOL0     H82576   5.163   4.364   0.841 -2.2500  0.1659 -1.0222
  626MOL0     H82577   4.926   4.546   0.888 -0.4398  0.5849 -1.4027
  626MOL0     H82578   4.942   4.391   0.967 -1.0695 -0.7581 -0.4116
  626MOL0     H82579   4.925   4.270   0.767  1.4604 -0.8286  1.0277
  626MOL0     H82580   4.930   4.423   0.672  1.2699 -0.8658  0.3187
  626MOL0     H82581   4.714   4.363   0.873 -1.8228 -0.6873 -1.0388
  626MOL0     H82582   4.713   4.496   0.759 -1.6125 -0.4079 -1.7648
  626MOL0     H82583   4.710   4.202   0.683  3.6091  1.1173 -2.9174
  626MOL0     H82584   4.705   4.334   0.570  0.6768  1.2312  0.6113
  626MOL0     H82585   4.468   4.237   0.489  2.1924  1.4716  0.1908
  626MOL0     H82586   4.118   4.248   0.681  1.4115 -2.2724  1.3200
  626MOL0     H82587   4.199   4.153   0.569  0.2907 -0.3794  0.8449
  626MOL0     H82588   4.062   4.275   0.427  0.3660 -0.5333  0.1098
  626MOL0     H82589   4.208   4.375   0.421 -1.4820  0.8229 -1.0788
  626MOL0     H82590   3.936   4.431   0.560 -0.7853  0.4606 -2.9168
  626MOL0     H82591   4.073   4.514   0.626  1.1744  0.1571 -0.3286
  626MOL0     H82592   4.137   4.609   0.409 -0.1499  0.0606  0.4562
  626MOL0     H82593   3.984   4.665   0.470  0.6030  0.1104  0.5867
  626MOL0     H82594   3.852   4.343   0.158 -3.5005  0.5249 -3.6377
  626MOL0     H82595   3.617   4.262   0.176 -1.3142  0.9437 -0.6503
  626MOL0     H82596   3.297   4.147   0.470  1.4043  1.9825 -0.6273
  626MOL0     H82597   3.063   4.067   0.527  0.2967  0.5491 -0.6271
  626MOL0     H82598   2.743   4.360   0.533 -1.1605  1.0947  1.5531
  626MOL0     H82599   2.768   4.324   0.707  2.7956  2.7834 -0.9479
  626MOL0     H82600   2.643   4.106   0.666  0.2982 -1.7230 -2.4181
  626MOL0     H82601   2.608   4.154   0.502  0.7513  0.1888 -0.2280
  626MOL0     H82602   2.503   4.368   0.579  3.6775 -0.8921 -2.7230
  626MOL0     H82603   2.518   4.322   0.745 -2.4025  0.6688 -1.3869
  626MOL0     H82604   2.378   4.174   0.519 -1.1930  3.3339  1.1358
  626MOL0     H82605   2.408   4.094   0.677 -0.5884 -0.6416  0.0224
  626MOL0     H82606   2.269   4.367   0.635  1.6525 -0.8435 -2.1275
  626MOL0     H82607   2.276   4.270   0.788  2.6434 -1.8381 -0.1212
  626MOL0     H82608   2.128   4.097   0.687 -1.3514 -0.5954 -0.1470
  626MOL0     H82609   2.127   4.195   0.537 -3.1061  0.5429  0.6011
  626MOL0     H82610   2.057   4.324   0.801  1.8885 -2.6724  0.5611
  626MOL0     H82611   1.989   4.351   0.637 -2.4458  0.1145  1.5844
  626MOL0     H82612   1.947   4.116   0.823  0.0713  0.5751  0.5477
  626MOL0     H82613   1.890   4.123   0.646  0.2802 -2.7631  0.6788
  626MOL0     H82614   2.946   4.476   0.575  1.5193  1.1330 -0.4849
  626MOL0     H82615   3.168   4.552   0.539  1.0835 -0.1055  1.2590
  626MOL0     H82616   3.565   4.510   0.523  0.7373  2.5873  0.5208
  626MOL0     H82617   3.783   4.610   0.498  1.8942 -0.7773  1.2067
  626MOL0     H82618   5.618   4.818   1.062  1.8985  2.3373  1.4791
  626MOL0     H82619   5.741   4.930   1.237  1.7288 -0.7362 -2.5457
  626MOL0     H82620   6.234   4.798   1.472  1.2507 -1.5810  1.8434
  626MOL0     H82621   6.379   4.924   1.615 -0.0496 -0.3381  1.4372
  626MOL0     H82622   6.463   4.964   1.818  0.5716  0.0120  1.8521
  626MOL0     H82623   6.478   5.105   1.913  1.7951  0.7237 -1.1916
  626MOL0     H82624   6.635   5.127   1.715 -0.5644  2.9279  3.5809
  626MOL0     H82625   6.506   5.080   1.607 -1.5386  2.1868 -0.7481
  626MOL0     H82626   6.394   5.311   1.669  0.0741  2.8620  0.6352
  626MOL0     H82627   6.558   5.334   1.613 -0.5643  1.1248  0.9296
  626MOL0     H82628   6.489   5.464   1.788  1.7801 -0.9522 -5.6879
  626MOL0     H82629   6.448   5.332   1.899  1.1247 -0.4355  1.2470
  626MOL0     H82630   6.862   5.383   1.967 -0.1817  0.3890  0.2707
  626MOL0     H82631   6.039   5.120   1.784  2.4220  1.8014 -0.4723
  626MOL0     H82632   5.896   5.013   1.633  0.6577 -0.5879  0.8909
  627MOL0     O82633  10.721   8.562   4.500 -0.6154  0.1329 -0.5452
  627MOL0     C82634  10.809   8.547   4.417  0.1850  0.2686  0.2172
  627MOL0     O82635  10.792   8.562   4.285  0.6301  0.0704 -0.3432
  627MOL0     C82636  10.662   8.608   4.249  0.2913  0.5787  0.5412
  627MOL0     C82637  10.615   8.733   4.278 -0.2320  0.0977 -0.6613
  627MOL0     C82638  10.494   8.783   4.233 -0.4754  0.0406  0.5913
  627MOL0     C82639  10.402   8.700   4.167  0.4482  0.7674  1.2728
  627MOL0     O82640  10.268   8.729   4.131 -0.0104  0.2129 -0.2176
  627MOL0     C82641  10.203   8.813   4.231 -0.7916  0.6731 -0.6064
  627MOL0     C82642  10.056   8.798   4.232  0.6016  0.3777  0.7486
  627MOL0     C82643   9.973   8.926   4.268  0.1466 -0.0622 -0.4531
  627MOL0     C82644   9.825   8.891   4.244 -0.1840  0.2699  0.1515
  627MOL0     C82645   9.737   9.008   4.274  0.5201  0.0717 -0.7790
  627MOL0     C82646   9.587   8.959   4.268  0.4493 -0.8429 -0.0072
  627MOL0     C82647   9.493   9.058   4.335  0.3839  0.9488 -0.2780
  627MOL0     C82648   9.344   8.995   4.339  0.5570 -0.0265 -0.2037
  627MOL0     N82649   9.252   9.097   4.391 -0.5514 -0.1765 -0.0094
  627MOL0     C82650   9.144   9.063   4.477  0.0414 -0.7869 -0.1048
  627MOL0     C82651   9.065   9.174   4.480 -0.6121  0.6288  0.1338
  627MOL0     C82652   8.935   9.186   4.549  0.3917 -0.1480  0.3819
  627MOL0     C82653   8.879   9.337   4.550  0.0139  0.2722  0.5966
  627MOL0     C82654   8.763   9.350   4.652  0.7803  0.0761  0.0263
  627MOL0     C82655   8.638   9.259   4.612  0.0250  0.1908 -0.4498
  627MOL0     O82656   8.581   9.312   4.491 -0.5324  0.4980  0.4120
  627MOL0     C82657   8.457   9.264   4.466  0.1501  0.3845  1.1680
  627MOL0     C82658   8.434   9.129   4.430 -0.0961 -0.4038  0.2159
  627MOL0     C82659   8.300   9.089   4.408 -0.2514 -0.1017  0.0882
  627MOL0     C82660   8.195   9.178   4.420  0.1279 -0.2786 -0.1033
  627MOL0     C82661   8.059   9.135   4.412  0.3609  0.4476 -0.2258
  627MOL0     O82662   8.042   9.000   4.425 -0.5359  0.5095  0.0069
  627MOL0     C82663   7.914   8.942   4.437  0.6070  0.1863 -1.1393
  627MOL0     C82664   7.818   8.975   4.349  0.4311  0.0816  0.1837
  627MOL0     C82665   7.686   8.925   4.357 -1.1060  0.5424  0.6966
  627MOL0     C82666   7.658   8.828   4.453  0.4572  0.4118  0.1874
  627MOL0     O82667   7.539   8.759   4.467  0.2625  0.2671 -0.0470
  627MOL0     C82668   7.445   8.770   4.365 -0.8874 -0.7748 -0.6888
  627MOL0     C82669   7.326   8.689   4.416  0.2324 -0.3940  0.0830
  627MOL0     C82670   7.212   8.691   4.308 -0.1133 -0.7334 -0.6064
  627MOL0     C82671   7.142   8.824   4.295  0.8605 -0.0377  0.0392
  627MOL0     C82672   6.999   8.820   4.246  0.6436  0.7032  0.1715
  627MOL0     C82673   6.974   8.729   4.123  0.6932 -0.1483 -0.6457
  627MOL0     C82674   6.821   8.693   4.114  0.4545 -0.3649 -0.1234
  627MOL0     C82675   6.798   8.555   4.055 -0.6972 -0.1781  0.2418
  627MOL0    Cl82676   6.872   8.423   4.152 -0.0863  0.2546 -0.5291
  627MOL0     C82677   7.762   8.791   4.548 -0.3622  0.4947  0.3115
  627MOL0     C82678   7.886   8.847   4.537 -0.0217  0.4606  0.2377
  627MOL0     O82679   7.970   9.220   4.416 -0.1531 -0.8531 -0.0467
  627MOL0     C82680   8.219   9.311   4.461 -0.5048 -1.0984 -0.7101
  627MOL0     C82681   8.351   9.352   4.486 -0.0341 -0.2087 -0.7422
  627MOL0     N82682   9.126   9.270   4.400  0.2313 -0.0720 -0.3378
  627MOL0     N82683   9.236   9.225   4.348 -0.1893 -0.0058  0.2829
  627MOL0     C82684  10.455   8.580   4.126  0.4954  0.7356 -0.3381
  627MOL0     C82685  10.583   8.538   4.154  0.1560 -0.6267 -1.1213
  627MOL0     C82686  10.942   8.504   4.477  0.1817  0.5614 -0.3774
  627MOL0     C82687  11.050   8.484   4.401 -0.4241 -0.1393 -0.0325
  627MOL0     C82688  11.173   8.430   4.448  0.0507  0.5188  0.1202
  627MOL0     C82689  11.186   8.401   4.586  0.8497 -0.6759 -0.0137
  627MOL0     O82690  11.295   8.342   4.646 -0.6374  0.2048 -0.6381
  627MOL0     C82691  11.417   8.347   4.579  0.2386 -0.5312  0.7774
  627MOL0     C82692  11.508   8.262   4.655  0.0311 -0.7435 -0.1632
  627MOL0     C82693  11.660   8.299   4.610 -0.4621 -0.1180 -0.2677
  627MOL0     C82694  11.747   8.261   4.732  0.0091  0.5193  0.4231
  627MOL0     C82695  11.880   8.287   4.692 -0.0870  0.8220 -0.1729
  627MOL0     C82696  12.002   8.317   4.674  0.5225 -0.0675  0.4026
  627MOL0     C82697  11.075   8.428   4.664 -0.7941 -0.5601 -0.1381
  627MOL0     C82698  10.955   8.482   4.615 -0.2141  0.2441  0.6501
  627MOL0     H82699  10.685   8.795   4.334 -1.7187  0.7897  0.5119
  627MOL0     H82700  10.472   8.888   4.251 -1.5353 -0.4846  2.6453
  627MOL0     H82701  10.237   8.914   4.206  1.6064  0.7059  2.2275
  627MOL0     H82702  10.242   8.796   4.332 -0.0110 -1.2445 -1.1864
  627MOL0     H82703  10.023   8.718   4.300 -1.7930  0.6764  0.0520
  627MOL0     H82704  10.027   8.776   4.129  3.0554 -0.7931  0.2385
  627MOL0     H82705  10.002   9.008   4.203 -4.0364  1.6000 -0.5484
  627MOL0     H82706   9.986   8.955   4.372  2.8540 -1.9292 -0.1720
  627MOL0     H82707   9.810   8.863   4.139  1.6731 -1.8331  0.3529
  627MOL0     H82708   9.808   8.805   4.310  2.9574 -0.0349  0.7213
  627MOL0     H82709   9.749   9.086   4.199  0.4435  1.0073  0.1611
  627MOL0     H82710   9.766   9.049   4.371 -0.4340 -1.3660  0.1546
  627MOL0     H82711   9.571   8.860   4.310 -0.5701 -0.4813  0.4970
  627MOL0     H82712   9.560   8.947   4.163  0.9430  3.3368 -0.8117
  627MOL0     H82713   9.532   9.061   4.437  2.4552  1.1236 -1.0300
  627MOL0     H82714   9.489   9.162   4.301 -1.3381  1.4815  1.3353
  627MOL0     H82715   9.341   8.912   4.410 -0.3094 -1.1478 -1.4992
  627MOL0     H82716   9.308   8.957   4.243  1.8505  1.6045 -1.3853
  627MOL0     H82717   9.119   8.967   4.521  0.6392 -1.5349 -1.3275
  627MOL0     H82718   8.942   9.156   4.654 -0.1931 -1.1562  0.1461
  627MOL0     H82719   8.856   9.128   4.500 -2.2319  3.3715  0.0223
  627MOL0     H82720   8.844   9.361   4.449 -0.8942 -0.6265  0.6683
  627MOL0     H82721   8.964   9.397   4.582 -0.5009  1.0566  0.5010
  627MOL0     H82722   8.799   9.340   4.755 -0.0171  0.4096  0.3476
  627MOL0     H82723   8.734   9.455   4.658 -2.2874 -0.4260 -3.2642
  627MOL0     H82724   8.560   9.247   4.688 -0.7446  1.1907 -1.0546
  627MOL0     H82725   8.683   9.161   4.595 -0.3109 -0.0372 -0.0547
  627MOL0     H82726   8.516   9.059   4.429 -0.1926 -0.5528  1.3990
  627MOL0     H82727   8.278   8.989   4.372 -0.2914  0.8384 -2.7218
  627MOL0     H82728   7.839   9.044   4.268  2.3948 -0.9127 -0.2132
  627MOL0     H82729   7.610   8.962   4.289 -1.2923  0.7137  0.9959
  627MOL0     H82730   7.493   8.751   4.269  3.9209  0.6882  1.1525
  627MOL0     H82731   7.412   8.874   4.364  1.5821  0.1521  1.7725
  627MOL0     H82732   7.288   8.733   4.509 -1.9073  1.6233 -1.6267
  627MOL0     H82733   7.364   8.589   4.438  3.6286  0.1278 -2.6309
  627MOL0     H82734   7.140   8.612   4.335 -0.8744  0.9742  2.9855
  627MOL0     H82735   7.244   8.650   4.212 -2.2697 -1.5582 -1.0381
  627MOL0     H82736   7.118   8.867   4.393 -0.6570 -1.7880  0.5108
  627MOL0     H82737   7.209   8.887   4.237  1.5538 -1.1654 -0.4196
  627MOL0     H82738   6.963   8.921   4.229  2.9594  1.2807 -1.9440
  627MOL0     H82739   6.933   8.791   4.328  2.1741  2.0550  1.9601
  627MOL0     H82740   7.033   8.637   4.120 -2.0033 -2.0312  0.4249
  627MOL0     H82741   7.003   8.791   4.037  0.7666 -0.4016 -0.8044
  627MOL0     H82742   6.766   8.679   4.207 -2.6398  3.2771 -1.1673
  627MOL0     H82743   6.772   8.768   4.052 -1.6655 -0.2659  1.5621
  627MOL0     H82744   6.827   8.558   3.949  1.1579 -0.7812  0.6958
  627MOL0     H82745   6.693   8.525   4.058 -0.0042 -2.7600  0.9471
  627MOL0     H82746   7.752   8.707   4.616 -0.6339  1.2635  1.2465
  627MOL0     H82747   7.970   8.824   4.603 -0.0886  2.5843  1.1609
  627MOL0     H82748   8.148   9.390   4.485 -2.1738 -1.8030 -2.9975
  627MOL0     H82749   8.370   9.454   4.519 -1.4998 -0.8361  2.4075
  627MOL0     H82750  10.387   8.514   4.072 -0.3317  0.1319  1.3723
  627MOL0     H82751  10.618   8.438   4.130  2.8740  0.4306 -1.9389
  627MOL0     H82752  11.044   8.510   4.295 -1.7896  1.7128  0.4374
  627MOL0     H82753  11.243   8.409   4.368 -0.3047 -0.5024  0.0661
  627MOL0     H82754  11.446   8.452   4.571  1.2950 -0.7803  1.2134
  627MOL0     H82755  11.410   8.314   4.475 -1.6989  3.1269 -0.4267
  627MOL0     H82756  11.491   8.269   4.762 -2.5526 -0.6012 -0.5388
  627MOL0     H82757  11.490   8.156   4.632  2.0009 -1.4808  1.3589
  627MOL0     H82758  11.681   8.406   4.602  3.2237 -0.5646  1.2214
  627MOL0     H82759  11.693   8.240   4.524  0.5657  0.3752 -0.2318
  627MOL0     H82760  11.720   8.308   4.827 -0.4025 -0.2603  0.6963
  627MOL0     H82761  11.745   8.152   4.742  1.7006  0.2833 -1.1680
  627MOL0     H82762  12.105   8.343   4.657 -0.0455  1.8737 -0.3388
  627MOL0     H82763  11.077   8.420   4.772  1.0966  1.4510  0.0534
  627MOL0     H82764  10.880   8.505   4.691 -0.7389 -1.0675  0.5469
  628MOL0     O82765   8.435   7.626   5.560 -0.7995 -0.4505 -0.0020
  628MOL0     C82766   8.485   7.714   5.633 -0.4598 -0.5566  0.8567
  628MOL0     O82767   8.411   7.796   5.707  0.7553 -0.2985 -0.0585
  628MOL0     C82768   8.273   7.805   5.685  0.5099 -0.4955  0.4510
  628MOL0     C82769   8.223   7.848   5.554  0.2390  0.7659 -0.3575
  628MOL0     C82770   8.084   7.868   5.540  0.6456 -0.8025 -0.1317
  628MOL0     C82771   7.995   7.847   5.645  0.0595 -0.8608  0.1028
  628MOL0     O82772   7.858   7.868   5.641 -0.2344 -0.0272 -0.2560
  628MOL0     C82773   7.805   7.963   5.558 -0.7779 -0.2823  0.3762
  628MOL0     C82774   7.652   7.970   5.567  0.3446 -0.4860 -0.3793
  628MOL0     C82775   7.614   7.983   5.718 -0.0196  0.1819  0.2766
  628MOL0     C82776   7.669   8.102   5.793  0.4925  0.1145  0.1784
  628MOL0     C82777   7.596   8.229   5.753 -0.3688  0.2814  0.3885
  628MOL0     C82778   7.653   8.339   5.846  0.3780  0.0959  0.0037
  628MOL0     C82779   7.577   8.467   5.831  0.0396 -0.8282 -0.0926
  628MOL0     C82780   7.570   8.558   5.953  0.6908 -0.2222 -0.3461
  628MOL0     N82781   7.507   8.687   5.904  0.3433 -0.2036 -0.4639
  628MOL0     C82782   7.383   8.724   5.942  0.1889  0.5693 -0.1115
  628MOL0     C82783   7.372   8.855   5.915  0.6115 -0.6876  0.3348
  628MOL0     C82784   7.254   8.938   5.964 -0.3473 -0.2490 -0.1470
  628MOL0     C82785   7.118   8.885   5.914 -0.1135  1.6280 -0.1348
  628MOL0     C82786   7.113   8.891   5.758  0.1677  0.0611  0.3706
  628MOL0     C82787   6.995   8.834   5.693  0.0290  0.1033 -0.1351
  628MOL0     O82788   6.875   8.877   5.755 -0.1961  0.1645 -0.1684
  628MOL0     C82789   6.762   8.808   5.721  0.6564  0.2266  0.3854
  628MOL0     C82790   6.645   8.871   5.756  0.2402 -0.1413  0.7257
  628MOL0     C82791   6.522   8.814   5.719  0.1902 -0.0225 -0.2289
  628MOL0     C82792   6.515   8.700   5.634  0.6206 -0.6706 -0.2496
  628MOL0     C82793   6.387   8.645   5.603 -0.1542 -0.4606  0.3819
  628MOL0     O82794   6.278   8.730   5.624  0.8491  0.8640 -0.2977
  628MOL0     C82795   6.143   8.686   5.609  0.5972 -0.3228  0.0785
  628MOL0     C82796   6.040   8.772   5.546  0.1604  0.3625 -0.6156
  628MOL0     C82797   5.911   8.713   5.520  0.6988  0.0660  0.3396
  628MOL0     C82798   5.878   8.588   5.571 -0.2494 -0.2808 -0.6590
  628MOL0     O82799   5.756   8.527   5.560 -0.4379 -0.4536 -0.1909
  628MOL0     C82800   5.648   8.592   5.528 -0.4990 -0.1894  0.2735
  628MOL0     C82801   5.536   8.499   5.489  0.9157 -0.5534 -0.7765
  628MOL0     C82802   5.407   8.567   5.432  0.2044  0.4372 -0.0705
  628MOL0     C82803   5.322   8.459   5.377  1.0160  0.3338 -0.4750
  628MOL0     C82804   5.240   8.388   5.490  0.1775  0.3106  0.3940
  628MOL0     C82805   5.148   8.283   5.419  0.2421 -0.2919  0.2241
  628MOL0     C82806   5.072   8.208   5.531 -0.5481  0.1114 -0.2269
  628MOL0     C82807   4.959   8.114   5.490 -0.0223 -0.5268  0.6040
  628MOL0    Cl82808   4.856   8.065   5.633 -0.0382 -0.1593 -0.0782
  628MOL0     C82809   5.977   8.514   5.633  0.4109 -0.3235  0.3258
  628MOL0     C82810   6.109   8.558   5.649  0.3146  0.3015 -0.3047
  628MOL0     O82811   6.390   8.533   5.559  0.1219 -0.4219  0.7228
  628MOL0     C82812   6.635   8.643   5.599 -0.5384 -0.3588 -0.2631
  628MOL0     C82813   6.760   8.691   5.641  0.4676  0.5935  0.3919
  628MOL0     N82814   7.491   8.895   5.862  0.0409 -0.4443 -0.4942
  628MOL0     N82815   7.575   8.800   5.870 -0.9550 -0.8648 -0.5902
  628MOL0     C82816   8.045   7.794   5.765  0.1274 -0.7002 -0.8503
  628MOL0     C82817   8.186   7.773   5.787  0.6100 -0.4972  0.6282
  628MOL0     C82818   8.629   7.703   5.648 -0.3501 -0.6017  0.7576
  628MOL0     C82819   8.704   7.779   5.731 -0.3613  0.0700  0.1306
  628MOL0     C82820   8.846   7.775   5.731 -0.6290  0.2844  0.7705
  628MOL0     C82821   8.912   7.683   5.650 -0.2330 -0.1052  1.0062
  628MOL0     O82822   9.053   7.692   5.655 -0.0801  0.4864  0.7891
  628MOL0     C82823   9.142   7.589   5.612  0.1718 -0.5989 -0.0221
  628MOL0     C82824   9.117   7.459   5.693 -0.3622  0.5943 -0.4657
  628MOL0     C82825   9.119   7.512   5.844  0.2865  0.0697  0.7702
  628MOL0     C82826   9.146   7.387   5.931 -0.2129 -0.4731  0.0681
  628MOL0     C82827   9.036   7.294   5.920 -0.1564 -0.6187 -0.2223
  628MOL0     C82828   8.935   7.223   5.909 -0.7947  0.0001  0.2199
  628MOL0     C82829   8.833   7.589   5.576  0.3274  0.0070 -0.3769
  628MOL0     C82830   8.697   7.603   5.575  0.7760 -0.8450  0.0829
  628MOL0     H82831   8.293   7.848   5.471 -0.3802 -0.3705 -0.9047
  628MOL0     H82832   8.035   7.886   5.445 -0.8133 -1.5513  0.4450
  628MOL0     H82833   7.815   7.927   5.456  0.2910  0.9904  0.0007
  628MOL0     H82834   7.846   8.064   5.562 -0.1640 -0.4030 -1.8544
  628MOL0     H82835   7.609   7.881   5.521  1.7278 -0.2717 -2.1788
  628MOL0     H82836   7.605   8.052   5.512 -0.2141  0.5548  1.5189
  628MOL0     H82837   7.645   7.886   5.756 -5.5398 -2.8871 -1.8878
  628MOL0     H82838   7.505   7.978   5.731  0.0700 -1.9066  0.4718
  628MOL0     H82839   7.637   8.075   5.894 -1.8069 -0.0441 -0.5191
  628MOL0     H82840   7.778   8.108   5.785  0.4044  0.0052 -1.3597
  628MOL0     H82841   7.488   8.220   5.771 -0.2186 -1.1714  0.6634
  628MOL0     H82842   7.599   8.258   5.647 -3.6924  0.5191  0.2437
  628MOL0     H82843   7.753   8.350   5.803 -0.3983  1.0763 -1.6465
  628MOL0     H82844   7.651   8.306   5.950  1.9658 -1.5736 -0.4244
  628MOL0     H82845   7.614   8.529   5.748 -3.3883 -1.6658 -2.4990
  628MOL0     H82846   7.474   8.444   5.801 -1.0192  0.5765  2.1952
  628MOL0     H82847   7.674   8.575   5.985  0.1898  1.6856  0.4339
  628MOL0     H82848   7.523   8.510   6.039  2.4534 -0.8621  0.2980
  628MOL0     H82849   7.309   8.665   5.996  1.8865  0.0536  1.7798
  628MOL0     H82850   7.271   9.042   5.935 -2.0245 -0.2081 -1.0710
  628MOL0     H82851   7.248   8.932   6.074 -1.0177 -0.3086 -0.1785
  628MOL0     H82852   7.044   8.951   5.960 -0.2525  0.5518  1.2583
  628MOL0     H82853   7.109   8.780   5.944  0.5842  2.0836  1.8395
  628MOL0     H82854   7.114   8.998   5.734 -0.0514  0.4569  2.0502
  628MOL0     H82855   7.199   8.841   5.712  0.5714  2.0621 -1.2293
  628MOL0     H82856   7.007   8.726   5.704 -1.7606 -0.2357 -1.0709
  628MOL0     H82857   6.997   8.847   5.585 -0.4385  0.9312 -0.0585
  628MOL0     H82858   6.641   8.961   5.817 -0.9814 -0.2671  0.8569
  628MOL0     H82859   6.427   8.855   5.752  0.2008 -0.4703  0.3779
  628MOL0     H82860   6.075   8.863   5.499  2.7961  0.0231  0.5341
  628MOL0     H82861   5.844   8.782   5.471  0.0015  0.1922  1.4211
  628MOL0     H82862   5.675   8.668   5.454 -1.6286  2.0971  2.0449
  628MOL0     H82863   5.614   8.651   5.614  1.4578 -1.4131  1.9754
  628MOL0     H82864   5.516   8.430   5.572 -0.2370 -0.9565 -1.3532
  628MOL0     H82865   5.567   8.438   5.403  2.5447  2.3621 -2.3899
  628MOL0     H82866   5.439   8.630   5.349  1.4804  1.0082  0.8324
  628MOL0     H82867   5.350   8.630   5.501  0.6075  0.7350 -0.0103
  628MOL0     H82868   5.250   8.495   5.303  1.2295  2.7347  0.4054
  628MOL0     H82869   5.372   8.377   5.325  0.4641  0.3673 -1.0711
  628MOL0     H82870   5.171   8.455   5.540 -0.9197 -1.6596  1.6430
  628MOL0     H82871   5.304   8.346   5.568  0.9227 -0.3096 -0.5090
  628MOL0     H82872   5.205   8.214   5.356  0.5149  1.0479 -1.0537
  628MOL0     H82873   5.080   8.329   5.346  2.3602  1.6570 -0.6691
  628MOL0     H82874   5.150   8.147   5.577 -0.3996  1.2871  1.1353
  628MOL0     H82875   5.033   8.280   5.603 -0.4380  0.9300 -0.9612
  628MOL0     H82876   5.010   8.028   5.446  0.7702  1.6211 -3.1343
  628MOL0     H82877   4.887   8.158   5.421  1.9185 -0.3570 -1.4156
  628MOL0     H82878   5.953   8.426   5.692 -0.7080  0.1224  0.5545
  628MOL0     H82879   6.184   8.499   5.701 -0.9482 -1.6484 -0.5776
  628MOL0     H82880   6.629   8.547   5.549 -2.9199  0.1925 -1.1619
  628MOL0     H82881   6.852   8.637   5.619  0.1811  0.6169 -0.9050
  628MOL0     H82882   7.984   7.780   5.853  2.2888 -0.7748  0.7071
  628MOL0     H82883   8.227   7.749   5.884  1.3029  1.2713  0.8007
  628MOL0     H82884   8.644   7.848   5.790 -0.4981  1.3455 -1.4450
  628MOL0     H82885   8.897   7.842   5.798  0.4677  1.0581 -0.7943
  628MOL0     H82886   9.242   7.623   5.643  0.3231 -2.6760  2.0828
  628MOL0     H82887   9.146   7.568   5.505  3.2562  2.0523 -0.5832
  628MOL0     H82888   9.026   7.403   5.670 -0.7021  1.2561 -0.7409
  628MOL0     H82889   9.198   7.389   5.670  1.7681  2.9835 -0.6913
  628MOL0     H82890   9.022   7.556   5.868 -0.5292 -0.4808 -1.2869
  628MOL0     H82891   9.190   7.594   5.854  1.6309 -0.7341 -1.2817
  628MOL0     H82892   9.238   7.334   5.902 -0.3575 -0.4502 -0.4483
  628MOL0     H82893   9.171   7.423   6.031 -1.7201 -0.9616  0.6456
  628MOL0     H82894   8.852   7.159   5.885  2.4520 -3.2074 -3.9846
  628MOL0     H82895   8.881   7.508   5.522  0.1019  1.1774 -2.4312
  628MOL0     H82896   8.649   7.524   5.518 -0.4380 -1.3725  1.7655
  629MOL0     O82897   8.535   2.746   9.511 -0.4809 -0.0966 -0.9376
  629MOL0     C82898   8.646   2.779   9.551  0.8460  0.2684  0.1324
  629MOL0     O82899   8.704   2.739   9.668  0.0762 -0.0523 -0.1330
  629MOL0     C82900   8.642   2.651   9.750 -0.2919  0.1167  0.3689
  629MOL0     C82901   8.657   2.510   9.723  0.3327 -0.3334  0.8088
  629MOL0     C82902   8.602   2.406   9.804 -0.5101 -0.1658  0.0115
  629MOL0     C82903   8.529   2.447   9.919 -0.4382 -0.9886 -0.2213
  629MOL0     O82904   8.493   2.338   9.991  0.1207 -0.5216 -0.4575
  629MOL0     C82905   8.450   2.357  10.134  0.2077 -0.2873  0.2904
  629MOL0     C82906   8.387   2.225  10.182  0.0463  0.8494 -0.2610
  629MOL0     C82907   8.360   2.238  10.333  0.6660  0.2269 -0.0944
  629MOL0     C82908   8.297   2.108  10.380 -0.0487 -0.6066 -0.0610
  629MOL0     C82909   8.304   2.106  10.533 -0.1465  0.5452 -0.4852
  629MOL0     C82910   8.218   1.985  10.568  0.1488 -0.2122 -0.0588
  629MOL0     C82911   8.218   1.956  10.712  0.4547  0.0422 -0.4228
  629MOL0     C82912   8.101   2.013  10.792  0.1866  0.9555 -0.5646
  629MOL0     N82913   7.976   1.944  10.757 -0.2454  0.4628  0.2271
  629MOL0     C82914   7.938   1.818  10.788  1.1610  0.1548  0.0828
  629MOL0     C82915   7.804   1.809  10.753  0.9991 -0.0328 -0.3785
  629MOL0     C82916   7.712   1.707  10.810  0.1752  0.0834 -0.4446
  629MOL0     C82917   7.603   1.661  10.710  0.8544 -0.1586 -0.0881
  629MOL0     C82918   7.534   1.532  10.764 -0.2519  0.2758  0.9665
  629MOL0     C82919   7.416   1.490  10.680 -0.9254 -0.5409 -0.4322
  629MOL0     O82920   7.314   1.599  10.672 -0.2343 -0.3627 -0.4983
  629MOL0     C82921   7.198   1.576  10.604 -0.3581 -0.1519  0.1777
  629MOL0     C82922   7.178   1.458  10.523 -0.5698  0.4402 -0.1801
  629MOL0     C82923   7.059   1.442  10.445 -0.9923 -0.2816 -0.1613
  629MOL0     C82924   6.955   1.537  10.460  0.5094  0.0205  0.1201
  629MOL0     C82925   6.823   1.501  10.398  0.0583 -0.0385  0.4748
  629MOL0     O82926   6.809   1.384  10.324  0.1910 -0.0836 -0.4128
  629MOL0     C82927   6.685   1.336  10.289  0.3158  0.2598  0.6310
  629MOL0     C82928   6.655   1.197  10.297  0.0748  0.0969  0.0698
  629MOL0     C82929   6.535   1.142  10.255 -0.1341 -0.8379 -0.4676
  629MOL0     C82930   6.430   1.223  10.215 -0.3754 -1.1830 -0.7015
  629MOL0     O82931   6.309   1.166  10.172  0.9862 -0.3159  0.6080
  629MOL0     C82932   6.289   1.166  10.040  0.4393  0.8812  0.6149
  629MOL0     C82933   6.148   1.232  10.001  0.0521  0.4191 -0.4828
  629MOL0     C82934   6.026   1.146  10.046  0.3638  1.3286  0.9174
  629MOL0     C82935   5.903   1.177   9.961  0.0029 -0.1872 -0.5663
  629MOL0     C82936   5.782   1.088  10.001 -0.6980 -0.1734  0.0249
  629MOL0     C82937   5.651   1.140   9.938  0.9970  0.9204 -1.1437
  629MOL0     C82938   5.533   1.060   9.980 -0.0695 -0.1308  0.3700
  629MOL0     C82939   5.392   1.105   9.934 -0.9767 -1.0039 -0.5486
  629MOL0    Cl82940   5.281   0.970   9.920  0.0707  0.1788  0.0130
  629MOL0     C82941   6.456   1.360  10.203 -0.0444 -1.0220  0.5592
  629MOL0     C82942   6.578   1.418  10.242  0.1172 -0.2303  0.0289
  629MOL0     O82943   6.730   1.579  10.415  0.2291 -0.4481 -0.3062
  629MOL0     C82944   6.980   1.656  10.536  0.2930  0.6355  0.1170
  629MOL0     C82945   7.103   1.675  10.603  0.0317 -0.0394  0.1337
  629MOL0     N82946   7.770   1.934  10.707  0.6749  0.5580 -0.4995
  629MOL0     N82947   7.866   2.010  10.705 -0.6768 -0.1578  0.2781
  629MOL0     C82948   8.521   2.585   9.957  0.0442 -0.1176  0.0058
  629MOL0     C82949   8.564   2.685   9.865 -0.9549  0.0560 -0.3139
  629MOL0     C82950   8.731   2.867   9.465  0.0154 -0.3147 -0.1924
  629MOL0     C82951   8.672   2.939   9.359  0.5474 -0.2854 -0.1402
  629MOL0     C82952   8.744   3.025   9.290  0.0546  0.0732 -0.1852
  629MOL0     C82953   8.877   3.060   9.315 -0.6892  0.3846  0.6307
  629MOL0     O82954   8.948   3.143   9.234 -0.3789  0.2727 -0.0672
  629MOL0     C82955   9.018   3.258   9.293  0.7258 -0.0484 -0.5794
  629MOL0     C82956   9.083   3.328   9.175 -0.3675 -0.2118  0.1292
  629MOL0     C82957   9.177   3.442   9.223  0.8659 -0.0642 -0.4778
  629MOL0     C82958   9.244   3.509   9.096  0.1173 -0.6607  0.4529
  629MOL0     C82959   9.336   3.614   9.149  0.2576  0.6251  0.7007
  629MOL0     C82960   9.410   3.688   9.196 -0.1005 -0.9672 -0.0688
  629MOL0     C82961   8.941   2.984   9.415 -0.2758 -0.0725  0.0635
  629MOL0     C82962   8.868   2.888   9.484 -0.0330 -0.0842 -0.3495
  629MOL0     H82963   8.721   2.477   9.641 -0.1035 -0.4630  0.5215
  629MOL0     H82964   8.629   2.301   9.793  1.4112 -0.3705  4.3767
  629MOL0     H82965   8.369   2.429  10.135 -1.2175 -1.8326  1.2517
  629MOL0     H82966   8.535   2.392  10.192 -0.4463  2.5573 -0.3531
  629MOL0     H82967   8.457   2.144  10.158 -1.1439  0.0938 -1.3070
  629MOL0     H82968   8.292   2.203  10.132 -0.0344 -0.0485  0.2578
  629MOL0     H82969   8.284   2.314  10.355 -0.9742 -1.4012  0.1061
  629MOL0     H82970   8.450   2.275  10.385  1.4957  0.2748 -1.5246
  629MOL0     H82971   8.193   2.110  10.345  0.2150 -1.3394 -0.9257
  629MOL0     H82972   8.344   2.021  10.332  2.2039  0.8971 -0.7636
  629MOL0     H82973   8.262   2.192  10.586 -0.5440 -0.9534  1.7527
  629MOL0     H82974   8.404   2.089  10.573 -0.3584 -0.0667 -0.2002
  629MOL0     H82975   8.248   1.901  10.504 -0.8802  0.0225 -0.8698
  629MOL0     H82976   8.114   2.007  10.544 -0.1847 -0.2496  1.2840
  629MOL0     H82977   8.219   1.847  10.719 -1.3584  0.0824  1.3062
  629MOL0     H82978   8.308   1.991  10.762 -0.1220  0.4259  0.3676
  629MOL0     H82979   8.087   2.121  10.791  0.3455  1.1004  2.5229
  629MOL0     H82980   8.122   1.981  10.895 -0.0916 -1.7549 -1.2575
  629MOL0     H82981   7.985   1.746  10.855  0.7679 -2.3220 -2.1220
  629MOL0     H82982   7.670   1.728  10.909 -0.0207 -0.9173 -0.3035
  629MOL0     H82983   7.778   1.624  10.836  0.0399  0.5269  1.4701
  629MOL0     H82984   7.655   1.636  10.617  0.7668  0.8354 -0.4162
  629MOL0     H82985   7.531   1.741  10.691 -1.3752 -2.1007 -0.2236
  629MOL0     H82986   7.597   1.443  10.755  1.5831  1.3638  2.4114
  629MOL0     H82987   7.511   1.536  10.871  2.8194 -3.8359  2.0497
  629MOL0     H82988   7.366   1.400  10.719 -0.5567 -1.1272 -1.2862
  629MOL0     H82989   7.445   1.474  10.576  2.4601  0.9791  0.1299
  629MOL0     H82990   7.247   1.375  10.529 -2.5238 -1.4864 -2.1772
  629MOL0     H82991   7.051   1.353  10.383 -0.2471  0.7144 -1.7496
  629MOL0     H82992   6.729   1.136  10.349  0.4014  0.4092 -0.0211
  629MOL0     H82993   6.517   1.035  10.258 -0.6608 -0.7327  0.6823
  629MOL0     H82994   6.288   1.059  10.017 -0.0152  1.0965 -0.4526
  629MOL0     H82995   6.370   1.206   9.978 -0.2104 -1.8816 -2.2370
  629MOL0     H82996   6.148   1.242   9.892 -0.4162  1.9829 -0.3692
  629MOL0     H82997   6.134   1.331  10.046 -1.8232 -0.7475  1.7128
  629MOL0     H82998   6.013   1.162  10.153  0.1692  2.7821  0.6938
  629MOL0     H82999   6.049   1.040  10.028  2.4087  1.3891  2.7778
  629MOL0     H83000   5.879   1.282   9.981 -1.0542 -1.0000  3.1289
  629MOL0     H83001   5.917   1.169   9.853 -0.6365 -1.2966 -0.5841
  629MOL0     H83002   5.773   1.083  10.110 -1.8605  0.3149 -0.0325
  629MOL0     H83003   5.799   0.982   9.976 -0.6554  0.4093 -2.7411
  629MOL0     H83004   5.666   1.130   9.830  0.2180  0.8469 -1.2480
  629MOL0     H83005   5.631   1.245   9.962 -2.5892  0.0096  0.4526
  629MOL0     H83006   5.529   0.968   9.920 -2.4672  0.9968 -1.3551
  629MOL0     H83007   5.532   1.038  10.088  1.9289 -1.2376  0.2150
  629MOL0     H83008   5.400   1.168   9.845 -1.5822 -0.0884  0.0214
  629MOL0     H83009   5.361   1.165  10.020  1.0485 -2.5791  1.3751
  629MOL0     H83010   6.384   1.425  10.155  0.1906 -1.0387  0.1827
  629MOL0     H83011   6.586   1.525  10.228 -1.8319 -0.1012 -0.2480
  629MOL0     H83012   6.900   1.727  10.550  0.6575  0.9746  0.4824
  629MOL0     H83013   7.104   1.773  10.650 -0.9776 -0.7491  1.7383
  629MOL0     H83014   8.493   2.618  10.057  0.3064  1.5184 -0.4299
  629MOL0     H83015   8.568   2.786   9.904  1.1714  1.7478 -4.3206
  629MOL0     H83016   8.566   2.931   9.334  0.2214 -2.6816  1.6797
  629MOL0     H83017   8.702   3.077   9.204 -0.5163 -2.6080 -1.6580
  629MOL0     H83018   9.085   3.224   9.373 -0.8837 -0.6824  0.5704
  629MOL0     H83019   8.944   3.322   9.343  0.7244 -1.0727  0.7930
  629MOL0     H83020   9.134   3.249   9.121 -4.3732  0.0332 -4.7050
  629MOL0     H83021   9.012   3.366   9.102  0.0530  0.5182  0.0841
  629MOL0     H83022   9.252   3.409   9.296  0.4835 -1.3265 -0.6264
  629MOL0     H83023   9.120   3.521   9.272 -0.4999 -0.4742 -1.3541
  629MOL0     H83024   9.301   3.435   9.039  0.1049  0.0333 -0.4934
  629MOL0     H83025   9.171   3.559   9.031 -0.3084 -1.6367  0.1564
  629MOL0     H83026   9.479   3.761   9.234  3.4072 -2.0944 -3.6599
  629MOL0     H83027   9.048   2.996   9.428 -0.1008 -1.6111  0.1586
  629MOL0     H83028   8.920   2.828   9.558  1.3788  0.6893 -0.6860
  630MOL0     O83029  11.003   9.069   1.758 -0.3719 -0.1025 -0.3100
  630MOL0     C83030  10.983   9.051   1.878  0.0344 -0.2471  0.2453
  630MOL0     O83031  10.861   9.010   1.930  0.3930  0.2271  0.1154
  630MOL0     C83032  10.762   8.990   1.835 -0.1126  0.1650  0.0422
  630MOL0     C83033  10.765   8.882   1.752  0.4426 -0.0267 -0.1057
  630MOL0     C83034  10.665   8.872   1.655  0.4959  0.2442 -0.5883
  630MOL0     C83035  10.565   8.967   1.643  0.2880 -0.2033 -0.2789
  630MOL0     O83036  10.477   8.931   1.540  0.4045  0.1853  0.3357
  630MOL0     C83037  10.368   9.025   1.521 -0.7462 -0.0932 -0.2940
  630MOL0     C83038  10.288   8.974   1.401  0.1174  0.2124  0.3452
  630MOL0     C83039  10.141   9.016   1.394 -0.7036  0.0069  0.2559
  630MOL0     C83040  10.049   8.924   1.485 -0.5034  0.8046  0.6433
  630MOL0     C83041   9.902   8.913   1.445 -0.0311 -1.3444 -0.0400
  630MOL0     C83042   9.831   8.833   1.546  0.4006 -0.2453  0.8418
  630MOL0     C83043   9.691   8.797   1.506 -0.4170  0.0718  0.1979
  630MOL0     C83044   9.598   8.919   1.495  0.3257 -0.0413 -0.1023
  630MOL0     N83045   9.451   8.886   1.483 -0.4184  0.3518 -0.1792
  630MOL0     C83046   9.363   8.874   1.593 -0.2970  0.1258 -0.3662
  630MOL0     C83047   9.247   8.860   1.525 -0.4092 -0.1384 -0.5843
  630MOL0     C83048   9.110   8.855   1.581 -0.1881  0.2163  0.4430
  630MOL0     C83049   9.070   9.003   1.622 -0.0311 -0.2677  0.8614
  630MOL0     C83050   9.089   9.106   1.506 -0.2869 -0.5807 -0.3056
  630MOL0     C83051   9.001   9.073   1.383 -0.8894 -0.3080  1.1678
  630MOL0     O83052   8.871   9.079   1.433 -0.6119  0.6318 -0.0268
  630MOL0     C83053   8.768   9.073   1.348 -0.1147  0.7672  0.2848
  630MOL0     C83054   8.790   9.096   1.213  0.6195 -0.9064  0.4991
  630MOL0     C83055   8.679   9.100   1.129 -0.2588  0.0736 -0.4135
  630MOL0     C83056   8.549   9.082   1.171 -0.6583  1.1861  0.0357
  630MOL0     C83057   8.439   9.095   1.073 -0.3072  0.0597 -1.1683
  630MOL0     O83058   8.324   9.031   1.104  0.0090  0.2419 -0.4675
  630MOL0     C83059   8.207   9.086   1.060  1.4343  0.3542 -0.3912
  630MOL0     C83060   8.105   9.005   1.012  1.0092  0.3532 -0.7247
  630MOL0     C83061   7.977   9.042   0.977 -0.8504 -0.0391 -0.3932
  630MOL0     C83062   7.951   9.179   0.996  0.1061  0.4847  0.0517
  630MOL0     O83063   7.825   9.227   0.955  0.1456 -0.3297 -1.0809
  630MOL0     C83064   7.710   9.158   1.003  0.6935 -0.2053 -1.0913
  630MOL0     C83065   7.584   9.229   0.942  0.3695 -0.3678 -0.2567
  630MOL0     C83066   7.467   9.188   1.026 -0.1114  0.3003  0.0474
  630MOL0     C83067   7.342   9.245   0.958 -0.2825  0.0723 -0.1128
  630MOL0     C83068   7.224   9.251   1.059  0.9737  0.5337  0.9594
  630MOL0     C83069   7.100   9.316   0.996  0.3674 -0.6378 -0.3890
  630MOL0     C83070   7.014   9.217   0.914  0.5688 -0.5814  0.2034
  630MOL0     C83071   6.902   9.282   0.834  0.4556 -0.8475  0.5931
  630MOL0    Cl83072   6.820   9.154   0.736 -0.3243  0.1417  0.2455
  630MOL0     C83073   8.041   9.267   1.054  0.1106 -0.6049 -0.7626
  630MOL0     C83074   8.173   9.223   1.079 -0.3503  0.4447 -0.3084
  630MOL0     O83075   8.470   9.147   0.965 -0.3139 -0.8517 -0.7452
  630MOL0     C83076   8.526   9.060   1.303 -0.3506 -0.3750  0.2733
  630MOL0     C83077   8.638   9.062   1.391  0.0046  0.3843  0.3512
  630MOL0     N83078   9.271   8.850   1.388  0.2127 -0.1802 -0.6174
  630MOL0     N83079   9.398   8.869   1.364 -0.0337 -0.0513  0.2060
  630MOL0     C83080  10.568   9.090   1.720  0.0988 -0.3763  0.5487
  630MOL0     C83081  10.668   9.090   1.817 -0.1738 -0.0928 -0.2900
  630MOL0     C83082  11.106   9.049   1.965  1.0056 -0.2127 -0.2987
  630MOL0     C83083  11.234   9.032   1.912  0.2380 -0.3054 -0.3836
  630MOL0     C83084  11.345   9.017   1.997  0.2363  0.7081  0.0617
  630MOL0     C83085  11.331   9.015   2.136  0.8500 -0.1053  0.2642
  630MOL0     O83086  11.450   8.995   2.206  0.6137  0.2880 -0.7768
  630MOL0     C83087  11.452   9.005   2.350  0.2713  0.2189  0.2134
  630MOL0     C83088  11.600   9.021   2.397 -0.3345  0.3995  0.6306
  630MOL0     C83089  11.605   9.032   2.557 -0.4484 -0.7484  0.2335
  630MOL0     C83090  11.556   8.899   2.621  0.3202  0.6762 -0.2611
  630MOL0     C83091  11.574   8.903   2.772  0.2099  0.4279 -0.2702
  630MOL0     C83092  11.575   8.898   2.894 -0.2888  0.2530 -0.1334
  630MOL0     C83093  11.198   9.030   2.193 -0.4187  0.5784  0.0754
  630MOL0     C83094  11.087   9.043   2.110  0.1647 -1.1095  0.3036
  630MOL0     H83095  10.831   8.796   1.756 -1.0886 -1.2816 -0.9680
  630MOL0     H83096  10.651   8.786   1.591 -0.3906 -1.7235  2.0761
  630MOL0     H83097  10.401   9.128   1.502 -0.6330  0.3023  1.8780
  630MOL0     H83098  10.295   9.022   1.602 -0.0221 -2.4963  0.3375
  630MOL0     H83099  10.299   8.866   1.404  2.0418  0.2973 -1.5494
  630MOL0     H83100  10.324   9.007   1.303 -4.8249  2.0887 -1.1295
  630MOL0     H83101  10.105   9.005   1.292 -0.4776 -2.3089  0.3744
  630MOL0     H83102  10.119   9.120   1.421  0.9883  1.0307 -2.0416
  630MOL0     H83103  10.075   8.817   1.488  1.2660  1.1905  0.5122
  630MOL0     H83104  10.064   8.952   1.590  0.9404  2.3719  0.0642
  630MOL0     H83105   9.893   8.875   1.343 -1.2804  3.5371 -2.0193
  630MOL0     H83106   9.861   9.014   1.449  0.1789 -1.2819  0.9626
  630MOL0     H83107   9.833   8.882   1.643  0.5194  1.1961  0.1465
  630MOL0     H83108   9.880   8.736   1.563 -1.6987 -1.2392  1.5353
  630MOL0     H83109   9.702   8.750   1.407 -1.4862  2.2909 -1.0387
  630MOL0     H83110   9.658   8.721   1.577  0.8813 -2.7940 -2.0332
  630MOL0     H83111   9.617   8.969   1.399 -3.6101 -1.0426 -1.6257
  630MOL0     H83112   9.621   8.991   1.574 -1.3997  0.3678  0.0736
  630MOL0     H83113   9.388   8.881   1.698 -2.3209  0.0422  0.1501
  630MOL0     H83114   9.107   8.782   1.663 -1.1734 -1.3854 -0.9416
  630MOL0     H83115   9.044   8.812   1.506 -1.6094 -0.3829  1.9763
  630MOL0     H83116   9.131   9.041   1.704 -0.6054  1.7591  0.4137
  630MOL0     H83117   8.968   9.007   1.661 -0.9088  1.3204 -1.3611
  630MOL0     H83118   9.066   9.204   1.547 -3.1125 -1.1863 -0.2350
  630MOL0     H83119   9.192   9.103   1.469 -0.1804 -3.0521 -0.0132
  630MOL0     H83120   9.022   8.983   1.325 -0.6503  0.8313 -0.5880
  630MOL0     H83121   9.023   9.154   1.313 -1.7299 -1.5573 -0.6110
  630MOL0     H83122   8.889   9.119   1.176 -0.3019  2.5062 -0.1901
  630MOL0     H83123   8.702   9.116   1.024  0.2309 -2.3825 -0.7192
  630MOL0     H83124   8.129   8.899   1.005  1.7578  0.5651 -1.5863
  630MOL0     H83125   7.909   8.970   0.932  0.0202 -1.6558  0.7642
  630MOL0     H83126   7.711   9.153   1.113  0.2879  1.2567 -1.0043
  630MOL0     H83127   7.707   9.054   0.969  0.0205 -0.5964  0.0892
  630MOL0     H83128   7.583   9.213   0.834  2.1779 -1.9362 -0.0828
  630MOL0     H83129   7.601   9.336   0.956 -0.3245 -0.4444  1.5238
  630MOL0     H83130   7.488   9.231   1.124  0.0405 -1.8981  1.0294
  630MOL0     H83131   7.454   9.080   1.034  1.1776  0.2594  2.2937
  630MOL0     H83132   7.363   9.348   0.924 -0.3954 -0.3134 -1.4205
  630MOL0     H83133   7.316   9.188   0.868 -0.9639 -1.1324  0.8276
  630MOL0     H83134   7.261   9.309   1.144  2.0735 -0.0209  0.8881
  630MOL0     H83135   7.191   9.150   1.088  1.4123  0.2458  0.4760
  630MOL0     H83136   7.123   9.407   0.939 -2.3388 -0.4199 -1.2517
  630MOL0     H83137   7.051   9.348   1.089  3.6173 -1.4709  1.7997
  630MOL0     H83138   7.081   9.169   0.842  0.6998  0.4470 -0.3731
  630MOL0     H83139   6.956   9.148   0.976 -1.0910  1.1073  0.6274
  630MOL0     H83140   6.945   9.354   0.764 -1.2390 -1.0978 -0.7855
  630MOL0     H83141   6.826   9.316   0.905 -1.6470 -3.5924 -0.1629
  630MOL0     H83142   8.002   9.368   1.065 -0.2877 -0.8321 -0.1249
  630MOL0     H83143   8.247   9.299   1.099 -0.5030  0.3145  0.8492
  630MOL0     H83144   8.422   9.063   1.333 -0.3094 -0.0620  0.3873
  630MOL0     H83145   8.624   9.054   1.498  1.6679  0.6916  0.6269
  630MOL0     H83146  10.488   9.164   1.710 -1.9506 -2.4748  0.4973
  630MOL0     H83147  10.686   9.181   1.873  1.8553 -0.6190 -0.0051
  630MOL0     H83148  11.249   9.016   1.806 -0.8666  1.1023 -0.7829
  630MOL0     H83149  11.442   8.996   1.954  0.4738 -0.6956  1.1897
  630MOL0     H83150  11.402   8.923   2.403  1.0040  0.1004  0.7267
  630MOL0     H83151  11.398   9.096   2.377 -1.4777 -0.0879 -1.9178
  630MOL0     H83152  11.666   8.938   2.371 -0.9252  0.7195 -2.2239
  630MOL0     H83153  11.648   9.106   2.348  1.1050  0.4512  2.0324
  630MOL0     H83154  11.544   9.112   2.600  0.8826  1.6322 -2.0146
  630MOL0     H83155  11.707   9.051   2.590 -0.4269 -0.9732  0.2963
  630MOL0     H83156  11.449   8.887   2.602  0.0565 -1.2184  1.9592
  630MOL0     H83157  11.624   8.820   2.588  2.5572  1.8209  1.3285
  630MOL0     H83158  11.562   8.888   2.999 -3.1429 -0.7711 -0.5036
  630MOL0     H83159  11.189   9.033   2.301 -0.7888  1.7971  0.0311
  630MOL0     H83160  10.985   9.061   2.145  0.4935  4.4966 -0.5921
  631MOL0     O83161   2.084   1.260   0.038 -0.0176  0.0518 -0.2002
  631MOL0     C83162   2.122   1.153  -0.018 -0.3160 -0.9044 -0.7881
  631MOL0     O83163   2.046   1.055  -0.060 -0.0223  0.4069 -0.2509
  631MOL0     C83164   1.915   1.092  -0.079 -0.4075 -0.0225  0.7683
  631MOL0     C83165   1.812   1.012  -0.021  0.0718  0.3231  0.6567
  631MOL0     C83166   1.672   1.039  -0.056 -0.3910 -0.0065  0.3681
  631MOL0     C83167   1.649   1.155  -0.135 -0.0274 -0.3399  1.3326
  631MOL0     O83168   1.517   1.185  -0.169 -0.8313 -0.0072 -0.2091
  631MOL0     C83169   1.477   1.292  -0.259 -0.5091  0.6716  0.6305
  631MOL0     C83170   1.340   1.329  -0.230 -0.5578  0.3880 -0.6163
  631MOL0     C83171   1.237   1.211  -0.232  0.3178 -0.0497  0.4159
  631MOL0     C83172   1.128   1.210  -0.328  0.5803  0.1837  1.3474
  631MOL0     C83173   1.073   1.349  -0.360 -0.5926  0.6822  0.4103
  631MOL0     C83174   0.989   1.408  -0.255  0.3073 -0.1228 -0.0187
  631MOL0     C83175   0.900   1.519  -0.307  1.3557  0.4307  0.8112
  631MOL0     C83176   0.800   1.580  -0.207  0.1415  0.0948  0.1837
  631MOL0     N83177   0.705   1.665  -0.270 -0.4642  0.3077  0.7093
  631MOL0     C83178   0.727   1.795  -0.314  0.7505 -0.1895  0.4042
  631MOL0     C83179   0.611   1.835  -0.362  0.1102  0.0828  0.0128
  631MOL0     C83180   0.569   1.969  -0.428 -0.1739 -0.0218  0.2319
  631MOL0     C83181   0.578   2.067  -0.320  0.1442 -0.4192  0.5901
  631MOL0     C83182   0.526   2.206  -0.368  0.0810 -0.1881 -0.1230
  631MOL0     C83183   0.504   2.294  -0.233  0.2105 -0.1882 -0.5296
  631MOL0     O83184   0.424   2.237  -0.127 -0.1241  0.3695 -0.0620
  631MOL0     C83185   0.283   2.238  -0.129 -0.0594  0.2219 -0.6974
  631MOL0     C83186   0.194   2.280  -0.234  0.0635  0.2226  0.1065
  631MOL0     C83187   0.060   2.270  -0.219  1.1354  0.1932 -0.5846
  631MOL0     C83188   0.004   2.220  -0.097  0.0920 -0.1064 -0.1971
  631MOL0     C83189  -0.144   2.215  -0.086  0.0226 -0.1061 -0.0859
  631MOL0     O83190  -0.223   2.289  -0.172 -0.0866 -0.0522 -0.0465
  631MOL0     C83191  -0.346   2.240  -0.200 -0.8699 -0.6179  0.3313
  631MOL0     C83192  -0.355   2.132  -0.282  0.9655 -0.3423  0.3337
  631MOL0     C83193  -0.486   2.079  -0.316  0.3100 -0.7347 -0.3200
  631MOL0     C83194  -0.598   2.134  -0.250  1.0102  0.2334  0.5033
  631MOL0     O83195  -0.729   2.093  -0.283  0.1366 -0.7435  0.3219
  631MOL0     C83196  -0.744   1.956  -0.321  0.1532 -0.8998  0.1415
  631MOL0     C83197  -0.873   1.919  -0.257  0.1760 -0.5658 -0.5287
  631MOL0     C83198  -0.954   1.800  -0.315  0.7100  0.0370  0.1342
  631MOL0     C83199  -1.091   1.778  -0.256  0.2859  0.5952  0.1654
  631MOL0     C83200  -1.157   1.647  -0.306 -0.6155 -0.2606  1.4461
  631MOL0     C83201  -1.251   1.599  -0.201  0.5319 -0.2960  0.0735
  631MOL0     C83202  -1.296   1.462  -0.238  0.1651  0.6551 -0.6043
  631MOL0     C83203  -1.396   1.412  -0.134 -0.1415 -0.9134 -0.8052
  631MOL0    Cl83204  -1.327   1.364   0.033 -0.3739  0.2418  0.2760
  631MOL0     C83205  -0.574   2.230  -0.155  0.3249  0.5249  0.1832
  631MOL0     C83206  -0.454   2.286  -0.129 -0.6764  0.5267 -0.3067
  631MOL0     O83207  -0.192   2.146   0.000  0.0366  0.1336  0.4501
  631MOL0     C83208   0.090   2.180   0.004 -0.1592  0.6284  0.6700
  631MOL0     C83209   0.232   2.194  -0.012 -0.3997 -0.8980 -0.2328
  631MOL0     N83210   0.520   1.731  -0.359 -0.4379  0.5735  0.3878
  631MOL0     N83211   0.576   1.635  -0.290  0.1257  0.3974  0.1224
  631MOL0     C83212   1.751   1.229  -0.194 -0.1463  0.5284 -0.4175
  631MOL0     C83213   1.882   1.193  -0.168 -0.5929  0.1039  0.2894
  631MOL0     C83214   2.260   1.125  -0.038  0.0886 -0.3256 -0.3996
  631MOL0     C83215   2.305   1.068  -0.161  0.4092 -0.3940 -0.2126
  631MOL0     C83216   2.442   1.035  -0.178  0.1154  0.0812 -0.5618
  631MOL0     C83217   2.538   1.100  -0.102 -0.8481  0.4852  0.2440
  631MOL0     O83218   2.670   1.090  -0.150  0.0913 -0.4789  0.0922
  631MOL0     C83219   2.782   1.140  -0.089 -0.8276 -0.3858  0.4635
  631MOL0     C83220   2.896   1.184  -0.186  0.0848  0.6082  0.9796
  631MOL0     C83221   3.030   1.209  -0.117  0.5632  0.0322 -0.7865
  631MOL0     C83222   3.134   1.268  -0.214  0.5633  0.5260 -0.2442
  631MOL0     C83223   3.266   1.293  -0.163  0.2071  0.9597 -0.1195
  631MOL0     C83224   3.385   1.301  -0.126  0.6356  0.3777  0.6628
  631MOL0     C83225   2.496   1.169   0.017  0.3394  0.4233  0.2904
  631MOL0     C83226   2.357   1.169   0.055  0.0629  0.2798  0.0891
  631MOL0     H83227   1.838   0.915   0.019 -1.5376 -0.6557 -0.5713
  631MOL0     H83228   1.588   0.983  -0.017 -0.2854 -0.4012  0.0407
  631MOL0     H83229   1.493   1.254  -0.361 -1.9466 -2.2078  1.3629
  631MOL0     H83230   1.542   1.378  -0.247  1.1837 -0.3137 -0.9623
  631MOL0     H83231   1.315   1.408  -0.302  2.0269  0.0679 -1.9694
  631MOL0     H83232   1.348   1.365  -0.127  0.5305  0.0753 -0.5855
  631MOL0     H83233   1.187   1.203  -0.135  0.0817 -1.7969  0.1822
  631MOL0     H83234   1.290   1.117  -0.247 -1.7217 -1.1812 -0.0380
  631MOL0     H83235   1.172   1.175  -0.422 -0.4842  3.8591 -0.7160
  631MOL0     H83236   1.054   1.137  -0.293  1.5709 -1.1187  0.8236
  631MOL0     H83237   1.003   1.340  -0.443 -3.4528  1.2177  2.6074
  631MOL0     H83238   1.151   1.418  -0.395  2.8334 -1.9294  2.2848
  631MOL0     H83239   1.050   1.449  -0.174 -1.3156 -1.2736  1.9078
  631MOL0     H83240   0.933   1.322  -0.216  1.2327  0.5428  3.0805
  631MOL0     H83241   0.962   1.599  -0.349  1.8218 -0.8406 -1.1007
  631MOL0     H83242   0.847   1.477  -0.393 -1.2890 -0.4234  2.7367
  631MOL0     H83243   0.856   1.630  -0.127  0.5393 -2.3507  1.5422
  631MOL0     H83244   0.751   1.496  -0.157 -0.5204  1.3061  1.6453
  631MOL0     H83245   0.822   1.847  -0.317  1.0914 -0.8310 -0.7465
  631MOL0     H83246   0.469   1.979  -0.472  0.6629  3.1111 -1.2608
  631MOL0     H83247   0.632   1.993  -0.514  2.7935 -1.4269  1.8600
  631MOL0     H83248   0.680   2.076  -0.282 -0.1528 -0.7766  1.4959
  631MOL0     H83249   0.514   2.027  -0.241 -1.1372 -0.0679 -0.2264
  631MOL0     H83250   0.590   2.250  -0.444 -1.0761  1.5325 -0.1679
  631MOL0     H83251   0.431   2.200  -0.423 -0.1509  1.1373  0.0965
  631MOL0     H83252   0.452   2.381  -0.273  1.2489  1.6481  1.8257
  631MOL0     H83253   0.600   2.329  -0.193 -0.6159 -0.6850  2.1080
  631MOL0     H83254   0.242   2.330  -0.317 -0.2801  0.3370 -0.0236
  631MOL0     H83255  -0.018   2.302  -0.287  0.7693 -3.7332 -2.2867
  631MOL0     H83256  -0.263   2.099  -0.329 -0.3559  0.5126 -3.1326
  631MOL0     H83257  -0.490   1.996  -0.386  0.0499 -1.0133  0.0215
  631MOL0     H83258  -0.663   1.890  -0.289  3.2543  1.5176 -2.0575
  631MOL0     H83259  -0.761   1.946  -0.428 -2.2959  1.5452  0.1740
  631MOL0     H83260  -0.945   2.000  -0.262 -1.7740 -2.2628 -1.0344
  631MOL0     H83261  -0.844   1.912  -0.151  0.7276  0.3566 -0.6060
  631MOL0     H83262  -0.893   1.710  -0.299  1.2894  0.5645  0.9795
  631MOL0     H83263  -0.969   1.817  -0.422 -0.3482  2.2513  0.5726
  631MOL0     H83264  -1.081   1.782  -0.147 -2.0622  2.7862  0.3932
  631MOL0     H83265  -1.159   1.858  -0.287 -0.2945  0.3579  0.7957
  631MOL0     H83266  -1.081   1.570  -0.316  1.9514  1.7196  4.0551
  631MOL0     H83267  -1.198   1.662  -0.406  1.4601 -3.0988  0.0473
  631MOL0     H83268  -1.336   1.668  -0.200  2.2221  1.9373 -1.4938
  631MOL0     H83269  -1.202   1.597  -0.103  0.2225  0.2695  0.2427
  631MOL0     H83270  -1.346   1.465  -0.335 -1.1597 -0.8168  0.0006
  631MOL0     H83271  -1.211   1.393  -0.239 -1.1037 -1.2243  3.0864
  631MOL0     H83272  -1.442   1.319  -0.168 -0.7768 -1.0044  0.2425
  631MOL0     H83273  -1.477   1.484  -0.120  1.0292  0.1261  1.2666
  631MOL0     H83274  -0.665   2.270  -0.111 -2.0167 -2.4828 -1.5145
  631MOL0     H83275  -0.453   2.371  -0.061 -0.0740  0.3101 -0.0406
  631MOL0     H83276   0.042   2.139   0.092 -0.3346  0.8476  0.6767
  631MOL0     H83277   0.291   2.165   0.074 -1.1741 -1.2045  0.2139
  631MOL0     H83278   1.731   1.314  -0.260  2.3053  0.0058 -1.9606
  631MOL0     H83279   1.957   1.256  -0.214 -2.3572  2.1743  0.0836
  631MOL0     H83280   2.229   1.044  -0.234  1.8433 -1.4610 -1.4255
  631MOL0     H83281   2.477   0.990  -0.270  1.8862  0.4488 -0.1099
  631MOL0     H83282   2.815   1.068  -0.014 -0.3568 -1.0837 -0.3914
  631MOL0     H83283   2.763   1.234  -0.036  0.2697 -0.4609  1.0212
  631MOL0     H83284   2.910   1.108  -0.263 -1.8369  1.0059  0.1713
  631MOL0     H83285   2.884   1.283  -0.231  4.9921  0.0513 -2.2373
  631MOL0     H83286   3.067   1.110  -0.088  1.3229  0.2737 -0.9134
  631MOL0     H83287   3.015   1.269  -0.027 -1.4054 -3.7195  1.6644
  631MOL0     H83288   3.136   1.194  -0.295 -0.5039 -0.3242  0.4761
  631MOL0     H83289   3.091   1.351  -0.271 -2.3003 -0.6554  0.0326
  631MOL0     H83290   3.489   1.312  -0.103  1.0923 -0.8152 -0.6535
  631MOL0     H83291   2.571   1.214   0.082 -0.8514  0.6808  1.5278
  631MOL0     H83292   2.318   1.210   0.148  1.7076 -0.6436  1.2335
  632MOL0     O83293   9.479   7.765   2.355 -0.3553 -0.5851  0.3745
  632MOL0     C83294   9.524   7.673   2.287 -0.3831  0.3795  0.3996
  632MOL0     O83295   9.450   7.580   2.222 -0.6880  0.0032  0.0085
  632MOL0     C83296   9.319   7.583   2.238  1.3634 -0.7662  0.6159
  632MOL0     C83297   9.232   7.627   2.137 -0.2164 -0.0577  0.6809
  632MOL0     C83298   9.098   7.635   2.163 -0.3461 -0.1053  0.1832
  632MOL0     C83299   9.048   7.562   2.275  0.0864  0.0279 -0.5222
  632MOL0     O83300   8.911   7.568   2.282  0.5378  0.2201  0.0751
  632MOL0     C83301   8.839   7.505   2.394  0.1495  0.2873 -0.5646
  632MOL0     C83302   8.687   7.503   2.370 -0.1387  0.8111 -0.6433
  632MOL0     C83303   8.617   7.648   2.380 -0.9683 -0.6659  1.0690
  632MOL0     C83304   8.465   7.629   2.341  0.1681  0.0262 -0.1914
  632MOL0     C83305   8.379   7.758   2.345  0.0819  0.4481 -0.8393
  632MOL0     C83306   8.364   7.806   2.493  0.1279  0.1790  0.0778
  632MOL0     C83307   8.239   7.900   2.477 -0.0083 -0.3871  0.0368
  632MOL0     C83308   8.183   7.971   2.598  0.6395 -0.0626 -0.2974
  632MOL0     N83309   8.088   8.078   2.568 -0.1607  0.5287 -0.2715
  632MOL0     C83310   7.973   8.107   2.635 -0.8699  0.6185 -0.2034
  632MOL0     C83311   7.939   8.229   2.588 -0.1165  0.1067 -0.6730
  632MOL0     C83312   7.808   8.288   2.635 -0.0480  0.3152 -0.3892
  632MOL0     C83313   7.828   8.440   2.672  1.0383  0.0046 -0.1340
  632MOL0     C83314   7.696   8.515   2.689 -0.4489 -0.6327 -0.2045
  632MOL0     C83315   7.722   8.670   2.698 -0.3365  0.8582  0.1694
  632MOL0     O83316   7.769   8.708   2.570 -0.3406  0.8154  0.9555
  632MOL0     C83317   7.700   8.800   2.499 -0.2282 -0.0879 -0.2621
  632MOL0     C83318   7.773   8.886   2.417 -0.6658  0.7040  0.6667
  632MOL0     C83319   7.711   8.979   2.321 -0.1344  0.0051 -0.1102
  632MOL0     C83320   7.575   9.001   2.327 -0.2339  0.2647 -0.2184
  632MOL0     C83321   7.499   9.098   2.239  0.2541  0.2194  0.6279
  632MOL0     O83322   7.579   9.190   2.171 -0.1534  0.2249 -0.2553
  632MOL0     C83323   7.509   9.271   2.086  0.4221 -0.9094  0.8685
  632MOL0     C83324   7.507   9.241   1.951  0.9236  0.5713  0.2717
  632MOL0     C83325   7.450   9.324   1.859 -0.1076 -0.3526  0.2743
  632MOL0     C83326   7.394   9.448   1.891 -0.5797  0.5371 -0.7049
  632MOL0     O83327   7.337   9.525   1.795 -0.5229 -0.2340  0.2990
  632MOL0     C83328   7.195   9.548   1.807 -0.7604 -0.1224  0.0266
  632MOL0     C83329   7.131   9.603   1.679  0.0390  0.1514 -0.1747
  632MOL0     C83330   6.977   9.612   1.701  0.1960 -0.1835 -0.0335
  632MOL0     C83331   6.918   9.684   1.584  0.0833  0.7250  0.1575
  632MOL0     C83332   6.757   9.700   1.588 -0.6824 -0.2935  0.5913
  632MOL0     C83333   6.702   9.761   1.452  0.4191  0.0749 -0.1152
  632MOL0     C83334   6.563   9.821   1.473  0.6148 -0.5243 -0.7658
  632MOL0     C83335   6.503   9.877   1.341  0.1862  1.0894  0.1717
  632MOL0    Cl83336   6.607  10.012   1.284 -0.2934  0.2268  0.1941
  632MOL0     C83337   7.399   9.484   2.026 -0.6961  0.3276  0.4715
  632MOL0     C83338   7.448   9.391   2.125  0.2180 -0.3432 -0.3206
  632MOL0     O83339   7.373   9.105   2.236  0.3178 -0.4827 -0.1605
  632MOL0     C83340   7.501   8.922   2.425 -0.4437  0.5541  0.3678
  632MOL0     C83341   7.558   8.821   2.499 -0.8466  0.1458  0.5347
  632MOL0     N83342   8.011   8.263   2.481  0.0589  0.1834  0.3228
  632MOL0     N83343   8.100   8.163   2.464 -0.7462 -0.0031 -0.2354
  632MOL0     C83344   9.130   7.495   2.369 -0.5197  0.1901  0.7342
  632MOL0     C83345   9.263   7.521   2.354  0.0351  0.4798 -0.8280
  632MOL0     C83346   9.671   7.672   2.267 -0.0224 -0.8077 -0.2732
  632MOL0     C83347   9.740   7.558   2.245 -0.2427  0.1773  0.3678
  632MOL0     C83348   9.883   7.553   2.222  0.5259 -0.5547 -0.2071
  632MOL0     C83349   9.956   7.675   2.235 -1.0168  0.4275  0.0705
  632MOL0     O83350  10.092   7.685   2.234 -0.0446 -1.0453 -0.0805
  632MOL0     C83351  10.174   7.582   2.182  0.7836 -0.5574 -0.7897
  632MOL0     C83352  10.318   7.637   2.188  0.0760  0.1443 -0.1354
  632MOL0     C83353  10.414   7.531   2.129 -0.9952  0.3548  0.2784
  632MOL0     C83354  10.541   7.604   2.080 -0.1356 -0.0807  0.0006
  632MOL0     C83355  10.632   7.527   2.000 -0.0535  0.7407  0.7551
  632MOL0     C83356  10.714   7.461   1.935 -0.1945  0.4906  0.3989
  632MOL0     C83357   9.894   7.794   2.262  0.2148  0.2801 -0.2496
  632MOL0     C83358   9.749   7.794   2.275  0.3007  0.7912  0.1557
  632MOL0     H83359   9.260   7.673   2.043 -1.4955 -2.7759 -1.1547
  632MOL0     H83360   9.033   7.686   2.092  1.2977 -0.1116 -1.3931
  632MOL0     H83361   8.865   7.565   2.482  0.4207  0.5714 -0.8417
  632MOL0     H83362   8.865   7.399   2.400 -2.1042 -0.3959 -1.8072
  632MOL0     H83363   8.638   7.438   2.443 -1.5477  1.8980 -0.5665
  632MOL0     H83364   8.654   7.449   2.280  0.3079 -0.6138  0.0211
  632MOL0     H83365   8.658   7.723   2.312  0.8726 -0.8899  1.8741
  632MOL0     H83366   8.630   7.692   2.480 -1.2406  1.9532  0.0292
  632MOL0     H83367   8.448   7.582   2.244  2.0578  0.1669 -0.6160
  632MOL0     H83368   8.423   7.555   2.410 -0.1818  1.4836  1.2322
  632MOL0     H83369   8.281   7.733   2.303 -0.2091  2.8733 -1.7266
  632MOL0     H83370   8.430   7.837   2.290  1.1957  1.1621  1.1095
  632MOL0     H83371   8.453   7.856   2.533 -0.3794  1.6191 -0.4965
  632MOL0     H83372   8.332   7.726   2.560  0.8154  0.0294  0.2353
  632MOL0     H83373   8.259   7.979   2.404 -2.4491  1.1857  0.9891
  632MOL0     H83374   8.157   7.839   2.438  0.0673  1.6431 -3.7645
  632MOL0     H83375   8.263   8.016   2.657 -0.4894  1.5367  0.0919
  632MOL0     H83376   8.140   7.893   2.661  2.1737  0.0570  0.9396
  632MOL0     H83377   7.935   8.056   2.724 -0.5648  0.5694 -0.1004
  632MOL0     H83378   7.781   8.235   2.727 -0.2879 -0.4387 -0.8918
  632MOL0     H83379   7.726   8.276   2.564  0.1570  0.2913 -0.6201
  632MOL0     H83380   7.893   8.486   2.597 -0.2925  0.2187 -1.1994
  632MOL0     H83381   7.877   8.454   2.769 -2.0231  1.3043  1.3688
  632MOL0     H83382   7.638   8.500   2.597  3.2539  1.8540 -3.2627
  632MOL0     H83383   7.651   8.475   2.781 -0.2706 -2.1266 -0.7241
  632MOL0     H83384   7.804   8.702   2.763  0.5131  0.5415 -0.7239
  632MOL0     H83385   7.631   8.727   2.718 -0.6672  1.4301 -2.5423
  632MOL0     H83386   7.881   8.873   2.412 -0.6728  0.9994 -0.6554
  632MOL0     H83387   7.790   9.021   2.259  1.3154  0.0199  1.6566
  632MOL0     H83388   7.538   9.141   1.923 -0.6513  0.7491 -2.4322
  632MOL0     H83389   7.438   9.298   1.754 -0.2840  1.3521 -0.1595
  632MOL0     H83390   7.178   9.604   1.900  3.2571  0.3664  0.6714
  632MOL0     H83391   7.149   9.449   1.818 -0.1834 -0.5156 -0.9409
  632MOL0     H83392   7.141   9.535   1.594 -1.1947 -0.8935  0.4810
  632MOL0     H83393   7.168   9.703   1.654  1.4874 -0.4333 -0.4649
  632MOL0     H83394   6.962   9.669   1.793  3.5610 -0.8204  1.0668
  632MOL0     H83395   6.930   9.514   1.714 -0.4814 -0.8114 -5.0293
  632MOL0     H83396   6.963   9.783   1.583  0.6961  0.5286  2.4213
  632MOL0     H83397   6.937   9.634   1.489 -4.7287  0.8846 -1.1861
  632MOL0     H83398   6.731   9.767   1.671 -0.0437  0.6039  0.0910
  632MOL0     H83399   6.698   9.610   1.605  0.1419 -0.8150  0.7163
  632MOL0     H83400   6.703   9.677   1.381 -1.1558  0.4739 -0.6627
  632MOL0     H83401   6.772   9.834   1.410  0.8731 -0.8826 -1.0871
  632MOL0     H83402   6.498   9.753   1.530  1.8366  1.0468  2.7486
  632MOL0     H83403   6.576   9.901   1.546 -1.6558 -1.6255  0.9871
  632MOL0     H83404   6.407   9.916   1.376 -0.0650  2.0053 -1.4845
  632MOL0     H83405   6.474   9.799   1.270 -0.6116  0.4471  1.1634
  632MOL0     H83406   7.367   9.584   2.054  1.2683  0.5403  2.2031
  632MOL0     H83407   7.451   9.428   2.227  0.4342 -1.2378  0.0083
  632MOL0     H83408   7.394   8.939   2.437 -0.5679  0.7692 -0.8954
  632MOL0     H83409   7.492   8.762   2.563 -0.0860  0.3793  1.5663
  632MOL0     H83410   9.089   7.449   2.459  1.3458 -1.7349  0.6823
  632MOL0     H83411   9.324   7.478   2.433  1.3749  2.4353 -0.7311
  632MOL0     H83412   9.685   7.466   2.227  0.2588  0.3239 -2.1815
  632MOL0     H83413   9.931   7.458   2.202  1.5492 -0.5001  1.7477
  632MOL0     H83414  10.149   7.553   2.079  1.9918  2.2236 -1.9797
  632MOL0     H83415  10.163   7.502   2.256  0.0400  1.2195  1.0983
  632MOL0     H83416  10.327   7.731   2.132 -6.4129  0.9337 -0.5558
  632MOL0     H83417  10.342   7.665   2.291 -0.7079  0.5620 -0.0580
  632MOL0     H83418  10.371   7.476   2.045 -0.7710  1.0132 -0.2816
  632MOL0     H83419  10.456   7.461   2.201 -0.1289 -0.4301 -0.9623
  632MOL0     H83420  10.501   7.684   2.017 -1.7210  0.3079  1.4060
  632MOL0     H83421  10.586   7.650   2.168 -1.0836 -1.0883  1.0437
  632MOL0     H83422  10.793   7.418   1.877  1.7097  0.0244  3.1731
  632MOL0     H83423   9.947   7.888   2.258  1.1127 -0.2178 -0.2033
  632MOL0     H83424   9.696   7.884   2.306  0.7403  1.0872  0.0584
  633MOL0     O83425   3.333   5.963   7.802 -0.2476  0.0291  0.0482
  633MOL0     C83426   3.398   6.036   7.725  0.4961  0.8372 -0.6077
  633MOL0     O83427   3.344   6.117   7.630  0.4954  0.6224  0.4337
  633MOL0     C83428   3.214   6.097   7.583 -0.3102  1.0355  0.2954
  633MOL0     C83429   3.177   6.178   7.475  0.2581 -0.5914  0.0798
  633MOL0     C83430   3.042   6.171   7.420 -0.6229  0.1124  0.6910
  633MOL0     C83431   2.944   6.086   7.472  0.0498 -0.4035  0.0650
  633MOL0     O83432   2.817   6.085   7.430  0.1444  0.6123 -0.2069
  633MOL0     C83433   2.751   6.192   7.481 -0.0614  0.0378 -0.5025
  633MOL0     C83434   2.705   6.270   7.359 -0.1836 -0.6144 -0.4164
  633MOL0     C83435   2.560   6.243   7.304  0.2687 -0.7956 -0.3411
  633MOL0     C83436   2.460   6.302   7.404  1.7795 -0.1890  0.2338
  633MOL0     C83437   2.322   6.318   7.332  0.1798 -0.1510  0.1685
  633MOL0     C83438   2.206   6.373   7.414 -0.3918 -0.6878 -0.7669
  633MOL0     C83439   2.090   6.405   7.322  0.1963  0.6689  0.0699
  633MOL0     C83440   1.994   6.493   7.405  0.4321 -0.6348  0.4967
  633MOL0     N83441   1.861   6.527   7.343  0.1846 -0.8234 -0.3721
  633MOL0     C83442   1.777   6.627   7.387  0.3087 -0.0377  0.4325
  633MOL0     C83443   1.676   6.618   7.300 -0.5584 -0.5075  0.4796
  633MOL0     C83444   1.581   6.731   7.281 -0.2937  0.3410 -0.9512
  633MOL0     C83445   1.439   6.689   7.325 -0.7457  0.2119  0.0365
  633MOL0     C83446   1.332   6.770   7.251 -0.4594 -0.4454  0.1845
  633MOL0     C83447   1.190   6.731   7.293 -0.5303 -0.1224 -0.3447
  633MOL0     O83448   1.150   6.791   7.414  0.0786  0.1165 -0.9794
  633MOL0     C83449   1.017   6.812   7.448 -1.0143 -0.0678  0.3267
  633MOL0     C83450   0.983   6.916   7.536  0.0390  0.6117  0.3833
  633MOL0     C83451   0.840   6.944   7.556 -0.6477 -1.4137 -0.6951
  633MOL0     C83452   0.742   6.870   7.506 -1.0450  0.1418  0.3379
  633MOL0     C83453   0.610   6.907   7.539  0.0021 -0.2164 -0.4588
  633MOL0     O83454   0.590   7.037   7.582  0.6607  0.7595  0.1216
  633MOL0     C83455   0.477   7.089   7.626  0.4230 -0.9842 -0.4126
  633MOL0     C83456   0.444   7.091   7.768  0.0252 -0.3549 -0.1327
  633MOL0     C83457   0.316   7.142   7.802  0.2915 -0.4866  0.0127
  633MOL0     C83458   0.231   7.201   7.704 -0.3107  0.2216 -0.4189
  633MOL0     O83459   0.121   7.259   7.753  0.0306  0.9249 -0.5912
  633MOL0     C83460  -0.004   7.254   7.667 -0.8135  0.3297 -0.4780
  633MOL0     C83461  -0.117   7.179   7.729 -0.0899 -0.2205 -0.5125
  633MOL0     C83462  -0.251   7.207   7.677 -0.0878  0.4734  0.0203
  633MOL0     C83463  -0.358   7.162   7.768  0.0149 -0.3731 -0.1074
  633MOL0     C83464  -0.498   7.200   7.708  0.0202 -0.4013 -0.0554
  633MOL0     C83465  -0.607   7.158   7.815  0.2628  0.9115 -0.1665
  633MOL0     C83466  -0.754   7.201   7.795 -0.9590 -0.8790  0.1404
  633MOL0     C83467  -0.844   7.114   7.877 -0.3530 -0.7488  0.4439
  633MOL0    Cl83468  -0.877   7.193   8.034 -0.7375 -0.1179 -0.0156
  633MOL0     C83469   0.259   7.190   7.574 -1.2796 -1.1420  0.2218
  633MOL0     C83470   0.388   7.140   7.536  0.4343 -0.6621  0.4481
  633MOL0     O83471   0.524   6.826   7.507  0.2184 -0.2241  0.1897
  633MOL0     C83472   0.783   6.761   7.429  0.7764  0.2178  0.0276
  633MOL0     C83473   0.918   6.734   7.398 -0.5678  0.3341 -0.3601
  633MOL0     N83474   1.697   6.519   7.206  0.7862 -0.1754  0.3561
  633MOL0     N83475   1.807   6.460   7.244 -0.4575  0.2720  0.5010
  633MOL0     C83476   2.983   6.010   7.575 -0.2904 -0.0289  0.0419
  633MOL0     C83477   3.115   6.006   7.629  0.0966  0.1885 -0.1679
  633MOL0     C83478   3.536   6.062   7.769 -0.1728  0.0956 -0.4222
  633MOL0     C83479   3.613   6.165   7.707 -0.0614 -0.6811 -0.1956
  633MOL0     C83480   3.748   6.181   7.733  0.0969 -0.7240  0.7708
  633MOL0     C83481   3.811   6.101   7.827  0.2671 -0.0101  0.5758
  633MOL0     O83482   3.944   6.122   7.850 -0.0095  0.3327 -0.2367
  633MOL0     C83483   4.040   6.014   7.857 -0.1874  0.1111  0.6998
  633MOL0     C83484   4.183   6.077   7.841  0.5846  0.5521 -0.4345
  633MOL0     C83485   4.273   5.949   7.844 -0.6860  0.1153 -0.2620
  633MOL0     C83486   4.423   5.977   7.825  0.7512  0.6511 -0.3426
  633MOL0     C83487   4.472   6.097   7.896  0.5902 -0.1611 -0.4442
  633MOL0     C83488   4.507   6.190   7.966  0.0191  0.4027 -0.6039
  633MOL0     C83489   3.745   5.993   7.877  0.2795  0.2404  0.5997
  633MOL0     C83490   3.610   5.968   7.845  0.3173 -0.2707  0.5573
  633MOL0     H83491   3.249   6.254   7.446  1.2938 -1.4463  0.3497
  633MOL0     H83492   3.014   6.249   7.351 -0.0593  0.1669  0.5153
  633MOL0     H83493   2.819   6.250   7.545 -0.6042 -0.6660  0.7430
  633MOL0     H83494   2.668   6.159   7.545 -1.8423  0.2410 -2.5830
  633MOL0     H83495   2.776   6.244   7.279  3.8215 -0.4775  2.8067
  633MOL0     H83496   2.711   6.377   7.379 -1.8061 -0.3323 -1.2651
  633MOL0     H83497   2.547   6.137   7.276  0.5007 -0.6955 -0.8401
  633MOL0     H83498   2.545   6.306   7.216 -2.5076  1.3542  1.5183
  633MOL0     H83499   2.450   6.238   7.492  3.0090  1.3367  1.5604
  633MOL0     H83500   2.496   6.401   7.433  0.9579  0.5493 -1.1411
  633MOL0     H83501   2.278   6.226   7.291 -1.8065  0.8436 -0.0660
  633MOL0     H83502   2.324   6.387   7.247 -0.8833  1.1408  1.1510
  633MOL0     H83503   2.245   6.469   7.446 -3.8444  1.2785 -1.8828
  633MOL0     H83504   2.184   6.306   7.497 -0.5864  0.9507  0.5443
  633MOL0     H83505   2.118   6.452   7.228  0.5331 -1.8047 -1.1546
  633MOL0     H83506   2.031   6.317   7.296 -0.1999  1.0773 -0.4294
  633MOL0     H83507   2.042   6.590   7.424  1.1916 -1.1778  1.4670
  633MOL0     H83508   1.981   6.455   7.507 -2.2541  0.9379  0.8271
  633MOL0     H83509   1.792   6.704   7.462 -0.7337  1.5251 -0.8871
  633MOL0     H83510   1.588   6.765   7.177  2.3226  0.4333 -0.8145
  633MOL0     H83511   1.617   6.816   7.340 -0.0736 -0.7536  0.5402
  633MOL0     H83512   1.420   6.695   7.433 -3.4018  2.4868 -0.4506
  633MOL0     H83513   1.413   6.586   7.300 -0.0319  0.2455 -0.8650
  633MOL0     H83514   1.363   6.875   7.254 -0.5781 -0.4111  0.2174
  633MOL0     H83515   1.334   6.748   7.144 -1.2075  2.0824 -0.4134
  633MOL0     H83516   1.175   6.624   7.306 -0.5785 -0.1414 -0.5678
  633MOL0     H83517   1.118   6.762   7.217  0.6797  3.5051 -0.2127
  633MOL0     H83518   1.065   6.974   7.578 -0.0952  0.0098  1.4985
  633MOL0     H83519   0.828   7.033   7.617  1.2427 -1.1454 -0.6436
  633MOL0     H83520   0.508   7.049   7.845 -1.9855 -0.9135  1.2900
  633MOL0     H83521   0.302   7.139   7.910  0.2327 -2.5489 -0.0061
  633MOL0     H83522   0.024   7.216   7.568  3.5575  0.9810  0.3380
  633MOL0     H83523  -0.037   7.357   7.647 -2.6021 -0.6275 -2.9791
  633MOL0     H83524  -0.114   7.203   7.835  1.1306  1.4930 -0.8977
  633MOL0     H83525  -0.100   7.072   7.715  0.2384  0.1297 -3.4411
  633MOL0     H83526  -0.260   7.148   7.586 -1.7087 -2.3461  1.8381
  633MOL0     H83527  -0.252   7.314   7.655 -2.7675 -0.3407 -5.3454
  633MOL0     H83528  -0.342   7.054   7.779  0.9968 -0.1559  0.8575
  633MOL0     H83529  -0.342   7.198   7.870  1.2220 -3.7708  1.0374
  633MOL0     H83530  -0.505   7.139   7.617 -0.7277 -0.6716  0.1783
  633MOL0     H83531  -0.500   7.308   7.691  0.6711 -0.0445  1.8668
  633MOL0     H83532  -0.572   7.183   7.915  0.2022 -1.0971  0.3989
  633MOL0     H83533  -0.610   7.049   7.821 -0.9687  0.8230 -1.6981
  633MOL0     H83534  -0.755   7.308   7.820  0.2148 -0.8029 -0.0682
  633MOL0     H83535  -0.770   7.183   7.689 -0.1170 -1.6415  0.1368
  633MOL0     H83536  -0.798   7.018   7.902  0.8726 -0.4439 -0.5664
  633MOL0     H83537  -0.935   7.100   7.817  0.7233 -1.2407 -1.1415
  633MOL0     H83538   0.203   7.238   7.494  0.9928 -0.9063 -1.3197
  633MOL0     H83539   0.432   7.151   7.437  0.2681 -0.6504  0.3754
  633MOL0     H83540   0.706   6.687   7.409 -0.1861  1.7353 -2.2703
  633MOL0     H83541   0.940   6.646   7.339  1.8071  0.5900  0.0747
  633MOL0     H83542   2.900   5.952   7.614 -0.6594 -0.9379 -1.9633
  633MOL0     H83543   3.133   5.934   7.708  0.4351  0.9670  0.4819
  633MOL0     H83544   3.559   6.228   7.636  1.1719 -0.0957 -0.6375
  633MOL0     H83545   3.801   6.264   7.688  0.4452 -0.5234  1.5334
  633MOL0     H83546   4.032   5.944   7.773 -2.0230  2.2772 -1.0528
  633MOL0     H83547   4.031   5.969   7.956 -1.0416 -0.9317  0.1634
  633MOL0     H83548   4.195   6.133   7.748  0.9763  0.6793 -0.3109
  633MOL0     H83549   4.195   6.149   7.923 -1.4571 -0.4211  0.8046
  633MOL0     H83550   4.240   5.882   7.765 -2.8587  1.3849 -0.5061
  633MOL0     H83551   4.260   5.898   7.940  0.7023 -3.2659 -1.7279
  633MOL0     H83552   4.478   5.887   7.855 -0.3685  0.1537  0.2858
  633MOL0     H83553   4.438   5.974   7.717  0.1817  0.5088 -0.4236
  633MOL0     H83554   4.540   6.273   8.024  0.4637  0.2152 -0.5817
  633MOL0     H83555   3.788   5.918   7.943 -1.5923  0.1402  1.7543
  633MOL0     H83556   3.575   5.870   7.875  1.4772 -0.9808 -0.3071
  634MOL0     O83557   5.910   1.150  10.864 -0.3086 -0.5363  0.2544
  634MOL0     C83558   5.911   1.035  10.901  0.2840  1.0741 -0.0935
  634MOL0     O83559   5.998   0.980  10.993  0.5327 -0.1749 -0.0676
  634MOL0     C83560   6.063   1.070  11.066 -0.2104 -0.2665 -0.1106
  634MOL0     C83561   6.018   1.120  11.186  0.2378  0.2226  0.6975
  634MOL0     C83562   6.101   1.215  11.247 -0.5920 -0.0414 -0.3594
  634MOL0     C83563   6.215   1.268  11.194 -0.3088 -0.7668  0.6335
  634MOL0     O83564   6.281   1.371  11.261  0.4093  0.2849 -0.0337
  634MOL0     C83565   6.421   1.348  11.275  0.0153  0.4510 -0.5498
  634MOL0     C83566   6.502   1.443  11.362 -0.3083 -0.8151  0.4716
  634MOL0     C83567   6.649   1.391  11.381  0.6195 -0.0045 -0.6097
  634MOL0     C83568   6.699   1.460  11.505 -0.5871  0.2742 -0.3167
  634MOL0     C83569   6.837   1.406  11.528  0.2939  0.0207 -0.7137
  634MOL0     C83570   6.911   1.478  11.639 -0.1485 -0.0936  0.1038
  634MOL0     C83571   7.062   1.447  11.633  0.2482  0.2201 -0.3924
  634MOL0     C83572   7.120   1.529  11.747 -0.5123 -0.8558  0.8167
  634MOL0     N83573   7.270   1.516  11.743 -0.0115  0.0191  0.3493
  634MOL0     C83574   7.353   1.523  11.630 -0.6607  0.2428 -0.4554
  634MOL0     C83575   7.475   1.487  11.674  0.3636 -0.0159 -0.4078
  634MOL0     C83576   7.600   1.491  11.594 -0.0445  0.0063 -0.5964
  634MOL0     C83577   7.677   1.355  11.589  0.2646  0.8081  0.1387
  634MOL0     C83578   7.581   1.248  11.558  0.6644 -0.0400 -0.0178
  634MOL0     C83579   7.664   1.132  11.495 -0.2364  0.1197 -0.5436
  634MOL0     O83580   7.576   1.024  11.466  0.2109  0.3260  0.6778
  634MOL0     C83581   7.514   1.015  11.344  0.2238  0.5780  0.2017
  634MOL0     C83582   7.424   0.912  11.314  0.2254  0.1268  0.5409
  634MOL0     C83583   7.352   0.906  11.192 -0.2984 -0.3577 -0.2115
  634MOL0     C83584   7.362   1.005  11.099 -0.7190 -0.3852 -0.8955
  634MOL0     C83585   7.272   1.008  10.983 -0.2846 -0.1273 -0.1613
  634MOL0     O83586   7.228   0.885  10.940  0.0418  0.4247 -0.8691
  634MOL0     C83587   7.133   0.875  10.847 -0.5090  0.0570 -0.0037
  634MOL0     C83588   7.079   0.964  10.754 -0.2350 -0.5201  0.1621
  634MOL0     C83589   6.960   0.936  10.678  0.5497  0.3872 -0.1514
  634MOL0     C83590   6.904   0.807  10.691  0.8082 -0.2925 -0.2342
  634MOL0     O83591   6.792   0.773  10.620  0.1092  0.0807 -0.0830
  634MOL0     C83592   6.809   0.659  10.531 -0.3858  0.6839 -0.2996
  634MOL0     C83593   6.679   0.608  10.484  0.7526  0.1726  0.3581
  634MOL0     C83594   6.584   0.561  10.603  0.0038  0.5739 -0.7023
  634MOL0     C83595   6.447   0.494  10.562 -0.1430  0.6287 -0.9338
  634MOL0     C83596   6.382   0.412  10.675 -0.0638 -0.1448 -0.6003
  634MOL0     C83597   6.228   0.382  10.649 -1.1775  0.3059 -0.0492
  634MOL0     C83598   6.173   0.333  10.779 -0.7158 -0.5622 -0.0653
  634MOL0     C83599   6.023   0.346  10.776  0.8639 -1.0361  0.0919
  634MOL0    Cl83600   5.961   0.516  10.768  0.3081 -0.4182 -0.3871
  634MOL0     C83601   6.951   0.719  10.788 -0.4351  0.8066  0.8299
  634MOL0     C83602   7.063   0.750  10.861 -0.1541  0.6215  0.1681
  634MOL0     O83603   7.250   1.114  10.933  0.7965 -0.1146 -0.0149
  634MOL0     C83604   7.455   1.110  11.128 -0.4513  0.4414  1.1074
  634MOL0     C83605   7.517   1.115  11.251  0.0386  0.6698  0.3949
  634MOL0     N83606   7.471   1.450  11.806  0.2257  0.6043 -0.2813
  634MOL0     N83607   7.345   1.466  11.854 -1.0860 -0.0534  0.3540
  634MOL0     C83608   6.259   1.215  11.073 -0.1669  0.3795 -0.8402
  634MOL0     C83609   6.189   1.110  11.012 -0.8346 -0.3576 -0.1503
  634MOL0     C83610   5.808   0.950  10.847  0.0448  1.1358 -0.6088
  634MOL0     C83611   5.784   0.820  10.895 -1.0273  0.1076 -0.0718
  634MOL0     C83612   5.679   0.743  10.842 -0.4662 -0.0215 -0.0694
  634MOL0     C83613   5.600   0.794  10.739  1.1454 -0.3675  0.0781
  634MOL0     O83614   5.507   0.714  10.684 -0.6943  0.8642 -0.1425
  634MOL0     C83615   5.379   0.773  10.667  0.7241  0.5817  0.0164
  634MOL0     C83616   5.264   0.677  10.712  0.4401 -0.2261  0.2822
  634MOL0     C83617   5.307   0.609  10.842  0.3342  0.6296 -0.7354
  634MOL0     C83618   5.202   0.500  10.877  0.8447 -0.4307 -1.6856
  634MOL0     C83619   5.074   0.553  10.932 -0.6203  0.1627  0.7071
  634MOL0     C83620   4.974   0.622  10.950 -0.5069 -0.9590  0.1305
  634MOL0     C83621   5.634   0.918  10.680  0.6719 -0.1898  0.1848
  634MOL0     C83622   5.731   0.999  10.735 -1.0677  0.4296  0.2823
  634MOL0     H83623   5.921   1.107  11.233  0.1510  0.3509  0.5536
  634MOL0     H83624   6.068   1.247  11.346  2.2555 -0.9433  1.0160
  634MOL0     H83625   6.478   1.351  11.181  0.2156  1.0503 -0.4115
  634MOL0     H83626   6.432   1.252  11.326 -0.5942  0.9075  0.4636
  634MOL0     H83627   6.456   1.466  11.458 -1.1907  1.3984 -0.3943
  634MOL0     H83628   6.515   1.537  11.307  4.3994 -2.5550 -1.9506
  634MOL0     H83629   6.708   1.408  11.290  0.3433  0.1882 -0.7521
  634MOL0     H83630   6.640   1.282  11.386 -2.8824  0.0952 -2.2676
  634MOL0     H83631   6.709   1.567  11.488  1.3844 -0.2136 -2.8818
  634MOL0     H83632   6.638   1.447  11.594 -0.9637  0.6191 -0.5203
  634MOL0     H83633   6.886   1.412  11.430 -1.6792 -1.1032 -1.8143
  634MOL0     H83634   6.833   1.305  11.569 -0.4492  0.7360  1.0929
  634MOL0     H83635   6.875   1.456  11.740  0.6440 -2.7422 -0.1258
  634MOL0     H83636   6.891   1.585  11.624  0.3845  0.2632  1.7262
  634MOL0     H83637   7.094   1.344  11.647 -1.9650 -0.5398 -0.4927
  634MOL0     H83638   7.108   1.478  11.539  4.4032 -2.2817  0.5936
  634MOL0     H83639   7.086   1.503  11.848 -2.3656  2.1382  1.0758
  634MOL0     H83640   7.091   1.631  11.723 -0.7661 -0.5982  2.1469
  634MOL0     H83641   7.307   1.552  11.536 -1.3598 -0.1434 -0.2388
  634MOL0     H83642   7.660   1.572  11.636 -3.4080  2.6622 -0.4878
  634MOL0     H83643   7.576   1.511  11.489  0.2973 -0.5041 -0.7781
  634MOL0     H83644   7.727   1.328  11.683  0.3476  2.7711  0.7163
  634MOL0     H83645   7.758   1.354  11.516  2.6869  0.1589  2.6505
  634MOL0     H83646   7.510   1.203  11.628 -1.3472 -0.9123 -2.4818
  634MOL0     H83647   7.508   1.281  11.484  1.5566 -0.8746 -1.3225
  634MOL0     H83648   7.734   1.100  11.573  1.3785 -1.4639 -2.5025
  634MOL0     H83649   7.725   1.160  11.408  1.6116  0.5199  0.8388
  634MOL0     H83650   7.399   0.841  11.393 -0.4516  3.1270  3.2344
  634MOL0     H83651   7.269   0.838  11.175 -0.8253  0.7765 -2.6704
  634MOL0     H83652   7.115   1.066  10.754 -0.9469 -0.2107  2.6384
  634MOL0     H83653   6.912   1.013  10.619 -1.0948 -0.3283  0.1942
  634MOL0     H83654   6.845   0.576  10.593 -0.6877  1.5083  1.0259
  634MOL0     H83655   6.880   0.681  10.451 -1.2572 -0.2202 -1.3442
  634MOL0     H83656   6.696   0.527  10.412 -1.5753  2.4819 -3.1388
  634MOL0     H83657   6.626   0.690  10.435 -1.7448 -0.1499  2.3064
  634MOL0     H83658   6.562   0.650  10.663 -3.3536 -0.7809  0.3305
  634MOL0     H83659   6.647   0.495  10.664  0.1096  0.4971 -0.8949
  634MOL0     H83660   6.378   0.578  10.546 -1.8607 -0.0591  2.1251
  634MOL0     H83661   6.463   0.424  10.479  4.4550 -0.6637  0.7471
  634MOL0     H83662   6.395   0.465  10.771 -0.4536  0.5668 -0.9356
  634MOL0     H83663   6.435   0.317  10.686  1.2782  0.8266  2.4609
  634MOL0     H83664   6.219   0.310  10.567  1.4354  3.0745 -3.0589
  634MOL0     H83665   6.166   0.465  10.612  0.9361  0.3842 -3.9638
  634MOL0     H83666   6.209   0.234  10.809 -2.2451 -1.0912  0.1234
  634MOL0     H83667   6.213   0.394  10.861  1.7527 -1.5796 -0.4287
  634MOL0     H83668   5.985   0.304  10.870  0.6957 -0.5454  0.2460
  634MOL0     H83669   5.970   0.296  10.695 -1.0855  0.3281  0.4478
  634MOL0     H83670   6.896   0.627  10.807  0.3596  0.0041 -0.6295
  634MOL0     H83671   7.082   0.676  10.938  1.1113  1.0398  0.2718
  634MOL0     H83672   7.454   1.196  11.062 -0.6081  0.6950  1.4334
  634MOL0     H83673   7.571   1.206  11.271 -0.5229  0.7523  1.5677
  634MOL0     H83674   6.346   1.255  11.022  0.4150 -1.4271 -1.3578
  634MOL0     H83675   6.226   1.079  10.915 -0.9946  0.4030 -0.4578
  634MOL0     H83676   5.844   0.779  10.976 -0.8925  0.8437  0.2008
  634MOL0     H83677   5.653   0.640  10.863 -2.2455 -0.0307 -1.9722
  634MOL0     H83678   5.348   0.800  10.565 -0.6656 -1.1072 -0.0652
  634MOL0     H83679   5.371   0.856  10.738  1.7314  3.1923 -2.7161
  634MOL0     H83680   5.167   0.728  10.723 -0.1875 -1.7115  2.4374
  634MOL0     H83681   5.255   0.598  10.637 -1.0781 -0.0823  0.2665
  634MOL0     H83682   5.318   0.681  10.923 -2.9198  0.6784 -0.2000
  634MOL0     H83683   5.403   0.556  10.841 -1.4678 -3.0395  0.0628
  634MOL0     H83684   5.186   0.434  10.791  0.7570 -1.5142 -0.8541
  634MOL0     H83685   5.237   0.433  10.955 -0.8809 -1.2587 -1.5674
  634MOL0     H83686   4.880   0.669  10.972 -0.2511 -0.6817  0.6435
  634MOL0     H83687   5.591   0.946  10.584  1.7665  2.2590  0.3285
  634MOL0     H83688   5.762   1.099  10.705  3.4996 -0.5160  1.0171
  635MOL0     O83689   2.251   3.701   3.918 -0.3088 -0.2488 -0.4021
  635MOL0     C83690   2.214   3.766   4.015 -0.0029 -0.7491  0.2859
  635MOL0     O83691   2.289   3.857   4.087  0.4118  0.5966 -0.5051
  635MOL0     C83692   2.394   3.897   4.016 -0.5562  0.7976  0.2860
  635MOL0     C83693   2.523   3.852   4.043 -0.1941  0.5675  0.1289
  635MOL0     C83694   2.631   3.902   3.977 -0.2765  0.1783 -0.0723
  635MOL0     C83695   2.620   4.002   3.872 -0.3056  0.6369  0.3267
  635MOL0     O83696   2.734   4.039   3.803  0.1855 -0.1357 -0.6173
  635MOL0     C83697   2.727   4.148   3.706 -0.0689  0.8974 -0.5331
  635MOL0     C83698   2.860   4.187   3.642 -0.5140  0.0089  0.4524
  635MOL0     C83699   2.907   4.068   3.568 -0.1105  0.4909  0.2909
  635MOL0     C83700   3.046   4.097   3.505  0.1597 -0.3023  0.4833
  635MOL0     C83701   3.135   3.972   3.476  0.5479 -0.3226 -0.2909
  635MOL0     C83702   3.078   3.869   3.369  0.2085 -0.0209  0.1227
  635MOL0     C83703   3.167   3.740   3.360  0.9184 -0.5296 -0.0645
  635MOL0     C83704   3.317   3.765   3.323 -0.0795  0.8124 -0.1504
  635MOL0     N83705   3.324   3.840   3.195 -0.6327 -0.5856 -0.5539
  635MOL0     C83706   3.271   3.813   3.074  0.3469  0.6467  0.5836
  635MOL0     C83707   3.258   3.932   3.012 -0.5497  0.1930  0.0758
  635MOL0     C83708   3.204   3.948   2.868  0.1077  0.2208  0.4075
  635MOL0     C83709   3.074   3.872   2.842 -0.4053 -0.3768  0.1577
  635MOL0     C83710   3.034   3.908   2.697 -0.2942  0.2286  0.0587
  635MOL0     C83711   2.930   3.807   2.643  0.1355  0.0275 -0.4463
  635MOL0     O83712   2.800   3.847   2.689  0.4399  0.4610  0.5114
  635MOL0     C83713   2.690   3.766   2.653  0.4325  0.4726 -0.6646
  635MOL0     C83714   2.688   3.636   2.609  0.7607  0.5453  0.4253
  635MOL0     C83715   2.568   3.569   2.589 -0.0676 -0.2467  0.2532
  635MOL0     C83716   2.445   3.622   2.627  0.3764  0.1355 -0.0336
  635MOL0     C83717   2.314   3.549   2.628  0.5868  0.2631  0.2036
  635MOL0     O83718   2.203   3.625   2.639  0.3430 -0.3321  0.1371
  635MOL0     C83719   2.078   3.561   2.636 -0.4600  0.0698  0.1518
  635MOL0     C83720   1.972   3.630   2.574 -0.4976 -0.1624 -0.3921
  635MOL0     C83721   1.839   3.574   2.551  0.2589 -0.1463 -0.1173
  635MOL0     C83722   1.812   3.455   2.611 -0.6204  0.1540 -0.1937
  635MOL0     O83723   1.682   3.412   2.612  0.5572  0.6375  0.3148
  635MOL0     C83724   1.645   3.334   2.729 -0.1576  0.3982 -0.2298
  635MOL0     C83725   1.496   3.361   2.733 -0.4143  0.5244 -0.8879
  635MOL0     C83726   1.427   3.310   2.863 -0.1811  0.0141 -0.4312
  635MOL0     C83727   1.277   3.303   2.832 -0.2793  0.4212 -0.6542
  635MOL0     C83728   1.194   3.261   2.960  0.1395 -0.2942  0.1354
  635MOL0     C83729   1.053   3.310   2.946  0.1009  0.5032  0.0585
  635MOL0     C83730   1.030   3.451   2.970 -0.6594 -0.6807 -0.5502
  635MOL0     C83731   0.936   3.527   2.866 -0.6430  0.5427 -0.2858
  635MOL0    Cl83732   0.828   3.415   2.770 -0.2643  0.3855  0.0264
  635MOL0     C83733   1.913   3.394   2.682 -0.4899 -0.5460  0.2616
  635MOL0     C83734   2.038   3.448   2.703 -0.5900  1.2058 -0.2787
  635MOL0     O83735   2.322   3.434   2.586  0.1790  0.1110 -0.3168
  635MOL0     C83736   2.445   3.748   2.683 -0.3042  0.4566  0.2561
  635MOL0     C83737   2.569   3.819   2.698  0.4918  0.0715 -0.2901
  635MOL0     N83738   3.313   4.030   3.096 -0.3164  0.5955  0.0522
  635MOL0     N83739   3.360   3.971   3.207  0.2135 -0.2287  0.6206
  635MOL0     C83740   2.489   4.046   3.846  0.1816 -0.5962 -0.8044
  635MOL0     C83741   2.376   3.995   3.919 -0.9460  0.4292  0.1766
  635MOL0     C83742   2.072   3.758   4.053 -0.1194 -0.7276 -0.2429
  635MOL0     C83743   2.025   3.786   4.185 -0.1082  0.1847 -0.6516
  635MOL0     C83744   1.885   3.801   4.200  0.1545 -0.3340  0.4150
  635MOL0     C83745   1.790   3.784   4.095 -0.0535 -0.2908 -0.7291
  635MOL0     O83746   1.653   3.805   4.108 -0.7913 -0.2536 -0.4179
  635MOL0     C83747   1.565   3.721   4.034  0.7030 -0.0084 -0.0113
  635MOL0     C83748   1.426   3.714   4.106  0.1597  0.5776 -0.6333
  635MOL0     C83749   1.342   3.614   4.042 -0.0249 -0.5101 -0.1057
  635MOL0     C83750   1.218   3.583   4.128  1.0995 -1.0257  0.1155
  635MOL0     C83751   1.101   3.677   4.100 -0.3620  0.4715  0.2888
  635MOL0     C83752   0.994   3.729   4.075  0.1524  0.0599 -0.2301
  635MOL0     C83753   1.839   3.749   3.972  0.1149  0.1197 -0.2373
  635MOL0     C83754   1.977   3.738   3.947  0.6890  0.0362  1.2451
  635MOL0     H83755   2.542   3.786   4.127  0.9254  1.3470  0.5143
  635MOL0     H83756   2.728   3.871   4.016 -0.4583 -0.1190  0.1495
  635MOL0     H83757   2.702   4.239   3.761  0.5785  1.8342 -1.7544
  635MOL0     H83758   2.651   4.139   3.628 -1.4769  0.4161  0.8378
  635MOL0     H83759   2.927   4.216   3.723  0.7475 -0.8572 -0.2578
  635MOL0     H83760   2.846   4.278   3.583 -5.4605 -1.2900 -0.8858
  635MOL0     H83761   2.825   4.038   3.501 -1.0942 -0.3138  1.7867
  635MOL0     H83762   2.921   3.982   3.635  0.1560  0.9633  0.8516
  635MOL0     H83763   3.031   4.138   3.404 -1.3974 -0.6309  0.5586
  635MOL0     H83764   3.100   4.173   3.562  2.0608 -0.7128 -0.6891
  635MOL0     H83765   3.147   3.925   3.573 -3.6190  0.6611  0.8841
  635MOL0     H83766   3.236   4.002   3.446  0.0632  0.8155 -0.8719
  635MOL0     H83767   3.074   3.932   3.280  0.9608  0.9928  0.7815
  635MOL0     H83768   2.973   3.844   3.386  0.5799 -1.8713 -0.0721
  635MOL0     H83769   3.144   3.684   3.451 -1.2291 -0.6582 -0.6357
  635MOL0     H83770   3.141   3.676   3.275 -1.4699  0.5280 -0.2244
  635MOL0     H83771   3.364   3.670   3.295  0.1245  0.1381  2.1878
  635MOL0     H83772   3.374   3.801   3.409 -1.9398 -1.1331  2.0480
  635MOL0     H83773   3.238   3.717   3.035  3.3153  0.3225 -1.4792
  635MOL0     H83774   3.269   3.907   2.790  0.4903 -0.3559  1.0194
  635MOL0     H83775   3.185   4.053   2.842  0.3325  0.2405  0.3235
  635MOL0     H83776   2.999   3.915   2.908  1.1712  2.0270  0.4781
  635MOL0     H83777   3.082   3.763   2.851 -2.0809 -0.5207  0.1929
  635MOL0     H83778   2.986   4.006   2.703 -1.5675 -0.4244  1.1072
  635MOL0     H83779   3.121   3.927   2.633  0.7304  1.8486  1.8246
  635MOL0     H83780   2.965   3.708   2.674  2.0569  1.1540  1.1994
  635MOL0     H83781   2.931   3.809   2.534 -0.4204 -1.1266 -0.4835
  635MOL0     H83782   2.775   3.577   2.582  1.1341  1.7981 -1.2791
  635MOL0     H83783   2.560   3.474   2.538 -0.9902  1.0799 -2.2659
  635MOL0     H83784   1.991   3.723   2.522 -0.0571 -0.7840 -1.3822
  635MOL0     H83785   1.764   3.624   2.490  1.4888 -0.3359 -1.8385
  635MOL0     H83786   1.696   3.372   2.818 -1.3164 -2.2541  1.6734
  635MOL0     H83787   1.678   3.232   2.708  0.1505  0.4063  0.2126
  635MOL0     H83788   1.440   3.321   2.648 -1.2558 -0.0061 -0.1079
  635MOL0     H83789   1.473   3.467   2.743 -0.3942  0.3603  1.3489
  635MOL0     H83790   1.458   3.372   2.948  3.3814 -3.4987  1.1739
  635MOL0     H83791   1.469   3.215   2.898  1.2769  1.1029  0.8964
  635MOL0     H83792   1.239   3.399   2.797 -0.7545  0.7755  0.7773
  635MOL0     H83793   1.258   3.229   2.753  1.9457  1.0063 -1.8342
  635MOL0     H83794   1.235   3.318   3.044 -0.0674  2.4447 -1.4985
  635MOL0     H83795   1.214   3.155   2.974  1.4959 -0.5118 -2.7663
  635MOL0     H83796   1.006   3.239   3.015  3.2188 -1.1918  0.5910
  635MOL0     H83797   1.018   3.280   2.846 -1.2053 -2.0717  1.2019
  635MOL0     H83798   0.985   3.472   3.068 -0.8822 -2.1554 -0.3231
  635MOL0     H83799   1.129   3.499   2.966 -0.3395 -1.3552 -4.0783
  635MOL0     H83800   1.002   3.584   2.800 -2.1605  2.6377 -0.0798
  635MOL0     H83801   0.875   3.592   2.930 -0.8832 -1.1189  1.2703
  635MOL0     H83802   1.905   3.294   2.725  4.5336 -1.2543  0.1508
  635MOL0     H83803   2.113   3.402   2.767  1.7672  2.2430 -2.1285
  635MOL0     H83804   2.356   3.795   2.724 -0.7529  0.3311 -0.5590
  635MOL0     H83805   2.579   3.915   2.746 -2.3724  1.1163 -1.5717
  635MOL0     H83806   2.465   4.109   3.760 -1.1621 -1.2379 -0.9286
  635MOL0     H83807   2.285   4.047   3.891 -1.3678  0.1160  0.9509
  635MOL0     H83808   2.089   3.790   4.272 -1.5694  0.2149  0.4568
  635MOL0     H83809   1.838   3.819   4.296 -1.7596 -0.7816 -0.3909
  635MOL0     H83810   1.604   3.619   4.038 -0.6659 -0.5250  0.9159
  635MOL0     H83811   1.561   3.748   3.928  1.8007 -3.1097 -0.9528
  635MOL0     H83812   1.447   3.689   4.210 -1.2740 -0.4144 -0.5622
  635MOL0     H83813   1.392   3.818   4.096 -1.9102  0.0676  0.5012
  635MOL0     H83814   1.400   3.522   4.040 -0.3771 -0.7229 -0.6173
  635MOL0     H83815   1.315   3.643   3.940  1.7446 -0.8719 -0.7170
  635MOL0     H83816   1.196   3.477   4.116 -0.7927 -0.5657 -0.8624
  635MOL0     H83817   1.246   3.607   4.231  0.4895 -0.5008  0.1665
  635MOL0     H83818   0.897   3.764   4.047 -1.1082 -4.0660 -1.6095
  635MOL0     H83819   1.764   3.725   3.897 -1.1198 -0.2761  1.0760
  635MOL0     H83820   2.014   3.703   3.851  1.7750  0.8334  1.3608
  636MOL0     O83821   9.859   7.285   3.038 -0.4396  0.1246  0.5840
  636MOL0     C83822   9.840   7.173   2.984  0.3935 -0.8887 -0.3517
  636MOL0     O83823   9.725   7.108   2.977 -0.1746  0.5894  0.3274
  636MOL0     C83824   9.611   7.159   3.031 -0.2245  0.3554  0.1198
  636MOL0     C83825   9.573   7.128   3.167  0.2972  0.4626 -0.0868
  636MOL0     C83826   9.444   7.179   3.210  0.8454 -0.2512  0.3847
  636MOL0     C83827   9.357   7.245   3.129 -0.3983 -0.8847 -0.3597
  636MOL0     O83828   9.240   7.304   3.188 -0.2199  0.0212 -0.6274
  636MOL0     C83829   9.133   7.305   3.097 -0.4589  0.0240 -0.5444
  636MOL0     C83830   9.010   7.325   3.178  0.0394 -0.1650 -0.5716
  636MOL0     C83831   8.878   7.314   3.090  0.3983  0.0344 -0.2068
  636MOL0     C83832   8.758   7.340   3.191  0.6574  0.1723  1.0527
  636MOL0     C83833   8.626   7.324   3.116  0.1709  0.6462  0.0184
  636MOL0     C83834   8.496   7.323   3.200  0.7406  0.0060  0.6090
  636MOL0     C83835   8.389   7.275   3.106 -0.1763 -0.6213 -0.3291
  636MOL0     C83836   8.269   7.208   3.173  0.5741  0.5211 -0.0044
  636MOL0     N83837   8.142   7.206   3.094  0.5505 -0.1809  0.5855
  636MOL0     C83838   8.053   7.100   3.120  0.1529 -0.3228  0.7286
  636MOL0     C83839   7.930   7.154   3.079  1.1890 -0.1721  1.2347
  636MOL0     C83840   7.795   7.082   3.101 -0.4544  0.7080 -0.2848
  636MOL0     C83841   7.710   7.149   3.204  0.2346 -0.8699 -0.0205
  636MOL0     C83842   7.579   7.077   3.228 -0.0034 -0.9775  1.2801
  636MOL0     C83843   7.497   7.084   3.098  0.9421 -0.7476 -0.2412
  636MOL0     O83844   7.360   7.046   3.124  0.7108 -0.0317 -0.4030
  636MOL0     C83845   7.264   7.136   3.168 -0.2119  0.4316 -0.3297
  636MOL0     C83846   7.288   7.272   3.203  0.5806 -0.5083 -0.0274
  636MOL0     C83847   7.182   7.358   3.247 -0.6238 -0.1490  0.7203
  636MOL0     C83848   7.061   7.304   3.269 -0.3717  1.2049  1.0419
  636MOL0     C83849   6.948   7.388   3.309 -0.7927  0.2660 -0.5581
  636MOL0     O83850   6.977   7.524   3.307  0.5269 -0.7320 -0.3425
  636MOL0     C83851   6.887   7.610   3.362 -0.0683  0.3010  0.0245
  636MOL0     C83852   6.940   7.735   3.409  0.7394 -0.1410 -0.0573
  636MOL0     C83853   6.864   7.827   3.475 -0.1047  0.6663  0.4125
  636MOL0     C83854   6.723   7.805   3.477 -0.1547  0.4282  0.3485
  636MOL0     O83855   6.637   7.896   3.529 -0.4132  0.2064 -0.3249
  636MOL0     C83856   6.651   8.032   3.492 -0.2121 -0.1496  0.3766
  636MOL0     C83857   6.521   8.100   3.445 -0.6240  0.1123 -0.6212
  636MOL0     C83858   6.478   8.050   3.305 -0.2122  0.3293 -0.3702
  636MOL0     C83859   6.331   8.100   3.265  0.2577 -0.7635  0.0441
  636MOL0     C83860   6.303   8.041   3.127 -0.0260  0.3077  0.5163
  636MOL0     C83861   6.150   8.042   3.091 -0.4344 -0.2737 -0.2952
  636MOL0     C83862   6.095   8.179   3.039  0.4910 -0.3762 -0.0349
  636MOL0     C83863   5.966   8.182   2.945 -0.1489  0.5352 -1.0732
  636MOL0    Cl83864   6.013   8.121   2.785  0.1767 -0.2889 -0.0329
  636MOL0     C83865   6.667   7.688   3.431 -0.4010 -0.0081  0.8878
  636MOL0     C83866   6.751   7.595   3.372  0.0896  0.9937  0.7642
  636MOL0     O83867   6.855   7.335   3.361  0.3165 -0.2473 -0.2849
  636MOL0     C83868   7.040   7.173   3.238 -0.0280 -0.1969  0.2786
  636MOL0     C83869   7.137   7.087   3.193 -0.7020  0.5575  1.4942
  636MOL0     N83870   7.959   7.280   3.030  0.0992 -0.7686  0.2062
  636MOL0     N83871   8.079   7.315   3.039 -0.4074 -0.3260  0.1372
  636MOL0     C83872   9.411   7.290   3.007  0.3113  0.0133  0.5868
  636MOL0     C83873   9.535   7.246   2.949  0.6718  0.3100  0.0867
  636MOL0     C83874   9.960   7.092   2.941  0.2887  0.0041  0.3274
  636MOL0     C83875  10.089   7.115   2.997 -0.1869  0.6360  0.2988
  636MOL0     C83876  10.206   7.034   2.952  0.2519  0.7883 -0.2139
  636MOL0     C83877  10.182   6.925   2.864  0.0828 -0.2994  0.4740
  636MOL0     O83878  10.284   6.838   2.824  0.3823 -0.5082 -1.2547
  636MOL0     C83879  10.374   6.898   2.727  0.5406  0.1715 -0.6856
  636MOL0     C83880  10.471   6.796   2.684  0.6633  0.1720  1.3677
  636MOL0     C83881  10.602   6.861   2.622  0.4614  0.8128 -0.0720
  636MOL0     C83882  10.676   6.968   2.702  0.7476 -0.0046 -0.0149
  636MOL0     C83883  10.803   6.999   2.645  0.1449 -0.2917 -0.2783
  636MOL0     C83884  10.915   7.013   2.594  0.5250 -0.2024 -0.3388
  636MOL0     C83885  10.057   6.907   2.810 -0.1254  0.0709 -0.1872
  636MOL0     C83886   9.953   6.988   2.845 -0.1095  0.7603 -0.6501
  636MOL0     H83887   9.628   7.065   3.235 -0.5361 -0.3424 -0.1481
  636MOL0     H83888   9.417   7.162   3.313  3.5713 -0.2712  1.1641
  636MOL0     H83889   9.125   7.218   3.031  0.6972  0.7322 -1.6494
  636MOL0     H83890   9.146   7.389   3.028  2.6036 -0.1900 -0.3574
  636MOL0     H83891   9.030   7.424   3.221  2.3303 -1.3143  1.2084
  636MOL0     H83892   9.001   7.259   3.264 -1.2678  0.9346  0.1704
  636MOL0     H83893   8.871   7.218   3.040  0.2768 -2.2738  3.7858
  636MOL0     H83894   8.890   7.386   3.009  2.8132  1.4083  1.2619
  636MOL0     H83895   8.767   7.279   3.282  0.1545 -1.7115 -0.0933
  636MOL0     H83896   8.769   7.443   3.227  3.4140 -0.2971  1.8097
  636MOL0     H83897   8.636   7.226   3.070 -1.3955  1.7642 -2.9385
  636MOL0     H83898   8.611   7.399   3.038  0.7040  1.7140  0.9122
  636MOL0     H83899   8.476   7.421   3.244 -1.3181 -0.3472  0.5520
  636MOL0     H83900   8.517   7.258   3.285  0.4086  0.0314  0.7119
  636MOL0     H83901   8.355   7.364   3.052 -2.7878 -0.7502  0.9648
  636MOL0     H83902   8.434   7.198   3.043 -0.9984 -0.2603 -1.4015
  636MOL0     H83903   8.260   7.250   3.273  3.1322  0.4285  0.3207
  636MOL0     H83904   8.285   7.101   3.187 -0.1815  0.4909  0.6702
  636MOL0     H83905   8.063   7.003   3.168  1.7715 -0.6327 -0.1585
  636MOL0     H83906   7.818   6.980   3.134 -1.3215  0.6820  0.2741
  636MOL0     H83907   7.745   7.067   3.005  0.2742 -4.0296 -0.1904
  636MOL0     H83908   7.684   7.247   3.163  1.8059 -1.5498 -2.8704
  636MOL0     H83909   7.752   7.161   3.304 -1.7921 -1.7827  1.0232
  636MOL0     H83910   7.598   6.975   3.262 -0.4786 -1.8394 -0.8868
  636MOL0     H83911   7.525   7.135   3.304 -1.8750 -0.1532 -0.5776
  636MOL0     H83912   7.528   7.014   3.020  2.2740 -0.6914  0.2082
  636MOL0     H83913   7.513   7.184   3.058 -2.4221  1.1584  2.5817
  636MOL0     H83914   7.384   7.322   3.202 -0.0075  0.6492 -0.9057
  636MOL0     H83915   7.218   7.459   3.264  0.5821 -0.2670 -0.8747
  636MOL0     H83916   7.048   7.749   3.401  1.1170 -1.4279  2.0187
  636MOL0     H83917   6.909   7.919   3.511  1.0773 -0.3351  1.6134
  636MOL0     H83918   6.710   8.056   3.403 -1.6428  0.7527 -0.3590
  636MOL0     H83919   6.691   8.073   3.585 -1.2652 -0.2559  0.8881
  636MOL0     H83920   6.539   8.208   3.438  2.1249  0.0102  2.5765
  636MOL0     H83921   6.440   8.092   3.518  1.1335  0.1878  1.4110
  636MOL0     H83922   6.479   7.942   3.320 -0.8251  0.4099  0.2525
  636MOL0     H83923   6.552   8.075   3.227  1.0976  0.8608  0.9868
  636MOL0     H83924   6.259   8.061   3.337 -1.0247 -0.5717 -1.0749
  636MOL0     H83925   6.328   8.209   3.253 -0.4758 -0.8748 -0.9351
  636MOL0     H83926   6.337   7.938   3.140  2.2863  0.6883 -1.7796
  636MOL0     H83927   6.366   8.094   3.056 -1.2522  2.1194  0.7201
  636MOL0     H83928   6.087   8.009   3.173  0.8449  2.1445  1.7843
  636MOL0     H83929   6.144   7.972   3.006  2.2082 -2.5862  1.2556
  636MOL0     H83930   6.077   8.238   3.130 -2.2525 -0.6638 -0.3120
  636MOL0     H83931   6.166   8.237   2.979  0.4146  0.7886  0.9450
  636MOL0     H83932   5.937   8.287   2.939  2.0514  1.1892 -0.9791
  636MOL0     H83933   5.881   8.129   2.989 -0.2060 -0.5146 -2.3807
  636MOL0     H83934   6.562   7.663   3.441 -0.5204  0.3949  0.6631
  636MOL0     H83935   6.708   7.499   3.348  0.4261  1.4358 -1.8436
  636MOL0     H83936   6.937   7.139   3.252 -0.9471  2.6132  1.1202
  636MOL0     H83937   7.115   6.981   3.183  1.7526  0.0087  1.2720
  636MOL0     H83938   9.345   7.350   2.947 -1.4101 -0.6435  1.7501
  636MOL0     H83939   9.565   7.283   2.851  0.3468  3.1280  0.9594
  636MOL0     H83940  10.099   7.197   3.068  1.3933  0.4154  0.3547
  636MOL0     H83941  10.301   7.054   3.001 -0.8443  1.4420  1.7299
  636MOL0     H83942  10.430   6.977   2.777  1.1072 -0.3724 -0.4381
  636MOL0     H83943  10.322   6.932   2.637  1.0102 -0.0753 -1.0621
  636MOL0     H83944  10.495   6.731   2.769 -2.2380 -2.8536  0.0641
  636MOL0     H83945  10.418   6.726   2.619  1.8260 -0.6551  1.2845
  636MOL0     H83946  10.591   6.897   2.519  1.5919 -0.9048 -0.8515
  636MOL0     H83947  10.670   6.780   2.594 -2.1169 -0.1441 -4.6076
  636MOL0     H83948  10.610   7.054   2.694 -0.7656 -0.8196  2.6801
  636MOL0     H83949  10.675   6.950   2.809 -1.8513  0.4421  0.0972
  636MOL0     H83950  11.017   7.009   2.561  0.8556  1.8901  0.2958
  636MOL0     H83951  10.050   6.826   2.738  3.7518 -2.3686  1.8328
  636MOL0     H83952   9.857   6.988   2.796 -1.2977  1.1503  1.5581
  637MOL0     O83953   8.103   6.182   3.760 -0.8482  0.4239  0.1314
  637MOL0     C83954   8.153   6.197   3.643  0.1174  0.4475  0.8410
  637MOL0     O83955   8.086   6.264   3.536 -0.0012  0.0762 -0.6576
  637MOL0     C83956   7.952   6.285   3.553 -0.4007  0.1350  0.3114
  637MOL0     C83957   7.862   6.187   3.516  0.2637  1.0449 -0.1621
  637MOL0     C83958   7.727   6.198   3.542 -0.7939  0.0175  0.1282
  637MOL0     C83959   7.673   6.316   3.589 -0.3206 -0.6136  0.0730
  637MOL0     O83960   7.539   6.323   3.609 -0.3150  0.3066 -0.3696
  637MOL0     C83961   7.464   6.426   3.539  0.3052  0.4917  0.0055
  637MOL0     C83962   7.388   6.525   3.623  0.3067  0.4080  0.7176
  637MOL0     C83963   7.287   6.463   3.718 -0.2613 -0.1380  0.1694
  637MOL0     C83964   7.194   6.358   3.643 -0.4740  0.2295  0.5027
  637MOL0     C83965   7.063   6.326   3.722  0.3170  0.4381  0.4570
  637MOL0     C83966   6.994   6.222   3.641 -0.1847 -0.8232 -0.6330
  637MOL0     C83967   6.855   6.194   3.696  0.3712 -0.4595 -0.0403
  637MOL0     C83968   6.782   6.318   3.739 -0.3222  0.0662 -0.0270
  637MOL0     N83969   6.644   6.292   3.749  0.0350  0.2247 -0.1096
  637MOL0     C83970   6.586   6.245   3.865 -0.1304  0.1042 -0.2202
  637MOL0     C83971   6.462   6.219   3.823 -1.1298 -0.0351 -0.4065
  637MOL0     C83972   6.352   6.171   3.914  0.6883  0.4027  0.1741
  637MOL0     C83973   6.233   6.104   3.843  0.1929 -0.7233  0.2654
  637MOL0     C83974   6.129   6.083   3.956 -0.3218 -0.4312 -0.1526
  637MOL0     C83975   5.990   6.023   3.912 -0.4418 -0.2257 -0.4026
  637MOL0     O83976   5.888   6.120   3.899 -0.6985  0.5663 -0.3523
  637MOL0     C83977   5.762   6.080   3.895 -0.2135  0.1835  0.0634
  637MOL0     C83978   5.676   6.170   3.952  0.3559 -0.5017 -0.4640
  637MOL0     C83979   5.535   6.141   3.962 -1.2825 -0.0128 -0.1903
  637MOL0     C83980   5.481   6.033   3.903  0.4770  0.8598  0.2458
  637MOL0     C83981   5.332   6.019   3.905  0.0663 -0.2811 -0.4821
  637MOL0     O83982   5.269   6.116   3.980  0.4709 -0.3745  0.4930
  637MOL0     C83983   5.131   6.128   3.958  0.0693  0.4364  0.2396
  637MOL0     C83984   5.089   6.238   3.890 -0.6479  0.0240 -0.6419
  637MOL0     C83985   4.953   6.256   3.875  0.3198 -0.0103  0.1577
  637MOL0     C83986   4.854   6.162   3.917 -1.3442  0.1506  0.5465
  637MOL0     O83987   4.721   6.172   3.884  0.5210  0.0276  0.1807
  637MOL0     C83988   4.652   6.286   3.923 -0.6286 -0.5704  0.8532
  637MOL0     C83989   4.502   6.263   3.898  0.2755 -0.0178  0.1332
  637MOL0     C83990   4.445   6.168   3.994 -0.4082 -0.1199  0.2390
  637MOL0     C83991   4.290   6.165   3.992 -0.0910  0.0253  0.0899
  637MOL0     C83992   4.231   6.084   4.116  0.0139 -0.5655 -0.6975
  637MOL0     C83993   4.091   6.034   4.079  0.0381  0.1613  0.1735
  637MOL0     C83994   3.988   6.142   4.087 -0.2532 -0.2448  1.1537
  637MOL0     C83995   3.862   6.074   4.044  1.0418 -1.0243  0.0355
  637MOL0    Cl83996   3.727   6.180   4.094  0.1293 -0.1714  0.3358
  637MOL0     C83997   4.902   6.053   3.984  0.3907  1.3574  0.2516
  637MOL0     C83998   5.041   6.032   4.004  0.7025 -0.7536 -0.6286
  637MOL0     O83999   5.278   5.945   3.822  0.4823 -0.1720  0.6725
  637MOL0     C84000   5.568   5.944   3.835 -0.1948  0.5039 -0.0749
  637MOL0     C84001   5.707   5.966   3.842 -0.9499  0.0384  0.2897
  637MOL0     N84002   6.451   6.251   3.691  0.2026 -0.2998 -0.3821
  637MOL0     N84003   6.559   6.293   3.643  0.0060  0.4194  0.2342
  637MOL0     C84004   7.761   6.422   3.604  0.6010  0.3846 -0.7805
  637MOL0     C84005   7.896   6.407   3.584 -0.3671  0.0954  0.9594
  637MOL0     C84006   8.291   6.173   3.627  0.6817 -0.5128 -0.2632
  637MOL0     C84007   8.362   6.226   3.521  0.1981  0.4361 -0.6237
  637MOL0     C84008   8.495   6.193   3.494  0.2521  0.1586 -0.5268
  637MOL0     C84009   8.571   6.114   3.571  0.2036  0.7211  0.4550
  637MOL0     O84010   8.700   6.078   3.535  0.6087 -0.5023 -0.3272
  637MOL0     C84011   8.795   6.030   3.635  0.2472 -0.0968  0.3892
  637MOL0     C84012   8.815   5.877   3.617  0.3259  0.1365 -0.0126
  637MOL0     C84013   8.930   5.836   3.709  0.0707 -0.5840  0.5197
  637MOL0     C84014   8.894   5.809   3.855 -0.2221  0.3081 -0.8668
  637MOL0     C84015   9.019   5.759   3.917  0.6719  0.1934 -0.3433
  637MOL0     C84016   9.128   5.727   3.963  0.1410  0.0815  0.4292
  637MOL0     C84017   8.505   6.058   3.682  0.5830  0.0165 -0.2464
  637MOL0     C84018   8.366   6.082   3.708  0.5803 -0.1093  0.7059
  637MOL0     H84019   7.895   6.091   3.477 -0.5937 -0.5579  2.7427
  637MOL0     H84020   7.655   6.122   3.514 -1.8022  0.7177  0.7877
  637MOL0     H84021   7.394   6.375   3.471  1.0356 -2.3963  1.2834
  637MOL0     H84022   7.530   6.477   3.468 -1.1581 -0.3607 -2.0677
  637MOL0     H84023   7.335   6.591   3.555  1.0106 -0.9730 -1.2471
  637MOL0     H84024   7.457   6.592   3.675  2.1869  0.8479 -2.1086
  637MOL0     H84025   7.221   6.534   3.767  1.6135  0.3537  2.1309
  637MOL0     H84026   7.348   6.412   3.793 -1.5748 -1.5549  0.3005
  637MOL0     H84027   7.169   6.397   3.544 -1.9952  2.4242  1.6580
  637MOL0     H84028   7.257   6.269   3.632  1.5689  1.6831 -0.3661
  637MOL0     H84029   7.011   6.422   3.727  1.3987  1.2427 -2.1364
  637MOL0     H84030   7.084   6.283   3.820  2.6568  1.7013  0.5631
  637MOL0     H84031   7.064   6.138   3.649  0.4952 -0.1413  0.9468
  637MOL0     H84032   6.981   6.258   3.539  0.8563  0.1609 -0.4391
  637MOL0     H84033   6.798   6.151   3.612  1.1489 -1.0512 -0.2810
  637MOL0     H84034   6.855   6.130   3.785 -0.6315 -1.6133 -0.8190
  637MOL0     H84035   6.796   6.393   3.661  0.7116  0.1705  0.2436
  637MOL0     H84036   6.824   6.352   3.834  4.9108 -0.3188 -1.9114
  637MOL0     H84037   6.630   6.246   3.965  0.1849 -0.1034 -0.3552
  637MOL0     H84038   6.309   6.265   3.950  0.3799  1.1001 -1.8889
  637MOL0     H84039   6.387   6.104   3.992 -2.5319 -2.7890 -0.8516
  637MOL0     H84040   6.253   6.008   3.794  0.2893  1.2638 -4.0041
  637MOL0     H84041   6.193   6.161   3.760 -0.0311  0.5465  1.2169
  637MOL0     H84042   6.175   6.007   4.020  1.6632 -1.8985 -3.0788
  637MOL0     H84043   6.112   6.178   4.008 -3.1162  0.6256 -2.7101
  637MOL0     H84044   5.955   5.945   3.980 -0.0558  0.3235  0.4555
  637MOL0     H84045   6.003   5.975   3.815  0.3089  2.0150 -1.4806
  637MOL0     H84046   5.714   6.261   3.996 -1.5782 -0.7696  1.9241
  637MOL0     H84047   5.483   6.209   4.028  0.9780  0.8269  0.8496
  637MOL0     H84048   5.169   6.305   3.860 -1.4599  1.1956 -0.2749
  637MOL0     H84049   4.911   6.333   3.812 -2.1237 -1.9189 -0.7503
  637MOL0     H84050   4.686   6.372   3.864 -0.8415 -1.0062  0.0902
  637MOL0     H84051   4.670   6.318   4.026 -1.2433  1.6737  0.3076
  637MOL0     H84052   4.489   6.225   3.796  1.8738  0.0712 -0.1355
  637MOL0     H84053   4.455   6.360   3.915  0.4908 -0.2626  2.5001
  637MOL0     H84054   4.473   6.210   4.091  2.7234  1.1763 -1.1004
  637MOL0     H84055   4.482   6.065   3.982 -0.7143 -0.2405  0.3076
  637MOL0     H84056   4.239   6.258   3.967  1.2238  0.3179 -1.6997
  637MOL0     H84057   4.277   6.116   3.895  1.8410  1.1921 -0.8231
  637MOL0     H84058   4.241   6.156   4.198  0.0316 -1.6470  0.2654
  637MOL0     H84059   4.295   5.998   4.137 -0.2258 -1.2722 -2.6279
  637MOL0     H84060   4.057   5.951   4.142 -1.5338 -0.1088 -0.9711
  637MOL0     H84061   4.081   5.985   3.981  3.2829  0.6286 -0.4973
  637MOL0     H84062   3.978   6.167   4.193  1.3461 -1.7426  1.7140
  637MOL0     H84063   4.011   6.222   4.017 -3.5414  1.0983  1.4246
  637MOL0     H84064   3.849   5.971   4.080  0.6349 -1.5750 -1.5700
  637MOL0     H84065   3.853   6.064   3.935  0.4618 -3.0073  0.2282
  637MOL0     H84066   4.831   5.972   3.997  2.8019 -0.4044  4.6730
  637MOL0     H84067   5.063   5.943   4.063 -0.1586 -0.4888  0.1153
  637MOL0     H84068   5.524   5.854   3.794 -1.6494  2.0740 -2.1727
  637MOL0     H84069   5.778   5.891   3.810  0.5958  1.7783 -0.5072
  637MOL0     H84070   7.719   6.513   3.646  0.4698  0.0650 -0.2103
  637MOL0     H84071   7.968   6.485   3.607 -0.6142 -0.0718  2.3825
  637MOL0     H84072   8.298   6.285   3.456 -1.1528 -0.1349  0.1255
  637MOL0     H84073   8.532   6.224   3.397 -1.6872 -1.2953 -1.7959
  637MOL0     H84074   8.766   6.053   3.738  0.6423 -1.0864  0.7357
  637MOL0     H84075   8.893   6.076   3.621  0.3413  0.2549  1.9969
  637MOL0     H84076   8.726   5.817   3.640  1.4120 -0.6997  2.3223
  637MOL0     H84077   8.842   5.857   3.513 -1.1802  3.2013 -1.1271
  637MOL0     H84078   9.023   5.892   3.700  0.8592 -1.8593  0.3518
  637MOL0     H84079   8.965   5.743   3.662  2.3155  1.1034 -1.3896
  637MOL0     H84080   8.855   5.897   3.907  0.0242  0.4616 -0.9393
  637MOL0     H84081   8.813   5.736   3.863  0.5061 -0.5114 -0.8531
  637MOL0     H84082   9.231   5.698   3.972 -0.3378 -1.7796  0.2393
  637MOL0     H84083   8.561   5.999   3.753  1.5086 -0.9551 -1.7402
  637MOL0     H84084   8.317   6.039   3.794 -1.7294  2.0731  0.6144
  638MOL0     O84085   3.651   2.150   2.565 -0.6028 -1.2233  0.5069
  638MOL0     C84086   3.645   2.118   2.685  0.4435  0.1261  0.5047
  638MOL0     O84087   3.743   2.126   2.772 -0.6202  0.7057  0.4566
  638MOL0     C84088   3.862   2.181   2.730 -0.0381  0.5079 -0.4222
  638MOL0     C84089   3.874   2.308   2.683 -0.2522 -0.1930  0.0650
  638MOL0     C84090   3.995   2.354   2.639 -0.1304  0.0307  0.5032
  638MOL0     C84091   4.115   2.278   2.653  0.3251  0.2862  0.6644
  638MOL0     O84092   4.234   2.329   2.610 -0.3131  0.4552  0.3254
  638MOL0     C84093   4.332   2.242   2.559 -0.0444  0.2121 -0.6144
  638MOL0     C84094   4.469   2.307   2.593 -0.1213  0.2773  0.0246
  638MOL0     C84095   4.597   2.237   2.527 -0.5949 -0.1326 -0.1232
  638MOL0     C84096   4.638   2.109   2.614  0.0135 -0.3425  0.2156
  638MOL0     C84097   4.767   2.038   2.544  0.9568 -0.6902  0.5776
  638MOL0     C84098   4.885   2.123   2.509 -0.0386 -0.7947  0.3919
  638MOL0     C84099   4.964   2.186   2.638  0.0085  0.8499  0.6029
  638MOL0     C84100   5.002   2.083   2.748 -0.5023  0.3369 -0.3345
  638MOL0     N84101   5.052   1.947   2.722 -0.0609 -0.1306  0.1700
  638MOL0     C84102   5.137   1.903   2.626 -0.6806 -0.7645  0.0997
  638MOL0     C84103   5.165   1.777   2.663 -0.5087  0.0032 -0.1844
  638MOL0     C84104   5.260   1.671   2.598 -0.3062 -0.6698 -0.3486
  638MOL0     C84105   5.220   1.632   2.453 -0.5017  0.3065 -0.0023
  638MOL0     C84106   5.332   1.572   2.363  0.2982  0.3547 -0.8082
  638MOL0     C84107   5.411   1.446   2.399 -1.1145  0.0172 -0.0867
  638MOL0     O84108   5.317   1.347   2.437  0.2195  0.6851  0.1037
  638MOL0     C84109   5.216   1.307   2.350  0.2399  0.9258 -0.2189
  638MOL0     C84110   5.089   1.276   2.401  0.3904 -0.2317 -0.3326
  638MOL0     C84111   4.985   1.233   2.330  0.2664  0.1716 -0.4361
  638MOL0     C84112   5.005   1.219   2.187 -0.0183 -0.2717 -0.5532
  638MOL0     C84113   4.886   1.201   2.102 -0.3416  0.4150 -0.4175
  638MOL0     O84114   4.908   1.168   1.970 -0.4806  0.3064 -0.1325
  638MOL0     C84115   4.802   1.178   1.885 -0.1408 -0.1914 -0.0084
  638MOL0     C84116   4.784   1.299   1.824  0.5426 -0.0740  0.9689
  638MOL0     C84117   4.671   1.314   1.736 -0.2069 -0.6953  0.6384
  638MOL0     C84118   4.597   1.206   1.695 -1.0264 -0.8268  0.1552
  638MOL0     O84119   4.503   1.214   1.594  0.2380 -0.1108  0.4359
  638MOL0     C84120   4.427   1.338   1.588 -0.4729 -0.3967  0.3470
  638MOL0     C84121   4.304   1.312   1.494 -0.1158  0.0495 -0.0250
  638MOL0     C84122   4.201   1.207   1.538  0.1078 -0.2550 -0.3703
  638MOL0     C84123   4.067   1.218   1.463 -0.0403 -0.2789 -0.0385
  638MOL0     C84124   3.988   1.083   1.451 -0.4051  0.4332  0.0999
  638MOL0     C84125   3.865   1.096   1.367 -0.4557 -0.0448 -0.2415
  638MOL0     C84126   3.776   0.968   1.357 -0.1140 -0.0260  0.3881
  638MOL0     C84127   3.639   0.980   1.290  0.1786  0.0693 -0.2997
  638MOL0    Cl84128   3.658   1.010   1.116 -0.0711 -0.5250 -0.1060
  638MOL0     C84129   4.629   1.080   1.744 -0.0495 -0.4716  0.0003
  638MOL0     C84130   4.722   1.064   1.847 -0.5634  0.5899  0.1222
  638MOL0     O84131   4.775   1.197   2.156 -0.1589 -0.2643 -0.3145
  638MOL0     C84132   5.135   1.240   2.130 -0.4551 -0.2501  0.8785
  638MOL0     C84133   5.241   1.270   2.215  0.5100 -0.2982  0.2660
  638MOL0     N84134   5.103   1.752   2.780 -1.0746 -0.0938  0.1489
  638MOL0     N84135   5.031   1.851   2.818 -1.0920  0.0972 -0.2916
  638MOL0     C84136   4.103   2.155   2.713  0.5510  0.4248  0.4298
  638MOL0     C84137   3.973   2.111   2.761 -0.9900  0.0907 -0.3911
  638MOL0     C84138   3.520   2.061   2.738  0.0743  0.8527 -0.2740
  638MOL0     C84139   3.517   2.002   2.866  0.5056 -0.0197  0.5261
  638MOL0     C84140   3.401   1.944   2.915  0.3911  0.0680  0.3754
  638MOL0     C84141   3.281   1.949   2.850 -0.3995 -0.5586 -0.0537
  638MOL0     O84142   3.158   1.900   2.899 -1.1442 -0.2880  0.2518
  638MOL0     C84143   3.146   1.876   3.042  0.0306  0.1863 -0.2572
  638MOL0     C84144   3.156   1.722   3.060  1.1372  0.8528 -0.2160
  638MOL0     C84145   3.153   1.687   3.210 -0.1651  0.1250 -0.2118
  638MOL0     C84146   3.130   1.539   3.230 -0.3388  0.3343 -0.1113
  638MOL0     C84147   3.100   1.519   3.372 -0.1782  0.3193 -0.5100
  638MOL0     C84148   3.073   1.500   3.483  0.2108  0.2517  0.1704
  638MOL0     C84149   3.281   2.003   2.718 -0.5174  0.5014  0.2524
  638MOL0     C84150   3.400   2.055   2.661 -0.9110  0.8782 -0.0468
  638MOL0     H84151   3.784   2.370   2.685 -1.0163 -1.2816  1.3449
  638MOL0     H84152   4.012   2.456   2.606  0.6029 -0.3458 -0.3195
  638MOL0     H84153   4.308   2.230   2.453 -0.0595  0.8575 -0.6900
  638MOL0     H84154   4.330   2.140   2.596 -0.3575  0.8332  1.1745
  638MOL0     H84155   4.492   2.328   2.698  2.1626 -0.4434 -0.2783
  638MOL0     H84156   4.466   2.408   2.549  0.1354  0.8213  1.2350
  638MOL0     H84157   4.679   2.308   2.511  0.9183 -1.5654  0.9082
  638MOL0     H84158   4.568   2.195   2.431  2.2598  1.2081 -1.7028
  638MOL0     H84159   4.662   2.140   2.716 -3.0999  0.6883  0.7433
  638MOL0     H84160   4.554   2.039   2.614  2.0357 -2.9573  0.8477
  638MOL0     H84161   4.734   2.000   2.447 -3.4630 -0.5945  1.8234
  638MOL0     H84162   4.786   1.955   2.612 -4.6494 -3.5588 -0.7284
  638MOL0     H84163   4.857   2.208   2.446  2.1022  0.0434  0.4696
  638MOL0     H84164   4.948   2.058   2.447  1.4469  1.7374 -0.8978
  638MOL0     H84165   5.048   2.234   2.586 -1.2922  0.9389 -1.5337
  638MOL0     H84166   4.900   2.268   2.671 -3.9308 -1.5308 -0.3648
  638MOL0     H84167   4.902   2.063   2.789 -1.9423  0.5196 -3.4747
  638MOL0     H84168   5.060   2.126   2.830  0.4698  2.4146 -2.0451
  638MOL0     H84169   5.184   1.956   2.544  2.2296 -0.7692  1.6232
  638MOL0     H84170   5.264   1.582   2.662  1.5624  1.2781  2.4785
  638MOL0     H84171   5.359   1.717   2.600  0.3575 -2.0321 -0.2804
  638MOL0     H84172   5.171   1.717   2.404  0.7882  1.3528  0.4648
  638MOL0     H84173   5.146   1.552   2.466 -0.2245 -0.2095 -1.4193
  638MOL0     H84174   5.304   1.561   2.258 -0.1825 -4.1174 -0.3963
  638MOL0     H84175   5.402   1.656   2.362 -0.9164  1.3979 -0.1493
  638MOL0     H84176   5.476   1.479   2.482  0.0517  3.6044 -2.2067
  638MOL0     H84177   5.469   1.414   2.312  0.0311  4.8697 -1.3893
  638MOL0     H84178   5.086   1.296   2.508  2.3346 -0.2038 -0.2435
  638MOL0     H84179   4.893   1.220   2.385  1.3742 -2.0039  1.0829
  638MOL0     H84180   4.848   1.380   1.857  0.2988 -0.4455  2.4090
  638MOL0     H84181   4.639   1.414   1.710 -2.1523 -1.7706 -1.4946
  638MOL0     H84182   4.491   1.415   1.544 -1.9590  0.0038 -1.2104
  638MOL0     H84183   4.402   1.378   1.687  1.8975  0.9783  0.4542
  638MOL0     H84184   4.337   1.278   1.395 -1.9288  1.0204 -1.0184
  638MOL0     H84185   4.253   1.402   1.458 -1.4433 -1.3490 -1.8160
  638MOL0     H84186   4.194   1.231   1.645  1.5787  2.8733 -0.8809
  638MOL0     H84187   4.251   1.110   1.534  0.7353 -0.0593  1.6537
  638MOL0     H84188   4.003   1.292   1.512  1.3591  1.3657 -0.5637
  638MOL0     H84189   4.097   1.255   1.364 -0.3671  0.0195 -0.0302
  638MOL0     H84190   3.948   1.043   1.545 -1.6109 -1.0274 -0.9836
  638MOL0     H84191   4.046   1.009   1.395 -0.0283  1.8816 -1.5028
  638MOL0     H84192   3.905   1.129   1.271 -0.9393  0.1830 -0.3654
  638MOL0     H84193   3.799   1.176   1.400 -1.8744 -0.8341 -1.0415
  638MOL0     H84194   3.837   0.904   1.293 -0.2518  0.2935 -0.0654
  638MOL0     H84195   3.760   0.924   1.456  1.3728 -1.3367  0.0698
  638MOL0     H84196   3.580   1.051   1.349 -0.8605 -1.1087  0.1290
  638MOL0     H84197   3.585   0.885   1.301 -0.1067  0.1907 -0.6597
  638MOL0     H84198   4.582   0.991   1.703  2.4457 -0.4359 -3.3690
  638MOL0     H84199   4.732   0.966   1.892  0.2278  0.1001 -1.0642
  638MOL0     H84200   5.151   1.232   2.023  0.7016 -1.0325  1.0877
  638MOL0     H84201   5.343   1.276   2.178 -0.1179  1.3231 -1.3871
  638MOL0     H84202   4.185   2.087   2.737  0.8788  0.8854  0.6277
  638MOL0     H84203   3.967   2.022   2.823 -1.5282 -0.9601 -1.8980
  638MOL0     H84204   3.609   1.999   2.923  0.9596 -0.0350 -0.1839
  638MOL0     H84205   3.400   1.892   3.010  1.0613 -2.3200 -0.8550
  638MOL0     H84206   3.052   1.912   3.083  1.0918  2.4557  0.3699
  638MOL0     H84207   3.224   1.929   3.098  0.9026 -1.7994  0.5048
  638MOL0     H84208   3.067   1.686   3.010  0.5198  2.8244 -0.6431
  638MOL0     H84209   3.242   1.680   3.007  1.4370  0.3661  0.6376
  638MOL0     H84210   3.062   1.728   3.255 -0.1509 -0.6351  0.5217
  638MOL0     H84211   3.243   1.716   3.264 -0.1944  2.0328 -1.0987
  638MOL0     H84212   3.043   1.505   3.173 -1.8606 -2.7635  3.6191
  638MOL0     H84213   3.217   1.482   3.196 -0.6049  1.3967 -2.8946
  638MOL0     H84214   3.054   1.462   3.582 -0.6083 -0.9539 -0.4193
  638MOL0     H84215   3.199   2.016   2.649  0.7436 -1.3014 -1.7231
  638MOL0     H84216   3.398   2.105   2.564  1.3621 -0.4205 -0.8423
  639MOL0     O84217   0.973   5.190   1.557  0.9209 -0.4434 -0.4579
  639MOL0     C84218   1.032   5.123   1.642 -0.2759  0.2557 -0.0205
  639MOL0     O84219   0.975   5.025   1.723 -0.4491  0.1313 -0.5300
  639MOL0     C84220   0.840   5.041   1.744  0.1358  0.2958 -0.1794
  639MOL0     C84221   0.748   4.933   1.728  0.3506  0.4869  0.5681
  639MOL0     C84222   0.613   4.946   1.764 -0.2643 -0.4576 -0.6247
  639MOL0     C84223   0.562   5.059   1.820 -0.2475 -0.3562  0.3222
  639MOL0     O84224   0.431   5.051   1.861 -0.0108  1.0790  0.3182
  639MOL0     C84225   0.351   5.161   1.867  0.8766  0.0920  0.7611
  639MOL0     C84226   0.240   5.150   1.754 -0.3828 -0.5714  0.8441
  639MOL0     C84227   0.159   5.029   1.780  0.5346  0.5704  0.7632
  639MOL0     C84228   0.035   5.022   1.685  0.4112  0.6148 -0.0762
  639MOL0     C84229  -0.027   4.881   1.681  0.1695  1.1531 -0.3271
  639MOL0     C84230  -0.147   4.894   1.586  0.7389 -0.2093 -0.2958
  639MOL0     C84231  -0.209   4.769   1.530 -1.0320  0.0045  0.3041
  639MOL0     C84232  -0.338   4.783   1.457  0.7613  0.0163 -0.1320
  639MOL0     N84233  -0.444   4.773   1.565  0.5443 -0.2608  0.1841
  639MOL0     C84234  -0.509   4.654   1.610  0.4130  0.2054  0.4064
  639MOL0     C84235  -0.606   4.695   1.691  0.6715  0.0130  0.1276
  639MOL0     C84236  -0.684   4.607   1.783  0.8180  0.4173 -0.1611
  639MOL0     C84237  -0.813   4.677   1.835 -0.7628 -1.1679  0.5358
  639MOL0     C84238  -0.910   4.561   1.886  0.1294 -0.3134  0.0009
  639MOL0     C84239  -1.035   4.630   1.939  0.1185 -0.0789 -0.3533
  639MOL0     O84240  -1.065   4.570   2.064 -0.6639  0.8375 -0.0788
  639MOL0     C84241  -1.189   4.620   2.111  0.1198 -0.0490 -1.0502
  639MOL0     C84242  -1.201   4.685   2.232 -0.3673 -1.1594 -0.7307
  639MOL0     C84243  -1.327   4.725   2.287  0.3367  0.0174  0.0178
  639MOL0     C84244  -1.447   4.692   2.219  0.4865 -0.5277  0.3686
  639MOL0     C84245  -1.577   4.731   2.276  0.2444  0.4840 -0.3600
  639MOL0     O84246  -1.599   4.850   2.329 -0.4030 -0.3364  0.2932
  639MOL0     C84247  -1.721   4.896   2.367  0.3842  0.6507  0.4469
  639MOL0     C84248  -1.724   4.977   2.477 -0.0877 -0.2284  0.2605
  639MOL0     C84249  -1.844   5.015   2.536  0.3337 -0.2174  0.4645
  639MOL0     C84250  -1.966   4.972   2.482  0.3119 -0.0995  0.6961
  639MOL0     O84251  -2.088   5.004   2.537  0.5475  0.2395  0.1974
  639MOL0     C84252  -2.090   5.064   2.670  0.1924  0.7206  0.6398
  639MOL0     C84253  -2.227   5.059   2.736  0.4165  0.6965  0.4499
  639MOL0     C84254  -2.235   5.118   2.879  0.1220 -0.2853 -0.1214
  639MOL0     C84255  -2.367   5.084   2.939  0.2644  0.6071 -0.2629
  639MOL0     C84256  -2.371   5.127   3.085 -1.0539 -0.3600 -0.0098
  639MOL0     C84257  -2.513   5.132   3.153  0.0636 -0.5698  0.3533
  639MOL0     C84258  -2.501   5.161   3.301 -0.9284 -0.1927  0.5814
  639MOL0     C84259  -2.439   5.038   3.365 -0.2825 -0.0368 -0.3690
  639MOL0    Cl84260  -2.439   5.050   3.544 -0.2817 -0.2377  0.6408
  639MOL0     C84261  -1.964   4.884   2.372 -1.0214  0.0814 -0.0124
  639MOL0     C84262  -1.842   4.851   2.311 -0.0385  0.1884 -0.2451
  639MOL0     O84263  -1.666   4.646   2.258 -0.7726  0.8300 -0.4084
  639MOL0     C84264  -1.431   4.632   2.092  0.5890 -0.2914 -0.5151
  639MOL0     C84265  -1.311   4.596   2.045 -0.6436  0.5723  0.2913
  639MOL0     N84266  -0.603   4.838   1.692  0.2450  0.6350  0.3666
  639MOL0     N84267  -0.511   4.879   1.616 -0.4362  0.1217  0.3382
  639MOL0     C84268   0.646   5.170   1.827 -0.2672  0.5323 -0.2688
  639MOL0     C84269   0.780   5.160   1.797  0.5641  0.4844  0.6034
  639MOL0     C84270   1.179   5.133   1.650  0.2006  0.7446 -0.8520
  639MOL0     C84271   1.251   5.053   1.750  0.5154  0.2310 -0.0456
  639MOL0     C84272   1.389   5.052   1.748  0.4988 -0.1499 -0.3547
  639MOL0     C84273   1.462   5.131   1.654  0.1184 -0.2440 -0.0239
  639MOL0     O84274   1.601   5.119   1.663 -0.5241 -0.5266 -1.0278
  639MOL0     C84275   1.673   5.235   1.702  0.3195  1.0285 -0.5984
  639MOL0     C84276   1.817   5.190   1.709 -0.7798 -0.3105  0.1487
  639MOL0     C84277   1.835   5.090   1.833 -0.0258 -0.2762  1.3232
  639MOL0     C84278   1.979   5.042   1.838 -0.3831 -0.6084  0.4770
  639MOL0     C84279   2.078   5.148   1.836  0.3434  0.3297  0.2718
  639MOL0     C84280   2.167   5.231   1.839  0.1276 -0.1193 -0.2502
  639MOL0     C84281   1.392   5.208   1.562  0.3177 -0.0874 -0.5072
  639MOL0     C84282   1.255   5.212   1.561 -0.0623 -0.1738 -0.6766
  639MOL0     H84283   0.784   4.837   1.694 -1.0222 -0.7046  2.3089
  639MOL0     H84284   0.555   4.856   1.745 -0.2930 -0.7396  0.7023
  639MOL0     H84285   0.415   5.250   1.859  2.7014 -1.2654 -0.9808
  639MOL0     H84286   0.299   5.171   1.962 -0.1284  1.4259  0.1003
  639MOL0     H84287   0.294   5.156   1.659  1.0190 -0.8170  1.5899
  639MOL0     H84288   0.171   5.234   1.768  0.5326  0.5782 -1.0490
  639MOL0     H84289   0.125   5.025   1.884  1.5701  1.4696  1.1499
  639MOL0     H84290   0.219   4.939   1.763  0.6170  1.0674 -1.9207
  639MOL0     H84291  -0.043   5.090   1.720  2.1456  2.1500  0.9954
  639MOL0     H84292   0.066   5.052   1.584  0.2458  2.3730  0.3583
  639MOL0     H84293  -0.060   4.854   1.782  0.9804  0.3761 -0.2531
  639MOL0     H84294   0.045   4.806   1.645 -1.4403 -1.2588  1.1864
  639MOL0     H84295  -0.109   4.951   1.501 -0.0973 -0.5966 -0.9368
  639MOL0     H84296  -0.222   4.959   1.633  2.7234  3.6976 -2.0486
  639MOL0     H84297  -0.141   4.730   1.454 -2.7527  0.4913 -1.5690
  639MOL0     H84298  -0.220   4.686   1.600  0.3076 -0.2397  0.2548
  639MOL0     H84299  -0.354   4.707   1.380  4.5625  1.5361 -2.7345
  639MOL0     H84300  -0.334   4.877   1.401 -0.3301  0.0407 -0.1873
  639MOL0     H84301  -0.486   4.551   1.588  1.8249  0.5755  0.0643
  639MOL0     H84302  -0.627   4.559   1.863  2.7263 -0.7985 -2.1248
  639MOL0     H84303  -0.715   4.520   1.724  0.1166  0.8046 -0.3682
  639MOL0     H84304  -0.858   4.740   1.758 -0.4422 -0.5394  0.8534
  639MOL0     H84305  -0.784   4.743   1.918 -0.5176 -1.0052  0.3204
  639MOL0     H84306  -0.938   4.503   1.797  0.8846  0.6809 -0.9108
  639MOL0     H84307  -0.859   4.502   1.962 -1.1601 -0.6572  0.6224
  639MOL0     H84308  -1.104   4.619   1.855  0.3063 -0.3919 -0.4702
  639MOL0     H84309  -1.022   4.735   1.968 -0.0579 -0.2519  0.3506
  639MOL0     H84310  -1.115   4.706   2.295 -1.3918 -1.7281  0.9522
  639MOL0     H84311  -1.337   4.791   2.373 -3.4105 -0.7120  0.3372
  639MOL0     H84312  -1.632   5.010   2.524  0.4005 -0.2256 -0.6686
  639MOL0     H84313  -1.835   5.074   2.627 -3.3724 -2.7453  2.7426
  639MOL0     H84314  -2.062   5.168   2.655  3.9081 -0.5569 -3.1629
  639MOL0     H84315  -2.028   5.007   2.739 -0.6569  1.4213  2.0343
  639MOL0     H84316  -2.263   4.956   2.746  1.7610 -0.0271 -1.5123
  639MOL0     H84317  -2.299   5.116   2.677 -2.7768 -0.9447  2.4948
  639MOL0     H84318  -2.226   5.227   2.878 -1.2369 -0.1608 -1.3260
  639MOL0     H84319  -2.154   5.079   2.941 -1.6781  0.1081  2.6410
  639MOL0     H84320  -2.445   5.133   2.880  1.0535  0.6438 -1.3070
  639MOL0     H84321  -2.380   4.976   2.933  2.3909  0.3095 -0.3894
  639MOL0     H84322  -2.323   5.226   3.089  1.6973 -1.5853 -0.3810
  639MOL0     H84323  -2.303   5.060   3.139  2.4865  1.2516 -2.1231
  639MOL0     H84324  -2.565   5.039   3.132  0.3172 -0.9742  1.4588
  639MOL0     H84325  -2.572   5.215   3.115  0.8928  0.3139  0.9283
  639MOL0     H84326  -2.438   5.248   3.323  1.3200 -0.6279 -3.2499
  639MOL0     H84327  -2.603   5.188   3.330 -0.9532 -0.5546  0.8345
  639MOL0     H84328  -2.335   5.029   3.333 -0.5783 -1.4358 -1.0592
  639MOL0     H84329  -2.499   4.948   3.347 -1.2723  0.3851  0.6732
  639MOL0     H84330  -2.060   4.847   2.340 -0.5279 -0.7247 -0.6015
  639MOL0     H84331  -1.851   4.791   2.221  0.3644 -1.0326  0.5072
  639MOL0     H84332  -1.518   4.594   2.039  1.3511  0.3719 -2.2844
  639MOL0     H84333  -1.324   4.550   1.947  0.6270  4.7735 -2.1637
  639MOL0     H84334   0.615   5.271   1.852 -2.2145 -0.3251  0.9706
  639MOL0     H84335   0.847   5.245   1.807  1.6076 -0.4197  1.6853
  639MOL0     H84336   1.198   4.980   1.810  0.4204 -0.1536 -0.5839
  639MOL0     H84337   1.446   4.995   1.821  1.2902  0.7120 -0.2853
  639MOL0     H84338   1.644   5.278   1.798  2.3695  2.5345 -0.5840
  639MOL0     H84339   1.659   5.316   1.629 -2.3208  1.3988  0.1997
  639MOL0     H84340   1.856   5.147   1.617 -0.1043 -1.6983  1.0537
  639MOL0     H84341   1.869   5.282   1.736 -0.1129 -1.0654  1.5797
  639MOL0     H84342   1.763   5.010   1.818 -0.5686  0.7264 -2.2346
  639MOL0     H84343   1.816   5.150   1.923 -1.4256  1.0142  0.2215
  639MOL0     H84344   1.985   4.978   1.927 -1.7195 -1.7943 -0.2431
  639MOL0     H84345   2.006   4.977   1.753 -1.5443  0.5194 -0.7982
  639MOL0     H84346   2.241   5.309   1.843 -0.0098  0.0603  4.0999
  639MOL0     H84347   1.445   5.264   1.486  0.5993  1.6243  0.8868
  639MOL0     H84348   1.199   5.276   1.494 -4.3094 -1.2240  1.4932
  640MOL0     O84349   6.067   6.326   1.993 -0.2157  0.1147 -0.0552
  640MOL0     C84350   6.011   6.438   1.987  0.2486  0.3446 -0.0328
  640MOL0     O84351   6.062   6.553   1.928 -0.4615 -0.1619  0.4584
  640MOL0     C84352   6.193   6.545   1.887  0.5856 -1.1130 -0.2880
  640MOL0     C84353   6.205   6.516   1.752 -0.8401 -1.0436 -0.0822
  640MOL0     C84354   6.330   6.517   1.698 -0.1560 -0.0172 -0.9316
  640MOL0     C84355   6.445   6.566   1.773  0.1048  0.2006  0.5359
  640MOL0     O84356   6.557   6.572   1.701 -0.7937 -0.0659  0.0467
  640MOL0     C84357   6.678   6.626   1.759 -0.5322  0.3486 -0.2939
  640MOL0     C84358   6.798   6.576   1.677 -0.3899 -0.3343 -0.5501
  640MOL0     C84359   6.931   6.620   1.724 -0.1611 -0.1901  0.4699
  640MOL0     C84360   7.035   6.586   1.620 -0.6573 -0.3952 -1.1712
  640MOL0     C84361   7.172   6.644   1.667  0.2356 -0.5143 -0.4606
  640MOL0     C84362   7.291   6.601   1.580  0.8457 -0.1458  0.2402
  640MOL0     C84363   7.410   6.655   1.653 -0.3321  1.4411  0.1591
  640MOL0     C84364   7.532   6.593   1.596  0.0746 -0.0985  0.8135
  640MOL0     N84365   7.568   6.640   1.464 -0.1497  0.0559  0.0814
  640MOL0     C84366   7.532   6.760   1.394 -0.2106 -0.5898 -0.1408
  640MOL0     C84367   7.596   6.759   1.278 -0.4222  0.0314  0.9053
  640MOL0     C84368   7.618   6.861   1.164  0.3869  0.0831 -0.1817
  640MOL0     C84369   7.573   7.007   1.198  0.0544 -0.1214 -0.0358
  640MOL0     C84370   7.419   7.027   1.186 -0.5546  0.7276 -0.3149
  640MOL0     C84371   7.389   7.161   1.250 -0.4437 -0.4535 -0.3407
  640MOL0     O84372   7.317   7.134   1.374 -0.1853 -0.9828 -0.2435
  640MOL0     C84373   7.184   7.101   1.368 -0.0726 -0.6179  1.0052
  640MOL0     C84374   7.140   7.003   1.462 -0.2617  0.2762  0.6424
  640MOL0     C84375   7.007   6.967   1.468  0.1054 -0.1495  0.1533
  640MOL0     C84376   6.917   7.022   1.376  0.4950 -0.9499 -0.4501
  640MOL0     C84377   6.771   6.992   1.382 -0.1504  0.0106 -0.7358
  640MOL0     O84378   6.683   7.054   1.290 -0.3184 -0.2312 -0.4694
  640MOL0     C84379   6.550   7.078   1.325  0.6144  0.3802  0.7438
  640MOL0     C84380   6.464   6.975   1.334  0.0668  0.6111 -0.2505
  640MOL0     C84381   6.330   7.001   1.358  0.0296  0.0833 -0.0445
  640MOL0     C84382   6.279   7.137   1.362 -0.2413  0.2215  0.0126
  640MOL0     O84383   6.150   7.166   1.380 -0.0442  0.0563  0.9131
  640MOL0     C84384   6.052   7.073   1.433 -0.2453  0.6115  0.2332
  640MOL0     C84385   5.919   7.130   1.393  0.3486 -0.0283 -0.3876
  640MOL0     C84386   5.816   7.027   1.440  0.1091  0.1451 -0.4268
  640MOL0     C84387   5.680   7.052   1.375  1.1549 -0.7203  0.3633
  640MOL0     C84388   5.568   6.978   1.449 -1.0342  0.3308 -0.2883
  640MOL0     C84389   5.438   7.006   1.387  0.5231  0.1939  0.1685
  640MOL0     C84390   5.321   6.939   1.460  0.1951  0.4827 -1.0107
  640MOL0     C84391   5.179   6.944   1.405 -0.8832 -0.4505  0.2110
  640MOL0    Cl84392   5.079   6.845   1.509  0.0922 -0.3435  0.0376
  640MOL0     C84393   6.372   7.238   1.347  0.8341 -0.0836 -0.1133
  640MOL0     C84394   6.506   7.208   1.337  0.1104 -0.2134  0.6812
  640MOL0     O84395   6.736   6.919   1.473 -0.6393  0.6110  0.2693
  640MOL0     C84396   6.962   7.128   1.295 -0.3589  0.0461  0.5455
  640MOL0     C84397   7.095   7.169   1.288  0.6230  0.2826  1.6215
  640MOL0     N84398   7.663   6.631   1.275 -0.2183 -0.6575  0.8808
  640MOL0     N84399   7.652   6.566   1.384  0.2128 -0.4091  0.1242
  640MOL0     C84400   6.431   6.609   1.909  0.0890  0.0629 -0.1205
  640MOL0     C84401   6.303   6.589   1.968  0.0224  0.0443  0.0297
  640MOL0     C84402   5.871   6.436   2.028  0.4862 -0.0336 -0.5704
  640MOL0     C84403   5.790   6.549   2.016  0.4280  0.7176  1.0272
  640MOL0     C84404   5.656   6.550   2.050  0.3609  0.0250  0.1218
  640MOL0     C84405   5.590   6.440   2.113 -0.4704  0.3728 -0.2358
  640MOL0     O84406   5.461   6.449   2.141  0.4712  0.0969 -0.0573
  640MOL0     C84407   5.395   6.357   2.233 -0.0570  0.5794  0.1246
  640MOL0     C84408   5.250   6.384   2.231 -0.3592 -0.7458  0.5655
  640MOL0     C84409   5.216   6.531   2.246 -0.9576 -0.6674  0.4104
  640MOL0     C84410   5.067   6.544   2.243 -0.1740  0.3239  0.2298
  640MOL0     C84411   4.991   6.482   2.352  0.3037 -0.2931 -0.4888
  640MOL0     C84412   4.935   6.421   2.447 -0.7111 -0.4998 -0.3203
  640MOL0     C84413   5.680   6.325   2.134  0.0424 -0.3983 -0.0920
  640MOL0     C84414   5.811   6.325   2.081  0.0240  0.0615  0.2149
  640MOL0     H84415   6.114   6.502   1.695 -2.1032  0.8746  1.3551
  640MOL0     H84416   6.341   6.513   1.590  0.8405  3.5898 -1.0882
  640MOL0     H84417   6.696   6.598   1.863 -1.0523 -2.7613 -0.9142
  640MOL0     H84418   6.684   6.735   1.756  0.2470  0.2945 -1.0002
  640MOL0     H84419   6.783   6.614   1.575 -0.2620  0.9638 -0.1073
  640MOL0     H84420   6.794   6.467   1.672  1.1732 -0.3494 -2.6548
  640MOL0     H84421   6.962   6.571   1.817  1.9395  2.0816  1.0465
  640MOL0     H84422   6.935   6.728   1.743  1.6423 -0.1702  0.1814
  640MOL0     H84423   7.044   6.478   1.634  0.7379  0.0457  2.3106
  640MOL0     H84424   7.010   6.626   1.521 -1.2055 -0.1027 -0.9181
  640MOL0     H84425   7.185   6.609   1.769 -2.5851 -0.5243 -0.0301
  640MOL0     H84426   7.158   6.752   1.671  3.1045 -0.1208  1.2703
  640MOL0     H84427   7.282   6.648   1.482  1.4585  0.3589  0.4183
  640MOL0     H84428   7.300   6.493   1.572  0.0578 -0.1575 -0.5451
  640MOL0     H84429   7.410   6.763   1.670 -1.3192  1.0485  3.3013
  640MOL0     H84430   7.400   6.620   1.756 -2.0768  4.5281  1.1739
  640MOL0     H84431   7.540   6.484   1.590  2.8259  0.0898 -0.9587
  640MOL0     H84432   7.607   6.620   1.671 -0.2337 -2.1084  1.9178
  640MOL0     H84433   7.470   6.839   1.436 -0.4480 -0.2160 -1.1422
  640MOL0     H84434   7.568   6.830   1.071  1.8175  1.3116 -1.4123
  640MOL0     H84435   7.726   6.862   1.149  0.1564 -0.6674 -2.1491
  640MOL0     H84436   7.626   7.077   1.132  0.0135  0.0019  0.0619
  640MOL0     H84437   7.608   7.032   1.298  1.5389  1.8318 -0.9689
  640MOL0     H84438   7.389   7.023   1.081  1.6926 -1.1997 -0.9747
  640MOL0     H84439   7.361   6.943   1.226 -0.1425  0.1186 -0.9817
  640MOL0     H84440   7.326   7.211   1.176 -1.5634 -0.2197  0.7395
  640MOL0     H84441   7.476   7.224   1.268 -1.3006  0.9406 -0.9460
  640MOL0     H84442   7.210   6.942   1.518 -0.6615 -0.5254  0.2791
  640MOL0     H84443   6.990   6.885   1.537  1.3982 -0.5905 -0.0248
  640MOL0     H84444   6.505   6.874   1.332  2.9193  1.6654  0.1019
  640MOL0     H84445   6.271   6.911   1.372  0.6264 -0.0235  2.1770
  640MOL0     H84446   6.065   7.070   1.542 -0.0259 -2.2297  0.1954
  640MOL0     H84447   6.057   6.974   1.388 -2.9094 -0.2029  1.5508
  640MOL0     H84448   5.914   7.149   1.286 -2.7790 -3.0435 -0.9736
  640MOL0     H84449   5.890   7.219   1.450 -0.7962 -2.0657  2.4322
  640MOL0     H84450   5.803   7.043   1.548 -1.6692  2.3547 -0.9091
  640MOL0     H84451   5.856   6.926   1.427  3.1901  1.2909 -0.6189
  640MOL0     H84452   5.637   7.152   1.388 -2.9636 -2.1459 -0.5906
  640MOL0     H84453   5.683   7.031   1.267 -2.8113 -0.8856  0.1407
  640MOL0     H84454   5.570   7.005   1.555  1.1899  0.0403 -0.2083
  640MOL0     H84455   5.583   6.873   1.422 -1.8337  0.4245 -1.1288
  640MOL0     H84456   5.441   6.981   1.280  0.8153 -2.1775  0.6787
  640MOL0     H84457   5.417   7.113   1.396  0.9400  0.2904  0.0327
  640MOL0     H84458   5.356   6.837   1.479  1.5411  0.9237 -0.9833
  640MOL0     H84459   5.327   6.988   1.557  3.4145  1.6914 -1.6817
  640MOL0     H84460   5.183   6.896   1.306 -0.2301 -1.2809  0.6337
  640MOL0     H84461   5.142   7.047   1.405  1.6874  0.5608  2.3854
  640MOL0     H84462   6.328   7.337   1.341  0.5608  0.1120  3.1374
  640MOL0     H84463   6.574   7.291   1.321  0.1818 -0.0506  1.7579
  640MOL0     H84464   6.894   7.185   1.233  1.2480 -1.6562 -3.0874
  640MOL0     H84465   7.106   7.252   1.220 -1.6006 -0.1681  0.6020
  640MOL0     H84466   6.516   6.658   1.954  0.8698  0.1718 -1.6311
  640MOL0     H84467   6.285   6.626   2.069  4.6554 -0.0948  1.1324
  640MOL0     H84468   5.825   6.642   1.971 -2.7006  1.2158 -0.6377
  640MOL0     H84469   5.603   6.644   2.043 -0.3890 -0.1051  2.8523
  640MOL0     H84470   5.444   6.368   2.330  1.5949 -1.7566 -0.3608
  640MOL0     H84471   5.425   6.258   2.199 -0.3257 -0.1671  1.9787
  640MOL0     H84472   5.206   6.362   2.133 -0.9508  0.1316  0.6179
  640MOL0     H84473   5.203   6.321   2.307 -0.7847  0.0463  0.9741
  640MOL0     H84474   5.246   6.598   2.165 -1.7744 -0.3836  0.3407
  640MOL0     H84475   5.264   6.567   2.338  0.4690  1.1207 -0.9511
  640MOL0     H84476   5.034   6.648   2.252 -1.2519  0.3217 -2.5554
  640MOL0     H84477   5.023   6.517   2.146 -0.2908  0.0788  0.3520
  640MOL0     H84478   4.880   6.380   2.529 -0.6115  0.3957  0.2063
  640MOL0     H84479   5.644   6.237   2.186 -0.8015 -0.8352 -1.3768
  640MOL0     H84480   5.875   6.238   2.076  1.2884  1.0141 -0.7022
  641MOL0     O84481   8.683   0.123   8.982  0.1230  0.1352  0.2082
  641MOL0     C84482   8.745   0.040   8.911 -0.6033 -0.7684 -0.3842
  641MOL0     O84483   8.688  -0.057   8.834  0.3759  0.4694 -0.0643
  641MOL0     C84484   8.551  -0.065   8.830 -0.1053 -0.3930  0.1058
  641MOL0     C84485   8.497  -0.078   8.703  0.9290 -0.1733 -0.1256
  641MOL0     C84486   8.357  -0.070   8.683 -0.2341 -0.0214 -0.1646
  641MOL0     C84487   8.267  -0.060   8.798 -0.3773 -0.7756  0.1962
  641MOL0     O84488   8.136  -0.044   8.784  0.1272  0.2111  0.8578
  641MOL0     C84489   8.075  -0.118   8.678  0.3776  1.0397  0.1882
  641MOL0     C84490   7.928  -0.145   8.712  0.6972  0.5753  0.1168
  641MOL0     C84491   7.857  -0.220   8.592  0.0523  0.0708  0.3050
  641MOL0     C84492   7.708  -0.221   8.618 -0.7110 -0.2254 -0.2281
  641MOL0     C84493   7.643  -0.288   8.499 -0.6279  0.2589 -0.8529
  641MOL0     C84494   7.495  -0.295   8.529  0.3261 -0.2359 -0.0040
  641MOL0     C84495   7.433  -0.376   8.419  0.2835  0.1319 -0.8364
  641MOL0     C84496   7.279  -0.349   8.415 -1.0753 -0.2248  0.0359
  641MOL0     N84497   7.193  -0.423   8.508 -0.0185 -0.8798 -0.7050
  641MOL0     C84498   7.073  -0.471   8.481  0.7124  0.4952  0.2770
  641MOL0     C84499   7.023  -0.520   8.589  1.3059 -0.8234 -0.0774
  641MOL0     C84500   6.898  -0.599   8.585 -0.4028  0.1041  0.5944
  641MOL0     C84501   6.810  -0.574   8.705 -0.1048  0.0418  0.0836
  641MOL0     C84502   6.676  -0.645   8.693 -0.3045 -0.0855 -0.7001
  641MOL0     C84503   6.572  -0.585   8.777 -0.8380  0.3102 -0.6641
  641MOL0     O84504   6.437  -0.626   8.740 -0.6187 -0.0137 -0.3753
  641MOL0     C84505   6.324  -0.591   8.807  0.0325  1.0090  0.0568
  641MOL0     C84506   6.201  -0.655   8.764  0.1481  0.2700  0.6110
  641MOL0     C84507   6.083  -0.623   8.834 -0.1311 -0.9818  0.1518
  641MOL0     C84508   6.082  -0.520   8.942 -0.6856 -0.0944  0.2177
  641MOL0     C84509   5.947  -0.480   9.000  0.3872  1.1640 -0.1369
  641MOL0     O84510   5.846  -0.574   8.995  0.1500 -0.0872  0.2566
  641MOL0     C84511   5.713  -0.552   9.026  0.4646 -0.9197  0.3436
  641MOL0     C84512   5.632  -0.663   9.047  0.3482  0.0296  0.0414
  641MOL0     C84513   5.500  -0.651   9.081 -0.0674 -0.7913 -0.0343
  641MOL0     C84514   5.444  -0.529   9.084 -0.4171 -0.2797  0.9114
  641MOL0     O84515   5.311  -0.507   9.118  0.4407  0.4167 -0.5776
  641MOL0     C84516   5.214  -0.499   9.007  0.0836  0.0304  0.3596
  641MOL0     C84517   5.199  -0.630   8.926  0.4371  0.0860 -0.4967
  641MOL0     C84518   5.094  -0.624   8.812 -0.3725  0.6804 -0.1387
  641MOL0     C84519   4.951  -0.656   8.856 -0.0552 -0.2461 -0.6736
  641MOL0     C84520   4.926  -0.805   8.865  0.5330  0.2079  0.1721
  641MOL0     C84521   4.778  -0.823   8.892 -0.0840 -0.3714  0.4563
  641MOL0     C84522   4.688  -0.812   8.764  0.5495 -0.0385 -0.0722
  641MOL0     C84523   4.539  -0.826   8.806  0.0845  0.1581 -0.2160
  641MOL0    Cl84524   4.442  -0.849   8.657 -0.2859 -0.1728  0.5342
  641MOL0     C84525   5.513  -0.418   9.048 -0.9024 -0.2394 -0.0546
  641MOL0     C84526   5.646  -0.427   9.023 -0.2504  0.1457 -0.2667
  641MOL0     O84527   5.937  -0.365   9.047  0.4194  0.2103 -0.5693
  641MOL0     C84528   6.202  -0.468   8.978  0.4482 -0.9104 -0.0411
  641MOL0     C84529   6.316  -0.505   8.916  0.3811  0.1335 -0.4257
  641MOL0     N84530   7.101  -0.480   8.694 -0.5695  0.1754 -1.1711
  641MOL0     N84531   7.214  -0.426   8.646 -0.1164 -0.3551  0.0887
  641MOL0     C84532   8.326  -0.057   8.924  0.6377  0.3703  0.6443
  641MOL0     C84533   8.462  -0.067   8.940  1.0388 -0.1619  0.0389
  641MOL0     C84534   8.891   0.052   8.914  0.1390 -0.8616  0.2665
  641MOL0     C84535   8.958   0.152   8.981 -0.4543  0.1161 -0.2067
  641MOL0     C84536   9.098   0.162   8.989 -0.0293  0.4450 -0.3525
  641MOL0     C84537   9.174   0.063   8.932  0.2083 -0.1088 -0.3275
  641MOL0     O84538   9.309   0.061   8.966 -0.2020  0.4989  0.6502
  641MOL0     C84539   9.391  -0.049   8.925 -0.4151 -0.5137  0.6630
  641MOL0     C84540   9.541  -0.021   8.955  0.0386 -0.3083 -0.1611
  641MOL0     C84541   9.586   0.103   8.868 -0.1270  1.0001 -0.8478
  641MOL0     C84542   9.731   0.120   8.857  0.4365  0.3465  0.0887
  641MOL0     C84543   9.790   0.129   8.986 -0.0195  0.3981 -0.3759
  641MOL0     C84544   9.834   0.128   9.106  0.1585 -0.8506 -0.1644
  641MOL0     C84545   9.108  -0.042   8.857  0.0632 -0.7254  0.5859
  641MOL0     C84546   8.966  -0.045   8.848  0.5150 -0.5261  0.5227
  641MOL0     H84547   8.572  -0.093   8.626 -0.4185 -2.3400 -1.1039
  641MOL0     H84548   8.321  -0.059   8.581  0.7492 -1.2051 -0.6648
  641MOL0     H84549   8.124  -0.215   8.664  1.1293  1.4249  0.1311
  641MOL0     H84550   8.080  -0.068   8.580  0.3010  2.1099  0.7141
  641MOL0     H84551   7.880  -0.049   8.731  0.3854  0.1931  1.3469
  641MOL0     H84552   7.922  -0.213   8.797 -0.9062  1.2011  0.5266
  641MOL0     H84553   7.903  -0.319   8.585 -1.5720 -0.6112 -2.0348
  641MOL0     H84554   7.880  -0.182   8.492 -1.1552  1.0987  0.3980
  641MOL0     H84555   7.689  -0.277   8.710  0.3374  2.0744  1.4853
  641MOL0     H84556   7.683  -0.115   8.633 -0.8763 -0.6045  2.8276
  641MOL0     H84557   7.676  -0.392   8.493 -1.6361 -0.0256 -1.4799
  641MOL0     H84558   7.667  -0.237   8.405 -0.5918  1.2814 -0.3108
  641MOL0     H84559   7.448  -0.195   8.526 -0.3316 -0.5350  0.1187
  641MOL0     H84560   7.474  -0.342   8.625 -3.7568 -0.8460 -0.9749
  641MOL0     H84561   7.473  -0.347   8.321  2.2135 -3.7812 -1.3715
  641MOL0     H84562   7.448  -0.482   8.437 -1.6639  0.0784  0.8235
  641MOL0     H84563   7.239  -0.381   8.319  1.7806 -1.7077 -0.7799
  641MOL0     H84564   7.265  -0.241   8.412  0.3597 -0.0300 -0.1123
  641MOL0     H84565   7.043  -0.497   8.380  1.6833 -0.2265  0.1625
  641MOL0     H84566   6.916  -0.707   8.572 -0.4310  0.3018 -1.5532
  641MOL0     H84567   6.840  -0.564   8.499  1.4954 -1.0585 -1.2861
  641MOL0     H84568   6.786  -0.467   8.706 -0.7915 -0.1019 -0.2708
  641MOL0     H84569   6.858  -0.600   8.800 -0.5952 -1.7812 -0.1480
  641MOL0     H84570   6.632  -0.644   8.593  1.7560  0.1769 -1.6480
  641MOL0     H84571   6.681  -0.751   8.720 -0.6852  0.2490  0.7652
  641MOL0     H84572   6.567  -0.476   8.771 -0.1055  0.5747  2.1241
  641MOL0     H84573   6.603  -0.612   8.879  2.7822  2.0585 -1.1216
  641MOL0     H84574   6.206  -0.725   8.682 -2.4097 -1.3790  1.7423
  641MOL0     H84575   5.994  -0.677   8.804 -2.2585  1.2347  2.1309
  641MOL0     H84576   5.687  -0.756   9.033  0.1412 -0.0515 -0.2365
  641MOL0     H84577   5.453  -0.748   9.096  2.9833 -2.1092  2.0737
  641MOL0     H84578   5.255  -0.427   8.936  1.7425  0.5757  1.7985
  641MOL0     H84579   5.114  -0.469   9.041 -0.1632  1.2914 -1.3758
  641MOL0     H84580   5.175  -0.708   8.998  0.9566 -2.0656 -2.5330
  641MOL0     H84581   5.299  -0.652   8.885 -0.0411 -0.4960 -1.3905
  641MOL0     H84582   5.124  -0.705   8.745 -1.5115 -2.0614  2.3933
  641MOL0     H84583   5.085  -0.522   8.774 -2.1153  0.6657  0.1260
  641MOL0     H84584   4.925  -0.608   8.951  0.0581 -2.7206  0.6844
  641MOL0     H84585   4.877  -0.615   8.787  0.0900  1.3134  0.0489
  641MOL0     H84586   4.981  -0.851   8.947 -2.5597 -0.5454  1.9888
  641MOL0     H84587   4.951  -0.852   8.769  0.5166  0.3545  0.0959
  641MOL0     H84588   4.749  -0.753   8.971 -0.8923  1.1877 -1.1661
  641MOL0     H84589   4.772  -0.926   8.928  1.6508 -1.6430 -2.5309
  641MOL0     H84590   4.711  -0.721   8.708 -1.2825 -0.9657 -2.5431
  641MOL0     H84591   4.702  -0.894   8.692 -0.0824 -1.6687  1.5801
  641MOL0     H84592   4.489  -0.748   8.864 -0.0427  0.9839 -1.4085
  641MOL0     H84593   4.535  -0.918   8.865 -0.5738  1.7050  2.3175
  641MOL0     H84594   5.458  -0.325   9.063 -3.5743 -1.4668 -1.5743
  641MOL0     H84595   5.700  -0.333   9.014 -0.2099  0.0957 -0.5563
  641MOL0     H84596   6.199  -0.392   9.055  2.6266 -0.9067  0.1094
  641MOL0     H84597   6.401  -0.451   8.956 -0.8620 -0.1080  2.9234
  641MOL0     H84598   8.271  -0.070   9.017 -2.5914  1.7061 -0.9208
  641MOL0     H84599   8.497  -0.076   9.042 -0.9775 -2.7642  0.6122
  641MOL0     H84600   8.901   0.233   9.025 -0.8700 -2.4291  4.5041
  641MOL0     H84601   9.158   0.238   9.038 -2.0695  0.3646  2.5291
  641MOL0     H84602   9.375  -0.075   8.820 -0.8288 -1.8016  1.0288
  641MOL0     H84603   9.357  -0.143   8.971  0.2111 -2.0773 -1.8631
  641MOL0     H84604   9.549   0.002   9.062  0.7576  1.4694 -0.5596
  641MOL0     H84605   9.604  -0.107   8.930  1.2193  1.0724 -2.2550
  641MOL0     H84606   9.553   0.189   8.926 -2.6459 -1.0885  1.0486
  641MOL0     H84607   9.539   0.109   8.769  0.9494  0.9912 -1.3812
  641MOL0     H84608   9.773   0.047   8.788  0.2479 -0.9226  1.2711
  641MOL0     H84609   9.747   0.215   8.806 -0.9619  0.2906 -0.5141
  641MOL0     H84610   9.892   0.125   9.196 -1.3142 -0.5987  0.8386
  641MOL0     H84611   9.165  -0.120   8.807  2.1686  0.7038  0.6442
  641MOL0     H84612   8.924  -0.130   8.796 -0.1841  0.0616  0.1171
  642MOL0     O84613   1.124   3.770   3.178 -0.1479 -0.1423  0.2531
  642MOL0     C84614   1.205   3.733   3.266  0.3775 -0.0201 -0.2015
  642MOL0     O84615   1.176   3.703   3.395 -0.1779 -0.3167 -0.3378
  642MOL0     C84616   1.057   3.726   3.448  0.3681  0.0145  0.6614
  642MOL0     C84617   1.054   3.799   3.565 -0.2259  0.0293 -0.0913
  642MOL0     C84618   0.935   3.807   3.635 -0.8008 -0.0236 -1.4704
  642MOL0     C84619   0.827   3.727   3.598  0.8805 -0.2121 -0.3153
  642MOL0     O84620   0.723   3.711   3.693 -1.0203 -0.2484  0.0098
  642MOL0     C84621   0.597   3.656   3.666 -0.0853  0.2984  1.6581
  642MOL0     C84622   0.526   3.633   3.792  0.0611  0.5697 -0.5808
  642MOL0     C84623   0.395   3.560   3.771  0.2045 -0.2289  0.2680
  642MOL0     C84624   0.328   3.533   3.901 -0.0565 -0.5121 -0.0740
  642MOL0     C84625   0.232   3.414   3.892  0.4618  0.0898 -1.0363
  642MOL0     C84626   0.138   3.418   4.016 -0.4419  0.0139 -0.2361
  642MOL0     C84627   0.034   3.302   4.014 -0.4362 -1.3902  0.2402
  642MOL0     C84628   0.115   3.175   4.042  1.1079 -0.0271  0.2587
  642MOL0     N84629   0.034   3.054   4.046  0.4458 -0.4685 -0.2682
  642MOL0     C84630   0.032   2.972   3.939 -0.5564  0.3795 -0.5726
  642MOL0     C84631  -0.064   2.888   3.964 -0.5482 -0.1210 -0.8410
  642MOL0     C84632  -0.116   2.777   3.877  0.1563 -0.2741  1.4714
  642MOL0     C84633  -0.180   2.648   3.942 -0.7988 -0.0051  0.9440
  642MOL0     C84634  -0.324   2.673   3.983  0.4733  0.1048  0.0247
  642MOL0     C84635  -0.410   2.554   4.017  0.9369  0.5871 -0.7823
  642MOL0     O84636  -0.537   2.612   4.035  0.2614  0.7173 -0.0042
  642MOL0     C84637  -0.648   2.535   4.056  0.5089  0.6774 -0.3186
  642MOL0     C84638  -0.771   2.597   4.060  0.9763 -0.3686  0.1812
  642MOL0     C84639  -0.890   2.522   4.079  0.3517  0.4357 -0.4691
  642MOL0     C84640  -0.892   2.388   4.096  0.0588  0.5849 -0.4928
  642MOL0     C84641  -1.015   2.311   4.108 -0.5277  0.1789  0.3245
  642MOL0     O84642  -1.122   2.384   4.150  0.4031 -0.0701  0.1469
  642MOL0     C84643  -1.237   2.307   4.184 -0.0705 -0.4026 -0.2513
  642MOL0     C84644  -1.333   2.278   4.083  0.0487 -0.5097 -0.0855
  642MOL0     C84645  -1.457   2.224   4.116 -0.2805 -0.1913 -1.0248
  642MOL0     C84646  -1.479   2.186   4.256 -0.4743 -0.8345  0.6732
  642MOL0     O84647  -1.606   2.131   4.281 -0.1687 -0.2742 -0.8141
  642MOL0     C84648  -1.666   2.172   4.403 -0.6643 -0.5816  0.2281
  642MOL0     C84649  -1.817   2.140   4.391  0.1600 -0.7270 -0.1211
  642MOL0     C84650  -1.900   2.202   4.506 -0.9120  0.2354 -0.2726
  642MOL0     C84651  -2.049   2.165   4.489 -0.0342 -0.0250  0.5985
  642MOL0     C84652  -2.117   2.184   4.625  0.0273 -0.0312 -1.1951
  642MOL0     C84653  -2.247   2.113   4.630  0.3516  0.5374  0.2921
  642MOL0     C84654  -2.312   2.129   4.762  1.0644  0.0672  0.1884
  642MOL0     C84655  -2.464   2.092   4.737  0.6912  0.0657 -0.8786
  642MOL0    Cl84656  -2.544   2.217   4.644 -0.2433 -0.2971  0.3401
  642MOL0     C84657  -1.381   2.210   4.354 -0.0330 -0.7635 -0.0128
  642MOL0     C84658  -1.265   2.285   4.320  0.7141 -0.1763 -0.5238
  642MOL0     O84659  -1.017   2.196   4.073 -0.0750  0.6821 -0.0912
  642MOL0     C84660  -0.768   2.324   4.101  0.2784  0.0726 -0.5112
  642MOL0     C84661  -0.647   2.394   4.071 -0.3976 -0.2883 -0.0410
  642MOL0     N84662  -0.121   2.918   4.074  0.6271  0.9429 -0.2987
  642MOL0     N84663  -0.064   3.016   4.132 -0.3940 -0.7702 -0.2538
  642MOL0     C84664   0.833   3.659   3.476  0.3209  0.8346 -0.3077
  642MOL0     C84665   0.944   3.656   3.398  0.0352 -0.7475  0.0042
  642MOL0     C84666   1.345   3.740   3.223  0.2326 -0.1052  0.0864
  642MOL0     C84667   1.371   3.748   3.083  0.5317 -0.5426  1.2232
  642MOL0     C84668   1.496   3.767   3.029 -0.7037  0.7601  0.4638
  642MOL0     C84669   1.608   3.757   3.113  0.1032  0.3196 -0.1500
  642MOL0     O84670   1.723   3.759   3.036 -0.2549 -0.5326 -1.0475
  642MOL0     C84671   1.846   3.762   3.113 -0.4407  0.4895 -0.2963
  642MOL0     C84672   1.958   3.769   3.008 -0.2117  0.2026  0.3106
  642MOL0     C84673   2.092   3.722   3.076  0.1883 -0.2128  0.1741
  642MOL0     C84674   2.216   3.711   2.988 -0.2232  0.1710  0.5655
  642MOL0     C84675   2.344   3.710   3.049  0.1666 -0.9691  0.9796
  642MOL0     C84676   2.451   3.707   3.104 -0.1094  0.8278  0.3989
  642MOL0     C84677   1.586   3.751   3.258  0.4818 -0.3891 -0.3340
  642MOL0     C84678   1.453   3.737   3.304  0.6128  0.9940 -0.0678
  642MOL0     H84679   1.139   3.854   3.605  0.0130 -1.0561  0.9285
  642MOL0     H84680   0.923   3.866   3.725 -3.4554 -0.2226 -1.6139
  642MOL0     H84681   0.601   3.557   3.620  0.3312  0.0643  2.1822
  642MOL0     H84682   0.547   3.729   3.601  1.2237 -1.5706 -1.7374
  642MOL0     H84683   0.497   3.730   3.835  1.1520  0.6403  0.0133
  642MOL0     H84684   0.585   3.570   3.858  0.4067 -0.3568 -1.7442
  642MOL0     H84685   0.415   3.463   3.726 -0.9984 -0.9373  1.2127
  642MOL0     H84686   0.323   3.616   3.710 -0.5575 -0.1719  1.2033
  642MOL0     H84687   0.405   3.507   3.974 -1.3556  0.2848  1.6509
  642MOL0     H84688   0.292   3.630   3.936  0.6032 -0.8071  1.4789
  642MOL0     H84689   0.284   3.318   3.900  0.0514 -0.2305 -2.0415
  642MOL0     H84690   0.168   3.406   3.803 -0.7945 -1.8223 -0.0401
  642MOL0     H84691   0.086   3.515   4.009  0.7076  0.5490 -1.7127
  642MOL0     H84692   0.206   3.408   4.101 -0.6060 -2.0996 -0.3050
  642MOL0     H84693  -0.038   3.321   4.095  0.4725  1.2678  0.5164
  642MOL0     H84694  -0.018   3.303   3.918 -1.2016 -1.2353  0.6492
  642MOL0     H84695   0.169   3.195   4.135  1.6461  2.1324 -0.4508
  642MOL0     H84696   0.192   3.153   3.968  0.2703  1.4496 -1.1140
  642MOL0     H84697   0.091   2.975   3.847  0.1218 -1.8551 -0.2686
  642MOL0     H84698  -0.025   2.745   3.824  0.0513  0.6849  0.6827
  642MOL0     H84699  -0.186   2.827   3.810  1.9551 -0.4735 -0.6729
  642MOL0     H84700  -0.131   2.617   4.034  0.8171 -0.1396  0.0798
  642MOL0     H84701  -0.175   2.563   3.873  0.8272 -0.1358  1.1708
  642MOL0     H84702  -0.319   2.753   4.058 -1.6990  1.7354 -1.4006
  642MOL0     H84703  -0.380   2.720   3.901  0.5151  1.5813  0.8075
  642MOL0     H84704  -0.377   2.495   4.103  0.2338  1.0336 -0.1857
  642MOL0     H84705  -0.416   2.488   3.930 -0.3076  1.6211 -1.5209
  642MOL0     H84706  -0.785   2.703   4.040  0.1204 -0.2330  1.4021
  642MOL0     H84707  -0.985   2.572   4.066 -1.8115 -3.1512  0.1200
  642MOL0     H84708  -1.307   2.309   3.983  1.3970  2.1122  0.9652
  642MOL0     H84709  -1.538   2.209   4.046 -0.4257  0.6292 -1.0369
  642MOL0     H84710  -1.648   2.279   4.413 -0.6719 -0.3105 -2.1581
  642MOL0     H84711  -1.629   2.120   4.492  2.1372  0.9461  0.0697
  642MOL0     H84712  -1.817   2.031   4.382 -1.7051 -0.6541 -1.5098
  642MOL0     H84713  -1.854   2.182   4.298  0.0317 -0.8942 -0.1458
  642MOL0     H84714  -1.897   2.310   4.523 -1.0615  0.2032 -0.0323
  642MOL0     H84715  -1.857   2.160   4.597 -2.6830 -0.2777  0.3720
  642MOL0     H84716  -2.103   2.236   4.426 -1.4479  0.3915  2.2186
  642MOL0     H84717  -2.059   2.066   4.444 -0.2384  0.2630  0.0094
  642MOL0     H84718  -2.116   2.290   4.655  2.2774 -0.2020 -0.4341
  642MOL0     H84719  -2.057   2.140   4.705 -2.0260  0.5623  0.7878
  642MOL0     H84720  -2.226   2.007   4.609  1.0112  0.9837 -1.5316
  642MOL0     H84721  -2.305   2.149   4.545 -0.8610  0.3724  1.0387
  642MOL0     H84722  -2.270   2.066   4.841 -1.1768 -1.0171  0.6042
  642MOL0     H84723  -2.313   2.233   4.795  0.2118 -0.0113  0.4317
  642MOL0     H84724  -2.512   2.081   4.835  2.1872 -0.0038 -0.1172
  642MOL0     H84725  -2.467   1.996   4.686 -0.5235 -0.1023 -0.5295
  642MOL0     H84726  -1.395   2.192   4.460 -0.2318 -1.9412 -0.2193
  642MOL0     H84727  -1.192   2.316   4.394 -2.0789  2.0165  1.5265
  642MOL0     H84728  -0.769   2.216   4.115 -0.1905  0.2180  0.6235
  642MOL0     H84729  -0.555   2.339   4.056  0.1205  0.5688 -0.0732
  642MOL0     H84730   0.749   3.601   3.438 -0.2714  0.9820  0.7280
  642MOL0     H84731   0.950   3.586   3.316  0.6272 -0.6972  0.0002
  642MOL0     H84732   1.301   3.753   3.000  2.9598  1.1151 -0.8928
  642MOL0     H84733   1.505   3.793   2.924 -2.4735  1.1141  0.3794
  642MOL0     H84734   1.850   3.672   3.175 -1.8249  0.4386 -0.2498
  642MOL0     H84735   1.852   3.849   3.180  0.0281 -0.3217  0.7386
  642MOL0     H84736   1.941   3.705   2.920  0.8286 -1.4584  1.2631
  642MOL0     H84737   1.968   3.872   2.974 -1.9578  0.5240  0.7229
  642MOL0     H84738   2.077   3.630   3.134 -0.0896 -0.7659 -0.7604
  642MOL0     H84739   2.110   3.807   3.142 -0.5138  2.6242 -2.9985
  642MOL0     H84740   2.203   3.618   2.932 -1.8304 -0.1445  1.4058
  642MOL0     H84741   2.230   3.797   2.923 -0.2516 -0.8218 -0.7976
  642MOL0     H84742   2.554   3.704   3.132  0.2785  3.5273 -0.4568
  642MOL0     H84743   1.666   3.750   3.331  1.4247 -2.1461 -1.3210
  642MOL0     H84744   1.450   3.719   3.411  1.8466  1.9288  0.1401
  643MOL0     O84745   7.229   4.866   3.413 -0.3551  0.0768  0.3698
  643MOL0     C84746   7.304   4.959   3.402 -0.7192 -0.7224 -0.4203
  643MOL0     O84747   7.268   5.093   3.428  0.3282  0.0341 -0.2629
  643MOL0     C84748   7.138   5.123   3.470 -0.2871  0.1437  0.1847
  643MOL0     C84749   7.072   5.054   3.575  0.5614 -0.0590 -0.0159
  643MOL0     C84750   6.940   5.084   3.611 -0.1760 -0.3734  0.8135
  643MOL0     C84751   6.872   5.187   3.544  0.6679 -0.2271  0.1125
  643MOL0     O84752   6.748   5.229   3.581  0.4639 -0.0046 -0.3871
  643MOL0     C84753   6.640   5.177   3.504 -0.4440  0.2783  0.3191
  643MOL0     C84754   6.590   5.288   3.409 -0.6459  0.0410  0.5983
  643MOL0     C84755   6.543   5.417   3.475  0.7715 -0.1499 -0.2410
  643MOL0     C84756   6.530   5.529   3.371  0.2516  0.7170  0.5403
  643MOL0     C84757   6.417   5.629   3.389 -0.5021 -0.3159 -0.9123
  643MOL0     C84758   6.281   5.570   3.366  0.6589 -0.3761 -0.1167
  643MOL0     C84759   6.167   5.677   3.394 -0.5061  0.4416  0.4567
  643MOL0     C84760   6.032   5.620   3.364  1.2584 -0.1532  0.0382
  643MOL0     N84761   5.921   5.707   3.395 -0.1384  0.0463 -0.4840
  643MOL0     C84762   5.787   5.672   3.373  0.4076  0.0037  0.3736
  643MOL0     C84763   5.718   5.784   3.387 -0.2701 -0.0181  0.3937
  643MOL0     C84764   5.571   5.807   3.366  0.7536  0.6205 -0.0681
  643MOL0     C84765   5.495   5.745   3.486  0.4858 -0.0028  0.7415
  643MOL0     C84766   5.348   5.720   3.458 -0.0951 -0.2034 -0.2284
  643MOL0     C84767   5.266   5.665   3.574  0.3961  0.3411  0.1283
  643MOL0     O84768   5.278   5.519   3.571  0.0309 -0.6504  0.2431
  643MOL0     C84769   5.175   5.440   3.523 -0.8924  0.2449  1.1663
  643MOL0     C84770   5.140   5.333   3.595  0.6707 -0.3464 -0.4922
  643MOL0     C84771   5.033   5.251   3.554  0.1308 -0.5414  0.2039
  643MOL0     C84772   4.965   5.266   3.434 -0.1690 -0.8161 -0.0997
  643MOL0     C84773   4.850   5.175   3.397 -0.0785  0.3586 -0.0408
  643MOL0     O84774   4.857   5.042   3.447  0.2841  0.0789 -0.3713
  643MOL0     C84775   4.761   4.955   3.400  0.3660 -0.2883  0.1989
  643MOL0     C84776   4.694   4.887   3.495 -0.3954  0.7930 -0.0022
  643MOL0     C84777   4.590   4.802   3.459  0.2307 -0.1977  0.2980
  643MOL0     C84778   4.555   4.786   3.327  0.6009 -0.2686 -0.5546
  643MOL0     O84779   4.456   4.692   3.305 -0.0793  0.8266 -0.1905
  643MOL0     C84780   4.413   4.665   3.168 -0.4627 -0.0207  0.5801
  643MOL0     C84781   4.292   4.573   3.153  0.3643 -0.0414 -0.0578
  643MOL0     C84782   4.275   4.504   3.016  0.2637 -0.1644  0.2533
  643MOL0     C84783   4.151   4.420   2.998 -1.0739 -0.3757 -0.5089
  643MOL0     C84784   4.158   4.287   2.917 -0.5537 -0.0005  0.7955
  643MOL0     C84785   4.205   4.300   2.772  0.3291  0.6164  0.0647
  643MOL0     C84786   4.112   4.373   2.678  0.6955  0.1444  0.2737
  643MOL0     C84787   4.003   4.272   2.626 -0.0754 -0.6252  0.3940
  643MOL0    Cl84788   3.868   4.265   2.727  0.0148 -0.1006  0.1398
  643MOL0     C84789   4.621   4.851   3.234 -0.1666  0.6576  1.2391
  643MOL0     C84790   4.728   4.941   3.265  0.8620 -0.1731  0.2704
  643MOL0     O84791   4.770   5.219   3.312  0.5178  0.3990 -0.9296
  643MOL0     C84792   4.993   5.385   3.364  0.1071  0.1890  0.2165
  643MOL0     C84793   5.100   5.463   3.400 -0.1118  0.0249 -0.2253
  643MOL0     N84794   5.805   5.881   3.440  0.9065 -0.1264  0.5181
  643MOL0     N84795   5.925   5.832   3.445  0.9056  0.1865 -0.5970
  643MOL0     C84796   6.932   5.261   3.438 -0.6576  0.4235 -0.7867
  643MOL0     C84797   7.065   5.228   3.402 -1.2164 -0.1552  0.1574
  643MOL0     C84798   7.451   4.947   3.363  0.2067  0.3204  0.6672
  643MOL0     C84799   7.517   5.042   3.284 -0.1754  0.0783 -0.4867
  643MOL0     C84800   7.642   5.015   3.233  0.2671 -0.2582 -0.5293
  643MOL0     C84801   7.718   4.903   3.283 -0.0580  0.2178  0.2358
  643MOL0     O84802   7.848   4.874   3.245 -0.5437 -0.0951 -0.3445
  643MOL0     C84803   7.943   4.978   3.205  0.0513  0.3655 -1.1898
  643MOL0     C84804   8.084   4.937   3.223  0.0263  0.5330 -0.1676
  643MOL0     C84805   8.179   5.040   3.172  0.2284  0.1264  0.6098
  643MOL0     C84806   8.320   4.981   3.181  1.1151  0.3152 -0.0512
  643MOL0     C84807   8.360   4.969   3.320  0.2398  0.2945 -0.2731
  643MOL0     C84808   8.411   4.942   3.430  0.1702 -0.1909  0.2731
  643MOL0     C84809   7.655   4.806   3.359  0.3637 -0.4210  0.2134
  643MOL0     C84810   7.519   4.830   3.396  0.4466 -0.2967  0.1210
  643MOL0     H84811   7.119   4.967   3.619  2.7958  0.3673 -1.4218
  643MOL0     H84812   6.895   5.028   3.693 -2.0311  0.0601  0.1524
  643MOL0     H84813   6.565   5.146   3.578 -1.2473 -0.7125 -0.8720
  643MOL0     H84814   6.664   5.091   3.440  2.6539  1.4383 -0.2346
  643MOL0     H84815   6.505   5.251   3.351  0.6555  1.3424 -2.4063
  643MOL0     H84816   6.666   5.313   3.334  0.8831 -0.8042  1.7971
  643MOL0     H84817   6.624   5.456   3.537  1.6941  1.9511 -2.6035
  643MOL0     H84818   6.448   5.392   3.523  0.7509 -2.6706 -1.4570
  643MOL0     H84819   6.627   5.579   3.360  0.4447  0.1140 -0.7144
  643MOL0     H84820   6.513   5.486   3.272  2.2796  2.5552 -0.7045
  643MOL0     H84821   6.446   5.708   3.320  0.4083 -0.2792 -0.5060
  643MOL0     H84822   6.411   5.668   3.491 -1.5801  0.3999 -1.2350
  643MOL0     H84823   6.273   5.475   3.419  1.9236 -0.5491 -0.1967
  643MOL0     H84824   6.269   5.541   3.261  0.0274 -1.1427  0.1565
  643MOL0     H84825   6.169   5.724   3.493  0.0827  0.7174  0.3211
  643MOL0     H84826   6.178   5.762   3.327 -0.7187 -0.4312 -0.7259
  643MOL0     H84827   6.012   5.534   3.428 -0.6933  0.0443 -0.2462
  643MOL0     H84828   6.022   5.604   3.256  1.4189  0.6686 -0.0991
  643MOL0     H84829   5.750   5.578   3.335  2.6743 -0.4484 -0.8986
  643MOL0     H84830   5.540   5.761   3.271  0.2474  1.9990 -0.5906
  643MOL0     H84831   5.549   5.914   3.359  3.7537  1.3020 -0.2878
  643MOL0     H84832   5.526   5.803   3.574  4.0099 -0.2178 -0.2249
  643MOL0     H84833   5.539   5.647   3.508  2.6286  0.4648 -1.1198
  643MOL0     H84834   5.306   5.811   3.413 -0.8117 -0.1758  0.4854
  643MOL0     H84835   5.338   5.649   3.375 -1.0355 -0.6446  0.2470
  643MOL0     H84836   5.160   5.691   3.564  0.4137 -0.2598 -2.6190
  643MOL0     H84837   5.301   5.702   3.670 -1.7723  1.7308  0.4600
  643MOL0     H84838   5.188   5.306   3.688  3.2422  0.0029 -1.6212
  643MOL0     H84839   5.022   5.163   3.617 -0.0929  1.2279  2.8342
  643MOL0     H84840   4.719   4.897   3.600 -2.1517  1.0327  0.4197
  643MOL0     H84841   4.551   4.741   3.540  2.2950 -2.3707 -0.2176
  643MOL0     H84842   4.497   4.619   3.115  0.5361  1.4879  0.7983
  643MOL0     H84843   4.385   4.761   3.124  1.8966  0.4344 -0.1105
  643MOL0     H84844   4.201   4.630   3.177 -0.7946 -1.7986 -0.1283
  643MOL0     H84845   4.296   4.494   3.228  4.2806 -0.0009 -0.0381
  643MOL0     H84846   4.354   4.434   2.985 -0.3305 -0.6066 -0.2896
  643MOL0     H84847   4.278   4.590   2.949 -0.6520 -0.9647 -0.8622
  643MOL0     H84848   4.099   4.404   3.093 -1.6259 -1.7486 -1.0076
  643MOL0     H84849   4.079   4.481   2.943 -0.8810 -1.0884 -1.5883
  643MOL0     H84850   4.060   4.243   2.940 -0.7191 -0.0690 -0.0276
  643MOL0     H84851   4.234   4.237   2.978  0.8627  2.1954  0.9345
  643MOL0     H84852   4.247   4.207   2.733 -0.2851  0.3413  0.0539
  643MOL0     H84853   4.296   4.360   2.784  0.1593  0.7115  0.9888
  643MOL0     H84854   4.065   4.461   2.722  2.1866  0.3621  1.5307
  643MOL0     H84855   4.164   4.390   2.583 -2.3335 -1.1648 -1.7748
  643MOL0     H84856   4.044   4.171   2.614  3.4649  0.5338  1.3840
  643MOL0     H84857   3.966   4.307   2.529 -6.1896  0.4078  2.6481
  643MOL0     H84858   4.597   4.837   3.129  0.2196 -0.7838  1.3311
  643MOL0     H84859   4.773   5.000   3.186  0.3029  4.0004  2.8165
  643MOL0     H84860   4.940   5.400   3.270 -1.5483 -1.1087  0.8991
  643MOL0     H84861   5.134   5.549   3.344 -1.0448 -0.2623 -1.2563
  643MOL0     H84862   6.882   5.346   3.393 -1.3978  0.3425 -0.1380
  643MOL0     H84863   7.113   5.278   3.318 -0.7101 -0.1315  0.4530
  643MOL0     H84864   7.475   5.139   3.258  1.0890  0.1949 -2.2787
  643MOL0     H84865   7.684   5.094   3.171  0.8251 -0.4619 -0.4225
  643MOL0     H84866   7.916   5.069   3.260 -0.2109  0.5636 -1.6404
  643MOL0     H84867   7.932   4.999   3.098  2.2171 -1.9735 -1.9523
  643MOL0     H84868   8.101   4.908   3.327 -1.4645 -1.7214 -0.4911
  643MOL0     H84869   8.084   4.841   3.170 -2.6454 -1.0812  2.4577
  643MOL0     H84870   8.173   5.135   3.226  0.6039  0.3775  0.2157
  643MOL0     H84871   8.158   5.054   3.066 -2.9649  0.0522  1.1377
  643MOL0     H84872   8.332   4.888   3.125  2.3706  1.1756 -1.2903
  643MOL0     H84873   8.391   5.047   3.130  0.5615  1.2723  0.3860
  643MOL0     H84874   8.442   4.914   3.528  1.0719 -0.6722 -0.1470
  643MOL0     H84875   7.712   4.717   3.384 -0.2561 -0.8860  0.0128
  643MOL0     H84876   7.474   4.750   3.455  1.2769 -0.3907  0.6437
  644MOL0     O84877   6.990   7.453   7.208  0.3881  0.0147  0.2064
  644MOL0     C84878   6.979   7.343   7.149  0.1075  0.2760  0.0567
  644MOL0     O84879   6.863   7.271   7.139 -0.6755 -0.4061  0.1846
  644MOL0     C84880   6.750   7.335   7.188  0.0674  0.1399  0.4257
  644MOL0     C84881   6.688   7.270   7.300  0.2408  0.3461  0.8364
  644MOL0     C84882   6.569   7.324   7.345 -0.3853 -0.0821  0.0454
  644MOL0     C84883   6.495   7.423   7.279 -0.6387 -0.5355 -0.5462
  644MOL0     O84884   6.370   7.459   7.322  0.1433  0.9501 -0.2939
  644MOL0     C84885   6.362   7.594   7.353  1.0798 -0.5126 -0.5889
  644MOL0     C84886   6.228   7.621   7.431  0.4347  0.1903 -0.0308
  644MOL0     C84887   6.101   7.629   7.342  0.7367 -0.4313 -0.4121
  644MOL0     C84888   5.982   7.656   7.437  0.5185 -0.6740  0.0486
  644MOL0     C84889   5.850   7.597   7.378  0.0150  0.3591  0.3078
  644MOL0     C84890   5.723   7.616   7.479  0.7098  0.3084 -0.3386
  644MOL0     C84891   5.579   7.593   7.416 -0.0346  0.6828 -0.0588
  644MOL0     C84892   5.568   7.693   7.298 -0.1840 -0.7658 -0.1981
  644MOL0     N84893   5.423   7.719   7.280  0.6949  0.6129  0.2144
  644MOL0     C84894   5.355   7.670   7.175  0.8071  0.3486  0.0390
  644MOL0     C84895   5.231   7.729   7.172 -0.4627 -0.1448 -1.4518
  644MOL0     C84896   5.135   7.729   7.066  0.1926 -0.3763 -0.2402
  644MOL0     C84897   5.004   7.672   7.118  0.9085  0.2612  0.2716
  644MOL0     C84898   4.908   7.783   7.164 -0.1320  0.5048 -0.1463
  644MOL0     C84899   4.767   7.732   7.201 -0.3902  1.2832  0.2906
  644MOL0     O84900   4.688   7.841   7.228  0.5251 -1.0063 -0.7560
  644MOL0     C84901   4.556   7.806   7.253 -0.0962 -0.6740 -0.3439
  644MOL0     C84902   4.500   7.676   7.259 -0.0350  0.0583 -0.4758
  644MOL0     C84903   4.364   7.657   7.276  0.4477 -0.3819 -0.2068
  644MOL0     C84904   4.281   7.767   7.297 -0.0282 -0.8439  0.6083
  644MOL0     C84905   4.139   7.752   7.325 -0.4135 -0.7219  0.9550
  644MOL0     O84906   4.071   7.861   7.352 -0.0885  0.3893  0.0757
  644MOL0     C84907   3.936   7.854   7.363 -0.2610  0.1291 -0.2474
  644MOL0     C84908   3.856   7.831   7.247  0.2643 -0.3932 -0.3439
  644MOL0     C84909   3.715   7.834   7.262  0.4459 -0.3116  0.3183
  644MOL0     C84910   3.659   7.842   7.390  0.3611  0.2591  0.0374
  644MOL0     O84911   3.523   7.843   7.401 -0.0831 -0.1017 -0.3289
  644MOL0     C84912   3.469   7.845   7.531  0.3151  0.3984 -0.0651
  644MOL0     C84913   3.315   7.839   7.520 -0.0797 -0.6737  0.0579
  644MOL0     C84914   3.263   7.964   7.438  0.4192 -0.6864  0.2906
  644MOL0     C84915   3.113   7.959   7.427  0.7284  0.1024  0.4587
  644MOL0     C84916   3.055   8.081   7.362  0.6262 -0.6287 -0.5435
  644MOL0     C84917   2.905   8.086   7.319 -0.3310 -0.1197  0.1973
  644MOL0     C84918   2.807   8.068   7.437  0.7853  0.8795 -0.0204
  644MOL0     C84919   2.661   8.086   7.407  0.0550  0.5073 -0.8373
  644MOL0    Cl84920   2.609   7.990   7.282  0.2937 -0.1683  0.0977
  644MOL0     C84921   3.746   7.874   7.498  0.6459 -0.2443  0.5050
  644MOL0     C84922   3.883   7.875   7.485 -1.4032 -0.1060  0.4022
  644MOL0     O84923   4.092   7.642   7.306 -0.1079 -0.8597  0.1845
  644MOL0     C84924   4.336   7.893   7.303 -0.7066 -0.5583 -0.0429
  644MOL0     C84925   4.472   7.913   7.273 -0.1300 -0.2559 -0.0871
  644MOL0     N84926   5.232   7.827   7.271 -1.4075  0.9564  0.1063
  644MOL0     N84927   5.353   7.823   7.332 -0.3622  0.2839 -0.0250
  644MOL0     C84928   6.557   7.479   7.165 -0.1443  0.5248 -0.5679
  644MOL0     C84929   6.687   7.444   7.118 -0.1026  0.1212 -0.2056
  644MOL0     C84930   7.103   7.289   7.090 -0.2813  0.0120  0.0356
  644MOL0     C84931   7.133   7.153   7.103  0.2185 -0.0494 -0.2931
  644MOL0     C84932   7.254   7.094   7.052 -0.1353  0.5456 -1.0286
  644MOL0     C84933   7.337   7.174   6.973 -0.0750  0.1020  0.2783
  644MOL0     O84934   7.451   7.124   6.907 -0.0978  0.5288  0.3481
  644MOL0     C84935   7.490   6.986   6.884  0.2626 -1.2142 -0.1543
  644MOL0     C84936   7.552   6.919   7.005  1.2209 -0.0936 -0.3049
  644MOL0     C84937   7.652   7.011   7.083 -0.0180  1.3580  0.1722
  644MOL0     C84938   7.694   6.934   7.204  0.3227  0.1794  0.2104
  644MOL0     C84939   7.813   6.999   7.262  0.6303  0.3842  0.1213
  644MOL0     C84940   7.913   7.056   7.295 -0.0618 -0.8447 -0.1314
  644MOL0     C84941   7.309   7.308   6.958  0.0136  0.1558  0.1842
  644MOL0     C84942   7.195   7.367   7.018  0.2445  0.9968  0.3087
  644MOL0     H84943   6.723   7.182   7.352 -1.2353 -0.1658  1.0251
  644MOL0     H84944   6.516   7.276   7.428 -0.1696 -0.6397 -0.1345
  644MOL0     H84945   6.353   7.654   7.262 -0.5121 -0.1266 -0.1931
  644MOL0     H84946   6.450   7.631   7.406 -0.6600 -0.3812  2.4053
  644MOL0     H84947   6.240   7.720   7.477 -3.9575  1.6790 -1.6266
  644MOL0     H84948   6.208   7.547   7.509 -1.4023  0.5979 -0.0716
  644MOL0     H84949   6.079   7.540   7.282 -0.1849 -1.1363  0.9236
  644MOL0     H84950   6.103   7.709   7.268 -2.3124  0.1043 -0.0574
  644MOL0     H84951   5.992   7.608   7.534  2.3786 -0.3411  0.0634
  644MOL0     H84952   5.955   7.760   7.459 -0.5843 -1.2550  1.5848
  644MOL0     H84953   5.850   7.493   7.345 -2.5883  0.0405  1.0621
  644MOL0     H84954   5.817   7.651   7.289 -1.2645  3.1445  2.3057
  644MOL0     H84955   5.731   7.720   7.514  2.5801 -0.4449  1.6584
  644MOL0     H84956   5.723   7.553   7.568  2.1750  2.5452  1.3638
  644MOL0     H84957   5.568   7.489   7.385  2.5741 -0.1822  1.6526
  644MOL0     H84958   5.495   7.604   7.486 -2.9643 -0.6614 -3.0407
  644MOL0     H84959   5.612   7.649   7.208  0.7577 -0.7498  0.2441
  644MOL0     H84960   5.610   7.788   7.333  0.5212 -1.3737  0.6444
  644MOL0     H84961   5.389   7.600   7.099  1.7249 -0.3149  1.0336
  644MOL0     H84962   5.171   7.665   6.985  1.3907  0.3612 -0.3202
  644MOL0     H84963   5.129   7.833   7.034  0.2509 -0.7037 -1.3731
  644MOL0     H84964   5.016   7.599   7.199  0.2562  1.1532  1.2038
  644MOL0     H84965   4.957   7.619   7.034  0.0737 -0.1137  0.9603
  644MOL0     H84966   4.943   7.818   7.261 -2.3877  0.4129  0.7512
  644MOL0     H84967   4.896   7.850   7.078  1.9270 -0.4230 -1.2299
  644MOL0     H84968   4.771   7.662   7.286  1.5211  0.5933 -0.3000
  644MOL0     H84969   4.742   7.667   7.116  1.2679 -0.5980  1.1375
  644MOL0     H84970   4.567   7.592   7.242 -0.0692  0.1480 -1.0694
  644MOL0     H84971   4.323   7.556   7.266  0.0615 -0.2240 -0.2347
  644MOL0     H84972   3.912   7.820   7.155  0.7532 -1.1482  0.0337
  644MOL0     H84973   3.648   7.825   7.176 -0.4478  0.5540  0.9052
  644MOL0     H84974   3.502   7.935   7.585 -0.6981  0.7381  0.0063
  644MOL0     H84975   3.500   7.754   7.582 -1.8744  0.2096  1.0163
  644MOL0     H84976   3.280   7.845   7.623  0.0613  0.4013  0.0536
  644MOL0     H84977   3.273   7.744   7.486  0.5924 -0.5929 -1.0775
  644MOL0     H84978   3.303   7.968   7.336 -1.1780  0.1719 -0.3431
  644MOL0     H84979   3.284   8.059   7.487  0.2826  1.1048 -2.8693
  644MOL0     H84980   3.090   7.873   7.363 -0.9806  0.1986  0.8987
  644MOL0     H84981   3.061   7.942   7.521 -2.5758 -0.7884 -1.3559
  644MOL0     H84982   3.117   8.102   7.274  1.7284  1.5103  0.6527
  644MOL0     H84983   3.071   8.152   7.444 -0.1116 -2.7296  1.5154
  644MOL0     H84984   2.881   8.006   7.248 -0.1359  0.5639 -0.6496
  644MOL0     H84985   2.878   8.180   7.271 -0.6372  0.5260  1.5936
  644MOL0     H84986   2.815   7.969   7.483 -2.9303  1.4009  2.0904
  644MOL0     H84987   2.835   8.137   7.518 -1.3860 -1.2313  2.7505
  644MOL0     H84988   2.652   8.187   7.367  0.4230 -0.1054 -2.5367
  644MOL0     H84989   2.595   8.081   7.494 -1.2444 -0.6445 -1.8486
  644MOL0     H84990   3.721   7.900   7.600 -0.4686 -2.4210  0.8511
  644MOL0     H84991   3.950   7.890   7.569  1.2003 -1.9454 -1.1901
  644MOL0     H84992   4.289   7.981   7.347 -0.8756  1.5861 -4.0438
  644MOL0     H84993   4.534   8.002   7.266  0.4715 -0.5508  1.2583
  644MOL0     H84994   6.502   7.561   7.121  0.8849  1.3979 -0.2727
  644MOL0     H84995   6.731   7.470   7.022  1.3949  0.4639  0.5408
  644MOL0     H84996   7.058   7.097   7.159  1.3492 -0.8714  0.4342
  644MOL0     H84997   7.276   6.988   7.057  0.5871  0.6779 -1.3027
  644MOL0     H84998   7.563   6.983   6.802 -0.8504 -1.5410 -1.1581
  644MOL0     H84999   7.399   6.937   6.850 -0.6172 -0.4014  0.9690
  644MOL0     H85000   7.478   6.893   7.081  0.3224  2.0496 -0.3670
  644MOL0     H85001   7.597   6.828   6.966 -2.0288 -1.5448 -0.9578
  644MOL0     H85002   7.609   7.109   7.106 -0.6706  0.9440  0.7404
  644MOL0     H85003   7.743   7.023   7.024  0.4666 -0.3666  0.5154
  644MOL0     H85004   7.613   6.946   7.276 -0.0246 -1.7227  0.2012
  644MOL0     H85005   7.723   6.832   7.175  0.2748  0.6072 -1.4327
  644MOL0     H85006   8.009   7.093   7.327  1.0140 -1.9211 -1.9436
  644MOL0     H85007   7.374   7.367   6.894  0.6516 -1.7936 -1.0768
  644MOL0     H85008   7.173   7.473   7.010 -1.0481  0.6835 -0.5634
  645MOL0     O85009   9.842   5.366   9.554  0.4281  0.4147  0.4984
  645MOL0     C85010   9.885   5.413   9.654 -1.1088 -0.5337  0.4051
  645MOL0     O85011   9.997   5.372   9.726  0.8888  0.6920  0.3582
  645MOL0     C85012  10.067   5.267   9.666 -0.3508  0.1391 -0.4509
  645MOL0     C85013  10.213   5.284   9.653 -0.0689  0.0239 -0.7182
  645MOL0     C85014  10.286   5.174   9.606  0.1912  0.2770  0.0717
  645MOL0     C85015  10.227   5.056   9.571 -0.1617 -0.0587 -0.2011
  645MOL0     O85016  10.313   4.954   9.527  0.1336  0.6866  0.7424
  645MOL0     C85017  10.265   4.849   9.436 -0.4365 -0.0092  0.0041
  645MOL0     C85018  10.370   4.735   9.425 -0.1312 -0.1462  0.1844
  645MOL0     C85019  10.408   4.687   9.566  0.0755  0.4671 -0.2330
  645MOL0     C85020  10.528   4.590   9.542  0.3526  0.2023 -0.6376
  645MOL0     C85021  10.562   4.521   9.675  0.4157 -0.8072  0.1162
  645MOL0     C85022  10.636   4.615   9.767 -0.5252  0.4625  0.1635
  645MOL0     C85023  10.701   4.550   9.887 -0.2551  0.0920  0.2723
  645MOL0     C85024  10.599   4.542   9.993  0.5620  0.3013 -0.7134
  645MOL0     N85025  10.670   4.489  10.112 -0.2139  0.3687  0.1899
  645MOL0     C85026  10.709   4.562  10.221 -0.8623 -0.2153  0.1662
  645MOL0     C85027  10.728   4.469  10.319  0.3341  0.1534 -0.4344
  645MOL0     C85028  10.762   4.501  10.454  0.2972 -0.1899  0.5028
  645MOL0     C85029  10.639   4.545  10.538  0.6146 -0.7080  0.7796
  645MOL0     C85030  10.544   4.434  10.547  0.5490  0.2647  0.0371
  645MOL0     C85031  10.421   4.471  10.622 -0.0299 -0.6084  0.0583
  645MOL0     O85032  10.337   4.355  10.623 -0.4294 -0.3106 -0.2057
  645MOL0     C85033  10.220   4.365  10.690 -0.0097  0.5144 -0.4630
  645MOL0     C85034  10.180   4.476  10.773  0.2909  0.1468  0.1307
  645MOL0     C85035  10.056   4.482  10.831  0.6117  0.4015 -0.0265
  645MOL0     C85036   9.961   4.378  10.814 -0.6949 -0.4012 -0.6313
  645MOL0     C85037   9.840   4.391  10.890  0.0017 -0.0656 -0.0472
  645MOL0     O85038   9.831   4.486  10.992  0.4644  0.5554 -0.1062
  645MOL0     C85039   9.715   4.492  11.071 -0.2425 -0.6966  0.0128
  645MOL0     C85040   9.587   4.483  11.018 -0.0613 -0.3520 -0.2495
  645MOL0     C85041   9.466   4.508  11.090 -0.2166 -0.2394  0.3819
  645MOL0     C85042   9.472   4.531  11.227  0.1924 -0.7755 -0.7833
  645MOL0     O85043   9.360   4.560  11.296  0.3143 -0.2786  0.3412
  645MOL0     C85044   9.311   4.468  11.394 -0.2657  0.4150  1.0258
  645MOL0     C85045   9.191   4.534  11.466  0.3990  0.1305 -0.2219
  645MOL0     C85046   9.066   4.524  11.379  0.8886  0.0442  0.1516
  645MOL0     C85047   8.944   4.589  11.457 -0.2056  0.2570 -0.1484
  645MOL0     C85048   8.826   4.621  11.368  0.7889 -0.8738  0.1793
  645MOL0     C85049   8.755   4.499  11.310 -0.3023  0.3793  0.2485
  645MOL0     C85050   8.683   4.418  11.416 -0.3233 -0.5174  0.4000
  645MOL0     C85051   8.540   4.471  11.449 -0.4091  0.4395 -0.5544
  645MOL0    Cl85052   8.454   4.349  11.540  0.2466  0.1363 -0.2229
  645MOL0     C85053   9.602   4.544  11.284  0.0590 -0.0348  0.3833
  645MOL0     C85054   9.722   4.525  11.209 -0.6211 -0.6767 -0.5371
  645MOL0     O85055   9.751   4.316  10.849  0.0387  0.3221 -0.3431
  645MOL0     C85056   9.999   4.271  10.733  0.0511  1.0899  0.5123
  645MOL0     C85057  10.124   4.264  10.668  0.5383 -0.3658 -0.7069
  645MOL0     N85058  10.699   4.345  10.269  0.8278 -0.6006  1.3445
  645MOL0     N85059  10.671   4.356  10.147 -0.1546 -0.3484  0.3801
  645MOL0     C85060  10.085   5.044   9.570  0.3066 -0.3905  0.0222
  645MOL0     C85061  10.009   5.149   9.623 -0.0499  0.4637 -0.7417
  645MOL0     C85062   9.823   5.527   9.721 -0.5590 -0.6347 -0.2194
  645MOL0     C85063   9.894   5.618   9.807  0.6682  0.4516 -0.1424
  645MOL0     C85064   9.835   5.728   9.865 -1.0880  0.3494  1.0268
  645MOL0     C85065   9.694   5.749   9.837 -0.0143 -0.8980 -0.7703
  645MOL0     O85066   9.622   5.849   9.897 -0.2685  0.1692 -1.0553
  645MOL0     C85067   9.684   5.944   9.987 -0.2846  0.8545  0.0020
  645MOL0     C85068   9.575   6.042  10.029 -0.4812  0.0455 -0.5777
  645MOL0     C85069   9.487   5.964  10.127  0.2581  0.0296  0.2689
  645MOL0     C85070   9.374   6.062  10.165  0.2375 -0.3864 -0.9004
  645MOL0     C85071   9.421   6.159  10.264  0.5413  0.2076 -0.5542
  645MOL0     C85072   9.476   6.246  10.323 -0.8261 -1.1926  0.0624
  645MOL0     C85073   9.624   5.660   9.755  0.8951 -0.5225 -0.3655
  645MOL0     C85074   9.686   5.542   9.703  0.0431  0.4363  0.3504
  645MOL0     H85075  10.261   5.379   9.675  1.7016 -1.2783  1.4830
  645MOL0     H85076  10.395   5.174   9.606  0.2544 -0.8504 -2.5880
  645MOL0     H85077  10.251   4.885   9.334 -2.3017 -2.3973 -0.6851
  645MOL0     H85078  10.165   4.813   9.463 -1.1088  1.2901 -0.6432
  645MOL0     H85079  10.461   4.770   9.377  1.2847 -1.1527  1.9796
  645MOL0     H85080  10.333   4.655   9.360 -1.6388  0.2916  0.4772
  645MOL0     H85081  10.320   4.644   9.614  0.2188  0.1591 -0.2399
  645MOL0     H85082  10.449   4.761   9.635  1.5092 -1.2261  0.8150
  645MOL0     H85083  10.491   4.512   9.474 -0.6733  1.1304 -1.1851
  645MOL0     H85084  10.619   4.639   9.507  0.7219  0.2301  0.3448
  645MOL0     H85085  10.636   4.442   9.658  1.1169  0.2304 -1.8992
  645MOL0     H85086  10.468   4.489   9.722 -1.5328  4.6350  0.6017
  645MOL0     H85087  10.571   4.697   9.801  1.9444  1.8412  1.8916
  645MOL0     H85088  10.722   4.657   9.715  0.5231 -0.7974  0.8200
  645MOL0     H85089  10.745   4.453   9.861  1.9848  0.5133  2.1732
  645MOL0     H85090  10.784   4.612   9.920  0.7301 -0.7304 -0.5681
  645MOL0     H85091  10.512   4.478   9.974  0.1363  0.8112 -0.5142
  645MOL0     H85092  10.562   4.641  10.022  3.3683  0.2177  4.0631
  645MOL0     H85093  10.732   4.668  10.215  2.0965 -0.6833  1.4518
  645MOL0     H85094  10.836   4.580  10.441 -1.8512  1.7649 -0.5623
  645MOL0     H85095  10.805   4.412  10.502 -1.3519 -0.9145  0.7214
  645MOL0     H85096  10.580   4.632  10.507 -1.6308  0.1106  6.1468
  645MOL0     H85097  10.671   4.584  10.636  0.3839  1.2554  0.1153
  645MOL0     H85098  10.516   4.403  10.446 -1.4406  0.2248  0.5406
  645MOL0     H85099  10.589   4.349  10.600  2.2598  2.7471  2.8147
  645MOL0     H85100  10.366   4.553  10.575  0.4504  0.0553  0.6305
  645MOL0     H85101  10.451   4.506  10.722 -2.0124 -0.5267  0.6746
  645MOL0     H85102  10.254   4.554  10.791  0.5299 -0.3902  1.6271
  645MOL0     H85103  10.027   4.559  10.902  1.2436 -1.3407  2.2398
  645MOL0     H85104   9.580   4.458  10.912  0.7235 -3.6670  0.3567
  645MOL0     H85105   9.366   4.500  11.048 -0.2317 -0.7611  0.5111
  645MOL0     H85106   9.399   4.438  11.452 -0.1044  0.3426  0.7446
  645MOL0     H85107   9.277   4.377  11.344 -0.3459 -0.0140  1.8419
  645MOL0     H85108   9.222   4.635  11.493  1.1518 -0.5876  1.8476
  645MOL0     H85109   9.160   4.479  11.556 -4.6149  0.8491 -1.2336
  645MOL0     H85110   9.050   4.418  11.361  2.4564 -0.1918  0.0407
  645MOL0     H85111   9.084   4.577  11.285 -1.2623  1.9821  0.7289
  645MOL0     H85112   8.912   4.522  11.537  0.6823  1.3345  1.1632
  645MOL0     H85113   8.977   4.682  11.505  3.4993 -1.0057  0.0926
  645MOL0     H85114   8.863   4.688  11.290 -1.3120  0.6325  0.3988
  645MOL0     H85115   8.753   4.680  11.424  0.0521  0.6449 -2.2374
  645MOL0     H85116   8.827   4.440  11.253 -1.3119 -1.6774  1.0101
  645MOL0     H85117   8.675   4.528  11.242 -0.6725 -0.6005  0.2537
  645MOL0     H85118   8.670   4.316  11.377 -1.3139  0.3347 -1.6781
  645MOL0     H85119   8.730   4.404  11.514 -0.1076  2.2246  0.7463
  645MOL0     H85120   8.500   4.498  11.351  1.1105 -0.1456 -1.3655
  645MOL0     H85121   8.533   4.561  11.510 -0.6672  0.6701 -0.9241
  645MOL0     H85122   9.608   4.559  11.392 -1.4185 -4.6011  1.3129
  645MOL0     H85123   9.815   4.529  11.265  0.2140  1.1267 -1.9638
  645MOL0     H85124   9.930   4.190  10.711  1.3172  0.1616 -0.2088
  645MOL0     H85125  10.146   4.170  10.619 -0.4526 -1.1309  0.2489
  645MOL0     H85126  10.050   4.945   9.544  3.3186 -0.9707 -2.4422
  645MOL0     H85127   9.902   5.132   9.615 -0.3265  2.3506 -1.7131
  645MOL0     H85128  10.001   5.604   9.812  0.5010 -2.1992 -1.6530
  645MOL0     H85129   9.904   5.792   9.919  0.3550  2.5792 -2.9667
  645MOL0     H85130   9.759   6.002   9.933 -0.8680  0.9563 -0.7222
  645MOL0     H85131   9.732   5.892  10.070 -1.3316 -2.6032 -1.3839
  645MOL0     H85132   9.623   6.126  10.081  0.2086 -0.2522 -0.7209
  645MOL0     H85133   9.519   6.083   9.944 -0.4797  3.6161  0.9430
  645MOL0     H85134   9.531   5.942  10.225 -3.3671  1.4434  2.4319
  645MOL0     H85135   9.444   5.877  10.076  0.9076 -0.2345  0.1646
  645MOL0     H85136   9.338   6.115  10.076 -0.7410  0.9110  0.2227
  645MOL0     H85137   9.286   6.007  10.202 -4.7473  6.0329 -1.3887
  645MOL0     H85138   9.539   6.320  10.367 -0.8742 -1.8666  1.3003
  645MOL0     H85139   9.517   5.664   9.740  0.6668  0.8671  1.3577
  645MOL0     H85140   9.630   5.465   9.651  1.5729 -1.0196  0.7527
  646MOL0     O85141   3.207   2.872  10.563  0.7130  0.0909 -0.2093
  646MOL0     C85142   3.241   2.752  10.538 -0.3531 -0.5847 -0.1609
  646MOL0     O85143   3.164   2.648  10.487  0.0128 -0.2970  0.3766
  646MOL0     C85144   3.039   2.688  10.455 -0.0218  0.4845  0.5660
  646MOL0     C85145   3.008   2.767  10.337 -0.1748  0.4359  0.0044
  646MOL0     C85146   2.883   2.804  10.306  0.2312 -0.0828  0.1995
  646MOL0     C85147   2.776   2.755  10.392 -0.5717  0.2206  0.4038
  646MOL0     O85148   2.654   2.796  10.345 -0.2135 -0.8111 -0.0849
  646MOL0     C85149   2.533   2.735  10.383 -0.0077  0.4289 -0.1081
  646MOL0     C85150   2.410   2.828  10.348  0.1067 -0.0920  0.7791
  646MOL0     C85151   2.284   2.760  10.386  0.1109  0.0684 -0.5364
  646MOL0     C85152   2.169   2.845  10.320 -0.4220 -1.3850  0.3315
  646MOL0     C85153   2.037   2.785  10.357 -0.3457 -0.0569  0.6731
  646MOL0     C85154   1.918   2.889  10.334 -0.1472  0.4172  0.4673
  646MOL0     C85155   1.786   2.845  10.392  0.7353 -0.1853  0.1426
  646MOL0     C85156   1.761   2.842  10.547 -0.1275 -0.3884 -0.1054
  646MOL0     N85157   1.625   2.799  10.575  0.5352 -0.5038 -1.2556
  646MOL0     C85158   1.580   2.671  10.578 -0.5028  0.7017 -0.4390
  646MOL0     C85159   1.446   2.675  10.578  1.2885 -0.0705 -0.3610
  646MOL0     C85160   1.354   2.552  10.588  0.1775  0.3401 -0.4119
  646MOL0     C85161   1.311   2.515  10.450  0.1611 -0.7488 -0.0354
  646MOL0     C85162   1.243   2.635  10.364  0.6815 -0.1902 -0.1230
  646MOL0     C85163   1.212   2.601  10.219 -0.3028 -0.5886 -1.6270
  646MOL0     O85164   1.111   2.499  10.222  0.0733 -0.1699 -0.3048
  646MOL0     C85165   0.984   2.512  10.279 -1.0154 -1.2635  0.0943
  646MOL0     C85166   0.920   2.388  10.302 -0.2979 -0.2428 -0.1614
  646MOL0     C85167   0.802   2.379  10.376 -0.6796 -0.1349 -0.1315
  646MOL0     C85168   0.739   2.495  10.429  0.5410 -0.4685  0.4251
  646MOL0     C85169   0.614   2.492  10.503 -0.0777 -0.3439  0.2597
  646MOL0     O85170   0.538   2.608  10.527 -0.4555  0.4464 -0.2075
  646MOL0     C85171   0.409   2.606  10.580  0.3976  0.4385  0.6680
  646MOL0     C85172   0.358   2.729  10.624  0.6157  0.5105  0.5147
  646MOL0     C85173   0.219   2.735  10.651  0.0101  0.0539 -0.3811
  646MOL0     C85174   0.134   2.621  10.661  0.1968  0.1308 -0.5754
  646MOL0     O85175   0.004   2.652  10.683 -0.2752 -0.3936  0.2722
  646MOL0     C85176  -0.095   2.541  10.689 -0.2608  0.0884  0.0016
  646MOL0     C85177  -0.232   2.610  10.724  0.3301 -0.1087 -0.1260
  646MOL0     C85178  -0.362   2.519  10.719 -0.2438 -0.4948 -0.0240
  646MOL0     C85179  -0.485   2.600  10.746  0.1976  0.1401  0.0163
  646MOL0     C85180  -0.601   2.514  10.719 -0.1595  1.2875  0.0064
  646MOL0     C85181  -0.744   2.568  10.760 -0.2222  0.4896 -0.1805
  646MOL0     C85182  -0.852   2.453  10.754  0.1383 -1.9222  0.3164
  646MOL0     C85183  -0.980   2.516  10.804 -0.2184  0.1548  0.3170
  646MOL0    Cl85184  -1.049   2.643  10.700 -0.4676  0.2406 -0.2050
  646MOL0     C85185   0.191   2.499  10.631 -0.3937  0.4095  0.0054
  646MOL0     C85186   0.327   2.491  10.589  0.5957  0.9445 -0.6556
  646MOL0     O85187   0.597   2.389  10.565 -0.2693 -0.7096 -0.1276
  646MOL0     C85188   0.801   2.622  10.406  0.2373  0.5079 -0.5516
  646MOL0     C85189   0.923   2.628  10.332 -0.7976  0.8635 -0.2373
  646MOL0     N85190   1.413   2.813  10.583  0.3784 -1.5901 -0.3351
  646MOL0     N85191   1.518   2.882  10.575  0.4407  0.4646 -0.1495
  646MOL0     C85192   2.802   2.681  10.510 -0.0627  0.2321 -0.2888
  646MOL0     C85193   2.934   2.644  10.541  0.0302  0.1499 -0.8381
  646MOL0     C85194   3.381   2.720  10.589  0.5419  0.4926  0.6742
  646MOL0     C85195   3.469   2.808  10.651 -0.4868  0.1944 -0.6703
  646MOL0     C85196   3.599   2.772  10.690 -0.3642  0.0775  0.6699
  646MOL0     C85197   3.648   2.650  10.663  0.3254  0.7095  0.0437
  646MOL0     O85198   3.773   2.594  10.687  0.7543 -0.5409 -0.4887
  646MOL0     C85199   3.871   2.682  10.749  0.0950 -0.1310 -0.0392
  646MOL0     C85200   3.843   2.665  10.906  0.2207 -0.8406  0.8835
  646MOL0     C85201   3.894   2.795  10.975 -0.8112  0.0287 -0.1676
  646MOL0     C85202   3.884   2.781  11.128  0.3112 -1.0200  1.2296
  646MOL0     C85203   3.981   2.690  11.182 -0.8029 -0.7026  0.1079
  646MOL0     C85204   4.055   2.600  11.224 -0.2422  0.6123  0.0530
  646MOL0     C85205   3.557   2.559  10.594  0.2731 -0.4691  0.3194
  646MOL0     C85206   3.429   2.593  10.560 -0.1904 -0.4464 -0.7731
  646MOL0     H85207   3.080   2.817  10.274  0.2350  0.4337  0.4683
  646MOL0     H85208   2.853   2.854  10.215 -1.7669 -0.4038  0.6350
  646MOL0     H85209   2.540   2.705  10.488 -1.2657 -1.7863 -0.5914
  646MOL0     H85210   2.523   2.642  10.326 -0.0821  0.6072 -0.3845
  646MOL0     H85211   2.422   2.833  10.239 -0.6474 -2.6988  0.5060
  646MOL0     H85212   2.415   2.929  10.389 -2.0264  0.3032  0.1707
  646MOL0     H85213   2.270   2.756  10.494 -0.3331 -1.8020 -0.6173
  646MOL0     H85214   2.280   2.658  10.345  2.6538  0.6928 -2.5704
  646MOL0     H85215   2.177   2.948  10.356  2.1098  0.1482 -3.8816
  646MOL0     H85216   2.186   2.855  10.212 -0.3953 -1.9639  0.2777
  646MOL0     H85217   2.047   2.755  10.462 -1.1995 -0.7235  0.5717
  646MOL0     H85218   2.015   2.694  10.301  1.3899 -0.2773  0.2958
  646MOL0     H85219   1.902   2.898  10.226 -3.8907 -0.4479  0.8265
  646MOL0     H85220   1.947   2.985  10.377  1.8584 -1.3292  3.3989
  646MOL0     H85221   1.707   2.899  10.339 -1.9530 -0.9597  3.0829
  646MOL0     H85222   1.783   2.744  10.350 -0.2047 -1.0541  2.1765
  646MOL0     H85223   1.783   2.939  10.593  1.1460 -1.9882  2.9432
  646MOL0     H85224   1.828   2.770  10.595 -0.5700  0.4275  1.8725
  646MOL0     H85225   1.636   2.579  10.570 -2.0701 -0.1472 -2.7346
  646MOL0     H85226   1.264   2.574  10.647  1.4781 -0.5241  2.0257
  646MOL0     H85227   1.400   2.468  10.640  1.9875  1.7205  0.3247
  646MOL0     H85228   1.230   2.441  10.447 -1.4832  0.9620 -3.4897
  646MOL0     H85229   1.394   2.482  10.386  0.4469  1.1070 -0.6744
  646MOL0     H85230   1.155   2.679  10.412 -1.0574 -0.1290 -3.1325
  646MOL0     H85231   1.301   2.727  10.355 -0.9036  0.8336 -0.3189
  646MOL0     H85232   1.302   2.558  10.174 -0.1199 -2.0982  0.0511
  646MOL0     H85233   1.187   2.694  10.168  0.1657  1.6299  1.8254
  646MOL0     H85234   0.973   2.298  10.273 -2.6749 -1.9048  0.3806
  646MOL0     H85235   0.770   2.277  10.398  1.3938 -0.8513 -0.2031
  646MOL0     H85236   0.422   2.817  10.617  0.3713  0.7433  1.1168
  646MOL0     H85237   0.173   2.830  10.674 -1.1393 -0.4437 -0.5965
  646MOL0     H85238  -0.074   2.473  10.772 -1.2375  0.4386  0.5518
  646MOL0     H85239  -0.100   2.482  10.597 -1.9543 -2.2676  1.4842
  646MOL0     H85240  -0.256   2.693  10.657 -1.0725 -0.3369  0.0748
  646MOL0     H85241  -0.226   2.647  10.827 -1.4823 -0.4978  0.1517
  646MOL0     H85242  -0.357   2.436  10.790  1.4556  2.4627  3.7052
  646MOL0     H85243  -0.366   2.476  10.619 -2.1489 -0.1742 -0.1287
  646MOL0     H85244  -0.478   2.640  10.847 -0.7487  2.5170 -0.7857
  646MOL0     H85245  -0.484   2.690  10.683  2.5730 -0.4229 -0.8351
  646MOL0     H85246  -0.596   2.426  10.785 -0.9488 -0.0247 -1.6233
  646MOL0     H85247  -0.605   2.497  10.611 -5.4279  0.7095  0.0617
  646MOL0     H85248  -0.771   2.654  10.699  0.2858 -1.2522 -3.0785
  646MOL0     H85249  -0.739   2.598  10.865 -2.3602  0.0517  0.0908
  646MOL0     H85250  -0.869   2.409  10.656  0.0613 -1.0575 -0.0647
  646MOL0     H85251  -0.822   2.370  10.818  0.5648 -0.0809  2.6697
  646MOL0     H85252  -0.960   2.568  10.898 -3.7732  2.7663 -0.1299
  646MOL0     H85253  -1.050   2.436  10.828 -1.8925  1.1082 -1.1430
  646MOL0     H85254   0.134   2.408  10.621  1.1294 -0.3385 -2.9750
  646MOL0     H85255   0.359   2.393  10.554 -2.2139  0.5485 -2.3969
  646MOL0     H85256   0.754   2.706  10.456 -1.5019 -1.2384  0.9155
  646MOL0     H85257   0.971   2.721  10.303  2.5621 -0.9673 -1.1190
  646MOL0     H85258   2.719   2.647  10.572 -1.1615  0.5188 -1.5524
  646MOL0     H85259   2.966   2.584  10.626  2.6437  2.1173 -0.2958
  646MOL0     H85260   3.439   2.912  10.662 -0.6437  0.0260  0.7064
  646MOL0     H85261   3.654   2.853  10.736  1.8649 -0.2604 -1.2532
  646MOL0     H85262   3.865   2.786  10.717 -1.6953 -0.0179  0.5457
  646MOL0     H85263   3.974   2.653  10.726  1.4052  2.7347  1.6519
  646MOL0     H85264   3.738   2.646  10.932  0.1740  0.5787  1.8833
  646MOL0     H85265   3.899   2.576  10.938 -2.4500 -2.5310  1.1577
  646MOL0     H85266   3.838   2.886  10.952  1.1613  1.1564 -0.7774
  646MOL0     H85267   4.001   2.806  10.954 -0.4640 -0.4497  1.2427
  646MOL0     H85268   3.887   2.884  11.164  1.5290 -0.3406 -0.6801
  646MOL0     H85269   3.785   2.750  11.163 -0.3192 -1.6883 -0.9939
  646MOL0     H85270   4.121   2.532  11.273  0.8470  1.1220 -0.6874
  646MOL0     H85271   3.602   2.465  10.563  0.5224 -0.4541  0.6318
  646MOL0     H85272   3.365   2.520  10.511  0.5190 -1.5054 -0.1774
  647MOL0     O85273   0.557  11.014   4.770 -0.1316  0.0244  0.7389
  647MOL0     C85274   0.565  11.123   4.721  0.1667 -1.1305 -0.5898
  647MOL0     O85275   0.480  11.229   4.745 -0.1331 -0.0848  0.7481
  647MOL0     C85276   0.368  11.221   4.830  0.7019  0.4504  0.8559
  647MOL0     C85277   0.283  11.111   4.830  0.6200 -1.1411  0.2528
  647MOL0     C85278   0.164  11.103   4.907 -0.1457  1.1900  0.1444
  647MOL0     C85279   0.134  11.208   4.989 -0.2004 -0.4981 -0.2305
  647MOL0     O85280   0.017  11.197   5.059  0.2471  0.0981  0.1452
  647MOL0     C85281  -0.035  11.319   5.120 -0.6905 -0.3619  0.2593
  647MOL0     C85282  -0.189  11.316   5.131 -0.0156 -0.0299 -1.3444
  647MOL0     C85283  -0.222  11.217   5.242  0.0941 -0.1475  0.6037
  647MOL0     C85284  -0.377  11.184   5.246  0.1875 -0.3637  0.3393
  647MOL0     C85285  -0.396  11.073   5.354 -0.5238  0.7364  0.4565
  647MOL0     C85286  -0.534  11.011   5.351  0.6808  0.5802 -0.5035
  647MOL0     C85287  -0.571  10.936   5.486  0.1774 -0.6640  0.4312
  647MOL0     C85288  -0.723  10.909   5.501 -0.0057  0.7469  0.7451
  647MOL0     N85289  -0.768  10.808   5.404 -0.5018 -0.4034 -0.2544
  647MOL0     C85290  -0.870  10.825   5.304 -0.3277 -0.1951 -0.4121
  647MOL0     C85291  -0.904  10.699   5.272  0.7660  0.2426  0.6060
  647MOL0     C85292  -1.017  10.682   5.173  0.0460  1.1460  0.1890
  647MOL0     C85293  -1.144  10.622   5.246  0.2296 -0.1551  0.4287
  647MOL0     C85294  -1.212  10.743   5.317 -0.5568  0.3347  0.2291
  647MOL0     C85295  -1.350  10.704   5.358 -0.1520  0.2873  0.0771
  647MOL0     O85296  -1.430  10.705   5.240  0.2514  0.2672 -0.4651
  647MOL0     C85297  -1.569  10.696   5.256 -0.2916 -0.3868  0.2556
  647MOL0     C85298  -1.655  10.711   5.144  0.1153  0.0741 -0.0174
  647MOL0     C85299  -1.788  10.692   5.149 -0.1295  0.8112  0.0097
  647MOL0     C85300  -1.858  10.666   5.271  0.0880  0.0608  0.5340
  647MOL0     C85301  -2.004  10.643   5.269 -0.2804 -0.1852 -0.1986
  647MOL0     O85302  -2.059  10.619   5.393 -0.1731  0.0927  0.1828
  647MOL0     C85303  -2.193  10.590   5.410  0.5474  0.3237 -0.1196
  647MOL0     C85304  -2.307  10.604   5.322  0.4289  0.0842 -0.0049
  647MOL0     C85305  -2.434  10.566   5.376  0.4336 -0.5384 -0.7135
  647MOL0     C85306  -2.459  10.535   5.514 -0.0470  0.1678  0.1665
  647MOL0     O85307  -2.589  10.530   5.555  0.2278  0.0996  0.2844
  647MOL0     C85308  -2.617  10.557   5.690 -0.2635  0.5012 -0.8530
  647MOL0     C85309  -2.765  10.557   5.720  0.5635 -0.2466 -0.1488
  647MOL0     C85310  -2.819  10.410   5.707 -0.3570  0.2762  0.2262
  647MOL0     C85311  -2.969  10.387   5.739 -0.3475  0.0444 -0.2337
  647MOL0     C85312  -3.026  10.255   5.690  0.0682 -0.4757  0.5638
  647MOL0     C85313  -3.175  10.236   5.744  0.2719 -0.1396  0.4544
  647MOL0     C85314  -3.234  10.095   5.730 -0.0931  0.5323 -0.6805
  647MOL0     C85315  -3.383  10.080   5.746 -0.8701 -0.1909  0.2989
  647MOL0    Cl85316  -3.422   9.914   5.695 -0.2036  0.0128  0.2400
  647MOL0     C85317  -2.336  10.520   5.591  1.1378  0.7342 -0.4356
  647MOL0     C85318  -2.213  10.547   5.541  0.5848  0.0799 -0.4335
  647MOL0     O85319  -2.059  10.617   5.168  1.1884 -0.5400  0.1749
  647MOL0     C85320  -1.776  10.670   5.387  0.2222  1.1037  0.0343
  647MOL0     C85321  -1.634  10.682   5.381 -0.1519  0.6514  0.1521
  647MOL0     N85322  -0.833  10.607   5.344  0.6527  0.3578 -0.2882
  647MOL0     N85323  -0.743  10.672   5.416  0.0402 -0.1391  0.2805
  647MOL0     C85324   0.223  11.321   4.998 -0.2633  0.3616 -0.3917
  647MOL0     C85325   0.333  11.323   4.913 -0.1577  0.2541  0.0429
  647MOL0     C85326   0.676  11.154   4.633 -0.3034 -0.5033  0.3286
  647MOL0     C85327   0.709  11.284   4.587 -0.4241  0.3487  0.6059
  647MOL0     C85328   0.802  11.314   4.499 -0.2545 -0.0146 -0.1505
  647MOL0     C85329   0.881  11.208   4.446  1.0381 -0.2715  0.1722
  647MOL0     O85330   0.984  11.224   4.356  0.6954  0.1900  0.0766
  647MOL0     C85331   0.999  11.348   4.275  0.6026 -1.0991  0.1024
  647MOL0     C85332   1.120  11.336   4.188 -0.1429 -0.4517 -0.4770
  647MOL0     C85333   1.115  11.224   4.087 -0.0333  0.1316  0.3697
  647MOL0     C85334   1.254  11.178   4.035 -0.7982 -0.5422  0.0199
  647MOL0     C85335   1.244  11.073   3.941 -0.0297  0.7805  0.5408
  647MOL0     C85336   1.246  10.993   3.849 -0.4775  0.1337 -0.2271
  647MOL0     C85337   0.850  11.078   4.490 -0.0812  1.4094 -0.1100
  647MOL0     C85338   0.748  11.046   4.578  0.0432  0.6254  0.3175
  647MOL0     H85339   0.305  11.029   4.762  0.0036 -1.7233  0.7424
  647MOL0     H85340   0.093  11.024   4.886 -0.3039  1.4055 -0.1436
  647MOL0     H85341  -0.008  11.402   5.054  0.3603 -0.9058 -0.0140
  647MOL0     H85342  -0.001  11.334   5.222 -1.2002  1.6038  0.1708
  647MOL0     H85343  -0.234  11.288   5.036  0.2809  2.7592 -2.4030
  647MOL0     H85344  -0.214  11.417   5.165  1.6735  0.1049 -0.3452
  647MOL0     H85345  -0.194  11.256   5.341  0.0125  0.7155  0.2998
  647MOL0     H85346  -0.165  11.124   5.239 -0.5997 -0.5843  0.6794
  647MOL0     H85347  -0.439  11.269   5.275 -3.5267 -2.6017 -0.3604
  647MOL0     H85348  -0.411  11.157   5.145 -0.7205  1.5342  0.0828
  647MOL0     H85349  -0.372  11.119   5.450  2.1994 -0.7666  0.5794
  647MOL0     H85350  -0.323  10.992   5.347 -0.4494  0.8513 -0.2031
  647MOL0     H85351  -0.536  10.943   5.265 -3.7685  2.3927 -2.1144
  647MOL0     H85352  -0.607  11.091   5.338  0.4656  0.7968  1.6442
  647MOL0     H85353  -0.510  10.844   5.484  1.4938  0.0249  3.5333
  647MOL0     H85354  -0.540  10.993   5.574  1.5361 -4.3572  2.5861
  647MOL0     H85355  -0.774  11.003   5.481 -0.2993  0.6212  0.9012
  647MOL0     H85356  -0.739  10.883   5.606 -1.5924  1.5188  0.7239
  647MOL0     H85357  -0.908  10.918   5.264 -1.4059 -0.0351  0.8946
  647MOL0     H85358  -0.977  10.606   5.105 -1.5560 -0.0430  0.4968
  647MOL0     H85359  -1.040  10.765   5.106  2.4051 -0.5319 -2.9804
  647MOL0     H85360  -1.130  10.548   5.325 -1.5481 -0.3529  0.5989
  647MOL0     H85361  -1.199  10.571   5.167  3.0356 -1.1776 -0.9908
  647MOL0     H85362  -1.150  10.766   5.404 -1.1068  1.2948  0.3873
  647MOL0     H85363  -1.215  10.828   5.247 -3.0599  0.9705  0.9826
  647MOL0     H85364  -1.396  10.767   5.435 -1.2308  0.3609 -0.5972
  647MOL0     H85365  -1.349  10.606   5.407 -1.8951 -1.6262 -3.2661
  647MOL0     H85366  -1.608  10.700   5.047 -0.4806  0.4871 -0.3631
  647MOL0     H85367  -1.853  10.695   5.063 -0.8449 -0.1401  0.4916
  647MOL0     H85368  -2.295  10.660   5.231 -2.0597  2.2372  0.8585
  647MOL0     H85369  -2.518  10.589   5.311  0.0844  3.3919  0.8394
  647MOL0     H85370  -2.578  10.654   5.721 -0.4624 -0.1799  1.7622
  647MOL0     H85371  -2.567  10.495   5.764 -0.3322  0.5472 -0.7673
  647MOL0     H85372  -2.827  10.612   5.648 -2.5843 -1.3816  1.5138
  647MOL0     H85373  -2.787  10.597   5.819  0.2540 -1.2824  0.2019
  647MOL0     H85374  -2.763  10.350   5.779  1.0871  1.7285  0.3910
  647MOL0     H85375  -2.798  10.381   5.604 -1.0005  1.2049 -0.1759
  647MOL0     H85376  -2.978  10.388   5.848 -1.1420  1.5564 -0.2842
  647MOL0     H85377  -3.034  10.465   5.700 -1.4291  0.1458  1.6636
  647MOL0     H85378  -2.968  10.167   5.717 -0.1930 -0.8675 -0.1413
  647MOL0     H85379  -3.024  10.256   5.581 -1.7194  1.2509  0.4896
  647MOL0     H85380  -3.239  10.302   5.684  2.9710 -0.0384 -2.5923
  647MOL0     H85381  -3.196  10.262   5.848 -1.8032  1.0765 -0.1919
  647MOL0     H85382  -3.211  10.061   5.628  1.1663  0.9908 -0.5691
  647MOL0     H85383  -3.190  10.029   5.805 -1.2559 -0.8911 -1.1908
  647MOL0     H85384  -3.445  10.146   5.685 -2.2706  0.2254  2.0790
  647MOL0     H85385  -3.408  10.096   5.851 -0.4523  1.4350  0.1826
  647MOL0     H85386  -2.342  10.501   5.697 -1.7322 -3.5418 -1.1036
  647MOL0     H85387  -2.133  10.548   5.614 -1.7277  4.2645  2.4918
  647MOL0     H85388  -1.828  10.642   5.478 -0.1188 -1.4233 -0.8651
  647MOL0     H85389  -1.587  10.672   5.479 -1.8283 -0.5426  0.8881
  647MOL0     H85390   0.209  11.399   5.072 -0.9575 -1.3444  1.3688
  647MOL0     H85391   0.393  11.413   4.920  3.2044 -1.8796  1.0374
  647MOL0     H85392   0.642  11.366   4.612 -2.0020 -0.2567 -1.3712
  647MOL0     H85393   0.821  11.418   4.473  1.4582 -0.2662 -0.0022
  647MOL0     H85394   1.011  11.432   4.343  0.0765  0.6157 -1.8227
  647MOL0     H85395   0.905  11.350   4.218 -0.1580  2.9676  1.2006
  647MOL0     H85396   1.126  11.434   4.139 -2.4074  0.8377  1.6214
  647MOL0     H85397   1.211  11.337   4.249 -0.4076  3.9317  0.1159
  647MOL0     H85398   1.048  11.243   4.002 -0.2124 -2.4784 -0.1756
  647MOL0     H85399   1.084  11.135   4.143  1.0912  0.1108  0.9813
  647MOL0     H85400   1.306  11.263   3.989  3.1837 -3.2363 -1.0338
  647MOL0     H85401   1.311  11.149   4.124 -1.8074 -1.1392  0.4791
  647MOL0     H85402   1.253  10.918   3.772 -1.7049  0.3798 -0.5859
  647MOL0     H85403   0.919  10.998   4.463  0.6981  2.6429 -1.9905
  647MOL0     H85404   0.732  10.941   4.598  0.7536  0.2746 -0.8709
  648MOL0     O85405   8.044   2.171   6.594 -0.6094  0.9467  0.0338
  648MOL0     C85406   8.077   2.277   6.644 -0.1589  0.3078 -0.5046
  648MOL0     O85407   7.994   2.353   6.711  0.4296  0.4471 -0.7827
  648MOL0     C85408   7.861   2.323   6.722 -0.3130  0.1565 -0.0258
  648MOL0     C85409   7.780   2.303   6.608 -0.4064  0.3536 -1.3399
  648MOL0     C85410   7.646   2.284   6.627  1.1311 -0.1786 -0.3813
  648MOL0     C85411   7.581   2.291   6.754  0.7199 -0.7500 -0.1425
  648MOL0     O85412   7.441   2.301   6.778  0.0827 -0.7488  0.4225
  648MOL0     C85413   7.386   2.441   6.762 -0.0376  1.1041 -0.7840
  648MOL0     C85414   7.249   2.434   6.713  0.0101  0.0903 -0.0470
  648MOL0     C85415   7.151   2.390   6.823 -0.3251  0.0415  0.3580
  648MOL0     C85416   7.003   2.384   6.764 -0.3535  0.0731 -0.7124
  648MOL0     C85417   6.898   2.398   6.869  0.4361  0.1079  0.2947
  648MOL0     C85418   6.894   2.535   6.924 -0.2630 -0.1675  0.2342
  648MOL0     C85419   6.762   2.568   6.988  0.4354  0.8492  0.5458
  648MOL0     C85420   6.728   2.479   7.112  0.1543 -1.1496 -0.2004
  648MOL0     N85421   6.612   2.548   7.178 -0.0754  0.5317  0.4243
  648MOL0     C85422   6.480   2.545   7.136  0.2083 -0.5597 -0.2353
  648MOL0     C85423   6.405   2.578   7.240 -0.6392 -0.3899 -0.4591
  648MOL0     C85424   6.262   2.550   7.262  0.5831 -0.1807  0.3846
  648MOL0     C85425   6.178   2.668   7.230 -0.5435  0.1983  0.4466
  648MOL0     C85426   6.186   2.781   7.340  0.8455  0.3958 -0.1007
  648MOL0     C85427   6.112   2.908   7.304 -0.2571 -0.0445  0.3203
  648MOL0     O85428   5.975   2.887   7.283 -0.1816 -0.4796 -0.4435
  648MOL0     C85429   5.893   2.987   7.233  0.0723  0.0692 -0.1981
  648MOL0     C85430   5.772   2.954   7.179  0.2139  0.4939  0.0921
  648MOL0     C85431   5.674   3.053   7.152  0.7682 -0.1775 -0.7848
  648MOL0     C85432   5.691   3.190   7.191 -0.2320 -0.2913  0.7672
  648MOL0     C85433   5.594   3.288   7.163  0.1233 -1.0774 -0.3900
  648MOL0     O85434   5.502   3.266   7.065 -0.8320  0.3359  0.6895
  648MOL0     C85435   5.383   3.334   7.043  0.9082 -0.0628  0.4708
  648MOL0     C85436   5.290   3.264   6.964 -0.4748 -0.2137  0.8528
  648MOL0     C85437   5.167   3.321   6.939  0.0560  0.3869  0.9511
  648MOL0     C85438   5.120   3.442   6.995 -0.6395  0.5732  0.2549
  648MOL0     O85439   4.997   3.466   6.972  0.2797 -0.6612  0.2896
  648MOL0     C85440   4.926   3.573   7.044 -0.6920  0.0257  0.7150
  648MOL0     C85441   4.781   3.530   7.064 -0.1574 -0.2535  0.3638
  648MOL0     C85442   4.724   3.562   7.203 -0.9558  1.0026  0.5858
  648MOL0     C85443   4.578   3.529   7.226 -0.2290  0.0078 -0.1556
  648MOL0     C85444   4.549   3.389   7.203  0.1005 -0.9053 -1.1456
  648MOL0     C85445   4.626   3.288   7.287  0.5843  0.0875 -0.4912
  648MOL0     C85446   4.613   3.312   7.435 -0.1260  0.6618 -0.5341
  648MOL0     C85447   4.668   3.210   7.534 -0.5275  0.3802 -0.0827
  648MOL0    Cl85448   4.836   3.133   7.496  0.6487 -0.1511 -0.3458
  648MOL0     C85449   5.211   3.518   7.070 -0.5376  0.6771  1.1559
  648MOL0     C85450   5.345   3.463   7.095  0.8921  0.1186  0.3091
  648MOL0     O85451   5.610   3.393   7.227 -0.6534  0.4378 -1.1522
  648MOL0     C85452   5.816   3.220   7.248  0.6229  0.5154 -0.4875
  648MOL0     C85453   5.913   3.125   7.265 -0.2725 -0.3990 -0.0957
  648MOL0     N85454   6.487   2.612   7.344 -0.0541 -0.8858  0.2296
  648MOL0     N85455   6.605   2.577   7.315  0.6686  0.1545  0.2421
  648MOL0     C85456   7.671   2.315   6.871 -0.2578 -0.3075 -0.1318
  648MOL0     C85457   7.805   2.330   6.851 -1.0088 -0.0275 -0.9513
  648MOL0     C85458   8.214   2.332   6.622 -1.0332  1.5119  0.0628
  648MOL0     C85459   8.253   2.454   6.688  0.5386  1.1917  0.0148
  648MOL0     C85460   8.376   2.510   6.671  0.5217 -0.1344 -0.2685
  648MOL0     C85461   8.467   2.448   6.582  0.3478 -0.3931 -0.0462
  648MOL0     O85462   8.593   2.496   6.550 -0.1986  0.8058 -0.0018
  648MOL0     C85463   8.641   2.623   6.595 -0.2064 -0.6083 -0.0403
  648MOL0     C85464   8.750   2.682   6.498  0.0976  0.9993 -0.2681
  648MOL0     C85465   8.788   2.828   6.513  0.0849  0.4685  0.1956
  648MOL0     C85466   8.897   2.886   6.412 -0.1921 -0.2201  0.8028
  648MOL0     C85467   8.846   2.886   6.275  0.6790  0.1104 -0.4649
  648MOL0     C85468   8.809   2.886   6.157  0.1477 -0.0686  0.4710
  648MOL0     C85469   8.420   2.335   6.512 -0.0964 -0.0313  0.4286
  648MOL0     C85470   8.299   2.281   6.525 -0.3599  0.2686 -0.1683
  648MOL0     H85471   7.828   2.287   6.512  1.7816 -2.8286  0.1100
  648MOL0     H85472   7.572   2.256   6.553 -0.5734 -0.8286  1.5044
  648MOL0     H85473   7.453   2.495   6.694  2.9957  1.8658  2.5241
  648MOL0     H85474   7.391   2.487   6.861 -0.9101  0.1646 -0.2817
  648MOL0     H85475   7.243   2.359   6.634  2.0587 -1.1790  0.9114
  648MOL0     H85476   7.221   2.527   6.662  3.4673  0.2813 -1.9437
  648MOL0     H85477   7.158   2.457   6.910 -1.0738  1.4394 -0.6080
  648MOL0     H85478   7.169   2.286   6.850  1.5273  0.1348 -0.4165
  648MOL0     H85479   6.994   2.466   6.692  0.8232 -1.7659 -3.0989
  648MOL0     H85480   6.996   2.295   6.700  0.3996 -1.6306  1.4587
  648MOL0     H85481   6.911   2.330   6.954 -1.0771 -0.9412 -0.2680
  648MOL0     H85482   6.806   2.372   6.816  1.1935 -0.2810 -0.8839
  648MOL0     H85483   6.909   2.604   6.841 -1.2266  0.3288  0.4571
  648MOL0     H85484   6.973   2.544   7.000 -0.3017  1.3574  0.1149
  648MOL0     H85485   6.771   2.673   7.018 -1.1643  1.1322  0.1227
  648MOL0     H85486   6.692   2.561   6.904  0.1477  0.7888  0.7898
  648MOL0     H85487   6.810   2.480   7.184 -1.3138  0.3042  1.5501
  648MOL0     H85488   6.712   2.374   7.083 -2.0315 -0.9535  0.1303
  648MOL0     H85489   6.458   2.507   7.037  0.0324 -4.4946  1.1208
  648MOL0     H85490   6.239   2.534   7.368  2.0638  0.3218  0.8051
  648MOL0     H85491   6.225   2.465   7.204 -1.0934 -1.1053  2.6525
  648MOL0     H85492   6.076   2.631   7.235  0.4274 -2.5885  2.3098
  648MOL0     H85493   6.199   2.712   7.132 -2.4257 -0.2529 -0.1913
  648MOL0     H85494   6.133   2.743   7.428 -1.7983  2.6649 -0.5558
  648MOL0     H85495   6.288   2.809   7.368  1.0992  0.1586 -0.7704
  648MOL0     H85496   6.168   2.952   7.221  1.4618  0.8404  1.8971
  648MOL0     H85497   6.116   2.978   7.388 -1.9649  0.8537 -0.2761
  648MOL0     H85498   5.742   2.859   7.136 -1.9690  0.9165  0.5772
  648MOL0     H85499   5.581   3.018   7.108 -0.6733  0.6806  1.3765
  648MOL0     H85500   5.318   3.169   6.920 -0.1483 -0.1779  0.9760
  648MOL0     H85501   5.105   3.257   6.878  1.9272 -2.7001  2.0807
  648MOL0     H85502   4.935   3.666   6.988 -0.0705  0.7073  1.9149
  648MOL0     H85503   4.969   3.602   7.140  0.7081  3.1558 -0.7279
  648MOL0     H85504   4.778   3.423   7.042 -1.2356 -0.1389 -0.1462
  648MOL0     H85505   4.713   3.571   6.989 -0.4589  0.3494  0.9573
  648MOL0     H85506   4.742   3.668   7.227  4.8182  0.6547 -0.5609
  648MOL0     H85507   4.790   3.511   7.273  2.1881 -1.8390 -3.8942
  648MOL0     H85508   4.538   3.552   7.325 -1.3221  1.3168 -0.8707
  648MOL0     H85509   4.520   3.593   7.159 -1.9837 -1.0563  0.2765
  648MOL0     H85510   4.565   3.365   7.098  2.2026  2.8817 -1.8929
  648MOL0     H85511   4.445   3.380   7.236  0.4337 -0.6427  0.0331
  648MOL0     H85512   4.728   3.271   7.251  0.1445 -1.6363 -0.9768
  648MOL0     H85513   4.572   3.195   7.271  1.8177 -0.3088 -2.6301
  648MOL0     H85514   4.657   3.409   7.459 -0.5914  0.7477 -0.0170
  648MOL0     H85515   4.506   3.326   7.453  0.0047  0.0140  0.8715
  648MOL0     H85516   4.600   3.126   7.519  0.7914 -0.6020 -0.8454
  648MOL0     H85517   4.655   3.250   7.635 -0.5626 -1.0113  0.4898
  648MOL0     H85518   5.186   3.613   7.117  1.7722  1.6890  0.4799
  648MOL0     H85519   5.422   3.512   7.154  1.5504 -2.1731  1.4616
  648MOL0     H85520   5.823   3.320   7.290 -0.8551 -0.2138  1.7140
  648MOL0     H85521   6.005   3.150   7.317 -1.3427 -0.5957  2.0262
  648MOL0     H85522   7.628   2.322   6.971 -1.1425  1.1868 -0.5862
  648MOL0     H85523   7.868   2.339   6.939  1.2556 -0.0820 -2.4865
  648MOL0     H85524   8.188   2.486   6.769  2.6936 -1.0101  2.8454
  648MOL0     H85525   8.394   2.603   6.724 -1.3024 -1.5868  3.1767
  648MOL0     H85526   8.677   2.622   6.698 -0.2620 -1.9442 -0.0280
  648MOL0     H85527   8.555   2.691   6.590  0.9982  0.8767 -3.8004
  648MOL0     H85528   8.835   2.614   6.511 -0.0053  0.9554  0.2003
  648MOL0     H85529   8.703   2.657   6.402 -6.0597 -1.9560  2.9389
  648MOL0     H85530   8.834   2.837   6.612  3.1229  2.5787 -1.2576
  648MOL0     H85531   8.708   2.902   6.512  0.2062  0.6838  2.2001
  648MOL0     H85532   8.921   2.991   6.433 -0.5416  0.8534 -3.3352
  648MOL0     H85533   8.989   2.828   6.423  0.2920  0.5442  0.9256
  648MOL0     H85534   8.789   2.902   6.053 -1.0695 -2.3389  0.2965
  648MOL0     H85535   8.489   2.302   6.435 -1.4796 -0.1563 -0.8152
  648MOL0     H85536   8.286   2.198   6.457  4.3579  0.0669 -1.1130
  649MOL0     O85537   6.218   0.581   3.934  0.4423  0.8159  0.6419
  649MOL0     C85538   6.273   0.694   3.938 -0.4576  1.0692  0.2811
  649MOL0     O85539   6.238   0.804   3.873 -0.7162  0.1893 -0.3239
  649MOL0     C85540   6.119   0.795   3.815  0.4724  0.2028 -0.1053
  649MOL0     C85541   6.003   0.848   3.879  0.6984 -0.2173 -0.0797
  649MOL0     C85542   5.880   0.845   3.800 -1.1619 -0.6488  0.2420
  649MOL0     C85543   5.868   0.781   3.684 -0.1793  0.6533 -0.0544
  649MOL0     O85544   5.751   0.772   3.612  0.4186 -0.4297 -0.6883
  649MOL0     C85545   5.622   0.762   3.676 -0.0830  0.0890 -0.8016
  649MOL0     C85546   5.521   0.721   3.571 -0.2964 -0.2284  1.0755
  649MOL0     C85547   5.378   0.713   3.613  0.4521  0.6950 -0.5991
  649MOL0     C85548   5.306   0.594   3.533 -0.3591 -0.3506 -0.7794
  649MOL0     C85549   5.164   0.581   3.572  0.6506  0.4468 -0.5577
  649MOL0     C85550   5.067   0.682   3.504 -0.2437  0.6822 -1.0965
  649MOL0     C85551   4.924   0.659   3.556  0.1851  0.3155  0.6939
  649MOL0     C85552   4.853   0.797   3.550  0.1032 -0.2429  0.2752
  649MOL0     N85553   4.705   0.786   3.573  0.3536 -0.0723 -0.7607
  649MOL0     C85554   4.655   0.697   3.667 -0.4149 -1.1267 -0.7149
  649MOL0     C85555   4.520   0.699   3.644  0.1595 -0.0109  0.1503
  649MOL0     C85556   4.423   0.607   3.714  0.2508 -0.1590 -0.4372
  649MOL0     C85557   4.279   0.658   3.710 -0.3820  0.4751 -0.4376
  649MOL0     C85558   4.177   0.580   3.791  0.8391  0.3684 -0.4790
  649MOL0     C85559   4.039   0.641   3.805  0.1433  0.3088 -0.5944
  649MOL0     O85560   3.972   0.662   3.675 -0.5297  0.1982  0.5231
  649MOL0     C85561   3.835   0.692   3.681  0.1302  0.3756  0.2764
  649MOL0     C85562   3.767   0.772   3.775  0.0994  0.1397 -0.3368
  649MOL0     C85563   3.634   0.805   3.764  0.4471  0.2835 -0.5307
  649MOL0     C85564   3.568   0.742   3.661  0.3139  0.2610 -0.2722
  649MOL0     C85565   3.419   0.753   3.650  0.6982 -0.1253  0.2084
  649MOL0     O85566   3.361   0.666   3.560 -0.3470 -0.3317 -0.1140
  649MOL0     C85567   3.226   0.663   3.561  0.9590  0.4492  0.1368
  649MOL0     C85568   3.164   0.563   3.635 -0.5866  0.5274  0.5219
  649MOL0     C85569   3.022   0.537   3.625 -0.0711  0.2256 -0.8720
  649MOL0     C85570   2.948   0.616   3.540 -0.6492 -0.5269 -0.2679
  649MOL0     O85571   2.812   0.602   3.514  0.5634 -0.1662 -0.1317
  649MOL0     C85572   2.759   0.465   3.521 -0.1999 -0.2260  0.1978
  649MOL0     C85573   2.635   0.473   3.433 -0.1963  0.1186 -0.2627
  649MOL0     C85574   2.576   0.336   3.411 -0.2949  0.0169 -0.0151
  649MOL0     C85575   2.666   0.231   3.337 -0.4449 -0.2979 -0.2272
  649MOL0     C85576   2.575   0.102   3.315  0.1711 -0.4404  0.3553
  649MOL0     C85577   2.637  -0.007   3.224 -0.7633 -0.1299 -0.5170
  649MOL0     C85578   2.541  -0.132   3.232 -0.6624 -0.0399  0.5519
  649MOL0     C85579   2.586  -0.230   3.115 -0.5079  0.0132  0.0046
  649MOL0    Cl85580   2.528  -0.175   2.952 -0.1952  0.3765  0.2264
  649MOL0     C85581   3.010   0.728   3.479  0.0552 -0.2527  0.0994
  649MOL0     C85582   3.143   0.753   3.490 -0.2369  1.2436 -0.3047
  649MOL0     O85583   3.355   0.812   3.735  0.1589  0.2860  0.1016
  649MOL0     C85584   3.629   0.653   3.567  0.7783 -0.7846  0.5086
  649MOL0     C85585   3.767   0.636   3.572 -0.2081  0.0434  0.7961
  649MOL0     N85586   4.495   0.792   3.543 -0.7624  0.5718 -0.1757
  649MOL0     N85587   4.611   0.854   3.511  0.3508 -0.1446  0.0454
  649MOL0     C85588   5.982   0.722   3.628 -0.0325 -0.3664 -0.6343
  649MOL0     C85589   6.102   0.734   3.687 -0.3726 -0.5336 -0.2873
  649MOL0     C85590   6.410   0.687   3.987 -0.5401 -0.5881  0.4461
  649MOL0     C85591   6.483   0.572   3.961 -0.4684 -0.3520  0.8369
  649MOL0     C85592   6.617   0.568   3.996 -0.3967  0.1573 -0.4708
  649MOL0     C85593   6.678   0.664   4.082  0.1568 -0.0022  0.4789
  649MOL0     O85594   6.807   0.641   4.135  0.7897  0.6794  0.0403
  649MOL0     C85595   6.850   0.732   4.234 -0.1237  0.5530  0.3380
  649MOL0     C85596   6.811   0.692   4.375  0.4602 -0.1835  0.4708
  649MOL0     C85597   6.838   0.538   4.394  0.2971 -0.2829  0.0081
  649MOL0     C85598   6.762   0.497   4.518 -0.0712 -0.5879 -0.6063
  649MOL0     C85599   6.795   0.371   4.576 -0.0284  0.1958  0.0495
  649MOL0     C85600   6.823   0.265   4.630 -0.1994  0.2455  0.1503
  649MOL0     C85601   6.597   0.768   4.119 -0.4848 -0.3226  0.7671
  649MOL0     C85602   6.468   0.792   4.065 -0.7165 -0.4802 -0.5816
  649MOL0     H85603   6.014   0.892   3.978  2.5353  0.6534 -0.6167
  649MOL0     H85604   5.789   0.894   3.833 -1.5601  0.0612 -1.7604
  649MOL0     H85605   5.602   0.864   3.712  1.2607 -0.5528  1.9470
  649MOL0     H85606   5.625   0.692   3.759  1.8813 -0.3437 -1.1967
  649MOL0     H85607   5.559   0.624   3.537  1.1718  1.2218 -1.7045
  649MOL0     H85608   5.527   0.785   3.483 -2.3250 -0.2125  0.8999
  649MOL0     H85609   5.320   0.804   3.595 -0.8939 -0.0050 -0.0099
  649MOL0     H85610   5.363   0.692   3.720 -1.5334 -0.5507 -1.0581
  649MOL0     H85611   5.303   0.618   3.426  1.9262  0.2523 -0.7509
  649MOL0     H85612   5.366   0.502   3.536  2.9245  1.4675 -3.4199
  649MOL0     H85613   5.154   0.593   3.680 -1.3310  1.6465 -0.8126
  649MOL0     H85614   5.132   0.478   3.554 -1.9556  1.1712 -0.5946
  649MOL0     H85615   5.072   0.681   3.395  2.8274  2.9777 -1.1051
  649MOL0     H85616   5.112   0.775   3.542  0.5688 -0.7526  1.7133
  649MOL0     H85617   4.875   0.586   3.491 -0.3314  1.9184 -0.7681
  649MOL0     H85618   4.916   0.627   3.661 -1.1133  1.6426  1.0404
  649MOL0     H85619   4.866   0.846   3.453  1.9931 -0.4027  0.4109
  649MOL0     H85620   4.899   0.863   3.625 -0.6041  0.0928  0.4250
  649MOL0     H85621   4.720   0.641   3.734  2.9418  2.6057 -0.4756
  649MOL0     H85622   4.452   0.607   3.820  0.7780  0.7810 -0.5700
  649MOL0     H85623   4.425   0.509   3.665 -1.5499 -0.3576 -0.1995
  649MOL0     H85624   4.251   0.645   3.605  1.8028 -0.7864 -0.9170
  649MOL0     H85625   4.278   0.761   3.747  0.4744 -0.2766  1.8565
  649MOL0     H85626   4.178   0.482   3.742  0.3601 -0.7097  1.5694
  649MOL0     H85627   4.214   0.552   3.890  2.2258 -3.6209 -1.9143
  649MOL0     H85628   4.045   0.733   3.863  1.6416  0.0354 -0.2742
  649MOL0     H85629   3.985   0.573   3.871  2.8239 -1.0879  0.3074
  649MOL0     H85630   3.835   0.818   3.846 -1.0429  2.7445 -0.7924
  649MOL0     H85631   3.581   0.865   3.837 -1.8488 -1.2693 -0.8203
  649MOL0     H85632   3.219   0.492   3.695 -0.9575 -1.7634 -1.6809
  649MOL0     H85633   2.980   0.448   3.670  0.3265 -0.4457 -1.7992
  649MOL0     H85634   2.732   0.441   3.624 -0.7062 -1.4374 -0.2034
  649MOL0     H85635   2.825   0.389   3.479  2.4552  3.0754 -2.1044
  649MOL0     H85636   2.664   0.517   3.337  0.8167 -1.0860 -0.5400
  649MOL0     H85637   2.576   0.539   3.497 -1.1627 -2.5723  1.8221
  649MOL0     H85638   2.491   0.358   3.345 -0.3995  1.1152  0.4649
  649MOL0     H85639   2.536   0.299   3.505  0.3504 -0.6399  0.0113
  649MOL0     H85640   2.699   0.265   3.238 -1.8059  0.1748 -0.5372
  649MOL0     H85641   2.759   0.206   3.390  1.2026 -0.7445 -3.1350
  649MOL0     H85642   2.474   0.125   3.280 -1.0236 -1.3465  2.9547
  649MOL0     H85643   2.571   0.061   3.417 -0.6722  1.9636  1.3716
  649MOL0     H85644   2.738  -0.036   3.257  0.3970  3.6667 -0.2147
  649MOL0     H85645   2.653   0.038   3.126  0.9609 -1.5671 -0.9484
  649MOL0     H85646   2.545  -0.176   3.332  1.0317  1.5630  1.2458
  649MOL0     H85647   2.437  -0.101   3.213 -0.8747 -1.8180 -1.5812
  649MOL0     H85648   2.538  -0.325   3.138 -0.0624 -0.1276  0.3675
  649MOL0     H85649   2.695  -0.242   3.120 -0.1402  2.1682 -1.4786
  649MOL0     H85650   2.957   0.777   3.398 -0.5501 -1.5753 -0.3368
  649MOL0     H85651   3.188   0.836   3.437 -1.2254  1.6525 -0.5154
  649MOL0     H85652   3.576   0.608   3.484  1.2166  0.3196 -0.3895
  649MOL0     H85653   3.807   0.579   3.489 -2.2358 -1.3464  0.6957
  649MOL0     H85654   5.970   0.653   3.545 -1.3632  1.7553 -2.3232
  649MOL0     H85655   6.189   0.693   3.637 -0.5881  1.5890 -2.5764
  649MOL0     H85656   6.447   0.487   3.903  1.2121  0.7951 -2.0926
  649MOL0     H85657   6.680   0.485   3.965  0.4964 -0.7977  3.3211
  649MOL0     H85658   6.809   0.832   4.219  0.3062  0.8379  1.0289
  649MOL0     H85659   6.959   0.743   4.230 -0.3924  3.5389 -0.9117
  649MOL0     H85660   6.867   0.749   4.450 -0.7619  1.4972  0.1721
  649MOL0     H85661   6.705   0.711   4.392  0.2238  0.8477 -1.7232
  649MOL0     H85662   6.942   0.505   4.389  0.8964  1.5374  0.0766
  649MOL0     H85663   6.789   0.482   4.313 -2.8069  0.6313  1.1096
  649MOL0     H85664   6.777   0.559   4.607 -1.9845 -1.3237  0.2859
  649MOL0     H85665   6.658   0.512   4.488 -1.0488 -0.0801  2.7075
  649MOL0     H85666   6.859   0.177   4.679  0.0448 -1.1772 -2.4569
  649MOL0     H85667   6.623   0.835   4.200  1.0796 -0.3195  0.2955
  649MOL0     H85668   6.421   0.888   4.082 -1.4589 -0.8860 -0.2902
  650MOL0     O85669   0.164   5.302   1.418  0.5650 -0.4368  0.8477
  650MOL0     C85670   0.272   5.327   1.359 -0.2332  1.2278  0.0452
  650MOL0     O85671   0.301   5.301   1.230 -0.0128 -0.8377  0.0217
  650MOL0     C85672   0.193   5.303   1.142  0.2314  0.7108 -0.5906
  650MOL0     C85673   0.157   5.181   1.089  0.0449  0.0044 -0.1255
  650MOL0     C85674   0.050   5.168   1.006 -0.5825  0.3119  0.4744
  650MOL0     C85675  -0.017   5.275   0.951 -0.5210 -0.0777  0.5711
  650MOL0     O85676  -0.117   5.258   0.860  0.0028 -0.2408  0.4066
  650MOL0     C85677  -0.205   5.145   0.871 -0.1525  0.2187  0.4257
  650MOL0     C85678  -0.317   5.144   0.769 -0.5325  0.6284 -0.5237
  650MOL0     C85679  -0.417   5.019   0.789 -0.0247 -0.2025 -0.3556
  650MOL0     C85680  -0.533   5.020   0.684 -0.3294  0.8754  0.4400
  650MOL0     C85681  -0.601   4.877   0.664  0.7370  0.4486  0.2540
  650MOL0     C85682  -0.652   4.855   0.518 -0.0907  0.6047  0.3446
  650MOL0     C85683  -0.746   4.722   0.525  0.1218  0.3285 -0.3398
  650MOL0     C85684  -0.825   4.697   0.394 -0.6183  0.0096  0.4691
  650MOL0     N85685  -0.732   4.687   0.277  0.2666 -0.0362  0.5104
  650MOL0     C85686  -0.622   4.606   0.264 -0.1921  0.8504 -0.1835
  650MOL0     C85687  -0.556   4.624   0.155  0.1031  0.9966  0.4517
  650MOL0     C85688  -0.440   4.545   0.092 -0.7815 -0.2074  0.4584
  650MOL0     C85689  -0.302   4.616   0.125 -0.0400  0.1735 -0.0778
  650MOL0     C85690  -0.193   4.520   0.082  0.5314 -0.2897 -0.0728
  650MOL0     C85691  -0.053   4.567   0.093 -0.4548 -0.1218  0.7308
  650MOL0     O85692   0.026   4.463   0.019  0.8252  0.4618 -0.3715
  650MOL0     C85693   0.165   4.465   0.021  0.7447  0.2889 -0.5627
  650MOL0     C85694   0.234   4.557   0.095  0.1752 -0.3223  0.4857
  650MOL0     C85695   0.375   4.559   0.103  0.0674 -0.3639  0.3247
  650MOL0     C85696   0.455   4.471   0.033 -0.7117 -0.2623 -0.2459
  650MOL0     C85697   0.596   4.491   0.036 -0.9035 -0.0178  0.6837
  650MOL0     O85698   0.668   4.479  -0.080  0.7220  0.5977 -0.4821
  650MOL0     C85699   0.812   4.477  -0.061  0.0435  0.1599  0.3867
  650MOL0     C85700   0.882   4.598  -0.065  0.6097 -0.6113  0.0001
  650MOL0     C85701   1.018   4.604  -0.039 -0.3655 -0.0379  0.4561
  650MOL0     C85702   1.086   4.487  -0.022  0.1137  0.3011  0.6196
  650MOL0     O85703   1.217   4.495   0.020  0.2228 -0.2586  0.3246
  650MOL0     C85704   1.314   4.413  -0.044  0.4860  0.1019 -0.4859
  650MOL0     C85705   1.442   4.489  -0.029  0.2913  0.1461 -0.1063
  650MOL0     C85706   1.451   4.622  -0.100  0.5719  0.2714 -0.6155
  650MOL0     C85707   1.552   4.722  -0.041 -0.1837  0.2650 -0.4508
  650MOL0     C85708   1.693   4.661  -0.053 -0.5864  0.3739  0.4495
  650MOL0     C85709   1.790   4.734   0.037  0.9038 -0.3895 -0.3338
  650MOL0     C85710   1.933   4.678   0.017  0.0540 -0.0536 -0.3895
  650MOL0     C85711   2.029   4.782   0.083 -0.9611 -0.4134 -1.0277
  650MOL0    Cl85712   2.205   4.724   0.074  0.2149 -0.1905  0.1954
  650MOL0     C85713   1.020   4.364  -0.016 -0.6282 -0.2594 -0.2174
  650MOL0     C85714   0.884   4.361  -0.047 -0.0232 -0.6596  0.4639
  650MOL0     O85715   0.644   4.505   0.151  0.2550  0.3968  0.4546
  650MOL0     C85716   0.383   4.377  -0.046 -0.3381  0.0553 -0.3152
  650MOL0     C85717   0.240   4.369  -0.043 -0.7019 -0.0869 -0.4377
  650MOL0     N85718  -0.624   4.724   0.092  0.6680  1.1131  0.1088
  650MOL0     N85719  -0.727   4.766   0.171 -0.4602  0.3930 -0.1625
  650MOL0     C85720   0.031   5.401   0.985  0.2240 -0.6910 -0.8081
  650MOL0     C85721   0.133   5.412   1.085 -0.5438  0.0457 -0.2303
  650MOL0     C85722   0.382   5.373   1.444 -0.9874 -0.7553  0.4121
  650MOL0     C85723   0.364   5.449   1.556  0.0311 -0.7463 -0.1148
  650MOL0     C85724   0.464   5.493   1.636 -0.3270  0.3547 -0.4923
  650MOL0     C85725   0.591   5.450   1.610 -0.0346  0.0996 -0.1160
  650MOL0     O85726   0.689   5.500   1.688 -0.1480 -0.2174  0.3152
  650MOL0     C85727   0.825   5.500   1.640  1.0446  0.0879  0.2145
  650MOL0     C85728   0.918   5.549   1.744  1.0465 -0.4458  0.1317
  650MOL0     C85729   1.068   5.526   1.712  0.2777 -0.3107 -0.3434
  650MOL0     C85730   1.159   5.553   1.831 -0.1603  0.1470  0.3954
  650MOL0     C85731   1.298   5.564   1.791  0.9958  0.9846  0.5747
  650MOL0     C85732   1.411   5.569   1.761 -0.1361  0.0820  0.1762
  650MOL0     C85733   0.619   5.365   1.501 -0.0765  0.0322  0.3709
  650MOL0     C85734   0.515   5.335   1.418  0.4294  0.2107  0.2887
  650MOL0     H85735   0.210   5.094   1.125  2.2744  1.2207 -0.3084
  650MOL0     H85736   0.023   5.065   0.987  1.1077  0.2477 -1.9840
  650MOL0     H85737  -0.243   5.141   0.973  1.0141 -0.1751  0.8559
  650MOL0     H85738  -0.150   5.054   0.845  0.8442  1.4808 -2.2926
  650MOL0     H85739  -0.272   5.136   0.669 -0.3713 -0.4449 -0.3763
  650MOL0     H85740  -0.367   5.241   0.779 -1.9585 -0.1324  0.0615
  650MOL0     H85741  -0.460   5.013   0.889 -0.2790  1.6363 -0.3147
  650MOL0     H85742  -0.365   4.924   0.783  3.9769  1.8477 -1.4393
  650MOL0     H85743  -0.609   5.095   0.710  0.9669  1.6459  2.2322
  650MOL0     H85744  -0.490   5.046   0.587 -2.2510 -1.7462 -1.2738
  650MOL0     H85745  -0.683   4.876   0.736  1.6855  0.7675  1.3702
  650MOL0     H85746  -0.533   4.794   0.687 -0.1050  0.3121  2.5625
  650MOL0     H85747  -0.564   4.830   0.458  0.0808 -0.3180  0.9616
  650MOL0     H85748  -0.707   4.935   0.468  1.3112  0.8780 -0.8063
  650MOL0     H85749  -0.676   4.638   0.538  0.7101  0.4323 -2.4653
  650MOL0     H85750  -0.817   4.722   0.608  1.0900 -1.3450  0.5632
  650MOL0     H85751  -0.896   4.779   0.386  0.8984  1.3120 -0.2966
  650MOL0     H85752  -0.881   4.604   0.401 -0.9535  0.1834  0.1122
  650MOL0     H85753  -0.584   4.547   0.346  0.7349  1.2910 -0.2887
  650MOL0     H85754  -0.458   4.542  -0.016  0.8270  0.2210  0.1554
  650MOL0     H85755  -0.433   4.444   0.131  2.3850 -1.2614 -2.4102
  650MOL0     H85756  -0.298   4.636   0.232  2.1961  0.3101 -0.1447
  650MOL0     H85757  -0.302   4.711   0.071  0.8824 -1.4336 -3.1291
  650MOL0     H85758  -0.195   4.437   0.153 -0.6189 -0.2372 -0.0240
  650MOL0     H85759  -0.220   4.480  -0.016  1.3017 -1.7456  0.2693
  650MOL0     H85760  -0.023   4.569   0.198  3.6900  0.3777 -0.2777
  650MOL0     H85761  -0.049   4.662   0.039  1.7285 -0.7918 -0.4196
  650MOL0     H85762   0.185   4.631   0.157  1.3819 -0.9624  2.2808
  650MOL0     H85763   0.428   4.638   0.157  0.0187 -0.5827  0.6959
  650MOL0     H85764   0.831   4.694  -0.070  0.7471 -0.5243  0.2431
  650MOL0     H85765   1.065   4.702  -0.044 -1.3089  0.3848 -0.6388
  650MOL0     H85766   1.286   4.404  -0.149 -0.1010 -0.1262 -0.3135
  650MOL0     H85767   1.327   4.312  -0.002  0.8255  1.1040  1.9898
  650MOL0     H85768   1.522   4.425  -0.066  2.0702  1.0273  1.9979
  650MOL0     H85769   1.470   4.501   0.076  1.1225  0.9654 -0.4067
  650MOL0     H85770   1.360   4.681  -0.110  0.6347  0.4326 -0.2639
  650MOL0     H85771   1.476   4.612  -0.206  0.7013  1.3889 -0.6980
  650MOL0     H85772   1.550   4.804  -0.114 -0.1541 -0.5821 -1.4212
  650MOL0     H85773   1.540   4.751   0.064  2.2974  1.9166 -0.5350
  650MOL0     H85774   1.729   4.657  -0.157  2.2118  0.4522  1.3227
  650MOL0     H85775   1.685   4.557  -0.023  0.2000  0.2714  0.3181
  650MOL0     H85776   1.752   4.739   0.140  0.3974 -1.2783 -0.4702
  650MOL0     H85777   1.792   4.834  -0.005 -2.0029 -0.7215 -1.4639
  650MOL0     H85778   1.937   4.579   0.063  0.7513  0.2159  0.1537
  650MOL0     H85779   1.948   4.685  -0.091  0.9492 -1.2699 -0.3595
  650MOL0     H85780   2.000   4.792   0.188 -2.4671  0.9261 -1.5165
  650MOL0     H85781   2.027   4.887   0.052  4.1711 -0.1283 -1.2219
  650MOL0     H85782   1.071   4.273   0.014  1.9723  1.2890  0.3825
  650MOL0     H85783   0.828   4.271  -0.024  0.1668 -0.5226  1.5017
  650MOL0     H85784   0.446   4.314  -0.108 -0.3840  1.6928 -2.1599
  650MOL0     H85785   0.208   4.283  -0.101  0.9854 -0.1779 -1.3149
  650MOL0     H85786  -0.011   5.496   0.955 -2.3553 -1.7425 -0.8284
  650MOL0     H85787   0.167   5.506   1.128  3.2481 -1.2152 -0.1552
  650MOL0     H85788   0.268   5.496   1.576 -0.6687 -1.8026 -0.8473
  650MOL0     H85789   0.437   5.557   1.719 -2.3921 -0.1929 -0.6986
  650MOL0     H85790   0.833   5.561   1.549  1.3276 -2.2693 -1.4200
  650MOL0     H85791   0.847   5.397   1.610 -1.1589 -0.4075  0.1624
  650MOL0     H85792   0.902   5.655   1.765  1.0441 -0.4802  0.3062
  650MOL0     H85793   0.904   5.497   1.840  1.3057  1.7668  1.4534
  650MOL0     H85794   1.089   5.590   1.626  0.4516  1.2746  0.8281
  650MOL0     H85795   1.089   5.422   1.684  3.0781 -0.1371  0.7621
  650MOL0     H85796   1.138   5.649   1.879 -0.4744  1.1957 -1.6959
  650MOL0     H85797   1.146   5.472   1.903 -1.0952  2.6134  3.2084
  650MOL0     H85798   1.515   5.565   1.735  0.4778  2.2514  1.8941
  650MOL0     H85799   0.717   5.337   1.463 -0.6888 -0.5440 -0.8476
  650MOL0     H85800   0.535   5.285   1.323 -0.0618  0.9983 -0.2471
  651MOL0     O85801   4.471  11.061   0.449  0.5078 -0.4982 -0.3682
  651MOL0     C85802   4.583  11.052   0.495  1.0558 -0.6746 -0.8467
  651MOL0     O85803   4.623  11.078   0.626  0.6333 -0.0076 -0.2465
  651MOL0     C85804   4.537  11.099   0.729 -0.1242 -0.9738  1.0741
  651MOL0     C85805   4.498  11.230   0.754  0.7313 -0.8355 -0.2501
  651MOL0     C85806   4.422  11.258   0.875 -0.2204 -0.2256  0.3554
  651MOL0     C85807   4.397  11.148   0.961  0.7271  0.6464  0.0710
  651MOL0     O85808   4.330  11.176   1.079  0.0687  0.2789  0.3290
  651MOL0     C85809   4.404  11.264   1.169 -0.6437  0.5397 -0.2291
  651MOL0     C85810   4.334  11.233   1.310  0.4586  0.1553  0.8494
  651MOL0     C85811   4.283  11.363   1.382  0.4675  0.1519  1.0713
  651MOL0     C85812   4.226  11.318   1.514 -0.0238 -0.2018  0.4287
  651MOL0     C85813   4.138  11.430   1.583  0.1142  0.3240  0.8064
  651MOL0     C85814   4.115  11.406   1.728  0.0421 -0.0311  0.6858
  651MOL0     C85815   4.032  11.521   1.783  0.4605 -0.1353 -0.0511
  651MOL0     C85816   4.040  11.509   1.937 -0.4223  0.4740 -0.3784
  651MOL0     N85817   3.973  11.627   1.991  0.4756 -0.0620  0.1087
  651MOL0     C85818   3.870  11.627   2.088 -0.3001 -0.2728 -1.5112
  651MOL0     C85819   3.842  11.758   2.112 -0.6659  0.1272 -0.0048
  651MOL0     C85820   3.753  11.825   2.213  0.8788 -0.1531  0.2837
  651MOL0     C85821   3.606  11.788   2.214 -0.1697 -0.1756  0.5262
  651MOL0     C85822   3.538  11.865   2.319 -0.3436 -0.2914  0.2385
  651MOL0     C85823   3.390  11.853   2.306 -0.2118  0.2712  0.1455
  651MOL0     O85824   3.354  11.905   2.176  0.3375  0.1985  0.5642
  651MOL0     C85825   3.223  11.940   2.163  0.6606  0.2412  0.0067
  651MOL0     C85826   3.182  12.015   2.051  0.0608 -0.0124  1.2601
  651MOL0     C85827   3.052  12.064   2.027 -0.3754 -0.7073 -0.2951
  651MOL0     C85828   2.957  12.028   2.128  1.3691 -1.2337 -0.2944
  651MOL0     C85829   2.815  12.075   2.106 -0.2863  0.6947  0.4396
  651MOL0     O85830   2.791  12.071   1.971  0.1082 -0.3736  0.7529
  651MOL0     C85831   2.666  12.089   1.925 -0.9541 -0.2211  0.2322
  651MOL0     C85832   2.633  12.210   1.871  0.6900 -0.7253  0.7489
  651MOL0     C85833   2.496  12.218   1.820 -0.3529  0.3944  1.0466
  651MOL0     C85834   2.408  12.117   1.831  1.3391 -0.0127 -0.2074
  651MOL0     O85835   2.271  12.123   1.800 -0.0671 -0.5031 -0.1095
  651MOL0     C85836   2.201  12.238   1.754  0.2058 -0.5326  0.1357
  651MOL0     C85837   2.062  12.208   1.702 -0.0670 -0.3956 -0.4156
  651MOL0     C85838   1.975  12.330   1.688 -0.0195 -0.3558  0.1174
  651MOL0     C85839   1.848  12.280   1.623 -1.0122 -0.2402  0.2753
  651MOL0     C85840   1.736  12.378   1.654  0.1864  0.2393 -0.8217
  651MOL0     C85841   1.608  12.309   1.618 -0.2843  0.3507 -0.9299
  651MOL0     C85842   1.485  12.410   1.652 -1.3806  1.0010  0.3879
  651MOL0     C85843   1.359  12.347   1.588  0.0437 -0.2112 -0.1462
  651MOL0    Cl85844   1.317  12.202   1.680  0.2844 -0.1001 -0.1537
  651MOL0     C85845   2.446  12.005   1.898  0.6382 -0.4052 -0.3013
  651MOL0     C85846   2.572  11.993   1.939 -0.4085  0.4526 -0.7640
  651MOL0     O85847   2.732  12.080   2.197 -0.4169 -0.3715 -0.5948
  651MOL0     C85848   2.998  11.950   2.240  0.2749 -0.6476 -0.7905
  651MOL0     C85849   3.125  11.907   2.253 -0.3882 -0.4099 -0.1893
  651MOL0     N85850   3.921  11.836   2.028  0.0707  0.3353 -0.4783
  651MOL0     N85851   4.007  11.758   1.970  0.1395  0.3542  0.2449
  651MOL0     C85852   4.438  11.020   0.930  0.9956 -0.4337 -0.0530
  651MOL0     C85853   4.504  10.994   0.814  0.4698 -0.4398  0.1954
  651MOL0     C85854   4.689  11.003   0.400  0.5513  0.6388  0.3849
  651MOL0     C85855   4.811  10.947   0.437 -0.1383  0.2580  0.0178
  651MOL0     C85856   4.904  10.920   0.343  0.5510  0.8594 -0.1786
  651MOL0     C85857   4.882  10.944   0.205  0.0610  0.3288  0.9734
  651MOL0     O85858   4.965  10.919   0.101 -0.0342 -0.0868  0.3403
  651MOL0     C85859   5.034  10.788   0.106  0.4472  0.0655  0.0221
  651MOL0     C85860   5.172  10.801   0.181 -0.1606 -0.2444 -0.6215
  651MOL0     C85861   5.226  10.672   0.253  0.3642  0.4601  0.1737
  651MOL0     C85862   5.349  10.710   0.331  0.1344  0.4792 -0.0172
  651MOL0     C85863   5.463  10.757   0.251 -0.1590 -0.1154 -1.4530
  651MOL0     C85864   5.564  10.784   0.203 -0.7529 -0.5799  0.6558
  651MOL0     C85865   4.761  10.999   0.169 -0.7443  0.3247 -0.5658
  651MOL0     C85866   4.665  11.021   0.267 -0.9684 -0.0901  0.8677
  651MOL0     H85867   4.515  11.316   0.691 -1.2253 -0.9470 -1.0227
  651MOL0     H85868   4.385  11.359   0.880 -1.7948 -0.7902  0.5459
  651MOL0     H85869   4.402  11.368   1.137  1.8929 -0.5863 -5.0736
  651MOL0     H85870   4.511  11.240   1.178 -0.3329  1.5331 -1.0599
  651MOL0     H85871   4.386  11.173   1.385 -0.4470  0.1457  1.4903
  651MOL0     H85872   4.247  11.170   1.287  1.3024 -0.4940 -0.6872
  651MOL0     H85873   4.215  11.418   1.317  3.9255  0.4945 -2.6702
  651MOL0     H85874   4.364  11.434   1.402  1.5335 -0.9601  0.8175
  651MOL0     H85875   4.150  11.244   1.486 -0.4284  0.7129 -0.9848
  651MOL0     H85876   4.299  11.279   1.586  1.2920  1.4483  0.0666
  651MOL0     H85877   4.038  11.435   1.539  0.2683  1.4586  0.5600
  651MOL0     H85878   4.193  11.524   1.573  1.0896 -0.2911  0.2656
  651MOL0     H85879   4.210  11.405   1.782  0.8720  2.0673 -0.5805
  651MOL0     H85880   4.052  11.319   1.749 -0.0678  0.0047  0.5044
  651MOL0     H85881   4.073  11.612   1.739  1.0961  0.4274  1.6427
  651MOL0     H85882   3.928  11.511   1.749 -0.7020  4.3205  1.5515
  651MOL0     H85883   4.145  11.514   1.966  0.3353 -3.6155 -1.7175
  651MOL0     H85884   4.004  11.414   1.977 -0.6069  1.0642  0.8965
  651MOL0     H85885   3.831  11.538   2.137 -0.7399 -0.3578 -2.0056
  651MOL0     H85886   3.758  11.933   2.197 -3.5175  0.3417  1.1224
  651MOL0     H85887   3.795  11.799   2.311 -0.8051 -4.0019  0.1868
  651MOL0     H85888   3.586  11.681   2.226 -2.2205  0.0746 -0.4615
  651MOL0     H85889   3.555  11.811   2.121 -0.8789 -0.3389  0.8726
  651MOL0     H85890   3.566  11.828   2.418  0.5824 -0.4754 -0.0828
  651MOL0     H85891   3.568  11.970   2.316 -1.4637  0.1033 -3.8769
  651MOL0     H85892   3.338  11.902   2.389  0.7125  1.3050  0.1385
  651MOL0     H85893   3.373  11.746   2.297 -2.7458  0.6363 -0.3006
  651MOL0     H85894   3.257  12.035   1.975 -1.4942  1.0945 -0.0929
  651MOL0     H85895   3.032  12.116   1.934  1.4252  0.1597 -0.2326
  651MOL0     H85896   2.693  12.300   1.878 -1.2082  0.6221  0.2882
  651MOL0     H85897   2.467  12.304   1.761 -1.0759 -0.7454 -0.3466
  651MOL0     H85898   2.259  12.299   1.684 -2.8252  0.6329 -1.5515
  651MOL0     H85899   2.177  12.308   1.835  0.4443 -0.1574 -0.1123
  651MOL0     H85900   2.017  12.132   1.767 -1.4074  0.6218 -0.1121
  651MOL0     H85901   2.075  12.161   1.604  2.3467 -0.7030 -0.0198
  651MOL0     H85902   2.022  12.400   1.618  1.5681 -2.3367 -0.9050
  651MOL0     H85903   1.969  12.373   1.788 -1.2670 -2.4889  1.0208
  651MOL0     H85904   1.863  12.268   1.515 -3.6049 -0.0937 -0.1770
  651MOL0     H85905   1.815  12.180   1.654 -0.7284 -0.8008 -1.1299
  651MOL0     H85906   1.752  12.474   1.604 -0.6180  0.8645  0.0697
  651MOL0     H85907   1.735  12.393   1.763  1.0849  0.5004 -0.8436
  651MOL0     H85908   1.590  12.221   1.680 -1.0393  2.1787  1.6334
  651MOL0     H85909   1.616  12.278   1.513  1.3122  0.1850 -0.7799
  651MOL0     H85910   1.474  12.430   1.759  0.2519  0.5571  0.6556
  651MOL0     H85911   1.512  12.499   1.595 -0.7948 -0.7484 -2.2078
  651MOL0     H85912   1.378  12.315   1.486 -0.1054 -2.6169  0.5370
  651MOL0     H85913   1.272  12.414   1.580  0.5812  0.8178  1.8696
  651MOL0     H85914   2.366  11.932   1.907  1.8155 -1.5011  3.2321
  651MOL0     H85915   2.595  11.894   1.977  0.9047  0.1287 -2.2722
  651MOL0     H85916   2.937  11.925   2.326  0.9829  0.1158 -0.0517
  651MOL0     H85917   3.138  11.840   2.337 -0.0713  0.4214  0.4416
  651MOL0     H85918   4.425  10.939   1.002  3.0968 -1.7655 -1.0804
  651MOL0     H85919   4.542  10.900   0.776 -3.5033 -1.7010 -1.2383
  651MOL0     H85920   4.828  10.948   0.544 -1.7821  3.1756  0.3543
  651MOL0     H85921   5.004  10.893   0.375  1.8310  3.8963 -1.2987
  651MOL0     H85922   5.059  10.755   0.005  2.2654 -1.9722  1.0562
  651MOL0     H85923   4.967  10.716   0.154  0.2391 -0.0924 -0.5004
  651MOL0     H85924   5.244  10.830   0.104  1.9677 -0.0198  1.3531
  651MOL0     H85925   5.162  10.887   0.249  0.1418 -0.8559  0.2095
  651MOL0     H85926   5.274  10.597   0.189  0.9312  0.4849  0.5678
  651MOL0     H85927   5.151  10.627   0.317  1.1664  0.5559  1.2071
  651MOL0     H85928   5.330  10.802   0.388 -1.8144  1.2828 -1.8414
  651MOL0     H85929   5.384  10.628   0.394 -1.4757 -0.5219 -0.3772
  651MOL0     H85930   5.665  10.794   0.168 -0.5120 -0.6882  1.2952
  651MOL0     H85931   4.737  11.013   0.064 -1.1522 -0.2392 -0.5569
  651MOL0     H85932   4.569  11.056   0.231 -0.0176  1.0135 -0.7190
  652MOL0     O85933   0.657   9.999   7.605  0.1793  0.0663 -0.2923
  652MOL0     C85934   0.700   9.934   7.508 -0.0031  0.8093  0.5660
  652MOL0     O85935   0.649   9.824   7.468  0.0442  0.2517  0.0626
  652MOL0     C85936   0.530   9.771   7.521 -0.5542  0.1970  0.1936
  652MOL0     C85937   0.533   9.669   7.611  0.2329 -0.0182  0.3378
  652MOL0     C85938   0.418   9.618   7.668  0.2403 -0.0352  0.4862
  652MOL0     C85939   0.290   9.664   7.624 -0.6871 -0.3227  0.3271
  652MOL0     O85940   0.168   9.617   7.662  0.2997  0.0390 -0.9416
  652MOL0     C85941   0.134   9.629   7.800  0.0557 -0.6216 -0.3129
  652MOL0     C85942  -0.011   9.632   7.811 -0.0010  0.4494 -0.1007
  652MOL0     C85943  -0.069   9.592   7.948 -0.9253  0.0966  0.1090
  652MOL0     C85944  -0.218   9.576   7.926  0.3907  0.7932  0.1171
  652MOL0     C85945  -0.277   9.575   8.063 -0.6293  0.3661  0.1119
  652MOL0     C85946  -0.431   9.587   8.044  0.5709  0.0900 -0.5117
  652MOL0     C85947  -0.479   9.734   8.034 -0.3953  0.6385 -0.1529
  652MOL0     C85948  -0.633   9.737   8.000  0.1402  0.5471  0.8965
  652MOL0     N85949  -0.653   9.696   7.860  0.3613  0.4866  0.6199
  652MOL0     C85950  -0.629   9.758   7.740 -0.5180 -0.2418 -0.1233
  652MOL0     C85951  -0.649   9.665   7.645  0.3199  0.4836 -0.0047
  652MOL0     C85952  -0.622   9.695   7.496 -0.2345 -0.6503 -1.0966
  652MOL0     C85953  -0.635   9.578   7.398  0.3907  0.4681  0.1391
  652MOL0     C85954  -0.602   9.606   7.252  0.8016  0.0015  0.0258
  652MOL0     C85955  -0.691   9.695   7.164  0.0235  0.0145  0.4618
  652MOL0     O85956  -0.700   9.831   7.193 -0.5538  0.1789 -0.6119
  652MOL0     C85957  -0.575   9.896   7.191  0.4462  0.8717  1.0497
  652MOL0     C85958  -0.465   9.849   7.112  1.1009  0.5661  0.2050
  652MOL0     C85959  -0.349   9.919   7.092  0.1880 -0.1049 -0.7635
  652MOL0     C85960  -0.338  10.048   7.154  0.0552  0.0701 -0.3894
  652MOL0     C85961  -0.206  10.115   7.134 -0.7588 -0.7011 -0.7108
  652MOL0     O85962  -0.104  10.035   7.084 -0.3599 -0.0127 -0.4799
  652MOL0     C85963   0.025  10.084   7.075  0.3779  0.4649  0.4311
  652MOL0     C85964   0.093  10.092   7.195 -0.2362 -0.2740  0.3333
  652MOL0     C85965   0.221  10.139   7.193  0.1272  0.2265  0.8061
  652MOL0     C85966   0.275  10.190   7.070 -0.6368 -0.4712  0.2312
  652MOL0     O85967   0.410  10.214   7.055 -0.3680 -0.3210  0.5227
  652MOL0     C85968   0.499  10.168   7.155  0.0815 -0.9148  0.2184
  652MOL0     C85969   0.652  10.205   7.112  0.3448 -0.8585 -1.3240
  652MOL0     C85970   0.710  10.114   7.005 -0.2296 -1.0278 -0.2503
  652MOL0     C85971   0.849  10.162   6.962 -0.3771 -0.4297  0.4122
  652MOL0     C85972   0.865  10.124   6.811  0.0319 -0.1806 -0.2486
  652MOL0     C85973   1.007  10.165   6.766 -0.9929  0.1816  0.2421
  652MOL0     C85974   1.027  10.128   6.619  0.9549  0.0120  0.8875
  652MOL0     C85975   1.171  10.158   6.581  0.3276  0.8343  0.3401
  652MOL0    Cl85976   1.215  10.327   6.606 -0.3699 -0.1039  0.0323
  652MOL0     C85977   0.199  10.187   6.951  0.3052 -0.0716  0.0971
  652MOL0     C85978   0.071  10.138   6.956  0.3933 -0.6360  0.5727
  652MOL0     O85979  -0.187  10.228   7.179  0.0877 -0.8547 -0.9150
  652MOL0     C85980  -0.447  10.100   7.225 -0.7076 -0.0189  0.2896
  652MOL0     C85981  -0.560  10.019   7.242 -0.5840  0.5325  0.2158
  652MOL0     N85982  -0.692   9.548   7.706 -0.5909  0.2222 -0.4936
  652MOL0     N85983  -0.683   9.569   7.831  0.0763  0.7116  0.0593
  652MOL0     C85984   0.289   9.762   7.527 -0.1868 -0.3019 -0.7998
  652MOL0     C85985   0.404   9.818   7.479 -0.5195  0.0585 -0.2029
  652MOL0     C85986   0.818   9.988   7.441  0.1285 -0.0981  0.5197
  652MOL0     C85987   0.891   9.908   7.352  0.4679 -0.3779 -0.4352
  652MOL0     C85988   1.000   9.960   7.280  0.5303  0.4199 -0.2573
  652MOL0     C85989   1.031  10.091   7.289 -0.6593  0.1997  0.8474
  652MOL0     O85990   1.124  10.161   7.220 -0.2974  0.3744  0.3300
  652MOL0     C85991   1.220  10.100   7.127 -0.9846 -0.7976 -0.0864
  652MOL0     C85992   1.281  10.206   7.030  0.0468 -0.3183  0.6804
  652MOL0     C85993   1.369  10.305   7.109  0.8273  0.6654  0.3654
  652MOL0     C85994   1.501  10.248   7.163  0.5571 -0.5692  0.8593
  652MOL0     C85995   1.589  10.188   7.065 -0.0567  0.1555  0.3837
  652MOL0     C85996   1.653  10.132   6.973  0.3073 -0.1019  0.2285
  652MOL0     C85997   0.966  10.164   7.384 -0.5734  0.6246 -0.5397
  652MOL0     C85998   0.867  10.120   7.462  0.3912 -0.1866  0.4850
  652MOL0     H85999   0.630   9.629   7.639 -0.2840 -0.8480  1.0112
  652MOL0     H86000   0.434   9.538   7.740  2.8803 -1.5472 -1.6349
  652MOL0     H86001   0.177   9.723   7.835  0.5201 -1.0435  0.2851
  652MOL0     H86002   0.183   9.548   7.855  1.9324  0.9288  0.4198
  652MOL0     H86003  -0.041   9.552   7.742 -0.8909  0.1659  0.5918
  652MOL0     H86004  -0.050   9.729   7.780  2.5350  1.5032 -0.2113
  652MOL0     H86005  -0.044   9.667   8.024  4.4924 -1.5663  0.4189
  652MOL0     H86006  -0.023   9.497   7.977 -3.8650 -1.1239  1.1550
  652MOL0     H86007  -0.261   9.654   7.863  0.2780 -0.2058 -1.0721
  652MOL0     H86008  -0.224   9.483   7.870  3.6053  0.6593 -0.2338
  652MOL0     H86009  -0.245   9.656   8.129  2.6138  0.7713 -1.7812
  652MOL0     H86010  -0.240   9.485   8.112  2.3706  1.5917  0.2975
  652MOL0     H86011  -0.474   9.541   8.133 -0.2186 -1.2340 -1.5296
  652MOL0     H86012  -0.467   9.534   7.955  0.0102 -2.1471  0.9735
  652MOL0     H86013  -0.448   9.796   8.119  1.4342  0.0973 -0.3722
  652MOL0     H86014  -0.425   9.776   7.949  0.5658 -1.4623 -0.6566
  652MOL0     H86015  -0.665   9.842   8.007 -0.7705  0.4644 -1.1030
  652MOL0     H86016  -0.687   9.673   8.071 -1.1756 -1.7755 -1.9545
  652MOL0     H86017  -0.602   9.859   7.713 -1.5080 -0.8375 -3.8516
  652MOL0     H86018  -0.521   9.737   7.491  0.3073 -1.4573  1.4754
  652MOL0     H86019  -0.698   9.768   7.468  1.4691  1.7738  0.2331
  652MOL0     H86020  -0.741   9.551   7.395  0.1263  1.5544 -1.2541
  652MOL0     H86021  -0.566   9.496   7.424 -0.8833 -0.4461  0.7392
  652MOL0     H86022  -0.501   9.647   7.249  0.7946 -0.0253 -0.9618
  652MOL0     H86023  -0.602   9.510   7.201  3.1559  0.3844 -0.8035
  652MOL0     H86024  -0.788   9.662   7.202  0.3557 -1.6959 -0.0940
  652MOL0     H86025  -0.684   9.676   7.057  0.0564 -2.0573  0.7778
  652MOL0     H86026  -0.452   9.749   7.071  2.9367  1.6879 -2.2249
  652MOL0     H86027  -0.276   9.872   7.027 -2.6541 -3.1758 -2.0009
  652MOL0     H86028   0.048  10.049   7.283 -0.5513 -2.1452 -0.7033
  652MOL0     H86029   0.265  10.129   7.291 -0.1956 -2.1795  0.7755
  652MOL0     H86030   0.487  10.062   7.181  0.7728 -1.0391  0.0458
  652MOL0     H86031   0.483  10.228   7.245  2.1143 -1.8035  1.2288
  652MOL0     H86032   0.709  10.186   7.203 -2.2225  0.9000  0.8054
  652MOL0     H86033   0.649  10.309   7.078 -0.9483  0.2336  1.8027
  652MOL0     H86034   0.632  10.119   6.928  1.3913  0.6802 -1.8648
  652MOL0     H86035   0.716  10.014   7.050  1.3531 -0.7511  0.2039
  652MOL0     H86036   0.852  10.270   6.978  0.0877 -0.7826  3.0971
  652MOL0     H86037   0.935  10.131   7.021  0.9069  3.9467  1.2253
  652MOL0     H86038   0.791  10.187   6.759 -0.8998 -2.1420 -1.4196
  652MOL0     H86039   0.846  10.019   6.786 -0.2633 -0.0672 -0.5224
  652MOL0     H86040   1.078  10.107   6.825 -1.2675  0.4309  0.8181
  652MOL0     H86041   1.030  10.270   6.784  0.4653  0.3183 -2.0398
  652MOL0     H86042   1.005  10.022   6.608  0.0470  0.1026  1.6438
  652MOL0     H86043   0.958  10.181   6.552  0.0787  0.6501  2.2393
  652MOL0     H86044   1.187  10.120   6.480  1.3464  0.4325  0.6408
  652MOL0     H86045   1.234  10.091   6.639  0.8489 -1.7811 -2.9595
  652MOL0     H86046   0.243  10.213   6.856 -1.1238  0.4154 -0.4656
  652MOL0     H86047   0.008  10.120   6.869  2.9068 -1.4083 -1.2166
  652MOL0     H86048  -0.454  10.203   7.257 -3.2347 -0.8649  2.8364
  652MOL0     H86049  -0.639  10.076   7.290 -2.4245 -1.4799 -0.2983
  652MOL0     H86050   0.195   9.795   7.483  0.9235  4.5308 -0.0984
  652MOL0     H86051   0.417   9.894   7.402  1.2183  1.2634  1.1960
  652MOL0     H86052   0.871   9.802   7.340  2.0599 -0.6628 -0.7406
  652MOL0     H86053   1.052   9.883   7.224 -0.9124  0.7534 -2.1530
  652MOL0     H86054   1.161  10.028   7.069 -0.4317 -2.5390  1.4294
  652MOL0     H86055   1.295  10.040   7.179  1.3210  1.7046 -0.3001
  652MOL0     H86056   1.342  10.163   6.950 -1.2661 -0.6302 -0.1653
  652MOL0     H86057   1.199  10.257   6.978  1.1249  1.8652  0.9773
  652MOL0     H86058   1.316  10.344   7.197  0.3577 -0.8507  0.7776
  652MOL0     H86059   1.375  10.396   7.048 -3.8769  1.1055  0.2091
  652MOL0     H86060   1.556  10.319   7.225 -1.7582  0.7024  1.6039
  652MOL0     H86061   1.470  10.161   7.221 -0.1624 -1.8635 -1.3385
  652MOL0     H86062   1.709  10.086   6.895 -0.4011  0.5424 -0.6900
  652MOL0     H86063   1.008  10.262   7.403 -3.2177  1.5965  0.8537
  652MOL0     H86064   0.829  10.180   7.545  1.0247 -2.0357  2.1933
  653MOL0     O86065  10.355   5.537   9.880 -0.5864 -0.6404  0.3170
  653MOL0     C86066  10.420   5.520   9.983 -0.4718  0.0436 -0.4518
  653MOL0     O86067  10.377   5.549  10.114 -0.1229 -0.2873  0.0204
  653MOL0     C86068  10.258   5.615  10.134  0.7946 -0.4312  0.5243
  653MOL0     C86069  10.229   5.744  10.082  0.2097  0.8306  0.3204
  653MOL0     C86070  10.119   5.812  10.128 -1.1992  0.1384  0.4239
  653MOL0     C86071  10.036   5.754  10.224 -0.4330  0.5367 -0.1465
  653MOL0     O86072   9.934   5.824  10.271 -0.6607 -0.1856 -0.3664
  653MOL0     C86073   9.891   5.815  10.409 -0.7597  0.3668  0.1139
  653MOL0     C86074   9.776   5.917  10.429  0.2063  0.2324 -0.1609
  653MOL0     C86075   9.825   6.061  10.398 -0.0399  0.6067 -0.1526
  653MOL0     C86076   9.958   6.106  10.468 -0.1139 -1.0382  0.7291
  653MOL0     C86077   9.992   6.253  10.448  0.4225 -0.2368 -0.5246
  653MOL0     C86078   9.922   6.344  10.563 -0.0151  0.6811 -0.0014
  653MOL0     C86079   9.803   6.419  10.509  0.2532  0.2637  0.3935
  653MOL0     C86080   9.757   6.541  10.596 -0.2922 -0.4287 -0.0047
  653MOL0     N86081   9.687   6.494  10.716  0.2571 -0.7670  0.2062
  653MOL0     C86082   9.736   6.508  10.845  0.2694 -0.0871  0.5575
  653MOL0     C86083   9.642   6.454  10.921 -0.2054  0.6065  0.1584
  653MOL0     C86084   9.644   6.458  11.070  0.0013  1.5889  0.0274
  653MOL0     C86085   9.514   6.515  11.128  0.0877 -0.1581 -0.0055
  653MOL0     C86086   9.521   6.565  11.270 -0.1268  0.3651  0.0351
  653MOL0     C86087   9.382   6.598  11.328  0.1217 -1.1580  0.2389
  653MOL0     O86088   9.337   6.476  11.381 -0.5780 -0.5279 -0.1490
  653MOL0     C86089   9.202   6.459  11.398  0.5732 -0.0035 -0.8857
  653MOL0     C86090   9.091   6.542  11.348 -0.1324  0.9895 -0.3739
  653MOL0     C86091   8.958   6.500  11.349  0.2936 -0.2703 -0.5353
  653MOL0     C86092   8.934   6.372  11.405  0.2922  1.2094  0.2017
  653MOL0     C86093   8.794   6.328  11.404  0.2758  0.5624  0.2151
  653MOL0     O86094   8.775   6.197  11.413  0.5818  0.7509 -0.3333
  653MOL0     C86095   8.665   6.143  11.354  0.2341 -0.6025 -0.0035
  653MOL0     C86096   8.607   6.196  11.232  0.1886 -0.1592 -0.9041
  653MOL0     C86097   8.506   6.124  11.166  1.1649  0.4792  0.0800
  653MOL0     C86098   8.447   6.011  11.225 -0.3312 -0.3489 -0.2181
  653MOL0     O86099   8.336   5.949  11.173  0.1031 -0.1010 -0.5739
  653MOL0     C86100   8.245   6.035  11.098 -0.1601 -0.3832 -0.5047
  653MOL0     C86101   8.099   5.979  11.118  0.4964  1.4459  0.7836
  653MOL0     C86102   7.983   6.045  11.050  0.0571 -0.1941 -0.0932
  653MOL0     C86103   7.955   6.189  11.103 -0.9358  1.1883  0.4835
  653MOL0     C86104   7.922   6.193  11.257  0.1566  0.6647  0.6770
  653MOL0     C86105   7.876   6.339  11.299  0.1036  0.5439  0.6223
  653MOL0     C86106   7.862   6.352  11.455 -0.6410 -0.3501  0.2352
  653MOL0     C86107   7.763   6.258  11.522  0.4632 -0.0248  0.0685
  653MOL0    Cl86108   7.613   6.257  11.424  0.3129  0.3003  0.2195
  653MOL0     C86109   8.505   5.958  11.340 -0.1689  0.1970  0.1895
  653MOL0     C86110   8.610   6.024  11.408  0.6263  0.1612  0.2828
  653MOL0     O86111   8.707   6.412  11.393  0.9759 -0.5762 -0.5542
  653MOL0     C86112   9.034   6.292  11.461 -0.6705 -0.6483 -1.0040
  653MOL0     C86113   9.167   6.341  11.467 -0.2429 -0.3922  0.5810
  653MOL0     N86114   9.549   6.394  10.850 -0.3048  0.1535  0.6489
  653MOL0     N86115   9.572   6.424  10.729  0.6212 -0.1239  0.2086
  653MOL0     C86116  10.064   5.629  10.277 -0.6288 -0.2189 -0.7442
  653MOL0     C86117  10.177   5.560  10.236  0.2664  0.8032 -0.3016
  653MOL0     C86118  10.558   5.467   9.964 -0.1061 -0.5079  0.5546
  653MOL0     C86119  10.645   5.477  10.075 -0.2110 -0.3986 -0.2148
  653MOL0     C86120  10.778   5.428  10.067 -0.2329 -0.8308  0.9370
  653MOL0     C86121  10.828   5.373   9.947 -1.1723 -0.5539  0.2366
  653MOL0     O86122  10.950   5.304   9.925  0.0948 -0.1198 -0.0560
  653MOL0     C86123  11.012   5.240  10.041 -0.2795  0.1957 -0.0940
  653MOL0     C86124  11.126   5.144   9.984  0.2357 -0.1466 -0.9428
  653MOL0     C86125  11.231   5.224   9.909 -0.2466  0.0457  0.2149
  653MOL0     C86126  11.361   5.159   9.879 -0.2279  0.1941  0.4988
  653MOL0     C86127  11.464   5.262   9.834  0.0286  0.2755 -0.2029
  653MOL0     C86128  11.554   5.338   9.804  0.6004 -0.5977 -0.0235
  653MOL0     C86129  10.744   5.375   9.841  0.7596  0.0351 -0.6859
  653MOL0     C86130  10.612   5.412   9.849 -0.6379  0.9017 -0.1968
  653MOL0     H86131  10.275   5.788   9.995 -2.6339  2.5245 -0.4664
  653MOL0     H86132  10.106   5.915  10.097  1.3935  0.7508  1.1603
  653MOL0     H86133   9.970   5.832  10.483 -2.3707 -1.1051  2.2674
  653MOL0     H86134   9.836   5.722  10.421 -1.3052  0.1134 -3.3087
  653MOL0     H86135   9.750   5.928  10.535  0.9905  0.2317  0.0410
  653MOL0     H86136   9.688   5.889  10.372 -1.6743  1.9955  1.7038
  653MOL0     H86137   9.758   6.140  10.433  1.1148  0.8527  1.6476
  653MOL0     H86138   9.858   6.073  10.294  1.6746 -1.4088  0.0907
  653MOL0     H86139   9.970   6.078  10.573  2.0000  0.7307  1.0506
  653MOL0     H86140  10.031   6.050  10.409  0.1856 -0.2709  0.3570
  653MOL0     H86141   9.959   6.278  10.347  1.2742  0.3939 -0.6576
  653MOL0     H86142  10.099   6.274  10.457  0.0710  0.8199  2.3643
  653MOL0     H86143   9.996   6.419  10.592  0.4640 -0.0071  0.5914
  653MOL0     H86144   9.901   6.279  10.649  0.3930 -1.5540 -1.5052
  653MOL0     H86145   9.825   6.441  10.405 -3.3031  0.2081 -0.4861
  653MOL0     H86146   9.716   6.353  10.511  0.5849 -0.2063 -0.5231
  653MOL0     H86147   9.680   6.601  10.546  0.4150  0.2378 -0.3081
  653MOL0     H86148   9.846   6.599  10.621  0.3010 -1.4890  0.3851
  653MOL0     H86149   9.819   6.567  10.882 -1.1103  1.2189  1.7199
  653MOL0     H86150   9.731   6.519  11.098  2.4183  0.1589 -3.5314
  653MOL0     H86151   9.664   6.357  11.106  2.6148  1.8688 -0.3854
  653MOL0     H86152   9.440   6.436  11.113  0.7642 -0.8673  0.3549
  653MOL0     H86153   9.478   6.597  11.064 -1.7988  0.5808  1.9036
  653MOL0     H86154   9.564   6.486  11.333 -1.3805  0.1263  0.6328
  653MOL0     H86155   9.579   6.657  11.275 -0.0304  0.3011  0.1029
  653MOL0     H86156   9.322   6.638  11.245 -0.3618 -1.2635  0.5361
  653MOL0     H86157   9.385   6.672  11.408 -0.1718 -0.5675 -0.2873
  653MOL0     H86158   9.121   6.629  11.290  1.6791 -1.6420 -3.7348
  653MOL0     H86159   8.882   6.573  11.324 -0.3716 -0.1031  1.7775
  653MOL0     H86160   8.650   6.287  11.190 -0.0522 -0.1112 -1.0446
  653MOL0     H86161   8.464   6.176  11.080 -2.0244 -1.8395  0.0307
  653MOL0     H86162   8.265   6.047  10.991 -2.9924  0.7279 -1.0202
  653MOL0     H86163   8.246   6.130  11.153  1.6106  0.9008 -2.5706
  653MOL0     H86164   8.083   5.981  11.226 -0.0278  2.2424  0.6994
  653MOL0     H86165   8.096   5.874  11.089 -0.2180  1.7173 -0.2031
  653MOL0     H86166   7.898   5.976  11.048 -0.4473  0.3540 -3.0513
  653MOL0     H86167   7.998   6.063  10.943 -4.1155  0.3215 -0.7696
  653MOL0     H86168   8.040   6.251  11.076  0.6666 -0.0086  2.4810
  653MOL0     H86169   7.863   6.229  11.059 -0.6238  0.9879 -0.3817
  653MOL0     H86170   8.005   6.157  11.319 -1.0158 -0.0624  1.8918
  653MOL0     H86171   7.839   6.124  11.278  1.0540  0.0290  2.3173
  653MOL0     H86172   7.778   6.362  11.256 -0.4219 -1.6939  0.5164
  653MOL0     H86173   7.949   6.416  11.270 -0.0791  1.6701  2.9450
  653MOL0     H86174   7.961   6.341  11.501 -1.3558  1.0832  2.2499
  653MOL0     H86175   7.832   6.455  11.478  1.1149  0.3743 -0.4847
  653MOL0     H86176   7.756   6.278  11.629 -1.1620  1.5400 -0.3046
  653MOL0     H86177   7.798   6.154  11.516 -1.0396 -0.5876  0.6445
  653MOL0     H86178   8.457   5.871  11.382  0.4996 -0.0620  0.4280
  653MOL0     H86179   8.655   5.987  11.499  2.0361 -0.1507 -0.4984
  653MOL0     H86180   9.017   6.192  11.499 -0.2515 -1.1060 -2.0024
  653MOL0     H86181   9.245   6.285  11.519  0.8997  1.8177  1.3768
  653MOL0     H86182  10.002   5.593  10.358  1.2218 -1.5082  0.1693
  653MOL0     H86183  10.183   5.461  10.279 -1.0784  1.5477  1.7415
  653MOL0     H86184  10.609   5.522  10.167  0.0958  0.1055 -0.3341
  653MOL0     H86185  10.838   5.436  10.157 -4.4153 -2.3954  4.2167
  653MOL0     H86186  10.941   5.172  10.090 -1.1394 -0.7379 -2.4295
  653MOL0     H86187  11.052   5.313  10.112  0.1950 -0.3382  0.1934
  653MOL0     H86188  11.171   5.088  10.066 -0.7425  1.6555  0.9313
  653MOL0     H86189  11.071   5.077   9.918 -1.5613  0.6195 -0.2806
  653MOL0     H86190  11.251   5.310   9.973 -0.5182 -0.5136  1.0616
  653MOL0     H86191  11.193   5.268   9.816  0.5697  1.1280  0.3697
  653MOL0     H86192  11.393   5.115   9.973 -1.6283  0.1970  0.9885
  653MOL0     H86193  11.354   5.082   9.802 -1.0000  2.6696 -2.0989
  653MOL0     H86194  11.621   5.415   9.772 -0.2709 -0.9637 -3.0208
  653MOL0     H86195  10.784   5.345   9.744  4.0743  1.4496  0.0811
  653MOL0     H86196  10.556   5.398   9.757  0.3215 -4.6482 -0.3319
  654MOL0     O86197   4.690   3.905  10.780  0.0731  0.0249  0.6028
  654MOL0     C86198   4.751   3.793  10.798 -0.0288 -0.6921 -0.5088
  654MOL0     O86199   4.695   3.673  10.806  0.3241  0.5111  0.3892
  654MOL0     C86200   4.559   3.643  10.815 -0.9899 -0.0086 -0.0128
  654MOL0     C86201   4.463   3.724  10.884  0.1735  0.0669  0.2706
  654MOL0     C86202   4.334   3.673  10.907 -0.4638 -0.2255 -0.2224
  654MOL0     C86203   4.300   3.547  10.862  0.3096 -0.4250  0.5033
  654MOL0     O86204   4.176   3.492  10.889  0.0336 -0.5501  0.3636
  654MOL0     C86205   4.060   3.583  10.897 -0.3661 -0.1726 -0.2705
  654MOL0     C86206   3.915   3.517  10.905  0.2748 -1.0397  0.4162
  654MOL0     C86207   3.892   3.399  10.987  0.1754  0.6986 -0.6809
  654MOL0     C86208   3.754   3.344  10.970 -0.0918 -0.7518 -0.1869
  654MOL0     C86209   3.745   3.203  11.026 -0.5115  0.4232  0.0022
  654MOL0     C86210   3.604   3.162  11.060  0.4818  0.1347  0.7955
  654MOL0     C86211   3.597   3.021  11.126  0.8126 -1.1550 -1.0051
  654MOL0     C86212   3.466   3.000  11.210 -0.8545 -0.0046  0.2716
  654MOL0     N86213   3.443   2.856  11.232  0.3118  0.4373  0.1430
  654MOL0     C86214   3.319   2.800  11.253 -0.1474 -0.3120 -0.1751
  654MOL0     C86215   3.340   2.664  11.269  0.3759  0.3404  0.3896
  654MOL0     C86216   3.248   2.553  11.290  0.4495 -0.4698 -0.2278
  654MOL0     C86217   3.094   2.590  11.283 -0.6488 -0.4460 -0.5183
  654MOL0     C86218   3.016   2.462  11.247 -1.5522 -0.4600 -0.3833
  654MOL0     C86219   2.865   2.475  11.267 -0.2581  0.6053  0.2897
  654MOL0     O86220   2.815   2.350  11.232 -0.0699 -0.5477  0.0480
  654MOL0     C86221   2.675   2.341  11.234  0.3232  0.1719  0.1254
  654MOL0     C86222   2.610   2.262  11.137 -0.0131  0.8800  0.0562
  654MOL0     C86223   2.471   2.269  11.118 -0.5249 -0.7509 -1.3556
  654MOL0     C86224   2.392   2.335  11.212 -0.8698  0.0278  0.1755
  654MOL0     C86225   2.245   2.328  11.205  0.5460 -0.6225  0.3185
  654MOL0     O86226   2.172   2.367  11.311  0.0436  0.7335  0.8065
  654MOL0     C86227   2.033   2.381  11.301 -0.0167 -0.4371  0.4159
  654MOL0     C86228   1.949   2.278  11.255 -0.4962 -0.1125 -0.8466
  654MOL0     C86229   1.807   2.281  11.259  0.3066 -0.2512  0.1579
  654MOL0     C86230   1.746   2.397  11.318 -0.6405 -0.3414  0.2760
  654MOL0     O86231   1.616   2.407  11.356 -0.7626  0.5954 -0.1756
  654MOL0     C86232   1.537   2.297  11.318 -0.7976  0.2831 -0.1559
  654MOL0     C86233   1.392   2.309  11.369  0.1626  0.3769 -0.0104
  654MOL0     C86234   1.366   2.223  11.509  0.3599 -0.4856  0.1041
  654MOL0     C86235   1.238   2.258  11.580 -0.5715 -0.1482  0.3048
  654MOL0     C86236   1.161   2.139  11.629 -0.2501  0.7741 -0.0440
  654MOL0     C86237   1.023   2.190  11.681  0.2018  0.2153 -0.1087
  654MOL0     C86238   0.994   2.174  11.834 -0.0127  0.1213 -0.5134
  654MOL0     C86239   1.006   2.300  11.924 -0.0871 -0.1011 -0.3335
  654MOL0    Cl86240   0.992   2.252  12.093 -0.0429 -0.0981  0.2090
  654MOL0     C86241   1.828   2.494  11.372 -0.4321 -0.0818  0.6534
  654MOL0     C86242   1.969   2.492  11.354 -0.1331 -0.7074 -0.2917
  654MOL0     O86243   2.200   2.287  11.100 -0.3344 -0.5811  0.2440
  654MOL0     C86244   2.458   2.419  11.304 -0.8165  0.3205  0.1534
  654MOL0     C86245   2.596   2.425  11.305  0.1488 -0.0192  0.1994
  654MOL0     N86246   3.471   2.640  11.243 -0.0173  0.8530 -0.4976
  654MOL0     N86247   3.529   2.755  11.223  0.2236  0.2433  0.1154
  654MOL0     C86248   4.388   3.465  10.799  0.0003 -1.2556  0.4215
  654MOL0     C86249   4.524   3.510  10.777 -0.0126  0.2230  0.4666
  654MOL0     C86250   4.893   3.793  10.808  0.5277  0.2091  0.3591
  654MOL0     C86251   4.965   3.917  10.794 -0.3126  0.6713 -0.0175
  654MOL0     C86252   5.102   3.916  10.817  0.7390 -0.6981 -0.0677
  654MOL0     C86253   5.169   3.797  10.860  0.5292 -0.1585 -0.5956
  654MOL0     O86254   5.307   3.808  10.868 -0.6958 -0.2936 -0.6865
  654MOL0     C86255   5.397   3.698  10.915 -0.5062  0.4183 -0.0264
  654MOL0     C86256   5.414   3.692  11.068 -0.0283 -0.8688  0.0079
  654MOL0     C86257   5.489   3.816  11.123 -0.8634  0.2086  0.3348
  654MOL0     C86258   5.512   3.814  11.274  0.0023  0.3939  0.8092
  654MOL0     C86259   5.576   3.689  11.321 -0.6581  0.1448 -0.2938
  654MOL0     C86260   5.634   3.589  11.350  0.4254 -0.0398  0.5529
  654MOL0     C86261   5.097   3.678  10.858 -0.1870 -0.4088  0.0523
  654MOL0     C86262   4.962   3.671  10.826 -0.2317  0.3579  0.1267
  654MOL0     H86263   4.474   3.820  10.932 -1.8106 -0.3667  1.7254
  654MOL0     H86264   4.265   3.739  10.958  0.5867  1.0399 -0.4073
  654MOL0     H86265   4.074   3.654  10.815  0.8726  4.0964  3.2498
  654MOL0     H86266   4.066   3.643  10.989 -2.9783  2.3618 -1.6094
  654MOL0     H86267   3.907   3.491  10.799  4.8224  2.7574 -1.2375
  654MOL0     H86268   3.843   3.590  10.943  3.2956  0.8703  3.1046
  654MOL0     H86269   3.899   3.419  11.094  1.1058 -0.9345 -0.4108
  654MOL0     H86270   3.970   3.326  10.964 -1.1118 -0.0968 -2.8263
  654MOL0     H86271   3.690   3.412  11.028  1.0980  1.0977 -0.9628
  654MOL0     H86272   3.723   3.352  10.866  1.1983 -0.0847 -0.5418
  654MOL0     H86273   3.807   3.184  11.114 -0.9631 -1.7385 -0.0951
  654MOL0     H86274   3.785   3.143  10.944  0.7754 -1.3551  1.8397
  654MOL0     H86275   3.563   3.158  10.959  1.2843  0.8828  0.4219
  654MOL0     H86276   3.553   3.242  11.114 -0.3638  0.4796 -0.4760
  654MOL0     H86277   3.597   2.953  11.041 -0.5188 -1.0456 -1.1177
  654MOL0     H86278   3.682   3.006  11.193 -0.6397 -1.1309  0.9413
  654MOL0     H86279   3.379   3.047  11.165  0.4633  1.5267 -0.7904
  654MOL0     H86280   3.486   3.037  11.310  2.4931 -2.2393  0.6177
  654MOL0     H86281   3.229   2.859  11.260  1.6704  2.4624  2.2324
  654MOL0     H86282   3.262   2.500  11.385  2.2245 -0.1474 -0.2833
  654MOL0     H86283   3.273   2.481  11.213 -0.7496  0.9418 -2.0275
  654MOL0     H86284   3.091   2.653  11.193  0.0593  0.0327 -0.2123
  654MOL0     H86285   3.051   2.647  11.365 -0.6240 -0.8053 -0.2537
  654MOL0     H86286   3.039   2.437  11.143 -0.5295  1.1674 -0.5835
  654MOL0     H86287   3.053   2.381  11.311  0.1268 -0.2605 -1.0629
  654MOL0     H86288   2.821   2.549  11.199 -1.0196 -0.5891 -0.5534
  654MOL0     H86289   2.848   2.497  11.373 -0.0406 -1.0838  0.6936
  654MOL0     H86290   2.669   2.194  11.077 -0.0176 -0.5906  1.6460
  654MOL0     H86291   2.434   2.220  11.028  1.1147  1.5496 -3.4214
  654MOL0     H86292   1.996   2.190  11.213 -0.6872  0.2133 -1.7606
  654MOL0     H86293   1.756   2.192  11.225 -0.3908  0.1091  0.2554
  654MOL0     H86294   1.581   2.205  11.357 -0.6504 -0.7193 -2.5388
  654MOL0     H86295   1.535   2.287  11.209 -1.7008 -0.3561 -0.0842
  654MOL0     H86296   1.326   2.263  11.294  1.1535 -1.7376  0.3254
  654MOL0     H86297   1.359   2.413  11.378  3.6638  1.6650 -0.7003
  654MOL0     H86298   1.446   2.258  11.576 -1.2173  0.9869  1.2907
  654MOL0     H86299   1.375   2.115  11.489  1.4370 -0.2280 -0.8834
  654MOL0     H86300   1.255   2.327  11.663  1.2993 -0.5034  0.2573
  654MOL0     H86301   1.172   2.314  11.513  2.4392  2.3617 -0.8191
  654MOL0     H86302   1.215   2.076  11.701  2.8113 -1.4703 -3.8698
  654MOL0     H86303   1.142   2.062  11.554  0.2053 -1.2768  1.8479
  654MOL0     H86304   0.946   2.145  11.618 -1.6994  3.5599 -0.4246
  654MOL0     H86305   1.013   2.297  11.663 -0.1288 -0.0171 -1.3945
  654MOL0     H86306   0.894   2.136  11.856  0.5989  0.6577  4.0819
  654MOL0     H86307   1.067   2.100  11.869 -2.2095 -0.3217  3.7764
  654MOL0     H86308   0.932   2.380  11.915 -0.3485 -0.2499  0.3953
  654MOL0     H86309   1.107   2.340  11.909  0.6452 -1.9582 -0.5276
  654MOL0     H86310   1.778   2.580  11.416 -2.1132 -0.1037 -1.0611
  654MOL0     H86311   2.039   2.569  11.387  0.2823 -2.1265  2.4804
  654MOL0     H86312   2.398   2.476  11.374 -0.7195  0.8810 -0.2176
  654MOL0     H86313   2.642   2.495  11.375 -0.5038 -0.1097  0.7285
  654MOL0     H86314   4.349   3.365  10.780 -1.8145 -0.3401 -0.8430
  654MOL0     H86315   4.602   3.447  10.734 -0.5337  0.1786 -0.4314
  654MOL0     H86316   4.918   4.013  10.782  0.5429  1.1116  0.0731
  654MOL0     H86317   5.157   4.010  10.814 -1.0581  0.4111  0.0905
  654MOL0     H86318   5.490   3.712  10.860 -0.2072 -1.8268 -0.2000
  654MOL0     H86319   5.359   3.602  10.878 -0.1426  0.1613  0.2602
  654MOL0     H86320   5.315   3.682  11.113  0.5689 -1.5964  1.1914
  654MOL0     H86321   5.473   3.601  11.081  2.7270  0.1662 -3.4531
  654MOL0     H86322   5.447   3.912  11.091  2.3687  1.4304 -0.7364
  654MOL0     H86323   5.587   3.814  11.074 -0.5318 -1.3654  1.0371
  654MOL0     H86324   5.579   3.896  11.299 -0.4591  0.4239  2.0001
  654MOL0     H86325   5.416   3.829  11.324  0.3856  2.8732  0.8900
  654MOL0     H86326   5.697   3.503  11.361 -0.7165 -0.6942  2.4203
  654MOL0     H86327   5.156   3.592  10.888  0.5013 -1.0778 -2.8409
  654MOL0     H86328   4.917   3.572  10.834 -0.9298  0.6301 -0.3166
  655MOL0     O86329   7.265   9.242   0.214  0.0567 -0.3692  0.0348
  655MOL0     C86330   7.267   9.177   0.314 -0.1089 -0.2501 -0.1297
  655MOL0     O86331   7.159   9.106   0.365  0.7116  0.1164 -0.6719
  655MOL0     C86332   7.030   9.109   0.310  0.0838  0.1444 -0.2234
  655MOL0     C86333   6.997   9.160   0.181 -0.2132 -0.1722  0.1198
  655MOL0     C86334   6.863   9.169   0.134  0.8796 -0.3025 -0.5148
  655MOL0     C86335   6.759   9.133   0.217  0.5483 -0.3973  0.7182
  655MOL0     O86336   6.625   9.137   0.194 -0.2392 -0.2510 -0.0764
  655MOL0     C86337   6.584   9.244   0.110  0.2122 -0.4429  0.5686
  655MOL0     C86338   6.524   9.180  -0.015  0.0374  1.0126  0.3221
  655MOL0     C86339   6.380   9.148   0.002 -0.6684  0.6622 -0.6857
  655MOL0     C86340   6.314   9.107  -0.124  0.1505 -0.3104  0.3385
  655MOL0     C86341   6.169   9.076  -0.098 -0.3250 -0.4367  0.5488
  655MOL0     C86342   6.098   9.058  -0.236  0.2022 -0.1709 -0.2030
  655MOL0     C86343   5.952   9.015  -0.204 -0.9340  0.1003 -0.1103
  655MOL0     C86344   5.865   9.010  -0.332 -0.1237 -0.0854 -0.4142
  655MOL0     N86345   5.723   8.998  -0.292  0.5166 -0.5623 -0.2954
  655MOL0     C86346   5.618   9.034  -0.375 -0.0844 -0.9337 -0.1818
  655MOL0     C86347   5.512   8.963  -0.326 -0.4546  0.1487 -0.1480
  655MOL0     C86348   5.389   8.952  -0.405  0.2336  0.3155  0.2914
  655MOL0     C86349   5.282   8.882  -0.329  0.5696  0.0208  0.3831
  655MOL0     C86350   5.208   8.986  -0.235  0.9093  0.0141  0.1731
  655MOL0     C86351   5.091   8.936  -0.150  0.3961  0.0847  0.6680
  655MOL0     O86352   4.993   8.866  -0.235  0.0939 -0.1020 -0.0755
  655MOL0     C86353   4.877   8.835  -0.166  0.1833 -0.0961 -0.1827
  655MOL0     C86354   4.859   8.836  -0.021 -0.7532  0.6039  0.4804
  655MOL0     C86355   4.743   8.788   0.033 -0.7736 -1.0719  0.6231
  655MOL0     C86356   4.636   8.745  -0.044 -0.4784  0.4164 -0.1846
  655MOL0     C86357   4.516   8.681   0.022  0.1656  0.8270 -0.1915
  655MOL0     O86358   4.398   8.679  -0.056 -0.5166 -0.3488 -0.2046
  655MOL0     C86359   4.283   8.616  -0.014  1.1394 -0.3543 -0.1108
  655MOL0     C86360   4.245   8.606   0.119 -0.2122 -0.3111 -0.2131
  655MOL0     C86361   4.140   8.532   0.162  0.8351 -0.1421  0.1758
  655MOL0     C86362   4.043   8.491   0.071  0.2402 -0.9327  0.3934
  655MOL0     O86363   3.935   8.416   0.101 -0.2470 -0.6399 -0.6057
  655MOL0     C86364   3.905   8.396   0.237  0.3204  0.6129  0.0822
  655MOL0     C86365   3.801   8.295   0.256  0.5079 -0.1518  0.4240
  655MOL0     C86366   3.672   8.348   0.196  0.3971 -0.7754 -0.3285
  655MOL0     C86367   3.555   8.276   0.268 -0.6347 -0.1987  0.3573
  655MOL0     C86368   3.429   8.247   0.190  0.4739 -0.3799  0.0327
  655MOL0     C86369   3.341   8.370   0.169 -0.3694 -0.5254 -1.4187
  655MOL0     C86370   3.288   8.413   0.306  1.0215  0.0237 -0.4030
  655MOL0     C86371   3.183   8.524   0.286  0.3487  0.4261  0.2127
  655MOL0    Cl86372   3.050   8.460   0.191  0.4217  0.0784  0.1123
  655MOL0     C86373   4.074   8.500  -0.065 -0.5843 -0.1944  0.9658
  655MOL0     C86374   4.188   8.567  -0.107  0.0477  0.4884  0.4189
  655MOL0     O86375   4.523   8.649   0.144 -0.7786 -0.2901  0.6598
  655MOL0     C86376   4.660   8.727  -0.182  0.4554 -0.2037 -0.7733
  655MOL0     C86377   4.772   8.766  -0.241 -0.7713 -0.9880 -0.4821
  655MOL0     N86378   5.545   8.907  -0.211  0.4303  0.1786  0.3751
  655MOL0     N86379   5.667   8.933  -0.181 -0.0429 -0.8637  0.0411
  655MOL0     C86380   6.793   9.075   0.339  0.1300  0.2607  0.1058
  655MOL0     C86381   6.919   9.063   0.390 -0.0801  0.8226  0.1688
  655MOL0     C86382   7.390   9.150   0.379 -0.1772 -0.5866  0.5535
  655MOL0     C86383   7.393   9.102   0.512  0.6499  0.1523 -0.2085
  655MOL0     C86384   7.510   9.043   0.559 -0.8218  0.3782 -0.6447
  655MOL0     C86385   7.632   9.041   0.488 -0.5416 -0.6357  0.7547
  655MOL0     O86386   7.737   8.969   0.553  0.6413  0.5186 -0.4043
  655MOL0     C86387   7.860   8.957   0.476 -0.3229 -0.4486 -0.6623
  655MOL0     C86388   7.962   9.078   0.481  0.1662 -0.5068 -0.2332
  655MOL0     C86389   8.008   9.103   0.627  0.8293  0.3563  0.1804
  655MOL0     C86390   8.110   9.213   0.632 -0.7492  0.8176 -0.7711
  655MOL0     C86391   8.236   9.176   0.564  0.8460 -1.0016 -0.7610
  655MOL0     C86392   8.341   9.164   0.505  0.1183  0.7917 -0.3125
  655MOL0     C86393   7.636   9.101   0.358  0.5082  0.0215  0.2886
  655MOL0     C86394   7.518   9.162   0.309  0.1261 -0.4016 -0.5649
  655MOL0     H86395   7.072   9.186   0.108 -0.2331 -2.3717 -0.7565
  655MOL0     H86396   6.839   9.208   0.036  1.2478 -0.6662 -0.7552
  655MOL0     H86397   6.657   9.322   0.084 -2.7345  1.9347 -1.2504
  655MOL0     H86398   6.500   9.297   0.157 -0.0989  0.8671 -1.3329
  655MOL0     H86399   6.579   9.090  -0.044 -0.0723  0.6868  1.0963
  655MOL0     H86400   6.536   9.235  -0.109 -2.1104  0.6274 -0.2492
  655MOL0     H86401   6.320   9.232   0.038 -1.8235 -1.0219  1.5982
  655MOL0     H86402   6.376   9.061   0.069  1.7743 -1.4221 -3.0380
  655MOL0     H86403   6.321   9.196  -0.187 -0.0272  1.2626  2.4570
  655MOL0     H86404   6.357   9.023  -0.180  0.4820  0.0438  0.0638
  655MOL0     H86405   6.124   9.158  -0.040  4.9884  3.8437 -0.6325
  655MOL0     H86406   6.165   8.983  -0.040  2.8995 -1.2543 -0.3580
  655MOL0     H86407   6.138   8.978  -0.299  1.9514  0.8999 -0.5121
  655MOL0     H86408   6.100   9.148  -0.299 -3.1046  0.8241  0.9024
  655MOL0     H86409   5.955   8.911  -0.169  1.1699  1.0096  2.7830
  655MOL0     H86410   5.907   9.074  -0.125 -0.6000 -2.2817  1.9770
  655MOL0     H86411   5.877   8.915  -0.384 -6.2830 -0.5298 -1.7513
  655MOL0     H86412   5.873   9.091  -0.406 -0.1369  0.2818 -0.0203
  655MOL0     H86413   5.620   9.081  -0.472 -0.6951  3.6177  1.7547
  655MOL0     H86414   5.398   8.899  -0.500 -0.5593  0.2667  0.2412
  655MOL0     H86415   5.359   9.053  -0.433 -1.6323  0.6524  3.1060
  655MOL0     H86416   5.328   8.801  -0.272  1.0852 -0.1448 -0.2633
  655MOL0     H86417   5.209   8.831  -0.393  0.6288 -0.2516  0.5324
  655MOL0     H86418   5.285   9.022  -0.167 -0.1607 -0.7563  1.8733
  655MOL0     H86419   5.160   9.064  -0.296 -0.5322 -0.4718  0.6290
  655MOL0     H86420   5.046   9.026  -0.107 -0.7006 -1.0398  2.0202
  655MOL0     H86421   5.128   8.878  -0.065 -0.4729 -0.6076  0.5922
  655MOL0     H86422   4.938   8.875   0.042  0.1200 -1.6994  0.8889
  655MOL0     H86423   4.730   8.781   0.141  0.9703 -3.1515  0.7745
  655MOL0     H86424   4.298   8.663   0.194 -0.5125 -0.0469 -0.1955
  655MOL0     H86425   4.135   8.533   0.270  1.1182 -0.8960  0.2000
  655MOL0     H86426   3.873   8.488   0.286  0.8974  1.0343 -0.3095
  655MOL0     H86427   3.995   8.355   0.284  0.1168 -0.4189 -0.3943
  655MOL0     H86428   3.792   8.277   0.363  1.5511 -0.2468  0.5113
  655MOL0     H86429   3.824   8.196   0.216 -2.4159 -0.8110  0.1415
  655MOL0     H86430   3.679   8.341   0.087  2.8705  1.5393 -0.4116
  655MOL0     H86431   3.663   8.454   0.219 -3.1692 -1.2361  1.0415
  655MOL0     H86432   3.602   8.181   0.296  2.2676  1.5185  1.6737
  655MOL0     H86433   3.537   8.331   0.360  0.5578  2.6266 -0.9713
  655MOL0     H86434   3.373   8.174   0.248 -2.9886  2.7577  1.0162
  655MOL0     H86435   3.449   8.211   0.088  0.2556  1.4877 -0.7100
  655MOL0     H86436   3.261   8.340   0.101  0.4363 -1.9085 -1.7885
  655MOL0     H86437   3.409   8.446   0.128  0.5682 -0.2890  0.4754
  655MOL0     H86438   3.245   8.331   0.364  1.4885 -0.0837 -0.2007
  655MOL0     H86439   3.363   8.453   0.374 -1.0555 -0.4782  2.3277
  655MOL0     H86440   3.239   8.599   0.228  0.5522 -1.1146 -1.6885
  655MOL0     H86441   3.154   8.562   0.384  0.5838  0.5399  0.2392
  655MOL0     H86442   4.006   8.449  -0.133 -0.7131 -0.4152  1.2580
  655MOL0     H86443   4.197   8.571  -0.216 -1.4285 -1.9151  0.1308
  655MOL0     H86444   4.582   8.681  -0.242  1.0685 -0.3515 -1.4781
  655MOL0     H86445   4.791   8.755  -0.347  2.5967 -2.9904  0.1704
  655MOL0     H86446   6.711   9.030   0.395  0.1288 -2.1436 -1.6506
  655MOL0     H86447   6.922   9.009   0.484 -0.7523  0.7426  0.1480
  655MOL0     H86448   7.303   9.085   0.571  0.2757 -1.4576 -1.1828
  655MOL0     H86449   7.506   9.007   0.662 -1.0374  2.2899  0.0664
  655MOL0     H86450   7.822   8.940   0.375 -1.2248  1.5085 -0.6998
  655MOL0     H86451   7.910   8.863   0.503 -0.4849 -0.6705 -1.1262
  655MOL0     H86452   8.041   9.034   0.419 -0.3516 -1.0439 -0.5155
  655MOL0     H86453   7.910   9.163   0.438 -1.9657 -1.9404 -0.6238
  655MOL0     H86454   8.044   9.011   0.673 -3.4228 -1.9128 -0.5925
  655MOL0     H86455   7.926   9.150   0.682 -0.2974  0.8625 -1.8228
  655MOL0     H86456   8.068   9.307   0.595 -2.2174  0.8134  0.7765
  655MOL0     H86457   8.136   9.241   0.735  1.5662  1.9294 -1.5846
  655MOL0     H86458   8.429   9.148   0.447 -0.0059 -1.2385 -0.0273
  655MOL0     H86459   7.722   9.109   0.292  0.6597 -0.8476  0.3643
  655MOL0     H86460   7.513   9.205   0.209 -1.3026 -4.0233 -2.2271
  656MOL0     O86461  10.910   0.858   7.384  0.1243 -0.2082 -0.1269
  656MOL0     C86462  10.939   0.953   7.303  0.0561  0.7888  0.0729
  656MOL0     O86463  11.037   0.938   7.220  0.0012 -0.4799 -0.0941
  656MOL0     C86464  11.119   0.824   7.233  0.0166  0.2154 -0.0120
  656MOL0     C86465  11.093   0.726   7.138  0.0405 -1.2250  0.0144
  656MOL0     C86466  11.179   0.619   7.126  0.0488  0.5076 -0.0333
  656MOL0     C86467  11.285   0.597   7.215  0.1063  0.6671 -0.4967
  656MOL0     O86468  11.355   0.484   7.219  0.4863  0.1768 -0.4705
  656MOL0     C86469  11.352   0.387   7.112 -0.1244  0.4215  0.3406
  656MOL0     C86470  11.472   0.294   7.134 -0.0055  0.9564  0.9711
  656MOL0     C86471  11.490   0.195   7.024 -0.6632  0.1452  1.0104
  656MOL0     C86472  11.624   0.126   7.036 -0.2107  0.1449  0.0849
  656MOL0     C86473  11.657   0.030   6.916  0.2624  0.4987 -0.3029
  656MOL0     C86474  11.808   0.016   6.905 -0.3885  0.2189 -0.3616
  656MOL0     C86475  11.847  -0.076   6.786 -0.2364  0.0083  0.2123
  656MOL0     C86476  11.998  -0.107   6.786 -0.9691 -0.4427 -1.2166
  656MOL0     N86477  12.074   0.016   6.761  0.7345 -0.5437 -1.1581
  656MOL0     C86478  12.180   0.068   6.828  0.6245  0.7579 -0.3925
  656MOL0     C86479  12.234   0.157   6.753  0.4120  0.4316 -0.4749
  656MOL0     C86480  12.328   0.263   6.803 -0.1499 -0.4127 -0.3695
  656MOL0     C86481  12.283   0.409   6.778 -0.4344  0.2687  0.4130
  656MOL0     C86482  12.147   0.450   6.851 -0.9672  0.4266 -0.3030
  656MOL0     C86483  12.020   0.407   6.779  0.8560  0.1148  0.3471
  656MOL0     O86484  11.913   0.474   6.837 -0.0328 -0.3280 -0.4181
  656MOL0     C86485  11.786   0.449   6.804 -1.4797 -0.4137 -0.3048
  656MOL0     C86486  11.685   0.537   6.844  0.0943  0.2300 -0.1659
  656MOL0     C86487  11.551   0.520   6.810  0.0069  0.2446  0.1640
  656MOL0     C86488  11.510   0.413   6.727  0.1615 -0.7357 -0.5100
  656MOL0     C86489  11.366   0.391   6.682  0.4339  0.4983  0.1133
  656MOL0     O86490  11.343   0.297   6.589  0.4271 -0.3953 -0.1059
  656MOL0     C86491  11.221   0.288   6.548  0.4642  0.5891 -0.2977
  656MOL0     C86492  11.153   0.179   6.588  0.9541 -0.6198 -0.3545
  656MOL0     C86493  11.024   0.166   6.542  0.0299 -0.1547  0.2887
  656MOL0     C86494  10.956   0.259   6.454  0.6557  0.5333  0.0505
  656MOL0     O86495  10.825   0.248   6.428 -0.4110 -0.2809  0.2987
  656MOL0     C86496  10.754   0.368   6.478 -0.2909 -0.4746  0.4543
  656MOL0     C86497  10.607   0.327   6.486 -0.4265  0.6310  0.1759
  656MOL0     C86498  10.568   0.190   6.560 -0.4235  0.1756  0.0731
  656MOL0     C86499  10.560   0.213   6.713 -1.1390 -0.2669  0.6428
  656MOL0     C86500  10.515   0.098   6.797  0.2982  1.0023 -0.3825
  656MOL0     C86501  10.625  -0.010   6.819  0.9327  0.6412 -0.7270
  656MOL0     C86502  10.600  -0.107   6.938 -0.1836 -0.3653 -0.0585
  656MOL0     C86503  10.457  -0.145   6.949  0.9399 -0.8290  0.5205
  656MOL0    Cl86504  10.396  -0.220   6.795  0.0082 -0.3139  0.0445
  656MOL0     C86505  11.033   0.372   6.411 -0.9808  0.3836 -0.1847
  656MOL0     C86506  11.166   0.384   6.460  0.1703  0.2942  1.0385
  656MOL0     O86507  11.283   0.465   6.730  0.3705 -0.2008  0.5417
  656MOL0     C86508  11.608   0.326   6.686 -0.1782  0.4374  0.2981
  656MOL0     C86509  11.745   0.340   6.727  0.0149 -0.1666 -0.0421
  656MOL0     N86510  12.169   0.151   6.628  0.8449 -0.3778 -0.0191
  656MOL0     N86511  12.074   0.070   6.639  0.6454  0.1461  0.0996
  656MOL0     C86512  11.310   0.697   7.317  0.2567  1.0411 -0.7987
  656MOL0     C86513  11.228   0.811   7.321 -0.5216 -0.5824  0.4145
  656MOL0     C86514  10.846   1.069   7.280  0.9842 -0.1083  0.1095
  656MOL0     C86515  10.743   1.082   7.371 -0.2249 -0.2627 -0.5774
  656MOL0     C86516  10.648   1.185   7.354 -0.7032  0.2407 -0.1534
  656MOL0     C86517  10.650   1.273   7.254 -0.1228  0.1859 -0.0044
  656MOL0     O86518  10.558   1.372   7.234 -0.2442 -0.3991  0.4643
  656MOL0     C86519  10.473   1.424   7.342 -0.4316  0.5643  0.3951
  656MOL0     C86520  10.327   1.378   7.322  0.0598 -0.7776 -0.8916
  656MOL0     C86521  10.281   1.411   7.190 -0.3232 -0.4342  0.3453
  656MOL0     C86522  10.132   1.408   7.172 -0.5566 -0.6875 -0.7274
  656MOL0     C86523  10.056   1.299   7.234  0.1560  0.0617  0.3208
  656MOL0     C86524   9.971   1.224   7.270 -0.2529  0.0011 -0.1068
  656MOL0     C86525  10.751   1.252   7.158 -0.1626  0.2508 -0.0627
  656MOL0     C86526  10.852   1.155   7.169  0.1041 -0.1820  0.4524
  656MOL0     H86527  11.008   0.752   7.075  1.1406  2.8036 -0.1206
  656MOL0     H86528  11.159   0.553   7.042  1.1260 -1.0546  0.8866
  656MOL0     H86529  11.362   0.444   7.020  2.3402  3.1527  2.1230
  656MOL0     H86530  11.265   0.323   7.124 -0.1184  0.5928  1.4638
  656MOL0     H86531  11.486   0.241   7.228  4.1603  0.3416  0.2329
  656MOL0     H86532  11.565   0.352   7.128  0.9991 -0.5213  1.6530
  656MOL0     H86533  11.480   0.235   6.923 -1.0509 -4.1011 -0.8320
  656MOL0     H86534  11.411   0.119   7.036  0.1173 -0.4309  2.9360
  656MOL0     H86535  11.704   0.199   7.053  1.1107 -1.7558  2.6736
  656MOL0     H86536  11.633   0.058   7.120  1.4550  2.0827  1.5708
  656MOL0     H86537  11.617   0.068   6.821  0.1963  1.5606  0.1390
  656MOL0     H86538  11.617  -0.068   6.944  3.2323 -0.8021 -0.2706
  656MOL0     H86539  11.846  -0.021   7.000 -1.7504  0.5222  0.3226
  656MOL0     H86540  11.853   0.115   6.890  0.8007 -0.3233 -0.5258
  656MOL0     H86541  11.782  -0.163   6.801  0.1094 -0.4431 -0.8087
  656MOL0     H86542  11.816  -0.025   6.695 -0.4891  0.5896  0.6198
  656MOL0     H86543  12.028  -0.185   6.715  1.4862 -1.3465  0.6863
  656MOL0     H86544  12.019  -0.143   6.887 -0.0412  0.1758 -1.1698
  656MOL0     H86545  12.198   0.044   6.933 -1.7050  0.1245 -0.0731
  656MOL0     H86546  12.422   0.259   6.747  0.2929 -2.4676  0.4393
  656MOL0     H86547  12.344   0.263   6.911  0.7071  0.8243 -0.4760
  656MOL0     H86548  12.269   0.417   6.669  1.1963 -0.2868  0.1392
  656MOL0     H86549  12.364   0.476   6.808  0.9608 -0.1854 -2.0351
  656MOL0     H86550  12.151   0.420   6.956  0.4160  0.1727 -0.4064
  656MOL0     H86551  12.149   0.559   6.858  7.2209  1.0088 -1.2681
  656MOL0     H86552  12.016   0.298   6.789 -2.7917 -0.2790 -2.8539
  656MOL0     H86553  12.012   0.421   6.670 -1.5736  3.0051  0.7807
  656MOL0     H86554  11.703   0.628   6.901 -0.2750  0.3276 -0.2062
  656MOL0     H86555  11.477   0.594   6.839  0.0491  1.5297 -2.6499
  656MOL0     H86556  11.203   0.110   6.656  2.4771  1.0995  0.3612
  656MOL0     H86557  10.966   0.085   6.584 -1.8932  1.1444  0.2808
  656MOL0     H86558  10.781   0.450   6.411  0.9211 -0.3112  1.1202
  656MOL0     H86559  10.785   0.406   6.575 -1.3835 -0.1059  0.6746
  656MOL0     H86560  10.570   0.335   6.383  1.9122 -0.8459 -0.8723
  656MOL0     H86561  10.566   0.414   6.539  0.6375  1.6126 -0.5537
  656MOL0     H86562  10.627   0.104   6.528 -0.0992  0.0196  1.0521
  656MOL0     H86563  10.471   0.147   6.533 -0.9352 -1.1003  3.4406
  656MOL0     H86564  10.655   0.235   6.763 -0.4930 -0.4721 -0.4523
  656MOL0     H86565  10.502   0.306   6.719 -0.8123  0.2868 -2.7359
  656MOL0     H86566  10.424   0.053   6.756 -0.9545  2.1409  1.0253
  656MOL0     H86567  10.488   0.147   6.892 -0.6988  0.3573 -0.3089
  656MOL0     H86568  10.724   0.029   6.844  1.9952 -3.0882  1.8005
  656MOL0     H86569  10.634  -0.064   6.724  0.8783  2.8836 -2.0679
  656MOL0     H86570  10.647  -0.205   6.932 -0.6144 -1.0490  4.3881
  656MOL0     H86571  10.626  -0.061   7.034  1.6069  0.0442 -0.6988
  656MOL0     H86572  10.389  -0.059   6.958 -0.0583 -1.4988 -0.4125
  656MOL0     H86573  10.435  -0.209   7.036 -0.5343 -1.4645 -0.2762
  656MOL0     H86574  10.982   0.444   6.348  1.8310  2.1747 -0.6139
  656MOL0     H86575  11.228   0.466   6.424  1.4649 -0.3781  1.6855
  656MOL0     H86576  11.590   0.235   6.630  0.2500  0.1156  0.6676
  656MOL0     H86577  11.808   0.261   6.688 -0.2777 -1.8020  2.5387
  656MOL0     H86578  11.385   0.680   7.394  0.3661  0.0438 -1.1116
  656MOL0     H86579  11.254   0.873   7.406  2.5105 -1.1948  0.0272
  656MOL0     H86580  10.730   1.024   7.462  0.7358 -1.0081 -0.9039
  656MOL0     H86581  10.578   1.208   7.435  0.1949  2.0934  0.1520
  656MOL0     H86582  10.472   1.533   7.342  1.4481  0.6296  0.6435
  656MOL0     H86583  10.514   1.385   7.436 -0.0151 -0.0705 -0.0330
  656MOL0     H86584  10.316   1.269   7.328 -2.7874 -0.5002  1.1117
  656MOL0     H86585  10.260   1.417   7.400  2.3278 -0.1073  0.8177
  656MOL0     H86586  10.326   1.347   7.113 -0.3349  0.9703 -0.8698
  656MOL0     H86587  10.313   1.512   7.161  2.4123 -1.2546  0.2264
  656MOL0     H86588  10.093   1.497   7.222  1.8593 -0.0403  0.1009
  656MOL0     H86589  10.117   1.407   7.063 -0.3262 -1.6079 -0.7550
  656MOL0     H86590   9.901   1.153   7.308 -0.4451 -0.4011 -1.1869
  656MOL0     H86591  10.764   1.332   7.087  0.7955 -1.3930 -1.8263
  656MOL0     H86592  10.930   1.155   7.093 -1.6413  0.8963 -1.4168
  657MOL0     O86593   5.479  10.907   4.041  0.0777 -0.2112  0.0402
  657MOL0     C86594   5.485  11.027   4.017 -0.4462  0.2429 -0.2193
  657MOL0     O86595   5.412  11.103   3.933  0.5768  0.5268  0.0527
  657MOL0     C86596   5.291  11.043   3.905  0.5116  0.7385 -0.6301
  657MOL0     C86597   5.275  10.909   3.857  0.8908  0.3018 -0.3321
  657MOL0     C86598   5.144  10.862   3.826  0.0930 -1.2629 -1.5903
  657MOL0     C86599   5.029  10.948   3.850 -0.4406 -0.1490  0.7916
  657MOL0     O86600   4.897  10.910   3.829  0.1884  0.1077  0.1521
  657MOL0     C86601   4.866  10.769   3.820 -0.5255 -0.7931 -0.0627
  657MOL0     C86602   4.721  10.735   3.808  0.8768 -0.4997 -0.0668
  657MOL0     C86603   4.636  10.777   3.929 -0.0271  0.2236 -0.0970
  657MOL0     C86604   4.580  10.921   3.917  0.1863 -0.6229  0.3916
  657MOL0     C86605   4.472  10.937   4.027 -0.6538 -0.0149  0.0503
  657MOL0     C86606   4.376  11.049   3.984  0.1454 -0.4662  0.3262
  657MOL0     C86607   4.437  11.186   4.009  0.2688 -0.2402 -0.5665
  657MOL0     C86608   4.372  11.296   3.932  0.2012 -0.3629 -0.1596
  657MOL0     N86609   4.418  11.427   3.961  0.5545  0.3331  0.4261
  657MOL0     C86610   4.547  11.476   3.951 -0.0069  0.0077  0.8497
  657MOL0     C86611   4.547  11.603   3.986  0.6317  0.0351  0.1486
  657MOL0     C86612   4.672  11.697   3.993  0.2174  0.3717 -0.1706
  657MOL0     C86613   4.767  11.648   4.119 -0.3842 -0.0066  0.2908
  657MOL0     C86614   4.741  11.732   4.238  0.2993 -0.3001  0.0189
  657MOL0     C86615   4.852  11.714   4.339  0.4235 -0.1606 -0.1289
  657MOL0     O86616   4.988  11.723   4.287 -0.2690 -0.0234 -0.7468
  657MOL0     C86617   5.084  11.657   4.366  0.2606 -0.6338  0.0426
  657MOL0     C86618   5.079  11.614   4.499  0.2226 -0.3318 -1.0371
  657MOL0     C86619   5.193  11.544   4.552  0.5785  0.5138  1.4206
  657MOL0     C86620   5.304  11.510   4.466 -0.6136  0.3678 -0.4057
  657MOL0     C86621   5.419  11.431   4.523 -0.1811 -0.2666  0.2691
  657MOL0     O86622   5.535  11.424   4.444  0.8429  0.8361  0.0244
  657MOL0     C86623   5.645  11.362   4.488  1.1195  0.2203 -0.2636
  657MOL0     C86624   5.721  11.417   4.586 -0.3030  0.7068 -0.2518
  657MOL0     C86625   5.839  11.356   4.623  0.0268  0.3016  0.5743
  657MOL0     C86626   5.868  11.226   4.582  0.6835 -1.2942 -0.9650
  657MOL0     O86627   5.985  11.159   4.617  0.6469 -0.7785 -0.4886
  657MOL0     C86628   6.101  11.242   4.585  0.1167  0.5039 -0.7633
  657MOL0     C86629   6.219  11.154   4.606  0.0548  0.1621 -0.0967
  657MOL0     C86630   6.342  11.221   4.555  0.0381  0.7165 -0.3036
  657MOL0     C86631   6.458  11.172   4.633 -0.9674  0.2058 -0.6142
  657MOL0     C86632   6.600  11.206   4.576  0.3174 -0.2014 -0.0341
  657MOL0     C86633   6.644  11.154   4.443 -0.3487 -0.7304 -0.6968
  657MOL0     C86634   6.798  11.176   4.416 -0.3272  0.0774 -0.9763
  657MOL0     C86635   6.836  11.109   4.282 -0.3144 -0.5514  0.0819
  657MOL0    Cl86636   7.016  11.124   4.255 -0.1081 -0.0841 -0.0379
  657MOL0     C86637   5.776  11.158   4.503 -0.7313 -0.6423  0.3438
  657MOL0     C86638   5.673  11.232   4.444  0.0777 -0.0172 -0.1119
  657MOL0     O86639   5.412  11.389   4.637  0.0986 -0.3868 -0.3548
  657MOL0     C86640   5.303  11.557   4.336 -0.3340 -0.8256 -1.0837
  657MOL0     C86641   5.193  11.625   4.288  0.4136 -0.1389  0.2409
  657MOL0     N86642   4.416  11.629   4.027 -0.9751  0.5214 -0.3927
  657MOL0     N86643   4.341  11.526   4.013 -0.6521 -0.0306  0.4164
  657MOL0     C86644   5.049  11.078   3.896 -0.2094 -0.2148 -0.1426
  657MOL0     C86645   5.178  11.121   3.926 -0.2185  0.7863 -0.0116
  657MOL0     C86646   5.615  11.093   4.060  0.4119  0.4124  0.7723
  657MOL0     C86647   5.723  11.010   4.109 -0.1006  0.8224 -0.5045
  657MOL0     C86648   5.843  11.067   4.143 -0.1980  0.8161  1.0529
  657MOL0     C86649   5.862  11.205   4.136 -1.0165 -0.3469  0.0152
  657MOL0     O86650   5.988  11.258   4.174 -0.5242  0.4295 -0.7678
  657MOL0     C86651   5.990  11.390   4.240  0.5238  0.4498  0.5416
  657MOL0     C86652   6.107  11.470   4.198 -0.1427 -0.5056  0.0578
  657MOL0     C86653   6.242  11.418   4.241 -0.2269 -0.0062 -0.0112
  657MOL0     C86654   6.340  11.529   4.224  0.3966 -0.0319  0.6257
  657MOL0     C86655   6.482  11.501   4.264  0.2557  0.2703 -0.0700
  657MOL0     C86656   6.595  11.471   4.296 -0.7505 -0.0272 -0.4636
  657MOL0     C86657   5.755  11.280   4.095  0.4251 -0.1958 -0.0169
  657MOL0     C86658   5.633  11.232   4.058 -0.0370 -0.5952  0.1938
  657MOL0     H86659   5.360  10.843   3.848  0.5491 -0.3653  1.0423
  657MOL0     H86660   5.130  10.759   3.794  0.9120 -1.3972 -1.5415
  657MOL0     H86661   4.900  10.707   3.903 -0.7595  0.2279  0.8298
  657MOL0     H86662   4.906  10.742   3.721  1.6368 -0.1149  0.5554
  657MOL0     H86663   4.720  10.626   3.804  3.1291 -0.6259  1.1233
  657MOL0     H86664   4.679  10.774   3.715  0.3567 -2.4161 -0.6699
  657MOL0     H86665   4.687  10.756   4.023  2.9393 -3.3236 -2.2466
  657MOL0     H86666   4.546  10.715   3.926 -0.1820  0.4599 -2.1040
  657MOL0     H86667   4.656  11.000   3.930 -1.1659  0.8392 -0.2941
  657MOL0     H86668   4.536  10.934   3.818 -1.8669  0.9420  1.4353
  657MOL0     H86669   4.527  10.971   4.116 -1.8923  0.0479  0.8196
  657MOL0     H86670   4.420  10.843   4.044  0.3919 -0.6840 -0.3236
  657MOL0     H86671   4.276  11.036   4.027 -0.3421  0.9226 -0.3184
  657MOL0     H86672   4.353  11.039   3.878 -2.9238 -3.8171  1.1203
  657MOL0     H86673   4.424  11.202   4.116 -2.2401 -1.4924 -0.6009
  657MOL0     H86674   4.544  11.198   3.988  0.4580 -0.4371  0.2691
  657MOL0     H86675   4.263  11.296   3.934  0.0600 -1.2700 -3.0353
  657MOL0     H86676   4.402  11.272   3.829  1.7762  3.5802 -0.8139
  657MOL0     H86677   4.644  11.435   3.921  0.9351  1.0850  2.2905
  657MOL0     H86678   4.641  11.801   4.001 -2.3230 -0.3014 -0.4776
  657MOL0     H86679   4.735  11.682   3.904  0.6105  0.6225  0.0630
  657MOL0     H86680   4.868  11.663   4.080 -1.5081  0.3883 -2.7455
  657MOL0     H86681   4.745  11.543   4.142  1.4219 -0.4010  0.2999
  657MOL0     H86682   4.750  11.839   4.218  0.3241  0.1795  2.2776
  657MOL0     H86683   4.653  11.702   4.297  1.3386  0.3955  2.0424
  657MOL0     H86684   4.830  11.621   4.393  0.8386 -0.0608  0.2203
  657MOL0     H86685   4.836  11.785   4.420 -1.1799  0.8553 -1.2856
  657MOL0     H86686   4.991  11.622   4.561  1.3604 -1.3463  0.8099
  657MOL0     H86687   5.180  11.507   4.653 -3.8068 -1.5059  0.3897
  657MOL0     H86688   5.693  11.518   4.615  0.9991  0.5956  1.6208
  657MOL0     H86689   5.904  11.422   4.679 -1.4397  1.3190  1.1389
  657MOL0     H86690   6.105  11.327   4.654  0.3578 -0.3543  0.3177
  657MOL0     H86691   6.094  11.273   4.481 -2.9039  2.9721  0.0451
  657MOL0     H86692   6.205  11.065   4.545 -2.9280  0.7794 -0.4793
  657MOL0     H86693   6.217  11.126   4.712  1.6543 -1.5820 -0.4861
  657MOL0     H86694   6.336  11.330   4.559 -2.1845  0.8041 -2.8977
  657MOL0     H86695   6.365  11.209   4.448  3.0012 -0.1652  0.3428
  657MOL0     H86696   6.455  11.224   4.729 -0.8289  2.5019 -1.7847
  657MOL0     H86697   6.449  11.066   4.658  0.9495  0.4446  1.4027
  657MOL0     H86698   6.677  11.169   4.644  1.6037  1.3763 -0.5602
  657MOL0     H86699   6.609  11.315   4.579  1.6267 -0.1680 -2.6357
  657MOL0     H86700   6.584  11.199   4.363  1.3088  1.2606 -0.9076
  657MOL0     H86701   6.621  11.047   4.437  0.3452 -0.8208 -2.6749
  657MOL0     H86702   6.827  11.281   4.409  0.8166 -0.0526  0.9920
  657MOL0     H86703   6.858  11.123   4.491  0.6037  2.6794  0.2256
  657MOL0     H86704   6.777  11.155   4.202  1.6307 -0.8605 -1.5966
  657MOL0     H86705   6.796  11.007   4.286 -1.3717 -0.1757 -0.3920
  657MOL0     H86706   5.805  11.058   4.473 -0.6960 -0.8771  1.1232
  657MOL0     H86707   5.604  11.189   4.372 -0.1952 -1.3196  0.8989
  657MOL0     H86708   5.394  11.536   4.282 -0.2892 -0.2916 -1.2145
  657MOL0     H86709   5.190  11.659   4.185 -0.1669  0.3272  0.4090
  657MOL0     H86710   4.961  11.140   3.914 -0.1474  0.3182 -1.5235
  657MOL0     H86711   5.182  11.222   3.965 -1.6862  1.4751 -1.4950
  657MOL0     H86712   5.708  10.903   4.112 -1.4216  1.0106  0.4818
  657MOL0     H86713   5.928  11.004   4.167  0.9304  1.8973  0.0168
  657MOL0     H86714   5.978  11.369   4.347  3.5908 -0.1955  0.8545
  657MOL0     H86715   5.909  11.458   4.214 -1.6064 -2.0833  0.1265
  657MOL0     H86716   6.112  11.475   4.089  0.4275  0.0027  0.1037
  657MOL0     H86717   6.100  11.572   4.239  3.3578 -1.0484  2.4353
  657MOL0     H86718   6.275  11.344   4.169 -1.7265 -0.9260  0.2025
  657MOL0     H86719   6.232  11.384   4.344  0.0231 -0.0942 -0.0160
  657MOL0     H86720   6.345  11.571   4.123  2.7595  1.3360  1.2334
  657MOL0     H86721   6.310  11.610   4.291 -0.6037 -0.8028  1.1351
  657MOL0     H86722   6.697  11.452   4.321 -1.0391  0.6303  1.4211
  657MOL0     H86723   5.751  11.388   4.085  2.1758 -0.1188 -0.1288
  657MOL0     H86724   5.564  11.303   4.015 -2.1716 -1.3562  2.1229
  658MOL0     O86725  10.638   9.585   6.854  0.0183 -0.3597 -0.2579
  658MOL0     C86726  10.724   9.502   6.879  0.3619  0.0579 -0.3833
  658MOL0     O86727  10.701   9.379   6.942 -0.3621 -0.6383  0.5381
  658MOL0     C86728  10.588   9.342   7.010 -0.8222  0.6618  0.5149
  658MOL0     C86729  10.462   9.382   6.975 -0.8313  0.0822  0.8713
  658MOL0     C86730  10.344   9.332   7.050  0.4648 -0.0946  0.2309
  658MOL0     C86731  10.358   9.237   7.142 -1.0801  0.4297 -0.0101
  658MOL0     O86732  10.249   9.193   7.215  0.1819  0.6980  0.4948
  658MOL0     C86733  10.266   9.175   7.361  0.9975 -0.0801 -0.7910
  658MOL0     C86734  10.125   9.165   7.433  0.1222 -0.6472  0.0088
  658MOL0     C86735  10.026   9.267   7.363 -0.1055  1.0076  0.5650
  658MOL0     C86736   9.879   9.242   7.416 -0.3317 -0.4573 -0.0393
  658MOL0     C86737   9.807   9.111   7.377  0.2603 -0.3256 -0.5255
  658MOL0     C86738   9.665   9.091   7.444  0.4819 -0.2712 -0.4365
  658MOL0     C86739   9.608   8.960   7.418 -0.0623 -0.2813  0.1311
  658MOL0     C86740   9.483   8.945   7.499  0.5457 -0.3493 -0.3842
  658MOL0     N86741   9.422   8.814   7.490 -0.3014  0.0621  0.5333
  658MOL0     C86742   9.368   8.755   7.385  0.2566  0.1776  0.0072
  658MOL0     C86743   9.319   8.639   7.427 -0.1533 -0.2536 -0.3284
  658MOL0     C86744   9.254   8.535   7.350 -0.0483  0.0123  0.6230
  658MOL0     C86745   9.088   8.527   7.361  0.0755 -0.6701 -0.5612
  658MOL0     C86746   9.031   8.473   7.496 -0.6203 -0.8534  0.1067
  658MOL0     C86747   8.881   8.495   7.509 -0.1510  0.5613 -1.1012
  658MOL0     O86748   8.832   8.446   7.637 -0.5373 -0.5012 -0.0294
  658MOL0     C86749   8.696   8.432   7.647  0.0502 -1.1461  0.0990
  658MOL0     C86750   8.602   8.506   7.572  0.5404  0.2399  0.3404
  658MOL0     C86751   8.464   8.506   7.600  0.1602  1.1067 -1.2123
  658MOL0     C86752   8.421   8.432   7.705  0.0988  0.4387 -0.3231
  658MOL0     C86753   8.279   8.429   7.742 -0.5234 -0.8363  0.0440
  658MOL0     O86754   8.252   8.392   7.873 -0.1955 -0.6608 -0.4110
  658MOL0     C86755   8.131   8.362   7.918 -0.2464  0.0228  0.0342
  658MOL0     C86756   8.007   8.410   7.874  0.8211  1.1773  0.6553
  658MOL0     C86757   7.892   8.369   7.935  0.1970  0.2180  0.6317
  658MOL0     C86758   7.896   8.284   8.043  0.4894 -0.5803 -0.0234
  658MOL0     O86759   7.779   8.234   8.088  0.2991 -0.2365 -0.3600
  658MOL0     C86760   7.767   8.115   8.166  1.3657 -0.2059  0.9204
  658MOL0     C86761   7.612   8.097   8.194  0.5372  0.0636 -0.2973
  658MOL0     C86762   7.530   8.085   8.057  0.3590  0.3330 -0.4102
  658MOL0     C86763   7.386   8.089   8.087  0.1789  0.3184 -0.7832
  658MOL0     C86764   7.300   8.125   7.970 -1.0263  0.3859 -0.7332
  658MOL0     C86765   7.154   8.139   8.019 -0.0915  0.7869  0.1261
  658MOL0     C86766   7.073   8.178   7.895  0.4558  0.5059  0.4924
  658MOL0     C86767   6.915   8.181   7.924  0.0124 -0.4375  0.0861
  658MOL0    Cl86768   6.841   8.283   7.792  0.2687 -0.0424 -0.4311
  658MOL0     C86769   8.019   8.241   8.094 -1.0729  0.2307 -0.3060
  658MOL0     C86770   8.132   8.280   8.026  0.0894 -0.5487 -0.2912
  658MOL0     O86771   8.202   8.466   7.652  0.4110  0.0773  0.5200
  658MOL0     C86772   8.517   8.359   7.782 -0.2003  0.1743  0.5381
  658MOL0     C86773   8.657   8.362   7.756 -0.1198 -0.0226 -0.1861
  658MOL0     N86774   9.347   8.639   7.563 -0.6535  1.3869  0.3264
  658MOL0     N86775   9.416   8.738   7.597  0.3707  0.7824 -0.4635
  658MOL0     C86776  10.486   9.178   7.164 -0.1328  0.1326  0.7538
  658MOL0     C86777  10.599   9.231   7.094  0.7762 -0.3725  0.1293
  658MOL0     C86778  10.867   9.542   6.859  0.5437 -0.2294 -0.2247
  658MOL0     C86779  10.968   9.482   6.931 -1.3436 -0.5295 -1.2811
  658MOL0     C86780  11.100   9.520   6.909  0.1397  0.7165 -0.5844
  658MOL0     C86781  11.133   9.625   6.824  0.4262 -0.4318 -0.2043
  658MOL0     O86782  11.266   9.642   6.794  0.0656  0.5759 -0.0515
  658MOL0     C86783  11.310   9.766   6.734 -0.3324 -0.0907  0.3368
  658MOL0     C86784  11.463   9.762   6.716  0.3812  0.3911  0.1466
  658MOL0     C86785  11.516   9.896   6.674  0.7277 -0.2375  0.6013
  658MOL0     C86786  11.659   9.922   6.692 -0.1639 -0.0995 -0.7408
  658MOL0     C86787  11.693  10.045   6.618 -0.2663 -0.2439 -0.0598
  658MOL0     C86788  11.739  10.146   6.568  0.4989  0.2266 -0.0159
  658MOL0     C86789  11.034   9.694   6.752 -0.0230  0.2951  0.0766
  658MOL0     C86790  10.899   9.646   6.776 -0.7421  0.5243  0.6627
  658MOL0     H86791  10.453   9.456   6.896 -1.0766 -2.2236 -1.3981
  658MOL0     H86792  10.246   9.376   7.036  0.6427  0.1399 -0.3312
  658MOL0     H86793  10.298   9.270   7.405 -0.3362  0.5324 -1.0840
  658MOL0     H86794  10.330   9.090   7.385  0.0764 -1.2332 -2.2309
  658MOL0     H86795  10.134   9.191   7.539 -0.9546  0.6789 -0.1963
  658MOL0     H86796  10.090   9.062   7.433 -2.6881  0.2356  0.8529
  658MOL0     H86797  10.013   9.261   7.254  1.0100 -0.5829  0.4851
  658MOL0     H86798  10.062   9.367   7.386  0.1440  1.3387 -1.1174
  658MOL0     H86799   9.886   9.238   7.525 -2.7237  0.4583  0.1869
  658MOL0     H86800   9.809   9.319   7.384  0.1921 -0.4219 -1.1305
  658MOL0     H86801   9.861   9.017   7.388 -3.1329 -2.5193 -0.9652
  658MOL0     H86802   9.791   9.114   7.269 -1.9699 -1.7207 -0.3071
  658MOL0     H86803   9.601   9.175   7.415  1.5177  0.9022  0.5457
  658MOL0     H86804   9.682   9.117   7.549  0.6492  2.3641 -1.0392
  658MOL0     H86805   9.596   8.934   7.312  1.7769 -3.7275  0.5888
  658MOL0     H86806   9.678   8.878   7.437  1.4181  0.1073 -2.9614
  658MOL0     H86807   9.403   9.011   7.465 -1.0969 -1.5588  0.9603
  658MOL0     H86808   9.510   8.966   7.603  0.5453  0.6512 -0.5773
  658MOL0     H86809   9.363   8.801   7.287  0.1505 -0.3216 -0.2251
  658MOL0     H86810   9.284   8.433   7.379 -3.3747 -0.8609  1.3971
  658MOL0     H86811   9.295   8.544   7.249  1.7295  0.7009  1.3542
  658MOL0     H86812   9.059   8.466   7.276 -1.6294  0.1411 -0.6028
  658MOL0     H86813   9.049   8.627   7.338  0.3440  0.2613  2.5132
  658MOL0     H86814   9.061   8.370   7.518  2.6613  0.2771  1.5575
  658MOL0     H86815   9.078   8.532   7.575 -0.5020  0.5554 -0.9803
  658MOL0     H86816   8.827   8.442   7.430 -0.0845  1.3306 -1.6809
  658MOL0     H86817   8.856   8.602   7.506  2.9882  1.6281  2.6436
  658MOL0     H86818   8.627   8.574   7.491 -0.4662 -1.2493 -1.2903
  658MOL0     H86819   8.403   8.579   7.547  0.1122  1.4447 -0.6934
  658MOL0     H86820   7.993   8.467   7.783 -0.9104  0.3572  0.3701
  658MOL0     H86821   7.799   8.398   7.888  0.0313 -1.2619 -0.0027
  658MOL0     H86822   7.813   8.112   8.265 -2.5887  0.0778  2.9826
  658MOL0     H86823   7.800   8.026   8.111 -0.5756  0.5894 -1.7323
  658MOL0     H86824   7.578   8.186   8.249  2.1974  2.2948 -2.6443
  658MOL0     H86825   7.599   8.009   8.257  1.8011 -0.7084 -1.0888
  658MOL0     H86826   7.548   7.988   8.009 -0.5043  0.1360 -0.3467
  658MOL0     H86827   7.554   8.162   7.983  1.0152 -0.1795 -0.7477
  658MOL0     H86828   7.365   7.991   8.131  2.3056  0.1375 -0.0872
  658MOL0     H86829   7.370   8.174   8.154 -1.2969 -0.2792 -0.3364
  658MOL0     H86830   7.313   8.043   7.898  0.9249 -1.6139  1.6901
  658MOL0     H86831   7.335   8.221   7.932 -2.6911  1.0411 -0.6757
  658MOL0     H86832   7.139   8.219   8.092 -1.7677 -1.4462  2.4424
  658MOL0     H86833   7.113   8.048   8.065 -2.1982  1.9638  0.6951
  658MOL0     H86834   7.118   8.269   7.855 -0.7343  1.0254  0.3076
  658MOL0     H86835   7.085   8.101   7.819  3.2939  1.0226  0.3096
  658MOL0     H86836   6.885   8.220   8.022 -4.4975 -2.0229 -0.4058
  658MOL0     H86837   6.867   8.082   7.927 -3.4802  1.0793 -0.6295
  658MOL0     H86838   8.025   8.171   8.177  2.2909  1.9116  1.0526
  658MOL0     H86839   8.230   8.242   8.052  1.0454  0.0095 -2.7906
  658MOL0     H86840   8.494   8.300   7.870 -0.4261  0.7302  0.8538
  658MOL0     H86841   8.727   8.325   7.830  2.4392 -0.3878 -2.6108
  658MOL0     H86842  10.496   9.096   7.235 -1.7550  0.6063  1.5779
  658MOL0     H86843  10.701   9.195   7.109  2.0055  2.2011 -1.3572
  658MOL0     H86844  10.930   9.408   7.002 -2.8153  2.4947  1.3187
  658MOL0     H86845  11.184   9.480   6.965  0.7874 -1.0714 -2.7130
  658MOL0     H86846  11.287   9.846   6.804  0.7395  0.6418 -0.1290
  658MOL0     H86847  11.260   9.773   6.636  2.1334  1.1803 -0.9049
  658MOL0     H86848  11.504   9.732   6.813 -0.1365 -2.1003 -0.3307
  658MOL0     H86849  11.495   9.677   6.654  2.9662  0.8352  0.7478
  658MOL0     H86850  11.467   9.969   6.739  0.0764 -0.5651  0.4909
  658MOL0     H86851  11.479   9.918   6.574 -2.0096 -0.9477  1.3720
  658MOL0     H86852  11.670   9.944   6.799  0.1591 -1.7209 -0.4195
  658MOL0     H86853  11.726   9.839   6.669 -2.7136 -1.9148 -2.0680
  658MOL0     H86854  11.784  10.239   6.541 -1.7368  1.2680 -0.3362
  658MOL0     H86855  11.044   9.784   6.692 -0.0313  0.7735  0.7797
  658MOL0     H86856  10.817   9.704   6.733 -0.4557  1.2552  1.0845
  659MOL0     O86857   7.820  11.070   8.077  0.2385 -0.4848 -0.0939
  659MOL0     C86858   7.817  10.957   8.126  0.2348 -0.4403  0.3292
  659MOL0     O86859   7.714  10.865   8.124  0.1995 -0.0851  0.1789
  659MOL0     C86860   7.607  10.869   8.033  0.6077 -0.7412  0.1597
  659MOL0     C86861   7.508  10.773   8.057  0.1665 -0.0641 -1.0375
  659MOL0     C86862   7.406  10.766   7.971  0.4717 -0.3635  0.2875
  659MOL0     C86863   7.396  10.842   7.850  0.0363  0.1065  0.2621
  659MOL0     O86864   7.286  10.838   7.763  0.8469  0.2863 -0.2068
  659MOL0     C86865   7.250  10.712   7.709 -0.4000 -0.0481  0.5050
  659MOL0     C86866   7.121  10.709   7.644 -0.1108 -0.5156  0.0050
  659MOL0     C86867   7.113  10.759   7.497  0.1570  0.5278  0.2268
  659MOL0     C86868   6.980  10.745   7.423 -0.3151  0.0111 -0.8327
  659MOL0     C86869   6.864  10.839   7.478 -0.5420 -0.1177  0.7818
  659MOL0     C86870   6.736  10.810   7.392 -0.0928  0.5093  0.4333
  659MOL0     C86871   6.626  10.913   7.426 -0.2854  0.2761 -0.3963
  659MOL0     C86872   6.649  11.055   7.385  0.8878 -0.6711 -0.8502
  659MOL0     N86873   6.529  11.131   7.422 -0.7523 -0.6481  0.3959
  659MOL0     C86874   6.401  11.092   7.385 -0.6159  0.2641 -0.4380
  659MOL0     C86875   6.330  11.184   7.455  0.4001 -0.0807  0.0674
  659MOL0     C86876   6.183  11.186   7.449  0.6777 -0.4097  0.0859
  659MOL0     C86877   6.129  11.308   7.366  0.9466  0.7216  0.1301
  659MOL0     C86878   6.103  11.260   7.222  0.6393  0.1564  0.1197
  659MOL0     C86879   6.062  11.378   7.134  0.1840 -1.2732  0.2745
  659MOL0     O86880   5.936  11.429   7.186 -1.4373 -0.5413 -0.0030
  659MOL0     C86881   5.815  11.376   7.154 -0.4065 -0.4587 -0.7958
  659MOL0     C86882   5.789  11.272   7.058 -0.4549  0.3106 -1.3605
  659MOL0     C86883   5.665  11.227   7.020 -0.2579  0.1264 -0.0046
  659MOL0     C86884   5.552  11.275   7.077  0.9266  0.0882 -0.7184
  659MOL0     C86885   5.421  11.231   7.041 -0.1450  0.1292  0.4086
  659MOL0     O86886   5.318  11.320   7.072 -0.7161  0.4638  0.0733
  659MOL0     C86887   5.188  11.277   7.067  0.1927  0.7237 -0.0489
  659MOL0     C86888   5.096  11.358   6.998 -0.5910  0.0468 -0.3521
  659MOL0     C86889   4.961  11.348   7.024  0.3176 -0.0252  0.4204
  659MOL0     C86890   4.906  11.257   7.120 -0.9962  0.0944  0.3405
  659MOL0     O86891   4.774  11.245   7.110 -0.0548  0.6808 -0.1222
  659MOL0     C86892   4.727  11.127   7.184  1.1159  0.1092 -0.0626
  659MOL0     C86893   4.577  11.107   7.180 -0.1306 -0.0971 -0.5538
  659MOL0     C86894   4.500  11.225   7.232 -0.2643 -0.1966 -0.1704
  659MOL0     C86895   4.357  11.199   7.286 -0.0011  0.3599  0.2122
  659MOL0     C86896   4.255  11.230   7.170 -0.4019  0.0417 -0.0072
  659MOL0     C86897   4.113  11.213   7.230 -0.0244 -0.4815  0.6965
  659MOL0     C86898   4.007  11.276   7.136  0.1664  0.1953  0.2749
  659MOL0     C86899   3.869  11.257   7.196  0.4695 -0.0970  0.5307
  659MOL0    Cl86900   3.848  11.364   7.339 -0.2563 -0.0213 -0.1408
  659MOL0     C86901   5.001  11.167   7.188  0.1487  0.3834  0.2461
  659MOL0     C86902   5.138  11.184   7.171  0.2585 -0.0282  0.1899
  659MOL0     O86903   5.407  11.124   6.986  0.1767 -0.0966  0.6495
  659MOL0     C86904   5.559  11.375   7.179 -0.2803 -0.0007  0.0358
  659MOL0     C86905   5.694  11.418   7.219 -0.0974 -0.1801  0.3211
  659MOL0     N86906   6.408  11.285   7.508 -0.3666 -0.1569  0.4613
  659MOL0     N86907   6.530  11.255   7.489  0.2439 -0.6093 -0.4807
  659MOL0     C86908   7.499  10.932   7.815 -0.1207 -0.6818 -0.4456
  659MOL0     C86909   7.606  10.945   7.912 -0.5090 -0.6315  0.1959
  659MOL0     C86910   7.936  10.929   8.212  0.8395 -0.9437 -0.4193
  659MOL0     C86911   7.944  10.816   8.289  0.5976 -0.9280 -0.0002
  659MOL0     C86912   8.060  10.793   8.353  0.2758 -0.2480  0.0367
  659MOL0     C86913   8.165  10.879   8.367 -0.3287 -0.3554 -0.4434
  659MOL0     O86914   8.277  10.844   8.437 -0.6879  0.3553  0.5617
  659MOL0     C86915   8.303  10.711   8.489 -0.2629 -0.2174  0.2908
  659MOL0     C86916   8.444  10.691   8.531 -0.5051  0.5213  0.5490
  659MOL0     C86917   8.552  10.725   8.413  0.1113 -0.7188 -0.7543
  659MOL0     C86918   8.606  10.866   8.424  0.5759 -0.5556  0.2270
  659MOL0     C86919   8.708  10.882   8.521  0.0051  0.1348 -0.6983
  659MOL0     C86920   8.796  10.887   8.604 -0.2998  0.8517 -0.6234
  659MOL0     C86921   8.147  11.001   8.313 -0.5681  0.1225 -0.0356
  659MOL0     C86922   8.035  11.028   8.233  0.3288 -0.3068  0.0332
  659MOL0     H86923   7.515  10.700   8.137  0.7680  0.6693 -0.4028
  659MOL0     H86924   7.322  10.698   7.984  0.3240 -0.5048 -1.2050
  659MOL0     H86925   7.257  10.629   7.780  3.0585  0.0280  0.4185
  659MOL0     H86926   7.321  10.688   7.629 -1.7511 -0.1568 -0.6973
  659MOL0     H86927   7.057  10.777   7.702  1.4832  0.1293  1.0787
  659MOL0     H86928   7.072  10.613   7.628  0.4270 -1.3033  2.6531
  659MOL0     H86929   7.193  10.704   7.447  1.8834 -0.0479  3.3618
  659MOL0     H86930   7.142  10.863   7.479 -1.4721  0.7927 -1.2337
  659MOL0     H86931   6.998  10.772   7.318  1.6917 -0.7047 -0.7009
  659MOL0     H86932   6.965  10.637   7.424  3.6244 -0.6837 -1.4723
  659MOL0     H86933   6.891  10.943   7.458 -1.9207  0.1203  0.0314
  659MOL0     H86934   6.845  10.828   7.585 -1.7637 -0.4983  0.5508
  659MOL0     H86935   6.704  10.708   7.414  3.7556 -2.0275 -4.0468
  659MOL0     H86936   6.757  10.817   7.285  1.9536  1.1156  0.8365
  659MOL0     H86937   6.537  10.874   7.376  0.3111 -0.3619 -0.9765
  659MOL0     H86938   6.607  10.914   7.534 -4.8161 -0.1078 -0.9946
  659MOL0     H86939   6.667  11.061   7.277 -0.0340 -2.4628 -1.1453
  659MOL0     H86940   6.737  11.088   7.441  0.3256  2.8862 -1.8375
  659MOL0     H86941   6.358  11.015   7.323 -0.6173  0.1124 -0.2506
  659MOL0     H86942   6.146  11.202   7.551 -1.5800  2.1709 -0.9876
  659MOL0     H86943   6.147  11.090   7.411  2.7285 -0.4608 -1.9563
  659MOL0     H86944   6.193  11.396   7.356  0.8215  0.8208  0.2150
  659MOL0     H86945   6.036  11.347   7.408  0.5613  2.6615 -2.3029
  659MOL0     H86946   6.194  11.207   7.192  1.7508  1.3382  1.2547
  659MOL0     H86947   6.028  11.182   7.210  1.2333 -0.1545 -2.1735
  659MOL0     H86948   6.042  11.341   7.034 -2.2986  0.2938  0.0799
  659MOL0     H86949   6.139  11.455   7.141 -0.3564 -0.7975  1.5337
  659MOL0     H86950   5.864  11.233   6.991  0.5550 -1.1307  0.5088
  659MOL0     H86951   5.660  11.157   6.937 -2.1112 -1.5819  1.4442
  659MOL0     H86952   5.145  11.426   6.930  0.5738  0.3888  0.7945
  659MOL0     H86953   4.899  11.419   6.969  0.0390 -0.4516  0.1719
  659MOL0     H86954   4.758  11.124   7.288  1.7843 -1.3867 -0.2718
  659MOL0     H86955   4.778  11.042   7.138  0.0826 -1.8940  2.2535
  659MOL0     H86956   4.549  11.021   7.241 -0.5014 -1.4359 -2.5047
  659MOL0     H86957   4.539  11.086   7.079  0.9407  1.3788 -1.3108
  659MOL0     H86958   4.506  11.305   7.157 -0.6668 -0.3737 -0.3923
  659MOL0     H86959   4.550  11.266   7.321 -3.0602  1.9178  0.5871
  659MOL0     H86960   4.337  11.095   7.314 -0.1307 -0.0985 -1.4903
  659MOL0     H86961   4.337  11.270   7.367  1.2147  1.8373 -0.7343
  659MOL0     H86962   4.272  11.166   7.083 -0.3834  1.8039 -1.3591
  659MOL0     H86963   4.273  11.334   7.138 -0.0111  0.0653  0.2733
  659MOL0     H86964   4.111  11.265   7.326 -0.2084  0.0837  0.3911
  659MOL0     H86965   4.090  11.107   7.248  0.9956 -0.6812  0.8788
  659MOL0     H86966   4.035  11.381   7.123 -0.0287  0.1030 -1.0578
  659MOL0     H86967   4.021  11.222   7.042  1.0044 -0.1602  0.5988
  659MOL0     H86968   3.850  11.153   7.223  3.1756 -0.5660  0.9169
  659MOL0     H86969   3.792  11.305   7.135  1.1270  3.7150  2.4150
  659MOL0     H86970   4.973  11.089   7.257  2.0829  0.3952  1.1079
  659MOL0     H86971   5.202  11.115   7.227  0.0830 -0.5760 -0.2801
  659MOL0     H86972   5.475  11.427   7.225 -0.6746  0.5986 -1.3054
  659MOL0     H86973   5.722  11.485   7.299  0.3150  0.8804 -0.6756
  659MOL0     H86974   7.494  10.995   7.727  1.2788 -0.6889 -0.5567
  659MOL0     H86975   7.681  11.022   7.897 -2.1780  1.3180  1.3135
  659MOL0     H86976   7.871  10.736   8.286  0.1547 -0.5209 -0.1015
  659MOL0     H86977   8.078  10.695   8.397 -0.8313 -0.8906 -0.8760
  659MOL0     H86978   8.273  10.636   8.416 -0.3213  0.7806 -0.7416
  659MOL0     H86979   8.241  10.693   8.577 -1.9897  0.0781 -0.8086
  659MOL0     H86980   8.475  10.739   8.624  2.2626  2.4359 -1.2091
  659MOL0     H86981   8.458  10.587   8.562  2.0118  1.1990  2.0171
  659MOL0     H86982   8.508  10.684   8.321  2.8065 -2.9544 -1.1854
  659MOL0     H86983   8.630  10.648   8.419 -0.1089 -1.3202 -3.8043
  659MOL0     H86984   8.650  10.907   8.332  1.2664 -1.4384  0.1429
  659MOL0     H86985   8.524  10.933   8.449 -0.0080 -1.1016 -0.1871
  659MOL0     H86986   8.865  10.878   8.685  0.1820 -3.2458 -1.2814
  659MOL0     H86987   8.231  11.069   8.324  0.2322  0.5428 -5.8720
  659MOL0     H86988   8.016  11.126   8.190  0.0821 -0.8230 -1.0708
  660MOL0     O86989   6.292   4.387   8.081 -0.1563 -0.6066  0.4470
  660MOL0     C86990   6.403   4.363   8.027  0.2571 -0.1191 -0.3069
  660MOL0     O86991   6.521   4.358   8.093  0.4963  0.0720 -0.4122
  660MOL0     C86992   6.512   4.346   8.231  0.4817 -0.8011  0.4185
  660MOL0     C86993   6.530   4.448   8.319  0.0230 -0.6383 -0.2369
  660MOL0     C86994   6.521   4.424   8.455  0.1102 -0.4964 -0.5883
  660MOL0     C86995   6.474   4.304   8.509  0.2227  0.6880  0.2151
  660MOL0     O86996   6.460   4.295   8.643  0.8686  0.4919  0.2384
  660MOL0     C86997   6.402   4.171   8.700  0.2263 -0.3337  0.2550
  660MOL0     C86998   6.377   4.208   8.853  0.0062  0.1247 -0.0625
  660MOL0     C86999   6.514   4.249   8.921 -0.0017  0.0664 -0.0818
  660MOL0     C87000   6.612   4.138   8.949  0.7116  0.2575 -0.2325
  660MOL0     C87001   6.719   4.159   9.055  0.0908 -0.0362  0.5479
  660MOL0     C87002   6.822   4.274   9.027 -0.0778  0.1201 -0.0674
  660MOL0     C87003   6.955   4.273   9.110  0.9140  0.8321 -0.2818
  660MOL0     C87004   6.930   4.345   9.241 -0.4931 -0.2140 -0.7778
  660MOL0     N87005   7.030   4.312   9.344 -0.3154 -0.5554  0.1296
  660MOL0     C87006   7.145   4.383   9.356  0.5091  0.1217 -0.1959
  660MOL0     C87007   7.200   4.345   9.483  0.0926 -0.2973  0.0676
  660MOL0     C87008   7.327   4.394   9.554  0.0197  0.6340  0.5641
  660MOL0     C87009   7.410   4.491   9.470 -0.5238 -0.2375  0.0633
  660MOL0     C87010   7.351   4.641   9.445 -0.3132 -0.4026  0.2001
  660MOL0     C87011   7.423   4.726   9.333 -0.3216  0.0489 -0.3185
  660MOL0     O87012   7.419   4.664   9.202 -0.2751 -0.8056 -0.2124
  660MOL0     C87013   7.300   4.662   9.134  0.0133  0.4906  0.7350
  660MOL0     C87014   7.190   4.741   9.163 -0.6058 -0.1103 -0.1948
  660MOL0     C87015   7.064   4.730   9.098 -0.7674 -1.3472  0.4322
  660MOL0     C87016   7.048   4.635   8.992  0.5098 -0.3226 -0.8344
  660MOL0     C87017   6.924   4.630   8.924  0.1111 -0.2476  0.0449
  660MOL0     O87018   6.831   4.734   8.952 -0.2265  0.2796 -0.6548
  660MOL0     C87019   6.705   4.711   8.912  0.4223  0.1421  0.0022
  660MOL0     C87020   6.656   4.768   8.791  0.2578 -0.9008 -0.5372
  660MOL0     C87021   6.526   4.738   8.756  0.0825  0.9289 -0.0910
  660MOL0     C87022   6.440   4.651   8.825 -0.2564  0.1690 -0.4272
  660MOL0     O87023   6.314   4.622   8.775 -0.0260  0.3430 -0.1421
  660MOL0     C87024   6.217   4.611   8.873 -0.4171  0.0860 -0.2457
  660MOL0     C87025   6.094   4.576   8.796  0.3453 -0.1795  0.1856
  660MOL0     C87026   5.977   4.608   8.877 -0.2989 -0.5542  0.3964
  660MOL0     C87027   5.839   4.579   8.810 -0.7157 -0.4925 -0.0972
  660MOL0     C87028   5.720   4.586   8.902 -0.0631 -0.6145  0.5351
  660MOL0     C87029   5.673   4.726   8.900 -0.2031  0.3532  0.3531
  660MOL0     C87030   5.592   4.762   8.774 -0.6329  0.0427 -0.8736
  660MOL0     C87031   5.549   4.907   8.774 -0.2668 -0.8041  0.5273
  660MOL0    Cl87032   5.477   4.938   8.609  0.2925  0.4589 -0.0050
  660MOL0     C87033   6.490   4.592   8.947  0.1442  0.1165  0.9708
  660MOL0     C87034   6.617   4.624   8.984  0.0832 -0.3130  0.6020
  660MOL0     O87035   6.898   4.545   8.841  0.6506 -0.2163 -0.1778
  660MOL0     C87036   7.159   4.560   8.952  0.2877  0.4237 -0.3156
  660MOL0     C87037   7.283   4.563   9.030 -0.5582 -0.6272 -0.5231
  660MOL0     N87038   7.105   4.260   9.535 -0.2377  0.1731 -0.2930
  660MOL0     N87039   7.004   4.243   9.460 -0.3304  0.1290  0.3579
  660MOL0     C87040   6.448   4.196   8.416 -0.6726 -0.2698 -0.2429
  660MOL0     C87041   6.467   4.217   8.280 -0.0637 -1.0504  0.2172
  660MOL0     C87042   6.396   4.386   7.883 -0.9011 -0.0922 -0.4387
  660MOL0     C87043   6.281   4.404   7.796  0.4283  0.3032  0.2487
  660MOL0     C87044   6.305   4.430   7.656  0.1857 -0.3467  0.1619
  660MOL0     C87045   6.426   4.445   7.594  0.7461 -0.8602  0.1334
  660MOL0     O87046   6.449   4.474   7.458 -0.8697 -0.1148 -0.1150
  660MOL0     C87047   6.339   4.463   7.368  0.1058  0.4331 -0.8883
  660MOL0     C87048   6.383   4.506   7.227 -0.1159  0.1040  0.1315
  660MOL0     C87049   6.382   4.663   7.228 -0.4669  0.3152  1.0416
  660MOL0     C87050   6.421   4.735   7.098 -0.5196 -0.7451 -0.4933
  660MOL0     C87051   6.325   4.691   7.002 -0.2586  0.1712  1.0354
  660MOL0     C87052   6.244   4.644   6.922  1.1022 -0.4343  0.2513
  660MOL0     C87053   6.540   4.434   7.679 -0.0823  0.3964  0.2844
  660MOL0     C87054   6.526   4.407   7.821 -0.5171 -0.2639 -0.2527
  660MOL0     H87055   6.564   4.542   8.279 -1.2632  0.1620  0.4596
  660MOL0     H87056   6.550   4.498   8.528 -0.0058 -2.3695  1.4486
  660MOL0     H87057   6.462   4.080   8.700 -0.2332 -0.6524  1.1789
  660MOL0     H87058   6.303   4.143   8.662  0.1515  0.8126 -0.4507
  660MOL0     H87059   6.337   4.120   8.903 -0.4402 -0.8097 -1.9603
  660MOL0     H87060   6.306   4.292   8.846  0.8944  0.8929 -0.0819
  660MOL0     H87061   6.488   4.294   9.018 -0.2707  0.2094 -0.2178
  660MOL0     H87062   6.562   4.332   8.868  0.2103 -0.5319 -0.8383
  660MOL0     H87063   6.560   4.044   8.972 -1.8897  0.4558 -4.2468
  660MOL0     H87064   6.664   4.110   8.857  2.3455  1.2689  0.3535
  660MOL0     H87065   6.769   4.064   9.072  1.9931  1.1934  2.2409
  660MOL0     H87066   6.664   4.174   9.148 -0.0380 -2.2453  0.8868
  660MOL0     H87067   6.775   4.373   9.022  0.8323  0.6436  1.0963
  660MOL0     H87068   6.846   4.252   8.923 -1.0872 -3.2531  0.3024
  660MOL0     H87069   6.985   4.172   9.138 -0.3704  1.4763  4.2317
  660MOL0     H87070   7.027   4.329   9.050  1.0225  4.1058  2.5928
  660MOL0     H87071   6.825   4.343   9.272 -1.0150  1.1517 -2.2802
  660MOL0     H87072   6.941   4.451   9.217 -2.9809 -0.0004 -1.3124
  660MOL0     H87073   7.196   4.447   9.284  1.4338 -0.5943 -0.1991
  660MOL0     H87074   7.386   4.312   9.594 -1.9492 -0.5461  1.2263
  660MOL0     H87075   7.298   4.443   9.647  0.6127  0.1860  0.9881
  660MOL0     H87076   7.431   4.452   9.370  1.8950  0.2431  0.3394
  660MOL0     H87077   7.504   4.515   9.521 -1.6135  2.1958  1.0949
  660MOL0     H87078   7.243   4.643   9.428 -0.3085  0.6243  0.1878
  660MOL0     H87079   7.355   4.700   9.538  0.0469 -3.2259  2.0882
  660MOL0     H87080   7.529   4.741   9.356 -0.4680  1.1308 -0.2905
  660MOL0     H87081   7.388   4.829   9.319  0.3471  0.3999  0.5303
  660MOL0     H87082   7.196   4.827   9.229  0.5343  1.3351 -2.0606
  660MOL0     H87083   6.983   4.789   9.139 -0.5928 -1.1967  0.5656
  660MOL0     H87084   6.708   4.845   8.734 -1.6670  0.1183 -1.0069
  660MOL0     H87085   6.489   4.786   8.666  1.0347  2.7732  0.4389
  660MOL0     H87086   6.207   4.703   8.932  1.0878 -0.1667  0.4571
  660MOL0     H87087   6.233   4.524   8.937 -2.1419 -0.7530 -0.9002
  660MOL0     H87088   6.099   4.471   8.769 -1.4270 -0.2256 -0.1190
  660MOL0     H87089   6.089   4.622   8.697 -1.6076  0.2741  0.4434
  660MOL0     H87090   5.984   4.712   8.908  2.5643 -0.1956 -1.0977
  660MOL0     H87091   5.980   4.554   8.972 -1.3826 -0.1012  0.7037
  660MOL0     H87092   5.813   4.634   8.719 -0.3886 -1.4938 -0.8126
  660MOL0     H87093   5.846   4.477   8.770 -0.9069 -0.3177 -0.5872
  660MOL0     H87094   5.744   4.561   9.006 -0.3959  2.1511  1.3545
  660MOL0     H87095   5.641   4.513   8.879  0.6605 -1.4751  0.7148
  660MOL0     H87096   5.757   4.796   8.906 -0.8061  1.2158 -0.8741
  660MOL0     H87097   5.611   4.736   8.990 -3.0471 -0.2957 -1.4058
  660MOL0     H87098   5.653   4.740   8.687  0.8550 -0.8374  0.3512
  660MOL0     H87099   5.504   4.696   8.775  0.1656 -1.0678 -1.9837
  660MOL0     H87100   5.638   4.969   8.781 -0.3650 -0.3757 -1.3318
  660MOL0     H87101   5.488   4.947   8.855  3.2234  3.0382  1.5769
  660MOL0     H87102   6.437   4.522   9.010 -2.4231  2.9912  2.2514
  660MOL0     H87103   6.653   4.571   9.072 -1.9920 -2.0600  0.4822
  660MOL0     H87104   7.151   4.492   8.868  2.4232 -0.8316  0.4013
  660MOL0     H87105   7.360   4.494   8.999 -1.5388 -2.1071  0.1942
  660MOL0     H87106   6.417   4.096   8.443 -0.0878 -0.8754 -1.7068
  660MOL0     H87107   6.450   4.139   8.207  1.1864 -0.5152 -0.6932
  660MOL0     H87108   6.181   4.409   7.837  0.5619 -1.1872  0.7893
  660MOL0     H87109   6.213   4.459   7.607  0.0984 -0.0401  0.5092
  660MOL0     H87110   6.258   4.528   7.402  0.0464  0.1071 -0.3903
  660MOL0     H87111   6.315   4.356   7.361  3.8697 -0.4605 -3.7191
  660MOL0     H87112   6.478   4.458   7.201 -1.5005 -3.2442  0.6884
  660MOL0     H87113   6.314   4.466   7.152  1.5294  0.3773 -1.6046
  660MOL0     H87114   6.450   4.698   7.307  1.0806  1.2006 -0.5981
  660MOL0     H87115   6.279   4.692   7.248 -0.5911 -0.2718  1.2763
  660MOL0     H87116   6.404   4.842   7.113 -3.6453 -1.3467  0.8470
  660MOL0     H87117   6.523   4.712   7.064  1.1340  0.7245  2.9484
  660MOL0     H87118   6.167   4.618   6.852  2.1788 -1.9064 -0.4448
  660MOL0     H87119   6.636   4.453   7.632  1.1250 -0.3352  2.3364
  660MOL0     H87120   6.616   4.399   7.881 -1.8720 -0.8242  1.7898
  661MOL0     O87121   2.616   6.865   3.104 -0.0819  0.3839 -0.4690
  661MOL0     C87122   2.696   6.808   3.175  0.0084 -0.4854  0.1925
  661MOL0     O87123   2.673   6.690   3.230  0.8272 -0.2232  0.2070
  661MOL0     C87124   2.547   6.641   3.225 -0.0277 -0.5425 -0.2819
  661MOL0     C87125   2.478   6.636   3.347  0.5654 -0.4170 -0.4178
  661MOL0     C87126   2.343   6.600   3.344 -0.2832 -0.4561  0.1940
  661MOL0     C87127   2.276   6.561   3.230  0.8346  0.0613  0.2100
  661MOL0     O87128   2.151   6.524   3.244  0.1002 -0.1666 -0.0361
  661MOL0     C87129   2.092   6.445   3.136  0.0520 -0.3163  0.1109
  661MOL0     C87130   1.975   6.383   3.206 -0.1230 -0.1139  0.1901
  661MOL0     C87131   1.881   6.305   3.115 -0.8657  0.2835  1.3261
  661MOL0     C87132   1.752   6.275   3.202  0.9255 -0.0992  0.7553
  661MOL0     C87133   1.652   6.215   3.101  0.4926 -0.9860 -0.0193
  661MOL0     C87134   1.534   6.139   3.167 -0.6071  0.5127 -0.4962
  661MOL0     C87135   1.410   6.111   3.083  0.2956 -0.1964 -0.2581
  661MOL0     C87136   1.437   6.089   2.935  0.6353 -0.1860  0.2293
  661MOL0     N87137   1.310   6.058   2.857  0.3036  0.9837  0.7078
  661MOL0     C87138   1.287   5.947   2.781 -0.2098 -0.5052 -1.2128
  661MOL0     C87139   1.163   5.969   2.727 -0.9388 -0.1909  1.0543
  661MOL0     C87140   1.088   5.863   2.663  0.2540  0.8797  0.8803
  661MOL0     C87141   1.040   5.758   2.767 -0.7396  0.0852 -0.1045
  661MOL0     C87142   0.908   5.799   2.820 -0.3025  0.7695  0.2975
  661MOL0     C87143   0.861   5.722   2.944 -0.1024  0.3998 -0.0483
  661MOL0     O87144   0.761   5.798   3.010 -0.3121 -0.3781 -0.1882
  661MOL0     C87145   0.621   5.802   2.975 -1.5451  0.1148  0.4239
  661MOL0     C87146   0.543   5.878   3.063  0.4094  0.3565 -0.4558
  661MOL0     C87147   0.399   5.872   3.046  0.3351  0.5801  0.0485
  661MOL0     C87148   0.337   5.793   2.941  0.0046 -0.3351 -0.6412
  661MOL0     C87149   0.191   5.770   2.938 -0.5434  0.7598  0.7336
  661MOL0     O87150   0.122   5.794   3.056  0.1177  0.1555  0.5387
  661MOL0     C87151  -0.018   5.796   3.046  0.5757  0.2649  0.1184
  661MOL0     C87152  -0.099   5.906   3.035 -0.8667  0.2629  0.1112
  661MOL0     C87153  -0.239   5.903   3.013  0.1363  0.4931 -0.9602
  661MOL0     C87154  -0.301   5.776   3.010 -1.0376 -0.5170  0.3155
  661MOL0     O87155  -0.438   5.786   2.989 -0.2892  0.2094  0.1460
  661MOL0     C87156  -0.489   5.698   2.888 -0.3148  0.0436 -0.1344
  661MOL0     C87157  -0.528   5.784   2.767  0.4879 -0.8245  0.4159
  661MOL0     C87158  -0.627   5.900   2.798  0.3961 -0.0451 -0.2554
  661MOL0     C87159  -0.766   5.830   2.811  0.8995 -0.9587  0.0144
  661MOL0     C87160  -0.858   5.930   2.877  0.1328  0.3966 -0.1757
  661MOL0     C87161  -0.997   5.874   2.889  0.5398  0.7821 -0.1313
  661MOL0     C87162  -1.092   5.956   2.984  0.0433  0.1653 -0.2557
  661MOL0     C87163  -1.237   5.929   2.960  0.8679 -0.4889  0.0361
  661MOL0    Cl87164  -1.346   6.066   3.008  0.2438 -0.2677 -0.4876
  661MOL0     C87165  -0.222   5.657   3.026  0.2817  0.5255  0.3300
  661MOL0     C87166  -0.082   5.670   3.049  0.7361 -0.3553 -0.4255
  661MOL0     O87167   0.140   5.738   2.833 -0.1698  0.5773  0.0182
  661MOL0     C87168   0.430   5.742   2.844 -0.1830  0.7060  0.1873
  661MOL0     C87169   0.564   5.741   2.869  0.3227  0.3515  0.2830
  661MOL0     N87170   1.116   6.094   2.748  0.7417 -0.6944 -0.3078
  661MOL0     N87171   1.201   6.137   2.833 -0.7075  0.5047 -0.0184
  661MOL0     C87172   2.349   6.550   3.115  0.1784 -0.0274 -0.5056
  661MOL0     C87173   2.481   6.587   3.112 -0.2613 -1.4616  0.2688
  661MOL0     C87174   2.821   6.885   3.203  0.5047  0.4231  0.6134
  661MOL0     C87175   2.863   7.009   3.144 -0.2328 -1.1204 -0.4362
  661MOL0     C87176   2.992   7.065   3.183  0.8088  0.2146 -1.0650
  661MOL0     C87177   3.079   6.996   3.268  0.7523  0.7185  0.3327
  661MOL0     O87178   3.200   7.029   3.322  0.5476  0.4784  0.3904
  661MOL0     C87179   3.243   7.164   3.338 -1.0316 -0.0552 -0.4304
  661MOL0     C87180   3.163   7.238   3.449  0.5082 -0.6988 -0.2923
  661MOL0     C87181   3.208   7.385   3.456 -0.2695 -0.0827  0.2695
  661MOL0     C87182   3.091   7.466   3.518  0.6062 -0.3126 -0.2867
  661MOL0     C87183   3.033   7.404   3.643  0.4661  1.2212 -0.4174
  661MOL0     C87184   2.976   7.348   3.730  0.3384  0.1988 -0.9662
  661MOL0     C87185   3.036   6.876   3.322 -0.4634  0.4919 -1.0815
  661MOL0     C87186   2.915   6.817   3.282  0.3552  0.3064  0.3874
  661MOL0     H87187   2.529   6.658   3.440  1.4674  0.2057 -1.0395
  661MOL0     H87188   2.297   6.604   3.442  1.0050  1.5845  0.7614
  661MOL0     H87189   2.150   6.358   3.107 -1.6348 -1.5453  0.2634
  661MOL0     H87190   2.057   6.507   3.053 -0.6265 -0.4465  0.2940
  661MOL0     H87191   1.911   6.464   3.242 -1.6159 -0.9048 -0.5992
  661MOL0     H87192   2.012   6.334   3.297  2.9363  4.6440  1.8956
  661MOL0     H87193   1.918   6.209   3.077 -1.7504  0.0874  0.9355
  661MOL0     H87194   1.854   6.361   3.025  2.3519 -0.0512  0.0222
  661MOL0     H87195   1.768   6.205   3.284  1.1695  1.9341  2.5572
  661MOL0     H87196   1.704   6.365   3.244  0.0704 -0.5948  0.8646
  661MOL0     H87197   1.699   6.148   3.028  0.9111  1.3488 -2.0300
  661MOL0     H87198   1.617   6.303   3.047  1.6358  1.9401  3.5963
  661MOL0     H87199   1.488   6.197   3.248  0.3432 -1.4321  1.5653
  661MOL0     H87200   1.571   6.043   3.204  0.4774  1.3649  0.7702
  661MOL0     H87201   1.352   6.026   3.122  0.5830 -0.1161  0.3624
  661MOL0     H87202   1.355   6.204   3.095  0.3153 -0.0463 -1.2673
  661MOL0     H87203   1.511   6.009   2.930  1.3265  0.5027 -1.1118
  661MOL0     H87204   1.487   6.180   2.898  0.8167 -0.7385 -0.9404
  661MOL0     H87205   1.353   5.863   2.766 -0.6863 -0.6859 -2.3409
  661MOL0     H87206   1.151   5.813   2.589 -1.2299  1.0641 -0.5675
  661MOL0     H87207   0.994   5.897   2.618  0.1284  0.3888  0.7683
  661MOL0     H87208   1.121   5.736   2.838  0.4828 -1.8919 -1.9755
  661MOL0     H87209   1.037   5.663   2.713 -0.3044  0.4244 -0.7378
  661MOL0     H87210   0.910   5.904   2.848 -1.5556  0.7418  0.5448
  661MOL0     H87211   0.833   5.778   2.742 -1.3114  0.1702  1.4016
  661MOL0     H87212   0.945   5.713   3.013 -0.0379  3.1799  0.3552
  661MOL0     H87213   0.833   5.621   2.912 -0.4183  0.5887 -0.3767
  661MOL0     H87214   0.597   5.935   3.137 -1.7111 -1.6011  2.8209
  661MOL0     H87215   0.332   5.923   3.114  0.1725  1.0931 -0.4837
  661MOL0     H87216  -0.053   6.003   3.047  2.3672 -1.3162  1.5965
  661MOL0     H87217  -0.295   5.992   2.987  0.8207  0.9300 -0.9590
  661MOL0     H87218  -0.568   5.640   2.936  0.8286 -0.3392  1.3856
  661MOL0     H87219  -0.413   5.630   2.850 -1.8872 -1.6892 -0.3084
  661MOL0     H87220  -0.562   5.722   2.684  0.7297 -0.3998 -0.0102
  661MOL0     H87221  -0.436   5.832   2.732  1.9965 -2.8149  1.4861
  661MOL0     H87222  -0.630   5.973   2.717  2.6502 -2.5161 -2.7967
  661MOL0     H87223  -0.594   5.954   2.887 -0.3917 -1.2841  0.8215
  661MOL0     H87224  -0.797   5.797   2.711  1.0183 -1.3064  0.0895
  661MOL0     H87225  -0.755   5.734   2.862  1.9001 -1.7674 -1.6416
  661MOL0     H87226  -0.865   6.019   2.814 -2.8812 -1.1420 -2.2639
  661MOL0     H87227  -0.817   5.956   2.975 -2.3211 -2.0561  1.6286
  661MOL0     H87228  -0.996   5.771   2.925  2.3484 -0.1599 -2.6332
  661MOL0     H87229  -1.042   5.880   2.789  0.0945  1.1296  0.0832
  661MOL0     H87230  -1.069   5.934   3.089  0.4173  0.5572 -0.2521
  661MOL0     H87231  -1.064   6.061   2.975  0.7552  0.0241  0.2031
  661MOL0     H87232  -1.269   5.839   3.013  3.1381 -0.1875  2.0469
  661MOL0     H87233  -1.265   5.909   2.856 -0.0721 -3.7786  0.7969
  661MOL0     H87234  -0.270   5.559   3.026  0.2519  0.4915  2.5024
  661MOL0     H87235  -0.025   5.579   3.068 -0.7757 -1.4738 -1.0135
  661MOL0     H87236   0.395   5.679   2.763  1.6133  1.5005 -1.3026
  661MOL0     H87237   0.634   5.708   2.793 -3.4460  1.6886 -4.2572
  661MOL0     H87238   2.293   6.519   3.028 -4.1374  3.4322  0.6570
  661MOL0     H87239   2.540   6.586   3.022 -0.9996  0.0314 -0.2698
  661MOL0     H87240   2.808   7.072   3.075  0.3828 -0.2151 -0.1223
  661MOL0     H87241   3.022   7.161   3.143  1.7412 -0.5014 -2.1616
  661MOL0     H87242   3.236   7.228   3.249 -2.4204  1.5570  0.7684
  661MOL0     H87243   3.344   7.168   3.380 -2.1592 -0.1202  2.5208
  661MOL0     H87244   3.055   7.232   3.428  0.5381  0.4004 -0.8710
  661MOL0     H87245   3.193   7.197   3.545  0.6423  1.6252  0.7376
  661MOL0     H87246   3.227   7.429   3.358 -0.4322  0.4183  0.4634
  661MOL0     H87247   3.298   7.390   3.517  0.9370 -0.4353 -1.3840
  661MOL0     H87248   3.126   7.567   3.540 -2.7753  0.5386  2.0511
  661MOL0     H87249   3.013   7.481   3.443  0.2409 -2.6755 -0.4502
  661MOL0     H87250   2.926   7.283   3.800 -0.9216 -1.0114 -2.8901
  661MOL0     H87251   3.097   6.823   3.394 -1.6597 -0.7525 -0.9462
  661MOL0     H87252   2.887   6.720   3.321  1.9204  0.1262  1.1777
  662MOL0     O87253   5.012   5.896   9.957 -0.0524 -0.3800 -1.2156
  662MOL0     C87254   5.023   5.816  10.056 -0.2095 -0.4603 -1.1413
  662MOL0     O87255   4.916   5.745  10.113  0.6683  0.0313  0.6189
  662MOL0     C87256   4.787   5.768  10.068 -0.4689  0.4183  0.5784
  662MOL0     C87257   4.713   5.868  10.125 -0.2386 -0.4541 -0.4530
  662MOL0     C87258   4.580   5.873  10.106 -0.4717  0.9340 -0.1195
  662MOL0     C87259   4.507   5.777  10.027 -0.2325 -1.0330 -0.5683
  662MOL0     O87260   4.372   5.790  10.019 -0.1650  0.2080 -0.4366
  662MOL0     C87261   4.291   5.726   9.917  1.1358  0.2977 -0.0691
  662MOL0     C87262   4.159   5.802   9.911  0.9000  0.4413 -0.0923
  662MOL0     C87263   4.069   5.739   9.810 -0.1919  0.1240  0.3234
  662MOL0     C87264   4.013   5.600   9.852  0.0172 -0.8026  0.3655
  662MOL0     C87265   3.876   5.564   9.769  0.5858 -0.7027  0.2110
  662MOL0     C87266   3.845   5.410   9.792 -0.3589 -0.0038 -0.3909
  662MOL0     C87267   3.728   5.379   9.697 -0.4522 -0.2948 -0.0270
  662MOL0     C87268   3.684   5.232   9.724 -0.1199  0.2108  0.4538
  662MOL0     N87269   3.553   5.207   9.668 -0.5973  0.7197  0.6809
  662MOL0     C87270   3.432   5.263   9.703  0.3358  0.8426  0.3616
  662MOL0     C87271   3.339   5.178   9.647  0.6579 -0.5337 -0.8545
  662MOL0     C87272   3.198   5.179   9.683  0.6683  0.1198  0.0614
  662MOL0     C87273   3.117   5.235   9.561  0.6731  0.2377 -1.1375
  662MOL0     C87274   2.977   5.178   9.553 -0.4594  0.1695 -0.6523
  662MOL0     C87275   2.879   5.234   9.663  0.2574 -0.6186 -0.1858
  662MOL0     O87276   2.810   5.347   9.604 -0.6035  0.1293  0.3044
  662MOL0     C87277   2.698   5.339   9.524 -0.1400  0.4392 -0.1196
  662MOL0     C87278   2.639   5.456   9.485  0.7936  0.9296  0.7158
  662MOL0     C87279   2.512   5.463   9.424 -0.6730  0.8125 -0.2054
  662MOL0     C87280   2.442   5.343   9.410  0.0550 -0.7454  0.2398
  662MOL0     C87281   2.307   5.340   9.357  0.8288 -0.9469 -0.1377
  662MOL0     O87282   2.234   5.463   9.354 -0.7768  0.7749  0.9457
  662MOL0     C87283   2.116   5.457   9.273  0.3042 -0.6949  0.3986
  662MOL0     C87284   1.988   5.436   9.335 -0.9109 -0.2834  0.3755
  662MOL0     C87285   1.879   5.431   9.255 -0.0149  0.1007 -0.8813
  662MOL0     C87286   1.878   5.469   9.122  1.0617  0.4616  0.7414
  662MOL0     O87287   1.761   5.483   9.049  0.1673 -0.4022 -0.2534
  662MOL0     C87288   1.633   5.470   9.115  0.5422 -0.4927  0.0324
  662MOL0     C87289   1.516   5.512   9.026 -0.2521  1.0012 -0.5881
  662MOL0     C87290   1.526   5.650   8.966  0.6434  0.1254 -0.0468
  662MOL0     C87291   1.420   5.680   8.863 -0.5968 -0.9089  0.4104
  662MOL0     C87292   1.313   5.768   8.919 -0.5895  0.6557 -0.0858
  662MOL0     C87293   1.220   5.819   8.804 -0.2735  0.1662  0.2191
  662MOL0     C87294   1.274   5.931   8.723 -0.2247  0.0829 -0.5273
  662MOL0     C87295   1.180   5.993   8.613  0.2481  1.5624 -0.1454
  662MOL0    Cl87296   1.254   6.114   8.504 -0.0009 -0.0203  0.0849
  662MOL0     C87297   1.999   5.481   9.059  0.7317 -0.4260  0.2243
  662MOL0     C87298   2.117   5.480   9.136 -0.8131  0.4920  0.3984
  662MOL0     O87299   2.261   5.234   9.318  0.2338  0.0148  0.6402
  662MOL0     C87300   2.505   5.223   9.442 -0.1265  0.3066  0.1141
  662MOL0     C87301   2.629   5.219   9.503  0.9174  0.3994 -0.4475
  662MOL0     N87302   3.408   5.083   9.575 -0.2906  0.5671 -0.3628
  662MOL0     N87303   3.533   5.104   9.584  1.0833  0.7360  0.7991
  662MOL0     C87304   4.582   5.677   9.964  0.0279 -0.4536 -0.3139
  662MOL0     C87305   4.722   5.665   9.995  0.1543 -0.4619  0.4026
  662MOL0     C87306   5.155   5.802  10.119  0.1659 -0.4430 -0.4060
  662MOL0     C87307   5.259   5.902  10.090 -0.8623  0.1132 -0.0781
  662MOL0     C87308   5.385   5.880  10.150  0.4274 -0.6967  0.1917
  662MOL0     C87309   5.409   5.765  10.230 -0.5202  0.0894 -0.0867
  662MOL0     O87310   5.535   5.753  10.287 -0.2855  0.0617 -0.3522
  662MOL0     C87311   5.627   5.665  10.215  1.0433 -0.1636 -0.0151
  662MOL0     C87312   5.730   5.758  10.141  0.7032  0.2980 -0.1504
  662MOL0     C87313   5.801   5.866  10.225 -0.5269 -0.4812 -0.4228
  662MOL0     C87314   5.861   5.837  10.364 -0.2354  0.1861 -0.1372
  662MOL0     C87315   5.929   5.953  10.425  0.4537 -0.6130  0.8534
  662MOL0     C87316   5.988   6.047  10.463 -0.1410 -0.2217 -0.0758
  662MOL0     C87317   5.318   5.671  10.252 -1.1794 -0.0932  0.7136
  662MOL0     C87318   5.186   5.687  10.192 -0.5144  0.3349  0.5752
  662MOL0     H87319   4.764   5.941  10.187  1.4892 -2.3086  0.4086
  662MOL0     H87320   4.535   5.953  10.164  0.5993  2.5535 -1.4152
  662MOL0     H87321   4.275   5.622   9.945  0.7723  0.1746 -0.7181
  662MOL0     H87322   4.335   5.740   9.818  0.9815  0.0462 -0.1728
  662MOL0     H87323   4.184   5.901   9.871  5.4101 -0.4362 -0.0394
  662MOL0     H87324   4.108   5.802  10.008  0.0308  1.0087 -0.5354
  662MOL0     H87325   4.127   5.725   9.718  1.5112 -1.1856  1.5500
  662MOL0     H87326   3.980   5.803   9.804 -2.7200 -3.0121  1.3859
  662MOL0     H87327   4.086   5.522   9.830 -1.8296 -1.9980 -2.0909
  662MOL0     H87328   4.007   5.597   9.961  4.2198  0.1342  0.7797
  662MOL0     H87329   3.898   5.588   9.665  0.9675  0.3577  0.5236
  662MOL0     H87330   3.789   5.623   9.798 -2.1133 -3.8997 -0.6996
  662MOL0     H87331   3.835   5.384   9.898  1.4389 -0.8076 -0.3896
  662MOL0     H87332   3.919   5.337   9.759 -1.2977 -1.2836  0.2218
  662MOL0     H87333   3.648   5.450   9.723  0.1956  0.2917  0.3955
  662MOL0     H87334   3.750   5.397   9.591 -1.2208  1.4524  0.0659
  662MOL0     H87335   3.676   5.209   9.830  0.9893  1.8078  0.9326
  662MOL0     H87336   3.747   5.158   9.674  0.5530  1.0876 -0.0504
  662MOL0     H87337   3.425   5.353   9.763  2.3934  2.0756 -1.1276
  662MOL0     H87338   3.180   5.236   9.775  0.4888 -1.8681  1.3174
  662MOL0     H87339   3.161   5.081   9.715 -0.0139  0.5360  0.5711
  662MOL0     H87340   3.169   5.219   9.466  1.5615  0.2079 -0.6590
  662MOL0     H87341   3.122   5.344   9.565  1.3406  0.2013  2.1088
  662MOL0     H87342   2.934   5.202   9.456 -2.0982 -0.2434 -0.0573
  662MOL0     H87343   2.987   5.070   9.563  1.8514  0.1419 -2.3424
  662MOL0     H87344   2.920   5.264   9.760 -1.3407  1.5039 -0.1029
  662MOL0     H87345   2.818   5.150   9.698  0.9870 -0.7698  0.7545
  662MOL0     H87346   2.671   5.555   9.517  3.1401  0.3105  0.4326
  662MOL0     H87347   2.463   5.556   9.398 -1.3221  0.2259 -1.1112
  662MOL0     H87348   1.975   5.436   9.443 -0.0726  0.5451  0.4859
  662MOL0     H87349   1.784   5.406   9.301 -0.0894  3.0981  0.8834
  662MOL0     H87350   1.641   5.538   9.201  3.1528 -1.0253  0.2967
  662MOL0     H87351   1.611   5.369   9.150 -1.0191 -0.9145 -1.9905
  662MOL0     H87352   1.421   5.509   9.081  0.0945 -0.2710 -0.0193
  662MOL0     H87353   1.505   5.434   8.951 -2.4359  1.3205 -0.6659
  662MOL0     H87354   1.625   5.660   8.922  0.5020  0.6308 -0.2624
  662MOL0     H87355   1.519   5.723   9.047 -0.8524 -0.5420  0.4590
  662MOL0     H87356   1.475   5.733   8.785 -0.9483  0.9478  1.3603
  662MOL0     H87357   1.389   5.587   8.815  1.2450 -0.4279 -1.8654
  662MOL0     H87358   1.354   5.853   8.975 -2.2760 -0.5185  3.1828
  662MOL0     H87359   1.246   5.712   8.985 -2.1103  1.0839 -1.2022
  662MOL0     H87360   1.132   5.859   8.854 -0.7403 -2.1642  1.3830
  662MOL0     H87361   1.202   5.738   8.733  0.8508 -0.6654  0.8522
  662MOL0     H87362   1.291   6.013   8.793 -1.3529  0.8062 -1.0666
  662MOL0     H87363   1.363   5.891   8.673 -1.4295  0.0501 -2.7866
  662MOL0     H87364   1.081   6.030   8.644 -1.0737  1.2334 -3.5644
  662MOL0     H87365   1.154   5.907   8.551  1.7857  0.2006  1.0473
  662MOL0     H87366   2.018   5.511   8.957 -0.8716  0.1259  0.0685
  662MOL0     H87367   2.213   5.501   9.090 -0.9863  0.1320 -0.1432
  662MOL0     H87368   2.462   5.127   9.414  1.0271  0.1281 -1.0893
  662MOL0     H87369   2.673   5.120   9.513  0.7838  0.5275  2.5510
  662MOL0     H87370   4.534   5.595   9.913 -3.4813 -0.7353  2.9961
  662MOL0     H87371   4.792   5.589   9.962  0.3563  0.5663 -1.7138
  662MOL0     H87372   5.234   5.990  10.033  1.7160  2.2588  1.8552
  662MOL0     H87373   5.476   5.940  10.156  0.7338 -1.3047  2.6794
  662MOL0     H87374   5.577   5.601  10.141 -0.5847 -1.3066  1.9898
  662MOL0     H87375   5.684   5.605  10.287 -2.2460  1.1615  4.0993
  662MOL0     H87376   5.800   5.693  10.088  0.2167 -2.3015  2.1617
  662MOL0     H87377   5.667   5.813  10.070 -0.8532 -0.2923  0.7166
  662MOL0     H87378   5.725   5.944  10.236 -0.0493 -0.2875  1.9074
  662MOL0     H87379   5.886   5.902  10.166  0.5969 -1.0360  0.8087
  662MOL0     H87380   5.773   5.818  10.426 -1.3852  0.9183 -1.4890
  662MOL0     H87381   5.920   5.746  10.354 -0.9148 -0.1182 -1.6011
  662MOL0     H87382   6.036   6.130  10.511 -0.2213 -0.1790 -0.0689
  662MOL0     H87383   5.332   5.589  10.322 -1.1815  1.0513  2.1114
  662MOL0     H87384   5.119   5.601  10.201  1.6925 -1.5956 -0.2946
  663MOL0     O87385   5.074   3.616   2.049  0.5820  0.3688 -0.6174
  663MOL0     C87386   5.180   3.614   1.984 -0.4758  0.0005  0.3298
  663MOL0     O87387   5.186   3.623   1.846  0.7215 -0.3830 -0.1415
  663MOL0     C87388   5.065   3.639   1.782  0.8177 -0.8047  0.0371
  663MOL0     C87389   4.980   3.746   1.802  0.0732 -0.1543  1.0471
  663MOL0     C87390   4.866   3.766   1.723  0.5558  0.1757  0.2289
  663MOL0     C87391   4.820   3.664   1.640  0.2371  0.0575 -0.4725
  663MOL0     O87392   4.700   3.674   1.571 -0.4815 -0.0374 -0.2344
  663MOL0     C87393   4.621   3.558   1.562 -0.0202  0.2866  0.0449
  663MOL0     C87394   4.479   3.580   1.610 -0.6814  1.4533  0.7008
  663MOL0     C87395   4.385   3.629   1.494 -0.9679 -0.1968 -0.7331
  663MOL0     C87396   4.234   3.618   1.534 -0.9979 -0.1504  0.3896
  663MOL0     C87397   4.151   3.699   1.430 -0.2277  0.3480  0.0489
  663MOL0     C87398   4.003   3.709   1.468  0.5533  0.4043 -0.2238
  663MOL0     C87399   3.931   3.803   1.365 -0.6658  0.4913  0.0055
  663MOL0     C87400   3.792   3.748   1.320  0.1658  0.1847  0.3683
  663MOL0     N87401   3.770   3.621   1.253  0.5225 -0.0213 -0.0401
  663MOL0     C87402   3.860   3.529   1.188 -0.0405 -0.5176  0.2365
  663MOL0     C87403   3.786   3.435   1.138 -0.2050  0.3017 -0.1247
  663MOL0     C87404   3.836   3.328   1.050  0.0120  0.9521 -0.0689
  663MOL0     C87405   3.977   3.273   1.086 -0.1925 -0.3020  0.2421
  663MOL0     C87406   3.978   3.163   1.193 -0.0304  0.4595  0.2188
  663MOL0     C87407   4.120   3.106   1.201  0.2139  0.6266  0.3531
  663MOL0     O87408   4.215   3.209   1.233  0.4155  0.1413  0.2449
  663MOL0     C87409   4.352   3.173   1.262  1.0279 -0.7516  0.6792
  663MOL0     C87410   4.429   3.270   1.315  0.3382 -0.5278 -0.0774
  663MOL0     C87411   4.567   3.241   1.341  0.0464 -0.1550 -0.1317
  663MOL0     C87412   4.620   3.114   1.307  0.0348  0.0969  0.7537
  663MOL0     C87413   4.769   3.095   1.321  0.5419  0.5073  0.3575
  663MOL0     O87414   4.837   3.196   1.382 -0.4720 -0.0761  0.5853
  663MOL0     C87415   4.966   3.175   1.441 -0.3693  0.5766  0.2313
  663MOL0     C87416   4.989   3.074   1.536 -0.2441 -0.8638  1.1134
  663MOL0     C87417   5.115   3.065   1.597  0.5387 -0.5384 -0.3352
  663MOL0     C87418   5.215   3.170   1.573  0.0976  0.2802 -0.4523
  663MOL0     O87419   5.332   3.158   1.644  0.8380 -0.5486  0.3429
  663MOL0     C87420   5.448   3.239   1.618  0.5294 -0.2678 -0.3690
  663MOL0     C87421   5.447   3.373   1.694  0.1179  0.8716 -0.0344
  663MOL0     C87422   5.558   3.477   1.655 -0.2028 -0.4599 -0.2248
  663MOL0     C87423   5.708   3.449   1.671  0.6068  0.8973  0.4721
  663MOL0     C87424   5.749   3.371   1.792  0.5000  0.4540 -0.4329
  663MOL0     C87425   5.896   3.408   1.823  0.1492  0.6073 -1.0863
  663MOL0     C87426   5.943   3.337   1.953  0.3040 -0.7475 -0.2868
  663MOL0     C87427   6.096   3.324   1.957  1.2528 -0.8957 -0.1772
  663MOL0    Cl87428   6.178   3.480   1.979  0.7030  0.2013 -0.4773
  663MOL0     C87429   5.195   3.266   1.473  0.2859  0.6881  0.5162
  663MOL0     C87430   5.069   3.276   1.413  1.0281  0.2562 -0.4927
  663MOL0     O87431   4.815   2.985   1.290 -0.0129  0.2801  1.3679
  663MOL0     C87432   4.537   3.020   1.259  0.9725  0.0703  0.0893
  663MOL0     C87433   4.403   3.045   1.239  0.1822 -0.7016  0.0884
  663MOL0     N87434   3.655   3.459   1.176 -0.0469  0.0471  0.1859
  663MOL0     N87435   3.644   3.560   1.255  0.3564 -0.5233 -0.7433
  663MOL0     C87436   4.908   3.555   1.611  0.0465 -0.1253 -0.1368
  663MOL0     C87437   5.031   3.545   1.675  0.5469  0.4285 -0.8083
  663MOL0     C87438   5.307   3.591   2.045 -0.3367  0.3992 -0.1898
  663MOL0     C87439   5.306   3.527   2.171 -0.2404 -0.5330 -0.1105
  663MOL0     C87440   5.429   3.505   2.233  1.0289 -0.4593  0.1742
  663MOL0     C87441   5.546   3.531   2.167 -0.2152  0.1183 -0.1507
  663MOL0     O87442   5.669   3.509   2.224 -0.1342 -0.3207  0.1324
  663MOL0     C87443   5.683   3.412   2.324  0.1740  0.5843  0.5810
  663MOL0     C87444   5.802   3.334   2.286  0.0138 -0.0460  0.4879
  663MOL0     C87445   5.845   3.222   2.387  0.2665 -0.3331 -0.2824
  663MOL0     C87446   5.829   3.264   2.533  0.1890  0.4161 -0.0563
  663MOL0     C87447   5.931   3.370   2.562 -0.6911  0.4335  0.3707
  663MOL0     C87448   6.013   3.455   2.584 -0.0695  0.3595 -0.4608
  663MOL0     C87449   5.547   3.595   2.046  0.2725  0.2750 -0.4945
  663MOL0     C87450   5.432   3.629   1.979  0.2466  0.4796 -1.1040
  663MOL0     H87451   5.003   3.829   1.868  0.6081  1.2378 -0.8100
  663MOL0     H87452   4.792   3.845   1.734  2.3012  1.9779 -0.4073
  663MOL0     H87453   4.664   3.480   1.626  1.8725 -1.5536 -3.1452
  663MOL0     H87454   4.618   3.508   1.464 -0.3863 -0.1054  0.2527
  663MOL0     H87455   4.488   3.656   1.688  1.9776  1.5295  0.3850
  663MOL0     H87456   4.438   3.484   1.645 -1.7117  1.4293 -0.4803
  663MOL0     H87457   4.397   3.579   1.397 -0.5320  1.0438 -1.3523
  663MOL0     H87458   4.421   3.733   1.492  1.8747 -0.5712  5.7728
  663MOL0     H87459   4.207   3.513   1.552 -0.9207  0.2009  2.8567
  663MOL0     H87460   4.222   3.671   1.628 -2.6474 -1.3371  0.8972
  663MOL0     H87461   4.151   3.654   1.331 -0.1961  1.0631 -0.2796
  663MOL0     H87462   4.188   3.802   1.421  0.3204  0.2826  1.2856
  663MOL0     H87463   4.000   3.750   1.569  0.9553 -0.3757  0.1200
  663MOL0     H87464   3.967   3.605   1.470  2.1659 -0.1889  1.6300
  663MOL0     H87465   3.901   3.895   1.415 -1.7784 -0.8013  1.8437
  663MOL0     H87466   4.008   3.823   1.290 -0.4308 -2.8375 -0.7933
  663MOL0     H87467   3.753   3.829   1.258 -0.7296  3.0004  4.1843
  663MOL0     H87468   3.724   3.763   1.405 -0.0606  2.1444 -0.1047
  663MOL0     H87469   3.962   3.547   1.153 -0.8303 -0.0936 -2.0242
  663MOL0     H87470   3.838   3.368   0.948 -0.5943 -1.2988 -1.0050
  663MOL0     H87471   3.765   3.246   1.055  1.1737 -0.0568  0.2929
  663MOL0     H87472   4.040   3.358   1.113 -2.2082  1.0987  0.7973
  663MOL0     H87473   4.019   3.232   0.994  2.8620  0.1150  1.3501
  663MOL0     H87474   3.948   3.204   1.289 -2.6505 -4.3472  1.7916
  663MOL0     H87475   3.916   3.079   1.158  3.8124 -1.9010 -1.5832
  663MOL0     H87476   4.136   3.064   1.102 -2.4594  1.3731 -0.4928
  663MOL0     H87477   4.126   3.035   1.284  1.7673  1.8028  1.2918
  663MOL0     H87478   4.389   3.367   1.343 -0.0175 -0.6491 -0.1709
  663MOL0     H87479   4.624   3.315   1.397  1.4919 -0.9924 -0.4733
  663MOL0     H87480   4.917   2.999   1.567  0.6280 -1.0853  2.7041
  663MOL0     H87481   5.135   2.992   1.675  0.2709 -0.0987  0.1543
  663MOL0     H87482   5.464   3.256   1.511 -2.1672  1.4720 -0.5801
  663MOL0     H87483   5.539   3.188   1.652  0.8880  1.0212  0.6694
  663MOL0     H87484   5.466   3.349   1.799  1.5217  0.4330 -0.3685
  663MOL0     H87485   5.347   3.417   1.686 -1.1931 -1.9476 -0.3366
  663MOL0     H87486   5.529   3.561   1.719 -1.4807  1.2542 -2.8462
  663MOL0     H87487   5.541   3.511   1.552  0.1512  1.6966  0.3678
  663MOL0     H87488   5.736   3.388   1.584 -2.9681 -1.4567  0.7564
  663MOL0     H87489   5.762   3.544   1.673  0.8089  0.7945  0.0749
  663MOL0     H87490   5.729   3.268   1.760  1.1654 -0.0150  0.6023
  663MOL0     H87491   5.683   3.389   1.878  0.8036  0.4516 -0.1965
  663MOL0     H87492   5.905   3.516   1.843  2.2089  0.1044  1.2132
  663MOL0     H87493   5.960   3.384   1.737  3.0107  0.9849  0.8089
  663MOL0     H87494   5.923   3.398   2.042  2.4826 -0.0371 -0.2266
  663MOL0     H87495   5.907   3.236   1.974 -0.4209 -0.8084 -1.7262
  663MOL0     H87496   6.124   3.268   1.867  3.0646  2.6375 -2.0629
  663MOL0     H87497   6.127   3.273   2.048  1.5939  1.8498  1.3559
  663MOL0     H87498   5.271   3.336   1.440 -1.5146  2.3958 -0.2039
  663MOL0     H87499   5.043   3.343   1.332 -1.1140 -1.4019 -1.2931
  663MOL0     H87500   4.577   2.921   1.240 -1.1022 -0.6397 -0.9529
  663MOL0     H87501   4.343   2.969   1.191  0.0729 -1.1039  0.8469
  663MOL0     H87502   4.876   3.469   1.554 -0.4628 -0.9637  1.3713
  663MOL0     H87503   5.102   3.465   1.656 -0.2875 -0.6367  0.3265
  663MOL0     H87504   5.208   3.510   2.214 -0.9301  2.8221 -0.1014
  663MOL0     H87505   5.416   3.463   2.332  0.3843  1.4496  0.9667
  663MOL0     H87506   5.594   3.349   2.331  0.0877  0.6339 -0.0419
  663MOL0     H87507   5.700   3.460   2.421  2.3499  1.5602 -0.2253
  663MOL0     H87508   5.782   3.287   2.190  1.9928  2.2248 -1.1450
  663MOL0     H87509   5.886   3.399   2.261 -1.3394  0.7040 -2.6088
  663MOL0     H87510   5.953   3.206   2.381  0.9089  2.8758  0.4680
  663MOL0     H87511   5.781   3.134   2.379  0.2515 -0.4627  0.9616
  663MOL0     H87512   5.731   3.306   2.556  0.4375  1.8305 -1.4695
  663MOL0     H87513   5.851   3.181   2.601 -0.5585 -0.5713 -0.9915
  663MOL0     H87514   6.081   3.526   2.626  0.4531  0.9174 -2.1303
  663MOL0     H87515   5.647   3.608   2.005 -0.3331 -0.6964 -2.3763
  663MOL0     H87516   5.445   3.678   1.883  1.2323  3.6127  0.5025
  664MOL0     O87517   8.285   8.691   9.710 -0.9666 -0.5091  0.3891
  664MOL0     C87518   8.291   8.807   9.655  0.0085  0.8080  0.0746
  664MOL0     O87519   8.180   8.892   9.648  0.2414  0.0671 -0.7377
  664MOL0     C87520   8.065   8.853   9.715  0.8561 -0.8237  0.0288
  664MOL0     C87521   8.045   8.847   9.849  0.0572  0.3134 -0.0990
  664MOL0     C87522   7.919   8.816   9.902 -0.9828  0.3990  0.1596
  664MOL0     C87523   7.812   8.799   9.815 -0.0215  1.1930 -0.3437
  664MOL0     O87524   7.677   8.774   9.860  0.8133 -0.2328 -0.4914
  664MOL0     C87525   7.666   8.721   9.992 -0.0275 -0.3354 -0.5755
  664MOL0     C87526   7.541   8.641  10.007  1.0440  0.1597 -0.1637
  664MOL0     C87527   7.423   8.717   9.934 -0.2821  0.0089  0.1931
  664MOL0     C87528   7.284   8.670   9.981 -0.5579 -0.0813  0.2578
  664MOL0     C87529   7.167   8.724   9.894  0.4359  0.0134 -0.1208
  664MOL0     C87530   7.188   8.680   9.750  0.0198  0.0842  1.2603
  664MOL0     C87531   7.055   8.677   9.675  0.2380 -0.6628 -0.2416
  664MOL0     C87532   6.996   8.536   9.670 -0.6454 -0.7203 -0.4302
  664MOL0     N87533   6.863   8.552   9.611  0.5258 -0.3590 -0.2922
  664MOL0     C87534   6.748   8.560   9.684 -0.3508 -1.2071 -0.2524
  664MOL0     C87535   6.644   8.558   9.595 -0.1099 -0.1416 -0.4518
  664MOL0     C87536   6.495   8.573   9.621 -0.7926  0.3959  0.1566
  664MOL0     C87537   6.439   8.481   9.730 -0.5734  0.9141 -0.2388
  664MOL0     C87538   6.290   8.510   9.758 -0.1344 -0.2319 -0.2750
  664MOL0     C87539   6.265   8.642   9.833 -0.1311 -0.4787  0.4062
  664MOL0     O87540   6.134   8.659   9.894  0.5075 -0.1542 -0.5276
  664MOL0     C87541   6.015   8.675   9.820 -0.5925 -0.5882 -0.4142
  664MOL0     C87542   6.011   8.666   9.682  0.1826 -0.3037  0.1403
  664MOL0     C87543   5.885   8.679   9.611  0.1695  0.3475 -0.0400
  664MOL0     C87544   5.770   8.694   9.688 -0.2506  0.1463  0.6801
  664MOL0     C87545   5.650   8.726   9.610  0.2927  0.8460 -0.2484
  664MOL0     O87546   5.531   8.719   9.681  0.0412 -1.4837  0.3480
  664MOL0     C87547   5.415   8.759   9.624  0.3101  0.9253  0.6018
  664MOL0     C87548   5.308   8.705   9.681  0.0773 -0.2897  0.0492
  664MOL0     C87549   5.177   8.743   9.648 -0.6330 -0.8313 -0.2371
  664MOL0     C87550   5.146   8.832   9.554 -0.1106 -0.0834  0.0104
  664MOL0     O87551   5.027   8.878   9.524  0.0795  0.1747 -0.3245
  664MOL0     C87552   4.923   8.889   9.620 -1.1261  0.3245  0.4211
  664MOL0     C87553   4.795   8.900   9.543 -0.1164 -1.0500  0.0058
  664MOL0     C87554   4.765   8.773   9.459 -0.6031  0.1668  0.3618
  664MOL0     C87555   4.630   8.790   9.392 -0.0139 -0.1706 -0.3399
  664MOL0     C87556   4.592   8.668   9.310  0.1401  0.6835 -0.2749
  664MOL0     C87557   4.440   8.638   9.324  0.3853  0.0630 -0.2856
  664MOL0     C87558   4.341   8.757   9.295 -0.8758 -0.5893 -0.3751
  664MOL0     C87559   4.196   8.709   9.298 -0.5561 -0.6475 -0.6018
  664MOL0    Cl87560   4.145   8.680   9.467  0.2734 -0.1696  0.4447
  664MOL0     C87561   5.256   8.892   9.490 -0.4290  0.7956  0.3711
  664MOL0     C87562   5.388   8.855   9.524 -0.8471  0.3815 -1.1273
  664MOL0     O87563   5.658   8.754   9.495 -0.7073  0.6410  0.6407
  664MOL0     C87564   5.770   8.699   9.828 -0.1686  0.2022 -0.4998
  664MOL0     C87565   5.900   8.692   9.893  0.2626 -0.3080  0.1167
  664MOL0     N87566   6.705   8.558   9.472  0.1839  0.4679 -0.1809
  664MOL0     N87567   6.833   8.544   9.476  0.2898  0.2573 -0.2424
  664MOL0     C87568   7.828   8.811   9.676 -0.6657  0.0885  0.4201
  664MOL0     C87569   7.957   8.841   9.631  0.2590  0.3803  0.2839
  664MOL0     C87570   8.417   8.840   9.583 -0.3870 -0.0804  0.2328
  664MOL0     C87571   8.505   8.745   9.547 -0.1746  0.0211  0.2310
  664MOL0     C87572   8.630   8.771   9.498  0.1685 -0.2893  0.3710
  664MOL0     C87573   8.670   8.898   9.470  0.7173  0.3467  1.1707
  664MOL0     O87574   8.787   8.913   9.407 -0.1638  0.2894  0.6686
  664MOL0     C87575   8.849   9.039   9.398  0.0818 -0.9250  0.1059
  664MOL0     C87576   8.997   9.018   9.357 -0.6663 -0.7495 -0.1439
  664MOL0     C87577   9.024   8.948   9.230  0.3136  0.5779  0.0154
  664MOL0     C87578   9.158   8.986   9.182 -0.1265  0.6696 -1.1149
  664MOL0     C87579   9.178   8.916   9.053  0.8441  1.2201  0.0527
  664MOL0     C87580   9.206   8.868   8.945 -0.0113 -0.0858  0.1317
  664MOL0     C87581   8.582   9.004   9.495  0.0065 -0.2868  0.3242
  664MOL0     C87582   8.457   8.975   9.556  0.0219  0.1136  0.0293
  664MOL0     H87583   8.131   8.846   9.915 -1.9258  0.4269  2.6958
  664MOL0     H87584   7.913   8.793  10.008 -4.1679 -1.6346 -0.3177
  664MOL0     H87585   7.661   8.801  10.066 -1.5917 -1.6334  0.8049
  664MOL0     H87586   7.748   8.656  10.025 -1.8389 -1.9155  1.0752
  664MOL0     H87587   7.518   8.641  10.114 -0.8017  1.7173 -0.4998
  664MOL0     H87588   7.552   8.539   9.967  2.0435  0.2249 -0.0624
  664MOL0     H87589   7.439   8.699   9.827 -2.8664  2.6405 -0.7739
  664MOL0     H87590   7.436   8.822   9.962 -0.4600  1.1446 -3.4106
  664MOL0     H87591   7.278   8.561   9.985  1.2975 -0.1754  1.9633
  664MOL0     H87592   7.274   8.704  10.085  0.4490  1.6692 -0.1694
  664MOL0     H87593   7.160   8.832   9.903 -2.3133 -0.1237  0.1245
  664MOL0     H87594   7.073   8.680   9.930  1.2830 -0.7172  1.3070
  664MOL0     H87595   7.234   8.581   9.745 -1.5112 -0.6165  0.0317
  664MOL0     H87596   7.262   8.739   9.696  1.6692 -2.9611 -0.0738
  664MOL0     H87597   6.977   8.736   9.723 -0.3238 -0.9486 -0.7754
  664MOL0     H87598   7.069   8.709   9.571  0.3329 -2.8127 -0.9439
  664MOL0     H87599   7.003   8.487   9.767  3.6155 -0.7377 -0.5325
  664MOL0     H87600   7.068   8.483   9.607  1.0510 -0.5419  1.2693
  664MOL0     H87601   6.730   8.554   9.791  0.7186  0.1697  0.0255
  664MOL0     H87602   6.455   8.552   9.521  0.3246  0.6994 -0.3646
  664MOL0     H87603   6.476   8.679   9.640  0.8786  0.8915 -0.7109
  664MOL0     H87604   6.494   8.488   9.824  1.6210  0.8910 -1.4602
  664MOL0     H87605   6.443   8.375   9.703 -2.2020  1.4804 -3.1362
  664MOL0     H87606   6.233   8.502   9.665 -0.9184 -1.0998  0.2474
  664MOL0     H87607   6.252   8.426   9.818 -1.0717  0.9778  0.8962
  664MOL0     H87608   6.279   8.715   9.753 -0.0336 -1.1163 -0.1682
  664MOL0     H87609   6.344   8.638   9.909  1.4218 -0.5896 -1.1404
  664MOL0     H87610   6.101   8.642   9.625 -0.4461 -1.0907 -0.5619
  664MOL0     H87611   5.890   8.673   9.502  1.4415  0.4801 -0.0119
  664MOL0     H87612   5.321   8.627   9.755  1.1643  1.3925  1.6909
  664MOL0     H87613   5.096   8.699   9.704 -1.5774  0.9385 -0.1513
  664MOL0     H87614   4.939   8.972   9.690 -3.9722  0.9257  0.5018
  664MOL0     H87615   4.913   8.800   9.684  0.1870 -0.4066 -0.3563
  664MOL0     H87616   4.810   8.990   9.483 -0.9431  0.2652  1.6699
  664MOL0     H87617   4.712   8.928   9.608  0.4617  0.5148  0.1139
  664MOL0     H87618   4.746   8.692   9.530 -1.5186  0.2942  0.2805
  664MOL0     H87619   4.829   8.737   9.378 -2.6659 -0.7911 -0.9238
  664MOL0     H87620   4.556   8.810   9.470 -0.6726  0.1601 -1.0332
  664MOL0     H87621   4.624   8.884   9.337  1.7783  1.8006  2.5521
  664MOL0     H87622   4.634   8.577   9.353 -0.7188 -0.2610 -1.3752
  664MOL0     H87623   4.615   8.664   9.204  2.0763 -0.9508  0.1542
  664MOL0     H87624   4.427   8.612   9.429  1.7139 -0.4050 -0.2148
  664MOL0     H87625   4.405   8.559   9.256  1.1203  1.2773 -2.1663
  664MOL0     H87626   4.342   8.827   9.378 -1.5645 -3.9145  2.7084
  664MOL0     H87627   4.383   8.797   9.203  3.5094  0.3143  1.7692
  664MOL0     H87628   4.185   8.619   9.238 -3.7374 -2.3741  2.2530
  664MOL0     H87629   4.128   8.780   9.250  0.2494  0.9737  0.5542
  664MOL0     H87630   5.237   8.968   9.415  3.1188  0.6891 -0.8416
  664MOL0     H87631   5.476   8.907   9.488  2.2062 -1.5168  2.7525
  664MOL0     H87632   5.670   8.707   9.869 -1.0989  0.4826 -2.6452
  664MOL0     H87633   5.917   8.693  10.000  1.0094 -4.5504  0.2127
  664MOL0     H87634   7.752   8.777   9.607 -2.9401  2.7647  1.4004
  664MOL0     H87635   7.969   8.862   9.526 -0.0234 -1.5423 -0.1779
  664MOL0     H87636   8.479   8.641   9.561  2.3565 -0.6745  0.1953
  664MOL0     H87637   8.684   8.683   9.462 -3.3028 -1.0571 -3.8351
  664MOL0     H87638   8.858   9.092   9.493  3.4623 -0.4868 -0.3444
  664MOL0     H87639   8.799   9.110   9.331  4.8175  3.7632  0.8882
  664MOL0     H87640   9.043   9.116   9.346  1.8867 -1.9457 -0.8436
  664MOL0     H87641   9.030   8.959   9.444 -0.3656  1.2194  1.1433
  664MOL0     H87642   8.941   8.971   9.163 -0.3436 -0.0395  0.5956
  664MOL0     H87643   9.021   8.839   9.238  3.9125  0.2254 -1.4683
  664MOL0     H87644   9.167   9.094   9.170 -2.4864  0.8180 -2.3036
  664MOL0     H87645   9.227   8.947   9.256 -0.8303  1.3873 -0.0544
  664MOL0     H87646   9.220   8.830   8.846 -0.4986  0.2337 -0.0655
  664MOL0     H87647   8.602   9.109   9.480 -1.9595  0.2378  1.0043
  664MOL0     H87648   8.401   9.065   9.576 -0.2461  0.5532 -2.4140
  665MOL0     O87649   3.255   2.338   8.605  0.0866 -0.3980  0.4424
  665MOL0     C87650   3.271   2.435   8.680  0.8035 -0.1983  0.0304
  665MOL0     O87651   3.383   2.456   8.758  0.6608 -0.6900 -0.0979
  665MOL0     C87652   3.500   2.387   8.744 -0.5188  0.0423  0.0005
  665MOL0     C87653   3.571   2.381   8.861 -0.3119 -0.0137  0.6225
  665MOL0     C87654   3.700   2.329   8.866  0.1288 -0.2118 -0.3135
  665MOL0     C87655   3.756   2.261   8.755 -0.5668 -0.5606 -0.8886
  665MOL0     O87656   3.880   2.210   8.754  0.5731  0.0976 -0.1480
  665MOL0     C87657   3.984   2.311   8.762  0.2213 -0.2563 -0.0343
  665MOL0     C87658   4.098   2.253   8.674  0.5503 -0.0759 -0.3359
  665MOL0     C87659   4.225   2.335   8.685  1.3943 -0.1265 -0.5784
  665MOL0     C87660   4.318   2.281   8.573 -0.3392  0.5891  0.3994
  665MOL0     C87661   4.453   2.363   8.567 -0.2915  0.4493  0.0592
  665MOL0     C87662   4.542   2.301   8.457  0.3213 -0.5599  0.1253
  665MOL0     C87663   4.687   2.356   8.446 -0.6486  0.1324  0.7077
  665MOL0     C87664   4.790   2.302   8.553  0.4247  0.0545 -0.5017
  665MOL0     N87665   4.911   2.377   8.538  0.5878  0.4934  0.1529
  665MOL0     C87666   4.992   2.383   8.426  0.3980 -0.6696 -0.3392
  665MOL0     C87667   5.065   2.496   8.437 -0.2332 -0.5076 -0.5986
  665MOL0     C87668   5.159   2.568   8.341 -0.4155 -0.1085 -0.0307
  665MOL0     C87669   5.108   2.616   8.202  0.2896 -0.9436 -0.9670
  665MOL0     C87670   4.974   2.706   8.220 -0.1654  0.0913  0.2057
  665MOL0     C87671   4.993   2.833   8.305  0.2341 -0.8435 -0.4272
  665MOL0     O87672   4.875   2.918   8.296 -0.3849  0.6839 -0.2461
  665MOL0     C87673   4.762   2.881   8.362 -0.3216 -0.7319  0.5146
  665MOL0     C87674   4.644   2.952   8.327 -0.3831 -0.0717 -0.1119
  665MOL0     C87675   4.516   2.928   8.386 -0.4487 -0.0696  0.2819
  665MOL0     C87676   4.507   2.818   8.472 -0.4890  0.0933  0.8801
  665MOL0     C87677   4.379   2.789   8.530  0.4402 -0.2479  0.5473
  665MOL0     O87678   4.282   2.875   8.491 -0.2373  0.0174  0.4959
  665MOL0     C87679   4.154   2.868   8.522 -0.4577 -0.2993  0.5891
  665MOL0     C87680   4.092   2.989   8.535  0.0423 -0.3965  0.1173
  665MOL0     C87681   3.957   3.001   8.546  0.7199  0.1325  0.2728
  665MOL0     C87682   3.874   2.885   8.566 -0.3068 -0.5101 -0.9531
  665MOL0     O87683   3.743   2.896   8.602  0.1368 -0.0288 -0.4675
  665MOL0     C87684   3.663   2.919   8.484  0.1299  0.7955 -0.0864
  665MOL0     C87685   3.515   2.881   8.506  0.0172  0.4833  0.0830
  665MOL0     C87686   3.428   2.880   8.384  0.4955  0.2656  0.1884
  665MOL0     C87687   3.287   2.851   8.424  0.2830  0.2967 -0.2473
  665MOL0     C87688   3.208   2.797   8.306  0.1946 -0.1368  0.2603
  665MOL0     C87689   3.236   2.641   8.278  0.9101  0.1945  0.0449
  665MOL0     C87690   3.137   2.602   8.169  0.6773 -0.3556 -0.5684
  665MOL0     C87691   3.158   2.655   8.034 -0.3426  0.2106  0.3092
  665MOL0    Cl87692   3.311   2.596   7.971  0.1501 -0.4807 -0.1094
  665MOL0     C87693   3.938   2.763   8.583 -0.0419 -0.4770 -0.2557
  665MOL0     C87694   4.079   2.753   8.548  0.1768  0.3848 -0.9071
  665MOL0     O87695   4.364   2.686   8.597  0.1904 -0.9561 -0.2176
  665MOL0     C87696   4.622   2.737   8.489  0.5676 -0.0618 -0.6870
  665MOL0     C87697   4.744   2.767   8.438  0.8616  0.3191 -0.5313
  665MOL0     N87698   5.019   2.557   8.549  0.9036  0.2773 -0.0245
  665MOL0     N87699   4.934   2.492   8.609  0.3981 -0.2387  0.3309
  665MOL0     C87700   3.675   2.257   8.642  0.5165  0.3095 -0.8666
  665MOL0     C87701   3.552   2.319   8.639  0.0597  0.2334  0.5360
  665MOL0     C87702   3.144   2.512   8.722 -0.0367  0.1895 -0.0657
  665MOL0     C87703   3.030   2.502   8.646  1.0015  1.0906  0.8577
  665MOL0     C87704   2.912   2.580   8.665 -0.7893  0.5598  0.6662
  665MOL0     C87705   2.919   2.674   8.770  1.0402  0.6586  0.1824
  665MOL0     O87706   2.811   2.751   8.816  0.2533 -0.5814 -0.6542
  665MOL0     C87707   2.706   2.776   8.717  0.2777  0.3975 -0.6269
  665MOL0     C87708   2.592   2.842   8.796 -0.2091  0.1868  0.2441
  665MOL0     C87709   2.468   2.860   8.709  0.4752 -0.2916 -0.1777
  665MOL0     C87710   2.387   2.727   8.673 -0.0189  0.4162 -0.2651
  665MOL0     C87711   2.322   2.677   8.798 -0.2241 -0.2122 -0.0537
  665MOL0     C87712   2.273   2.626   8.897 -0.1862 -0.1163 -0.5151
  665MOL0     C87713   3.036   2.681   8.846  0.6965 -0.7400 -0.5540
  665MOL0     C87714   3.144   2.601   8.828  0.2005  0.6439  0.8978
  665MOL0     H87715   3.534   2.428   8.953  0.4431  2.0778 -0.0715
  665MOL0     H87716   3.761   2.332   8.955 -2.4894  1.8299  1.5467
  665MOL0     H87717   4.027   2.329   8.861  0.1061  1.3090 -0.2347
  665MOL0     H87718   3.938   2.403   8.724 -1.3149 -1.1376 -0.4247
  665MOL0     H87719   4.063   2.230   8.572  0.4180 -4.2718  0.4891
  665MOL0     H87720   4.112   2.157   8.724 -0.8561 -0.9192 -1.4532
  665MOL0     H87721   4.279   2.325   8.779  1.3941  0.0813 -0.5559
  665MOL0     H87722   4.192   2.436   8.661 -0.9305 -1.1987 -2.3637
  665MOL0     H87723   4.331   2.177   8.603 -1.5161  0.2619 -0.1456
  665MOL0     H87724   4.267   2.281   8.476 -1.9443  1.6114  1.2103
  665MOL0     H87725   4.501   2.368   8.665 -1.0255  1.6019  0.3762
  665MOL0     H87726   4.423   2.463   8.536 -1.0926 -0.4420 -2.3104
  665MOL0     H87727   4.489   2.297   8.362  1.6927  0.8139 -0.7326
  665MOL0     H87728   4.550   2.195   8.485  1.1040 -0.1231  1.7165
  665MOL0     H87729   4.737   2.332   8.351  0.0219 -3.2485  1.7832
  665MOL0     H87730   4.684   2.464   8.462  0.7720  0.2816  0.1806
  665MOL0     H87731   4.798   2.195   8.530  1.5936  0.2595 -1.0969
  665MOL0     H87732   4.757   2.311   8.657  0.3191 -1.4277 -0.3812
  665MOL0     H87733   4.995   2.308   8.347 -1.7565 -2.2293  0.9767
  665MOL0     H87734   5.248   2.507   8.323  0.3071  1.8186 -4.3775
  665MOL0     H87735   5.203   2.656   8.390 -1.2627 -0.3090  1.1317
  665MOL0     H87736   5.069   2.539   8.135 -0.3408  0.2639 -2.0251
  665MOL0     H87737   5.184   2.671   8.146  1.0471 -0.3767  0.5831
  665MOL0     H87738   4.934   2.733   8.122 -3.2681 -1.6210  0.8681
  665MOL0     H87739   4.889   2.649   8.259 -1.0864  0.6833 -0.8778
  665MOL0     H87740   5.071   2.899   8.267 -2.0999  4.1268  2.2975
  665MOL0     H87741   5.022   2.817   8.409  0.8872 -0.5432 -0.5617
  665MOL0     H87742   4.664   3.042   8.270  2.9612  1.3311  2.8930
  665MOL0     H87743   4.438   2.999   8.360 -0.2662  0.4909  1.2075
  665MOL0     H87744   4.151   3.078   8.513  0.0861 -1.4138 -5.1877
  665MOL0     H87745   3.928   3.105   8.544  1.7362  0.4183 -1.6531
  665MOL0     H87746   3.696   2.871   8.391 -1.4877  3.0822 -1.9576
  665MOL0     H87747   3.649   3.025   8.464 -1.4730  0.3744 -1.3832
  665MOL0     H87748   3.472   2.953   8.575  0.0906  1.4222 -0.8272
  665MOL0     H87749   3.508   2.786   8.560  1.3014 -1.3878 -2.7688
  665MOL0     H87750   3.462   2.797   8.321 -1.1137  1.1086 -1.9551
  665MOL0     H87751   3.439   2.971   8.323  2.0677 -0.5621 -0.8251
  665MOL0     H87752   3.297   2.769   8.496  0.3621 -1.3810 -2.0785
  665MOL0     H87753   3.237   2.935   8.473 -3.0042 -1.4717 -0.3130
  665MOL0     H87754   3.227   2.850   8.212  1.7962 -0.3973  0.4051
  665MOL0     H87755   3.102   2.796   8.332  0.2905 -1.1692  0.6646
  665MOL0     H87756   3.214   2.583   8.368 -3.5388 -0.3221 -1.1420
  665MOL0     H87757   3.340   2.623   8.247  1.2695 -1.9392  2.1994
  665MOL0     H87758   3.144   2.493   8.162 -1.0579 -0.4909 -0.5076
  665MOL0     H87759   3.036   2.621   8.206  0.9918  1.5215 -0.5653
  665MOL0     H87760   3.158   2.764   8.027  1.2532  0.1362 -2.2279
  665MOL0     H87761   3.075   2.622   7.970 -0.3759  0.1926  0.3610
  665MOL0     H87762   3.886   2.671   8.608  0.9571 -1.1513 -0.5981
  665MOL0     H87763   4.136   2.661   8.544 -0.1638  0.1950 -1.3893
  665MOL0     H87764   4.597   2.643   8.538 -3.7456  0.6473 -1.1351
  665MOL0     H87765   4.825   2.697   8.455  1.3368  0.4212 -2.1563
  665MOL0     H87766   3.727   2.208   8.561  1.1235 -0.8592  0.1916
  665MOL0     H87767   3.498   2.313   8.545 -0.1763  2.0429  0.5361
  665MOL0     H87768   3.014   2.423   8.572 -0.8902  0.4995  1.8514
  665MOL0     H87769   2.821   2.566   8.608  0.3231  0.5816 -1.1866
  665MOL0     H87770   2.666   2.689   8.665  0.7669 -1.2954  1.6542
  665MOL0     H87771   2.739   2.850   8.643  0.9803 -0.8306 -1.5756
  665MOL0     H87772   2.572   2.796   8.893  0.9810 -0.2188  0.3039
  665MOL0     H87773   2.629   2.942   8.821  1.6795 -0.2592 -0.6283
  665MOL0     H87774   2.480   2.901   8.608 -0.5878  0.5648  0.0250
  665MOL0     H87775   2.399   2.925   8.764 -1.2048 -0.4688 -1.9873
  665MOL0     H87776   2.307   2.743   8.600 -0.0253 -2.3859 -1.0203
  665MOL0     H87777   2.453   2.653   8.627  1.7965  0.2539  2.4038
  665MOL0     H87778   2.247   2.560   8.977  0.2917 -0.9551 -1.0361
  665MOL0     H87779   3.026   2.749   8.930 -1.9501  0.1637 -1.4755
  665MOL0     H87780   3.231   2.605   8.892 -0.3145 -0.2507  1.6816
  666MOL0     O87781   5.577   6.203   0.449  0.3979 -0.2006 -0.3339
  666MOL0     C87782   5.584   6.089   0.405 -0.2373  0.7303 -0.7776
  666MOL0     O87783   5.690   6.008   0.432  0.3993  0.2042  0.7891
  666MOL0     C87784   5.806   6.058   0.479  0.3041 -0.8082 -0.1070
  666MOL0     C87785   5.923   6.060   0.395  0.6959 -0.4957  0.2990
  666MOL0     C87786   6.051   6.077   0.450 -0.2104  0.1248 -0.5136
  666MOL0     C87787   6.061   6.104   0.587  0.5822  0.0680  0.0169
  666MOL0     O87788   6.180   6.121   0.642  0.0343  0.6742 -0.4238
  666MOL0     C87789   6.203   6.024   0.751  0.1395 -0.4990 -0.0816
  666MOL0     C87790   6.348   5.990   0.731 -0.6062  0.3627 -0.0272
  666MOL0     C87791   6.447   6.114   0.729  0.1875  0.0549 -0.0424
  666MOL0     C87792   6.461   6.180   0.861  0.1721 -0.6528 -1.0582
  666MOL0     C87793   6.499   6.329   0.847 -0.6154 -0.1611  0.2743
  666MOL0     C87794   6.634   6.348   0.772  0.2499  0.1846 -0.2020
  666MOL0     C87795   6.745   6.296   0.862  0.8868  0.2518  0.2385
  666MOL0     C87796   6.884   6.341   0.822 -0.1048  0.4093 -0.5289
  666MOL0     N87797   6.987   6.303   0.926  0.3751  0.2690  0.9124
  666MOL0     C87798   7.061   6.392   1.008  0.6299  0.4936 -1.0718
  666MOL0     C87799   7.135   6.316   1.092 -1.4074  0.9174 -0.1283
  666MOL0     C87800   7.218   6.368   1.205 -0.6895 -1.0534  0.4580
  666MOL0     C87801   7.333   6.465   1.173  0.1768 -1.1265  0.6497
  666MOL0     C87802   7.316   6.578   1.074  0.2831 -0.9021  0.1115
  666MOL0     C87803   7.233   6.694   1.135 -0.6379 -0.3309  0.6245
  666MOL0     O87804   7.101   6.643   1.161 -0.3222 -0.1985 -0.0571
  666MOL0     C87805   6.990   6.717   1.123 -0.3889 -0.1030  0.4942
  666MOL0     C87806   6.995   6.851   1.063 -0.1001  1.1212  0.2124
  666MOL0     C87807   6.874   6.917   1.031 -0.7301 -0.4391 -0.1136
  666MOL0     C87808   6.747   6.856   1.043  0.4072  0.1431 -0.0807
  666MOL0     C87809   6.620   6.912   0.992 -0.1918  0.5883  0.6704
  666MOL0     O87810   6.507   6.845   1.002  0.1761  0.0352  0.3513
  666MOL0     C87811   6.379   6.897   0.983 -0.6326  0.4825  0.3001
  666MOL0     C87812   6.283   6.799   0.968  0.2109 -0.6296 -0.0256
  666MOL0     C87813   6.150   6.839   0.959 -0.0233 -0.4276 -0.1154
  666MOL0     C87814   6.111   6.972   0.974 -0.0298 -0.5332  0.4205
  666MOL0     O87815   5.978   7.017   0.977 -0.4409 -0.1254 -0.7328
  666MOL0     C87816   5.950   7.152   0.997 -0.2248  0.4254 -0.3095
  666MOL0     C87817   5.798   7.176   0.988  0.5002  0.2998 -0.2602
  666MOL0     C87818   5.744   7.150   0.851  0.2905 -0.4428  0.1357
  666MOL0     C87819   5.591   7.186   0.844 -0.3219 -0.1338  0.2184
  666MOL0     C87820   5.549   7.258   0.719 -0.0634 -0.6884  0.3051
  666MOL0     C87821   5.587   7.404   0.728  0.8816 -0.4632 -0.3532
  666MOL0     C87822   5.526   7.487   0.612 -0.2404 -1.3440 -0.2541
  666MOL0     C87823   5.560   7.637   0.632 -1.0324 -0.3241 -0.0433
  666MOL0    Cl87824   5.492   7.692   0.788 -0.3613 -0.4280  0.0882
  666MOL0     C87825   6.210   7.070   0.987 -0.0912 -0.0845 -0.1829
  666MOL0     C87826   6.344   7.030   0.986  0.7858 -0.8564  0.4220
  666MOL0     O87827   6.632   7.023   0.944 -0.5815  0.3878 -0.7229
  666MOL0     C87828   6.746   6.719   1.090 -0.2865 -0.2542  0.3117
  666MOL0     C87829   6.868   6.655   1.134  0.2120  0.2388  0.5747
  666MOL0     N87830   7.125   6.188   1.041 -0.1511  0.2647 -0.7602
  666MOL0     N87831   7.032   6.176   0.951 -0.3004  0.1342  0.1770
  666MOL0     C87832   5.952   6.106   0.669  0.3750 -0.6227  0.3898
  666MOL0     C87833   5.819   6.081   0.615  0.0216  0.1668  0.0562
  666MOL0     C87834   5.468   6.036   0.337 -0.2151  0.7413  0.1943
  666MOL0     C87835   5.349   6.102   0.355  0.2526 -0.1915 -0.4837
  666MOL0     C87836   5.235   6.068   0.279 -0.4167  0.4490  1.1636
  666MOL0     C87837   5.235   5.965   0.184 -0.6459  0.1161 -0.1939
  666MOL0     O87838   5.125   5.916   0.118 -0.4048  0.1242 -0.1727
  666MOL0     C87839   4.993   5.940   0.172  0.2565  0.2942 -0.4553
  666MOL0     C87840   4.909   5.874   0.071 -0.0130  0.2800  0.1754
  666MOL0     C87841   4.974   5.743   0.022  0.4702  0.5001  0.3628
  666MOL0     C87842   4.872   5.655  -0.052  0.2920 -0.4218 -0.0884
  666MOL0     C87843   4.804   5.733  -0.162 -0.3425  0.0760 -1.2130
  666MOL0     C87844   4.746   5.809  -0.237 -0.5224 -0.4140 -0.2502
  666MOL0     C87845   5.357   5.898   0.168 -0.5223 -0.2082 -0.6221
  666MOL0     C87846   5.472   5.934   0.237  0.6324  0.3896  0.2745
  666MOL0     H87847   5.921   6.039   0.289 -0.0338 -3.3093  0.7925
  666MOL0     H87848   6.135   6.063   0.383 -1.5737  0.5106 -2.3691
  666MOL0     H87849   6.133   5.940   0.752 -2.7155  1.7178  1.5029
  666MOL0     H87850   6.200   6.076   0.847  0.5245 -1.1692  0.3020
  666MOL0     H87851   6.360   5.946   0.632  3.3941 -1.2460  0.9792
  666MOL0     H87852   6.381   5.917   0.806  1.3302 -1.5416 -2.5790
  666MOL0     H87853   6.413   6.188   0.656 -0.2081 -2.5754 -2.7192
  666MOL0     H87854   6.548   6.085   0.701 -0.2432  0.4770 -2.1601
  666MOL0     H87855   6.361   6.182   0.906 -0.8657 -1.8701 -3.1763
  666MOL0     H87856   6.517   6.126   0.939  1.8256  1.3476 -0.7591
  666MOL0     H87857   6.499   6.374   0.946 -1.5551  0.2995  0.0756
  666MOL0     H87858   6.425   6.380   0.785 -0.0071  0.2698 -0.1099
  666MOL0     H87859   6.638   6.456   0.756 -0.5243  0.1591 -0.6076
  666MOL0     H87860   6.632   6.304   0.672 -1.0273 -0.7889  0.2254
  666MOL0     H87861   6.722   6.328   0.964  1.0710  0.3417  0.2514
  666MOL0     H87862   6.741   6.187   0.854  0.7000 -0.0346  3.2420
  666MOL0     H87863   6.883   6.449   0.806 -1.6299  0.4613 -0.1890
  666MOL0     H87864   6.915   6.288   0.731  0.2785  1.9999 -1.3609
  666MOL0     H87865   7.052   6.500   1.001  0.6551  0.4675 -1.5526
  666MOL0     H87866   7.265   6.279   1.249  1.6923  0.1963  0.5998
  666MOL0     H87867   7.161   6.394   1.295 -0.9687 -1.7885  0.4991
  666MOL0     H87868   7.423   6.408   1.151  0.6481 -0.0824 -0.2565
  666MOL0     H87869   7.355   6.516   1.267 -0.7589  3.9331 -1.5399
  666MOL0     H87870   7.422   6.602   1.063  0.4579 -2.0654 -1.0806
  666MOL0     H87871   7.277   6.552   0.975  1.3980  1.3832 -1.0259
  666MOL0     H87872   7.228   6.765   1.052 -2.6794 -0.1894  0.8195
  666MOL0     H87873   7.290   6.726   1.223  0.3170  1.3873 -0.5728
  666MOL0     H87874   7.079   6.918   1.048  1.7291 -1.2681 -0.8070
  666MOL0     H87875   6.879   7.019   0.996 -0.2491 -1.3432 -2.9403
  666MOL0     H87876   6.310   6.695   0.964  4.7778  0.3211  0.6891
  666MOL0     H87877   6.085   6.752   0.951  0.6168 -0.9867  0.5484
  666MOL0     H87878   5.997   7.217   0.923  0.5207 -0.9898 -1.1329
  666MOL0     H87879   5.985   7.176   1.098 -2.2445 -0.5454  0.6797
  666MOL0     H87880   5.770   7.274   1.028 -0.8152 -1.6428  4.2491
  666MOL0     H87881   5.743   7.105   1.050  2.1921  0.0007  0.9473
  666MOL0     H87882   5.764   7.049   0.815 -2.1807 -0.3540 -1.8046
  666MOL0     H87883   5.804   7.215   0.786  1.1756 -1.0179  0.3601
  666MOL0     H87884   5.532   7.094   0.856 -0.6284  0.2987  2.4706
  666MOL0     H87885   5.574   7.252   0.929  0.0336  0.2928 -0.0343
  666MOL0     H87886   5.443   7.244   0.696 -0.8970  3.3232  1.0093
  666MOL0     H87887   5.611   7.217   0.639  0.0481 -1.2113  0.6511
  666MOL0     H87888   5.696   7.416   0.735  0.7555  0.8413 -0.3276
  666MOL0     H87889   5.554   7.452   0.820  2.0779  0.0589 -0.1768
  666MOL0     H87890   5.571   7.458   0.517 -0.1139 -0.3029 -0.5271
  666MOL0     H87891   5.417   7.487   0.606 -0.2961  1.3947 -0.8234
  666MOL0     H87892   5.523   7.695   0.547 -1.0900 -1.5658 -0.8916
  666MOL0     H87893   5.667   7.655   0.625 -0.9015 -0.7678  0.7412
  666MOL0     H87894   6.189   7.177   0.991 -1.4559 -0.3505  3.2614
  666MOL0     H87895   6.415   7.111   0.996 -0.0065  0.0545 -0.9919
  666MOL0     H87896   6.657   6.658   1.085 -0.7883  0.5558 -1.3507
  666MOL0     H87897   6.870   6.554   1.173  0.2494 -0.4237 -1.0727
  666MOL0     H87898   5.961   6.127   0.775  0.4176 -2.8367  0.8837
  666MOL0     H87899   5.729   6.062   0.674 -0.1775 -3.6851 -1.1917
  666MOL0     H87900   5.344   6.186   0.423  0.4689 -0.9088  0.4385
  666MOL0     H87901   5.151   6.136   0.294  0.5075  2.0199 -0.4103
  666MOL0     H87902   4.973   6.048   0.175 -0.4618  0.2289 -1.9227
  666MOL0     H87903   4.992   5.896   0.272 -0.7961  2.1993  0.4236
  666MOL0     H87904   4.809   5.857   0.113 -0.3767 -0.0537 -0.7897
  666MOL0     H87905   4.890   5.953  -0.002 -1.1252  1.5672  1.7833
  666MOL0     H87906   5.008   5.678   0.103  1.4064 -0.7064 -0.9520
  666MOL0     H87907   5.062   5.756  -0.042 -0.1331 -0.4433 -0.7044
  666MOL0     H87908   4.913   5.560  -0.087 -0.1296 -0.5376 -0.2771
  666MOL0     H87909   4.794   5.633   0.022 -0.7627  2.2780 -0.2883
  666MOL0     H87910   4.692   5.860  -0.314  1.7204  1.5788 -0.6302
  666MOL0     H87911   5.367   5.809   0.108  0.3143  1.9613 -3.9815
  666MOL0     H87912   5.567   5.884   0.223  0.7113  0.9800 -1.6200
  667MOL0     O87913  10.997   5.530   8.266  0.3060 -0.6513 -0.7382
  667MOL0     C87914  11.035   5.422   8.231  0.8724 -0.8357  0.0672
  667MOL0     O87915  10.994   5.307   8.284 -0.3617 -0.7462 -0.1349
  667MOL0     C87916  10.881   5.298   8.358 -0.4141  0.0855 -0.1947
  667MOL0     C87917  10.762   5.354   8.330 -0.0750  0.3290 -0.4363
  667MOL0     C87918  10.652   5.335   8.414  0.0097 -0.0207 -1.3232
  667MOL0     C87919  10.651   5.248   8.525  0.5460 -0.3312  0.2747
  667MOL0     O87920  10.544   5.220   8.601  0.0229 -0.8195  0.4092
  667MOL0     C87921  10.422   5.307   8.609  0.7902 -0.2453  0.6657
  667MOL0     C87922  10.299   5.221   8.584 -0.2143  0.9531 -0.3709
  667MOL0     C87923  10.163   5.306   8.602  1.1170  0.7764  0.6247
  667MOL0     C87924  10.035   5.217   8.625  0.6161 -0.6652  0.8874
  667MOL0     C87925   9.910   5.308   8.594  0.4674 -0.9135 -0.7178
  667MOL0     C87926   9.779   5.229   8.606  0.5173 -0.9169 -0.2234
  667MOL0     C87927   9.750   5.174   8.742  0.8303 -0.5213 -0.8177
  667MOL0     C87928   9.701   5.280   8.838 -0.2366 -0.6852  0.8352
  667MOL0     N87929   9.560   5.333   8.824  0.2757  0.2645 -0.0716
  667MOL0     C87930   9.445   5.263   8.811  1.2185  0.6501 -0.0631
  667MOL0     C87931   9.348   5.357   8.792  0.8627  0.0398  0.4157
  667MOL0     C87932   9.208   5.326   8.739 -0.0080 -0.2848 -0.3213
  667MOL0     C87933   9.117   5.450   8.742  0.1368  0.3835  0.2003
  667MOL0     C87934   8.972   5.433   8.776  0.3181 -0.1461 -0.2695
  667MOL0     C87935   8.889   5.331   8.694  0.1848 -0.1227  0.3697
  667MOL0     O87936   8.892   5.375   8.556 -0.8956  0.2155 -0.1048
  667MOL0     C87937   8.819   5.297   8.464 -0.5193  0.4658  0.3608
  667MOL0     C87938   8.690   5.336   8.427  0.2099  0.4791 -0.2976
  667MOL0     C87939   8.615   5.262   8.332 -0.5766  0.1935 -0.5295
  667MOL0     C87940   8.674   5.149   8.276 -0.3382  0.3878 -0.0559
  667MOL0     C87941   8.600   5.083   8.167 -0.2990 -0.7386  0.0734
  667MOL0     O87942   8.674   4.999   8.097 -0.5039  0.6309  0.3107
  667MOL0     C87943   8.622   4.945   7.978  0.1177  0.4103  0.5275
  667MOL0     C87944   8.581   4.805   7.985 -0.1572  0.0532  0.8074
  667MOL0     C87945   8.522   4.747   7.878 -0.3021 -1.1426 -0.7584
  667MOL0     C87946   8.492   4.816   7.762  0.0580  0.3843 -0.2164
  667MOL0     O87947   8.437   4.738   7.661  0.5709 -0.2062  0.0875
  667MOL0     C87948   8.376   4.806   7.552 -0.1517  0.8361 -0.7772
  667MOL0     C87949   8.330   4.706   7.446 -0.0418 -0.0384 -0.4938
  667MOL0     C87950   8.226   4.604   7.512  0.2299  0.6633  0.6223
  667MOL0     C87951   8.098   4.674   7.568 -0.0958 -0.2845 -0.5194
  667MOL0     C87952   7.983   4.580   7.568  0.6101 -0.2393  0.3092
  667MOL0     C87953   7.867   4.656   7.639 -0.3756 -0.2852 -0.0447
  667MOL0     C87954   7.742   4.576   7.634 -0.1499 -0.6581  0.1276
  667MOL0     C87955   7.644   4.643   7.722 -0.8026 -0.3252  0.2274
  667MOL0    Cl87956   7.498   4.527   7.731 -0.1574  0.3225 -0.4083
  667MOL0     C87957   8.534   4.953   7.750 -0.4616  0.3711 -0.0377
  667MOL0     C87958   8.599   5.017   7.857 -0.5031 -0.1832  0.1940
  667MOL0     O87959   8.478   5.113   8.148  0.3295  0.4542  0.0614
  667MOL0     C87960   8.804   5.112   8.306 -0.2435 -0.5301 -0.9053
  667MOL0     C87961   8.876   5.183   8.406  0.4911  0.2348 -0.0855
  667MOL0     N87962   9.402   5.487   8.813  0.1175  0.3083  0.2740
  667MOL0     N87963   9.529   5.466   8.817  0.1601  0.2795 -0.2802
  667MOL0     C87964  10.775   5.191   8.547  0.0185 -0.3749 -1.7441
  667MOL0     C87965  10.882   5.201   8.459  0.9933  0.3203 -0.4823
  667MOL0     C87966  11.141   5.420   8.124 -0.3596 -0.3508 -0.2788
  667MOL0     C87967  11.208   5.306   8.081  0.2943 -0.5355  1.2396
  667MOL0     C87968  11.312   5.312   7.984 -0.3290  0.0243 -0.3162
  667MOL0     C87969  11.351   5.438   7.931  0.7186  0.0754 -0.6062
  667MOL0     O87970  11.453   5.448   7.842  0.4598  0.6737  0.8772
  667MOL0     C87971  11.553   5.347   7.833 -0.0638 -0.0526  0.2913
  667MOL0     C87972  11.663   5.397   7.740 -0.1961 -0.8102 -0.2501
  667MOL0     C87973  11.623   5.456   7.609 -0.0216 -0.0764 -0.3144
  667MOL0     C87974  11.559   5.358   7.507 -0.0251  0.4519 -0.2419
  667MOL0     C87975  11.524   5.432   7.389  0.1555 -0.7158  0.6094
  667MOL0     C87976  11.511   5.484   7.279 -1.2109 -0.3889 -0.2360
  667MOL0     C87977  11.284   5.552   7.976  0.0805 -0.2771  0.3164
  667MOL0     C87978  11.180   5.544   8.072 -0.0625 -0.6337  0.6906
  667MOL0     H87979  10.763   5.424   8.247  2.0244 -1.7406 -2.3199
  667MOL0     H87980  10.563   5.388   8.384 -0.4328  0.2209  0.2887
  667MOL0     H87981  10.425   5.389   8.537  2.8614  1.1242  2.1623
  667MOL0     H87982  10.416   5.343   8.712 -1.1660  3.0849 -0.4540
  667MOL0     H87983  10.305   5.133   8.649  1.7767  0.6332 -0.9253
  667MOL0     H87984  10.310   5.183   8.482  0.4594  0.0628  0.0214
  667MOL0     H87985  10.131   5.372   8.521 -2.5809 -2.2740 -0.6961
  667MOL0     H87986  10.197   5.365   8.687  3.3691  0.0773  0.3014
  667MOL0     H87987  10.023   5.132   8.557 -1.2358  1.4646 -1.6485
  667MOL0     H87988  10.038   5.186   8.730  1.3647 -3.2206  0.1743
  667MOL0     H87989   9.909   5.360   8.498  0.3279  1.0000  0.2720
  667MOL0     H87990   9.908   5.387   8.669  0.5135 -2.0930  0.5683
  667MOL0     H87991   9.786   5.147   8.533 -1.5346 -0.6643 -0.7463
  667MOL0     H87992   9.701   5.299   8.575  0.7116 -0.2717  0.7095
  667MOL0     H87993   9.671   5.098   8.741 -1.3112  1.5719 -3.0388
  667MOL0     H87994   9.840   5.130   8.787  0.2732 -0.1986  0.6314
  667MOL0     H87995   9.772   5.361   8.819  0.9064 -1.7214  0.5086
  667MOL0     H87996   9.715   5.234   8.936  1.5027 -3.4526 -0.5710
  667MOL0     H87997   9.434   5.155   8.809  1.1381  0.6615 -0.8352
  667MOL0     H87998   9.159   5.253   8.804  1.8955  0.8789  2.6355
  667MOL0     H87999   9.226   5.294   8.636  3.7852  3.6902 -1.2264
  667MOL0     H88000   9.130   5.499   8.645 -0.4310  0.6566  0.2565
  667MOL0     H88001   9.156   5.519   8.816  1.3252 -0.1664  0.1150
  667MOL0     H88002   8.970   5.413   8.884  0.0308  1.0485 -0.0419
  667MOL0     H88003   8.916   5.527   8.771  1.2156  0.3399 -1.8137
  667MOL0     H88004   8.788   5.329   8.737  1.1342  0.7308  2.8551
  667MOL0     H88005   8.932   5.230   8.705 -1.1944 -0.6929  0.7721
  667MOL0     H88006   8.638   5.427   8.453 -1.0485  0.0568 -1.2022
  667MOL0     H88007   8.515   5.295   8.308 -0.4685 -0.0235 -1.2958
  667MOL0     H88008   8.591   4.745   8.075  0.7527 -1.2094 -0.1242
  667MOL0     H88009   8.484   4.647   7.892  0.1659 -1.1606  0.4335
  667MOL0     H88010   8.454   4.866   7.504  3.0163 -0.0345  2.7189
  667MOL0     H88011   8.297   4.872   7.587  0.0865  2.0743 -2.4736
  667MOL0     H88012   8.424   4.666   7.409  3.1000  3.1883  3.0718
  667MOL0     H88013   8.282   4.770   7.371 -0.9390 -1.0480 -0.8056
  667MOL0     H88014   8.283   4.555   7.591 -0.6397 -2.5389 -0.6131
  667MOL0     H88015   8.206   4.528   7.436  0.5938  1.5502 -0.3878
  667MOL0     H88016   8.123   4.709   7.669  2.0609 -1.6352 -0.5279
  667MOL0     H88017   8.076   4.759   7.503  2.8554  1.4981  0.6134
  667MOL0     H88018   8.006   4.488   7.622  0.0969 -0.8918 -0.5726
  667MOL0     H88019   7.959   4.555   7.465  4.1119 -1.4089 -0.3717
  667MOL0     H88020   7.847   4.753   7.591 -2.2570 -1.5250 -1.9434
  667MOL0     H88021   7.896   4.683   7.741 -2.7194  0.1096  0.5857
  667MOL0     H88022   7.716   4.567   7.528  0.6685 -4.6403  0.0902
  667MOL0     H88023   7.768   4.483   7.685 -1.1280  0.3437  2.6423
  667MOL0     H88024   7.617   4.740   7.680  1.2831 -0.1404 -0.8083
  667MOL0     H88025   7.688   4.663   7.820 -0.3593 -0.5659  0.0804
  667MOL0     H88026   8.523   5.022   7.667 -2.6310  0.6903  0.4541
  667MOL0     H88027   8.635   5.119   7.852 -2.1371  0.4098 -0.1097
  667MOL0     H88028   8.860   5.036   8.252 -1.1609 -1.6137 -0.3844
  667MOL0     H88029   8.979   5.159   8.429  0.5841  1.1060  0.4673
  667MOL0     H88030  10.783   5.121   8.630 -0.9217  0.0163 -1.3139
  667MOL0     H88031  10.977   5.151   8.481  1.1958  1.0040  0.2395
  667MOL0     H88032  11.177   5.207   8.114 -0.4363 -0.3028  1.2794
  667MOL0     H88033  11.353   5.216   7.956 -0.4622 -0.6548  1.6826
  667MOL0     H88034  11.523   5.253   7.784 -0.2036  0.7157 -1.1711
  667MOL0     H88035  11.600   5.332   7.930  2.6409 -1.1055 -1.0566
  667MOL0     H88036  11.718   5.482   7.780  3.0931 -1.5077 -2.8276
  667MOL0     H88037  11.730   5.314   7.720 -2.2421 -1.9567 -2.9991
  667MOL0     H88038  11.703   5.509   7.556 -0.3546  0.2368 -0.5132
  667MOL0     H88039  11.551   5.537   7.628  1.1817  0.7781  0.7742
  667MOL0     H88040  11.626   5.279   7.472 -1.2641 -0.3990 -0.7643
  667MOL0     H88041  11.462   5.326   7.545  1.0254 -1.4873  0.9588
  667MOL0     H88042  11.483   5.530   7.186  2.2084  1.2096 -0.6240
  667MOL0     H88043  11.332   5.646   7.951  0.5681 -0.2973  1.1605
  667MOL0     H88044  11.143   5.637   8.114  1.6752 -0.2527  1.4800
  668MOL0     O88045   4.559   1.652   6.936 -0.3415 -0.3356  0.0291
  668MOL0     C88046   4.652   1.694   7.001  0.3404 -0.3962 -0.4223
  668MOL0     O88047   4.649   1.721   7.137  0.4537  0.2655 -0.4543
  668MOL0     C88048   4.534   1.712   7.221 -0.3898  0.1086  0.0992
  668MOL0     C88049   4.549   1.655   7.349 -0.3442  0.3886  0.0735
  668MOL0     C88050   4.449   1.652   7.440 -0.7508 -0.3730 -0.5080
  668MOL0     C88051   4.327   1.710   7.413 -0.7042 -0.8559  0.5057
  668MOL0     O88052   4.228   1.707   7.509 -0.0990 -0.2865 -0.2741
  668MOL0     C88053   4.093   1.714   7.473 -0.2431 -0.6519 -0.2262
  668MOL0     C88054   4.007   1.715   7.605 -0.1126 -0.1729  0.6880
  668MOL0     C88055   3.850   1.723   7.577  0.2001  0.8750 -0.1820
  668MOL0     C88056   3.811   1.859   7.530  0.2636  0.8625  0.5563
  668MOL0     C88057   3.655   1.864   7.513  0.8703  0.3516 -0.6000
  668MOL0     C88058   3.577   1.895   7.647  0.2629  0.1137  0.1320
  668MOL0     C88059   3.420   1.892   7.615 -0.3493  0.1617 -0.2559
  668MOL0     C88060   3.359   2.022   7.578  0.1135 -1.3733  0.4619
  668MOL0     N88061   3.218   2.014   7.517 -0.9135 -0.0287  0.5536
  668MOL0     C88062   3.160   2.122   7.464  0.0282 -0.2710 -0.9323
  668MOL0     C88063   3.039   2.077   7.430 -0.3317  0.2386 -0.6540
  668MOL0     C88064   2.940   2.165   7.376  0.8727  0.6771 -0.5316
  668MOL0     C88065   2.815   2.185   7.467 -0.4665  0.3702  0.5991
  668MOL0     C88066   2.820   2.297   7.572  1.2602 -0.4925  0.6862
  668MOL0     C88067   2.680   2.331   7.639  0.6448  0.4998 -0.1233
  668MOL0     O88068   2.581   2.403   7.564 -0.0560  0.4725  0.1967
  668MOL0     C88069   2.462   2.434   7.617 -0.5900 -0.1828 -0.5471
  668MOL0     C88070   2.427   2.419   7.757 -0.3861  0.4772 -0.3412
  668MOL0     C88071   2.299   2.458   7.798  0.1016  0.6135 -0.4261
  668MOL0     C88072   2.207   2.522   7.708  0.1771  0.7344 -0.5047
  668MOL0     C88073   2.073   2.554   7.747  0.1010  0.1048 -0.2515
  668MOL0     O88074   1.971   2.558   7.652 -0.3260 -0.3606  0.3551
  668MOL0     C88075   1.843   2.607   7.662  0.6919 -0.5659  0.0031
  668MOL0     C88076   1.775   2.643   7.776  0.3078 -0.2972 -0.6428
  668MOL0     C88077   1.644   2.689   7.771  0.3511  0.2881  0.7344
  668MOL0     C88078   1.561   2.685   7.652 -0.0811 -0.1975  0.4395
  668MOL0     O88079   1.429   2.712   7.648 -0.3670 -0.7507  0.0444
  668MOL0     C88080   1.364   2.787   7.544 -0.6570 -0.3390 -0.2723
  668MOL0     C88081   1.210   2.795   7.557  0.5748  0.3331 -0.4400
  668MOL0     C88082   1.150   2.858   7.429  0.9324 -0.8271 -0.0149
  668MOL0     C88083   1.001   2.845   7.443 -0.6483 -0.2581 -0.1374
  668MOL0     C88084   0.914   2.950   7.362  0.3170 -0.5897  0.7713
  668MOL0     C88085   0.780   2.875   7.329  0.2866  0.1391 -1.1459
  668MOL0     C88086   0.691   2.964   7.241 -0.4616  0.7463 -0.0682
  668MOL0     C88087   0.557   2.901   7.237  0.1508  0.4326  0.0843
  668MOL0    Cl88088   0.435   3.013   7.165 -0.0073  0.1428 -0.1588
  668MOL0     C88089   1.629   2.649   7.535  0.7483 -0.2171  0.4005
  668MOL0     C88090   1.767   2.618   7.536 -0.2316 -0.6258 -0.0749
  668MOL0     O88091   2.050   2.591   7.862 -0.9866  0.0959  0.1754
  668MOL0     C88092   2.247   2.539   7.576 -0.7287  0.4255 -0.3369
  668MOL0     C88093   2.368   2.491   7.531 -0.0349  0.3426 -0.3068
  668MOL0     N88094   3.022   1.944   7.479 -0.6951 -0.5812  0.5130
  668MOL0     N88095   3.129   1.913   7.530 -0.3900  1.3839  0.0562
  668MOL0     C88096   4.298   1.755   7.283 -0.5444 -0.2141  0.0319
  668MOL0     C88097   4.402   1.748   7.191  0.2335 -0.3491  0.3514
  668MOL0     C88098   4.778   1.720   6.927 -0.0783 -0.8916  0.1641
  668MOL0     C88099   4.895   1.741   7.002  0.0567 -0.3475 -0.7036
  668MOL0     C88100   5.014   1.762   6.939 -0.1337 -0.0082 -0.4408
  668MOL0     C88101   5.025   1.752   6.800  0.3956  0.2635  0.3380
  668MOL0     O88102   5.146   1.764   6.734 -0.6541  0.7622 -0.7335
  668MOL0     C88103   5.268   1.782   6.803 -0.2452 -0.0131  0.4351
  668MOL0     C88104   5.374   1.802   6.694  0.2102  0.7804 -0.7035
  668MOL0     C88105   5.498   1.888   6.737 -0.2999 -0.2746  1.0755
  668MOL0     C88106   5.624   1.865   6.649  0.0950 -0.1644 -0.5365
  668MOL0     C88107   5.688   1.732   6.677  0.1927 -0.3680  0.7448
  668MOL0     C88108   5.743   1.625   6.695  0.4984  1.0338  0.3182
  668MOL0     C88109   4.915   1.722   6.725 -0.4523 -0.2375 -0.3099
  668MOL0     C88110   4.785   1.707   6.784 -0.3780  0.8096  0.5564
  668MOL0     H88111   4.645   1.606   7.363  0.4378  0.8845 -2.8012
  668MOL0     H88112   4.462   1.611   7.540  0.5063 -1.4496 -1.0804
  668MOL0     H88113   4.075   1.638   7.396  1.9486  0.8912 -2.4018
  668MOL0     H88114   4.071   1.805   7.417 -2.7233 -1.5039 -0.7713
  668MOL0     H88115   4.033   1.806   7.660  1.7211 -0.2280 -0.0208
  668MOL0     H88116   4.036   1.630   7.668 -0.2528  0.3350  1.4456
  668MOL0     H88117   3.788   1.687   7.660  2.6782 -3.7667 -0.0146
  668MOL0     H88118   3.831   1.648   7.499  1.3785 -3.2408  3.0979
  668MOL0     H88119   3.848   1.924   7.609  3.8430  0.1032 -0.3163
  668MOL0     H88120   3.861   1.874   7.434 -0.1553 -1.6038 -0.1236
  668MOL0     H88121   3.615   1.768   7.479 -0.7807  1.3114 -1.4849
  668MOL0     H88122   3.645   1.945   7.439  3.1302  1.4709  0.2285
  668MOL0     H88123   3.613   1.990   7.686  1.6141 -1.3099  2.6068
  668MOL0     H88124   3.601   1.818   7.721  1.7667  0.7476  0.3345
  668MOL0     H88125   3.414   1.822   7.531  2.3224  1.1092 -1.3217
  668MOL0     H88126   3.374   1.856   7.708  3.4742  1.7069  2.4609
  668MOL0     H88127   3.423   2.078   7.509  2.1660 -2.4275  1.4180
  668MOL0     H88128   3.350   2.086   7.667  3.6353  0.0143  0.0085
  668MOL0     H88129   3.202   2.222   7.458  0.8125 -0.5762 -0.6586
  668MOL0     H88130   2.906   2.124   7.280  0.6282 -1.3875  0.3860
  668MOL0     H88131   2.981   2.266   7.373  1.3119  0.5077 -0.3346
  668MOL0     H88132   2.789   2.087   7.507  1.7655 -1.3805 -1.9287
  668MOL0     H88133   2.727   2.209   7.408 -1.3806 -0.2962  1.6674
  668MOL0     H88134   2.887   2.273   7.655  0.4892 -0.3766  1.3565
  668MOL0     H88135   2.847   2.392   7.526 -0.0167  0.0997  1.0977
  668MOL0     H88136   2.719   2.391   7.722 -1.4576  2.4402 -0.4242
  668MOL0     H88137   2.631   2.239   7.672 -0.5186  1.5196  1.1355
  668MOL0     H88138   2.486   2.363   7.828 -3.7334 -0.7551  1.6959
  668MOL0     H88139   2.262   2.433   7.897  3.0457  1.0020  0.8743
  668MOL0     H88140   1.828   2.650   7.870  0.5529  2.3768 -0.9215
  668MOL0     H88141   1.581   2.720   7.855 -0.2209  0.4277  0.2622
  668MOL0     H88142   1.373   2.736   7.447  0.0060  0.3860 -0.6117
  668MOL0     H88143   1.402   2.890   7.543  2.9659 -1.5113  0.8077
  668MOL0     H88144   1.194   2.849   7.651 -0.8657  0.2854 -0.6407
  668MOL0     H88145   1.172   2.693   7.572 -0.1352  0.8114  1.2200
  668MOL0     H88146   1.182   2.825   7.330 -1.4239  2.2992 -1.9821
  668MOL0     H88147   1.190   2.959   7.438  1.0005 -0.9732  1.8600
  668MOL0     H88148   0.977   2.746   7.403  0.3638  0.0154 -1.5191
  668MOL0     H88149   0.978   2.849   7.550 -0.4607 -2.2099  0.0145
  668MOL0     H88150   0.966   2.981   7.271  0.2677 -2.5485  0.0349
  668MOL0     H88151   0.915   3.043   7.419 -1.7411 -0.3816  0.5427
  668MOL0     H88152   0.722   2.862   7.420  0.1984  3.2410 -0.6370
  668MOL0     H88153   0.800   2.781   7.277 -2.3749  0.2120 -2.4820
  668MOL0     H88154   0.683   3.064   7.284  0.3295 -0.1616  2.3245
  668MOL0     H88155   0.730   2.964   7.139 -1.8268 -1.2332 -0.6494
  668MOL0     H88156   0.519   2.873   7.335 -2.2525 -0.7067 -1.0819
  668MOL0     H88157   0.546   2.810   7.176 -2.5422 -0.8846  2.3072
  668MOL0     H88158   1.580   2.653   7.438  0.3056 -1.3776  0.5474
  668MOL0     H88159   1.808   2.570   7.448 -3.8635 -1.7627 -1.3428
  668MOL0     H88160   2.175   2.584   7.507 -1.0650  0.6139  0.1303
  668MOL0     H88161   2.403   2.498   7.429  0.1432 -0.4459 -0.3088
  668MOL0     H88162   4.197   1.789   7.262  0.4397  3.6651  0.7791
  668MOL0     H88163   4.388   1.793   7.093  1.7846  1.1750  0.7618
  668MOL0     H88164   4.884   1.753   7.109 -0.9896  2.0667 -1.0144
  668MOL0     H88165   5.099   1.769   7.007 -2.1898  0.3641  2.2372
  668MOL0     H88166   5.291   1.686   6.851  0.1488 -0.0584  0.1653
  668MOL0     H88167   5.255   1.860   6.879 -0.9389  1.2803 -0.9759
  668MOL0     H88168   5.398   1.698   6.670 -0.9762 -0.0459  1.4587
  668MOL0     H88169   5.330   1.847   6.604 -1.5408 -0.3580 -0.4493
  668MOL0     H88170   5.532   1.865   6.839 -0.5099 -1.5621  0.8734
  668MOL0     H88171   5.467   1.992   6.725  1.4800  0.2611  0.7187
  668MOL0     H88172   5.597   1.858   6.543 -0.2621 -2.4170 -0.3353
  668MOL0     H88173   5.705   1.939   6.654  0.6368 -0.7405 -0.6060
  668MOL0     H88174   5.786   1.528   6.711 -0.2491  0.6874  0.2975
  668MOL0     H88175   4.935   1.711   6.619  1.9679  2.9756 -0.3120
  668MOL0     H88176   4.694   1.683   6.730  0.1795  1.9961 -0.9866
  669MOL0     O88177   4.980   8.617   3.887  0.1241 -0.2649 -0.5644
  669MOL0     C88178   4.918   8.725   3.864 -0.4300  0.6374  0.8635
  669MOL0     O88179   4.803   8.734   3.793  0.3498  0.3714  0.7408
  669MOL0     C88180   4.741   8.611   3.755 -0.1636 -0.3992 -0.0507
  669MOL0     C88181   4.665   8.550   3.849  0.3804  0.2965  1.2606
  669MOL0     C88182   4.594   8.438   3.814  0.2714 -0.1919  0.2413
  669MOL0     C88183   4.600   8.384   3.685 -0.1114  0.4374  0.4624
  669MOL0     O88184   4.544   8.262   3.666  0.3672  0.7196 -0.2906
  669MOL0     C88185   4.633   8.151   3.653 -0.9453 -0.0217 -0.1994
  669MOL0     C88186   4.573   8.014   3.680  0.4487 -0.1418 -0.2108
  669MOL0     C88187   4.454   7.998   3.580 -0.0240 -0.1068 -0.8009
  669MOL0     C88188   4.381   7.869   3.621  0.6469 -0.1401 -0.4719
  669MOL0     C88189   4.233   7.855   3.577  0.0114  0.1916 -0.0905
  669MOL0     C88190   4.223   7.865   3.418  0.3724 -0.2056  0.3564
  669MOL0     C88191   4.082   7.861   3.366  0.2750 -0.0741  0.7096
  669MOL0     C88192   4.003   7.987   3.395  0.5073 -0.1206 -0.0566
  669MOL0     N88193   3.890   7.978   3.305 -0.4569  0.6001 -0.6508
  669MOL0     C88194   3.794   7.879   3.296 -0.3186  0.4313  0.6723
  669MOL0     C88195   3.695   7.935   3.224 -0.2626  0.0369 -1.4438
  669MOL0     C88196   3.565   7.859   3.205  0.1197 -0.5020  0.1992
  669MOL0     C88197   3.528   7.851   3.054 -0.6751 -0.1269  0.0898
  669MOL0     C88198   3.458   7.978   3.015 -0.4958 -0.1845  0.8135
  669MOL0     C88199   3.330   8.022   3.104 -0.8438 -0.6651  0.0101
  669MOL0     O88200   3.248   7.910   3.129 -0.1543 -0.2860 -0.2719
  669MOL0     C88201   3.113   7.910   3.106  0.1018 -0.0671  0.4570
  669MOL0     C88202   3.036   8.022   3.042  0.2760  0.0650  0.2524
  669MOL0     C88203   2.901   8.014   3.002 -0.0907  0.1059  0.1469
  669MOL0     C88204   2.835   7.894   3.032 -0.6930 -1.1135 -0.1535
  669MOL0     C88205   2.686   7.881   3.021 -0.3545  0.4256  0.2425
  669MOL0     O88206   2.624   7.762   3.056 -0.5363  0.1925 -0.4090
  669MOL0     C88207   2.501   7.734   3.008  0.4676  0.2011  0.3090
  669MOL0     C88208   2.407   7.693   3.101 -0.5967  0.6944 -0.1608
  669MOL0     C88209   2.285   7.643   3.060 -0.5396 -0.7419 -0.4592
  669MOL0     C88210   2.244   7.636   2.920 -0.0812 -0.4282 -0.7385
  669MOL0     O88211   2.116   7.599   2.872 -0.0720 -1.2129 -0.0886
  669MOL0     C88212   2.024   7.534   2.960 -0.0529 -0.3177  0.0673
  669MOL0     C88213   1.907   7.466   2.894 -0.5574 -0.7291  0.3399
  669MOL0     C88214   1.830   7.380   3.000  0.1189  0.0570  0.2755
  669MOL0     C88215   1.759   7.466   3.098  0.2257 -0.5187 -0.4333
  669MOL0     C88216   1.729   7.384   3.220  0.1177  0.0976 -0.6746
  669MOL0     C88217   1.634   7.455   3.319 -0.0110 -0.3661  0.1447
  669MOL0     C88218   1.704   7.501   3.454  0.0316  0.1203  0.2654
  669MOL0     C88219   1.786   7.628   3.437 -1.0947 -0.6684 -0.0564
  669MOL0    Cl88220   1.679   7.771   3.446 -0.3677 -0.2924 -0.3153
  669MOL0     C88221   2.332   7.684   2.826  0.7580  0.5525 -1.1994
  669MOL0     C88222   2.461   7.727   2.874 -0.2136  0.2228  0.1974
  669MOL0     O88223   2.630   7.975   2.972 -0.1207  0.2242 -0.5585
  669MOL0     C88224   2.904   7.787   3.091  0.7802  0.1790  0.2770
  669MOL0     C88225   3.036   7.796   3.126  0.0565 -0.0135 -0.5503
  669MOL0     N88226   3.730   8.062   3.187  0.0705  0.5483  1.1558
  669MOL0     N88227   3.849   8.084   3.233 -0.5197  0.1027  0.4796
  669MOL0     C88228   4.676   8.452   3.587  0.0847  0.1053 -0.0624
  669MOL0     C88229   4.756   8.563   3.629  0.2343  0.6104  0.4482
  669MOL0     C88230   4.985   8.848   3.907  1.0262 -0.5102 -0.2108
  669MOL0     C88231   5.104   8.850   3.987 -0.0676 -0.7300 -0.1943
  669MOL0     C88232   5.157   8.978   4.028  0.1230  0.0948 -0.3332
  669MOL0     C88233   5.086   9.096   4.003  0.0473  1.1937  0.0315
  669MOL0     O88234   5.129   9.224   4.020  0.1931 -0.0742  0.3682
  669MOL0     C88235   5.262   9.241   4.072 -0.1924  0.0140 -0.2962
  669MOL0     C88236   5.298   9.392   4.107  0.1300  0.4120  0.4714
  669MOL0     C88237   5.428   9.409   4.196  0.2979  0.4718 -0.0448
  669MOL0     C88238   5.549   9.358   4.126  0.5123 -0.0015  0.4063
  669MOL0     C88239   5.653   9.312   4.224  0.2153  0.4760  0.7312
  669MOL0     C88240   5.742   9.283   4.304 -0.0565 -0.8032  0.6062
  669MOL0     C88241   4.962   9.091   3.941  0.4929  0.1048  0.6997
  669MOL0     C88242   4.910   8.973   3.888 -0.5769  0.5924  0.2380
  669MOL0     H88243   4.646   8.587   3.949 -1.5719  0.3955  0.8741
  669MOL0     H88244   4.532   8.396   3.893 -3.2428  0.5347 -1.8676
  669MOL0     H88245   4.715   8.157   3.725 -1.0490 -1.0232  0.0131
  669MOL0     H88246   4.664   8.153   3.548 -1.8034 -1.2430 -0.5024
  669MOL0     H88247   4.548   8.020   3.786 -0.2142  0.7595 -0.4102
  669MOL0     H88248   4.648   7.934   3.672  2.7168  1.6140  1.9365
  669MOL0     H88249   4.484   7.993   3.475 -0.3719 -3.1226 -0.8474
  669MOL0     H88250   4.381   8.078   3.595 -0.5225 -0.5043 -1.0936
  669MOL0     H88251   4.442   7.786   3.585  1.8694  1.2558 -1.7508
  669MOL0     H88252   4.379   7.871   3.731 -1.2437  0.5693 -0.4701
  669MOL0     H88253   4.170   7.933   3.622 -0.3107 -0.1953  0.1319
  669MOL0     H88254   4.194   7.758   3.606 -0.9344 -0.0273 -1.9341
  669MOL0     H88255   4.268   7.779   3.367 -1.7380  0.0559 -2.2393
  669MOL0     H88256   4.279   7.951   3.381  0.1748 -0.3173 -0.2155
  669MOL0     H88257   4.091   7.844   3.258 -0.2588 -0.2182  0.6874
  669MOL0     H88258   4.038   7.769   3.404  0.5912 -1.0386 -1.1243
  669MOL0     H88259   4.067   8.075   3.400  0.1947  0.1398 -0.5728
  669MOL0     H88260   3.965   7.979   3.497  1.3259  0.7216  0.3273
  669MOL0     H88261   3.797   7.778   3.334 -0.7936  0.1175 -0.1109
  669MOL0     H88262   3.491   7.903   3.271  1.0536  1.5000 -0.0258
  669MOL0     H88263   3.574   7.756   3.240  0.9213 -0.7459 -0.6764
  669MOL0     H88264   3.456   7.771   3.034  0.1467 -0.4621 -1.6202
  669MOL0     H88265   3.615   7.840   2.990  0.4806  0.2768  1.5486
  669MOL0     H88266   3.537   8.053   3.024  0.6512 -1.4433  1.5056
  669MOL0     H88267   3.422   7.970   2.912  0.0910 -2.4154  0.7422
  669MOL0     H88268   3.282   8.102   3.048 -0.3766 -0.0528  0.4679
  669MOL0     H88269   3.362   8.065   3.199 -2.0274  0.2284  0.0286
  669MOL0     H88270   3.086   8.116   3.023  0.4529 -0.5065 -2.4364
  669MOL0     H88271   2.858   8.096   2.944  0.7546  0.3106 -0.2124
  669MOL0     H88272   2.432   7.697   3.207  1.8931 -0.3990 -0.6500
  669MOL0     H88273   2.206   7.612   3.127 -1.2200 -0.1197 -0.9618
  669MOL0     H88274   1.986   7.606   3.033 -4.4048 -1.0864 -1.1384
  669MOL0     H88275   2.075   7.456   3.017  1.2242 -0.2731 -0.9603
  669MOL0     H88276   1.944   7.393   2.821 -2.0811 -0.3685 -0.8310
  669MOL0     H88277   1.837   7.537   2.849  0.6134  1.3402  1.6179
  669MOL0     H88278   1.901   7.314   3.050 -1.8530 -2.3913  0.0029
  669MOL0     H88279   1.749   7.325   2.951 -1.7222  0.7729  2.3494
  669MOL0     H88280   1.826   7.546   3.134 -2.5937  0.6689  2.6869
  669MOL0     H88281   1.674   7.518   3.053  0.5051  1.3628  1.0484
  669MOL0     H88282   1.824   7.356   3.266 -0.8922 -2.3545  0.1488
  669MOL0     H88283   1.675   7.293   3.191 -0.6471  0.4941 -0.5110
  669MOL0     H88284   1.560   7.382   3.354 -3.4711  2.5466 -0.4603
  669MOL0     H88285   1.572   7.536   3.280  1.2148  0.9858  0.8926
  669MOL0     H88286   1.633   7.516   3.535 -0.3935 -0.6720  0.0589
  669MOL0     H88287   1.762   7.413   3.485 -1.3463 -1.5454 -1.6026
  669MOL0     H88288   1.831   7.620   3.337  1.1028  1.0312  0.7068
  669MOL0     H88289   1.865   7.643   3.511  0.5451  0.3167 -1.8963
  669MOL0     H88290   2.299   7.678   2.723 -1.4754 -1.3112 -0.4694
  669MOL0     H88291   2.544   7.749   2.807 -0.3203 -0.8379 -0.3052
  669MOL0     H88292   2.851   7.693   3.107 -0.3295  0.5530 -0.9624
  669MOL0     H88293   3.088   7.716   3.177  2.5841  1.9348  0.1442
  669MOL0     H88294   4.674   8.420   3.483 -1.3172 -0.8108  0.2294
  669MOL0     H88295   4.817   8.618   3.558 -0.1372  3.6673  2.3151
  669MOL0     H88296   5.158   8.762   4.020  1.1097  0.1012  0.1777
  669MOL0     H88297   5.257   8.982   4.070  0.6887  4.4214 -1.6394
  669MOL0     H88298   5.343   9.197   4.012 -0.3657  0.6083 -0.9775
  669MOL0     H88299   5.270   9.192   4.169 -1.2334 -0.3011 -0.3640
  669MOL0     H88300   5.327   9.438   4.012  0.0258 -0.8546 -0.1948
  669MOL0     H88301   5.213   9.441   4.155  0.5911 -1.6721  3.7254
  669MOL0     H88302   5.412   9.343   4.281 -1.0656 -0.8417 -1.2670
  669MOL0     H88303   5.453   9.512   4.222 -0.7648  1.4588 -2.5591
  669MOL0     H88304   5.523   9.280   4.054 -3.0110  1.7083 -0.3727
  669MOL0     H88305   5.594   9.437   4.064  2.4310 -0.9349  0.5256
  669MOL0     H88306   5.818   9.267   4.378  0.4313  4.5354  1.7208
  669MOL0     H88307   4.912   9.181   3.907  1.4309 -0.5045 -2.6422
  669MOL0     H88308   4.823   8.962   3.825 -0.4939 -1.5023  0.4122
  670MOL0     O88309   4.172   8.766   5.566 -1.1613  0.3434  0.3895
  670MOL0     C88310   4.164   8.808   5.455  0.2288 -0.2803  0.5808
  670MOL0     O88311   4.046   8.833   5.389 -0.1239  0.1684 -0.6487
  670MOL0     C88312   3.925   8.807   5.456 -0.2189  0.0749  0.6562
  670MOL0     C88313   3.837   8.713   5.411  0.2570  0.2964  0.2298
  670MOL0     C88314   3.712   8.698   5.464 -0.8726 -0.7751 -0.8263
  670MOL0     C88315   3.675   8.773   5.578  0.2078  0.0245 -0.9167
  670MOL0     O88316   3.550   8.752   5.634 -0.2179 -0.0992  0.0475
  670MOL0     C88317   3.456   8.657   5.589  0.6207  0.4407  0.2655
  670MOL0     C88318   3.325   8.665   5.666 -0.0966  0.3064 -0.5898
  670MOL0     C88319   3.252   8.799   5.659 -0.1038  0.5366  0.5080
  670MOL0     C88320   3.126   8.779   5.751 -0.9949  0.2816 -0.0831
  670MOL0     C88321   3.157   8.813   5.893  0.4783 -0.1133  0.0262
  670MOL0     C88322   3.038   8.779   5.986  0.8840 -0.3881  0.1179
  670MOL0     C88323   2.913   8.863   5.949  0.4938  0.4947  0.1604
  670MOL0     C88324   2.800   8.785   5.887  0.3192  1.2560  1.2609
  670MOL0     N88325   2.729   8.858   5.780 -0.1114 -0.2558 -0.1163
  670MOL0     C88326   2.639   8.956   5.814 -0.7944 -0.5775  0.1993
  670MOL0     C88327   2.563   8.965   5.698  0.1739  0.3055 -0.1123
  670MOL0     C88328   2.439   9.052   5.691 -0.1053  0.3383  0.5539
  670MOL0     C88329   2.476   9.193   5.661 -1.4818  0.6461 -0.0409
  670MOL0     C88330   2.358   9.296   5.664  0.3260  0.5392 -0.5623
  670MOL0     C88331   2.231   9.249   5.597  0.0380  0.2340  0.1734
  670MOL0     O88332   2.140   9.363   5.599 -0.7764 -0.0922 -0.7443
  670MOL0     C88333   2.053   9.375   5.706  0.0978  0.1973 -0.3781
  670MOL0     C88334   2.053   9.329   5.837 -0.3494 -0.6462 -0.4326
  670MOL0     C88335   1.955   9.363   5.925 -0.3006  0.0614 -0.4820
  670MOL0     C88336   1.835   9.410   5.876 -0.3276  0.1811 -0.0478
  670MOL0     C88337   1.712   9.421   5.949 -0.4536  0.0961 -0.2568
  670MOL0     O88338   1.599   9.424   5.873 -0.6244 -0.1427  0.5121
  670MOL0     C88339   1.479   9.437   5.932  0.7530  1.0692 -0.4168
  670MOL0     C88340   1.408   9.322   5.975  0.0414 -0.2979  0.1306
  670MOL0     C88341   1.286   9.341   6.038 -0.0150 -0.0163 -0.5792
  670MOL0     C88342   1.227   9.467   6.068 -0.4338 -0.5383 -0.1377
  670MOL0     O88343   1.115   9.476   6.149 -0.2311 -0.2341 -0.8348
  670MOL0     C88344   1.045   9.604   6.160  0.1992 -0.0419  0.4423
  670MOL0     C88345   0.979   9.645   6.025  0.4021  0.7415 -0.4248
  670MOL0     C88346   0.893   9.768   6.037  0.2045  0.3887  0.2085
  670MOL0     C88347   0.839   9.795   5.899 -0.0004  0.7004 -0.9063
  670MOL0     C88348   0.740   9.910   5.899  0.1972  0.4123  0.0378
  670MOL0     C88349   0.628   9.901   6.006  1.0754  0.2031  0.2258
  670MOL0     C88350   0.508  10.007   5.971 -0.3940 -0.5417 -0.0536
  670MOL0     C88351   0.420   9.970   5.852  0.3956 -0.0400  1.3594
  670MOL0    Cl88352   0.282  10.084   5.812 -0.4590  0.2204  0.6094
  670MOL0     C88353   1.308   9.578   6.022 -0.2107 -0.4058 -0.7099
  670MOL0     C88354   1.422   9.562   5.953  0.1561 -0.2237  0.5234
  670MOL0     O88355   1.714   9.442   6.070  0.5234  0.3032 -0.2205
  670MOL0     C88356   1.830   9.454   5.741 -0.3437 -0.5881 -1.2207
  670MOL0     C88357   1.949   9.455   5.671  0.4982  0.3305  0.5470
  670MOL0     N88358   2.611   8.880   5.607 -1.2519  0.0055 -0.3333
  670MOL0     N88359   2.709   8.813   5.653 -0.8980 -0.2491 -0.0474
  670MOL0     C88360   3.774   8.851   5.637 -0.2287 -0.0680 -0.2580
  670MOL0     C88361   3.897   8.871   5.576  0.0862  1.0992 -0.0881
  670MOL0     C88362   4.281   8.834   5.373 -0.0169  0.4791  0.3768
  670MOL0     C88363   4.272   8.914   5.263 -1.1624 -0.3416  0.1947
  670MOL0     C88364   4.383   8.948   5.190 -0.1443  0.3438  0.3762
  670MOL0     C88365   4.515   8.904   5.217  0.2004  0.6380 -0.8840
  670MOL0     O88366   4.620   8.960   5.146  0.6706 -0.0807 -0.3963
  670MOL0     C88367   4.757   8.930   5.195 -1.6056  0.1924  0.6199
  670MOL0     C88368   4.868   8.977   5.094 -0.7537 -0.3060 -0.0313
  670MOL0     C88369   4.848   8.923   4.944  0.2807 -0.4141  0.1385
  670MOL0     C88370   4.962   8.969   4.851 -0.7739  0.6195  0.0468
  670MOL0     C88371   5.092   8.942   4.910 -0.3761 -0.0891  0.0024
  670MOL0     C88372   5.204   8.928   4.952 -0.2019  0.0456  0.0943
  670MOL0     C88373   4.525   8.819   5.333 -0.0849 -0.6798 -0.1591
  670MOL0     C88374   4.408   8.792   5.412  0.8472  0.0901  0.0561
  670MOL0     H88375   3.859   8.644   5.330  0.1317 -1.0600  1.3141
  670MOL0     H88376   3.639   8.638   5.411 -0.6020 -0.3708 -1.6952
  670MOL0     H88377   3.496   8.558   5.609 -2.2056 -0.7243  0.6905
  670MOL0     H88378   3.439   8.657   5.481  3.4025 -0.0401 -0.2444
  670MOL0     H88379   3.355   8.639   5.768 -0.6575  0.0685 -0.4798
  670MOL0     H88380   3.264   8.585   5.625 -0.2265 -0.1649  0.4785
  670MOL0     H88381   3.220   8.798   5.554  1.2676 -1.8856  0.0272
  670MOL0     H88382   3.313   8.889   5.666  3.4381 -1.6367  0.0083
  670MOL0     H88383   3.048   8.845   5.710  0.5633  4.2812  2.7013
  670MOL0     H88384   3.083   8.680   5.740 -1.4862  0.3538  1.1019
  670MOL0     H88385   3.197   8.914   5.905  1.3669 -0.3868 -0.5280
  670MOL0     H88386   3.238   8.752   5.934  0.2020 -0.1336  0.5440
  670MOL0     H88387   3.080   8.809   6.082 -0.1731  0.9542  0.1800
  670MOL0     H88388   3.007   8.674   5.999 -2.2634  0.2391 -1.2567
  670MOL0     H88389   2.865   8.904   6.038 -1.2892  1.4516 -1.1805
  670MOL0     H88390   2.942   8.939   5.876  0.3873  0.2318 -0.1576
  670MOL0     H88391   2.738   8.744   5.967 -0.3811  0.3698  0.2901
  670MOL0     H88392   2.842   8.696   5.839 -3.8138  0.1939 -0.8903
  670MOL0     H88393   2.604   8.994   5.910 -4.7797  1.4769 -1.8276
  670MOL0     H88394   2.378   9.042   5.781  1.4427 -2.7699  1.4250
  670MOL0     H88395   2.382   9.023   5.602  0.7258 -0.2603  0.1933
  670MOL0     H88396   2.520   9.202   5.561 -2.8345  3.7447 -0.4667
  670MOL0     H88397   2.549   9.231   5.734 -0.6626 -1.2388  0.1819
  670MOL0     H88398   2.340   9.309   5.771 -1.3241  2.1930 -0.9855
  670MOL0     H88399   2.390   9.392   5.622  0.2273  1.0376  0.4596
  670MOL0     H88400   2.193   9.161   5.648  0.2112  0.6209  0.9882
  670MOL0     H88401   2.240   9.228   5.490  0.0517  2.7660 -0.3815
  670MOL0     H88402   2.138   9.270   5.873 -0.6553 -0.1418  1.1816
  670MOL0     H88403   1.948   9.339   6.030 -0.5019 -0.4089 -0.6003
  670MOL0     H88404   1.450   9.225   5.950  2.2373  0.8304 -0.9105
  670MOL0     H88405   1.229   9.256   6.075 -0.0230  0.7084  1.1476
  670MOL0     H88406   1.115   9.677   6.202 -1.5215  0.4439  2.6988
  670MOL0     H88407   0.967   9.585   6.235 -0.7376 -0.1350 -0.5318
  670MOL0     H88408   0.914   9.561   5.996  2.0476  0.2658 -3.1527
  670MOL0     H88409   1.054   9.661   5.947  0.5807  2.2411  0.0299
  670MOL0     H88410   0.960   9.846   6.074  3.4866 -1.1193 -2.0027
  670MOL0     H88411   0.819   9.738   6.111 -1.5791  0.3782 -1.4912
  670MOL0     H88412   0.918   9.825   5.830 -1.2776  2.4048 -1.6875
  670MOL0     H88413   0.789   9.707   5.855 -2.5963  0.9035  1.3237
  670MOL0     H88414   0.690   9.921   5.802 -0.2380  1.1466  0.3387
  670MOL0     H88415   0.804   9.997   5.913  0.7856  0.0061 -0.1281
  670MOL0     H88416   0.669   9.925   6.105 -0.6821 -0.4161  1.1540
  670MOL0     H88417   0.584   9.800   6.008  0.4774  0.3318 -2.7642
  670MOL0     H88418   0.441  10.033   6.054  0.7524  0.0594  0.7080
  670MOL0     H88419   0.558  10.101   5.947 -1.0496 -0.3080 -0.5463
  670MOL0     H88420   0.372   9.873   5.870  0.8691 -0.8379 -1.2447
  670MOL0     H88421   0.478   9.953   5.760 -0.6805 -0.6641  0.7692
  670MOL0     H88422   1.274   9.678   6.048  1.4304 -0.0365  0.1402
  670MOL0     H88423   1.487   9.647   5.934 -2.2487  1.8103  0.8767
  670MOL0     H88424   1.740   9.502   5.703 -0.0159  1.6982  0.6661
  670MOL0     H88425   1.950   9.502   5.573  1.0700  0.0738  0.4256
  670MOL0     H88426   3.755   8.891   5.736 -0.1485 -1.2636  0.2573
  670MOL0     H88427   3.969   8.940   5.619 -1.1981  1.5804  1.3598
  670MOL0     H88428   4.178   8.953   5.224 -2.0330 -0.3454  2.1543
  670MOL0     H88429   4.360   9.019   5.112  0.6107  2.9990  2.4173
  670MOL0     H88430   4.775   8.823   5.211 -0.0488  0.5402  1.3840
  670MOL0     H88431   4.773   8.979   5.291 -0.9075  3.6049 -1.0521
  670MOL0     H88432   4.860   9.085   5.073 -2.2198 -1.0544 -4.3296
  670MOL0     H88433   4.963   8.941   5.134 -1.5705 -2.0695  0.3917
  670MOL0     H88434   4.752   8.952   4.900 -0.1831 -0.8571  0.8331
  670MOL0     H88435   4.849   8.814   4.944  1.5544 -0.4273 -0.8661
  670MOL0     H88436   4.963   8.928   4.749  1.5122 -0.0721  0.2874
  670MOL0     H88437   4.953   9.077   4.839 -2.5747  0.6053  0.9245
  670MOL0     H88438   5.303   8.916   4.990  0.0721 -2.4148 -1.1622
  670MOL0     H88439   4.626   8.796   5.363 -0.0344  0.2763  0.4292
  670MOL0     H88440   4.408   8.717   5.491  1.9999 -0.0839 -0.0935
  671MOL0     O88441   6.848  10.940   7.811 -0.2289 -0.6813  0.1032
  671MOL0     C88442   6.805  11.047   7.771  0.5215  0.1847  0.6436
  671MOL0     O88443   6.675  11.093   7.774  0.5306  1.2655  0.0062
  671MOL0     C88444   6.564  11.023   7.817 -0.5749 -0.4838  0.8124
  671MOL0     C88445   6.554  10.901   7.886  0.0109 -0.6419  0.3811
  671MOL0     C88446   6.437  10.844   7.919  0.0109 -0.4330  0.4324
  671MOL0     C88447   6.312  10.908   7.892 -0.0093 -0.4591  0.0754
  671MOL0     O88448   6.192  10.841   7.910 -0.0355  0.6258  0.3484
  671MOL0     C88449   6.144  10.804   8.039 -0.2260 -0.0664 -0.3408
  671MOL0     C88450   6.124  10.651   8.035  0.4594 -0.1411  0.0756
  671MOL0     C88451   6.030  10.595   7.922  0.2861  0.1683 -0.5633
  671MOL0     C88452   5.896  10.664   7.920 -0.0722  0.6639  0.5807
  671MOL0     C88453   5.817  10.644   7.787  0.2218 -0.4517 -0.0517
  671MOL0     C88454   5.770  10.497   7.759  0.1847 -0.4394 -0.0983
  671MOL0     C88455   5.767  10.464   7.612  0.6541 -0.7296 -0.2424
  671MOL0     C88456   5.694  10.574   7.521 -0.2794  0.3791 -0.3579
  671MOL0     N88457   5.559  10.600   7.578  0.3151  0.4732  0.2005
  671MOL0     C88458   5.476  10.498   7.614 -0.1850 -0.4657 -0.3095
  671MOL0     C88459   5.356  10.554   7.621  0.3110  0.4499  0.0804
  671MOL0     C88460   5.239  10.486   7.682 -0.8338 -0.5863 -0.0485
  671MOL0     C88461   5.112  10.517   7.597  0.2132  0.0665 -1.2580
  671MOL0     C88462   4.997  10.443   7.656 -0.3813  0.5161 -1.2923
  671MOL0     C88463   4.863  10.484   7.586  0.3664 -0.8609 -0.2270
  671MOL0     O88464   4.770  10.395   7.648 -0.4063  0.4768  0.1101
  671MOL0     C88465   4.650  10.363   7.584 -0.8531  0.1425 -0.2424
  671MOL0     C88466   4.590  10.251   7.636 -0.1939  0.3449  0.2040
  671MOL0     C88467   4.458  10.226   7.606  0.8672  0.1458 -0.4953
  671MOL0     C88468   4.390  10.304   7.509  0.2031 -0.8335  0.3974
  671MOL0     C88469   4.251  10.281   7.475 -0.1725  0.9332  0.4768
  671MOL0     O88470   4.188  10.184   7.557  0.0589  0.1099  0.9254
  671MOL0     C88471   4.053  10.182   7.543 -0.1033  0.1523 -0.6090
  671MOL0     C88472   3.985  10.176   7.421 -0.0220  0.5463 -0.0632
  671MOL0     C88473   3.849  10.166   7.417  0.1143  0.1855 -0.4875
  671MOL0     C88474   3.766  10.164   7.536  0.4971  0.1491  0.3416
  671MOL0     O88475   3.630  10.165   7.525  0.5459 -0.1603  0.5345
  671MOL0     C88476   3.560  10.104   7.640 -0.9027 -0.0428  0.1479
  671MOL0     C88477   3.455  10.008   7.582  0.3006  0.8306 -0.0082
  671MOL0     C88478   3.361   9.960   7.690  0.0082  0.7811  0.3863
  671MOL0     C88479   3.248   9.860   7.641 -0.8088 -0.1894 -0.6197
  671MOL0     C88480   3.152   9.836   7.751 -0.1294 -0.3604 -0.1123
  671MOL0     C88481   3.050   9.729   7.706  0.6966 -0.2371 -0.9644
  671MOL0     C88482   2.959   9.687   7.827 -0.1874  0.1312  0.0242
  671MOL0     C88483   2.866   9.563   7.790 -0.4395  0.1682 -0.4718
  671MOL0    Cl88484   2.945   9.420   7.734 -0.0996  0.3738  0.2423
  671MOL0     C88485   3.838  10.180   7.658  0.3904 -0.3471  0.4103
  671MOL0     C88486   3.975  10.194   7.664 -0.3658  0.3493 -0.5201
  671MOL0     O88487   4.199  10.350   7.387 -0.9086 -0.3118 -0.2499
  671MOL0     C88488   4.460  10.403   7.445 -0.1954  0.4578  0.2975
  671MOL0     C88489   4.587  10.435   7.485 -1.0411 -0.3421  0.1846
  671MOL0     N88490   5.369  10.683   7.581 -0.6170  0.5339 -0.4835
  671MOL0     N88491   5.489  10.712   7.549  0.0408 -0.3701  0.2522
  671MOL0     C88492   6.314  11.026   7.821  0.0866  0.2297 -0.2954
  671MOL0     C88493   6.443  11.084   7.785  0.3564 -0.1314  0.8100
  671MOL0     C88494   6.911  11.132   7.691 -0.3742  0.7095 -0.4462
  671MOL0     C88495   6.884  11.265   7.646  0.2369  0.0381 -0.4419
  671MOL0     C88496   6.980  11.339   7.574  0.8934 -0.5195 -0.2221
  671MOL0     C88497   7.105  11.280   7.560 -0.3378  0.1790 -0.5242
  671MOL0     O88498   7.218  11.346   7.511 -0.2017 -0.4107  0.7340
  671MOL0     C88499   7.183  11.434   7.393 -0.2007  0.2244  0.0138
  671MOL0     C88500   7.301  11.523   7.352 -0.0160 -0.1475  0.6350
  671MOL0     C88501   7.270  11.584   7.210  0.2239  0.4424  0.1537
  671MOL0     C88502   7.383  11.670   7.166  0.4522 -0.2686 -0.6849
  671MOL0     C88503   7.494  11.598   7.095  0.9213  0.1094  0.4184
  671MOL0     C88504   7.596  11.533   7.063 -0.6579  0.5060  0.2066
  671MOL0     C88505   7.139  11.158   7.615  0.1051  0.0125 -0.3618
  671MOL0     C88506   7.041  11.081   7.674 -0.8744 -0.2740 -0.4265
  671MOL0     H88507   6.648  10.852   7.912  0.7443  0.1525 -0.6895
  671MOL0     H88508   6.423  10.745   7.960  0.7739 -1.3568 -1.4292
  671MOL0     H88509   6.050  10.853   8.063 -1.1490 -0.9269 -2.0070
  671MOL0     H88510   6.209  10.830   8.123 -2.7518  1.2922  1.2800
  671MOL0     H88511   6.099  10.630   8.139  2.9829  1.0922  1.0227
  671MOL0     H88512   6.220  10.599   8.025  0.7097  0.1030  1.1562
  671MOL0     H88513   6.003  10.490   7.934 -0.5380  0.2653 -1.4063
  671MOL0     H88514   6.084  10.597   7.827  1.8037 -0.8738  0.2286
  671MOL0     H88515   5.835  10.638   8.007  0.8088  2.6689  1.8618
  671MOL0     H88516   5.914  10.772   7.920  0.6258  0.6187 -2.0813
  671MOL0     H88517   5.887  10.673   7.709 -0.3419 -0.7878 -0.6932
  671MOL0     H88518   5.727  10.706   7.799  1.5712  1.5390  0.2502
  671MOL0     H88519   5.670  10.494   7.803 -0.3921  0.4148 -1.3214
  671MOL0     H88520   5.829  10.419   7.810  0.7872  0.7659  1.1134
  671MOL0     H88521   5.873  10.454   7.586  1.0422 -0.7450  1.2639
  671MOL0     H88522   5.722  10.367   7.591 -0.4634 -0.0754 -0.9874
  671MOL0     H88523   5.687  10.546   7.416 -1.6398 -0.2785 -0.1170
  671MOL0     H88524   5.756  10.663   7.524  1.2717 -0.6842  1.4007
  671MOL0     H88525   5.497  10.392   7.626  1.0488 -0.1805  0.2403
  671MOL0     H88526   5.222  10.537   7.778  1.2954  0.6387 -0.2533
  671MOL0     H88527   5.241  10.378   7.702  0.9507 -0.8481 -1.4217
  671MOL0     H88528   5.119  10.487   7.492 -2.5831 -1.6823 -1.0494
  671MOL0     H88529   5.087  10.624   7.597 -1.2252 -0.1441  2.1581
  671MOL0     H88530   5.002  10.334   7.648 -3.5016  0.1653  0.1759
  671MOL0     H88531   4.991  10.468   7.763 -0.7500 -2.8488 -0.4030
  671MOL0     H88532   4.873  10.466   7.478  0.7605  1.3403 -0.5955
  671MOL0     H88533   4.844  10.590   7.602 -1.9912 -1.1211 -0.9494
  671MOL0     H88534   4.641  10.183   7.703 -1.0670  1.0076  1.5884
  671MOL0     H88535   4.402  10.146   7.652 -0.4835 -0.3562 -2.8534
  671MOL0     H88536   4.047  10.181   7.332  0.9719  0.5428  0.6130
  671MOL0     H88537   3.795  10.157   7.323 -2.2858 -2.9221  0.9856
  671MOL0     H88538   3.522  10.186   7.703  1.0167  0.3179  0.8990
  671MOL0     H88539   3.629  10.048   7.703  0.1839  1.1821  0.0966
  671MOL0     H88540   3.496   9.916   7.539 -1.1764  0.1646 -0.0821
  671MOL0     H88541   3.399  10.063   7.507  0.0249 -0.5185 -0.8266
  671MOL0     H88542   3.319  10.045   7.744 -1.1545 -0.4526  1.4839
  671MOL0     H88543   3.419   9.913   7.769  0.7087 -0.5491 -0.8746
  671MOL0     H88544   3.200   9.898   7.550 -0.9909  1.0472 -0.0289
  671MOL0     H88545   3.293   9.765   7.611  2.7487  1.0800  0.1058
  671MOL0     H88546   3.103   9.927   7.786  1.7365  0.6400  0.0343
  671MOL0     H88547   3.212   9.808   7.838  2.2824  2.6305 -0.6568
  671MOL0     H88548   3.091   9.639   7.659 -1.0079  0.0118 -3.1278
  671MOL0     H88549   2.984   9.766   7.626 -1.2040 -0.0045  0.6219
  671MOL0     H88550   3.026   9.669   7.912  0.4356  0.0952 -0.4671
  671MOL0     H88551   2.899   9.771   7.863 -0.2570 -0.1682  0.6197
  671MOL0     H88552   2.817   9.591   7.696 -1.5425 -0.9318 -0.2544
  671MOL0     H88553   2.787   9.552   7.865 -1.4828  1.3535 -1.3513
  671MOL0     H88554   3.777  10.198   7.746 -0.1907  0.9186 -0.2204
  671MOL0     H88555   4.035  10.208   7.753 -0.7485 -1.6958  0.1303
  671MOL0     H88556   4.419  10.458   7.361  1.0027 -0.7938 -1.1479
  671MOL0     H88557   4.638  10.525   7.453 -1.8082 -0.3490 -1.1164
  671MOL0     H88558   6.224  11.068   7.777  1.5870  0.2006 -3.7067
  671MOL0     H88559   6.449  11.186   7.749 -0.1386 -0.6342 -0.7543
  671MOL0     H88560   6.786  11.307   7.666 -0.3111 -1.2641 -0.2607
  671MOL0     H88561   6.976  11.445   7.551  0.4301 -0.4673  0.0860
  671MOL0     H88562   7.094  11.495   7.407  0.2421  0.4417  2.1768
  671MOL0     H88563   7.169  11.362   7.312  0.3908 -1.6617  1.5277
  671MOL0     H88564   7.303  11.603   7.425 -1.0540 -0.1686  0.6928
  671MOL0     H88565   7.396  11.468   7.356  0.5797  0.9275  2.0407
  671MOL0     H88566   7.176  11.640   7.203 -0.0068  0.2201  1.2993
  671MOL0     H88567   7.255  11.505   7.136 -3.0200  2.3531 -1.4217
  671MOL0     H88568   7.330  11.732   7.094 -0.0410  0.5971  0.3982
  671MOL0     H88569   7.428  11.734   7.242  0.0120 -0.5533 -0.1713
  671MOL0     H88570   7.677  11.475   7.024 -2.2966 -1.3304 -0.6652
  671MOL0     H88571   7.244  11.133   7.614 -0.1323 -1.0144 -0.3556
  671MOL0     H88572   7.058  10.978   7.704  0.2822 -0.3202 -1.1664
  672MOL0     O88573   7.110   4.375   0.370 -0.4480  0.0054  0.5483
  672MOL0     C88574   7.184   4.453   0.413 -0.5202 -0.1056  0.2578
  672MOL0     O88575   7.155   4.572   0.480  0.3874 -0.5265 -0.0488
  672MOL0     C88576   7.019   4.607   0.488 -0.2234 -0.3539 -0.6318
  672MOL0     C88577   6.975   4.741   0.456 -0.1775  0.5387 -0.4352
  672MOL0     C88578   6.844   4.776   0.436 -0.6203 -0.0089  0.0633
  672MOL0     C88579   6.747   4.679   0.458  0.5182  0.1564  0.7962
  672MOL0     O88580   6.620   4.718   0.417 -0.1491  0.0266  0.2593
  672MOL0     C88581   6.501   4.646   0.462  0.4095  0.4181  0.8619
  672MOL0     C88582   6.456   4.665   0.605 -0.4134 -0.5270  0.5842
  672MOL0     C88583   6.477   4.805   0.664 -0.0256  0.2896  0.0985
  672MOL0     C88584   6.431   4.814   0.806 -0.1748  0.0040  0.2121
  672MOL0     C88585   6.358   4.942   0.848  0.5926  0.2559  0.8128
  672MOL0     C88586   6.453   5.059   0.823 -0.2464  0.8316  0.4050
  672MOL0     C88587   6.381   5.197   0.853  0.1887 -0.9230 -0.0019
  672MOL0     C88588   6.485   5.311   0.863  0.7699  0.2025 -0.4994
  672MOL0     N88589   6.416   5.443   0.885 -0.0350 -0.4565 -0.5517
  672MOL0     C88590   6.417   5.512   1.003  0.0179  0.2231 -0.7343
  672MOL0     C88591   6.337   5.616   0.977 -1.0387 -0.0398 -0.0570
  672MOL0     C88592   6.288   5.716   1.082 -0.7607 -0.5412 -0.3661
  672MOL0     C88593   6.398   5.824   1.109 -0.1484 -0.6248 -0.6390
  672MOL0     C88594   6.369   5.904   1.236  0.6838  0.0833 -0.1698
  672MOL0     C88595   6.215   5.942   1.252 -0.3267 -0.3948  0.5408
  672MOL0     O88596   6.164   6.022   1.140  0.3190  0.5500  0.2557
  672MOL0     C88597   6.032   6.060   1.151  1.0223 -0.5316  0.8305
  672MOL0     C88598   6.001   6.160   1.060 -1.1027  0.0855  1.2557
  672MOL0     C88599   5.878   6.227   1.054 -0.1091  0.2146  0.3950
  672MOL0     C88600   5.775   6.192   1.148 -0.2824 -0.0737 -0.2831
  672MOL0     C88601   5.640   6.261   1.150 -0.0192  0.2079 -0.1628
  672MOL0     O88602   5.580   6.271   1.268  0.8524 -0.0191  0.8559
  672MOL0     C88603   5.459   6.343   1.268 -0.3923  0.3210  0.2409
  672MOL0     C88604   5.353   6.301   1.186  0.2417  0.5796  0.5560
  672MOL0     C88605   5.235   6.371   1.182  0.4343  0.1434  0.6109
  672MOL0     C88606   5.208   6.482   1.265  0.8689  0.5923 -0.5727
  672MOL0     O88607   5.086   6.556   1.255 -0.3215 -0.1753 -0.1199
  672MOL0     C88608   5.023   6.563   1.135  0.2135 -0.1308  0.7462
  672MOL0     C88609   4.936   6.682   1.148  0.2808  0.5367 -0.1276
  672MOL0     C88610   4.797   6.654   1.219 -0.7782  0.2585 -0.3002
  672MOL0     C88611   4.719   6.786   1.234  0.1604  1.1543 -0.1754
  672MOL0     C88612   4.585   6.764   1.301  0.2839 -0.3082 -0.8985
  672MOL0     C88613   4.589   6.724   1.451 -0.9447  0.2873 -0.2193
  672MOL0     C88614   4.451   6.736   1.508  0.3482  0.1525 -0.4788
  672MOL0     C88615   4.448   6.691   1.658 -0.5729  0.1889  0.0909
  672MOL0    Cl88616   4.273   6.664   1.704  0.0115 -0.1059 -0.1675
  672MOL0     C88617   5.319   6.513   1.352  0.5166  0.3249  0.9390
  672MOL0     C88618   5.442   6.455   1.348 -0.4306  0.2666  0.8601
  672MOL0     O88619   5.602   6.300   1.038 -0.8556 -0.0657 -0.1556
  672MOL0     C88620   5.804   6.087   1.243  0.3422 -0.2053  0.6296
  672MOL0     C88621   5.932   6.026   1.245  0.3676 -0.2815 -0.1341
  672MOL0     N88622   6.306   5.621   0.843 -0.7880 -0.0901  0.1957
  672MOL0     N88623   6.343   5.509   0.793  0.5081 -0.6182  0.0223
  672MOL0     C88624   6.784   4.551   0.499 -0.0834 -0.7909  0.1243
  672MOL0     C88625   6.921   4.518   0.527 -0.2416  0.1522  0.0947
  672MOL0     C88626   7.330   4.431   0.371  0.2476 -0.0644 -0.6575
  672MOL0     C88627   7.378   4.354   0.264  0.2101 -0.4900  0.4855
  672MOL0     C88628   7.509   4.345   0.228 -0.1175  2.1185  0.0359
  672MOL0     C88629   7.605   4.422   0.297  0.2642 -0.1409  0.1084
  672MOL0     O88630   7.738   4.429   0.281 -0.5120  0.4493  1.3468
  672MOL0     C88631   7.795   4.317   0.201  0.4981 -0.8937  0.1075
  672MOL0     C88632   7.949   4.318   0.234  0.3165 -0.5714 -0.1153
  672MOL0     C88633   8.024   4.227   0.136  0.3274  1.0668 -0.0791
  672MOL0     C88634   8.165   4.273   0.104  0.1352 -0.6534 -0.9710
  672MOL0     C88635   8.225   4.165   0.015  0.8097 -0.1907 -0.1959
  672MOL0     C88636   8.267   4.063  -0.041 -0.6576 -0.0970 -0.1471
  672MOL0     C88637   7.558   4.512   0.390 -0.4633  0.1279  0.3337
  672MOL0     C88638   7.427   4.515   0.422  0.7818 -0.5978  0.0374
  672MOL0     H88639   7.049   4.818   0.437  0.0569  0.1959 -0.9615
  672MOL0     H88640   6.823   4.879   0.409  1.7441  0.6656  0.5671
  672MOL0     H88641   6.514   4.540   0.439 -1.0849  0.1498  1.1510
  672MOL0     H88642   6.423   4.682   0.394  0.4393  0.7965  1.0266
  672MOL0     H88643   6.514   4.594   0.664  1.3823  0.4002  0.0121
  672MOL0     H88644   6.350   4.640   0.619 -1.1013  2.0098  0.4232
  672MOL0     H88645   6.425   4.879   0.604 -1.8445 -1.3849 -0.5016
  672MOL0     H88646   6.582   4.835   0.674 -0.0447 -0.2312  2.4794
  672MOL0     H88647   6.367   4.728   0.830 -0.7678  0.5544  0.6290
  672MOL0     H88648   6.514   4.811   0.877  1.6550  0.7500 -1.8030
  672MOL0     H88649   6.321   4.935   0.950 -3.7322 -2.1040 -0.6454
  672MOL0     H88650   6.273   4.967   0.783 -0.3266 -0.9889  1.4888
  672MOL0     H88651   6.482   5.065   0.718  1.5645 -1.3279  0.7116
  672MOL0     H88652   6.540   5.050   0.889  0.3306  0.9174 -0.3304
  672MOL0     H88653   6.303   5.220   0.780  0.0936 -0.8823  0.1124
  672MOL0     H88654   6.331   5.178   0.948  0.6979 -0.4961  0.3578
  672MOL0     H88655   6.535   5.313   0.766 -2.1364 -0.6093 -2.1314
  672MOL0     H88656   6.565   5.289   0.934  1.7188 -1.4574 -1.9895
  672MOL0     H88657   6.459   5.487   1.100 -1.5429 -0.4136 -0.1814
  672MOL0     H88658   6.265   5.664   1.175 -1.8503 -0.1084 -0.3848
  672MOL0     H88659   6.191   5.761   1.061 -0.2462  0.9043  0.2294
  672MOL0     H88660   6.403   5.896   1.026 -3.4833  2.2706  1.4302
  672MOL0     H88661   6.494   5.773   1.123 -0.5085 -1.1972 -0.2152
  672MOL0     H88662   6.404   5.846   1.322  1.5193  1.7475  0.6592
  672MOL0     H88663   6.426   5.997   1.237 -1.6650  1.5915  0.6479
  672MOL0     H88664   6.199   5.990   1.349  0.8948  0.0935  0.5172
  672MOL0     H88665   6.144   5.859   1.257 -1.6784  0.6139 -1.1210
  672MOL0     H88666   6.081   6.179   0.990 -2.7667 -0.1834 -0.8245
  672MOL0     H88667   5.871   6.309   0.984  1.1460 -0.0681 -0.0945
  672MOL0     H88668   5.363   6.208   1.130  3.4502  1.9394 -1.3971
  672MOL0     H88669   5.150   6.326   1.131  0.1151 -0.3267  1.5371
  672MOL0     H88670   4.971   6.470   1.108  0.5246  0.3599 -1.8136
  672MOL0     H88671   5.094   6.592   1.058 -1.0100 -0.7929 -0.6899
  672MOL0     H88672   4.928   6.725   1.048  2.7118  0.4711 -0.3988
  672MOL0     H88673   4.990   6.759   1.204  0.8277  0.3099 -0.3396
  672MOL0     H88674   4.824   6.616   1.318 -0.1444  3.0536  0.6820
  672MOL0     H88675   4.750   6.574   1.162 -0.1186  0.8645 -1.7500
  672MOL0     H88676   4.774   6.857   1.295  0.0096  1.7613 -0.7395
  672MOL0     H88677   4.708   6.840   1.140  1.9320  2.8180  0.5183
  672MOL0     H88678   4.530   6.682   1.254 -0.6405  0.7931 -1.7986
  672MOL0     H88679   4.531   6.859   1.312  2.2868  0.6840  1.3759
  672MOL0     H88680   4.653   6.797   1.502  0.5100 -1.3202  0.3731
  672MOL0     H88681   4.636   6.626   1.465  1.8389  1.5653  0.1273
  672MOL0     H88682   4.423   6.840   1.490  3.1458  0.9257 -0.9523
  672MOL0     H88683   4.382   6.676   1.449 -2.4679 -2.0429  4.4903
  672MOL0     H88684   4.494   6.765   1.724 -0.7824 -0.2573  0.7465
  672MOL0     H88685   4.500   6.596   1.675 -2.4678 -1.0028 -0.4559
  672MOL0     H88686   5.304   6.591   1.426  1.5135  1.2533  0.1865
  672MOL0     H88687   5.521   6.483   1.416 -0.0431 -0.3329  0.6697
  672MOL0     H88688   5.742   6.047   1.322  1.7994 -0.5805  1.6192
  672MOL0     H88689   5.959   5.953   1.320  2.1591 -0.2529 -0.7208
  672MOL0     H88690   6.706   4.477   0.514 -0.4778 -0.5709 -0.7721
  672MOL0     H88691   6.952   4.416   0.549  0.2530  0.5961  1.5820
  672MOL0     H88692   7.306   4.300   0.203  0.0745  1.8816 -1.6167
  672MOL0     H88693   7.541   4.276   0.150 -1.1868  1.8202 -0.1448
  672MOL0     H88694   7.778   4.349   0.098  1.8446 -3.4691 -1.0163
  672MOL0     H88695   7.738   4.225   0.219  0.6141 -1.2089 -1.0603
  672MOL0     H88696   7.988   4.418   0.209  3.7753 -1.9440 -0.8736
  672MOL0     H88697   7.981   4.287   0.334  1.6352  0.1450 -0.2811
  672MOL0     H88698   7.964   4.222   0.045 -1.1229  3.8689  0.6010
  672MOL0     H88699   8.028   4.129   0.183  0.1111  0.4529 -1.3093
  672MOL0     H88700   8.163   4.361   0.038  0.0108  0.3093  0.2742
  672MOL0     H88701   8.220   4.290   0.197 -3.1033  0.0045  0.9908
  672MOL0     H88702   8.307   3.976  -0.088 -0.2905 -0.9197  1.6205
  672MOL0     H88703   7.624   4.578   0.444 -2.2022  3.3881 -1.2385
  672MOL0     H88704   7.407   4.592   0.497  2.9960  0.3820 -0.3068
  673MOL0     O88705   9.663   2.148   3.102 -0.1898 -0.5015 -1.1393
  673MOL0     C88706   9.737   2.053   3.057  0.2001 -0.9132  0.0077
  673MOL0     O88707   9.698   1.929   3.047  0.2103  0.2654  0.4281
  673MOL0     C88708   9.570   1.897   3.068 -0.2969  0.2308 -0.4096
  673MOL0     C88709   9.542   1.793   3.160 -0.3783  0.4452  0.2083
  673MOL0     C88710   9.412   1.766   3.197 -0.5926  0.6539  0.2486
  673MOL0     C88711   9.308   1.820   3.128 -0.4222  0.1064 -0.6022
  673MOL0     O88712   9.175   1.783   3.137  0.5313  0.4109 -0.4744
  673MOL0     C88713   9.133   1.711   3.263  0.8130  0.2543  0.7478
  673MOL0     C88714   8.981   1.674   3.271 -0.7406  0.4567  0.1188
  673MOL0     C88715   8.909   1.806   3.313  0.2414 -0.6185 -0.0873
  673MOL0     C88716   8.759   1.774   3.297 -0.2162 -0.1118 -0.0588
  673MOL0     C88717   8.701   1.710   3.419 -0.1306  0.6058 -0.4757
  673MOL0     C88718   8.544   1.701   3.384  0.4545  0.0776  0.1714
  673MOL0     C88719   8.476   1.578   3.441  0.0862 -0.0201  0.4219
  673MOL0     C88720   8.339   1.561   3.393  0.2217 -0.7250 -0.0494
  673MOL0     N88721   8.237   1.661   3.440 -0.3654  0.5560 -0.5203
  673MOL0     C88722   8.216   1.784   3.399 -0.1131 -0.2243  0.2152
  673MOL0     C88723   8.098   1.824   3.448  0.3122  0.2565  0.0167
  673MOL0     C88724   8.023   1.953   3.419  0.0955 -0.4844 -0.7904
  673MOL0     C88725   7.870   1.938   3.425  0.4428  0.8377 -0.5394
  673MOL0     C88726   7.818   1.818   3.341  0.5508  0.5154  0.2507
  673MOL0     C88727   7.669   1.818   3.299  0.2301  0.0678  0.2279
  673MOL0     O88728   7.576   1.881   3.390  0.6064 -0.3540 -0.8342
  673MOL0     C88729   7.440   1.859   3.366  0.4403  0.2365 -0.2330
  673MOL0     C88730   7.349   1.904   3.460 -0.6352  0.2771 -0.8555
  673MOL0     C88731   7.212   1.902   3.450  0.6137  0.5473  0.2432
  673MOL0     C88732   7.164   1.843   3.333 -0.0755  0.1880  0.2979
  673MOL0     C88733   7.014   1.831   3.315  0.0258  1.0072  0.8142
  673MOL0     O88734   6.935   1.891   3.413 -1.0770  0.2086 -0.3972
  673MOL0     C88735   6.801   1.902   3.408 -0.2739  0.1085 -0.2869
  673MOL0     C88736   6.735   1.851   3.514  0.5946  0.1766 -0.8748
  673MOL0     C88737   6.600   1.870   3.523 -0.1325  0.3245  0.0590
  673MOL0     C88738   6.528   1.941   3.426 -0.5721 -0.0447 -0.3622
  673MOL0     O88739   6.394   1.958   3.424 -0.6323 -1.2163 -0.2740
  673MOL0     C88740   6.314   1.975   3.538 -0.0153  0.1416  0.9001
  673MOL0     C88741   6.176   2.030   3.504  0.2757  0.2781 -0.1750
  673MOL0     C88742   6.100   2.056   3.634 -0.0731  0.0484  0.3564
  673MOL0     C88743   5.956   2.109   3.592  0.1406  0.3280 -0.6963
  673MOL0     C88744   5.870   2.141   3.714  0.5611  0.2408  0.6640
  673MOL0     C88745   5.737   2.194   3.676 -0.5357 -0.2102  0.6195
  673MOL0     C88746   5.649   2.213   3.793  0.4655  0.1485 -0.3638
  673MOL0     C88747   5.507   2.229   3.743 -0.7566 -0.4865 -0.0526
  673MOL0    Cl88748   5.442   2.090   3.645  0.3445 -0.7503 -0.2618
  673MOL0     C88749   6.602   1.986   3.317  0.2892 -0.6370 -0.5890
  673MOL0     C88750   6.739   1.973   3.313  0.2371  0.5226  0.2903
  673MOL0     O88751   6.966   1.775   3.215 -0.6882  0.0593  0.7693
  673MOL0     C88752   7.252   1.802   3.230  0.1791  0.0158  0.3649
  673MOL0     C88753   7.392   1.810   3.248  0.4353 -0.2761 -0.2392
  673MOL0     N88754   8.042   1.722   3.527 -0.5936 -0.2271  0.4265
  673MOL0     N88755   8.139   1.625   3.524  0.2650  0.3138 -0.4927
  673MOL0     C88756   9.332   1.913   3.029  0.4724 -0.1910  0.6037
  673MOL0     C88757   9.461   1.962   3.004 -0.2697 -0.2506  0.6076
  673MOL0     C88758   9.872   2.085   2.998  1.3024  0.1254 -0.7136
  673MOL0     C88759   9.941   2.203   3.032  0.5312  0.6345  0.0213
  673MOL0     C88760  10.065   2.222   2.969 -1.0556 -0.4234 -0.2323
  673MOL0     C88761  10.140   2.124   2.892 -0.2537  0.6662  0.2688
  673MOL0     O88762  10.263   2.145   2.841 -0.1804  0.3189 -0.1719
  673MOL0     C88763  10.350   2.217   2.935 -0.2046  0.6112 -0.7681
  673MOL0     C88764  10.494   2.207   2.884  0.0653 -0.9361 -0.2475
  673MOL0     C88765  10.549   2.065   2.878  0.7306  0.3574  0.1444
  673MOL0     C88766  10.658   2.023   2.775  0.4587  0.0681  0.0942
  673MOL0     C88767  10.792   2.061   2.812  0.3220  0.7117  0.5417
  673MOL0     C88768  10.904   2.076   2.839 -0.6272  0.0805  0.5142
  673MOL0     C88769  10.064   2.006   2.866 -0.5136  1.2814  0.3594
  673MOL0     C88770   9.934   1.984   2.926 -0.6026  0.4147 -0.0633
  673MOL0     H88771   9.625   1.743   3.210 -1.0112 -0.3267  0.4978
  673MOL0     H88772   9.383   1.693   3.272 -0.4173  1.2928  0.9455
  673MOL0     H88773   9.176   1.767   3.347  1.1905 -0.1737  0.8404
  673MOL0     H88774   9.186   1.616   3.264  0.1581 -0.2484 -2.2635
  673MOL0     H88775   8.954   1.586   3.330 -1.8856  0.1410 -0.8271
  673MOL0     H88776   8.949   1.655   3.168  1.4540 -0.1584 -0.5004
  673MOL0     H88777   8.936   1.887   3.244  0.5884  0.0495  0.8176
  673MOL0     H88778   8.938   1.836   3.414  4.4260  0.0475 -1.2532
  673MOL0     H88779   8.695   1.860   3.278  0.7146  0.6670  0.2479
  673MOL0     H88780   8.749   1.699   3.219  2.1870 -1.1283  0.5276
  673MOL0     H88781   8.722   1.766   3.510  2.8707 -2.0835  0.6724
  673MOL0     H88782   8.751   1.614   3.436  3.0838  2.1138 -0.6817
  673MOL0     H88783   8.535   1.702   3.275 -0.6396  1.7773  0.2495
  673MOL0     H88784   8.495   1.794   3.413 -2.8021 -0.6204 -2.5204
  673MOL0     H88785   8.537   1.494   3.407  2.4491  2.6153 -2.4460
  673MOL0     H88786   8.495   1.578   3.549  0.2119  1.3767  0.4302
  673MOL0     H88787   8.309   1.462   3.430 -1.7727 -1.0493 -2.2509
  673MOL0     H88788   8.340   1.560   3.284  0.5319 -1.9669 -0.0476
  673MOL0     H88789   8.275   1.836   3.325 -0.4450  1.4123  1.0633
  673MOL0     H88790   8.049   1.982   3.317  0.1414  0.8926 -0.4020
  673MOL0     H88791   8.057   2.021   3.497 -0.3028 -0.4917 -0.6113
  673MOL0     H88792   7.833   2.028   3.375  2.9628  2.6364  0.6259
  673MOL0     H88793   7.832   1.946   3.527  2.4325  0.6593  0.2626
  673MOL0     H88794   7.885   1.824   3.254 -0.2223  3.6276 -0.2521
  673MOL0     H88795   7.839   1.722   3.391  0.0262  0.6623  0.7644
  673MOL0     H88796   7.644   1.713   3.278  1.6451 -0.6405  1.8391
  673MOL0     H88797   7.659   1.873   3.205 -1.9643 -1.6963 -0.6649
  673MOL0     H88798   7.388   1.967   3.540  0.6423 -0.5560 -0.7975
  673MOL0     H88799   7.143   1.958   3.513 -1.3046 -1.7180  0.3281
  673MOL0     H88800   6.784   1.793   3.591  0.4528  1.0166 -0.1443
  673MOL0     H88801   6.551   1.833   3.613  3.6615 -1.5851  1.5859
  673MOL0     H88802   6.359   2.053   3.600  0.0397  0.5831  0.3160
  673MOL0     H88803   6.315   1.883   3.597  1.8248 -0.6537 -0.2578
  673MOL0     H88804   6.124   1.950   3.451 -2.0372  0.7281  1.2728
  673MOL0     H88805   6.196   2.119   3.443  2.6778 -1.5551 -2.2893
  673MOL0     H88806   6.157   2.135   3.685  1.1264  1.3077 -2.6647
  673MOL0     H88807   6.088   1.970   3.701 -0.7019  0.3133  0.5893
  673MOL0     H88808   5.959   2.202   3.534 -0.9311  0.7773 -0.0527
  673MOL0     H88809   5.906   2.041   3.522  1.2147 -2.6173  1.2552
  673MOL0     H88810   5.919   2.213   3.779  1.4432  0.8526 -0.6517
  673MOL0     H88811   5.856   2.047   3.770 -0.4622 -1.2252 -1.8704
  673MOL0     H88812   5.687   2.129   3.603 -0.7184  1.8552 -1.1643
  673MOL0     H88813   5.735   2.296   3.638  0.8775  0.1343  1.3964
  673MOL0     H88814   5.658   2.126   3.858  4.1572  0.0061 -0.8218
  673MOL0     H88815   5.673   2.306   3.847 -1.7602  1.0029 -0.7640
  673MOL0     H88816   5.503   2.319   3.681 -0.3868 -0.8253 -0.5764
  673MOL0     H88817   5.434   2.243   3.823 -0.6002  2.0776 -0.2777
  673MOL0     H88818   6.553   2.045   3.240 -1.7755  0.5989  1.5679
  673MOL0     H88819   6.807   2.005   3.234 -0.9370  0.8507 -0.6161
  673MOL0     H88820   7.222   1.747   3.142  1.2165 -3.0765  1.7714
  673MOL0     H88821   7.459   1.763   3.176  2.1598  0.9916  0.4543
  673MOL0     H88822   9.245   1.955   2.980 -1.1293 -1.4492  2.2217
  673MOL0     H88823   9.489   2.049   2.945 -1.3208  0.6117  1.3404
  673MOL0     H88824   9.880   2.276   3.084  1.3489  0.9433  0.5701
  673MOL0     H88825  10.111   2.314   3.004 -2.1905 -0.4678  1.5120
  673MOL0     H88826  10.340   2.175   3.036 -0.6885 -1.2434 -1.5488
  673MOL0     H88827  10.329   2.324   2.929  0.6169  0.9555  1.4025
  673MOL0     H88828  10.489   2.240   2.780 -0.1012  0.8353  0.2830
  673MOL0     H88829  10.558   2.279   2.936 -0.7022  1.4543 -2.4011
  673MOL0     H88830  10.459   2.002   2.875  1.6384 -0.9924  0.3193
  673MOL0     H88831  10.590   2.042   2.976 -2.7920 -1.6528  1.3452
  673MOL0     H88832  10.661   1.913   2.770 -0.1596  0.0774 -0.5413
  673MOL0     H88833  10.639   2.066   2.677 -0.0900 -2.5329 -1.0281
  673MOL0     H88834  11.006   2.087   2.870 -0.4624  0.1024 -0.0260
  673MOL0     H88835  10.104   1.927   2.804 -1.6040  0.3684  0.7929
  673MOL0     H88836   9.878   1.892   2.912  0.0700  0.1520 -1.1571
  674MOL0     O88837   0.142   7.278   0.421  0.3117  0.4292 -0.1817
  674MOL0     C88838   0.167   7.380   0.368  0.0547 -0.3985  0.5350
  674MOL0     O88839   0.088   7.486   0.378  0.4479  0.2447 -0.4855
  674MOL0     C88840  -0.031   7.476   0.452  0.8043  1.3219 -0.2887
  674MOL0     C88841  -0.131   7.380   0.420  0.4373  0.3530 -0.2825
  674MOL0     C88842  -0.253   7.377   0.486 -0.6291 -0.9261 -0.4967
  674MOL0     C88843  -0.285   7.470   0.583 -1.2746 -0.3013 -0.8876
  674MOL0     O88844  -0.406   7.456   0.641  0.0515 -0.5873  0.3577
  674MOL0     C88845  -0.465   7.563   0.711  0.6330 -1.3802  0.1667
  674MOL0     C88846  -0.605   7.521   0.762  0.1725 -0.1405 -0.4468
  674MOL0     C88847  -0.707   7.631   0.796 -0.4242  0.2117  0.3068
  674MOL0     C88848  -0.854   7.592   0.769  0.1885 -0.4025  0.0040
  674MOL0     C88849  -0.951   7.689   0.833 -0.1400 -0.6574 -0.5423
  674MOL0     C88850  -1.090   7.643   0.804 -0.7683  0.1242  0.2371
  674MOL0     C88851  -1.187   7.714   0.896 -0.2459  0.5701  0.6571
  674MOL0     C88852  -1.325   7.651   0.863 -0.4044 -0.1180 -0.1061
  674MOL0     N88853  -1.430   7.712   0.945 -0.1567 -0.6963 -0.6480
  674MOL0     C88854  -1.493   7.831   0.931  0.2879 -0.5132 -0.1349
  674MOL0     C88855  -1.574   7.837   1.038 -0.6005  0.0831 -0.6123
  674MOL0     C88856  -1.666   7.949   1.073 -0.7489 -0.8140 -0.7214
  674MOL0     C88857  -1.805   7.928   1.036  0.3783  0.6529 -0.4113
  674MOL0     C88858  -1.903   8.024   1.100  0.0579  0.2238  0.1547
  674MOL0     C88859  -2.043   8.010   1.043 -0.8289 -0.4695 -0.2345
  674MOL0     O88860  -2.096   7.884   1.070  0.0005  0.5812 -0.0438
  674MOL0     C88861  -2.232   7.871   1.048 -0.5196  1.0859 -0.3460
  674MOL0     C88862  -2.287   7.750   1.096 -0.0132 -0.2725 -0.5722
  674MOL0     C88863  -2.422   7.711   1.083  0.7890 -1.1594  0.4724
  674MOL0     C88864  -2.508   7.811   1.025  0.0789  0.3225  0.4686
  674MOL0     C88865  -2.647   7.775   1.016  0.1556  0.2048  0.3316
  674MOL0     O88866  -2.739   7.881   1.013 -0.4701  0.6985  0.1563
  674MOL0     C88867  -2.873   7.848   1.026 -0.0728  0.1177  0.2739
  674MOL0     C88868  -2.950   7.893   1.133 -0.4696  0.4736 -0.4074
  674MOL0     C88869  -3.089   7.863   1.126  0.1467  1.0527 -0.5620
  674MOL0     C88870  -3.142   7.800   1.008 -0.4920  0.2588  0.2459
  674MOL0     O88871  -3.279   7.778   1.008  0.2893 -0.2546  0.3518
  674MOL0     C88872  -3.348   7.790   0.886 -0.1341 -0.5857  0.0834
  674MOL0     C88873  -3.498   7.778   0.916  0.0816  0.6685  0.0289
  674MOL0     C88874  -3.550   7.903   0.998 -0.1313 -0.8301 -0.3331
  674MOL0     C88875  -3.707   7.874   1.000  0.1070 -0.7727 -0.5768
  674MOL0     C88876  -3.773   8.019   1.000  0.0959 -0.3971 -0.0887
  674MOL0     C88877  -3.924   8.022   1.015  0.3820  0.2439 -0.1239
  674MOL0     C88878  -3.980   7.929   0.908  1.2336  0.9870  0.7801
  674MOL0     C88879  -4.134   7.951   0.885 -0.0346 -0.8784  0.8568
  674MOL0    Cl88880  -4.229   8.016   1.029 -0.0710 -0.1183 -0.1162
  674MOL0     C88881  -3.058   7.752   0.914 -0.6072 -0.3342  0.1797
  674MOL0     C88882  -2.925   7.772   0.923  0.0789  0.0823  0.6287
  674MOL0     O88883  -2.673   7.656   1.002 -1.2538 -0.4117  0.5523
  674MOL0     C88884  -2.454   7.927   0.979  0.0402 -0.8676  0.6667
  674MOL0     C88885  -2.321   7.956   0.984 -0.4979 -0.3297  0.4468
  674MOL0     N88886  -1.562   7.725   1.117  0.1528  0.0071  0.6564
  674MOL0     N88887  -1.475   7.653   1.057  0.3569 -0.3678  0.4557
  674MOL0     C88888  -0.184   7.561   0.620 -0.0303  1.2205 -0.0616
  674MOL0     C88889  -0.062   7.561   0.557  0.5711 -0.2075  0.3338
  674MOL0     C88890   0.297   7.398   0.300 -0.5093  0.8390 -0.2198
  674MOL0     C88891   0.306   7.486   0.186  0.9040 -0.4965 -0.1515
  674MOL0     C88892   0.432   7.493   0.122 -1.5075 -1.2467  0.9099
  674MOL0     C88893   0.546   7.430   0.175  0.3516  0.3860  0.1916
  674MOL0     O88894   0.660   7.470   0.111  0.1212 -0.4611 -0.5153
  674MOL0     C88895   0.790   7.420   0.162 -0.3774 -0.3188 -0.2884
  674MOL0     C88896   0.909   7.442   0.053  1.3888  0.1794 -0.6362
  674MOL0     C88897   0.925   7.590   0.021 -0.6292  0.3440 -0.4067
  674MOL0     C88898   1.051   7.625  -0.067  1.0770 -0.5758 -0.9163
  674MOL0     C88899   1.169   7.632   0.025  0.7388 -0.3168 -0.7223
  674MOL0     C88900   1.273   7.630   0.090  0.4087 -0.3166  0.1421
  674MOL0     C88901   0.532   7.358   0.290 -0.0479 -0.2598 -1.0509
  674MOL0     C88902   0.408   7.336   0.353  0.4667 -0.0852 -0.8623
  674MOL0     H88903  -0.121   7.296   0.351 -0.4599 -1.5347  1.7678
  674MOL0     H88904  -0.325   7.296   0.475 -2.4454  0.4168  0.9184
  674MOL0     H88905  -0.469   7.648   0.643  2.6351 -0.1839  1.4152
  674MOL0     H88906  -0.406   7.576   0.802  0.4131 -3.7719  0.7388
  674MOL0     H88907  -0.590   7.453   0.845  0.0088  2.3445  1.7540
  674MOL0     H88908  -0.639   7.461   0.677  1.6696 -0.2523 -1.0134
  674MOL0     H88909  -0.683   7.723   0.741  0.2456  1.1488  2.0795
  674MOL0     H88910  -0.695   7.648   0.903 -0.2461 -0.2614  0.3639
  674MOL0     H88911  -0.858   7.591   0.660 -0.4896 -3.5845 -0.0500
  674MOL0     H88912  -0.873   7.494   0.815  0.5853 -0.8892 -0.8452
  674MOL0     H88913  -0.927   7.790   0.799 -2.9264  1.0519  2.0677
  674MOL0     H88914  -0.938   7.677   0.941  1.1852  1.1821 -0.4489
  674MOL0     H88915  -1.091   7.534   0.807  1.6363 -0.0447 -1.7403
  674MOL0     H88916  -1.116   7.675   0.702 -0.4440  0.0802  0.1405
  674MOL0     H88917  -1.175   7.695   1.003 -0.8975 -2.2649  0.2857
  674MOL0     H88918  -1.181   7.823   0.885 -0.2962  0.8690  3.0358
  674MOL0     H88919  -1.324   7.542   0.865  0.7992 -0.1635 -1.2612
  674MOL0     H88920  -1.358   7.686   0.764 -3.8203 -1.3215  0.4962
  674MOL0     H88921  -1.481   7.907   0.855 -0.2308 -1.6271 -1.3889
  674MOL0     H88922  -1.617   8.034   1.024  2.4159 -0.5494  2.4107
  674MOL0     H88923  -1.656   7.970   1.180  0.2231  1.9689 -1.2644
  674MOL0     H88924  -1.835   7.832   1.077  1.9402  0.4009  0.1993
  674MOL0     H88925  -1.817   7.947   0.929 -0.8571 -0.0517 -0.4213
  674MOL0     H88926  -1.897   8.010   1.208  3.1585 -2.9231 -0.2478
  674MOL0     H88927  -1.875   8.129   1.087 -1.3916  0.7971  1.2678
  674MOL0     H88928  -2.048   8.031   0.935  1.8066  2.1203  0.0187
  674MOL0     H88929  -2.107   8.087   1.088 -0.1931 -0.2178  0.2511
  674MOL0     H88930  -2.214   7.682   1.137 -0.5443 -2.2628 -2.7430
  674MOL0     H88931  -2.452   7.611   1.112  2.5205 -2.2713 -1.3198
  674MOL0     H88932  -2.912   7.932   1.227 -0.5897 -3.1437  1.3228
  674MOL0     H88933  -3.152   7.907   1.202  1.3577  2.9076 -0.5491
  674MOL0     H88934  -3.315   7.708   0.822 -4.3259 -3.1614  0.8272
  674MOL0     H88935  -3.329   7.886   0.837  2.9820 -0.4207  1.3868
  674MOL0     H88936  -3.516   7.688   0.975  3.4796  0.6208  1.1578
  674MOL0     H88937  -3.538   7.775   0.814  3.4540  1.4847 -1.4444
  674MOL0     H88938  -3.516   7.991   0.943  3.5241 -0.0065  2.8445
  674MOL0     H88939  -3.506   7.899   1.098 -0.9791  0.8702  0.1369
  674MOL0     H88940  -3.736   7.821   0.909  1.6601 -0.1526 -1.4614
  674MOL0     H88941  -3.743   7.813   1.084  0.4310 -1.9868 -1.2944
  674MOL0     H88942  -3.730   8.066   0.910 -0.2478 -0.3996 -0.2563
  674MOL0     H88943  -3.729   8.077   1.082 -0.7861 -1.8174  1.4453
  674MOL0     H88944  -3.963   8.123   1.001 -1.1545 -0.4594 -1.3321
  674MOL0     H88945  -3.942   7.999   1.121  0.5795  2.8313  0.5237
  674MOL0     H88946  -3.919   7.929   0.817  1.5035  0.9679  0.9635
  674MOL0     H88947  -3.973   7.830   0.954 -1.4156  0.2290 -0.2394
  674MOL0     H88948  -4.182   7.857   0.857  0.9014 -0.6884 -1.6427
  674MOL0     H88949  -4.147   8.016   0.799  0.9992 -0.4843  0.9768
  674MOL0     H88950  -3.101   7.707   0.825  0.4408 -0.5543 -0.2246
  674MOL0     H88951  -2.860   7.733   0.846  1.9933  1.7553  1.2939
  674MOL0     H88952  -2.522   7.999   0.934  3.1450  2.3717  0.6723
  674MOL0     H88953  -2.281   8.049   0.946 -1.1076 -0.3340 -0.2157
  674MOL0     H88954  -0.192   7.625   0.707 -0.2892 -0.9511  1.5990
  674MOL0     H88955   0.015   7.634   0.580  0.6571 -0.5868  1.3306
  674MOL0     H88956   0.222   7.534   0.137  2.0195  0.0831 -1.5762
  674MOL0     H88957   0.452   7.568   0.046 -0.2421 -0.2912  2.1391
  674MOL0     H88958   0.791   7.314   0.190 -0.1065 -0.2463 -0.0181
  674MOL0     H88959   0.815   7.472   0.255 -1.9875 -2.2099  1.3048
  674MOL0     H88960   1.000   7.396   0.092  1.6991  1.4396  0.1776
  674MOL0     H88961   0.894   7.380  -0.036  0.1384 -3.8590  2.0572
  674MOL0     H88962   0.924   7.644   0.116  1.2670  0.3008 -0.3258
  674MOL0     H88963   0.833   7.622  -0.030 -2.1268 -1.1024  1.2391
  674MOL0     H88964   1.074   7.554  -0.146  2.0057 -0.7391 -0.5141
  674MOL0     H88965   1.044   7.729  -0.102  1.6001 -0.0657  0.4427
  674MOL0     H88966   1.356   7.625   0.158 -0.4788 -0.2417  1.2597
  674MOL0     H88967   0.615   7.299   0.328 -1.2038  0.2045  2.5279
  674MOL0     H88968   0.407   7.273   0.441 -1.6859 -0.0839 -0.8358
  675MOL0     O88969   6.859   0.892   5.039 -0.2505 -0.1151 -0.8726
  675MOL0     C88970   6.929   0.900   4.939  0.5405 -0.1127 -0.8846
  675MOL0     O88971   6.932   1.023   4.872  0.1953  0.1293 -0.1004
  675MOL0     C88972   6.854   1.135   4.890  0.2614  0.0462 -0.6008
  675MOL0     C88973   6.912   1.262   4.869  0.8203 -0.4955 -0.3495
  675MOL0     C88974   6.848   1.378   4.905 -0.2172  0.3601  0.1964
  675MOL0     C88975   6.723   1.378   4.947  0.2824  0.2026  0.1189
  675MOL0     O88976   6.675   1.497   4.997 -0.4345 -0.2983 -0.4522
  675MOL0     C88977   6.542   1.502   5.047  0.1192 -0.8620  0.0801
  675MOL0     C88978   6.492   1.640   5.061  0.0890 -0.0044  0.0173
  675MOL0     C88979   6.349   1.643   5.129  0.2400  0.1037  0.0633
  675MOL0     C88980   6.308   1.786   5.174  0.5599  0.5285  0.4685
  675MOL0     C88981   6.168   1.764   5.247  0.2025 -0.2289 -0.2504
  675MOL0     C88982   6.113   1.903   5.287 -0.4072 -0.4100 -0.3948
  675MOL0     C88983   5.975   1.904   5.353  0.1517  0.4594 -0.0920
  675MOL0     C88984   5.958   2.000   5.477  1.2291  0.0465 -0.2542
  675MOL0     N88985   5.819   2.003   5.529 -0.4607 -0.5306  0.8271
  675MOL0     C88986   5.739   1.898   5.549  0.0594 -0.1276  0.3163
  675MOL0     C88987   5.619   1.950   5.589 -0.3775  0.1822 -0.3507
  675MOL0     C88988   5.496   1.879   5.630  0.8574 -0.3152 -0.4922
  675MOL0     C88989   5.392   1.900   5.522 -0.3761 -0.8531  0.5319
  675MOL0     C88990   5.365   2.044   5.482 -0.0294  0.0418 -0.5133
  675MOL0     C88991   5.224   2.054   5.419 -0.3204  0.9980 -0.8736
  675MOL0     O88992   5.216   2.191   5.390  0.1583  0.0128  0.0615
  675MOL0     C88993   5.109   2.238   5.324  1.0571 -0.1897 -0.2943
  675MOL0     C88994   5.093   2.375   5.319 -0.3681 -0.2988 -0.2298
  675MOL0     C88995   4.994   2.439   5.247  0.4102  0.5818 -0.4490
  675MOL0     C88996   4.894   2.368   5.182 -0.3892  0.1110  0.0158
  675MOL0     C88997   4.778   2.436   5.128  0.4432 -0.7762  0.0920
  675MOL0     O88998   4.691   2.367   5.044  0.0821  0.1233  0.2699
  675MOL0     C88999   4.586   2.422   4.979  0.7031 -0.1763 -0.1936
  675MOL0     C89000   4.556   2.558   4.965  0.3304  0.5192  0.0495
  675MOL0     C89001   4.446   2.607   4.895  0.4299 -0.1528  1.1650
  675MOL0     C89002   4.374   2.525   4.815  0.1903  0.1759  0.4701
  675MOL0     O89003   4.291   2.581   4.721  0.4345  0.1910 -0.1216
  675MOL0     C89004   4.183   2.508   4.676  0.6635 -0.1511  0.0150
  675MOL0     C89005   4.202   2.440   4.543  0.1101  0.5831 -0.5756
  675MOL0     C89006   4.262   2.524   4.442  0.7873  0.9110  0.5549
  675MOL0     C89007   4.166   2.651   4.415 -0.4615 -0.5337  0.0756
  675MOL0     C89008   4.202   2.722   4.280  0.3808  0.3940  0.5381
  675MOL0     C89009   4.113   2.847   4.253  0.3520 -0.5611  0.6843
  675MOL0     C89010   3.966   2.816   4.228 -0.1180  0.1127  0.2001
  675MOL0     C89011   3.877   2.937   4.193 -0.0930 -0.4822 -0.2482
  675MOL0    Cl89012   3.705   2.887   4.206 -0.2557  0.2185 -0.6853
  675MOL0     C89013   4.392   2.385   4.828 -0.3598 -0.0217 -0.2054
  675MOL0     C89014   4.492   2.337   4.908  0.0285 -0.2594  1.1379
  675MOL0     O89015   4.761   2.548   5.173 -0.0294  0.0362  0.5974
  675MOL0     C89016   4.911   2.225   5.180 -0.1857 -0.5543 -0.0610
  675MOL0     C89017   5.017   2.165   5.246 -0.1572 -0.1781 -0.2653
  675MOL0     N89018   5.630   2.090   5.588  0.0072 -0.5962 -0.0104
  675MOL0     N89019   5.754   2.119   5.559  0.0721 -0.1177  0.7161
  675MOL0     C89020   6.652   1.254   4.954 -0.4807 -0.2125 -0.4809
  675MOL0     C89021   6.719   1.133   4.930  0.4531  0.2561  0.1594
  675MOL0     C89022   6.993   0.780   4.879  0.4373  0.1187  0.2015
  675MOL0     C89023   6.999   0.661   4.941 -0.2416  0.7513 -0.7323
  675MOL0     C89024   7.059   0.548   4.883  0.6613  0.8747 -0.4718
  675MOL0     C89025   7.120   0.561   4.760 -0.5005  0.3552 -0.5298
  675MOL0     O89026   7.171   0.438   4.715 -0.1233 -0.4742  0.4726
  675MOL0     C89027   7.182   0.393   4.580  0.8199 -0.8669 -0.5529
  675MOL0     C89028   7.264   0.266   4.575 -0.1862 -0.2201 -0.3490
  675MOL0     C89029   7.234   0.172   4.459 -0.1210  0.2873 -0.0716
  675MOL0     C89030   7.238   0.233   4.323 -0.6011 -0.1580  0.1192
  675MOL0     C89031   7.367   0.299   4.302  0.4518 -0.2000  0.1280
  675MOL0     C89032   7.474   0.357   4.301 -0.2786 -0.7133  0.5183
  675MOL0     C89033   7.112   0.683   4.686  0.6617  1.0042  0.4921
  675MOL0     C89034   7.047   0.789   4.748  0.4288  0.0904 -0.2117
  675MOL0     H89035   7.014   1.256   4.832  1.5662 -1.5621  1.7051
  675MOL0     H89036   6.905   1.469   4.892  0.5048 -0.1533 -0.3312
  675MOL0     H89037   6.532   1.436   5.134 -2.4730 -3.2307 -1.8342
  675MOL0     H89038   6.471   1.451   4.982  0.2276 -0.1124 -0.6430
  675MOL0     H89039   6.494   1.694   4.966 -3.4621  0.3707  0.0176
  675MOL0     H89040   6.551   1.701   5.130 -2.6504  0.7455  1.8616
  675MOL0     H89041   6.349   1.581   5.218 -1.4382  3.4311  2.6089
  675MOL0     H89042   6.284   1.617   5.045  0.5551  1.0136 -0.4877
  675MOL0     H89043   6.374   1.839   5.242  0.8418  1.5694 -0.5886
  675MOL0     H89044   6.292   1.835   5.078  0.3975 -2.6532 -1.2922
  675MOL0     H89045   6.184   1.699   5.334  1.1136  1.1140  0.6132
  675MOL0     H89046   6.098   1.705   5.187 -0.6614  1.7171 -1.2214
  675MOL0     H89047   6.100   1.955   5.191 -2.3275  1.4460  0.7771
  675MOL0     H89048   6.190   1.953   5.347 -1.4007  0.2939  0.3252
  675MOL0     H89049   5.894   1.925   5.283 -1.4697 -0.6595  1.3499
  675MOL0     H89050   5.958   1.801   5.384  1.2010  0.4098  0.3779
  675MOL0     H89051   5.995   2.099   5.449  2.3388 -0.3875 -0.3856
  675MOL0     H89052   6.019   1.957   5.557 -2.3365 -2.4561  1.3401
  675MOL0     H89053   5.768   1.794   5.540 -0.3684 -0.1333 -1.2454
  675MOL0     H89054   5.462   1.921   5.725  0.8815 -3.4113  0.9937
  675MOL0     H89055   5.511   1.771   5.638  0.0485 -0.6711 -2.8985
  675MOL0     H89056   5.305   1.848   5.563 -0.1193 -0.9980  0.8911
  675MOL0     H89057   5.427   1.848   5.432 -0.0306  0.5602 -0.1916
  675MOL0     H89058   5.364   2.104   5.574 -1.5947  1.1344 -1.1909
  675MOL0     H89059   5.436   2.097   5.419  1.5308 -2.8202 -1.3148
  675MOL0     H89060   5.156   2.017   5.496  1.5562 -2.4897 -0.6740
  675MOL0     H89061   5.218   1.982   5.337 -1.9257 -1.0384  0.9158
  675MOL0     H89062   5.169   2.432   5.371  1.7159 -2.0752 -1.1779
  675MOL0     H89063   4.990   2.547   5.251 -0.1025  0.5511 -0.0361
  675MOL0     H89064   4.614   2.633   5.018  2.2342  0.0494 -1.2841
  675MOL0     H89065   4.423   2.712   4.882  0.8197  0.2281  3.2176
  675MOL0     H89066   4.105   2.584   4.663  0.3998 -0.5521 -0.8381
  675MOL0     H89067   4.143   2.439   4.751 -0.7163 -0.5358 -1.0355
  675MOL0     H89068   4.108   2.387   4.528 -1.3620  1.5772  3.6948
  675MOL0     H89069   4.275   2.358   4.550 -0.6830 -0.2830 -2.0262
  675MOL0     H89070   4.262   2.456   4.356 -1.7470 -3.0052  3.2762
  675MOL0     H89071   4.366   2.546   4.468  0.7961 -2.3159  4.1562
  675MOL0     H89072   4.060   2.624   4.426 -0.9473 -1.0241 -4.2649
  675MOL0     H89073   4.189   2.732   4.485  1.0641  1.3656 -2.4501
  675MOL0     H89074   4.184   2.653   4.197 -2.2326  0.7050  0.7692
  675MOL0     H89075   4.308   2.751   4.274  1.1000 -1.7639  1.5692
  675MOL0     H89076   4.148   2.896   4.161  1.7062  0.2174  1.5720
  675MOL0     H89077   4.114   2.919   4.335  1.3223 -0.2330  0.4071
  675MOL0     H89078   3.963   2.730   4.160 -0.3821  0.9061 -0.8085
  675MOL0     H89079   3.929   2.775   4.323 -2.8187 -1.3974 -1.3983
  675MOL0     H89080   3.898   2.963   4.089  2.4154  0.0382  0.3444
  675MOL0     H89081   3.889   3.028   4.252  0.6671 -0.6882 -0.0722
  675MOL0     H89082   4.350   2.316   4.754  1.8184 -1.6503 -0.0091
  675MOL0     H89083   4.520   2.233   4.895 -3.6596 -1.3184  0.7468
  675MOL0     H89084   4.833   2.162   5.139 -0.6123 -0.8325  1.1167
  675MOL0     H89085   5.041   2.060   5.232  2.2783  0.4037 -1.0298
  675MOL0     H89086   6.555   1.238   4.999  0.4121 -0.8738  1.3241
  675MOL0     H89087   6.678   1.032   4.936  0.2350  0.2384 -1.3386
  675MOL0     H89088   6.960   0.662   5.043  1.4248 -1.9361  0.0162
  675MOL0     H89089   7.059   0.458   4.942 -1.1723  2.1313  1.6002
  675MOL0     H89090   7.220   0.469   4.512 -0.5415 -0.9772 -1.4828
  675MOL0     H89091   7.079   0.367   4.551 -0.2245 -0.8716  2.7070
  675MOL0     H89092   7.367   0.296   4.551 -0.4960 -1.1384 -3.2238
  675MOL0     H89093   7.261   0.230   4.678  0.0960  2.7057  0.7771
  675MOL0     H89094   7.144   0.110   4.469  1.2040 -1.7216  0.0884
  675MOL0     H89095   7.316   0.100   4.448 -1.3202 -0.7104 -4.5609
  675MOL0     H89096   7.229   0.148   4.254  0.6578 -0.4963  0.3572
  675MOL0     H89097   7.160   0.309   4.309  3.2932  3.8335 -2.9477
  675MOL0     H89098   7.572   0.400   4.293  0.1818 -2.0514 -2.5445
  675MOL0     H89099   7.129   0.689   4.579 -2.2385 -1.1899 -0.2221
  675MOL0     H89100   7.033   0.888   4.705 -2.9487 -0.1349  0.1255
  676MOL0     O89101   1.477   5.117  10.551  0.1418  0.3508  0.1770
  676MOL0     C89102   1.565   5.071  10.478  0.7734 -0.7697  0.2806
  676MOL0     O89103   1.539   5.009  10.362 -0.2531 -0.3043  0.2354
  676MOL0     C89104   1.408   4.989  10.321  0.4166 -0.3106 -0.3279
  676MOL0     C89105   1.336   5.090  10.247  0.7782 -0.3197 -0.4014
  676MOL0     C89106   1.204   5.066  10.198 -0.1286 -0.4699 -0.0327
  676MOL0     C89107   1.144   4.942  10.222  0.2368  0.3736 -0.5549
  676MOL0     O89108   1.019   4.910  10.180  0.1561  0.0958 -0.1135
  676MOL0     C89109   0.955   4.993  10.082 -0.2873  0.9830 -1.3039
  676MOL0     C89110   0.830   4.918  10.053 -0.4755 -0.2294  0.2351
  676MOL0     C89111   0.704   4.986  10.092  0.3185 -0.6113  0.4197
  676MOL0     C89112   0.586   4.887  10.055 -0.1024  0.5974 -0.2211
  676MOL0     C89113   0.454   4.959  10.093 -0.3296 -0.5173  1.0431
  676MOL0     C89114   0.329   4.883  10.039  0.2314  0.0872  0.3701
  676MOL0     C89115   0.323   4.731  10.067  0.2575 -0.6253  0.0180
  676MOL0     C89116   0.189   4.669  10.017  0.4631 -0.6492 -0.0757
  676MOL0     N89117   0.079   4.716  10.100  0.5897  0.4696  0.8728
  676MOL0     C89118   0.065   4.719  10.241 -0.0070 -0.5236  0.6080
  676MOL0     C89119  -0.044   4.797  10.266  0.6244 -0.1777  0.7988
  676MOL0     C89120  -0.101   4.831  10.396  0.7974  0.0814 -0.2967
  676MOL0     C89121  -0.247   4.874  10.388  0.1106 -0.7025  0.1183
  676MOL0     C89122  -0.304   4.870  10.532  0.2061  0.4004 -0.4354
  676MOL0     C89123  -0.450   4.907  10.550  0.0537 -0.0535  0.0616
  676MOL0     O89124  -0.488   4.878  10.684  0.0543  0.4482  0.5500
  676MOL0     C89125  -0.622   4.877  10.719  0.2172  0.4407  0.1051
  676MOL0     C89126  -0.646   4.840  10.855 -0.0628 -0.6435  0.7133
  676MOL0     C89127  -0.775   4.829  10.904  0.1029 -0.7606 -0.2534
  676MOL0     C89128  -0.886   4.876  10.821 -0.6143  0.6478  0.8229
  676MOL0     C89129  -1.019   4.868  10.893 -0.5964 -0.4119  0.5036
  676MOL0     O89130  -1.025   4.909  11.017  0.8802  0.3623  0.6271
  676MOL0     C89131  -1.138   4.892  11.101  0.1352  0.0618  0.1497
  676MOL0     C89132  -1.279   4.884  11.070  0.0286  0.4879 -0.4472
  676MOL0     C89133  -1.378   4.858  11.158  0.0327  1.1171  0.6890
  676MOL0     C89134  -1.351   4.835  11.293  0.0246 -0.0315 -0.5786
  676MOL0     O89135  -1.451   4.796  11.389  0.1033 -0.6725  0.2294
  676MOL0     C89136  -1.574   4.863  11.371 -0.2797 -0.9654  0.2216
  676MOL0     C89137  -1.679   4.835  11.485  0.4546  0.9590  0.1771
  676MOL0     C89138  -1.628   4.897  11.619  0.4901  0.2851  0.5119
  676MOL0     C89139  -1.739   4.888  11.723 -0.2800  0.3452 -0.7815
  676MOL0     C89140  -1.683   4.883  11.869 -0.0755  0.1025  0.3924
  676MOL0     C89141  -1.597   4.754  11.896 -0.3377 -0.0738 -0.5646
  676MOL0     C89142  -1.534   4.781  12.033  0.8599 -0.2377  0.8767
  676MOL0     C89143  -1.432   4.675  12.059 -0.2988  0.8391 -0.8991
  676MOL0    Cl89144  -1.490   4.505  12.052  0.0898  0.2294 -0.0719
  676MOL0     C89145  -1.215   4.841  11.329  0.1081  0.8667  0.3770
  676MOL0     C89146  -1.113   4.872  11.239 -0.3377 -0.3634 -0.2132
  676MOL0     O89147  -1.112   4.820  10.827 -0.4345 -0.6822  0.0705
  676MOL0     C89148  -0.856   4.918  10.689  0.6162  1.0174  0.0712
  676MOL0     C89149  -0.726   4.923  10.640  0.0611  0.4728  0.4966
  676MOL0     N89150  -0.096   4.837  10.145  0.0320 -0.0444  0.7149
  676MOL0     N89151  -0.036   4.768  10.050  0.7362  0.7308  0.6555
  676MOL0     C89152   1.213   4.848  10.297 -0.1934 -0.7672 -0.6450
  676MOL0     C89153   1.348   4.865  10.343 -0.0072 -0.3504  0.7243
  676MOL0     C89154   1.710   5.105  10.498  0.1171  0.1415  0.0533
  676MOL0     C89155   1.817   5.086  10.403 -0.3194  0.3699 -0.6389
  676MOL0     C89156   1.950   5.118  10.432 -0.6129 -0.0559  0.3184
  676MOL0     C89157   1.986   5.179  10.553  0.5445 -0.2417  0.1329
  676MOL0     O89158   2.116   5.234  10.557  0.3803  0.6217  0.2387
  676MOL0     C89159   2.148   5.341  10.644  0.1643 -0.1794 -0.0387
  676MOL0     C89160   2.205   5.284  10.771  0.0644  0.4507 -0.2135
  676MOL0     C89161   2.346   5.233  10.746  0.7105 -0.1025  0.5041
  676MOL0     C89162   2.352   5.079  10.760  0.3209  0.6150 -0.0390
  676MOL0     C89163   2.490   5.040  10.729  0.1387 -0.0999 -0.3078
  676MOL0     C89164   2.607   5.023  10.729 -0.6272 -0.3226  0.7910
  676MOL0     C89165   1.881   5.197  10.648 -0.0363 -0.2208 -0.1782
  676MOL0     C89166   1.745   5.171  10.618 -0.5045 -0.2957 -0.3342
  676MOL0     H89167   1.373   5.191  10.233 -3.2077  1.1184 -1.8786
  676MOL0     H89168   1.161   5.150  10.144  2.0951 -0.1493 -1.4563
  676MOL0     H89169   1.008   5.001   9.987 -0.6837  0.4973 -1.5770
  676MOL0     H89170   0.918   5.088  10.120  1.7555  1.2991  0.0078
  676MOL0     H89171   0.827   4.818  10.097  0.3429 -0.9378 -1.2364
  676MOL0     H89172   0.829   4.906   9.944 -2.6183  0.3053  0.1382
  676MOL0     H89173   0.700   5.084  10.042 -0.0734 -0.4392  0.7868
  676MOL0     H89174   0.702   4.999  10.200 -3.2501 -2.7621  0.7480
  676MOL0     H89175   0.584   4.858   9.950  0.2785 -1.6805  0.3502
  676MOL0     H89176   0.597   4.794  10.112 -0.8207 -0.4209 -1.6803
  676MOL0     H89177   0.456   5.061  10.054  0.3452 -0.0990  2.1321
  676MOL0     H89178   0.459   4.969  10.201  2.1882 -0.0024  0.9456
  676MOL0     H89179   0.329   4.895   9.931 -1.3748  6.4103  0.6521
  676MOL0     H89180   0.235   4.918  10.084  0.8186 -1.2720  2.8520
  676MOL0     H89181   0.410   4.676  10.032  2.9599  2.0090  2.0230
  676MOL0     H89182   0.325   4.719  10.176 -0.4197  0.3939  0.1582
  676MOL0     H89183   0.185   4.560  10.018 -2.0348 -0.6403 -0.9271
  676MOL0     H89184   0.163   4.700   9.915  0.1158  0.3665  0.3053
  676MOL0     H89185   0.115   4.651  10.309  0.7013 -0.0086  0.6117
  676MOL0     H89186  -0.055   4.918  10.442 -0.8616 -0.0780  1.8402
  676MOL0     H89187  -0.086   4.743  10.459  1.1411 -0.0347 -0.5409
  676MOL0     H89188  -0.293   4.802  10.320 -0.6279  1.3572 -1.6909
  676MOL0     H89189  -0.252   4.976  10.350 -0.3937 -0.2036  1.4839
  676MOL0     H89190  -0.291   4.768  10.567  2.0283  1.1405  1.2346
  676MOL0     H89191  -0.236   4.929  10.595  0.6805 -0.8447  0.2561
  676MOL0     H89192  -0.515   4.852  10.481 -0.1944  0.7731 -0.3855
  676MOL0     H89193  -0.467   5.015  10.546  1.6152  0.2976  1.6230
  676MOL0     H89194  -0.565   4.813  10.922 -0.1702 -0.5766  0.8714
  676MOL0     H89195  -0.802   4.814  11.008 -1.3431 -0.1194 -0.5176
  676MOL0     H89196  -1.310   4.896  10.966  1.6607  2.0625 -0.8165
  676MOL0     H89197  -1.477   4.879  11.118  0.6102  0.2919 -1.2455
  676MOL0     H89198  -1.624   4.826  11.281 -1.7779  1.0716  0.1406
  676MOL0     H89199  -1.562   4.969  11.348  1.4028 -1.1868 -0.0049
  676MOL0     H89200  -1.690   4.727  11.504  0.5041  0.5926 -1.7005
  676MOL0     H89201  -1.781   4.864  11.459 -0.8568 -2.7911  0.4241
  676MOL0     H89202  -1.599   5.003  11.619  0.2418  0.3609 -0.4163
  676MOL0     H89203  -1.536   4.848  11.655 -0.1110 -1.8936 -0.7195
  676MOL0     H89204  -1.812   4.970  11.717 -0.8699 -0.1912 -1.0939
  676MOL0     H89205  -1.805   4.801  11.711  0.8094 -0.2274 -3.1392
  676MOL0     H89206  -1.764   4.883  11.942 -1.7159  1.6489 -1.3216
  676MOL0     H89207  -1.611   4.966  11.873  1.2756 -1.0716  1.5868
  676MOL0     H89208  -1.512   4.753  11.828 -1.0195  1.6855 -1.5046
  676MOL0     H89209  -1.652   4.659  11.892 -0.0420 -0.2416 -0.7250
  676MOL0     H89210  -1.480   4.876  12.034 -1.5224  1.2117 -0.0467
  676MOL0     H89211  -1.615   4.777  12.106  0.0908 -3.5207 -0.0067
  676MOL0     H89212  -1.391   4.680  12.161  1.3643 -2.9709 -1.2183
  676MOL0     H89213  -1.344   4.677  11.994  0.5507 -0.6925  0.1382
  676MOL0     H89214  -1.184   4.823  11.431  1.7059 -0.1129 -0.2377
  676MOL0     H89215  -1.012   4.874  11.280 -0.6307 -1.9760  0.6900
  676MOL0     H89216  -0.944   4.952  10.635 -0.5766 -0.0866  1.2436
  676MOL0     H89217  -0.712   4.957  10.538  1.3316 -2.8603 -0.5534
  676MOL0     H89218   1.164   4.752  10.309  0.1525 -0.6317  2.7665
  676MOL0     H89219   1.400   4.799  10.411  1.4950  2.7347  2.7972
  676MOL0     H89220   1.803   5.041  10.305 -1.9160 -0.3717 -0.0987
  676MOL0     H89221   2.025   5.097  10.357 -0.3524  0.1223  0.5273
  676MOL0     H89222   2.061   5.406  10.658  0.9084  1.0430 -0.9010
  676MOL0     H89223   2.223   5.409  10.603 -1.9920  2.2986 -0.1562
  676MOL0     H89224   2.211   5.376  10.830 -0.3765  2.1938 -2.7347
  676MOL0     H89225   2.140   5.209  10.817  2.4915 -1.5271  0.2170
  676MOL0     H89226   2.412   5.279  10.820  3.6714 -1.0902 -1.3546
  676MOL0     H89227   2.379   5.264  10.647 -0.0105 -1.8399 -0.3144
  676MOL0     H89228   2.323   5.043  10.859 -0.4347  0.0935 -0.4397
  676MOL0     H89229   2.291   5.024  10.688  0.8720  2.3194 -1.8985
  676MOL0     H89230   2.712   5.005  10.723 -1.0110 -2.4480 -3.1866
  676MOL0     H89231   1.911   5.258  10.733 -0.5870  0.2971 -0.3511
  676MOL0     H89232   1.663   5.181  10.688 -1.4456 -0.3098 -1.3999
  677MOL0     O89233   6.747   6.327   4.194  0.7321  0.4029 -0.1775
  677MOL0     C89234   6.809   6.427   4.239  0.1400  0.2124  0.7299
  677MOL0     O89235   6.743   6.538   4.301 -0.7311 -0.1499 -0.4204
  677MOL0     C89236   6.606   6.557   4.279 -0.4450 -0.7804 -1.0150
  677MOL0     C89237   6.513   6.558   4.388 -0.0235 -0.6633 -0.3490
  677MOL0     C89238   6.374   6.555   4.366 -1.2343 -0.0069  0.5199
  677MOL0     C89239   6.319   6.546   4.240  0.3975 -0.5782 -0.5066
  677MOL0     O89240   6.186   6.530   4.209  0.5835  0.2484 -0.4459
  677MOL0     C89241   6.094   6.495   4.316 -0.6266  0.0309 -0.1759
  677MOL0     C89242   5.958   6.461   4.242  0.0929  0.4067 -0.5775
  677MOL0     C89243   5.855   6.405   4.353  1.4924 -0.3762  0.5823
  677MOL0     C89244   5.713   6.391   4.275 -0.9069  0.3874  0.8688
  677MOL0     C89245   5.598   6.371   4.378  1.3175  0.0279  0.0367
  677MOL0     C89246   5.466   6.327   4.309  0.1842  0.0518 -0.3150
  677MOL0     C89247   5.343   6.306   4.401 -0.7082  0.1307  0.1324
  677MOL0     C89248   5.236   6.234   4.326 -0.1370 -1.0311  0.1985
  677MOL0     N89249   5.125   6.190   4.412 -0.4933 -0.5644 -0.8669
  677MOL0     C89250   5.027   6.095   4.365  0.2585 -0.5210  0.0191
  677MOL0     C89251   4.933   6.092   4.468 -0.2591 -0.7375  0.9659
  677MOL0     C89252   4.807   6.014   4.464 -0.1718 -0.7065  0.1442
  677MOL0     C89253   4.718   6.058   4.351  0.7489  0.0017 -0.1498
  677MOL0     C89254   4.569   6.025   4.373  0.3483  0.6180 -0.9429
  677MOL0     C89255   4.548   5.880   4.405 -0.3647 -1.3894 -0.0725
  677MOL0     O89256   4.407   5.858   4.392 -0.0494  0.1037  0.0654
  677MOL0     C89257   4.366   5.739   4.352  0.4087 -0.0485 -1.1160
  677MOL0     C89258   4.231   5.750   4.327 -0.2434  0.3312 -0.0578
  677MOL0     C89259   4.159   5.653   4.267 -0.0501  0.5579 -0.0607
  677MOL0     C89260   4.219   5.530   4.240 -0.0676 -0.3369  0.2516
  677MOL0     C89261   4.140   5.421   4.187 -0.7355  0.3848 -0.4750
  677MOL0     O89262   4.202   5.295   4.177  0.7039  0.2847 -0.2899
  677MOL0     C89263   4.145   5.170   4.157 -0.1300  0.4797  0.2727
  677MOL0     C89264   4.019   5.149   4.095  1.1175  0.3660 -0.1161
  677MOL0     C89265   3.971   5.020   4.093 -0.0027  0.1462 -0.5885
  677MOL0     C89266   4.042   4.913   4.145 -0.2705 -0.1978 -0.5672
  677MOL0     O89267   3.983   4.784   4.144 -0.5278  0.2266  0.6019
  677MOL0     C89268   3.919   4.742   4.024  0.9134  0.0865 -0.3779
  677MOL0     C89269   3.842   4.608   4.053 -0.2609  0.4039 -0.5429
  677MOL0     C89270   3.718   4.659   4.119 -0.1574  0.2773  0.0492
  677MOL0     C89271   3.643   4.532   4.168  0.0242 -0.3983 -0.7560
  677MOL0     C89272   3.505   4.575   4.230  0.6808  0.4589 -0.5027
  677MOL0     C89273   3.515   4.668   4.349 -0.5661  0.6794  1.0323
  677MOL0     C89274   3.610   4.609   4.452 -0.2646  0.0278 -0.4877
  677MOL0     C89275   3.563   4.483   4.518 -0.8226  0.5022  0.6845
  677MOL0    Cl89276   3.390   4.471   4.547  0.4080  0.3738  0.0326
  677MOL0     C89277   4.164   4.931   4.203 -0.1994 -0.2520 -0.3397
  677MOL0     C89278   4.215   5.057   4.205 -0.0158 -0.4152  0.7401
  677MOL0     O89279   4.022   5.451   4.165  0.0894  0.3096  0.1820
  677MOL0     C89280   4.348   5.506   4.284  0.8926 -0.3380 -0.4570
  677MOL0     C89281   4.422   5.615   4.334 -0.4102  0.6545  0.9941
  677MOL0     N89282   4.978   6.189   4.559  0.4040 -0.3489 -0.2857
  677MOL0     N89283   5.084   6.254   4.524 -0.5603  0.5585  0.3161
  677MOL0     C89284   6.410   6.553   4.136 -0.6033 -0.0326 -0.9175
  677MOL0     C89285   6.547   6.561   4.152 -0.1165  0.2967  1.4347
  677MOL0     C89286   6.958   6.424   4.237 -0.0764  0.9773  0.1426
  677MOL0     C89287   7.027   6.502   4.340 -0.1144 -1.1675  0.4930
  677MOL0     C89288   7.165   6.505   4.342  0.4314 -0.7011  0.4810
  677MOL0     C89289   7.245   6.431   4.252  0.0336 -0.6225 -0.5832
  677MOL0     O89290   7.378   6.455   4.265 -0.2752  0.6420  0.7754
  677MOL0     C89291   7.483   6.353   4.234 -0.3585  0.8755  0.0233
  677MOL0     C89292   7.544   6.343   4.095  0.4596 -0.1699 -0.7434
  677MOL0     C89293   7.615   6.474   4.049 -0.2361  0.2872  1.0668
  677MOL0     C89294   7.709   6.448   3.931  0.2963  0.5480 -0.4414
  677MOL0     C89295   7.775   6.572   3.889 -0.2298 -0.8257  0.1717
  677MOL0     C89296   7.833   6.664   3.830 -0.3957  1.1287 -0.9488
  677MOL0     C89297   7.183   6.349   4.155 -0.1476 -1.0257 -0.1039
  677MOL0     C89298   7.040   6.348   4.149 -0.1964  0.3066 -0.1402
  677MOL0     H89299   6.553   6.571   4.488  0.2253  3.9205 -0.8364
  677MOL0     H89300   6.313   6.555   4.456 -1.0366 -0.7197  0.6564
  677MOL0     H89301   6.068   6.579   4.382 -3.5634 -0.5467 -0.4403
  677MOL0     H89302   6.121   6.400   4.362 -3.5300 -2.5470 -3.2266
  677MOL0     H89303   5.962   6.380   4.169  0.7678 -0.7739  0.7347
  677MOL0     H89304   5.923   6.558   4.204 -1.0294  0.4412  0.4515
  677MOL0     H89305   5.842   6.469   4.441 -1.3415  0.1076 -0.1084
  677MOL0     H89306   5.877   6.309   4.402 -3.8828 -1.6999  1.0477
  677MOL0     H89307   5.704   6.485   4.218  2.5307  0.0055 -0.5531
  677MOL0     H89308   5.694   6.311   4.203 -4.9225  2.2624 -0.4640
  677MOL0     H89309   5.594   6.466   4.433 -1.9555  0.3868 -0.6410
  677MOL0     H89310   5.615   6.295   4.456  0.4149 -1.6513 -1.3311
  677MOL0     H89311   5.498   6.234   4.262  0.0928 -0.2436  0.1975
  677MOL0     H89312   5.444   6.406   4.237 -1.8099  2.0280  2.2836
  677MOL0     H89313   5.361   6.247   4.491 -3.0581  1.1632  1.3699
  677MOL0     H89314   5.321   6.403   4.446  0.7470  1.0469 -1.0624
  677MOL0     H89315   5.281   6.153   4.268 -0.2272 -2.0945  1.5799
  677MOL0     H89316   5.196   6.301   4.249  1.4687  1.4697  1.4093
  677MOL0     H89317   5.030   6.038   4.272 -0.1196  0.4921 -0.6380
  677MOL0     H89318   4.754   6.034   4.558 -2.1342 -2.2190 -0.5630
  677MOL0     H89319   4.820   5.907   4.447 -3.3181 -1.4573  1.7318
  677MOL0     H89320   4.749   6.006   4.260  1.9798 -1.6229  1.1244
  677MOL0     H89321   4.723   6.167   4.347  2.5269  0.1938  3.3291
  677MOL0     H89322   4.538   6.088   4.457  1.2403  0.3375 -0.3877
  677MOL0     H89323   4.506   6.062   4.292 -2.0503  1.2896  1.1101
  677MOL0     H89324   4.582   5.859   4.507  0.7451  0.5666  0.0223
  677MOL0     H89325   4.603   5.822   4.331  0.7161  0.3795 -0.7253
  677MOL0     H89326   4.180   5.845   4.343 -2.2733 -0.9105  1.2571
  677MOL0     H89327   4.057   5.669   4.234  0.6264  1.1818 -2.0226
  677MOL0     H89328   3.960   5.237   4.072  1.8006  1.4449  1.9752
  677MOL0     H89329   3.869   5.006   4.058  0.9954 -0.2497 -3.6134
  677MOL0     H89330   4.002   4.708   3.962 -0.4342 -0.3878 -1.9954
  677MOL0     H89331   3.856   4.817   3.975  1.3466  0.1982 -0.7722
  677MOL0     H89332   3.892   4.534   4.116 -1.2702 -0.8191 -1.1210
  677MOL0     H89333   3.812   4.559   3.960 -1.5479  1.3701 -0.6772
  677MOL0     H89334   3.662   4.729   4.056  0.5753  0.9271  0.0915
  677MOL0     H89335   3.749   4.709   4.211 -0.5399 -1.3314  1.0897
  677MOL0     H89336   3.638   4.450   4.096  3.2637 -1.8960  0.5261
  677MOL0     H89337   3.705   4.475   4.238  1.2418  0.7707 -0.8363
  677MOL0     H89338   3.438   4.495   4.263 -0.6831  1.6298 -0.3272
  677MOL0     H89339   3.444   4.618   4.150  0.1915 -2.4109 -1.7820
  677MOL0     H89340   3.414   4.677   4.389 -1.6132 -0.0585 -1.2953
  677MOL0     H89341   3.555   4.764   4.317  2.2731 -0.8266 -0.3006
  677MOL0     H89342   3.705   4.577   4.408 -1.1644 -2.0181 -1.0640
  677MOL0     H89343   3.632   4.678   4.534 -1.0485  0.3545 -0.5414
  677MOL0     H89344   3.603   4.483   4.620  0.9354  0.4193  0.0416
  677MOL0     H89345   3.602   4.397   4.462 -0.5593 -0.4531  2.2904
  677MOL0     H89346   4.237   4.862   4.244 -0.3593  0.9856  2.2051
  677MOL0     H89347   4.312   5.075   4.250  0.0649 -0.5778  0.6310
  677MOL0     H89348   4.398   5.412   4.263 -0.5119 -1.6544  1.6035
  677MOL0     H89349   4.528   5.604   4.355  0.1761  0.2565 -1.8533
  677MOL0     H89350   6.373   6.527   4.037  0.4729  0.1782 -1.3872
  677MOL0     H89351   6.617   6.558   4.070  0.2944  0.9050  1.7580
  677MOL0     H89352   6.966   6.550   4.416  0.2051 -2.7128  1.7856
  677MOL0     H89353   7.222   6.578   4.397  1.3742 -0.1158 -1.2088
  677MOL0     H89354   7.442   6.253   4.246  1.8471 -0.3626 -1.8875
  677MOL0     H89355   7.565   6.371   4.304  1.0961 -3.8104 -0.1378
  677MOL0     H89356   7.612   6.257   4.098  1.2226  0.3578  3.0397
  677MOL0     H89357   7.467   6.330   4.019  0.5753 -0.4912 -0.8077
  677MOL0     H89358   7.678   6.499   4.135 -1.2212 -0.3538  2.0155
  677MOL0     H89359   7.543   6.554   4.027 -0.1390  0.2642  0.6644
  677MOL0     H89360   7.782   6.370   3.957 -1.1582 -0.8879 -0.4625
  677MOL0     H89361   7.651   6.403   3.851  1.5339  0.4571 -1.3177
  677MOL0     H89362   7.887   6.740   3.777  0.9172  1.3348  0.6381
  677MOL0     H89363   7.245   6.312   4.074  1.0509  3.9788 -1.8316
  677MOL0     H89364   6.990   6.282   4.079 -0.3535  1.7537 -1.4561
  678MOL0     O89365   1.914  10.686   2.248  0.7845  0.6817 -0.7013
  678MOL0     C89366   1.889  10.776   2.168  0.2000 -0.4350 -0.2546
  678MOL0     O89367   1.982  10.854   2.096 -0.2721  0.3885  0.0718
  678MOL0     C89368   2.116  10.837   2.103 -0.0041  0.0075 -0.0676
  678MOL0     C89369   2.194  10.768   2.201 -0.7730 -0.2437  0.1782
  678MOL0     C89370   2.334  10.753   2.187  0.3948  0.0917 -0.0862
  678MOL0     C89371   2.399  10.824   2.090 -0.2329  0.5963  0.4664
  678MOL0     O89372   2.536  10.829   2.099  0.1243 -0.2445  0.2208
  678MOL0     C89373   2.598  10.933   2.030 -0.1404  0.3646 -0.6589
  678MOL0     C89374   2.741  10.929   2.080 -0.3426  0.1048 -1.2202
  678MOL0     C89375   2.813  11.060   2.055  0.2838  0.0070 -0.2786
  678MOL0     C89376   2.964  11.068   2.082  0.2808 -0.2880 -0.2788
  678MOL0     C89377   3.002  11.027   2.227 -0.4293 -1.1608 -0.5598
  678MOL0     C89378   3.152  11.039   2.252 -0.3062 -0.3951  0.0374
  678MOL0     C89379   3.170  11.050   2.404  0.1226 -0.6316 -0.0385
  678MOL0     C89380   3.320  11.043   2.440  0.0849 -0.1319  0.3944
  678MOL0     N89381   3.344  11.044   2.585 -0.9223 -0.0268  0.0661
  678MOL0     C89382   3.333  10.942   2.679 -0.3721 -0.5240 -0.3762
  678MOL0     C89383   3.374  11.000   2.790  0.4819  0.5301  0.3372
  678MOL0     C89384   3.380  10.940   2.929 -0.3267 -1.2060  0.3382
  678MOL0     C89385   3.241  10.967   2.993  0.4643  0.0900 -0.0030
  678MOL0     C89386   3.227  10.865   3.097  0.7983  0.0475  0.5288
  678MOL0     C89387   3.100  10.898   3.179  0.3205  0.1256  1.0165
  678MOL0     O89388   3.062  10.795   3.254 -0.1520  0.0606  1.4225
  678MOL0     C89389   2.948  10.814   3.334 -0.9207 -0.3903 -0.3754
  678MOL0     C89390   2.889  10.700   3.376 -0.0011 -0.5352 -0.7060
  678MOL0     C89391   2.777  10.698   3.448  0.3892 -0.4890 -0.0457
  678MOL0     C89392   2.717  10.818   3.486  0.6738  0.2932  0.1387
  678MOL0     C89393   2.583  10.820   3.553  0.3202  0.3880  0.2514
  678MOL0     O89394   2.532  10.940   3.582 -0.3539 -0.3527 -0.0669
  678MOL0     C89395   2.392  10.953   3.609  0.4716 -0.4986 -0.2722
  678MOL0     C89396   2.316  10.857   3.687  0.7542 -0.4574  0.0233
  678MOL0     C89397   2.183  10.886   3.720  0.5661 -0.0532 -0.5157
  678MOL0     C89398   2.113  10.997   3.670  0.5278 -0.4576 -0.1367
  678MOL0     O89399   1.987  11.019   3.724 -0.9360 -0.2318 -0.0628
  678MOL0     C89400   1.928  11.144   3.712 -0.0129  0.8056  0.6466
  678MOL0     C89401   1.822  11.145   3.817  0.0282 -0.3084 -0.4949
  678MOL0     C89402   1.890  11.155   3.955 -0.4088  0.1160 -0.3354
  678MOL0     C89403   1.800  11.150   4.082  0.5696 -0.7908 -0.4678
  678MOL0     C89404   1.728  11.010   4.081  0.6119  0.2748  0.7616
  678MOL0     C89405   1.633  10.980   4.196 -0.3243 -0.1458 -0.5111
  678MOL0     C89406   1.533  10.865   4.169  0.1340  0.0719  0.5438
  678MOL0     C89407   1.457  10.833   4.300  0.1661 -0.4037 -0.2591
  678MOL0    Cl89408   1.337  10.977   4.333 -0.1348  0.0713 -0.0146
  678MOL0     C89409   2.185  11.081   3.576  1.0289  0.7751 -0.0952
  678MOL0     C89410   2.320  11.058   3.548 -0.0769 -0.1274  0.5693
  678MOL0     O89411   2.525  10.716   3.564 -0.0058  0.0956  0.0606
  678MOL0     C89412   2.780  10.939   3.449 -0.1646  0.2871  0.3625
  678MOL0     C89413   2.899  10.940   3.379  0.2440 -0.9614 -0.2163
  678MOL0     N89414   3.405  11.139   2.767 -0.2302  0.7598 -1.1952
  678MOL0     N89415   3.368  11.167   2.644  0.6406 -0.7839 -0.1760
  678MOL0     C89416   2.323  10.907   2.001  0.1112 -0.3317  0.7206
  678MOL0     C89417   2.180  10.896   2.001 -0.2928  0.5660 -0.4108
  678MOL0     C89418   1.743  10.821   2.167 -0.0236 -0.5722  0.1404
  678MOL0     C89419   1.709  10.954   2.143  0.7629  0.4193  0.0105
  678MOL0     C89420   1.573  10.995   2.153  0.3741 -0.1544  0.4145
  678MOL0     C89421   1.475  10.907   2.204 -0.7431 -0.4430  0.5126
  678MOL0     O89422   1.345  10.931   2.225 -0.0308 -0.5615 -0.0524
  678MOL0     C89423   1.288  11.062   2.194  0.5949 -0.0945  0.4977
  678MOL0     C89424   1.237  11.080   2.048  0.2572  0.6036 -0.3199
  678MOL0     C89425   1.184  10.948   1.990 -0.0828  0.4387  1.0674
  678MOL0     C89426   1.132  10.967   1.853 -0.2007 -0.1989 -0.8045
  678MOL0     C89427   1.092  10.834   1.803  0.6160 -0.1422  0.2909
  678MOL0     C89428   1.067  10.723   1.769  0.5653 -0.3588 -0.1948
  678MOL0     C89429   1.513  10.778   2.225 -0.8855  0.1506 -0.1465
  678MOL0     C89430   1.646  10.736   2.201  0.4248  0.6219  0.3724
  678MOL0     H89431   2.145  10.728   2.289 -2.4607  1.2093 -0.0429
  678MOL0     H89432   2.393  10.701   2.261  1.0021  1.2025  0.2466
  678MOL0     H89433   2.558  11.029   2.065 -0.4200  0.1972 -0.5212
  678MOL0     H89434   2.591  10.924   1.921 -4.0958  1.0612 -0.6202
  678MOL0     H89435   2.794  10.849   2.027  0.0267 -1.0885  0.8129
  678MOL0     H89436   2.750  10.894   2.184  2.9305 -0.2923 -1.5248
  678MOL0     H89437   2.758  11.147   2.094 -0.7184  0.5913 -2.8118
  678MOL0     H89438   2.795  11.077   1.949  1.0600 -0.9686 -0.5758
  678MOL0     H89439   3.009  11.006   2.004  0.1145  2.4641 -2.7202
  678MOL0     H89440   3.000  11.170   2.066  2.9511 -0.9359  1.1257
  678MOL0     H89441   2.957  10.930   2.253 -2.4666 -0.3918 -0.9869
  678MOL0     H89442   2.960  11.100   2.297  0.4735 -0.3123 -0.9036
  678MOL0     H89443   3.191  11.128   2.201  1.5174 -0.4194  1.2924
  678MOL0     H89444   3.203  10.954   2.206  4.2727  3.3222 -2.6645
  678MOL0     H89445   3.127  11.148   2.427  0.2484 -0.8547  1.1911
  678MOL0     H89446   3.122  10.967   2.457 -0.0690  1.4912  3.3662
  678MOL0     H89447   3.383  11.127   2.408  1.7489  0.2392  4.0690
  678MOL0     H89448   3.365  10.951   2.402 -1.7118 -0.9877  0.2871
  678MOL0     H89449   3.305  10.840   2.656  2.9481 -1.2187 -1.9485
  678MOL0     H89450   3.454  10.976   3.000  0.6158 -0.0955 -1.1317
  678MOL0     H89451   3.406  10.833   2.929 -0.9504 -1.3735 -0.3690
  678MOL0     H89452   3.170  10.950   2.911  0.7294  1.0500 -0.4505
  678MOL0     H89453   3.239  11.070   3.030 -0.8212  1.3054 -3.1055
  678MOL0     H89454   3.209  10.768   3.048  2.3013  0.4628 -0.8993
  678MOL0     H89455   3.313  10.853   3.163  0.4191 -0.4380  0.9482
  678MOL0     H89456   3.021  10.904   3.103  1.1624 -3.6374 -0.3829
  678MOL0     H89457   3.128  10.986   3.238  2.2083  1.2928 -1.4449
  678MOL0     H89458   2.925  10.605   3.337  0.9194 -0.4248 -0.1616
  678MOL0     H89459   2.729  10.602   3.466 -1.8126  0.1786 -1.8179
  678MOL0     H89460   2.364  10.765   3.721 -1.3848 -2.4520 -2.0285
  678MOL0     H89461   2.130  10.820   3.788 -0.6937  0.5026 -0.9303
  678MOL0     H89462   1.892  11.148   3.608  2.0158 -0.1483 -0.1607
  678MOL0     H89463   2.008  11.217   3.729  2.9614 -2.0806  0.1103
  678MOL0     H89464   1.765  11.051   3.813 -1.3159  0.5005 -2.2102
  678MOL0     H89465   1.754  11.229   3.801 -0.8388 -0.4967  1.8586
  678MOL0     H89466   1.931  11.256   3.963 -0.4720  0.0181  2.7897
  678MOL0     H89467   1.970  11.080   3.963 -0.1840  0.0966 -2.3338
  678MOL0     H89468   1.850  11.163   4.179 -1.2439 -2.7358  0.8169
  678MOL0     H89469   1.722  11.227   4.084 -0.1509 -1.3553 -3.0213
  678MOL0     H89470   1.797  10.926   4.067  2.2542  2.0059 -3.0729
  678MOL0     H89471   1.661  11.010   3.995  0.2306 -1.1809  1.0365
  678MOL0     H89472   1.584  11.077   4.202  0.9336  0.4994 -0.3656
  678MOL0     H89473   1.682  10.945   4.288 -2.7779 -0.7784  0.6577
  678MOL0     H89474   1.459  10.893   4.093 -1.4767 -0.5987  1.8050
  678MOL0     H89475   1.583  10.776   4.130 -0.2227  0.4730 -0.8729
  678MOL0     H89476   1.522  10.818   4.387 -0.0866  1.2302  0.2504
  678MOL0     H89477   1.398  10.742   4.290 -0.1119 -0.0352 -2.4921
  678MOL0     H89478   2.139  11.170   3.535  0.1242 -0.2754 -1.4312
  678MOL0     H89479   2.365  11.129   3.480  0.1422 -0.9482 -0.1583
  678MOL0     H89480   2.741  11.034   3.484 -1.6677 -0.0511 -0.2781
  678MOL0     H89481   2.949  11.035   3.366  0.1506 -0.9923 -0.8029
  678MOL0     H89482   2.369  10.972   1.928 -1.4490 -1.0258 -0.9676
  678MOL0     H89483   2.125  10.938   1.917  2.6659  2.6380 -1.4824
  678MOL0     H89484   1.788  11.027   2.130  1.3343 -0.4645 -1.8603
  678MOL0     H89485   1.558  11.102   2.136  0.3369 -0.2664 -0.2482
  678MOL0     H89486   1.363  11.138   2.218  0.6141 -0.7940  2.9704
  678MOL0     H89487   1.202  11.073   2.262 -0.8550 -1.7719 -0.9791
  678MOL0     H89488   1.161  11.158   2.050  1.2370  1.5632  0.2782
  678MOL0     H89489   1.314  11.114   1.979  1.4313  1.5922  1.4089
  678MOL0     H89490   1.116  10.901   2.061 -0.5503 -2.9049 -1.3706
  678MOL0     H89491   1.269  10.879   1.983 -0.5589 -0.1676  1.1980
  678MOL0     H89492   1.052  11.040   1.840 -1.0413 -0.7873  0.7800
  678MOL0     H89493   1.212  11.003   1.787 -0.2402  0.5248 -0.4656
  678MOL0     H89494   1.062  10.619   1.748  1.4908 -0.2132 -1.2148
  678MOL0     H89495   1.446  10.698   2.255 -1.4601  0.2703 -1.0701
  678MOL0     H89496   1.675  10.632   2.211  0.6602  0.7078  0.5581
  679MOL0     O89497   0.445   8.105   9.198 -1.6154 -0.0318  0.1559
  679MOL0     C89498   0.503   8.004   9.239 -0.4973  0.3343  0.7136
  679MOL0     O89499   0.443   7.889   9.282 -1.0303  0.3011 -0.2690
  679MOL0     C89500   0.312   7.890   9.309 -0.2274  0.8673  0.4968
  679MOL0     C89501   0.233   7.782   9.260 -0.1582 -0.1026 -0.1293
  679MOL0     C89502   0.097   7.769   9.289 -0.0021 -0.3599 -0.1569
  679MOL0     C89503   0.032   7.865   9.373 -0.1520  0.6113  0.7279
  679MOL0     O89504  -0.104   7.875   9.395  0.4624 -0.8339  0.0532
  679MOL0     C89505  -0.179   7.779   9.324 -0.5271  0.0543 -0.2895
  679MOL0     C89506  -0.334   7.781   9.356  0.1888  0.3171  0.0491
  679MOL0     C89507  -0.411   7.901   9.312  0.6989 -0.2600  0.5596
  679MOL0     C89508  -0.415   7.912   9.157  0.1907 -0.3550 -0.0103
  679MOL0     C89509  -0.541   7.994   9.111  0.8419 -0.4210 -0.2927
  679MOL0     C89510  -0.668   7.911   9.101  0.1319  0.5036 -0.1122
  679MOL0     C89511  -0.774   7.993   9.042 -0.5935  0.3185 -0.8175
  679MOL0     C89512  -0.901   7.912   9.028 -0.0336  0.3160  0.2349
  679MOL0     N89513  -1.012   7.985   8.978 -0.5746  0.1363 -0.5267
  679MOL0     C89514  -1.122   8.025   9.047 -0.4525 -0.0017  0.2844
  679MOL0     C89515  -1.214   8.072   8.956  0.4632  0.3703  0.4051
  679MOL0     C89516  -1.351   8.120   8.976  0.1563  0.0149  0.0338
  679MOL0     C89517  -1.451   8.025   9.041 -1.0210 -0.2132 -0.0785
  679MOL0     C89518  -1.571   8.119   9.085 -0.7179  0.5343  0.6015
  679MOL0     C89519  -1.707   8.049   9.104  0.3852  0.0663 -0.0490
  679MOL0     O89520  -1.792   8.137   9.187 -0.3990  0.0489  0.1793
  679MOL0     C89521  -1.928   8.113   9.184 -0.5317 -0.4769 -0.0739
  679MOL0     C89522  -1.999   8.179   9.283  0.4748  1.1698 -0.2941
  679MOL0     C89523  -2.139   8.166   9.294 -0.0196 -0.1473  0.1160
  679MOL0     C89524  -2.206   8.070   9.220 -0.5176  0.2607  0.0800
  679MOL0     C89525  -2.345   8.058   9.240  0.3610  0.2354  0.0175
  679MOL0     O89526  -2.408   7.956   9.172 -0.2437 -0.1089  0.1849
  679MOL0     C89527  -2.527   7.889   9.220 -0.4337 -0.6737 -0.4751
  679MOL0     C89528  -2.558   7.780   9.148  0.4912  0.6720  1.0015
  679MOL0     C89529  -2.671   7.705   9.183  0.1071  0.2418  0.1542
  679MOL0     C89530  -2.751   7.731   9.293 -0.8375 -0.6476  0.1436
  679MOL0     O89531  -2.867   7.661   9.307 -0.1880 -0.4119  0.5974
  679MOL0     C89532  -2.955   7.684   9.416 -0.9453 -0.5890  0.4744
  679MOL0     C89533  -3.085   7.614   9.397 -0.0326  0.7246 -0.0009
  679MOL0     C89534  -3.180   7.647   9.509  0.2629 -0.6486  0.7954
  679MOL0     C89535  -3.304   7.556   9.513  1.0352 -0.6487  0.1946
  679MOL0     C89536  -3.399   7.555   9.632  0.1371  0.1064 -0.6030
  679MOL0     C89537  -3.520   7.470   9.612 -0.0076  0.2671 -0.1672
  679MOL0     C89538  -3.585   7.457   9.746 -0.4225 -0.2129 -0.3573
  679MOL0     C89539  -3.713   7.370   9.736  0.7715  0.1166 -0.4766
  679MOL0    Cl89540  -3.760   7.344   9.899  0.7003  0.1906 -0.3853
  679MOL0     C89541  -2.712   7.844   9.369  0.5760  0.8817  0.1154
  679MOL0     C89542  -2.600   7.915   9.341  0.4089 -0.3582  1.2329
  679MOL0     O89543  -2.404   8.140   9.311 -0.1610  0.3914 -0.6447
  679MOL0     C89544  -2.130   7.994   9.126  0.2136  0.5749  1.0653
  679MOL0     C89545  -1.995   8.021   9.104 -0.0162 -0.4157  0.0579
  679MOL0     N89546  -1.156   8.052   8.831 -0.2074 -0.3025 -0.4534
  679MOL0     N89547  -1.042   8.003   8.847  0.0933 -0.1550 -0.5070
  679MOL0     C89548   0.111   7.957   9.427 -0.7612  0.2259  0.1807
  679MOL0     C89549   0.257   7.972   9.410  0.6822  0.3162 -0.3557
  679MOL0     C89550   0.646   8.002   9.240  0.9061 -0.2025  0.0882
  679MOL0     C89551   0.719   8.110   9.189 -0.1467 -0.3547  0.0305
  679MOL0     C89552   0.861   8.113   9.179  1.6122  0.6642 -0.2151
  679MOL0     C89553   0.935   7.996   9.213 -0.1549 -0.0454  0.1763
  679MOL0     O89554   1.066   7.994   9.175  0.2899 -0.0536 -0.2932
  679MOL0     C89555   1.146   7.875   9.184  0.0987  0.3833 -0.3365
  679MOL0     C89556   1.281   7.894   9.108  0.5267  0.2216 -0.4989
  679MOL0     C89557   1.366   7.770   9.128  0.1507 -0.4366  0.0209
  679MOL0     C89558   1.343   7.654   9.029  0.7164  0.7510 -1.4413
  679MOL0     C89559   1.210   7.587   9.044  0.1412  0.1932  0.3410
  679MOL0     C89560   1.106   7.525   9.046  0.3852  0.9345  0.2545
  679MOL0     C89561   0.856   7.888   9.245  0.4275  1.6808  0.3449
  679MOL0     C89562   0.719   7.889   9.267 -0.1705 -0.0288  0.6430
  679MOL0     H89563   0.276   7.704   9.197  3.1924  0.4114  1.3254
  679MOL0     H89564   0.043   7.683   9.251  0.5277 -0.4455 -0.7178
  679MOL0     H89565  -0.134   7.684   9.354  2.7529  2.0994  1.9224
  679MOL0     H89566  -0.165   7.792   9.216 -2.6041 -2.6543 -1.0020
  679MOL0     H89567  -0.343   7.768   9.464 -0.8760 -0.5338 -0.1307
  679MOL0     H89568  -0.379   7.693   9.310  1.9264 -0.8899  0.5482
  679MOL0     H89569  -0.371   7.995   9.349 -0.7073  0.9421 -0.8197
  679MOL0     H89570  -0.517   7.898   9.341  0.7540  0.0886  0.7989
  679MOL0     H89571  -0.330   7.969   9.118  0.1353 -1.5745 -2.0655
  679MOL0     H89572  -0.417   7.812   9.114 -0.8658 -0.8443  1.1003
  679MOL0     H89573  -0.522   8.028   9.009  0.7431 -0.7346 -0.4144
  679MOL0     H89574  -0.550   8.081   9.178  0.6899  2.0300 -3.2849
  679MOL0     H89575  -0.691   7.866   9.197  3.4400 -3.5565 -0.9084
  679MOL0     H89576  -0.638   7.819   9.049  0.1376 -0.1688  1.0562
  679MOL0     H89577  -0.790   8.082   9.104  0.4705 -2.0347  3.2055
  679MOL0     H89578  -0.752   8.023   8.939  1.3448 -0.4582 -0.6695
  679MOL0     H89579  -0.928   7.873   9.127  0.0676 -0.8178 -0.1733
  679MOL0     H89580  -0.873   7.827   8.965  1.1468  1.3130 -0.6389
  679MOL0     H89581  -1.138   8.022   9.154 -0.0713  0.0709  0.3462
  679MOL0     H89582  -1.399   8.138   8.879 -2.3165 -1.0321  0.9679
  679MOL0     H89583  -1.343   8.211   9.036 -0.1263 -0.6688  1.1455
  679MOL0     H89584  -1.403   7.977   9.127  0.8435  0.4431 -0.6994
  679MOL0     H89585  -1.492   7.959   8.964 -1.4787  0.9688 -0.8815
  679MOL0     H89586  -1.541   8.169   9.177  0.2376  0.6688  0.2275
  679MOL0     H89587  -1.584   8.189   9.002  1.6332 -1.6886 -1.8426
  679MOL0     H89588  -1.695   7.955   9.159 -1.1623 -0.6834 -0.9436
  679MOL0     H89589  -1.755   8.041   9.006 -1.2995 -0.8102  0.8207
  679MOL0     H89590  -1.957   8.249   9.354  0.7465 -0.6063  1.3552
  679MOL0     H89591  -2.178   8.235   9.368  1.0995  2.0977 -1.2721
  679MOL0     H89592  -2.509   7.742   9.059 -1.5748 -0.3966  0.2430
  679MOL0     H89593  -2.684   7.615   9.123  2.1521  0.9225 -1.4381
  679MOL0     H89594  -2.966   7.793   9.420 -2.0766 -0.6160 -1.0571
  679MOL0     H89595  -2.908   7.671   9.515 -2.3663  2.6889  1.7405
  679MOL0     H89596  -3.067   7.506   9.394  2.2037  1.0665 -0.9259
  679MOL0     H89597  -3.137   7.638   9.304 -0.3299 -0.8085 -0.2722
  679MOL0     H89598  -3.209   7.752   9.516 -0.5363 -0.7867 -0.1163
  679MOL0     H89599  -3.135   7.631   9.607 -0.9387 -3.1026  1.0438
  679MOL0     H89600  -3.367   7.588   9.429  0.1671  0.0834  1.1171
  679MOL0     H89601  -3.268   7.454   9.491 -0.6759 -0.7283 -2.8282
  679MOL0     H89602  -3.444   7.653   9.647 -0.7896 -0.5358  1.1047
  679MOL0     H89603  -3.348   7.514   9.721 -1.2200 -1.8148 -0.6468
  679MOL0     H89604  -3.482   7.373   9.578 -0.2664  1.1251 -3.2317
  679MOL0     H89605  -3.575   7.511   9.526  2.8417  2.6410 -1.0459
  679MOL0     H89606  -3.511   7.411   9.812 -0.3956  0.7524  0.3081
  679MOL0     H89607  -3.602   7.557   9.788  2.1992 -0.9937  3.0262
  679MOL0     H89608  -3.683   7.273   9.695 -2.9962 -1.2604 -0.3424
  679MOL0     H89609  -3.793   7.418   9.680  3.2871  0.4005 -4.1387
  679MOL0     H89610  -2.761   7.853   9.466  4.6072  0.5214  2.4197
  679MOL0     H89611  -2.572   7.997   9.407  1.2681  2.0799 -1.9034
  679MOL0     H89612  -2.174   7.907   9.076  2.6646  0.0390 -0.3088
  679MOL0     H89613  -1.955   7.965   9.020  0.4334  1.1327 -0.7849
  679MOL0     H89614   0.077   8.034   9.496  0.4535 -0.4742  1.6109
  679MOL0     H89615   0.320   8.038   9.470 -1.0596  0.9273  0.8778
  679MOL0     H89616   0.663   8.201   9.173  1.1997  0.3062 -1.2424
  679MOL0     H89617   0.910   8.205   9.151 -1.4054  2.6685  0.5790
  679MOL0     H89618   1.084   7.794   9.145  1.4842 -1.1996  0.5948
  679MOL0     H89619   1.168   7.851   9.289 -0.4241  1.0908 -0.0549
  679MOL0     H89620   1.263   7.921   9.004  0.0500 -0.7160 -0.6707
  679MOL0     H89621   1.330   7.980   9.155  0.2617  1.1956 -1.9488
  679MOL0     H89622   1.349   7.732   9.230 -1.8719 -0.0679 -0.1378
  679MOL0     H89623   1.471   7.798   9.120  0.0001 -0.4010 -2.7870
  679MOL0     H89624   1.334   7.690   8.926 -0.9072 -0.2735 -1.6887
  679MOL0     H89625   1.425   7.584   9.049 -0.1875  0.0885  0.1266
  679MOL0     H89626   1.018   7.465   9.054  0.7781  0.5881  2.6912
  679MOL0     H89627   0.906   7.793   9.265  1.5826  2.3695  0.8533
  679MOL0     H89628   0.688   7.796   9.313  0.0254 -0.3937  0.0428
  680MOL0     O89629   5.293   9.175   1.014  0.5741  0.0755  0.5431
  680MOL0     C89630   5.304   9.050   1.031  0.6172 -0.0861 -0.2154
  680MOL0     O89631   5.197   8.955   1.004 -0.0677  0.2080  0.0033
  680MOL0     C89632   5.082   9.000   0.944  0.1264 -0.1731  0.3343
  680MOL0     C89633   5.072   9.100   0.846 -0.6587 -0.6218 -0.5618
  680MOL0     C89634   4.956   9.139   0.796  0.8315  0.0650  1.4278
  680MOL0     C89635   4.834   9.083   0.844  0.2872  0.3170 -0.1888
  680MOL0     O89636   4.712   9.112   0.803 -0.4904 -0.1073  0.0739
  680MOL0     C89637   4.697   9.191   0.687 -0.0698 -0.6709  0.0297
  680MOL0     C89638   4.550   9.221   0.642  0.3414 -0.6441 -0.3948
  680MOL0     C89639   4.483   9.096   0.587 -0.4789  0.7695 -0.4380
  680MOL0     C89640   4.346   9.127   0.533 -0.1676  0.3117 -0.7924
  680MOL0     C89641   4.263   9.001   0.504 -0.0765 -0.1873 -0.7597
  680MOL0     C89642   4.127   9.021   0.436 -0.2580 -0.8223 -0.3862
  680MOL0     C89643   4.046   8.902   0.418  0.5489  0.5991 -0.6181
  680MOL0     C89644   4.016   8.825   0.557 -0.2919  1.1331  0.1197
  680MOL0     N89645   4.027   8.679   0.540 -0.3766 -0.0366 -0.1137
  680MOL0     C89646   4.149   8.612   0.532 -0.7590 -0.7499 -0.2888
  680MOL0     C89647   4.115   8.483   0.532 -0.1051 -0.0305  1.0663
  680MOL0     C89648   4.204   8.360   0.521  0.3949  0.3219  0.0205
  680MOL0     C89649   4.323   8.364   0.428 -0.4046  0.0029  0.3289
  680MOL0     C89650   4.414   8.238   0.445  0.1463  0.5796  0.1459
  680MOL0     C89651   4.540   8.266   0.538 -0.0514  1.3919 -0.2070
  680MOL0     O89652   4.637   8.362   0.486 -0.3005  1.3403  0.4868
  680MOL0     C89653   4.762   8.378   0.542  0.2881  1.3858  0.1542
  680MOL0     C89654   4.794   8.330   0.669  0.6060 -1.1976 -0.7436
  680MOL0     C89655   4.932   8.351   0.716  0.6886 -0.1367 -0.2485
  680MOL0     C89656   5.036   8.413   0.645  0.5508 -0.2240 -0.6102
  680MOL0     C89657   5.176   8.406   0.683  0.3282 -1.2306 -0.6043
  680MOL0     O89658   5.200   8.390   0.820 -0.0766 -0.3570  1.0102
  680MOL0     C89659   5.322   8.387   0.869  0.4359  0.2505 -1.0154
  680MOL0     C89660   5.402   8.500   0.884  0.6361 -0.8652  0.1348
  680MOL0     C89661   5.523   8.495   0.934 -0.3588 -0.0674 -0.0626
  680MOL0     C89662   5.575   8.369   0.979 -0.4243 -0.2915  0.0217
  680MOL0     O89663   5.703   8.338   1.030  0.7117 -0.1370  0.3797
  680MOL0     C89664   5.804   8.444   1.021  0.6732 -0.5351  1.0863
  680MOL0     C89665   5.937   8.372   1.045 -0.0386  0.2294  0.6211
  680MOL0     C89666   5.933   8.304   1.183 -0.4652 -0.0910 -0.4499
  680MOL0     C89667   6.050   8.215   1.211  0.3241 -0.7554  0.3212
  680MOL0     C89668   6.065   8.189   1.360  0.3121  0.0790 -0.2497
  680MOL0     C89669   6.158   8.069   1.397  0.0424  0.4264  0.0096
  680MOL0     C89670   6.164   8.048   1.549 -0.1875  0.3766  0.0452
  680MOL0     C89671   6.258   7.927   1.576  0.6558 -0.7943 -0.6118
  680MOL0    Cl89672   6.265   7.890   1.747 -0.2979 -0.0228  0.3109
  680MOL0     C89673   5.490   8.255   0.984  0.2034 -0.1980 -0.1162
  680MOL0     C89674   5.367   8.269   0.924 -0.2831  0.9876 -0.0143
  680MOL0     O89675   5.260   8.446   0.601  0.2917  0.5160 -0.1415
  680MOL0     C89676   4.996   8.459   0.515  0.3000  0.0594 -0.3811
  680MOL0     C89677   4.866   8.437   0.472 -0.3227 -1.0644  0.2066
  680MOL0     N89678   3.976   8.480   0.537  0.1389  0.5999 -0.4277
  680MOL0     N89679   3.924   8.589   0.554 -0.0990 -0.0703  0.2719
  680MOL0     C89680   4.840   8.977   0.942  0.1613 -0.3227  0.3550
  680MOL0     C89681   4.964   8.942   0.998 -0.0266 -0.5715 -0.7371
  680MOL0     C89682   5.435   8.995   1.071  0.3800 -0.3548 -0.0549
  680MOL0     C89683   5.441   8.863   1.080 -0.8596 -0.3211  0.4047
  680MOL0     C89684   5.560   8.801   1.133  0.0938 -0.7122 -0.0699
  680MOL0     C89685   5.676   8.877   1.158  0.4071 -0.4814  0.1865
  680MOL0     O89686   5.785   8.806   1.180  0.1985 -0.3221 -0.5719
  680MOL0     C89687   5.893   8.879   1.249  0.6882  0.0759 -0.1503
  680MOL0     C89688   5.981   8.777   1.320 -0.0251 -0.0402  0.3617
  680MOL0     C89689   6.087   8.703   1.241 -0.1326  0.6112 -0.1132
  680MOL0     C89690   6.160   8.608   1.332  0.0183  0.4989 -0.2421
  680MOL0     C89691   6.252   8.543   1.241  0.2300  0.1983  0.4840
  680MOL0     C89692   6.308   8.475   1.159  0.1047  0.2054 -0.0173
  680MOL0     C89693   5.668   9.020   1.140  0.3680 -0.2197  0.8592
  680MOL0     C89694   5.541   9.076   1.110  0.6578 -0.3801  0.2513
  680MOL0     H89695   5.161   9.147   0.805 -0.0410 -1.5035 -0.2443
  680MOL0     H89696   4.946   9.209   0.713  1.8363 -1.5058 -0.0844
  680MOL0     H89697   4.751   9.139   0.608  2.6332 -0.5789  1.6841
  680MOL0     H89698   4.736   9.289   0.716 -0.5761 -0.8294  1.3247
  680MOL0     H89699   4.550   9.300   0.566 -3.7956  2.9402  2.7853
  680MOL0     H89700   4.496   9.253   0.732 -1.1260 -0.1654 -1.4216
  680MOL0     H89701   4.479   9.025   0.670  2.3128 -1.4496 -2.0099
  680MOL0     H89702   4.547   9.061   0.506  3.3283  2.0813  1.7233
  680MOL0     H89703   4.295   9.187   0.609  1.6090  1.5328 -0.5123
  680MOL0     H89704   4.356   9.185   0.441 -3.0336 -0.0571 -1.4151
  680MOL0     H89705   4.245   8.950   0.599  1.2193 -1.0131 -0.9335
  680MOL0     H89706   4.323   8.932   0.445  0.1348  0.1512 -0.9467
  680MOL0     H89707   4.143   9.062   0.336 -0.6072 -1.5164 -0.7304
  680MOL0     H89708   4.063   9.097   0.484  0.1357 -0.6382 -0.1475
  680MOL0     H89709   3.961   8.934   0.358 -1.9875 -0.1942  2.3109
  680MOL0     H89710   4.101   8.828   0.358  0.0323 -0.6424  0.3867
  680MOL0     H89711   3.914   8.846   0.591 -1.2855  0.0418 -1.9681
  680MOL0     H89712   4.073   8.851   0.646 -1.6751  0.9392  1.1097
  680MOL0     H89713   4.246   8.660   0.533 -0.5322 -1.0406  3.0945
  680MOL0     H89714   4.136   8.278   0.497  0.0719  0.4691  0.4156
  680MOL0     H89715   4.243   8.343   0.622  0.3751  0.6475  0.0823
  680MOL0     H89716   4.387   8.451   0.446  0.6258 -0.6914  0.1318
  680MOL0     H89717   4.292   8.355   0.324 -2.0456  0.0647  0.7914
  680MOL0     H89718   4.355   8.151   0.474  0.9848 -0.6194 -1.5348
  680MOL0     H89719   4.469   8.214   0.353  1.4520 -0.5717  1.1932
  680MOL0     H89720   4.597   8.173   0.551  1.8794  2.6193  0.6914
  680MOL0     H89721   4.517   8.293   0.642 -2.2664 -0.4072 -0.1596
  680MOL0     H89722   4.711   8.295   0.730  1.6628 -2.8525 -0.1916
  680MOL0     H89723   4.950   8.328   0.820  1.5281  2.4374  0.2450
  680MOL0     H89724   5.355   8.588   0.842 -0.5346 -0.3213  2.4069
  680MOL0     H89725   5.587   8.583   0.937 -0.9356  0.3251  2.2609
  680MOL0     H89726   5.773   8.530   1.081 -1.3171 -0.0950 -0.4554
  680MOL0     H89727   5.802   8.477   0.916 -1.3942  0.6677  1.4541
  680MOL0     H89728   6.020   8.443   1.045 -0.6221  1.2681  5.4914
  680MOL0     H89729   5.951   8.298   0.966 -0.6137 -0.7353  1.4031
  680MOL0     H89730   5.841   8.245   1.193 -0.3956 -0.0321  0.6463
  680MOL0     H89731   5.927   8.388   1.253  1.7430  0.9272 -1.3964
  680MOL0     H89732   6.028   8.121   1.161  1.5746 -2.3338  2.5916
  680MOL0     H89733   6.147   8.254   1.177  0.7905  0.3709  2.7304
  680MOL0     H89734   5.966   8.166   1.401  1.6615 -1.6891  2.3258
  680MOL0     H89735   6.098   8.282   1.406  1.3596  0.4763 -1.7505
  680MOL0     H89736   6.262   8.086   1.367  0.0816 -0.0144 -0.0986
  680MOL0     H89737   6.125   7.975   1.354  2.6162 -1.9607  2.8054
  680MOL0     H89738   6.206   8.132   1.605  0.9419 -1.3147  1.8879
  680MOL0     H89739   6.062   8.032   1.586  0.3367  0.4833  1.6260
  680MOL0     H89740   6.357   7.939   1.532  0.0077 -1.6822 -2.4074
  680MOL0     H89741   6.205   7.842   1.532 -1.4036  0.0168  0.1729
  680MOL0     H89742   5.525   8.164   1.032 -0.6142 -1.4355 -1.7445
  680MOL0     H89743   5.302   8.182   0.927 -0.9759  1.5252  1.1271
  680MOL0     H89744   5.078   8.491   0.451  1.9688 -0.0529  1.5646
  680MOL0     H89745   4.839   8.468   0.372 -3.4387 -2.6816  0.4295
  680MOL0     H89746   4.757   8.915   0.975  0.7930 -2.4900 -1.8023
  680MOL0     H89747   4.961   8.875   1.083 -2.7126 -2.7022 -2.3069
  680MOL0     H89748   5.350   8.803   1.073 -1.6194  0.9847 -1.9639
  680MOL0     H89749   5.567   8.697   1.162 -1.4250 -1.3236 -1.7430
  680MOL0     H89750   5.849   8.953   1.316  0.4551  1.0383 -1.3245
  680MOL0     H89751   5.967   8.920   1.179  0.7896 -0.1179 -0.1584
  680MOL0     H89752   6.025   8.823   1.409 -1.3337 -1.9265  2.0882
  680MOL0     H89753   5.907   8.701   1.347 -0.6608  0.7124  0.7706
  680MOL0     H89754   6.155   8.770   1.187 -0.8740  0.2775 -1.5038
  680MOL0     H89755   6.021   8.649   1.172 -0.0676 -0.7965  0.8944
  680MOL0     H89756   6.221   8.666   1.401 -1.8371 -0.5567  2.4298
  680MOL0     H89757   6.094   8.539   1.385  4.2469 -1.5865  2.9360
  680MOL0     H89758   6.355   8.394   1.105 -1.9742 -1.3282  0.3591
  680MOL0     H89759   5.745   9.090   1.170  0.6867 -0.9254  1.7375
  680MOL0     H89760   5.540   9.184   1.109 -0.0099 -0.3809 -0.0540
  681MOL0     O89761   8.217   4.704   5.306 -0.2103 -0.0677 -0.5565
  681MOL0     C89762   8.226   4.828   5.315  0.6582  0.6211 -0.2006
  681MOL0     O89763   8.123   4.911   5.354 -0.9707 -0.2240 -0.2198
  681MOL0     C89764   7.998   4.868   5.385  0.1052 -0.3002 -0.5284
  681MOL0     C89765   7.878   4.932   5.340 -0.4611  0.2377  0.3290
  681MOL0     C89766   7.754   4.885   5.373 -0.1413  0.5013  0.2208
  681MOL0     C89767   7.742   4.780   5.470 -0.0284 -0.1376  1.0310
  681MOL0     O89768   7.611   4.744   5.495 -0.6727 -0.4034  0.2255
  681MOL0     C89769   7.593   4.604   5.500  0.1513 -0.1527 -0.4338
  681MOL0     C89770   7.447   4.566   5.528  0.3110 -0.4445 -0.5550
  681MOL0     C89771   7.455   4.408   5.551 -0.0224 -0.6513  0.4411
  681MOL0     C89772   7.330   4.344   5.618 -0.0281  0.1384  0.0130
  681MOL0     C89773   7.204   4.351   5.527 -0.7029 -0.1709  0.4276
  681MOL0     C89774   7.107   4.461   5.565 -0.2595  0.2151 -0.5110
  681MOL0     C89775   6.969   4.434   5.501 -0.0971  0.0987  0.2725
  681MOL0     C89776   6.881   4.555   5.494 -0.0923  0.0877  0.3999
  681MOL0     N89777   6.817   4.593   5.625  0.0180 -0.0285  0.4951
  681MOL0     C89778   6.693   4.554   5.670 -0.6893  0.2069 -0.1007
  681MOL0     C89779   6.660   4.644   5.767  0.1792 -0.4229 -0.5438
  681MOL0     C89780   6.545   4.642   5.858 -0.5779  0.5153 -0.8863
  681MOL0     C89781   6.424   4.690   5.788  0.3278  0.2513 -0.3587
  681MOL0     C89782   6.310   4.684   5.881 -0.5231  0.6389  0.2440
  681MOL0     C89783   6.185   4.711   5.804  0.5251 -0.4880 -0.4075
  681MOL0     O89784   6.080   4.662   5.888 -0.1543 -0.1579 -0.2909
  681MOL0     C89785   5.951   4.713   5.866  0.3128  0.1601 -0.5386
  681MOL0     C89786   5.902   4.792   5.759 -0.3747 -0.7387 -0.1900
  681MOL0     C89787   5.773   4.827   5.748 -0.0179  0.6368  0.2214
  681MOL0     C89788   5.675   4.770   5.841 -0.0618 -0.5489 -0.3114
  681MOL0     C89789   5.534   4.802   5.813  0.2206 -0.6022 -0.0945
  681MOL0     O89790   5.448   4.784   5.903  0.3241  0.9006  0.4376
  681MOL0     C89791   5.318   4.798   5.863 -0.5379  0.2751  0.0348
  681MOL0     C89792   5.252   4.701   5.798 -0.6960  0.3650 -0.6973
  681MOL0     C89793   5.111   4.724   5.768 -0.5523  0.4200  0.0656
  681MOL0     C89794   5.044   4.837   5.803  0.7307  0.9332 -0.6623
  681MOL0     O89795   4.908   4.855   5.792  0.5921 -0.4620 -0.2678
  681MOL0     C89796   4.829   4.752   5.727  0.2878  0.3024  0.0906
  681MOL0     C89797   4.673   4.762   5.749 -0.1139 -0.1141 -0.6603
  681MOL0     C89798   4.639   4.804   5.891 -0.3011  0.4610 -0.2618
  681MOL0     C89799   4.493   4.802   5.929  0.3264  0.2834 -0.3060
  681MOL0     C89800   4.412   4.921   5.854 -0.0912 -0.4576 -1.1943
  681MOL0     C89801   4.253   4.918   5.879 -1.3776  0.5144  0.4499
  681MOL0     C89802   4.212   4.974   6.012 -0.5409 -0.2616 -0.4860
  681MOL0     C89803   4.062   4.948   6.037 -0.0535  0.0924 -0.2850
  681MOL0    Cl89804   3.971   5.036   5.912  0.3556 -0.2346 -0.0979
  681MOL0     C89805   5.115   4.931   5.863 -0.1354  0.1474 -0.8684
  681MOL0     C89806   5.254   4.914   5.894  0.1446  0.3444 -0.3850
  681MOL0     O89807   5.513   4.855   5.704  1.1301  0.3505  0.5418
  681MOL0     C89808   5.718   4.694   5.950  0.8286 -0.2625  0.0513
  681MOL0     C89809   5.856   4.671   5.967 -0.2059 -0.9409  0.1418
  681MOL0     N89810   6.763   4.743   5.776 -0.1537 -0.5058  0.2675
  681MOL0     N89811   6.857   4.712   5.688  0.5843  0.6946  0.0404
  681MOL0     C89812   7.857   4.710   5.516  0.3884 -0.3208 -0.1328
  681MOL0     C89813   7.983   4.757   5.474 -0.3478 -0.7031 -0.3478
  681MOL0     C89814   8.351   4.882   5.271  0.6391 -0.8413  0.6242
  681MOL0     C89815   8.373   5.027   5.274 -0.5096  0.7302 -0.5201
  681MOL0     C89816   8.496   5.075   5.229  0.1217  0.1379 -0.2976
  681MOL0     C89817   8.583   4.990   5.152  0.4753 -0.5369  0.1537
  681MOL0     O89818   8.699   5.035   5.100  0.5861  0.1481 -0.7230
  681MOL0     C89819   8.729   5.176   5.108  0.1566 -0.2043 -0.4037
  681MOL0     C89820   8.764   5.224   5.256 -0.6223  0.1734  0.7797
  681MOL0     C89821   8.910   5.223   5.273  0.6465 -0.2178 -0.2439
  681MOL0     C89822   8.957   5.271   5.412 -0.3696 -0.6178  0.4397
  681MOL0     C89823   9.103   5.272   5.416 -0.0510  1.0864  0.0862
  681MOL0     C89824   9.220   5.303   5.422 -0.1649 -0.1883 -0.8296
  681MOL0     C89825   8.556   4.854   5.148 -0.4414 -0.4321 -0.0296
  681MOL0     C89826   8.447   4.800   5.210  0.9122 -0.6283  0.0823
  681MOL0     H89827   7.877   5.024   5.283  0.9803  0.7664  1.0878
  681MOL0     H89828   7.661   4.927   5.336 -1.4810 -1.1498  1.5731
  681MOL0     H89829   7.656   4.564   5.580 -0.5098 -1.7928 -0.6929
  681MOL0     H89830   7.624   4.566   5.402 -0.5066 -0.4583 -0.5242
  681MOL0     H89831   7.388   4.583   5.438  1.2771  0.8221 -0.9750
  681MOL0     H89832   7.414   4.606   5.625  1.5949 -1.2498  0.2482
  681MOL0     H89833   7.538   4.383   5.617  0.5044 -0.5492 -0.1719
  681MOL0     H89834   7.474   4.360   5.454 -3.4756 -0.1441 -0.6424
  681MOL0     H89835   7.358   4.239   5.626  1.0519  0.5369  2.4047
  681MOL0     H89836   7.317   4.384   5.719  2.7824  3.2085 -0.6695
  681MOL0     H89837   7.158   4.251   5.529  0.8482 -0.9715 -1.0552
  681MOL0     H89838   7.228   4.362   5.420 -0.9650 -0.1817  0.3665
  681MOL0     H89839   7.160   4.543   5.515  4.3020 -0.6931  2.2326
  681MOL0     H89840   7.103   4.478   5.673  3.2860 -0.0370 -0.2050
  681MOL0     H89841   6.986   4.384   5.405  0.9537  0.0824  0.4492
  681MOL0     H89842   6.908   4.369   5.564 -1.7089  0.7123 -0.5947
  681MOL0     H89843   6.799   4.543   5.423  0.4077 -2.6182  0.1579
  681MOL0     H89844   6.942   4.640   5.462  1.2242 -0.1587  2.1110
  681MOL0     H89845   6.632   4.469   5.642  1.0331 -0.9691 -0.5102
  681MOL0     H89846   6.573   4.707   5.942 -0.2891 -1.6583  0.7719
  681MOL0     H89847   6.523   4.540   5.890 -0.8975  0.8215 -0.1070
  681MOL0     H89848   6.392   4.632   5.701  0.0626  0.5806 -0.4792
  681MOL0     H89849   6.444   4.794   5.764 -0.5987  0.2662 -1.1150
  681MOL0     H89850   6.303   4.585   5.927 -5.3157  1.8510  2.7819
  681MOL0     H89851   6.327   4.758   5.960 -1.2655 -0.3676  1.3888
  681MOL0     H89852   6.188   4.668   5.704  0.9631  1.9311 -1.5168
  681MOL0     H89853   6.178   4.818   5.782  0.9398 -0.5744 -0.9764
  681MOL0     H89854   5.971   4.827   5.683 -1.6932 -0.4431 -1.2943
  681MOL0     H89855   5.727   4.903   5.685 -1.2460 -0.7664 -0.6466
  681MOL0     H89856   5.301   4.607   5.774  0.2589  0.5431  0.4457
  681MOL0     H89857   5.061   4.637   5.726  1.4105 -0.8300  0.2085
  681MOL0     H89858   4.859   4.657   5.773 -1.2332 -2.0491 -3.3564
  681MOL0     H89859   4.857   4.730   5.623  0.2592 -0.8157  0.3130
  681MOL0     H89860   4.642   4.658   5.730 -1.8325  0.0029  1.1488
  681MOL0     H89861   4.630   4.821   5.668  1.7183  2.0233 -0.1567
  681MOL0     H89862   4.681   4.903   5.909  0.8106 -0.2065  1.0601
  681MOL0     H89863   4.692   4.734   5.956  0.1330 -0.6021 -1.7008
  681MOL0     H89864   4.450   4.707   5.895 -2.7287  2.3270 -2.7580
  681MOL0     H89865   4.493   4.806   6.039  0.6679 -1.8711 -0.1841
  681MOL0     H89866   4.434   4.915   5.747 -0.7712  1.9302 -1.5268
  681MOL0     H89867   4.442   5.023   5.881 -4.0391  0.8445 -0.9710
  681MOL0     H89868   4.233   4.811   5.864  1.8470 -0.1022 -0.4619
  681MOL0     H89869   4.199   4.975   5.802 -2.4285  0.0087  0.7988
  681MOL0     H89870   4.268   4.921   6.090  1.1027 -0.3005 -1.6175
  681MOL0     H89871   4.230   5.081   6.012 -0.2659 -0.2564 -2.5859
  681MOL0     H89872   4.028   4.988   6.133 -3.5209 -3.0591  0.0295
  681MOL0     H89873   4.035   4.842   6.044 -2.0272  0.6527  1.6314
  681MOL0     H89874   5.066   5.020   5.903 -1.1827 -2.4426  4.5918
  681MOL0     H89875   5.311   4.991   5.945 -1.1251  2.3094 -1.7703
  681MOL0     H89876   5.648   4.654   6.023  2.7267 -0.2609  1.9714
  681MOL0     H89877   5.897   4.606   6.044  2.4564 -1.2022 -1.3683
  681MOL0     H89878   7.865   4.626   5.584 -0.6364 -0.2603  0.0791
  681MOL0     H89879   8.072   4.711   5.517 -0.7883 -1.3269 -0.1022
  681MOL0     H89880   8.300   5.089   5.325  0.1352 -0.6138  2.1990
  681MOL0     H89881   8.500   5.181   5.251 -2.9863  0.0276  1.3530
  681MOL0     H89882   8.643   5.237   5.079  1.2436  0.8352 -1.5005
  681MOL0     H89883   8.806   5.200   5.034  2.6133 -0.5835  1.8846
  681MOL0     H89884   8.727   5.324   5.283  1.8756  1.3078  0.2934
  681MOL0     H89885   8.714   5.155   5.325  1.4607 -2.5464 -0.2689
  681MOL0     H89886   8.948   5.289   5.194 -0.7479  0.0643 -0.7036
  681MOL0     H89887   8.956   5.125   5.258  1.9821  0.0096  2.0139
  681MOL0     H89888   8.922   5.373   5.424  0.5110  0.4750 -4.3834
  681MOL0     H89889   8.935   5.202   5.494  0.3587  1.0236  2.0794
  681MOL0     H89890   9.319   5.343   5.405  0.2865  0.1399  2.0788
  681MOL0     H89891   8.630   4.794   5.097 -0.6935 -1.0365  0.3076
  681MOL0     H89892   8.425   4.694   5.199  0.7914 -0.6198  0.2339
  682MOL0     O89893   8.445   6.972   3.030  0.1012 -0.1655 -0.3334
  682MOL0     C89894   8.481   6.865   2.995  0.8200  0.2008  0.2993
  682MOL0     O89895   8.405   6.756   2.964  0.2000 -0.0407 -0.4036
  682MOL0     C89896   8.273   6.764   2.927  0.1634 -0.7260  0.1133
  682MOL0     C89897   8.198   6.877   2.903 -0.6747 -0.5262  0.0439
  682MOL0     C89898   8.057   6.871   2.870  0.1093 -0.3468  1.0807
  682MOL0     C89899   7.994   6.749   2.856  0.1880 -0.4612 -0.7511
  682MOL0     O89900   7.861   6.755   2.810  0.6605  0.0397  0.0452
  682MOL0     C89901   7.784   6.634   2.807  0.2952  0.7143  0.4404
  682MOL0     C89902   7.649   6.653   2.744 -0.5305  0.3698  0.9402
  682MOL0     C89903   7.559   6.740   2.824 -0.7228  0.4095 -0.6584
  682MOL0     C89904   7.412   6.697   2.798 -0.0217 -0.2674  0.4295
  682MOL0     C89905   7.312   6.796   2.862 -0.1633 -0.5417  0.1152
  682MOL0     C89906   7.170   6.737   2.854 -0.3249  0.1838  0.5020
  682MOL0     C89907   7.066   6.829   2.924  0.3781 -0.7213  0.7190
  682MOL0     C89908   6.927   6.786   2.909 -0.1222 -0.1193 -0.0775
  682MOL0     N89909   6.832   6.866   2.994  0.2310 -0.0785 -0.3494
  682MOL0     C89910   6.741   6.810   3.084 -1.0109  0.7303 -0.1017
  682MOL0     C89911   6.653   6.908   3.116  0.3657  0.4467  0.3443
  682MOL0     C89912   6.540   6.907   3.214 -0.5698 -0.2498 -0.1271
  682MOL0     C89913   6.406   6.892   3.143  0.5825  0.6720  0.4480
  682MOL0     C89914   6.358   7.037   3.093 -0.6921 -0.9309  0.4245
  682MOL0     C89915   6.217   7.009   3.046  0.5161 -0.7488  0.2349
  682MOL0     O89916   6.129   6.978   3.156 -0.1006 -0.2144  0.1072
  682MOL0     C89917   6.043   7.076   3.185  0.3294  0.2601  0.5647
  682MOL0     C89918   5.913   7.047   3.169 -0.4246  0.1732 -0.2833
  682MOL0     C89919   5.816   7.141   3.208 -0.6814 -0.4507  0.9697
  682MOL0     C89920   5.850   7.255   3.277  0.6568 -0.8948  0.0376
  682MOL0     C89921   5.737   7.352   3.319 -0.6477 -0.0185  0.5375
  682MOL0     O89922   5.784   7.474   3.364  0.5440 -0.3878 -0.5431
  682MOL0     C89923   5.691   7.547   3.443  0.0841  0.1069 -0.4924
  682MOL0     C89924   5.676   7.523   3.576 -0.1065  0.8936 -0.5436
  682MOL0     C89925   5.589   7.601   3.658  0.0752  0.0648  0.6233
  682MOL0     C89926   5.503   7.697   3.601 -0.1602  0.7511 -0.1334
  682MOL0     O89927   5.394   7.740   3.661  0.2892 -0.6691 -0.5440
  682MOL0     C89928   5.348   7.688   3.778  0.2555  0.4272  0.1284
  682MOL0     C89929   5.229   7.770   3.820  0.7677 -0.6725  0.8499
  682MOL0     C89930   5.105   7.753   3.722 -0.3684 -0.5271  0.5626
  682MOL0     C89931   5.076   7.602   3.699 -0.3578 -0.7435 -0.1240
  682MOL0     C89932   4.942   7.584   3.632  0.4383 -0.0358  0.0934
  682MOL0     C89933   4.934   7.642   3.485 -0.1868 -0.0274  0.1492
  682MOL0     C89934   4.792   7.606   3.419 -0.8521 -0.0846 -1.3307
  682MOL0     C89935   4.765   7.679   3.296 -0.7752  0.8192  0.0804
  682MOL0    Cl89936   4.605   7.632   3.230 -0.1158  0.0121  0.6305
  682MOL0     C89937   5.521   7.724   3.469  0.7777  0.0885 -0.5660
  682MOL0     C89938   5.613   7.653   3.390 -0.3604  0.4659  0.3549
  682MOL0     O89939   5.619   7.316   3.310 -0.4824  0.1265 -0.2549
  682MOL0     C89940   5.979   7.287   3.284  0.4977  0.6182 -0.2448
  682MOL0     C89941   6.077   7.195   3.244 -0.9223 -0.6365 -0.1279
  682MOL0     N89942   6.690   7.019   3.041 -0.3458  0.0544  0.3164
  682MOL0     N89943   6.806   6.997   2.987  0.7240 -0.2564  0.7908
  682MOL0     C89944   8.067   6.630   2.886  0.2654 -0.1748  0.6411
  682MOL0     C89945   8.202   6.643   2.925  0.3362 -0.4694  0.4312
  682MOL0     C89946   8.624   6.835   3.011  0.0527 -1.0010  0.1033
  682MOL0     C89947   8.663   6.700   3.017 -1.2647  0.2523  0.1706
  682MOL0     C89948   8.802   6.677   3.036  0.9860 -0.0835  0.5278
  682MOL0     C89949   8.900   6.776   3.041 -0.2246 -0.1887  1.0698
  682MOL0     O89950   9.034   6.747   3.058 -0.0021 -0.6384 -0.5466
  682MOL0     C89951   9.137   6.847   3.052 -0.4637  0.2112  0.4995
  682MOL0     C89952   9.138   6.928   3.183 -0.2032 -0.4644 -0.4266
  682MOL0     C89953   9.226   6.855   3.280 -0.8422  0.1824  0.6972
  682MOL0     C89954   9.160   6.876   3.432 -0.2750 -0.6573  1.3093
  682MOL0     C89955   9.152   7.016   3.472 -0.3778 -0.8528 -0.5035
  682MOL0     C89956   9.136   7.130   3.513  0.4489 -0.2743 -0.9875
  682MOL0     C89957   8.857   6.911   3.026 -0.3946 -0.0481  0.2152
  682MOL0     C89958   8.722   6.936   3.021  0.9895 -0.2730  0.4716
  682MOL0     H89959   8.247   6.974   2.912  1.8523 -1.7076 -0.1200
  682MOL0     H89960   7.997   6.960   2.862 -0.6642 -0.8560  1.0893
  682MOL0     H89961   7.775   6.594   2.908 -2.3528 -1.3722 -0.5025
  682MOL0     H89962   7.841   6.559   2.751 -2.2760 -2.2687  1.5610
  682MOL0     H89963   7.607   6.553   2.728  1.4625 -0.3998  0.2331
  682MOL0     H89964   7.666   6.710   2.653 -2.1602 -0.1128  0.2941
  682MOL0     H89965   7.582   6.843   2.794  0.2665  0.4029  0.0251
  682MOL0     H89966   7.588   6.727   2.928  0.5191 -2.3322 -1.2664
  682MOL0     H89967   7.394   6.707   2.690 -0.3612  3.4546  0.6695
  682MOL0     H89968   7.397   6.595   2.833 -0.6927 -1.3501 -2.6774
  682MOL0     H89969   7.307   6.891   2.808 -1.3842 -1.2362 -1.0814
  682MOL0     H89970   7.349   6.809   2.964 -0.2463  0.7125 -0.0013
  682MOL0     H89971   7.177   6.644   2.912 -0.2495  0.3633  0.7861
  682MOL0     H89972   7.139   6.722   2.751 -0.3083 -2.2502  0.7949
  682MOL0     H89973   7.083   6.834   3.032  1.0542  2.4188  0.5670
  682MOL0     H89974   7.073   6.931   2.886 -0.7866 -0.4963  1.0734
  682MOL0     H89975   6.932   6.680   2.934  3.4874 -0.6020 -2.1544
  682MOL0     H89976   6.898   6.803   2.805  0.6020 -1.2947 -0.4928
  682MOL0     H89977   6.743   6.707   3.118  3.0177  0.1098 -1.6140
  682MOL0     H89978   6.552   7.001   3.268  1.8322 -0.7599  0.3424
  682MOL0     H89979   6.547   6.826   3.287 -0.5375 -0.3380 -0.2270
  682MOL0     H89980   6.340   6.844   3.216  0.7952 -0.7130 -0.2336
  682MOL0     H89981   6.412   6.813   3.067  0.2439 -1.6139  2.6581
  682MOL0     H89982   6.363   7.114   3.171  1.1071  1.2202 -1.6521
  682MOL0     H89983   6.426   7.077   3.018 -0.3643 -1.2041  0.5744
  682MOL0     H89984   6.214   6.930   2.971  2.4655  0.5266 -1.2924
  682MOL0     H89985   6.181   7.100   2.996  1.6312 -1.1749 -1.4139
  682MOL0     H89986   5.894   6.948   3.131  0.4040 -0.0855 -0.0437
  682MOL0     H89987   5.713   7.124   3.178 -0.5766  1.0101 -0.3999
  682MOL0     H89988   5.745   7.453   3.622  2.6595  3.6132 -0.2568
  682MOL0     H89989   5.590   7.596   3.766 -1.4499  1.6179  0.7565
  682MOL0     H89990   5.419   7.696   3.861 -3.1178  1.2668  3.1673
  682MOL0     H89991   5.328   7.581   3.772  1.2031  0.2648 -0.4293
  682MOL0     H89992   5.269   7.870   3.836 -0.7639 -0.0844  1.2275
  682MOL0     H89993   5.195   7.732   3.917  1.1088 -1.5012  0.6559
  682MOL0     H89994   5.125   7.803   3.627 -0.8404 -0.4371  0.5048
  682MOL0     H89995   5.021   7.797   3.777  1.2743  0.2393  2.6150
  682MOL0     H89996   5.153   7.561   3.633 -1.1552 -1.8056 -0.4182
  682MOL0     H89997   5.072   7.542   3.790 -4.4182  0.2000  0.5192
  682MOL0     H89998   4.859   7.627   3.690  2.7584  4.2276  0.5924
  682MOL0     H89999   4.922   7.476   3.640 -2.4475  0.2631 -1.7226
  682MOL0     H90000   5.009   7.588   3.427 -1.1199 -3.1038  1.6286
  682MOL0     H90001   4.947   7.751   3.482 -4.4685  0.6769 -0.0593
  682MOL0     H90002   4.787   7.497   3.411 -0.5458 -0.9005  4.7712
  682MOL0     H90003   4.715   7.635   3.491 -1.2833  0.0924 -1.8588
  682MOL0     H90004   4.840   7.653   3.221 -1.7183 -1.2633 -0.1982
  682MOL0     H90005   4.759   7.786   3.319 -1.9818  0.7474  0.1724
  682MOL0     H90006   5.465   7.805   3.424 -0.2155 -0.0163  0.4537
  682MOL0     H90007   5.619   7.667   3.283  0.6239 -2.0213  0.0249
  682MOL0     H90008   6.003   7.376   3.342 -0.3745  0.3653  0.5350
  682MOL0     H90009   6.174   7.231   3.275 -1.8419  2.0918 -0.1483
  682MOL0     H90010   8.014   6.536   2.888 -0.9173  0.4563  0.1317
  682MOL0     H90011   8.258   6.552   2.946  1.0090 -0.1903 -0.1107
  682MOL0     H90012   8.595   6.622   2.984 -0.6653 -0.3331  0.3129
  682MOL0     H90013   8.854   6.582   3.025 -2.9413 -2.2325 -1.9219
  682MOL0     H90014   9.130   6.908   2.961  0.9394 -0.7452 -0.2928
  682MOL0     H90015   9.229   6.787   3.046 -1.6618 -1.6013 -1.0905
  682MOL0     H90016   9.189   7.024   3.182  0.5955 -0.8530  0.8264
  682MOL0     H90017   9.038   6.933   3.228 -1.6187 -1.6005 -3.1719
  682MOL0     H90018   9.327   6.896   3.274 -0.5815 -0.2198  1.9261
  682MOL0     H90019   9.238   6.747   3.266  1.0018  0.1367  2.2421
  682MOL0     H90020   9.063   6.825   3.434 -1.2108  0.7479 -2.0345
  682MOL0     H90021   9.224   6.817   3.498  2.0917 -1.3242 -1.3660
  682MOL0     H90022   9.119   7.230   3.548 -1.1125  0.5330 -3.6933
  682MOL0     H90023   8.927   6.994   3.024 -0.1793 -0.2319 -0.0371
  682MOL0     H90024   8.688   7.038   3.032  1.6522  0.1023 -0.7228
  683MOL0     O90025  10.776   6.518  10.500 -0.3137  0.1642  0.6243
  683MOL0     C90026  10.737   6.424  10.568 -0.2681  1.3257 -0.2869
  683MOL0     O90027  10.602   6.402  10.600  0.1709 -0.3177  0.1876
  683MOL0     C90028  10.506   6.456  10.519  0.6468 -0.0781 -0.1226
  683MOL0     C90029  10.391   6.504  10.586 -0.0210 -0.1630 -0.4858
  683MOL0     C90030  10.273   6.535  10.520  0.2545 -0.3101 -0.1021
  683MOL0     C90031  10.272   6.544  10.382 -0.4497 -0.4644  0.4974
  683MOL0     O90032  10.154   6.592  10.324  0.3856  0.0293  0.4986
  683MOL0     C90033  10.140   6.592  10.181 -0.2157  0.3066 -0.1485
  683MOL0     C90034  10.019   6.661  10.122 -0.4330  0.7394  0.0068
  683MOL0     C90035   9.895   6.624  10.197  0.1774 -0.4037 -0.1305
  683MOL0     C90036   9.767   6.716  10.150 -0.7714  0.0613 -0.0663
  683MOL0     C90037   9.642   6.685  10.230  0.1529  0.0040 -0.8508
  683MOL0     C90038   9.515   6.733  10.169 -0.3547  0.2522 -0.1716
  683MOL0     C90039   9.386   6.672  10.247 -0.2745  0.3477  0.5362
  683MOL0     C90040   9.258   6.700  10.166 -0.4781 -0.0613  0.2458
  683MOL0     N90041   9.124   6.676  10.237 -0.3566  0.8756  0.0146
  683MOL0     C90042   9.072   6.546  10.250 -0.3444 -0.4053  0.3350
  683MOL0     C90043   8.973   6.570  10.341 -0.2733  0.3374 -0.0175
  683MOL0     C90044   8.890   6.461  10.408 -0.0531  0.0633  0.0373
  683MOL0     C90045   8.741   6.478  10.385 -0.3954  0.6117  0.2934
  683MOL0     C90046   8.675   6.352  10.439 -0.6383  0.0465 -0.7703
  683MOL0     C90047   8.530   6.387  10.461  0.0377 -0.2291  0.8341
  683MOL0     O90048   8.453   6.421  10.340  0.0640  0.4061 -0.2648
  683MOL0     C90049   8.314   6.433  10.349  0.1634 -0.1761  0.8397
  683MOL0     C90050   8.252   6.371  10.241 -0.1879  0.1629  1.1266
  683MOL0     C90051   8.116   6.369  10.237  0.9455 -0.1479 -0.2157
  683MOL0     C90052   8.035   6.428  10.331  0.2731 -0.5808  0.6099
  683MOL0     C90053   7.881   6.423  10.318 -0.0574  0.0578 -0.8999
  683MOL0     O90054   7.817   6.377  10.206 -0.4164  0.1618  0.3869
  683MOL0     C90055   7.675   6.368  10.196  0.1579 -0.2631  0.4579
  683MOL0     C90056   7.613   6.407  10.073  0.6903 -0.0510 -0.5334
  683MOL0     C90057   7.474   6.400  10.058 -0.2939 -0.7830 -0.4275
  683MOL0     C90058   7.398   6.353  10.169  0.0067 -0.4333  1.0392
  683MOL0     O90059   7.266   6.380  10.149  0.1773 -0.1064 -0.0656
  683MOL0     C90060   7.174   6.321  10.246  0.1431 -0.8513 -0.7652
  683MOL0     C90061   7.038   6.373  10.251  0.1914 -0.4026  1.0925
  683MOL0     C90062   6.958   6.319  10.367  0.1326  0.3948 -0.7329
  683MOL0     C90063   6.804   6.322  10.346  0.1182  0.5116  0.6271
  683MOL0     C90064   6.737   6.277  10.479 -0.3013 -0.8207  0.4148
  683MOL0     C90065   6.597   6.233  10.451 -0.5340  0.1934 -0.3374
  683MOL0     C90066   6.515   6.248  10.579  0.2220 -0.3609 -0.0686
  683MOL0     C90067   6.392   6.165  10.569 -0.3034 -0.1262 -0.7571
  683MOL0    Cl90068   6.279   6.228  10.443  0.5092  0.1667  0.6704
  683MOL0     C90069   7.460   6.307  10.290 -0.0270 -0.0767 -0.2443
  683MOL0     C90070   7.599   6.321  10.304 -0.3948  0.0598 -0.3337
  683MOL0     O90071   7.825   6.455  10.422  0.2705  0.6175 -0.2484
  683MOL0     C90072   8.095   6.490  10.441 -0.0390 -0.1274  0.6802
  683MOL0     C90073   8.244   6.491  10.452  0.0619  0.2475  0.2059
  683MOL0     N90074   8.953   6.709  10.371 -0.6693 -0.6310 -0.2992
  683MOL0     N90075   9.054   6.766  10.304 -0.1662  0.2307 -0.4881
  683MOL0     C90076  10.385   6.495  10.308 -1.0616 -0.4771 -0.2240
  683MOL0     C90077  10.501   6.448  10.373  0.7364 -0.4056  0.0236
  683MOL0     C90078  10.831   6.316  10.604  0.1117 -0.2866  0.0305
  683MOL0     C90079  10.773   6.189  10.630  0.1923 -0.0561 -0.4077
  683MOL0     C90080  10.859   6.082  10.663 -0.1391  0.1869 -0.1579
  683MOL0     C90081  11.000   6.095  10.639 -0.8623  0.5185 -0.4445
  683MOL0     O90082  11.091   5.999  10.674  0.6103 -0.1714  1.6014
  683MOL0     C90083  11.130   5.924  10.559  0.3758  0.2268 -0.2569
  683MOL0     C90084  11.280   5.887  10.556 -0.6149  0.1469 -0.0807
  683MOL0     C90085  11.369   5.986  10.482  0.2731 -0.0584 -0.0166
  683MOL0     C90086  11.349   5.961  10.331  0.2837 -0.2308 -0.2271
  683MOL0     C90087  11.421   5.842  10.294  0.1543  0.1952 -0.1341
  683MOL0     C90088  11.486   5.739  10.268 -0.4595 -0.3768 -0.5655
  683MOL0     C90089  11.050   6.225  10.602  0.3953 -0.4190  0.0148
  683MOL0     C90090  10.966   6.333  10.593 -0.1457 -1.1873  0.3348
  683MOL0     H90091  10.396   6.485  10.693  4.2509 -1.2740 -0.7149
  683MOL0     H90092  10.186   6.563  10.580  1.3850  0.6126  1.1688
  683MOL0     H90093  10.152   6.498  10.127 -1.2666  1.1258 -1.8937
  683MOL0     H90094  10.223   6.654  10.145  0.0887  0.8228  1.3687
  683MOL0     H90095  10.003   6.634  10.017 -1.0300 -1.1644  0.5583
  683MOL0     H90096  10.036   6.769  10.132  0.9987  0.4112  1.4374
  683MOL0     H90097   9.910   6.655  10.300 -1.4287  2.2412 -0.5889
  683MOL0     H90098   9.876   6.517  10.184  0.2030 -0.2954 -1.2086
  683MOL0     H90099   9.798   6.819  10.173  1.2949 -0.9014  1.8650
  683MOL0     H90100   9.740   6.700  10.046 -0.9326  3.2574 -0.6131
  683MOL0     H90101   9.654   6.733  10.328  1.9254 -1.5080 -0.2476
  683MOL0     H90102   9.639   6.577  10.248 -0.1410  0.3343  1.3869
  683MOL0     H90103   9.526   6.697  10.067  3.1198  0.5974 -0.0463
  683MOL0     H90104   9.522   6.841  10.187 -1.5558  0.1236  1.2722
  683MOL0     H90105   9.396   6.563  10.251  1.3925  0.2398 -3.1055
  683MOL0     H90106   9.371   6.721  10.344  0.7850  0.8170  0.4769
  683MOL0     H90107   9.260   6.636  10.077 -0.2389 -1.6604  1.3738
  683MOL0     H90108   9.272   6.801  10.126  0.6793 -1.1736 -2.4592
  683MOL0     H90109   9.089   6.452  10.199  0.4524 -0.7682  1.2428
  683MOL0     H90110   8.909   6.481  10.514  1.5716  2.5078 -0.6287
  683MOL0     H90111   8.927   6.360  10.392 -1.1527 -0.2995 -0.3319
  683MOL0     H90112   8.714   6.485  10.279 -0.8376  2.0309  0.4825
  683MOL0     H90113   8.713   6.567  10.441 -0.8546 -0.0388  1.1309
  683MOL0     H90114   8.698   6.270  10.370 -0.0082  1.9205 -2.9244
  683MOL0     H90115   8.724   6.322  10.532 -0.5997 -0.2572 -0.8876
  683MOL0     H90116   8.528   6.471  10.531 -2.4336  0.8021 -0.3351
  683MOL0     H90117   8.477   6.303  10.506 -1.9148  0.4674 -0.0435
  683MOL0     H90118   8.310   6.317  10.166 -0.8207  1.3884 -0.3159
  683MOL0     H90119   8.069   6.324  10.150 -1.2275  0.3179  0.6746
  683MOL0     H90120   7.678   6.446   9.995  1.7674 -0.6754  0.0231
  683MOL0     H90121   7.426   6.432   9.966 -1.3698  2.2907  1.0503
  683MOL0     H90122   7.218   6.350  10.342  2.9273 -2.7593 -1.3267
  683MOL0     H90123   7.172   6.212  10.235  0.1505 -0.8096 -1.2108
  683MOL0     H90124   6.992   6.329  10.161 -0.1359 -1.2792  1.6671
  683MOL0     H90125   7.022   6.480  10.240  0.0445 -0.6437 -1.7898
  683MOL0     H90126   6.978   6.389  10.449 -1.8128  1.3427 -1.0161
  683MOL0     H90127   6.980   6.216  10.396 -2.8235 -0.3069 -0.6368
  683MOL0     H90128   6.768   6.423  10.325  1.7911  1.0715  0.3220
  683MOL0     H90129   6.782   6.253  10.263 -1.6644 -3.2347  3.8654
  683MOL0     H90130   6.736   6.361  10.548  0.4568  0.0871 -0.6455
  683MOL0     H90131   6.793   6.201  10.534 -1.4151  0.8155  4.1229
  683MOL0     H90132   6.589   6.128  10.424 -2.4101  0.0848  0.4972
  683MOL0     H90133   6.541   6.283  10.371  0.6300 -0.7957 -1.8246
  683MOL0     H90134   6.571   6.225  10.670 -0.2596  0.8343  0.5484
  683MOL0     H90135   6.486   6.353  10.589  3.8885  0.8443 -0.5554
  683MOL0     H90136   6.339   6.155  10.664  0.5193 -1.0872 -0.3747
  683MOL0     H90137   6.435   6.066  10.548  0.9385 -0.0807  1.3099
  683MOL0     H90138   7.408   6.267  10.377  0.3058  0.0626  0.0199
  683MOL0     H90139   7.646   6.307  10.401 -1.0214  1.2269  0.1542
  683MOL0     H90140   8.034   6.543  10.514  1.5229  2.3040  0.3557
  683MOL0     H90141   8.293   6.528  10.541  0.2155  0.4089  0.0535
  683MOL0     H90142  10.404   6.512  10.202  1.2659 -0.7514  0.0948
  683MOL0     H90143  10.587   6.412  10.316 -1.0437  1.3302 -4.2499
  683MOL0     H90144  10.666   6.175  10.643  0.3806 -0.5971  0.8110
  683MOL0     H90145  10.823   5.990  10.708 -2.0617  0.8020 -0.3523
  683MOL0     H90146  11.088   5.963  10.466 -3.8298  0.8614  1.6819
  683MOL0     H90147  11.082   5.828  10.578  2.3898 -0.6191  0.8425
  683MOL0     H90148  11.324   5.873  10.655  0.0186  1.5233 -0.1275
  683MOL0     H90149  11.291   5.791  10.506  2.6122  0.1046  0.4459
  683MOL0     H90150  11.476   5.979  10.506  0.6602  1.6186 -1.0459
  683MOL0     H90151  11.337   6.088  10.503 -0.4911 -0.3450  0.2539
  683MOL0     H90152  11.247   5.943  10.297 -0.2351  1.1459  0.5299
  683MOL0     H90153  11.379   6.052  10.277 -0.9403  1.3614  1.6389
  683MOL0     H90154  11.544   5.650  10.251  3.5861  1.9155  0.0853
  683MOL0     H90155  11.157   6.233  10.589  0.0804  0.8153 -2.4921
  683MOL0     H90156  11.015   6.427  10.571 -2.4924  0.7129  2.7007
  684MOL0     O90157   1.199   0.169   7.561 -0.0218 -0.7663  0.2100
  684MOL0     C90158   1.260   0.201   7.461 -0.0792  0.7681 -0.4697
  684MOL0     O90159   1.239   0.146   7.345 -0.2572 -0.2612  0.5215
  684MOL0     C90160   1.127   0.077   7.324  0.6495  1.0699 -0.3909
  684MOL0     C90161   1.133  -0.059   7.298  0.3490  0.6615  0.4730
  684MOL0     C90162   1.021  -0.136   7.263  0.4398  0.8518  0.4650
  684MOL0     C90163   0.894  -0.068   7.253 -0.0983  0.6355  0.7344
  684MOL0     O90164   0.783  -0.131   7.207 -0.0519  0.1676 -0.4451
  684MOL0     C90165   0.739  -0.242   7.286  0.0393  0.1366  0.1314
  684MOL0     C90166   0.585  -0.278   7.247 -0.3290 -0.0977  0.6107
  684MOL0     C90167   0.486  -0.170   7.302 -0.1620  0.5407  0.3881
  684MOL0     C90168   0.340  -0.199   7.268 -0.1648  0.4899  0.4284
  684MOL0     C90169   0.248  -0.097   7.335 -0.2332  0.0678  1.2282
  684MOL0     C90170   0.106  -0.119   7.280  0.4430 -0.1197  0.1212
  684MOL0     C90171   0.006  -0.008   7.316 -0.3450 -0.1078 -0.1937
  684MOL0     C90172  -0.003   0.023   7.460  0.9418  0.2700  0.9282
  684MOL0     N90173  -0.108   0.122   7.490  0.5085  0.4949 -0.6354
  684MOL0     C90174  -0.102   0.251   7.467 -0.4543 -0.4669  0.1998
  684MOL0     C90175  -0.220   0.302   7.500  0.4774 -0.4642 -0.5098
  684MOL0     C90176  -0.247   0.446   7.489  0.4430 -0.5039  0.2438
  684MOL0     C90177  -0.307   0.492   7.625  0.5197 -0.4899 -0.0571
  684MOL0     C90178  -0.343   0.643   7.641 -0.4792  0.5437 -0.1580
  684MOL0     C90179  -0.403   0.658   7.777 -1.1239  0.3439  0.3355
  684MOL0     O90180  -0.432   0.793   7.793  0.4578 -0.3913 -0.6091
  684MOL0     C90181  -0.522   0.833   7.885 -0.7136  0.2734  0.3041
  684MOL0     C90182  -0.544   0.966   7.881  0.5098 -0.1939 -0.7117
  684MOL0     C90183  -0.624   1.039   7.977  0.0032 -0.0942  0.4292
  684MOL0     C90184  -0.682   0.965   8.077  0.9530  0.0242  0.2603
  684MOL0     C90185  -0.772   1.022   8.176  0.1164  0.2505 -0.6499
  684MOL0     O90186  -0.828   0.937   8.262  0.1474  0.2750 -0.3560
  684MOL0     C90187  -0.900   0.970   8.370  0.0535 -0.0122 -0.7059
  684MOL0     C90188  -1.011   0.897   8.393 -0.5984 -0.1105  0.5165
  684MOL0     C90189  -1.088   0.915   8.508  0.5520 -1.3745 -0.2059
  684MOL0     C90190  -1.059   1.021   8.599 -0.3957  0.1703  0.0533
  684MOL0     O90191  -1.118   1.058   8.711  0.1898  0.6320 -0.5651
  684MOL0     C90192  -1.257   1.033   8.720  0.4530 -0.5427 -0.1269
  684MOL0     C90193  -1.303   0.911   8.787 -0.3174 -0.3380  0.0624
  684MOL0     C90194  -1.456   0.906   8.798  0.5633  0.2648 -0.8405
  684MOL0     C90195  -1.486   0.785   8.900 -0.1718  0.2346  0.1591
  684MOL0     C90196  -1.630   0.788   8.939  0.4565 -0.4269 -0.6517
  684MOL0     C90197  -1.735   0.757   8.831 -0.0872 -0.2309 -0.1339
  684MOL0     C90198  -1.873   0.799   8.887 -0.8899 -0.1730  0.0063
  684MOL0     C90199  -1.985   0.761   8.782 -0.0208  0.5487 -0.3729
  684MOL0    Cl90200  -1.946   0.844   8.632  0.3191  0.0456 -0.0854
  684MOL0     C90201  -0.948   1.106   8.565  0.3495  0.1395  0.9385
  684MOL0     C90202  -0.867   1.077   8.452 -0.1788 -0.5358  0.2605
  684MOL0     O90203  -0.782   1.143   8.188 -0.1445 -0.0335  0.0756
  684MOL0     C90204  -0.665   0.821   8.073 -0.7098  0.6194  0.0189
  684MOL0     C90205  -0.574   0.759   7.986  0.8988 -0.4602 -0.7802
  684MOL0     N90206  -0.302   0.200   7.553 -0.0316 -0.3256  0.0328
  684MOL0     N90207  -0.233   0.097   7.541  0.3855 -0.8808  0.2147
  684MOL0     C90208   0.888   0.065   7.288  0.1483  0.5138 -0.0868
  684MOL0     C90209   0.998   0.136   7.322 -0.9094 -0.8295  0.8400
  684MOL0     C90210   1.358   0.302   7.477  0.0860  0.3612 -0.0849
  684MOL0     C90211   1.393   0.365   7.363 -0.1997  0.1346  0.0563
  684MOL0     C90212   1.493   0.461   7.359 -0.5323 -0.1744  0.2089
  684MOL0     C90213   1.565   0.492   7.474  0.0833 -0.5108 -0.5922
  684MOL0     O90214   1.655   0.595   7.492 -0.5322 -0.8055  0.2876
  684MOL0     C90215   1.694   0.687   7.390 -0.5604 -0.2445 -0.6148
  684MOL0     C90216   1.833   0.738   7.429  0.4495 -1.0308 -0.2946
  684MOL0     C90217   1.952   0.641   7.457 -0.4475 -0.6310 -0.3452
  684MOL0     C90218   2.035   0.683   7.585  0.4337 -0.8812 -0.8377
  684MOL0     C90219   2.091   0.569   7.650  0.5951  0.7907  0.1965
  684MOL0     C90220   2.120   0.464   7.705 -0.4066  0.1958  0.6809
  684MOL0     C90221   1.535   0.423   7.589 -0.6305  0.0580  0.0674
  684MOL0     C90222   1.442   0.322   7.589 -0.2645 -0.4409  0.5708
  684MOL0     H90223   1.228  -0.111   7.294 -0.3542 -0.5930 -1.2204
  684MOL0     H90224   1.030  -0.242   7.245 -0.4903  1.0773 -1.5684
  684MOL0     H90225   0.743  -0.220   7.393  3.4271  0.1154  0.0972
  684MOL0     H90226   0.805  -0.328   7.272 -1.3299 -0.5538 -2.9507
  684MOL0     H90227   0.571  -0.379   7.286  1.1030 -1.2436 -1.6206
  684MOL0     H90228   0.581  -0.279   7.138 -0.8823  0.1399  0.6290
  684MOL0     H90229   0.512  -0.073   7.258 -0.5969  0.0121 -1.1231
  684MOL0     H90230   0.498  -0.162   7.410 -0.2906 -0.0493  0.4508
  684MOL0     H90231   0.322  -0.199   7.160 -5.0865  2.0196  1.0057
  684MOL0     H90232   0.316  -0.295   7.314  2.9683 -0.9898 -0.7955
  684MOL0     H90233   0.283   0.003   7.311  0.2410 -0.1700  0.9280
  684MOL0     H90234   0.254  -0.118   7.443  0.2771 -1.3033  0.9591
  684MOL0     H90235   0.065  -0.213   7.318  1.3514  0.2980  2.3110
  684MOL0     H90236   0.112  -0.115   7.171 -3.0549 -0.0368 -0.1510
  684MOL0     H90237   0.023   0.081   7.255  1.1894  0.0093  0.3533
  684MOL0     H90238  -0.094  -0.042   7.286 -0.0384 -0.1907 -1.1660
  684MOL0     H90239   0.097   0.055   7.492  1.5059  0.2993 -0.7602
  684MOL0     H90240  -0.015  -0.071   7.515  0.7093  0.4101  1.1170
  684MOL0     H90241  -0.007   0.289   7.433 -0.1846 -0.8271  0.5361
  684MOL0     H90242  -0.330   0.453   7.418 -0.1185  2.2172  1.0764
  684MOL0     H90243  -0.160   0.508   7.465  0.9505 -0.9453  0.9048
  684MOL0     H90244  -0.238   0.463   7.705 -0.4960  2.0151  1.8764
  684MOL0     H90245  -0.406   0.446   7.639  1.3129 -1.8425  1.5443
  684MOL0     H90246  -0.250   0.698   7.628  2.0127 -3.3578 -0.7497
  684MOL0     H90247  -0.417   0.677   7.569 -0.7347  2.8623  1.1193
  684MOL0     H90248  -0.337   0.617   7.854  0.1382  0.3208 -0.7208
  684MOL0     H90249  -0.496   0.600   7.776 -1.1271  0.3582 -0.0931
  684MOL0     H90250  -0.518   1.022   7.792 -0.0224  1.3201  0.0467
  684MOL0     H90251  -0.657   1.141   7.958 -0.4497 -0.5723 -1.6594
  684MOL0     H90252  -1.052   0.814   8.336 -3.1469  0.9852  0.6224
  684MOL0     H90253  -1.178   0.855   8.516 -1.2784  0.7515 -2.8496
  684MOL0     H90254  -1.295   1.023   8.618 -1.0389 -3.3143  0.6097
  684MOL0     H90255  -1.293   1.121   8.775 -2.0716 -1.2707 -0.4917
  684MOL0     H90256  -1.250   0.910   8.883 -0.8147  1.6558  0.3990
  684MOL0     H90257  -1.267   0.825   8.730  2.4751  1.6611 -1.4415
  684MOL0     H90258  -1.497   0.900   8.697 -1.2648 -1.9702 -0.0581
  684MOL0     H90259  -1.499   0.998   8.838  0.5429 -0.0607 -0.0924
  684MOL0     H90260  -1.464   0.684   8.864 -0.5575  0.0777  0.3536
  684MOL0     H90261  -1.425   0.807   8.989 -0.9338 -0.1427  0.7888
  684MOL0     H90262  -1.642   0.893   8.968  3.5682  0.4571 -2.0675
  684MOL0     H90263  -1.641   0.741   9.037 -1.2293  0.3440 -0.4308
  684MOL0     H90264  -1.728   0.653   8.800  3.0539 -0.2246  0.2522
  684MOL0     H90265  -1.715   0.827   8.749 -0.8260  0.8893  0.6107
  684MOL0     H90266  -1.894   0.753   8.984 -3.0582  1.4249  0.3968
  684MOL0     H90267  -1.878   0.908   8.900  1.3331 -0.2239  1.7924
  684MOL0     H90268  -2.079   0.786   8.833 -0.9046 -2.6145 -0.2595
  684MOL0     H90269  -1.983   0.652   8.774  2.0066  0.6014 -0.9959
  684MOL0     H90270  -0.927   1.196   8.622 -0.3643  1.6840 -1.1111
  684MOL0     H90271  -0.785   1.146   8.432 -1.4858  0.5983 -1.4964
  684MOL0     H90272  -0.700   0.760   8.155 -0.9146  1.4952  0.5974
  684MOL0     H90273  -0.542   0.657   8.002  3.3035  0.5301  1.3722
  684MOL0     H90274   0.787   0.105   7.287  0.5217  1.6363  1.9337
  684MOL0     H90275   0.995   0.244   7.333  2.0946 -0.2567 -2.1712
  684MOL0     H90276   1.330   0.348   7.276 -0.0433 -2.4508  0.3955
  684MOL0     H90277   1.522   0.495   7.260 -1.6207  0.7503  0.1853
  684MOL0     H90278   1.632   0.777   7.379  1.7173  1.4010 -0.6006
  684MOL0     H90279   1.712   0.634   7.296  2.3653 -1.9547  0.7858
  684MOL0     H90280   1.869   0.813   7.358 -0.4584  0.3269  0.6421
  684MOL0     H90281   1.815   0.798   7.519  1.7665 -1.2809  0.1553
  684MOL0     H90282   2.014   0.642   7.366 -1.9212 -1.4531 -1.4039
  684MOL0     H90283   1.910   0.542   7.477 -1.5733  0.0683  0.8826
  684MOL0     H90284   2.116   0.751   7.557  1.8582 -2.1505  0.0158
  684MOL0     H90285   1.973   0.732   7.659  0.8613  0.0527 -1.0832
  684MOL0     H90286   2.160   0.374   7.748 -0.0012 -1.6548 -3.1259
  684MOL0     H90287   1.597   0.451   7.674 -0.5225  1.3584 -0.4194
  684MOL0     H90288   1.430   0.257   7.675 -1.3848  0.4943  1.1428
  685MOL0     O90289  11.066   2.965   1.908 -0.1082 -0.2419  0.4904
  685MOL0     C90290  11.098   2.925   1.798 -0.1832  0.5331 -0.2396
  685MOL0     O90291  11.025   2.838   1.732  0.1423  0.6085 -0.6508
  685MOL0     C90292  10.915   2.772   1.786  0.1129 -0.1602 -0.3656
  685MOL0     C90293  10.926   2.678   1.885 -0.4318 -0.2106  0.1407
  685MOL0     C90294  10.813   2.606   1.938 -0.4344  0.3490 -0.4015
  685MOL0     C90295  10.685   2.645   1.893 -0.3078 -0.0160 -0.0416
  685MOL0     O90296  10.578   2.588   1.942  0.3503 -0.1150 -0.3249
  685MOL0     C90297  10.591   2.448   1.953 -0.9988  0.4807  0.7457
  685MOL0     C90298  10.465   2.370   1.935  0.7392  0.2428 -0.3559
  685MOL0     C90299  10.489   2.224   1.984 -0.2471 -0.0648  0.4815
  685MOL0     C90300  10.371   2.133   1.948 -0.5106 -0.2864 -0.9732
  685MOL0     C90301  10.411   1.983   1.959  0.2232 -0.2753 -0.9389
  685MOL0     C90302  10.475   1.943   2.098 -0.1588 -0.1113 -0.5300
  685MOL0     C90303  10.491   1.788   2.109  0.4237 -1.2419 -0.0641
  685MOL0     C90304  10.573   1.762   2.248  0.0226 -0.0593  0.3122
  685MOL0     N90305  10.489   1.804   2.358  0.0598  0.4798 -0.6589
  685MOL0     C90306  10.353   1.782   2.376  0.4809 -0.3711  0.0755
  685MOL0     C90307  10.319   1.854   2.487 -0.5713  0.9640  0.5506
  685MOL0     C90308  10.176   1.841   2.535 -0.3754  0.6059 -0.3680
  685MOL0     C90309  10.099   1.714   2.492  1.2092 -0.1337  0.5421
  685MOL0     C90310   9.971   1.702   2.568 -0.2926 -0.0047 -0.4111
  685MOL0     C90311   9.887   1.823   2.551 -0.1505  0.5903  0.0179
  685MOL0     O90312   9.767   1.812   2.629 -0.0930  0.1689 -0.1908
  685MOL0     C90313   9.648   1.746   2.589  0.2050  0.4256  0.1780
  685MOL0     C90314   9.643   1.655   2.480  0.3774 -0.1895 -0.3157
  685MOL0     C90315   9.532   1.579   2.453  0.8262  0.0992  0.1043
  685MOL0     C90316   9.411   1.593   2.535 -0.1326  0.3667  0.5332
  685MOL0     C90317   9.286   1.512   2.521  0.3798 -0.2640  0.8413
  685MOL0     O90318   9.172   1.555   2.581 -0.5216  0.3263  0.4199
  685MOL0     C90319   9.065   1.476   2.590  0.8598  0.5354 -0.2997
  685MOL0     C90320   8.941   1.535   2.567  0.2053 -1.1386  0.0283
  685MOL0     C90321   8.817   1.465   2.578 -0.2341 -0.1788 -0.3706
  685MOL0     C90322   8.829   1.326   2.602 -0.3335  0.9692 -0.3520
  685MOL0     O90323   8.708   1.260   2.613  0.6217  0.2690  0.5843
  685MOL0     C90324   8.709   1.119   2.653 -0.0715  0.7186 -0.4252
  685MOL0     C90325   8.567   1.066   2.658  0.0698 -0.0632 -0.7801
  685MOL0     C90326   8.510   1.028   2.523  0.1755 -0.0886  0.6253
  685MOL0     C90327   8.452   1.162   2.458 -0.1648 -0.0088  0.2407
  685MOL0     C90328   8.368   1.136   2.332 -0.3538  0.0364  0.5464
  685MOL0     C90329   8.465   1.086   2.211  0.1422  0.4716  0.2176
  685MOL0     C90330   8.388   1.043   2.084 -0.4812 -0.1073  1.1030
  685MOL0     C90331   8.488   0.987   1.976  0.4202  0.6373 -0.1730
  685MOL0    Cl90332   8.546   0.823   2.006 -0.3557 -0.1928 -0.4121
  685MOL0     C90333   8.954   1.268   2.637  0.6414 -0.4347  0.5796
  685MOL0     C90334   9.072   1.342   2.633  0.0591 -0.6667  0.6085
  685MOL0     O90335   9.291   1.412   2.451  0.2573 -0.7035 -0.3314
  685MOL0     C90336   9.415   1.682   2.641  0.0613  0.4691 -0.1989
  685MOL0     C90337   9.531   1.756   2.672  0.6602 -0.1078  0.1180
  685MOL0     N90338  10.431   1.901   2.548  0.0620  0.3218 -0.1842
  685MOL0     N90339  10.533   1.871   2.477  0.4832 -0.0011  1.0509
  685MOL0     C90340  10.671   2.737   1.792 -0.5857  0.1590  0.2115
  685MOL0     C90341  10.783   2.796   1.739 -0.5862  0.0055 -1.1912
  685MOL0     C90342  11.192   3.002   1.726  0.2555  0.3780 -0.2890
  685MOL0     C90343  11.314   3.049   1.779  0.0955 -0.1361 -1.0675
  685MOL0     C90344  11.399   3.123   1.703 -0.8912 -0.5277  0.0941
  685MOL0     C90345  11.378   3.152   1.572 -0.6795 -0.0117  0.2263
  685MOL0     O90346  11.462   3.239   1.503  0.4811  0.6669  0.0627
  685MOL0     C90347  11.427   3.285   1.371 -0.7278 -0.2690 -0.2673
  685MOL0     C90348  11.517   3.408   1.353 -0.9927 -0.2720  0.5021
  685MOL0     C90349  11.664   3.360   1.325 -0.1851 -0.0938 -0.3870
  685MOL0     C90350  11.757   3.480   1.311  0.3590 -0.3459 -0.4170
  685MOL0     C90351  11.741   3.536   1.175 -0.5777  0.3017  0.3407
  685MOL0     C90352  11.712   3.597   1.077 -0.0436  0.5855  0.5545
  685MOL0     C90353  11.269   3.086   1.509  0.1673 -0.4123  0.9088
  685MOL0     C90354  11.179   3.016   1.583  0.2112  0.0071  0.2674
  685MOL0     H90355  11.025   2.658   1.926 -0.5196 -1.3000 -0.1409
  685MOL0     H90356  10.824   2.534   2.018 -1.4790 -0.9315 -1.3635
  685MOL0     H90357  10.642   2.421   2.046 -0.9809 -2.0778  0.0756
  685MOL0     H90358  10.650   2.415   1.867 -3.7446 -1.0728 -0.6869
  685MOL0     H90359  10.438   2.369   1.829  1.0426 -1.7736 -0.4598
  685MOL0     H90360  10.391   2.415   2.001  1.8918  0.6823  0.6737
  685MOL0     H90361  10.499   2.232   2.093  0.3708  0.0284  0.4215
  685MOL0     H90362  10.583   2.193   1.937  0.4090 -1.1214  2.3840
  685MOL0     H90363  10.288   2.153   2.017 -0.1467  0.0636 -0.6318
  685MOL0     H90364  10.342   2.152   1.844  0.5629  1.9229 -0.9323
  685MOL0     H90365  10.473   1.952   1.875  0.9161  0.3704 -0.6854
  685MOL0     H90366  10.321   1.921   1.955 -0.2866  0.4470 -0.9616
  685MOL0     H90367  10.410   1.989   2.173  0.5834  2.6574 -1.4505
  685MOL0     H90368  10.575   1.986   2.110 -0.9002  1.5712 -0.0607
  685MOL0     H90369  10.391   1.743   2.114 -0.9624  1.0856 -3.4992
  685MOL0     H90370  10.547   1.749   2.023 -2.8755  0.8443 -3.4829
  685MOL0     H90371  10.668   1.817   2.253  0.1360  0.1630 -2.5803
  685MOL0     H90372  10.606   1.657   2.251  0.8999  0.2151  0.8772
  685MOL0     H90373  10.288   1.725   2.310  3.2355 -1.8503 -1.5245
  685MOL0     H90374  10.127   1.933   2.503  0.1406  2.8278  4.3215
  685MOL0     H90375  10.183   1.848   2.644 -2.2465 -0.7249 -0.1178
  685MOL0     H90376  10.157   1.624   2.515  1.9895  0.0122 -0.7604
  685MOL0     H90377  10.075   1.719   2.385 -0.2281 -0.5666  0.8226
  685MOL0     H90378   9.927   1.608   2.533 -0.4506 -0.4934  1.0231
  685MOL0     H90379   9.991   1.700   2.676 -0.8424 -0.0050 -0.3063
  685MOL0     H90380   9.862   1.841   2.446 -0.8272 -1.9699 -0.3259
  685MOL0     H90381   9.941   1.904   2.602 -0.9386  0.0696  1.7469
  685MOL0     H90382   9.730   1.650   2.416 -0.0939  0.2407 -1.0038
  685MOL0     H90383   9.523   1.490   2.391 -1.4796  0.7021 -0.5199
  685MOL0     H90384   8.944   1.642   2.547  0.1334 -0.8923  1.2576
  685MOL0     H90385   8.717   1.505   2.562 -0.2838 -0.5390 -0.9811
  685MOL0     H90386   8.772   1.111   2.742  3.1478  4.8984 -2.0320
  685MOL0     H90387   8.766   1.068   2.575  2.1556 -0.3854  1.7592
  685MOL0     H90388   8.505   1.144   2.703 -3.0183  0.1983 -4.9581
  685MOL0     H90389   8.565   0.992   2.739  0.5023  3.6092  2.9366
  685MOL0     H90390   8.419   0.971   2.544 -0.9162  1.0785 -0.7449
  685MOL0     H90391   8.573   0.966   2.458  1.1079  0.4947  0.9466
  685MOL0     H90392   8.390   1.204   2.539 -1.4598  0.4901 -0.9638
  685MOL0     H90393   8.526   1.239   2.434 -0.0524 -0.9702 -2.9455
  685MOL0     H90394   8.326   1.234   2.310  1.4859  0.5714 -0.7963
  685MOL0     H90395   8.287   1.068   2.358  0.2945 -1.4720 -1.1611
  685MOL0     H90396   8.518   0.994   2.239 -1.7061 -0.7746 -0.1857
  685MOL0     H90397   8.539   1.157   2.175  1.1383 -1.8599 -2.7261
  685MOL0     H90398   8.327   0.957   2.113 -0.1987 -0.9100 -0.5821
  685MOL0     H90399   8.334   1.127   2.038 -0.3277  1.5549  3.7281
  685MOL0     H90400   8.576   1.051   1.969  0.1774  1.2683  1.9173
  685MOL0     H90401   8.450   0.989   1.873  2.1137 -2.1467 -0.9473
  685MOL0     H90402   8.954   1.165   2.670 -3.3500 -0.3763  1.2549
  685MOL0     H90403   9.163   1.296   2.669  2.3707  1.6967 -1.7753
  685MOL0     H90404   9.328   1.685   2.705 -0.2307 -1.1940 -0.4801
  685MOL0     H90405   9.520   1.813   2.763 -0.1273  1.6521 -1.0383
  685MOL0     H90406  10.575   2.773   1.759 -0.8201 -0.2201  0.4739
  685MOL0     H90407  10.777   2.870   1.660  2.4637  2.6703  0.8092
  685MOL0     H90408  11.343   3.031   1.883  0.6425  0.7110 -1.0663
  685MOL0     H90409  11.487   3.166   1.751 -0.0350 -1.4854 -0.5794
  685MOL0     H90410  11.325   3.325   1.372 -1.2558 -1.5409 -1.1144
  685MOL0     H90411  11.438   3.216   1.288  1.4240 -0.0822 -0.1901
  685MOL0     H90412  11.487   3.464   1.264  2.1628 -0.2319 -0.6671
  685MOL0     H90413  11.510   3.477   1.437  2.5589  4.0606 -2.2430
  685MOL0     H90414  11.664   3.301   1.233 -0.5368  0.4083 -0.7154
  685MOL0     H90415  11.701   3.297   1.406  0.5860 -0.0835 -0.7189
  685MOL0     H90416  11.730   3.549   1.391  1.1282  0.9665 -1.2562
  685MOL0     H90417  11.860   3.449   1.333  0.0504 -0.3484  1.1840
  685MOL0     H90418  11.695   3.666   0.996  0.0214 -1.2354 -1.0948
  685MOL0     H90419  11.246   3.106   1.405  1.5898  3.7080  1.1981
  685MOL0     H90420  11.091   2.974   1.534  1.2075 -2.3843  0.4301
  686MOL0     O90421   1.683   8.110   0.689  0.0613  0.2817 -0.0308
  686MOL0     C90422   1.780   8.127   0.762  0.5133 -0.8971  0.4150
  686MOL0     O90423   1.777   8.141   0.901 -0.0704 -0.0272  0.3613
  686MOL0     C90424   1.653   8.127   0.968 -0.5183  0.1959  0.0079
  686MOL0     C90425   1.563   8.018   0.946  0.2866  0.3886 -0.3092
  686MOL0     C90426   1.441   8.009   1.023 -1.1289  0.1487  0.9361
  686MOL0     C90427   1.410   8.101   1.125 -0.1452 -0.7091 -0.3606
  686MOL0     O90428   1.293   8.092   1.190 -0.6050  0.3389 -0.2108
  686MOL0     C90429   1.251   7.971   1.260 -0.0617 -0.1811 -0.6028
  686MOL0     C90430   1.144   8.002   1.352 -0.2989  0.3712 -0.0646
  686MOL0     C90431   1.089   7.870   1.419 -0.4881  0.4003 -0.4597
  686MOL0     C90432   1.188   7.809   1.515 -0.2829 -0.0753  0.1380
  686MOL0     C90433   1.136   7.716   1.623  0.2970  0.7239  0.5731
  686MOL0     C90434   1.010   7.758   1.689 -0.0757 -0.2784 -0.2715
  686MOL0     C90435   0.981   7.699   1.823  0.3507 -0.0980  0.3457
  686MOL0     C90436   0.857   7.768   1.887 -0.0673 -0.5644  0.3200
  686MOL0     N90437   0.808   7.706   2.013 -0.2868  0.9279  0.7012
  686MOL0     C90438   0.831   7.752   2.133 -0.9231 -0.9823  0.1052
  686MOL0     C90439   0.773   7.668   2.227  0.0109 -0.1297 -1.0257
  686MOL0     C90440   0.751   7.695   2.371 -0.6209  0.1267  0.1572
  686MOL0     C90441   0.617   7.651   2.434 -0.1975  0.6921  0.1748
  686MOL0     C90442   0.494   7.720   2.370 -0.3708 -0.1246 -0.7573
  686MOL0     C90443   0.382   7.716   2.461 -0.0601  0.2857  0.5430
  686MOL0     O90444   0.316   7.590   2.457  0.2792  0.3233  0.1735
  686MOL0     C90445   0.194   7.564   2.530 -0.2472  0.6294 -0.4815
  686MOL0     C90446   0.137   7.653   2.617 -0.0675  0.4962  0.6622
  686MOL0     C90447   0.024   7.627   2.692 -0.6358  0.0343 -0.7940
  686MOL0     C90448  -0.044   7.503   2.671 -0.0692 -0.5149 -0.5033
  686MOL0     C90449  -0.162   7.480   2.747 -0.4090 -0.1126  0.5014
  686MOL0     O90450  -0.214   7.361   2.733  0.3129  0.2359 -0.0227
  686MOL0     C90451  -0.312   7.320   2.822  0.2003 -0.1055  0.3140
  686MOL0     C90452  -0.441   7.328   2.785 -0.1498  0.9671  0.3053
  686MOL0     C90453  -0.547   7.293   2.872  0.0534 -0.6253  0.7290
  686MOL0     C90454  -0.525   7.240   2.996 -0.5433 -0.5710 -0.5062
  686MOL0     O90455  -0.626   7.209   3.085 -0.0574  0.1993 -0.4572
  686MOL0     C90456  -0.603   7.125   3.200  0.2191  0.1663  0.9715
  686MOL0     C90457  -0.734   7.064   3.251 -0.7868  0.6801  0.1105
  686MOL0     C90458  -0.821   7.178   3.288  0.6461 -0.0078 -0.3606
  686MOL0     C90459  -0.956   7.129   3.348 -0.8785  0.5011 -0.0156
  686MOL0     C90460  -1.042   7.246   3.403  0.2172 -0.3672 -0.1630
  686MOL0     C90461  -1.191   7.210   3.423  0.5621 -1.2857  0.1494
  686MOL0     C90462  -1.275   7.332   3.455  0.1378  0.0962  0.5237
  686MOL0     C90463  -1.419   7.304   3.494  0.3695  0.7090  1.0584
  686MOL0    Cl90464  -1.415   7.248   3.664  0.4066  0.0381 -0.6879
  686MOL0     C90465  -0.388   7.219   3.039 -0.2578  0.4631 -1.2205
  686MOL0     C90466  -0.283   7.256   2.948 -0.3033 -0.3212 -0.3096
  686MOL0     O90467  -0.200   7.568   2.831 -0.2652  0.5247  0.1265
  686MOL0     C90468   0.008   7.410   2.580 -0.1478  0.1326 -0.6005
  686MOL0     C90469   0.124   7.444   2.513 -0.5184  0.1441 -0.7998
  686MOL0     N90470   0.712   7.570   2.150  0.1877  0.3182  0.2762
  686MOL0     N90471   0.739   7.596   2.021  0.1209 -0.5084  0.0401
  686MOL0     C90472   1.498   8.211   1.134 -0.1834 -0.8933  0.0640
  686MOL0     C90473   1.619   8.219   1.062  0.2320 -1.1265 -0.0932
  686MOL0     C90474   1.907   8.162   0.691  0.4741  0.2205 -0.7641
  686MOL0     C90475   1.912   8.213   0.556 -0.9737  0.2474  0.3264
  686MOL0     C90476   2.028   8.262   0.498  0.3369  1.0005 -0.0056
  686MOL0     C90477   2.142   8.265   0.583 -1.1464 -0.5209  0.0323
  686MOL0     O90478   2.267   8.300   0.534  0.5797  0.1095  0.0081
  686MOL0     C90479   2.287   8.279   0.390  0.1870  0.2082  0.4534
  686MOL0     C90480   2.416   8.201   0.367  0.2315 -0.0397 -0.4671
  686MOL0     C90481   2.542   8.270   0.416 -0.3610 -0.4973  0.5028
  686MOL0     C90482   2.666   8.213   0.352 -0.4963  0.9012  0.0329
  686MOL0     C90483   2.789   8.258   0.420  1.2395  0.2602  0.8703
  686MOL0     C90484   2.895   8.284   0.476  0.4120 -0.4545  0.4444
  686MOL0     C90485   2.141   8.218   0.712  0.1493 -0.0294 -0.2760
  686MOL0     C90486   2.026   8.164   0.767  0.1326 -0.3788  0.2469
  686MOL0     H90487   1.583   7.950   0.864 -0.3699  1.9238 -1.8086
  686MOL0     H90488   1.373   7.928   0.997 -1.0658  0.5043 -0.4290
  686MOL0     H90489   1.337   7.932   1.315 -1.4474 -1.2104  0.9276
  686MOL0     H90490   1.214   7.893   1.192 -0.9770 -2.2351  2.0533
  686MOL0     H90491   1.053   8.040   1.306 -0.4479  1.7104  1.2709
  686MOL0     H90492   1.180   8.067   1.432 -1.0442  1.5510 -0.6701
  686MOL0     H90493   1.069   7.804   1.333  1.8435  0.7580 -1.3433
  686MOL0     H90494   0.997   7.902   1.469  0.2707  1.3869  0.3373
  686MOL0     H90495   1.267   7.765   1.454  1.4506  2.0000  0.7967
  686MOL0     H90496   1.239   7.889   1.569 -2.0450  1.3019 -0.1434
  686MOL0     H90497   1.222   7.693   1.686  0.5401 -0.6867 -0.2154
  686MOL0     H90498   1.124   7.623   1.566  2.1234 -0.0484  1.3835
  686MOL0     H90499   0.923   7.740   1.625 -0.8563  0.9234  0.3976
  686MOL0     H90500   1.013   7.867   1.698 -0.0300 -0.3006  0.0055
  686MOL0     H90501   0.965   7.594   1.798 -0.6568  0.7710 -3.2589
  686MOL0     H90502   1.063   7.705   1.896 -1.6966  1.4496  2.7110
  686MOL0     H90503   0.779   7.773   1.811 -1.3015  2.0861  1.6448
  686MOL0     H90504   0.872   7.871   1.921 -2.4843  0.5915 -1.8048
  686MOL0     H90505   0.885   7.844   2.158 -0.9864 -0.1727 -2.5038
  686MOL0     H90506   0.768   7.801   2.391  2.5401  0.0172 -1.3290
  686MOL0     H90507   0.833   7.638   2.416  0.3478  1.8009  0.5880
  686MOL0     H90508   0.620   7.677   2.540  2.5771  0.7570  0.1383
  686MOL0     H90509   0.608   7.542   2.424 -2.1446  0.5105  2.7562
  686MOL0     H90510   0.528   7.824   2.365 -0.4695 -0.1190 -1.5416
  686MOL0     H90511   0.465   7.679   2.273 -2.6862  1.2224 -0.7167
  686MOL0     H90512   0.310   7.794   2.433 -0.1262 -0.1592 -0.5667
  686MOL0     H90513   0.417   7.735   2.563  5.8670 -0.0873 -1.0833
  686MOL0     H90514   0.188   7.749   2.625  0.6150  0.5870 -2.9457
  686MOL0     H90515  -0.013   7.704   2.760  0.2597  0.0542 -0.3062
  686MOL0     H90516  -0.478   7.354   2.686  0.3746  0.3784 -0.0505
  686MOL0     H90517  -0.641   7.299   2.817  1.0656  1.1890 -0.9434
  686MOL0     H90518  -0.556   7.184   3.279 -0.7188  1.5870  0.5237
  686MOL0     H90519  -0.546   7.036   3.173 -1.3818 -1.0558  1.4757
  686MOL0     H90520  -0.707   7.004   3.338 -2.1582 -2.0652 -1.2009
  686MOL0     H90521  -0.782   7.005   3.171 -0.9362  2.2096 -0.9706
  686MOL0     H90522  -0.851   7.239   3.202 -1.3977 -2.0758 -1.2484
  686MOL0     H90523  -0.778   7.238   3.368  0.1445 -0.2923  0.1361
  686MOL0     H90524  -1.000   7.067   3.269 -1.1947  1.3618 -0.5290
  686MOL0     H90525  -0.919   7.070   3.432  0.9317 -0.2387 -1.2565
  686MOL0     H90526  -1.045   7.323   3.326 -0.2525  0.5974  0.7805
  686MOL0     H90527  -0.998   7.301   3.487  0.3099 -0.8529  0.1108
  686MOL0     H90528  -1.199   7.142   3.508 -0.8500  0.1133  1.2016
  686MOL0     H90529  -1.234   7.163   3.334 -0.2487  1.8096 -1.2680
  686MOL0     H90530  -1.238   7.392   3.539 -0.3734  2.0951 -0.6157
  686MOL0     H90531  -1.265   7.392   3.364  0.8845  1.0474  1.2033
  686MOL0     H90532  -1.455   7.229   3.423 -1.2524  0.1229  2.4234
  686MOL0     H90533  -1.484   7.391   3.482 -1.6029 -0.7794  0.4400
  686MOL0     H90534  -0.358   7.194   3.140  0.7081  0.1791 -1.5676
  686MOL0     H90535  -0.181   7.250   2.985 -0.2784 -1.2186 -0.4905
  686MOL0     H90536  -0.040   7.313   2.571 -0.9047  0.6106 -1.9483
  686MOL0     H90537   0.164   7.374   2.440 -0.0611 -2.1452  1.4873
  686MOL0     H90538   1.458   8.284   1.203  1.3531 -0.8498  0.9588
  686MOL0     H90539   1.692   8.295   1.087  0.7116 -1.9195  0.9591
  686MOL0     H90540   1.818   8.208   0.501  0.6816  0.2747 -2.7547
  686MOL0     H90541   2.039   8.285   0.392 -0.3018 -0.7061 -0.4674
  686MOL0     H90542   2.290   8.379   0.346  0.6260  1.0285  2.2635
  686MOL0     H90543   2.206   8.213   0.358  0.0584 -0.9103  2.8644
  686MOL0     H90544   2.398   8.104   0.414 -1.2231  0.7223  0.6725
  686MOL0     H90545   2.432   8.186   0.260  2.5618 -2.7488  0.1651
  686MOL0     H90546   2.549   8.255   0.524  0.7946  1.5390  0.7557
  686MOL0     H90547   2.538   8.376   0.393 -0.2650 -0.1398  2.0154
  686MOL0     H90548   2.660   8.104   0.345  1.8952  0.7906 -1.1683
  686MOL0     H90549   2.669   8.247   0.248  1.5190 -0.6693 -0.4809
  686MOL0     H90550   2.996   8.292   0.512  1.7762 -0.9094 -2.9254
  686MOL0     H90551   2.234   8.201   0.766 -1.9834 -4.3152  2.6567
  686MOL0     H90552   2.028   8.123   0.868 -0.0578  1.8871  1.2420
  687MOL0     O90553   2.602   8.819   9.357  0.3261 -0.4090  0.5728
  687MOL0     C90554   2.632   8.924   9.297  0.2069  1.2336 -0.0134
  687MOL0     O90555   2.545   9.004   9.235 -0.4117 -0.3432 -0.1581
  687MOL0     C90556   2.407   8.984   9.240  0.0886  0.1668  0.3741
  687MOL0     C90557   2.351   8.864   9.195 -0.0709  0.0281 -0.4717
  687MOL0     C90558   2.208   8.848   9.191 -0.3835  0.3969 -0.1476
  687MOL0     C90559   2.127   8.952   9.228  0.1493 -0.4341 -0.2125
  687MOL0     O90560   1.988   8.926   9.206 -0.6523  0.0004  0.1488
  687MOL0     C90561   1.895   9.034   9.216 -0.6817 -0.1167  0.0395
  687MOL0     C90562   1.761   8.992   9.150  0.2586 -0.0578 -0.0155
  687MOL0     C90563   1.634   9.067   9.207 -0.0379  0.3153  0.0628
  687MOL0     C90564   1.502   8.995   9.149 -0.0960 -0.0010  0.2822
  687MOL0     C90565   1.374   9.059   9.191 -0.0367  0.4663 -0.3385
  687MOL0     C90566   1.308   9.179   9.106 -0.5115  0.0679 -0.1360
  687MOL0     C90567   1.184   9.247   9.168  0.8545 -0.0816 -0.9160
  687MOL0     C90568   1.137   9.371   9.088  0.2828 -0.3534  0.2258
  687MOL0     N90569   1.008   9.423   9.133  0.9174  0.5404 -0.5125
  687MOL0     C90570   0.972   9.464   9.263 -0.2008 -0.3406  0.2009
  687MOL0     C90571   0.839   9.462   9.263  0.5282 -0.1712  0.7099
  687MOL0     C90572   0.762   9.513   9.378  0.1263 -0.4952 -0.4400
  687MOL0     C90573   0.610   9.519   9.347 -0.0108  0.2835  0.6960
  687MOL0     C90574   0.520   9.556   9.462 -0.5339  0.3126 -0.0465
  687MOL0     C90575   0.468   9.431   9.529 -0.2779 -0.2134 -0.3682
  687MOL0     O90576   0.418   9.453   9.663  0.9642  0.0946 -0.6145
  687MOL0     C90577   0.291   9.504   9.689  0.6437 -0.5898  0.4559
  687MOL0     C90578   0.192   9.539   9.597 -0.1583 -0.2039  0.5352
  687MOL0     C90579   0.072   9.592   9.636  0.5494 -0.2691 -0.5946
  687MOL0     C90580   0.045   9.622   9.775 -0.2950  0.7929  0.6768
  687MOL0     C90581  -0.081   9.673   9.826 -0.0737 -0.5895  0.4573
  687MOL0     O90582  -0.089   9.701   9.967  0.2022 -0.3564  0.7843
  687MOL0     C90583  -0.190   9.783  10.014 -0.3181 -0.2134 -0.3410
  687MOL0     C90584  -0.208   9.911   9.958 -0.5493 -0.5652 -0.1381
  687MOL0     C90585  -0.313   9.997   9.993  0.3925  0.1984 -0.7452
  687MOL0     C90586  -0.400   9.954  10.093  0.3236 -0.0669 -0.1360
  687MOL0     O90587  -0.521  10.010  10.117  0.2097 -0.2355  0.2966
  687MOL0     C90588  -0.592  10.084  10.012  0.1652 -0.7777 -0.4875
  687MOL0     C90589  -0.738  10.098  10.034 -0.1367 -0.2915 -0.0731
  687MOL0     C90590  -0.766  10.172  10.159  0.1819  0.6427  0.0795
  687MOL0     C90591  -0.914  10.215  10.164 -0.4393  0.5054 -0.0994
  687MOL0     C90592  -0.946  10.246  10.311  0.7511  0.4545  0.3377
  687MOL0     C90593  -1.090  10.305  10.322 -0.7070  0.6367  0.2118
  687MOL0     C90594  -1.190  10.223  10.248 -0.2033 -0.2376 -0.1899
  687MOL0     C90595  -1.202  10.077  10.290 -0.2958  0.0223 -0.6030
  687MOL0    Cl90596  -1.255  10.066  10.456  0.2408 -0.0095  0.3426
  687MOL0     C90597  -0.383   9.828  10.151  0.0854 -0.1574 -0.5689
  687MOL0     C90598  -0.273   9.744  10.119  0.5628 -0.2820  0.0173
  687MOL0     O90599  -0.171   9.696   9.743 -0.2761 -0.1083 -0.0920
  687MOL0     C90600   0.146   9.595   9.859  0.7256 -0.8383 -0.9663
  687MOL0     C90601   0.268   9.539   9.823 -0.1214  0.7958 -0.4833
  687MOL0     N90602   0.793   9.419   9.142 -0.3194 -0.0340 -0.1228
  687MOL0     N90603   0.894   9.405   9.062 -0.0553  0.0329 -0.1950
  687MOL0     C90604   2.185   9.074   9.263 -0.1932 -0.0799 -0.7340
  687MOL0     C90605   2.324   9.091   9.270  0.0037  0.7713  0.1609
  687MOL0     C90606   2.772   8.961   9.315  0.4531  0.5774  0.0948
  687MOL0     C90607   2.851   8.903   9.413 -1.1823 -0.1909  0.2033
  687MOL0     C90608   2.986   8.942   9.422 -0.9702 -0.2959  0.5347
  687MOL0     C90609   3.042   9.042   9.348  0.1982  0.5506 -0.7726
  687MOL0     O90610   3.173   9.083   9.365  0.0223  0.0469 -0.2759
  687MOL0     C90611   3.232   9.197   9.304 -1.3367 -0.1385 -0.0854
  687MOL0     C90612   3.379   9.167   9.311  0.6891 -0.1610  1.2772
  687MOL0     C90613   3.445   9.307   9.271 -0.1748 -0.0769 -0.2476
  687MOL0     C90614   3.596   9.298   9.250  0.5775 -0.0843  0.1099
  687MOL0     C90615   3.653   9.431   9.249  0.3871  0.4489 -0.4194
  687MOL0     C90616   3.696   9.542   9.261  0.9620 -0.2794 -0.2847
  687MOL0     C90617   2.960   9.101   9.247 -0.1491 -0.4391  0.6746
  687MOL0     C90618   2.823   9.064   9.236 -0.8433  0.3680  0.1361
  687MOL0     H90619   2.409   8.776   9.171  0.4436 -0.1610  1.3433
  687MOL0     H90620   2.156   8.758   9.161  2.3349 -0.8706 -1.4044
  687MOL0     H90621   1.934   9.128   9.177 -2.4239  0.8683  0.5170
  687MOL0     H90622   1.869   9.046   9.322 -0.0150  0.9644  0.0951
  687MOL0     H90623   1.741   8.884   9.145  0.5871 -0.0644 -2.3030
  687MOL0     H90624   1.773   9.011   9.043  0.4812 -2.5305 -0.4987
  687MOL0     H90625   1.636   9.174   9.184  3.4963  0.2653 -0.3663
  687MOL0     H90626   1.628   9.064   9.316  0.5729  0.0784  0.0931
  687MOL0     H90627   1.497   9.000   9.040 -1.7118  0.9622  0.3752
  687MOL0     H90628   1.498   8.888   9.168  1.0017 -0.2045 -0.5077
  687MOL0     H90629   1.394   9.084   9.296  1.1584 -2.7820  0.3431
  687MOL0     H90630   1.291   8.987   9.195 -1.3588  1.9696  2.5787
  687MOL0     H90631   1.280   9.143   9.007 -0.6208  0.2368 -0.1687
  687MOL0     H90632   1.383   9.258   9.095 -2.2707  1.7344 -0.7547
  687MOL0     H90633   1.103   9.176   9.188 -0.2344  1.4843  0.5751
  687MOL0     H90634   1.204   9.279   9.271  0.8310 -1.3401 -0.5013
  687MOL0     H90635   1.120   9.347   8.982  1.9553  0.4149 -0.2573
  687MOL0     H90636   1.201   9.458   9.103  0.2543 -0.1876 -0.5760
  687MOL0     H90637   1.037   9.499   9.342 -0.1472 -2.8546  1.3803
  687MOL0     H90638   0.799   9.613   9.401  0.0000 -0.6272  0.3403
  687MOL0     H90639   0.778   9.445   9.462 -0.9883  0.4040  0.5311
  687MOL0     H90640   0.563   9.432   9.300 -2.4639  2.8563 -1.9991
  687MOL0     H90641   0.603   9.587   9.262  0.7355 -0.2315  0.2088
  687MOL0     H90642   0.580   9.616   9.531 -1.8910  0.9445  0.6405
  687MOL0     H90643   0.435   9.619   9.435  0.0102  0.7948 -0.6741
  687MOL0     H90644   0.555   9.366   9.541  0.2567  1.0336  4.4075
  687MOL0     H90645   0.385   9.387   9.472 -2.7321  2.5617  0.7717
  687MOL0     H90646   0.212   9.535   9.491 -0.2221  2.3950  0.3732
  687MOL0     H90647  -0.003   9.591   9.558  2.0350  0.1424 -2.1019
  687MOL0     H90648  -0.155   9.955   9.874 -1.3296 -0.5471 -0.6349
  687MOL0     H90649  -0.340  10.085   9.936  1.7124 -0.3971 -2.3837
  687MOL0     H90650  -0.590  10.039   9.913 -0.3637 -1.6517 -0.1147
  687MOL0     H90651  -0.546  10.184  10.012  0.0776 -0.7326 -0.0171
  687MOL0     H90652  -0.778   9.996  10.028  2.0884 -1.4688  2.7404
  687MOL0     H90653  -0.787  10.152   9.953 -3.3689 -0.9922  1.2551
  687MOL0     H90654  -0.694  10.254  10.164  1.4279 -0.4427  0.5902
  687MOL0     H90655  -0.748  10.106  10.244 -1.5178  2.2184  1.7433
  687MOL0     H90656  -0.944  10.289  10.090  1.3608 -1.1360 -2.6099
  687MOL0     H90657  -0.976  10.129  10.139  2.5321 -1.2945 -1.9354
  687MOL0     H90658  -0.869  10.316  10.347 -0.1962  1.2391  0.8907
  687MOL0     H90659  -0.934  10.155  10.372  2.5066  0.4927  0.1024
  687MOL0     H90660  -1.091  10.406  10.279  0.0163  0.1054 -1.1090
  687MOL0     H90661  -1.120  10.314  10.427  3.8201 -0.9283  1.9047
  687MOL0     H90662  -1.286  10.272  10.270 -0.9724 -0.9023 -1.9028
  687MOL0     H90663  -1.186  10.230  10.139 -0.9538 -1.9531 -0.3675
  687MOL0     H90664  -1.104  10.031  10.279  0.0739  0.6530  0.0151
  687MOL0     H90665  -1.266  10.026  10.217 -0.3099  1.1501 -1.4020
  687MOL0     H90666  -0.455   9.807  10.229  0.6774 -0.7509 -0.1674
  687MOL0     H90667  -0.267   9.645  10.163  0.4315 -0.2432  0.1232
  687MOL0     H90668   0.138   9.621   9.964 -0.5781 -0.5613 -1.1222
  687MOL0     H90669   0.342   9.521   9.900 -1.3013  0.2761  0.5575
  687MOL0     H90670   2.134   9.162   9.302  1.2942 -0.2713  1.9006
  687MOL0     H90671   2.364   9.187   9.302 -0.8055  0.8894  0.8773
  687MOL0     H90672   2.809   8.822   9.473  0.0187 -0.6141  0.4977
  687MOL0     H90673   3.051   8.893   9.494  0.3861 -0.1185 -0.5225
  687MOL0     H90674   3.208   9.281   9.370  0.5678 -0.8750  1.6586
  687MOL0     H90675   3.197   9.223   9.204 -0.1613  0.7685 -0.2866
  687MOL0     H90676   3.412   9.135   9.411  1.8415 -1.8789  0.4035
  687MOL0     H90677   3.408   9.091   9.238  0.7044 -0.4209  1.5549
  687MOL0     H90678   3.422   9.390   9.338 -0.0356  2.4912 -3.1664
  687MOL0     H90679   3.401   9.343   9.177  0.0629  2.1993  0.4656
  687MOL0     H90680   3.635   9.248   9.339  2.9338 -1.1954 -1.4333
  687MOL0     H90681   3.615   9.241   9.159  0.7415  0.3012 -0.0996
  687MOL0     H90682   3.748   9.636   9.272  1.2621 -0.5085  0.3203
  687MOL0     H90683   3.001   9.190   9.200  1.3489 -0.8968  1.0742
  687MOL0     H90684   2.747   9.110   9.173 -2.7130 -2.5177  0.1452
  688MOL0     O90685   6.351  10.973   1.221  0.3056 -0.2145 -0.0613
  688MOL0     C90686   6.347  11.095   1.251  0.6394 -0.0488 -0.0446
  688MOL0     O90687   6.235  11.173   1.246  0.0433  0.3574 -0.1288
  688MOL0     C90688   6.115  11.138   1.196  0.4626 -0.4595  0.5962
  688MOL0     C90689   6.055  11.016   1.214 -0.3683  1.2561 -0.2475
  688MOL0     C90690   5.925  10.997   1.160  0.3490  0.2722  0.2483
  688MOL0     C90691   5.854  11.094   1.093 -0.8220 -0.2110 -0.5590
  688MOL0     O90692   5.728  11.090   1.045 -0.0552 -0.1049  0.2324
  688MOL0     C90693   5.643  10.979   1.086 -0.2186 -0.2672  0.3044
  688MOL0     C90694   5.496  11.001   1.046 -0.9245 -0.1754 -0.2499
  688MOL0     C90695   5.405  10.884   1.083 -0.6485 -0.2869  0.2657
  688MOL0     C90696   5.263  10.922   1.035 -0.5628 -0.0793  0.9994
  688MOL0     C90697   5.175  10.817   1.094 -0.1302  0.4870  0.3729
  688MOL0     C90698   5.032  10.852   1.072  0.1507  0.7122 -1.0456
  688MOL0     C90699   4.990  10.810   0.926  0.5576  1.0068  0.4757
  688MOL0     C90700   4.847  10.869   0.894  0.1914  0.2668 -0.0695
  688MOL0     N90701   4.742  10.806   0.978 -0.2075 -0.4696  0.3595
  688MOL0     C90702   4.679  10.853   1.087 -0.1730  0.0413 -0.4349
  688MOL0     C90703   4.607  10.752   1.133 -0.2061  0.1002  0.2968
  688MOL0     C90704   4.529  10.751   1.265  0.1472 -0.9264 -0.8833
  688MOL0     C90705   4.396  10.839   1.259 -0.4037  0.1039  0.1303
  688MOL0     C90706   4.345  10.813   1.406  0.3394  0.1344  0.1298
  688MOL0     C90707   4.214  10.893   1.435  0.0458  0.7632 -0.0861
  688MOL0     O90708   4.165  10.842   1.560  0.6600 -0.7788  0.0188
  688MOL0     C90709   4.084  10.919   1.642 -0.3999  0.6310 -0.5927
  688MOL0     C90710   4.074  10.888   1.774  0.8631 -0.7995 -0.9820
  688MOL0     C90711   3.986  10.956   1.853 -0.2683 -0.0484 -0.3889
  688MOL0     C90712   3.915  11.066   1.816 -0.4984 -0.3067 -1.1948
  688MOL0     C90713   3.843  11.152   1.914  0.8275 -0.1936  0.8939
  688MOL0     O90714   3.824  11.094   2.036 -0.2092  0.0103  0.0220
  688MOL0     C90715   3.780  11.179   2.133 -0.0810 -0.6853  1.0181
  688MOL0     C90716   3.865  11.258   2.214 -0.1503  0.3874  0.2274
  688MOL0     C90717   3.812  11.353   2.301  0.1605  0.4875 -0.4758
  688MOL0     C90718   3.674  11.372   2.312 -0.1057  0.2238  0.8086
  688MOL0     O90719   3.608  11.463   2.388 -0.3388  0.1568 -0.5418
  688MOL0     C90720   3.642  11.473   2.525  0.4636  0.2163  0.2606
  688MOL0     C90721   3.522  11.484   2.607  0.3039 -0.1212 -0.2462
  688MOL0     C90722   3.579  11.483   2.760  0.0035  0.1325  0.3497
  688MOL0     C90723   3.477  11.497   2.868 -0.6356  0.3248 -0.2484
  688MOL0     C90724   3.541  11.492   3.013 -0.1169 -0.4870 -0.0199
  688MOL0     C90725   3.577  11.350   3.056  0.4510 -1.2605 -0.8379
  688MOL0     C90726   3.443  11.269   3.107 -0.6583 -0.3068 -0.8333
  688MOL0     C90727   3.380  11.318   3.241  0.1395 -0.4286  0.2122
  688MOL0    Cl90728   3.252  11.201   3.309 -0.4343  0.0907 -0.4779
  688MOL0     C90729   3.584  11.297   2.234 -0.0395 -0.1952  0.1087
  688MOL0     C90730   3.641  11.204   2.142 -0.9269  0.2179 -0.7789
  688MOL0     O90731   3.830  11.274   1.881  0.2734  0.6459 -0.2977
  688MOL0     C90732   3.933  11.111   1.681 -0.2239 -0.0383 -0.1789
  688MOL0     C90733   4.009  11.028   1.595 -0.1077  0.4938 -0.3958
  688MOL0     N90734   4.625  10.646   1.048 -0.0576  0.0084  0.0880
  688MOL0     N90735   4.703  10.679   0.956  0.2570  0.4994  0.2723
  688MOL0     C90736   5.918  11.215   1.075 -0.5449 -0.8659  0.7737
  688MOL0     C90737   6.050  11.239   1.126  0.3100  0.2193  0.2440
  688MOL0     C90738   6.482  11.153   1.288 -0.3758  0.6707  0.4853
  688MOL0     C90739   6.492  11.278   1.356  0.4447  0.3198 -0.2533
  688MOL0     C90740   6.619  11.333   1.392 -0.1043 -0.6771 -0.8038
  688MOL0     C90741   6.735  11.278   1.354 -0.0062  0.4863 -0.0127
  688MOL0     O90742   6.844  11.342   1.405  0.2078 -0.3591  0.9094
  688MOL0     C90743   6.970  11.280   1.368  0.2182  0.1566  0.4996
  688MOL0     C90744   7.086  11.368   1.415 -0.1411 -0.4655 -0.5503
  688MOL0     C90745   7.222  11.297   1.417 -0.0179 -1.1763  0.1424
  688MOL0     C90746   7.295  11.266   1.282  0.7307  0.4739 -0.4062
  688MOL0     C90747   7.230  11.166   1.190  0.1474 -0.2893  0.8375
  688MOL0     C90748   7.173  11.091   1.104 -0.1579  0.0020 -0.0447
  688MOL0     C90749   6.721  11.154   1.282  0.4604  1.1290  0.9578
  688MOL0     C90750   6.601  11.094   1.249 -0.7463  0.1619 -0.6070
  688MOL0     H90751   6.106  10.935   1.266  0.2010  0.9865 -1.1961
  688MOL0     H90752   5.882  10.898   1.174  0.3664 -0.0970 -1.9400
  688MOL0     H90753   5.644  10.978   1.196  1.7144  3.3915  0.4906
  688MOL0     H90754   5.675  10.884   1.043 -1.5053  0.0137 -1.3586
  688MOL0     H90755   5.496  11.021   0.938 -0.5950 -0.3764 -0.2895
  688MOL0     H90756   5.455  11.093   1.087 -1.0550  0.2587 -1.3046
  688MOL0     H90757   5.400  10.867   1.191 -2.0386 -1.2123  0.0853
  688MOL0     H90758   5.436  10.791   1.034  3.3007  0.1458  1.5365
  688MOL0     H90759   5.236  11.020   1.074 -0.9644  0.0349  0.4638
  688MOL0     H90760   5.264  10.923   0.925  2.3625 -0.7067  0.9537
  688MOL0     H90761   5.188  10.810   1.203  1.6398 -0.7481  0.1095
  688MOL0     H90762   5.210  10.725   1.047  2.4298  2.1682 -1.2106
  688MOL0     H90763   5.016  10.958   1.092  2.9338  0.9428  0.5357
  688MOL0     H90764   4.974  10.805   1.151  0.4505 -1.1578 -1.8711
  688MOL0     H90765   5.057  10.857   0.853 -1.3840  1.3155 -1.2162
  688MOL0     H90766   5.001  10.702   0.914  1.7054  1.0523  1.0152
  688MOL0     H90767   4.808  10.867   0.791  1.9928  0.7055 -0.8044
  688MOL0     H90768   4.867  10.975   0.909  0.5489  0.3978 -1.3510
  688MOL0     H90769   4.697  10.955   1.119 -1.2396  1.2785 -3.4002
  688MOL0     H90770   4.582  10.804   1.345 -1.6118  0.9541 -0.8942
  688MOL0     H90771   4.512  10.651   1.304 -2.0900 -0.8427 -1.5269
  688MOL0     H90772   4.329  10.805   1.180  0.7447  0.4019 -1.0057
  688MOL0     H90773   4.414  10.946   1.243 -0.3504 -0.1841 -2.0537
  688MOL0     H90774   4.322  10.708   1.425 -1.0568  0.5022  0.5780
  688MOL0     H90775   4.418  10.848   1.480  0.2756  3.0536 -1.0405
  688MOL0     H90776   4.149  10.858   1.355  0.5942 -2.7125  0.8236
  688MOL0     H90777   4.237  11.000   1.442  1.8368  0.4875 -1.0080
  688MOL0     H90778   4.129  10.798   1.801  2.1595  0.0292 -0.8025
  688MOL0     H90779   3.976  10.925   1.957  1.7250  0.0160 -0.1507
  688MOL0     H90780   3.971  11.236   2.207 -0.1247 -3.8780  6.1110
  688MOL0     H90781   3.877  11.410   2.367 -2.0153 -0.1222  2.3937
  688MOL0     H90782   3.699  11.565   2.513  0.9635 -0.1503 -0.2554
  688MOL0     H90783   3.708  11.391   2.555 -0.4597 -0.9105 -0.6550
  688MOL0     H90784   3.450  11.408   2.574 -0.7540  0.7722 -0.0888
  688MOL0     H90785   3.480  11.583   2.587 -0.1586 -0.6363 -1.9798
  688MOL0     H90786   3.654  11.563   2.762  2.5762 -2.1188  0.0519
  688MOL0     H90787   3.628  11.386   2.771  2.6579  1.2163 -0.9810
  688MOL0     H90788   3.439  11.597   2.846  0.9784  0.6215 -1.9089
  688MOL0     H90789   3.393  11.429   2.846  0.0031 -0.1145 -1.4014
  688MOL0     H90790   3.469  11.533   3.084  0.6287 -1.9722  1.6856
  688MOL0     H90791   3.619  11.568   3.009 -1.3188  0.7198 -2.1293
  688MOL0     H90792   3.647  11.352   3.139  0.3039  2.2197 -0.6480
  688MOL0     H90793   3.623  11.299   2.970 -1.4972 -2.2792 -1.3330
  688MOL0     H90794   3.372  11.287   3.026  0.7116  6.3846 -1.1357
  688MOL0     H90795   3.472  11.165   3.123  0.4004  0.0377 -0.3966
  688MOL0     H90796   3.345  11.421   3.228  2.0186  0.1411 -0.7318
  688MOL0     H90797   3.468  11.331   3.305 -0.0635 -0.1794  0.4444
  688MOL0     H90798   3.477  11.308   2.240 -0.0062  0.7264 -0.5707
  688MOL0     H90799   3.582  11.152   2.068 -1.5488 -1.0013  0.5179
  688MOL0     H90800   3.881  11.201   1.649 -0.9359  0.6224  2.5999
  688MOL0     H90801   4.014  11.060   1.492  3.0022  2.0093  0.1317
  688MOL0     H90802   5.876  11.295   1.014 -1.1993 -0.8264  1.2630
  688MOL0     H90803   6.095  11.337   1.125 -0.7732  0.7361  0.7251
  688MOL0     H90804   6.403  11.323   1.399  1.9787 -0.1679  3.8930
  688MOL0     H90805   6.622  11.413   1.466 -0.7884 -0.0412 -1.4529
  688MOL0     H90806   6.984  11.267   1.260 -0.6697 -2.0405  0.5930
  688MOL0     H90807   6.971  11.180   1.412  2.1484  0.3473  0.9629
  688MOL0     H90808   7.089  11.448   1.341 -2.6516 -1.7142 -2.1595
  688MOL0     H90809   7.057  11.404   1.514  2.8978 -0.5558  0.4649
  688MOL0     H90810   7.214  11.209   1.482  3.8476 -1.2528  0.7661
  688MOL0     H90811   7.277  11.372   1.475 -3.7509  1.8616  0.1325
  688MOL0     H90812   7.309  11.362   1.232 -1.8174  0.5275 -1.1429
  688MOL0     H90813   7.396  11.229   1.299 -0.5380 -4.1036 -1.3281
  688MOL0     H90814   7.115  11.059   1.020  0.2046  0.4966 -0.4843
  688MOL0     H90815   6.814  11.106   1.252  0.1246 -0.1293  1.8684
  688MOL0     H90816   6.605  11.006   1.186  0.3844 -0.4213  0.2463
  689MOL0     O90817   7.775   4.132   3.010 -0.6560  0.4459 -0.2436
  689MOL0     C90818   7.748   4.067   2.910  0.1228  0.4274  0.5351
  689MOL0     O90819   7.634   3.997   2.895  0.1027 -0.5137 -0.6469
  689MOL0     C90820   7.553   3.958   3.002 -0.1744  0.2537 -0.5526
  689MOL0     C90821   7.419   3.975   2.975  0.4043  0.0656 -0.5874
  689MOL0     C90822   7.318   3.938   3.066 -0.2429  0.6392 -0.2380
  689MOL0     C90823   7.364   3.884   3.191 -0.5020 -0.0965  0.3680
  689MOL0     O90824   7.264   3.856   3.276  0.6252 -0.0059  0.5895
  689MOL0     C90825   7.296   3.801   3.405  0.5284 -0.4692  0.3089
  689MOL0     C90826   7.162   3.784   3.487 -0.8337 -0.1090 -0.3108
  689MOL0     C90827   7.036   3.842   3.439  0.1673 -0.1599 -0.1109
  689MOL0     C90828   6.920   3.827   3.538  0.0129 -0.5329 -0.1403
  689MOL0     C90829   6.787   3.868   3.479 -0.7887  0.7076  0.6671
  689MOL0     C90830   6.740   3.778   3.370 -1.0642  0.0553 -0.4521
  689MOL0     C90831   6.588   3.804   3.359 -0.6868  0.0053  0.3158
  689MOL0     C90832   6.521   3.728   3.254  0.0687 -0.2609  0.5067
  689MOL0     N90833   6.391   3.786   3.237 -0.8931 -0.3872 -0.5411
  689MOL0     C90834   6.278   3.739   3.295  0.6885  0.0217 -0.3266
  689MOL0     C90835   6.186   3.836   3.257 -0.5900  0.7522 -0.5767
  689MOL0     C90836   6.042   3.841   3.295 -0.7904 -0.1812  0.7813
  689MOL0     C90837   5.969   3.715   3.239 -0.5163 -0.2768  0.1356
  689MOL0     C90838   5.969   3.701   3.079  0.4063 -0.7711  0.4393
  689MOL0     C90839   5.968   3.551   3.040 -0.2219  0.8354 -0.6108
  689MOL0     O90840   5.969   3.542   2.895 -0.0838  0.1398  0.6427
  689MOL0     C90841   5.848   3.573   2.833  0.0764  0.0093  0.2301
  689MOL0     C90842   5.838   3.700   2.771  0.2994 -0.1200 -0.0937
  689MOL0     C90843   5.725   3.735   2.707 -0.0547  0.2123 -0.0925
  689MOL0     C90844   5.623   3.636   2.686  0.4743  1.2411 -0.2781
  689MOL0     C90845   5.499   3.674   2.609 -0.2773  0.8525 -0.6197
  689MOL0     O90846   5.493   3.800   2.563  0.0536 -1.0310 -0.3260
  689MOL0     C90847   5.375   3.843   2.502  0.2089 -0.1770  0.3252
  689MOL0     C90848   5.283   3.915   2.580 -0.0387  0.0345  0.7183
  689MOL0     C90849   5.165   3.966   2.521 -0.1651  0.8298  0.0778
  689MOL0     C90850   5.137   3.945   2.386  0.3924  0.1283  0.3000
  689MOL0     O90851   5.022   4.000   2.339 -0.2948  0.3366 -0.3388
  689MOL0     C90852   4.952   3.918   2.245 -0.2567  0.2667  0.5115
  689MOL0     C90853   4.818   3.971   2.220 -0.5962  0.3081  0.9702
  689MOL0     C90854   4.745   3.898   2.106 -0.3128 -0.0881 -0.1082
  689MOL0     C90855   4.629   3.981   2.053 -0.8432 -0.6756 -0.6097
  689MOL0     C90856   4.561   3.906   1.942 -0.8655  0.1170 -0.3080
  689MOL0     C90857   4.453   3.992   1.883 -0.6600  0.5603 -0.3201
  689MOL0     C90858   4.420   3.946   1.735 -0.5861 -0.3788 -0.4972
  689MOL0     C90859   4.321   4.040   1.667 -0.5947  0.2242  0.0232
  689MOL0    Cl90860   4.158   4.028   1.727  0.0806  0.2670 -0.4888
  689MOL0     C90861   5.224   3.868   2.308  0.0271 -0.0026  0.2242
  689MOL0     C90862   5.349   3.825   2.362  0.0467  0.5424 -0.6086
  689MOL0     O90863   5.410   3.587   2.593 -0.1104 -0.0985 -0.0378
  689MOL0     C90864   5.635   3.509   2.736 -0.3186 -0.6558 -0.1086
  689MOL0     C90865   5.747   3.476   2.811  1.0565  0.5101 -0.3862
  689MOL0     N90866   6.244   3.925   3.176  0.4911 -0.6942  0.1737
  689MOL0     N90867   6.367   3.895   3.162 -0.4224 -0.2737  0.0208
  689MOL0     C90868   7.507   3.871   3.221  0.3297  0.9753 -0.3671
  689MOL0     C90869   7.601   3.907   3.125  0.3278  0.7871 -0.2722
  689MOL0     C90870   7.837   4.075   2.792 -0.6322 -0.3846  0.5503
  689MOL0     C90871   7.791   4.008   2.679  0.7350 -0.1810  0.6277
  689MOL0     C90872   7.880   4.002   2.573 -0.2109  0.0188  0.0601
  689MOL0     C90873   8.008   4.067   2.574 -0.0593  0.2994  0.2217
  689MOL0     O90874   8.099   4.068   2.474 -0.3201  0.4920 -0.6869
  689MOL0     C90875   8.078   3.990   2.355 -0.3903 -0.7100 -0.2218
  689MOL0     C90876   8.196   4.014   2.257 -0.3774 -0.0392 -0.0720
  689MOL0     C90877   8.334   3.993   2.324 -0.9563 -0.1381 -0.0747
  689MOL0     C90878   8.433   3.936   2.232 -0.7443 -0.7163  0.6788
  689MOL0     C90879   8.475   4.028   2.129  0.0619  0.8089  0.1380
  689MOL0     C90880   8.515   4.090   2.034 -0.1800  0.0886 -0.0765
  689MOL0     C90881   8.048   4.132   2.687 -0.9738  0.2284 -0.5352
  689MOL0     C90882   7.968   4.138   2.797  0.5341  0.3690 -0.4381
  689MOL0     H90883   7.396   4.026   2.882 -1.2600  0.4939  0.0356
  689MOL0     H90884   7.217   3.974   3.049 -0.3801 -0.5659 -2.3739
  689MOL0     H90885   7.366   3.869   3.453  2.0625 -1.1955 -0.8187
  689MOL0     H90886   7.338   3.700   3.397 -2.9135 -2.1720  1.4819
  689MOL0     H90887   7.191   3.834   3.581  1.1787  0.3787 -1.1351
  689MOL0     H90888   7.162   3.676   3.503  0.2012 -0.0158  0.4970
  689MOL0     H90889   7.018   3.790   3.344 -0.0746 -0.4296  0.0817
  689MOL0     H90890   7.049   3.950   3.430 -1.8428  0.1258  0.0547
  689MOL0     H90891   6.914   3.723   3.573  1.6882 -0.0371  1.7833
  689MOL0     H90892   6.957   3.890   3.619  3.1385 -0.7891 -1.2001
  689MOL0     H90893   6.786   3.969   3.438 -1.0107  0.5132  0.1912
  689MOL0     H90894   6.720   3.873   3.565  1.1364  2.9207  2.1885
  689MOL0     H90895   6.744   3.679   3.415 -0.4228  0.6044  0.7461
  689MOL0     H90896   6.797   3.788   3.276 -0.0299 -0.6579  0.0753
  689MOL0     H90897   6.535   3.776   3.450  0.4132 -4.1088 -0.1042
  689MOL0     H90898   6.569   3.911   3.349 -1.3222 -0.0707  0.6280
  689MOL0     H90899   6.517   3.621   3.277 -3.6619 -0.7439 -1.5514
  689MOL0     H90900   6.564   3.729   3.154 -0.9785  0.4017  0.0442
  689MOL0     H90901   6.252   3.655   3.358 -0.2726  1.4001  1.2168
  689MOL0     H90902   6.015   3.939   3.254 -1.3919 -1.1433 -1.2419
  689MOL0     H90903   6.038   3.838   3.404 -2.1503 -0.9619  0.7375
  689MOL0     H90904   5.864   3.707   3.270 -0.5462 -0.1812  0.0636
  689MOL0     H90905   6.005   3.622   3.282 -2.7098 -1.1397  0.2633
  689MOL0     H90906   5.876   3.749   3.047  1.9452  1.5864 -0.7134
  689MOL0     H90907   6.056   3.738   3.024  0.1696 -1.8140 -0.6638
  689MOL0     H90908   5.878   3.507   3.084  1.5119 -0.9761  1.3722
  689MOL0     H90909   6.053   3.501   3.087  0.7090  2.0722 -0.9480
  689MOL0     H90910   5.910   3.782   2.772  0.5036 -0.2886 -0.5201
  689MOL0     H90911   5.722   3.837   2.669  0.7808  0.1349 -0.3831
  689MOL0     H90912   5.314   3.925   2.683 -1.6566  1.7676  1.0828
  689MOL0     H90913   5.088   4.019   2.577 -2.0192 -2.1532  0.6108
  689MOL0     H90914   4.945   3.812   2.274  0.8290 -0.2530 -0.9741
  689MOL0     H90915   5.006   3.921   2.150  2.1273  0.7644  1.7901
  689MOL0     H90916   4.827   4.077   2.194 -0.0798  0.1061  0.3262
  689MOL0     H90917   4.751   3.963   2.306  2.3872 -2.7803  3.2929
  689MOL0     H90918   4.715   3.800   2.143 -1.4106 -0.0391 -0.8462
  689MOL0     H90919   4.814   3.894   2.021  0.0602  1.0174  0.1170
  689MOL0     H90920   4.558   4.001   2.134  0.2120  1.6693 -0.1804
  689MOL0     H90921   4.670   4.073   2.012 -0.0752 -0.6971  0.0705
  689MOL0     H90922   4.520   3.810   1.975  1.6400 -1.4055 -1.3602
  689MOL0     H90923   4.626   3.861   1.867 -0.4625  1.4764 -0.8167
  689MOL0     H90924   4.479   4.098   1.892 -1.9012  0.8283  0.2733
  689MOL0     H90925   4.362   3.974   1.940 -0.0430 -0.3975  0.3931
  689MOL0     H90926   4.516   3.946   1.683 -0.2673 -0.4680  0.0795
  689MOL0     H90927   4.393   3.841   1.727 -1.7141 -0.1398 -0.0717
  689MOL0     H90928   4.324   4.027   1.558  3.2730  1.3252 -0.1327
  689MOL0     H90929   4.357   4.142   1.683  1.3268 -0.6418  1.6156
  689MOL0     H90930   5.203   3.840   2.205  0.2788 -1.1180  0.4663
  689MOL0     H90931   5.411   3.766   2.295 -1.4939 -2.4132  0.3692
  689MOL0     H90932   5.554   3.437   2.724  1.1362 -2.6721  1.2912
  689MOL0     H90933   5.749   3.374   2.847 -1.8691 -0.2100 -1.9501
  689MOL0     H90934   7.544   3.832   3.315  0.9048 -1.0091 -1.3692
  689MOL0     H90935   7.708   3.906   3.140  0.0807 -0.2213  1.7956
  689MOL0     H90936   7.692   3.966   2.668 -0.5737  2.9754 -0.6394
  689MOL0     H90937   7.837   3.959   2.483 -0.4390  0.1081  0.1260
  689MOL0     H90938   7.981   4.013   2.310  0.3437  1.0682 -1.0282
  689MOL0     H90939   8.076   3.885   2.385  2.9144 -0.9513 -0.4473
  689MOL0     H90940   8.187   3.952   2.168  2.4912 -1.3001  0.4001
  689MOL0     H90941   8.193   4.119   2.225 -1.0667  0.1842  0.6997
  689MOL0     H90942   8.333   3.930   2.414  1.8014  0.0825  0.1751
  689MOL0     H90943   8.382   4.086   2.355  1.3739 -1.3568  0.1901
  689MOL0     H90944   8.527   3.900   2.277 -1.0505 -2.7839 -0.1986
  689MOL0     H90945   8.390   3.845   2.190 -0.0499 -0.6686 -0.1523
  689MOL0     H90946   8.552   4.137   1.945 -2.8430 -3.0076 -3.1193
  689MOL0     H90947   8.147   4.176   2.696 -0.4238 -1.2876  1.3253
  689MOL0     H90948   7.993   4.197   2.884  1.1418 -2.6909  1.5959
  690MOL0     O90949   9.527   1.266   1.670  0.5078  0.3219 -0.5964
  690MOL0     C90950   9.538   1.366   1.599 -0.1344 -0.5060 -0.2588
  690MOL0     O90951   9.458   1.403   1.492  0.0266  0.3390  0.7664
  690MOL0     C90952   9.345   1.336   1.465 -0.0186  1.1427  0.1006
  690MOL0     C90953   9.259   1.294   1.564 -0.7997  0.4336  0.1610
  690MOL0     C90954   9.133   1.250   1.531 -0.9922 -0.5562 -0.0920
  690MOL0     C90955   9.072   1.252   1.402 -0.0933  0.0288  0.1349
  690MOL0     O90956   8.948   1.203   1.388  0.1685 -0.2741 -0.6057
  690MOL0     C90957   8.890   1.195   1.256 -0.6180 -1.0388  0.2919
  690MOL0     C90958   8.743   1.151   1.266  0.1216 -0.6522  0.7527
  690MOL0     C90959   8.689   1.126   1.119  0.0991 -0.3672 -0.1491
  690MOL0     C90960   8.538   1.124   1.111  0.5501 -0.3761 -0.4553
  690MOL0     C90961   8.488   1.079   0.973  0.3242 -0.3425  0.2044
  690MOL0     C90962   8.517   1.198   0.877 -0.7876  0.2722 -0.4545
  690MOL0     C90963   8.442   1.181   0.753 -0.2116 -0.6780 -0.0293
  690MOL0     C90964   8.411   1.304   0.669  1.0010 -0.3520 -0.5371
  690MOL0     N90965   8.530   1.373   0.624  0.2027  0.1641 -0.8204
  690MOL0     C90966   8.602   1.473   0.682  0.4999  0.1067 -0.5696
  690MOL0     C90967   8.706   1.499   0.602  0.3678 -0.2375  0.2625
  690MOL0     C90968   8.808   1.614   0.619 -1.0086 -0.1299 -0.2588
  690MOL0     C90969   8.945   1.552   0.645 -0.8309 -0.4847  0.3157
  690MOL0     C90970   9.041   1.669   0.683 -0.2791  0.1841  0.2614
  690MOL0     C90971   9.186   1.628   0.710  0.6192  0.3324  0.3142
  690MOL0     O90972   9.262   1.731   0.775  0.0910  0.3477  0.0353
  690MOL0     C90973   9.402   1.727   0.769  0.0507 -0.5547 -0.1815
  690MOL0     C90974   9.473   1.848   0.794  0.0778  0.6794 -0.9340
  690MOL0     C90975   9.615   1.846   0.806 -0.3297  1.0109  0.0760
  690MOL0     C90976   9.686   1.723   0.785  0.1225  0.5613 -0.2946
  690MOL0     C90977   9.831   1.733   0.771 -0.0390 -0.4206 -0.2673
  690MOL0     O90978   9.891   1.846   0.835  0.4087  0.3253  0.4747
  690MOL0     C90979  10.023   1.855   0.839 -1.0680 -0.4347  0.8059
  690MOL0     C90980  10.084   1.968   0.805 -0.3536 -0.7870  0.4801
  690MOL0     C90981  10.227   1.979   0.779  0.2551 -0.4334 -1.1743
  690MOL0     C90982  10.311   1.874   0.802 -0.7216  0.1345 -0.0337
  690MOL0     O90983  10.444   1.894   0.773  0.4665 -0.4269  0.2144
  690MOL0     C90984  10.537   1.794   0.791  0.1742  0.5843 -0.7561
  690MOL0     C90985  10.602   1.792   0.927 -0.3225 -0.3390 -1.2329
  690MOL0     C90986  10.742   1.728   0.919 -0.9531 -0.4069 -0.1363
  690MOL0     C90987  10.789   1.691   1.054 -0.9367 -0.3753  0.0131
  690MOL0     C90988  10.944   1.705   1.065  0.4020  0.2908 -0.4917
  690MOL0     C90989  10.989   1.702   1.208  0.6633 -0.1657  0.0918
  690MOL0     C90990  11.137   1.713   1.218 -0.3408 -0.0395  0.4055
  690MOL0     C90991  11.189   1.716   1.355  0.7678  0.8280 -0.0613
  690MOL0    Cl90992  11.156   1.565   1.439  0.0864  0.2871 -0.2018
  690MOL0     C90993  10.250   1.756   0.854  0.6784  0.4557  0.6505
  690MOL0     C90994  10.107   1.749   0.867 -1.3718 -0.1961  0.0083
  690MOL0     O90995   9.891   1.645   0.707  0.0898  0.1732  0.2408
  690MOL0     C90996   9.608   1.607   0.760  0.2140  1.0041 -0.7931
  690MOL0     C90997   9.469   1.607   0.754 -0.3894 -0.4164 -0.4784
  690MOL0     N90998   8.692   1.406   0.493 -0.2581 -0.3263 -0.6811
  690MOL0     N90999   8.587   1.337   0.505  0.7063 -0.1098 -0.7956
  690MOL0     C91000   9.163   1.292   1.298  0.3529 -0.4397  0.3290
  690MOL0     C91001   9.297   1.338   1.328 -0.1937 -0.1861  0.3819
  690MOL0     C91002   9.652   1.450   1.624  0.5349 -0.2307 -0.2250
  690MOL0     C91003   9.705   1.529   1.520  0.5280 -0.0866 -0.0300
  690MOL0     C91004   9.817   1.607   1.536  0.0028 -0.3115 -1.0170
  690MOL0     C91005   9.893   1.600   1.659  0.0162  0.3510  0.1228
  690MOL0     O91006  10.013   1.665   1.674 -0.4593  0.2648 -0.4517
  690MOL0     C91007  10.067   1.762   1.583 -0.2276  0.8909  0.2821
  690MOL0     C91008  10.179   1.695   1.503 -0.5312 -0.0917 -0.2239
  690MOL0     C91009  10.291   1.648   1.587 -0.5745 -0.7201 -0.1716
  690MOL0     C91010  10.275   1.504   1.636 -0.0967  0.2316  0.8351
  690MOL0     C91011  10.252   1.397   1.529 -0.1924  0.5628  0.0450
  690MOL0     C91012  10.239   1.327   1.431 -0.0710  0.2986  0.0805
  690MOL0     C91013   9.831   1.536   1.761  1.3043  0.0359  0.0219
  690MOL0     C91014   9.720   1.452   1.746 -0.0962 -0.1790  0.1732
  690MOL0     H91015   9.280   1.301   1.670 -1.4314  0.5589  0.2814
  690MOL0     H91016   9.068   1.225   1.615  1.2259 -1.1583  1.5517
  690MOL0     H91017   8.944   1.117   1.201 -1.1236 -0.1201 -1.6023
  690MOL0     H91018   8.891   1.293   1.207  1.5615 -2.1889 -2.2167
  690MOL0     H91019   8.694   1.238   1.312 -1.3845  0.0507 -1.9673
  690MOL0     H91020   8.730   1.066   1.333 -1.3464 -2.1340 -1.3129
  690MOL0     H91021   8.732   1.028   1.097  0.5156  0.4911 -3.7937
  690MOL0     H91022   8.739   1.196   1.052 -0.5847  1.1934  0.9177
  690MOL0     H91023   8.496   1.053   1.183  1.4915  0.2149  0.7158
  690MOL0     H91024   8.509   1.224   1.146 -0.2387 -1.1808  1.3093
  690MOL0     H91025   8.380   1.060   0.973 -0.0268  1.4479 -0.7202
  690MOL0     H91026   8.554   0.997   0.944  0.8503  0.9655 -2.6254
  690MOL0     H91027   8.625   1.214   0.876 -0.5016 -1.0276  1.8425
  690MOL0     H91028   8.468   1.281   0.929  0.8562  1.6055 -0.9515
  690MOL0     H91029   8.499   1.112   0.690  0.3636 -1.0637  0.8864
  690MOL0     H91030   8.345   1.134   0.772 -0.1421  0.3182  3.5248
  690MOL0     H91031   8.346   1.371   0.725  0.2047 -1.9375  0.5222
  690MOL0     H91032   8.364   1.266   0.578  2.4288 -0.8495 -1.1039
  690MOL0     H91033   8.585   1.514   0.781  0.5346 -1.7054  0.2273
  690MOL0     H91034   8.781   1.674   0.706 -1.2077 -0.4425 -0.1051
  690MOL0     H91035   8.818   1.682   0.534  0.8220  0.2686  0.2198
  690MOL0     H91036   8.981   1.510   0.550  0.6458  0.1647  0.5570
  690MOL0     H91037   8.951   1.463   0.708  2.6643  0.4672  1.5963
  690MOL0     H91038   9.043   1.744   0.603  1.6627  0.4392  0.5110
  690MOL0     H91039   9.009   1.727   0.770 -1.2686 -0.4736  0.3504
  690MOL0     H91040   9.242   1.599   0.620  3.9995  0.6210  2.1492
  690MOL0     H91041   9.198   1.535   0.767  0.1144 -0.3506 -0.6571
  690MOL0     H91042   9.416   1.940   0.801  1.3463  1.4518 -0.3704
  690MOL0     H91043   9.669   1.938   0.826  0.4159  0.2090  1.9408
  690MOL0     H91044  10.016   2.048   0.780 -1.3023 -2.2359 -1.9907
  690MOL0     H91045  10.263   2.079   0.761  0.0837  0.8492  4.0917
  690MOL0     H91046  10.619   1.810   0.721 -0.5388  1.8807 -1.3276
  690MOL0     H91047  10.501   1.691   0.780  2.6941 -0.3778 -0.8280
  690MOL0     H91048  10.539   1.743   1.002  0.9096 -0.2011 -0.0697
  690MOL0     H91049  10.624   1.896   0.951  2.8565 -1.2810  0.6021
  690MOL0     H91050  10.805   1.792   0.856 -0.2935 -1.9294 -1.0851
  690MOL0     H91051  10.731   1.635   0.862  0.8100 -0.9553  0.3740
  690MOL0     H91052  10.748   1.762   1.127  1.2457  0.9283  0.0493
  690MOL0     H91053  10.760   1.587   1.069 -0.5565 -1.1897 -3.9635
  690MOL0     H91054  10.977   1.793   1.009  2.2657 -1.1868 -1.8925
  690MOL0     H91055  10.981   1.619   1.008 -0.1043  0.3603 -0.9338
  690MOL0     H91056  10.949   1.606   1.242 -0.4283  0.0727 -0.4685
  690MOL0     H91057  10.946   1.785   1.265 -1.4673  0.7123 -2.5855
  690MOL0     H91058  11.186   1.637   1.156  1.0143  0.3440  0.9823
  690MOL0     H91059  11.171   1.801   1.163  2.6998 -1.5487 -0.4037
  690MOL0     H91060  11.148   1.793   1.421  2.4081 -0.7391  3.0070
  690MOL0     H91061  11.296   1.736   1.356  1.1209 -0.7726  1.9714
  690MOL0     H91062  10.314   1.670   0.870  2.6582  1.3040 -1.9289
  690MOL0     H91063  10.073   1.650   0.897 -1.1868 -0.4112 -0.4797
  690MOL0     H91064   9.651   1.512   0.729  1.7203  1.5855 -0.5241
  690MOL0     H91065   9.410   1.521   0.724  2.1590 -1.6076 -2.5078
  690MOL0     H91066   9.138   1.286   1.193 -1.8204 -0.2243  0.7893
  690MOL0     H91067   9.365   1.367   1.249 -2.1264 -2.2472 -2.2115
  690MOL0     H91068   9.660   1.531   1.421  1.4458  0.3447 -0.4520
  690MOL0     H91069   9.852   1.666   1.452 -3.0590  0.1315 -2.0995
  690MOL0     H91070  10.085   1.839   1.659 -1.7259  0.2768  1.3149
  690MOL0     H91071  10.002   1.805   1.507 -1.0615  2.2098  1.6808
  690MOL0     H91072  10.153   1.600   1.456  2.3390 -2.4136  2.4200
  690MOL0     H91073  10.229   1.759   1.430 -0.4204  0.4374  0.3081
  690MOL0     H91074  10.311   1.722   1.665  0.7783  0.7639 -1.8262
  690MOL0     H91075  10.374   1.648   1.516 -0.7561  2.1010 -0.4989
  690MOL0     H91076  10.370   1.469   1.679  0.9264 -1.3713 -2.4478
  690MOL0     H91077  10.201   1.510   1.716 -0.5406  0.8326  0.3867
  690MOL0     H91078  10.238   1.268   1.341 -1.4961 -0.8152  0.7906
  690MOL0     H91079   9.872   1.546   1.861 -2.3914  3.1603  1.4754
  690MOL0     H91080   9.677   1.398   1.830  0.8355 -0.5293  0.4359
  691MOL0     O91081   4.626   3.415   0.516  0.6636  0.5715  0.5283
  691MOL0     C91082   4.663   3.441   0.629 -0.4055 -0.2129 -0.7158
  691MOL0     O91083   4.584   3.421   0.739 -0.0440  0.1277  0.6177
  691MOL0     C91084   4.469   3.357   0.752  0.5532 -0.0769 -0.0276
  691MOL0     C91085   4.448   3.258   0.852 -0.2079  0.5715 -0.0143
  691MOL0     C91086   4.334   3.184   0.856  0.3612  0.6921  0.4554
  691MOL0     C91087   4.224   3.214   0.775  0.0946  0.1907  0.0104
  691MOL0     O91088   4.104   3.143   0.788 -0.2879 -0.6655  0.8073
  691MOL0     C91089   4.026   3.143   0.669 -0.7949  0.0891 -0.1593
  691MOL0     C91090   3.908   3.042   0.661 -1.2275  0.2742  0.2588
  691MOL0     C91091   3.814   3.037   0.789  0.2681  0.2564  0.2619
  691MOL0     C91092   3.743   2.901   0.811  0.6533  0.8393 -0.0029
  691MOL0     C91093   3.665   2.877   0.940  0.5884 -0.2093 -0.2030
  691MOL0     C91094   3.547   2.983   0.936 -0.4876  0.0261 -0.3143
  691MOL0     C91095   3.440   2.928   1.033 -0.0957  0.5284 -0.8468
  691MOL0     C91096   3.347   2.822   0.967 -1.1707  0.4429  0.2418
  691MOL0     N91097   3.223   2.836   1.039  0.2424  1.1426 -0.2848
  691MOL0     C91098   3.196   2.768   1.156  0.3755  0.2220 -0.7454
  691MOL0     C91099   3.074   2.817   1.190  0.0698  0.4135  0.6870
  691MOL0     C91100   3.006   2.778   1.320 -0.4704 -0.0813 -0.0512
  691MOL0     C91101   2.863   2.730   1.293 -0.2139  0.2074 -0.2656
  691MOL0     C91102   2.784   2.720   1.424 -0.1662  0.2180 -0.1351
  691MOL0     C91103   2.651   2.648   1.414 -0.3343  0.2731  0.0216
  691MOL0     O91104   2.589   2.683   1.532  0.0731 -0.0866  0.6838
  691MOL0     C91105   2.458   2.641   1.553 -0.1355  0.6583  0.0196
  691MOL0     C91106   2.398   2.677   1.670  0.3304 -0.2921 -0.1245
  691MOL0     C91107   2.274   2.620   1.701 -0.5546 -0.8767 -0.2899
  691MOL0     C91108   2.220   2.518   1.620  0.2520  0.3437 -0.2419
  691MOL0     C91109   2.087   2.454   1.655 -0.0559 -0.1196 -0.0240
  691MOL0     O91110   2.049   2.343   1.594 -0.2677  0.2273  0.4774
  691MOL0     C91111   1.935   2.277   1.633  0.1200 -0.7114  0.9678
  691MOL0     C91112   1.819   2.303   1.564 -0.2601  0.4479  0.8537
  691MOL0     C91113   1.696   2.243   1.605 -0.0180 -0.7946  1.2388
  691MOL0     C91114   1.697   2.162   1.712 -0.3140 -0.7686  0.4049
  691MOL0     O91115   1.573   2.104   1.742 -0.0859 -0.1120  0.3888
  691MOL0     C91116   1.517   2.167   1.857  1.1984 -0.4698 -0.2229
  691MOL0     C91117   1.376   2.111   1.901 -1.2513 -0.1300 -0.2752
  691MOL0     C91118   1.260   2.141   1.817 -0.5454 -0.0241  0.7244
  691MOL0     C91119   1.141   2.072   1.884  0.0420 -0.7545  0.1182
  691MOL0     C91120   1.009   2.097   1.810 -0.6021  0.3787  0.3943
  691MOL0     C91121   0.886   2.014   1.876  0.0282  1.0315  0.1584
  691MOL0     C91122   0.911   1.866   1.872 -0.3024  0.2093  0.0564
  691MOL0     C91123   0.800   1.772   1.840  0.5233  0.1285 -0.0319
  691MOL0    Cl91124   0.691   1.780   1.996  0.3071 -0.0465 -0.3616
  691MOL0     C91125   1.815   2.139   1.787  0.3980  0.9853  0.4535
  691MOL0     C91126   1.930   2.200   1.745  0.1500 -0.2604  0.7840
  691MOL0     O91127   2.014   2.523   1.727  0.1470 -0.2756  0.3048
  691MOL0     C91128   2.284   2.484   1.501 -0.0317 -0.4006  0.0937
  691MOL0     C91129   2.398   2.549   1.466  0.7312 -0.2723 -0.1339
  691MOL0     N91130   3.017   2.900   1.096 -0.5260  0.9435 -0.5594
  691MOL0     N91131   3.108   2.910   1.007 -0.1101 -0.2875 -0.3010
  691MOL0     C91132   4.238   3.319   0.685  0.7865  0.3604  0.4408
  691MOL0     C91133   4.357   3.392   0.674  0.2832 -0.2862 -0.2424
  691MOL0     C91134   4.800   3.490   0.644  0.7442 -0.1755 -0.5575
  691MOL0     C91135   4.844   3.524   0.768 -0.1928  0.3600 -0.4661
  691MOL0     C91136   4.965   3.587   0.785  0.0986  0.3283  0.8596
  691MOL0     C91137   5.052   3.622   0.679  0.6370  0.0914 -0.1264
  691MOL0     O91138   5.170   3.687   0.715 -0.0033 -0.2322 -0.1976
  691MOL0     C91139   5.264   3.739   0.620 -0.5103 -0.2541  1.0280
  691MOL0     C91140   5.363   3.647   0.557  0.5052  0.0904  0.0278
  691MOL0     C91141   5.480   3.695   0.474 -0.0178 -0.1208 -0.0877
  691MOL0     C91142   5.609   3.710   0.555 -0.4386 -0.0144 -0.0385
  691MOL0     C91143   5.613   3.814   0.649  1.1457 -0.4811 -0.0230
  691MOL0     C91144   5.603   3.905   0.734  0.1189 -0.4322 -1.3141
  691MOL0     C91145   5.007   3.586   0.553 -0.5316  0.5454 -0.1882
  691MOL0     C91146   4.888   3.519   0.534  0.3273 -0.0091  0.0230
  691MOL0     H91147   4.523   3.223   0.922  1.7811 -0.0156 -2.3204
  691MOL0     H91148   4.324   3.104   0.928  3.4770 -0.0081  0.2591
  691MOL0     H91149   4.092   3.137   0.582 -1.6241  0.4776 -0.8284
  691MOL0     H91150   3.986   3.245   0.666  0.1112  0.4533 -0.2978
  691MOL0     H91151   3.947   2.942   0.638  2.5157  1.2440  1.6592
  691MOL0     H91152   3.833   3.067   0.586 -1.3231 -2.6820 -0.7730
  691MOL0     H91153   3.744   3.120   0.780  2.4079  1.9524 -1.7005
  691MOL0     H91154   3.878   3.045   0.878 -0.0413 -3.5523  1.0153
  691MOL0     H91155   3.674   2.886   0.727  0.9348 -0.2172 -0.0660
  691MOL0     H91156   3.817   2.820   0.805 -1.6986 -1.4748  0.3073
  691MOL0     H91157   3.721   2.894   1.033 -1.6586 -1.2690  1.4445
  691MOL0     H91158   3.623   2.778   0.956 -1.0249  0.7430  1.8743
  691MOL0     H91159   3.502   2.989   0.837  0.9722  0.1863 -0.9878
  691MOL0     H91160   3.579   3.086   0.959 -0.8530  0.2951 -0.9805
  691MOL0     H91161   3.485   2.887   1.124 -2.7845  1.8983  1.2724
  691MOL0     H91162   3.386   3.019   1.063  0.5357  1.2425 -1.8393
  691MOL0     H91163   3.399   2.725   0.973 -1.3986  0.2543 -0.6405
  691MOL0     H91164   3.336   2.842   0.860  1.7455 -2.1147 -0.7061
  691MOL0     H91165   3.252   2.693   1.210  2.0760  0.1303 -2.5339
  691MOL0     H91166   3.020   2.860   1.392 -1.3101 -0.3089  0.3888
  691MOL0     H91167   3.053   2.691   1.367 -0.5032  0.6707  1.4424
  691MOL0     H91168   2.874   2.630   1.250  1.3079 -0.2916  1.1928
  691MOL0     H91169   2.795   2.789   1.231 -3.7667 -1.8861  1.3420
  691MOL0     H91170   2.839   2.661   1.498 -0.5563  0.4112  0.3136
  691MOL0     H91171   2.764   2.818   1.468  0.4387  1.5838 -2.6882
  691MOL0     H91172   2.662   2.540   1.399  1.7627  0.5223 -0.5839
  691MOL0     H91173   2.597   2.681   1.324 -0.1418 -0.8990 -0.5557
  691MOL0     H91174   2.447   2.750   1.734  0.5208  0.2689 -0.9004
  691MOL0     H91175   2.230   2.638   1.799 -0.5936  0.0078 -0.4668
  691MOL0     H91176   1.834   2.375   1.483  1.3184  1.0421  1.6319
  691MOL0     H91177   1.607   2.261   1.546  0.3305  1.4563  1.2836
  691MOL0     H91178   1.514   2.272   1.827  0.3850  0.8081  3.6812
  691MOL0     H91179   1.580   2.146   1.944  0.0760 -2.6623  0.1403
  691MOL0     H91180   1.368   2.160   1.999  1.5947 -0.3351  0.1528
  691MOL0     H91181   1.385   2.006   1.930  0.2523  0.5450  1.9849
  691MOL0     H91182   1.274   2.093   1.719 -1.5921  1.4128 -0.1755
  691MOL0     H91183   1.247   2.249   1.809 -0.3879 -0.0426  0.1479
  691MOL0     H91184   1.158   1.965   1.898 -0.7931 -1.1262 -1.4547
  691MOL0     H91185   1.128   2.117   1.982 -1.7437  0.8905 -0.8073
  691MOL0     H91186   1.026   2.065   1.707  1.3993 -1.3397  1.1959
  691MOL0     H91187   0.981   2.203   1.805  1.0091  0.9418  2.1427
  691MOL0     H91188   0.789   2.039   1.832 -1.0395 -1.2285  1.0643
  691MOL0     H91189   0.867   2.047   1.979 -0.9763 -0.9028  0.6420
  691MOL0     H91190   0.996   1.841   1.808  0.5960 -1.6653  1.9026
  691MOL0     H91191   0.936   1.827   1.971  0.1381 -2.8249 -1.1380
  691MOL0     H91192   0.840   1.672   1.823  1.4386  1.0261 -4.4467
  691MOL0     H91193   0.740   1.798   1.753  0.4501 -0.6344 -0.2174
  691MOL0     H91194   1.816   2.076   1.876 -0.7956 -0.4412 -0.4966
  691MOL0     H91195   2.024   2.175   1.792  0.6868 -2.8149 -1.3980
  691MOL0     H91196   2.229   2.430   1.424  1.0406  0.2797 -1.1868
  691MOL0     H91197   2.443   2.524   1.370 -0.2275 -0.7322 -0.4708
  691MOL0     H91198   4.165   3.365   0.619  1.6636  0.2437 -0.6385
  691MOL0     H91199   4.361   3.481   0.612 -0.2014  2.6594  3.5382
  691MOL0     H91200   4.785   3.499   0.855 -1.4612  0.5483 -1.2581
  691MOL0     H91201   5.002   3.595   0.887 -0.7252 -1.2612  1.3145
  691MOL0     H91202   5.334   3.809   0.666  1.5452 -0.4365 -1.5780
  691MOL0     H91203   5.209   3.787   0.539  1.5579 -1.4828 -1.2366
  691MOL0     H91204   5.400   3.577   0.632  0.7261 -0.6077 -0.7145
  691MOL0     H91205   5.290   3.591   0.496 -0.5773  2.5994 -1.1273
  691MOL0     H91206   5.461   3.792   0.427 -2.3243 -0.7564 -0.6225
  691MOL0     H91207   5.489   3.616   0.400  2.5352  0.7499 -0.7843
  691MOL0     H91208   5.621   3.617   0.611 -0.0260  1.4571  2.4788
  691MOL0     H91209   5.696   3.726   0.490  1.8327 -1.5594  2.4280
  691MOL0     H91210   5.605   3.983   0.807  2.0488 -2.2493  0.7262
  691MOL0     H91211   5.073   3.599   0.468  4.6856 -0.0400  3.2786
  691MOL0     H91212   4.850   3.502   0.434  0.7609 -1.8525  0.1400
  692MOL0     O91213   8.261   0.738   1.349  0.1838 -0.1808 -0.2653
  692MOL0     C91214   8.346   0.725   1.259  0.1459  0.6410  0.2907
  692MOL0     O91215   8.475   0.702   1.288 -0.6746  0.2977 -0.4246
  692MOL0     C91216   8.531   0.717   1.414  1.0150  0.1464  0.3787
  692MOL0     C91217   8.508   0.841   1.480  0.3993  0.2905  0.2162
  692MOL0     C91218   8.574   0.864   1.599  0.0376  0.2371  0.3044
  692MOL0     C91219   8.664   0.773   1.655 -0.6235 -0.1973 -0.3974
  692MOL0     O91220   8.749   0.809   1.758 -0.1548  0.3909 -0.4845
  692MOL0     C91221   8.882   0.751   1.767  0.0841 -0.2754  0.0190
  692MOL0     C91222   8.964   0.828   1.868  0.6143  0.5365 -0.3080
  692MOL0     C91223   8.955   0.975   1.830 -0.2963 -1.0323 -0.0374
  692MOL0     C91224   9.043   1.064   1.918 -0.1792 -0.0585 -1.3589
  692MOL0     C91225   9.191   1.036   1.904  0.1639 -0.0472 -0.2625
  692MOL0     C91226   9.262   1.110   2.024  0.1075 -0.3463  0.1296
  692MOL0     C91227   9.285   1.253   1.980  0.1533  0.0897  0.6235
  692MOL0     C91228   9.339   1.342   2.099 -0.4314  0.6268 -0.1257
  692MOL0     N91229   9.461   1.292   2.159  0.2013 -0.4909  0.1608
  692MOL0     C91230   9.482   1.199   2.257  0.5533  0.1039 -0.1554
  692MOL0     C91231   9.618   1.196   2.279 -0.2114  0.5275 -0.3082
  692MOL0     C91232   9.679   1.094   2.374 -0.2047  0.3656  0.5847
  692MOL0     C91233   9.712   1.154   2.508 -0.7524  0.4983  0.5812
  692MOL0     C91234   9.590   1.180   2.596 -0.3301 -0.1051  0.2998
  692MOL0     C91235   9.488   1.069   2.602  0.3822 -0.2478 -0.8412
  692MOL0     O91236   9.403   1.106   2.725 -0.4810 -0.5416 -0.2246
  692MOL0     C91237   9.317   1.004   2.757  0.7433  0.0693 -0.4014
  692MOL0     C91238   9.348   0.885   2.821 -0.9475  0.7836  0.4129
  692MOL0     C91239   9.260   0.776   2.820 -1.0522 -0.1512 -0.8341
  692MOL0     C91240   9.141   0.778   2.758  0.1073  0.4640  0.5291
  692MOL0     C91241   9.051   0.661   2.754  0.6247 -0.3075  0.1681
  692MOL0     O91242   8.926   0.680   2.693  0.1303 -0.6271  0.4388
  692MOL0     C91243   8.823   0.592   2.716  0.2156 -0.2631  0.8662
  692MOL0     C91244   8.816   0.466   2.777 -0.5248 -0.0333  0.6990
  692MOL0     C91245   8.701   0.390   2.789  0.0597 -0.6151  0.2925
  692MOL0     C91246   8.580   0.439   2.736 -0.3860 -0.5305  0.4479
  692MOL0     O91247   8.461   0.379   2.744  0.2333 -0.1560  0.0850
  692MOL0     C91248   8.443   0.271   2.832  0.5796  0.3355 -0.5999
  692MOL0     C91249   8.414   0.133   2.765  0.0510 -0.0456  0.1393
  692MOL0     C91250   8.539   0.068   2.709  0.3745 -1.1311 -0.3011
  692MOL0     C91251   8.525  -0.075   2.676 -0.3634 -0.3498  0.2119
  692MOL0     C91252   8.654  -0.143   2.624  0.0429 -0.5185 -0.4375
  692MOL0     C91253   8.653  -0.299   2.628  0.0197  0.1983  0.0963
  692MOL0     C91254   8.781  -0.359   2.568 -0.7419 -0.1393  0.4373
  692MOL0     C91255   8.782  -0.513   2.589  0.5290 -0.1008  0.7762
  692MOL0    Cl91256   8.931  -0.560   2.500 -0.1138 -0.0549  0.3188
  692MOL0     C91257   8.580   0.569   2.681  0.0705  0.2592 -0.2866
  692MOL0     C91258   8.700   0.642   2.675  0.9635  0.7700  0.5978
  692MOL0     O91259   9.088   0.564   2.821 -0.1413  0.2048  0.6389
  692MOL0     C91260   9.102   0.897   2.698 -0.0734 -0.6110  0.3551
  692MOL0     C91261   9.192   1.008   2.696  0.8112 -0.6387  0.0654
  692MOL0     N91262   9.677   1.282   2.176  0.5772  0.0603 -0.4479
  692MOL0     N91263   9.581   1.343   2.115 -0.0829  0.0406  0.3874
  692MOL0     C91264   8.672   0.642   1.596  0.5510 -0.6614 -0.5959
  692MOL0     C91265   8.621   0.622   1.474  0.6874  0.2776  0.6004
  692MOL0     C91266   8.318   0.750   1.121  0.5935  0.4827  0.8227
  692MOL0     C91267   8.414   0.767   1.020  0.5196 -1.0821  0.2396
  692MOL0     C91268   8.364   0.789   0.891 -0.7714  0.0696 -0.1797
  692MOL0     C91269   8.227   0.813   0.862 -0.7791 -0.1440  0.1150
  692MOL0     O91270   8.184   0.867   0.740 -0.3048 -0.3140  0.3663
  692MOL0     C91271   8.263   0.827   0.624  0.8286 -0.5059 -0.3986
  692MOL0     C91272   8.176   0.806   0.499  0.0482  0.1747 -0.3292
  692MOL0     C91273   8.100   0.938   0.462 -0.0995  0.1911 -0.3941
  692MOL0     C91274   8.021   0.921   0.336 -0.5956 -0.1020 -0.0572
  692MOL0     C91275   7.898   0.840   0.364 -0.4887  0.1904 -0.5267
  692MOL0     C91276   7.792   0.780   0.378 -0.0614  0.3096  0.1215
  692MOL0     C91277   8.138   0.801   0.964 -0.6121  0.7303  0.0353
  692MOL0     C91278   8.175   0.765   1.092 -0.7361  0.2380 -0.4841
  692MOL0     H91279   8.456   0.928   1.442 -1.2570 -0.7807 -0.0700
  692MOL0     H91280   8.559   0.957   1.654 -1.3999 -0.3336  0.9070
  692MOL0     H91281   8.932   0.760   1.670 -2.6377 -1.5837 -1.6277
  692MOL0     H91282   8.866   0.650   1.804  0.1788 -0.3905 -0.2558
  692MOL0     H91283   9.065   0.788   1.859  0.2577  0.0323 -2.6189
  692MOL0     H91284   8.929   0.821   1.972 -0.4092 -0.7593 -0.7092
  692MOL0     H91285   8.851   1.008   1.825 -0.2747 -1.0734 -0.8878
  692MOL0     H91286   8.991   0.993   1.728 -3.6446  1.6699 -0.9203
  692MOL0     H91287   9.018   1.168   1.897  1.4722  0.8727  0.9436
  692MOL0     H91288   9.018   1.044   2.023  1.4511 -1.9401 -1.2745
  692MOL0     H91289   9.235   1.069   1.810  2.9216 -0.3316  0.8243
  692MOL0     H91290   9.214   0.929   1.904 -1.6344 -0.4814 -1.3566
  692MOL0     H91291   9.359   1.061   2.037 -0.2532 -1.8803 -2.2090
  692MOL0     H91292   9.223   1.104   2.126  1.1465 -0.2322  0.5466
  692MOL0     H91293   9.354   1.259   1.896 -0.7906 -2.8669 -0.4619
  692MOL0     H91294   9.187   1.290   1.950  0.0598 -0.6183  0.0329
  692MOL0     H91295   9.261   1.345   2.176  0.9489  0.3439  1.3455
  692MOL0     H91296   9.356   1.442   2.059 -0.0965 -0.2123 -2.1989
  692MOL0     H91297   9.401   1.151   2.312 -1.0041  1.5212 -1.1057
  692MOL0     H91298   9.773   1.063   2.327 -0.3100 -0.0040  0.6195
  692MOL0     H91299   9.614   1.008   2.391  1.2491 -0.7216  0.8024
  692MOL0     H91300   9.780   1.238   2.493  1.7167 -1.5767 -0.7056
  692MOL0     H91301   9.768   1.080   2.567 -0.3773 -0.5426 -1.0202
  692MOL0     H91302   9.628   1.212   2.694 -0.7408  0.7964  0.1787
  692MOL0     H91303   9.541   1.267   2.550  1.7940  1.1084  0.2037
  692MOL0     H91304   9.544   0.976   2.623  1.7837  0.3945 -1.5647
  692MOL0     H91305   9.430   1.067   2.509 -1.5932  0.3988  0.3237
  692MOL0     H91306   9.444   0.862   2.866 -0.7402 -1.0838 -0.8588
  692MOL0     H91307   9.289   0.684   2.870  0.2421  0.9294  0.4955
  692MOL0     H91308   8.904   0.423   2.824  0.5292  2.1019  0.8137
  692MOL0     H91309   8.703   0.295   2.841 -0.5994  0.3716  2.2425
  692MOL0     H91310   8.354   0.297   2.891 -0.9267 -3.0270 -1.1809
  692MOL0     H91311   8.517   0.257   2.912  0.7658 -1.8364 -1.1089
  692MOL0     H91312   8.335   0.143   2.690  1.1133 -1.9943 -1.3137
  692MOL0     H91313   8.385   0.061   2.842  0.7977  1.1767  1.6352
  692MOL0     H91314   8.619   0.079   2.783  1.2766  0.9615 -1.5004
  692MOL0     H91315   8.572   0.130   2.625  2.9786 -1.4643  0.4054
  692MOL0     H91316   8.477  -0.143   2.747  0.4406 -1.8892 -0.6678
  692MOL0     H91317   8.464  -0.076   2.585 -2.6300  0.3222  1.6601
  692MOL0     H91318   8.736  -0.106   2.686  0.0774  1.4192 -1.5855
  692MOL0     H91319   8.673  -0.121   2.519 -1.3724  2.0031 -0.2574
  692MOL0     H91320   8.570  -0.331   2.563 -0.7190  1.6244  0.3037
  692MOL0     H91321   8.634  -0.326   2.732  0.1987 -0.6076 -0.0730
  692MOL0     H91322   8.788  -0.334   2.462 -1.2256 -1.0320  0.1844
  692MOL0     H91323   8.864  -0.303   2.613  0.5717 -1.4689 -0.2541
  692MOL0     H91324   8.699  -0.564   2.539  0.7600  1.1034 -0.9290
  692MOL0     H91325   8.777  -0.533   2.696  3.4886 -2.0682  0.6449
  692MOL0     H91326   8.488   0.611   2.642 -1.0607 -2.0084 -0.1832
  692MOL0     H91327   8.702   0.736   2.620 -1.5368  0.7149  0.2850
  692MOL0     H91328   9.010   0.912   2.642 -0.3146 -2.2090  0.2862
  692MOL0     H91329   9.170   1.092   2.630 -1.6146 -0.7975  0.6012
  692MOL0     H91330   8.717   0.553   1.638 -4.3989 -3.1020  0.3666
  692MOL0     H91331   8.644   0.528   1.424  0.7825  0.1229  0.9271
  692MOL0     H91332   8.521   0.765   1.038  0.8979 -0.6133 -1.7219
  692MOL0     H91333   8.438   0.803   0.813 -0.8894  1.1629 -0.1122
  692MOL0     H91334   8.311   0.731   0.646 -0.1489 -1.4278 -2.1013
  692MOL0     H91335   8.329   0.909   0.598 -0.4414  0.7452  0.1606
  692MOL0     H91336   8.240   0.782   0.413  0.1348 -0.4878 -0.0880
  692MOL0     H91337   8.103   0.730   0.530  1.4279 -0.2401  2.1307
  692MOL0     H91338   8.177   1.015   0.450  0.0326  0.1632  0.2675
  692MOL0     H91339   8.035   0.967   0.545  1.7177  2.1017  0.4563
  692MOL0     H91340   7.992   1.018   0.296 -1.6274 -1.0776 -1.8229
  692MOL0     H91341   8.076   0.863   0.261  2.3595  2.4213 -0.0669
  692MOL0     H91342   7.695   0.737   0.386 -0.2115  0.4164 -0.9275
  692MOL0     H91343   8.031   0.813   0.956 -1.1927 -1.0368  3.2727
  692MOL0     H91344   8.103   0.753   1.172  2.5920  0.9873  2.8807
  693MOL0     O91345  10.437   6.658   9.855  0.3655 -0.4743  0.9694
  693MOL0     C91346  10.500   6.683   9.960  0.1032  0.2351  0.6744
  693MOL0     O91347  10.473   6.794  10.047  0.7490  0.4223 -0.2527
  693MOL0     C91348  10.380   6.892  10.014  0.4519 -1.0766  0.1536
  693MOL0     C91349  10.254   6.851   9.964  0.3577 -0.6197  0.6204
  693MOL0     C91350  10.160   6.947   9.921  0.5875  0.4874  0.6518
  693MOL0     C91351  10.176   7.088   9.945 -0.1386  0.9485  0.5217
  693MOL0     O91352  10.091   7.186   9.913  0.7926  0.1062  0.5042
  693MOL0     C91353   9.952   7.156   9.883 -0.0126  1.1670 -0.3039
  693MOL0     C91354   9.887   7.119  10.017  0.3088 -0.0158 -0.6127
  693MOL0     C91355   9.743   7.084   9.979  1.0332  0.8812  0.2289
  693MOL0     C91356   9.642   7.123  10.087 -0.2937 -0.0786  0.2015
  693MOL0     C91357   9.570   7.255  10.053  0.6036 -0.0160  0.0669
  693MOL0     C91358   9.672   7.363  10.034  0.4113  0.2613 -0.0790
  693MOL0     C91359   9.605   7.503  10.021 -0.2265  0.0350 -0.3551
  693MOL0     C91360   9.693   7.622   9.964 -0.3044  0.3546  0.5842
  693MOL0     N91361   9.634   7.757   9.989 -0.0537  0.8591 -0.3812
  693MOL0     C91362   9.518   7.797   9.931  1.1118  0.0622 -0.5312
  693MOL0     C91363   9.489   7.922   9.978  0.4640 -0.0341  0.2764
  693MOL0     C91364   9.377   8.013   9.942 -0.6259 -0.3493 -0.7809
  693MOL0     C91365   9.233   7.971   9.984  0.1190 -0.8376 -0.0689
  693MOL0     C91366   9.204   7.822   9.970  0.4841  0.0998  0.7135
  693MOL0     C91367   9.061   7.786  10.014  0.5016 -0.2172  0.2098
  693MOL0     O91368   9.032   7.833  10.148 -0.2814 -0.4163  0.0860
  693MOL0     C91369   8.915   7.812  10.210  0.1731 -0.5040  0.7518
  693MOL0     C91370   8.912   7.856  10.341 -0.3551  0.3993  0.0426
  693MOL0     C91371   8.797   7.840  10.425 -0.4836 -0.1887 -0.2585
  693MOL0     C91372   8.684   7.784  10.364  0.2083  0.2083 -0.8717
  693MOL0     C91373   8.550   7.763  10.433 -0.5134  0.6188 -0.1453
  693MOL0     O91374   8.465   7.666  10.402  0.7987  0.1209  1.2787
  693MOL0     C91375   8.363   7.628  10.478  0.4680 -0.3198  0.2029
  693MOL0     C91376   8.272   7.731  10.512 -0.6721  0.2533 -0.3749
  693MOL0     C91377   8.178   7.704  10.601 -0.1795  0.0876  0.1076
  693MOL0     C91378   8.149   7.570  10.638  0.6372  0.8138 -0.3890
  693MOL0     O91379   8.040   7.528  10.712  0.4965 -0.2028  0.1090
  693MOL0     C91380   7.945   7.631  10.743  1.4493 -0.4732 -0.1251
  693MOL0     C91381   7.825   7.545  10.789 -0.6111  0.9663  0.8205
  693MOL0     C91382   7.697   7.629  10.803 -0.4974 -0.7204 -0.1465
  693MOL0     C91383   7.582   7.537  10.849  0.0193  0.0292 -0.2005
  693MOL0     C91384   7.460   7.628  10.887 -0.2437  0.8576  0.2011
  693MOL0     C91385   7.331   7.542  10.908  0.3368 -0.5617  0.1228
  693MOL0     C91386   7.259   7.484  10.781  0.4170 -0.5252  0.2051
  693MOL0     C91387   7.118   7.457  10.827 -0.3042  0.4471  0.0836
  693MOL0    Cl91388   7.023   7.390  10.699  0.1893  0.5295  0.0323
  693MOL0     C91389   8.240   7.471  10.612  0.3090 -0.5793  0.5774
  693MOL0     C91390   8.351   7.496  10.527  0.6767  0.2237  1.1970
  693MOL0     O91391   8.542   7.831  10.537  0.9930 -0.0430 -0.3023
  693MOL0     C91392   8.689   7.745  10.234 -0.2604  1.1642  0.8954
  693MOL0     C91393   8.800   7.763  10.147  0.1431  1.2152  0.4395
  693MOL0     N91394   9.603   7.953  10.051 -0.0452  0.1954  0.4190
  693MOL0     N91395   9.691   7.861  10.058 -0.6526  0.5615  0.9857
  693MOL0     C91396  10.295   7.125  10.011  0.1560  1.4863  0.1230
  693MOL0     C91397  10.393   7.027  10.044  0.2955 -0.8057 -0.4185
  693MOL0     C91398  10.603   6.584  10.001 -0.0870  0.8752 -0.0321
  693MOL0     C91399  10.590   6.446   9.958 -0.2990  0.4565  0.0934
  693MOL0     C91400  10.685   6.353  10.012 -0.1360 -0.0656  0.5606
  693MOL0     C91401  10.781   6.392  10.105  0.1345 -0.9937  1.1560
  693MOL0     O91402  10.861   6.291  10.152 -0.0380  0.0817  0.0596
  693MOL0     C91403  10.997   6.318  10.170 -0.3841  0.3990 -0.0234
  693MOL0     C91404  11.062   6.189  10.135  0.3695 -1.1594  0.7328
  693MOL0     C91405  11.078   6.163   9.986  0.8931 -0.5821  0.1299
  693MOL0     C91406  11.167   6.046   9.959 -0.3245  0.6891  0.1699
  693MOL0     C91407  11.303   6.082   9.963 -0.0546  0.6676  0.4619
  693MOL0     C91408  11.418   6.121   9.974 -1.4219 -0.1566 -0.0258
  693MOL0     C91409  10.792   6.527  10.140  0.5759  0.5023  0.3341
  693MOL0     C91410  10.704   6.617  10.091  0.1080 -0.1260  0.4991
  693MOL0     H91411  10.234   6.745   9.954 -2.1142 -0.3155  1.6315
  693MOL0     H91412  10.070   6.910   9.873 -0.0424 -0.5483  2.5306
  693MOL0     H91413   9.944   7.080   9.805  2.1113 -1.5158  1.9016
  693MOL0     H91414   9.905   7.247   9.844 -1.6832 -0.6150 -2.7270
  693MOL0     H91415   9.895   7.215  10.068  0.7560 -0.4204  0.0913
  693MOL0     H91416   9.929   7.038  10.078 -0.5123  0.5011  0.6872
  693MOL0     H91417   9.729   6.976   9.980 -2.7336  1.2387  0.7721
  693MOL0     H91418   9.710   7.125   9.883 -1.8287  0.5768  1.0189
  693MOL0     H91419   9.564   7.047  10.098 -2.4521  2.2869  2.6009
  693MOL0     H91420   9.692   7.126  10.185  1.1215  1.5303 -0.5228
  693MOL0     H91421   9.501   7.280  10.133 -0.7669 -0.0538 -1.0538
  693MOL0     H91422   9.516   7.237   9.959  0.7430 -0.6327  0.0972
  693MOL0     H91423   9.738   7.344   9.949 -1.0564 -2.5727 -0.6854
  693MOL0     H91424   9.736   7.361  10.123  1.9058  1.5828 -1.0697
  693MOL0     H91425   9.532   7.480   9.943 -1.7353 -3.0569  1.7614
  693MOL0     H91426   9.548   7.520  10.113 -2.7576 -4.8102 -0.7044
  693MOL0     H91427   9.726   7.608   9.861 -0.8623  0.9848  0.3108
  693MOL0     H91428   9.784   7.627  10.025  0.7334 -0.5497 -0.8336
  693MOL0     H91429   9.468   7.726   9.866 -2.6458  0.7065  1.3783
  693MOL0     H91430   9.372   8.028   9.834 -1.2888  0.7397 -0.6162
  693MOL0     H91431   9.398   8.106   9.994 -1.8349 -0.7321  0.4476
  693MOL0     H91432   9.161   8.028   9.925  2.3247  0.1174 -2.0265
  693MOL0     H91433   9.223   7.992  10.091  4.7499  0.5691  0.3570
  693MOL0     H91434   9.210   7.790   9.865  0.8570 -1.2134  1.1216
  693MOL0     H91435   9.278   7.767  10.029  1.4678  1.4439  0.7803
  693MOL0     H91436   9.040   7.678  10.012  3.0120 -0.7554 -0.5501
  693MOL0     H91437   8.984   7.827   9.947  1.2451 -1.0299 -1.1878
  693MOL0     H91438   9.011   7.875  10.379  0.2951 -0.1106 -1.3385
  693MOL0     H91439   8.792   7.888  10.522  3.1130 -1.2153  0.5988
  693MOL0     H91440   8.297   7.830  10.475 -3.0354  1.4718  1.0396
  693MOL0     H91441   8.121   7.790  10.633 -0.1027  0.1691  0.0245
  693MOL0     H91442   7.915   7.701  10.665  0.0427 -0.7509  0.1559
  693MOL0     H91443   7.980   7.694  10.825 -1.4174 -0.6016  1.2966
  693MOL0     H91444   7.856   7.492  10.879  2.6867  0.6676 -0.3601
  693MOL0     H91445   7.815   7.470  10.710  0.7473 -0.4950  1.9827
  693MOL0     H91446   7.672   7.674  10.706 -1.4049  0.6471  0.6939
  693MOL0     H91447   7.709   7.706  10.880  0.6553  0.5354 -1.4836
  693MOL0     H91448   7.568   7.469  10.765  1.6277  0.3240 -0.7253
  693MOL0     H91449   7.620   7.481  10.934  1.5634  1.1542 -0.1042
  693MOL0     H91450   7.436   7.688  10.800 -2.0302 -1.5000 -1.0569
  693MOL0     H91451   7.491   7.691  10.971  0.0987  2.4641 -1.0959
  693MOL0     H91452   7.268   7.612  10.964  1.1534 -1.1852  1.8868
  693MOL0     H91453   7.363   7.463  10.976  2.1900 -0.0634 -0.1187
  693MOL0     H91454   7.252   7.552  10.696 -1.9300 -1.9484 -0.8334
  693MOL0     H91455   7.312   7.393  10.750  0.6812 -1.0032  1.9350
  693MOL0     H91456   7.080   7.553  10.863  1.1050  1.1385 -0.1968
  693MOL0     H91457   7.121   7.384  10.909  0.8449  0.7564  0.3423
  693MOL0     H91458   8.214   7.372  10.649  0.7663 -1.7278 -1.9273
  693MOL0     H91459   8.419   7.418  10.495 -2.5149 -3.4217  2.5117
  693MOL0     H91460   8.601   7.705  10.184 -1.2090  4.6924 -0.5343
  693MOL0     H91461   8.796   7.729  10.044 -1.6068  0.7373  0.6220
  693MOL0     H91462  10.321   7.222  10.052  1.6759 -0.1792  3.4650
  693MOL0     H91463  10.473   7.043  10.114  1.3072 -0.1108 -1.6855
  693MOL0     H91464  10.518   6.413   9.885 -2.3448  0.1161  2.1542
  693MOL0     H91465  10.673   6.250   9.980 -1.5544 -0.4555  2.2272
  693MOL0     H91466  11.011   6.339  10.277 -0.5551 -0.1421  0.1049
  693MOL0     H91467  11.040   6.394  10.104 -1.6885  0.0622 -1.3017
  693MOL0     H91468  11.164   6.200  10.173  0.7705  0.4686 -0.7087
  693MOL0     H91469  11.007   6.109  10.186 -0.5676  0.1804  1.9056
  693MOL0     H91470  11.126   6.251   9.940  1.0191 -0.2496  0.8767
  693MOL0     H91471  10.984   6.137   9.938  1.5507 -1.2320 -0.8463
  693MOL0     H91472  11.148   5.976  10.041  2.1707  0.0613  0.3036
  693MOL0     H91473  11.141   6.003   9.861  0.5394 -0.1488  0.2830
  693MOL0     H91474  11.523   6.145   9.973 -1.3383  0.2018 -4.8837
  693MOL0     H91475  10.872   6.567  10.202  1.8115 -0.3678 -0.6666
  693MOL0     H91476  10.722   6.721  10.117  1.4894  0.2000 -1.5700
  694MOL0     O91477   3.777   9.278   4.912  0.3710 -0.1106  0.4016
  694MOL0     C91478   3.861   9.217   4.975 -0.0458  0.0923 -0.3617
  694MOL0     O91479   3.837   9.136   5.086 -0.1687 -0.6989 -0.2472
  694MOL0     C91480   3.708   9.109   5.131  0.3715 -0.2534 -0.4034
  694MOL0     C91481   3.598   9.192   5.105  0.1742  0.2480  0.1673
  694MOL0     C91482   3.474   9.149   5.155  0.1936  0.9054  0.2259
  694MOL0     C91483   3.457   9.022   5.224  0.4475 -1.0461  0.4725
  694MOL0     O91484   3.328   8.975   5.251  0.1603  0.0204  0.9608
  694MOL0     C91485   3.228   9.012   5.158 -1.0335  0.1718 -0.4733
  694MOL0     C91486   3.114   8.909   5.181 -1.4836  0.6204  0.6990
  694MOL0     C91487   2.990   8.965   5.118 -0.1489  0.5064 -0.3506
  694MOL0     C91488   2.874   8.876   5.165  0.3848 -0.6869  0.2807
  694MOL0     C91489   2.738   8.916   5.111 -0.1052 -0.4758 -0.5958
  694MOL0     C91490   2.629   8.827   5.169  0.1880 -0.5254  0.4386
  694MOL0     C91491   2.491   8.855   5.099  0.4730  0.4593 -0.6638
  694MOL0     C91492   2.386   8.740   5.102  0.0945 -0.1164  0.1270
  694MOL0     N91493   2.251   8.775   5.052  0.2527 -0.3565  0.1207
  694MOL0     C91494   2.202   8.725   4.934 -1.5364 -0.2327 -0.5921
  694MOL0     C91495   2.071   8.748   4.934 -0.0820 -0.3593 -0.5563
  694MOL0     C91496   1.968   8.682   4.846 -0.6695 -0.3524 -0.5809
  694MOL0     C91497   1.912   8.777   4.740  0.6714  0.0965  0.0345
  694MOL0     C91498   1.836   8.900   4.790  0.1495  0.5863  0.2332
  694MOL0     C91499   1.745   8.871   4.897  0.3064 -1.0437 -0.2117
  694MOL0     O91500   1.667   8.752   4.873  0.0036  0.2473  0.1063
  694MOL0     C91501   1.550   8.746   4.948  0.6416 -0.3327  0.2691
  694MOL0     C91502   1.450   8.678   4.895 -0.0370  0.3607 -0.7198
  694MOL0     C91503   1.323   8.671   4.966 -0.0382 -0.1286 -0.5283
  694MOL0     C91504   1.302   8.743   5.083 -0.1128 -0.1239 -0.3936
  694MOL0     C91505   1.173   8.742   5.152 -0.2427 -0.4762 -0.0610
  694MOL0     O91506   1.100   8.633   5.141  0.2700  0.7193  0.3146
  694MOL0     C91507   0.964   8.638   5.171 -0.3154  0.0180 -0.5393
  694MOL0     C91508   0.916   8.523   5.238  0.7186 -0.5142  0.3096
  694MOL0     C91509   0.781   8.519   5.281  0.3397  0.8858  0.3120
  694MOL0     C91510   0.694   8.630   5.263 -0.4746 -0.2105 -0.2481
  694MOL0     O91511   0.568   8.639   5.306  0.1384 -0.1276 -0.0768
  694MOL0     C91512   0.487   8.521   5.312  0.9035 -0.3068  0.6303
  694MOL0     C91513   0.336   8.558   5.317 -0.3319 -1.1776  0.3220
  694MOL0     C91514   0.246   8.444   5.362 -0.1701  0.2341 -0.4216
  694MOL0     C91515   0.111   8.491   5.397  0.1866 -0.3938 -0.3554
  694MOL0     C91516   0.014   8.503   5.274 -0.9198 -1.0423 -0.1912
  694MOL0     C91517  -0.128   8.499   5.297 -0.2445 -0.4028  0.0459
  694MOL0     C91518  -0.169   8.595   5.408 -0.8945  0.1842  0.5109
  694MOL0     C91519  -0.308   8.631   5.412 -0.5682  0.4859 -0.5091
  694MOL0    Cl91520  -0.413   8.509   5.331 -0.1125  0.1340  0.0816
  694MOL0     C91521   0.745   8.738   5.193  0.6419 -0.5500 -1.2396
  694MOL0     C91522   0.879   8.746   5.156  1.2769 -0.9018 -0.2546
  694MOL0     O91523   1.152   8.847   5.219 -0.2616 -0.1422 -0.9702
  694MOL0     C91524   1.411   8.813   5.138  0.0936  0.1646 -0.8595
  694MOL0     C91525   1.528   8.818   5.069  0.1373 -0.3735  0.6207
  694MOL0     N91526   2.049   8.825   5.043 -0.3988  0.2884  0.0724
  694MOL0     N91527   2.157   8.853   5.109  0.1035  0.6868 -0.2950
  694MOL0     C91528   3.573   8.948   5.242  0.5885  0.0691 -0.1222
  694MOL0     C91529   3.700   8.993   5.205  0.9075  0.2544 -0.3222
  694MOL0     C91530   4.001   9.263   4.950 -0.7467 -0.4921 -0.1033
  694MOL0     C91531   4.048   9.335   4.832  1.4419  0.3646 -0.0006
  694MOL0     C91532   4.175   9.373   4.812 -0.0923 -0.7871 -0.1495
  694MOL0     C91533   4.270   9.343   4.908  0.6305 -0.6631 -0.9691
  694MOL0     O91534   4.395   9.390   4.880 -0.8661  0.0401  0.1890
  694MOL0     C91535   4.480   9.424   4.992 -0.1294  0.1002  0.8881
  694MOL0     C91536   4.619   9.436   4.930  0.1284  0.4805 -0.0540
  694MOL0     C91537   4.683   9.302   4.876  0.7706  0.3817  0.1038
  694MOL0     C91538   4.807   9.336   4.792  0.2288 -0.4122  0.1607
  694MOL0     C91539   4.888   9.438   4.856 -0.7561  0.5053 -0.1946
  694MOL0     C91540   4.971   9.502   4.911  0.9746 -0.9154  0.2677
  694MOL0     C91541   4.235   9.263   5.023 -0.3724 -0.1445  0.0876
  694MOL0     C91542   4.099   9.233   5.047  0.0842 -0.6454 -0.7350
  694MOL0     H91543   3.611   9.295   5.074  2.2043 -0.6418 -2.3305
  694MOL0     H91544   3.387   9.211   5.134  0.8123  2.2267  1.3926
  694MOL0     H91545   3.257   9.001   5.053 -2.7965  1.9793 -1.2260
  694MOL0     H91546   3.188   9.114   5.168 -1.8710 -0.3130  1.6595
  694MOL0     H91547   3.102   8.886   5.287  0.4022 -1.2246  0.5807
  694MOL0     H91548   3.148   8.818   5.130 -1.8928  0.8655 -0.0261
  694MOL0     H91549   2.990   8.967   5.009  3.1587 -0.8493 -0.4809
  694MOL0     H91550   2.974   9.067   5.152 -0.1011  1.2090 -2.3200
  694MOL0     H91551   2.896   8.773   5.135  1.1023 -0.1758 -1.0576
  694MOL0     H91552   2.853   8.881   5.272 -0.3816 -2.9218  0.2750
  694MOL0     H91553   2.742   8.894   5.004 -1.6098 -2.2828 -0.3364
  694MOL0     H91554   2.717   9.022   5.127 -1.0670 -0.8392  0.7459
  694MOL0     H91555   2.612   8.846   5.275 -2.9559 -2.4889  0.4275
  694MOL0     H91556   2.650   8.722   5.150 -1.8114 -0.9651  0.4852
  694MOL0     H91557   2.453   8.947   5.144 -1.2150 -0.6065  0.1964
  694MOL0     H91558   2.498   8.891   4.996 -1.1773  3.8209  0.2584
  694MOL0     H91559   2.377   8.708   5.206  1.5843  1.7095  0.8867
  694MOL0     H91560   2.433   8.656   5.051 -0.3748  0.5231 -1.4000
  694MOL0     H91561   2.262   8.664   4.867 -0.0679  2.8484 -2.3217
  694MOL0     H91562   1.887   8.635   4.902 -0.0985 -0.8802 -0.1818
  694MOL0     H91563   2.016   8.597   4.795 -1.3984 -0.6897 -0.7083
  694MOL0     H91564   1.843   8.714   4.685 -0.8039  1.7472 -0.0966
  694MOL0     H91565   1.991   8.817   4.676  2.8608 -1.6973  1.4766
  694MOL0     H91566   1.909   8.974   4.824  0.0097 -0.0589  2.0549
  694MOL0     H91567   1.769   8.936   4.711  1.4571 -0.4162 -1.4128
  694MOL0     H91568   1.680   8.956   4.921  0.0600 -1.3507  0.2306
  694MOL0     H91569   1.812   8.858   4.983  3.7240 -1.9187 -2.7884
  694MOL0     H91570   1.465   8.641   4.794  1.4738  1.1242 -0.7980
  694MOL0     H91571   1.247   8.605   4.925 -2.1522  1.6708  0.3135
  694MOL0     H91572   0.979   8.435   5.243  0.2347 -1.0166 -1.5877
  694MOL0     H91573   0.744   8.434   5.338  1.4467  0.2693  0.1373
  694MOL0     H91574   0.506   8.474   5.408 -0.8266  1.9764  2.2149
  694MOL0     H91575   0.502   8.458   5.224 -1.6775  0.9867 -0.8886
  694MOL0     H91576   0.308   8.600   5.220  0.4159 -1.5269 -0.0578
  694MOL0     H91577   0.336   8.636   5.394 -0.1857 -0.2238 -0.6188
  694MOL0     H91578   0.281   8.389   5.450 -2.2772 -0.4960  0.0073
  694MOL0     H91579   0.243   8.367   5.284  2.2006 -0.1248 -0.2336
  694MOL0     H91580   0.061   8.427   5.470 -0.2959  0.5823  0.2000
  694MOL0     H91581   0.121   8.587   5.449  2.6101 -0.5254 -0.5059
  694MOL0     H91582   0.044   8.434   5.195  0.2667 -0.3584 -0.3734
  694MOL0     H91583   0.037   8.601   5.232 -2.3628 -1.1189 -1.2221
  694MOL0     H91584  -0.155   8.396   5.323  0.5918 -0.3580  1.1840
  694MOL0     H91585  -0.182   8.527   5.206  0.2168  1.5380  0.3166
  694MOL0     H91586  -0.135   8.554   5.503 -1.3337  1.2655  1.1644
  694MOL0     H91587  -0.117   8.691   5.397 -0.7097 -0.0187 -0.4587
  694MOL0     H91588  -0.318   8.726   5.359 -2.1399 -0.0133 -1.1748
  694MOL0     H91589  -0.342   8.637   5.515  0.3307 -0.0286 -0.1693
  694MOL0     H91590   0.677   8.822   5.186  1.0733 -0.2079 -1.3171
  694MOL0     H91591   0.904   8.838   5.105 -1.7242 -0.4599 -1.1638
  694MOL0     H91592   1.404   8.872   5.228  3.3282 -0.1141 -0.3181
  694MOL0     H91593   1.599   8.891   5.109 -1.0846  0.6075  1.0664
  694MOL0     H91594   3.554   8.853   5.290  3.7378 -0.1826  0.8280
  694MOL0     H91595   3.785   8.928   5.222 -0.5877 -1.3907  1.2261
  694MOL0     H91596   3.967   9.356   4.762  1.8720  1.7027 -0.1306
  694MOL0     H91597   4.209   9.421   4.720  0.1721 -1.3302 -0.3376
  694MOL0     H91598   4.478   9.340   5.062 -1.0742  0.1433  0.9239
  694MOL0     H91599   4.450   9.517   5.042 -0.1117  0.6613 -0.1272
  694MOL0     H91600   4.622   9.522   4.863  1.9743  0.3488 -0.1938
  694MOL0     H91601   4.674   9.463   5.020  0.9940  0.7967 -0.6719
  694MOL0     H91602   4.618   9.254   4.802 -0.6263  0.9228  0.9395
  694MOL0     H91603   4.705   9.219   4.944  2.7140 -1.6203 -2.7316
  694MOL0     H91604   4.862   9.247   4.761  0.3774  0.4176 -2.1476
  694MOL0     H91605   4.778   9.381   4.697  1.2159  0.2424  0.1471
  694MOL0     H91606   5.049   9.550   4.967 -0.8116  1.3993  0.9692
  694MOL0     H91607   4.313   9.239   5.095  0.0845  0.7051 -0.1110
  694MOL0     H91608   4.063   9.190   5.139 -1.0917  1.5819 -0.0653
  695MOL0     O91609   8.937   5.075  10.135  0.4309 -0.8544  0.4578
  695MOL0     C91610   8.880   5.100  10.032  0.2642 -0.1994 -0.6645
  695MOL0     O91611   8.881   5.018   9.922  0.3048 -0.4932  0.4883
  695MOL0     C91612   8.979   4.915   9.917 -1.2140 -0.4137  0.7823
  695MOL0     C91613   9.078   4.923   9.815  1.1196  0.7593  0.1502
  695MOL0     C91614   9.184   4.827   9.799  0.8697 -0.6061  0.6422
  695MOL0     C91615   9.181   4.709   9.869 -0.0168  0.0953  0.1593
  695MOL0     O91616   9.263   4.609   9.834 -0.5280  0.5138  0.5581
  695MOL0     C91617   9.266   4.494   9.924  0.0331  0.1290 -0.0372
  695MOL0     C91618   9.345   4.523  10.048 -0.2713  0.2432 -0.3436
  695MOL0     C91619   9.328   4.410  10.147  0.1371 -0.1915 -0.4136
  695MOL0     C91620   9.196   4.419  10.230 -1.0553 -0.5814  0.2223
  695MOL0     C91621   9.171   4.306  10.327  0.0002  0.0226 -1.0211
  695MOL0     C91622   9.046   4.331  10.413  0.7101  0.6166 -0.9144
  695MOL0     C91623   9.030   4.228  10.521  0.6848 -0.3753 -0.6420
  695MOL0     C91624   8.889   4.175  10.529 -0.0637 -0.2988  0.6333
  695MOL0     N91625   8.855   4.105  10.408 -1.1647  0.7137  0.1977
  695MOL0     C91626   8.727   4.072  10.373 -0.1941  0.4187  0.2844
  695MOL0     C91627   8.735   3.971  10.283  0.3741 -0.3938 -0.4753
  695MOL0     C91628   8.626   3.899  10.217  0.2772 -0.4771  0.4759
  695MOL0     C91629   8.598   3.768  10.284 -0.5139 -0.0224  0.3029
  695MOL0     C91630   8.489   3.686  10.221  0.2591  0.3468  1.3482
  695MOL0     C91631   8.345   3.709  10.278 -0.3426 -0.7445  0.1559
  695MOL0     O91632   8.310   3.641  10.400 -0.8685  0.4404 -0.1077
  695MOL0     C91633   8.187   3.676  10.462 -0.8595 -0.2611 -0.0727
  695MOL0     C91634   8.165   3.626  10.590 -0.2384 -0.8037 -0.8981
  695MOL0     C91635   8.045   3.650  10.650 -0.2052 -0.4130 -0.3144
  695MOL0     C91636   7.949   3.736  10.605 -0.4171 -0.2103 -0.2032
  695MOL0     C91637   7.825   3.765  10.668 -0.0579 -0.0537 -0.1935
  695MOL0     O91638   7.813   3.715  10.798  0.2606 -0.0368  0.6447
  695MOL0     C91639   7.706   3.738  10.884  0.0051 -0.0436  0.1163
  695MOL0     C91640   7.595   3.821  10.875 -0.2026  0.3184  1.1024
  695MOL0     C91641   7.513   3.843  10.981  0.0563 -0.2412  0.0750
  695MOL0     C91642   7.533   3.786  11.111 -0.0909  0.7961  0.1877
  695MOL0     O91643   7.452   3.805  11.226 -0.0681  0.1240  0.5033
  695MOL0     C91644   7.323   3.878  11.202 -0.2313 -0.4149  0.7101
  695MOL0     C91645   7.252   3.877  11.332 -0.6409 -0.2946 -0.5426
  695MOL0     C91646   7.128   3.955  11.336 -0.0912 -0.6056 -0.5912
  695MOL0     C91647   7.070   3.979  11.481 -0.4082 -0.0075  0.0139
  695MOL0     C91648   6.952   4.072  11.454  1.3561 -0.8895 -0.0096
  695MOL0     C91649   6.894   4.092  11.593 -0.0677 -0.1702  0.2213
  695MOL0     C91650   6.748   4.140  11.581  0.4698 -0.2922 -0.0065
  695MOL0     C91651   6.678   4.171  11.720  0.6858 -0.0029  0.4191
  695MOL0    Cl91652   6.512   4.221  11.683  0.4143 -0.3575  0.2167
  695MOL0     C91653   7.639   3.687  11.112 -0.1167  0.0637 -0.0847
  695MOL0     C91654   7.720   3.665  11.002 -0.0684  0.2349  0.0062
  695MOL0     O91655   7.742   3.836  10.613  0.6229 -0.2256  0.2198
  695MOL0     C91656   7.978   3.803  10.482 -0.2774 -0.5468 -0.1067
  695MOL0     C91657   8.097   3.772  10.412 -0.0657 -0.0634 -0.3476
  695MOL0     N91658   8.874   3.953  10.264  0.1950 -0.0513 -0.1759
  695MOL0     N91659   8.944   4.021  10.345 -0.5928  0.4172  0.3126
  695MOL0     C91660   9.082   4.697   9.970  0.0770 -0.0863  0.5376
  695MOL0     C91661   8.990   4.798   9.989  1.1048  0.2170 -0.4908
  695MOL0     C91662   8.800   5.230  10.029  0.0554  0.1636 -0.0837
  695MOL0     C91663   8.797   5.327  10.133 -0.9354  0.4568  0.4733
  695MOL0     C91664   8.704   5.427  10.132 -0.2466  0.1121  0.7010
  695MOL0     C91665   8.592   5.433  10.046  0.6366  0.3172  0.0083
  695MOL0     O91666   8.501   5.531  10.071  0.0152 -0.6035 -0.3002
  695MOL0     C91667   8.371   5.519   9.999  1.0705 -0.3995  0.2376
  695MOL0     C91668   8.277   5.633  10.046 -0.3556  0.0285  0.2503
  695MOL0     C91669   8.138   5.613   9.979 -0.2402  0.4960 -0.5604
  695MOL0     C91670   8.046   5.499  10.056 -0.2739  0.3226  0.5910
  695MOL0     C91671   7.911   5.507   9.996 -0.3717 -0.7944 -0.6452
  695MOL0     C91672   7.802   5.533   9.944  0.0719  0.3864 -0.3604
  695MOL0     C91673   8.587   5.331   9.938  0.0610  0.3948 -0.3805
  695MOL0     C91674   8.692   5.237   9.932  0.0148 -0.1946  0.0643
  695MOL0     H91675   9.050   5.006   9.752 -0.6708  0.1223  0.0567
  695MOL0     H91676   9.247   4.832   9.710  0.1726 -0.1564  0.1658
  695MOL0     H91677   9.314   4.416   9.864 -1.1726  0.2709 -1.2327
  695MOL0     H91678   9.161   4.469   9.941 -0.8261  2.5034 -1.3411
  695MOL0     H91679   9.307   4.615  10.094 -1.1001  0.1618 -0.8532
  695MOL0     H91680   9.452   4.522  10.023 -0.3761  0.6155 -0.8239
  695MOL0     H91681   9.407   4.407  10.223 -0.0309 -2.3865 -0.2555
  695MOL0     H91682   9.325   4.319  10.086 -1.3887  1.5045 -3.0731
  695MOL0     H91683   9.199   4.511  10.290  0.1800  0.7308 -1.7235
  695MOL0     H91684   9.118   4.427  10.153  1.3456 -0.3398 -2.3743
  695MOL0     H91685   9.252   4.298  10.400 -1.5777  0.3062  0.8496
  695MOL0     H91686   9.167   4.211  10.274  2.2930  0.4052 -1.9981
  695MOL0     H91687   8.962   4.345  10.344 -0.4984  2.9354  0.8843
  695MOL0     H91688   9.064   4.427  10.461 -0.9739  0.5159 -0.0185
  695MOL0     H91689   9.106   4.151  10.507  1.9299  0.8640 -1.0388
  695MOL0     H91690   9.044   4.275  10.619  0.6334 -0.3624 -0.6413
  695MOL0     H91691   8.813   4.253  10.530 -0.7131 -0.8999 -0.2161
  695MOL0     H91692   8.886   4.114  10.620 -0.7350  0.7992  1.3663
  695MOL0     H91693   8.634   4.125  10.390 -1.5504 -1.7571  0.1070
  695MOL0     H91694   8.659   3.878  10.115 -0.6868  1.4103 -0.2721
  695MOL0     H91695   8.541   3.964  10.193  3.0256  2.6090 -2.0551
  695MOL0     H91696   8.567   3.790  10.386 -2.5582  1.2860 -0.5410
  695MOL0     H91697   8.691   3.710  10.288 -0.2555  0.4115  0.6679
  695MOL0     H91698   8.496   3.705  10.113  3.3960 -1.5539  1.0883
  695MOL0     H91699   8.513   3.580  10.229 -2.7175 -0.4971  0.2809
  695MOL0     H91700   8.274   3.682  10.199  1.2657 -3.1230 -0.5908
  695MOL0     H91701   8.334   3.817  10.290  3.2596 -0.4823  2.4597
  695MOL0     H91702   8.240   3.568  10.643  1.5773  1.8058 -0.4090
  695MOL0     H91703   8.030   3.600  10.745 -1.2878  0.1793 -0.1658
  695MOL0     H91704   7.583   3.863  10.776 -2.1071 -1.4518  0.5299
  695MOL0     H91705   7.428   3.911  10.978  0.2723  0.0113 -2.5829
  695MOL0     H91706   7.258   3.844  11.120 -2.6795  1.2729  1.8148
  695MOL0     H91707   7.354   3.979  11.173  0.2661 -0.7750 -0.0380
  695MOL0     H91708   7.330   3.918  11.398  1.3406 -1.2772 -2.1861
  695MOL0     H91709   7.224   3.776  11.363 -3.8242  0.9155  0.9144
  695MOL0     H91710   7.059   3.914  11.261 -0.1772  1.1138 -1.4968
  695MOL0     H91711   7.150   4.051  11.289  0.9828  0.5708  2.1257
  695MOL0     H91712   7.050   3.878  11.519  0.2611 -0.7460 -1.4997
  695MOL0     H91713   7.145   4.024  11.546 -1.1682  0.1411  0.7996
  695MOL0     H91714   6.877   4.042  11.380  1.6417  1.8743 -1.5506
  695MOL0     H91715   6.996   4.157  11.402  2.8766 -1.2696  0.5880
  695MOL0     H91716   6.954   4.160  11.654  0.1946 -1.1700  1.1065
  695MOL0     H91717   6.889   4.000  11.653  0.1841 -0.5430 -0.3255
  695MOL0     H91718   6.758   4.231  11.521  1.5479 -1.1180 -1.1473
  695MOL0     H91719   6.679   4.070  11.532 -0.3749 -0.3952  1.3122
  695MOL0     H91720   6.740   4.248  11.767  2.5967  0.9311 -3.2374
  695MOL0     H91721   6.692   4.083  11.783  3.1300 -1.4831 -1.9681
  695MOL0     H91722   7.647   3.638  11.208 -1.7615 -1.0672 -0.4823
  695MOL0     H91723   7.805   3.603  11.029 -0.5726 -0.5977 -0.2891
  695MOL0     H91724   7.911   3.880  10.446 -0.4322 -0.6947 -0.1335
  695MOL0     H91725   8.112   3.814  10.313  1.8988 -2.4823 -1.1836
  695MOL0     H91726   9.060   4.607  10.028 -0.4669 -1.3953 -1.5644
  695MOL0     H91727   8.931   4.792  10.081 -1.0975 -2.2310 -1.9348
  695MOL0     H91728   8.873   5.320  10.211  0.0360  0.2967 -0.4640
  695MOL0     H91729   8.707   5.498  10.214 -2.9071  1.0657  0.0776
  695MOL0     H91730   8.328   5.419  10.014  0.2506 -0.0802  0.0913
  695MOL0     H91731   8.387   5.535   9.892  2.1205 -3.1558 -0.0962
  695MOL0     H91732   8.253   5.641  10.152 -2.5338 -2.1122  0.0053
  695MOL0     H91733   8.331   5.726  10.029  0.2645  0.4744  3.9105
  695MOL0     H91734   8.156   5.582   9.876 -0.8658  3.0485 -1.5059
  695MOL0     H91735   8.081   5.706   9.974 -0.4133  0.3497 -1.4316
  695MOL0     H91736   8.085   5.400  10.034 -2.6511 -0.3718 -0.8753
  695MOL0     H91737   8.035   5.498  10.165 -3.9544 -1.7794  0.3789
  695MOL0     H91738   7.707   5.544   9.896 -0.3862  2.7500  0.9387
  695MOL0     H91739   8.514   5.336   9.858 -1.5613 -0.9277  0.9492
  695MOL0     H91740   8.707   5.172   9.846  0.9574  0.3449 -0.1948
  696MOL0     O91741   2.497   1.971   9.270 -0.3731  0.4937  0.7623
  696MOL0     C91742   2.508   1.875   9.190 -0.3733 -0.3402 -0.5440
  696MOL0     O91743   2.410   1.773   9.157 -0.2421 -0.0360  0.0629
  696MOL0     C91744   2.286   1.769   9.219 -0.4442 -0.5269 -0.4941
  696MOL0     C91745   2.280   1.786   9.355  0.2264  0.0304  0.2580
  696MOL0     C91746   2.157   1.771   9.414  0.0837 -0.3186  0.2787
  696MOL0     C91747   2.042   1.746   9.334  0.4709  0.0743 -0.3302
  696MOL0     O91748   1.912   1.743   9.385  0.4646 -0.4745 -0.5384
  696MOL0     C91749   1.890   1.794   9.509  0.1876 -1.0376  0.6534
  696MOL0     C91750   1.749   1.815   9.525 -0.4313 -0.0920 -0.7771
  696MOL0     C91751   1.718   1.868   9.669  0.5757  0.7705 -0.0235
  696MOL0     C91752   1.565   1.910   9.676  0.0350  0.8087  0.8743
  696MOL0     C91753   1.485   1.790   9.727 -0.3990 -0.0871 -0.8694
  696MOL0     C91754   1.342   1.826   9.768 -0.0447 -0.2521 -0.5160
  696MOL0     C91755   1.251   1.884   9.653  0.3772 -0.1253 -1.4090
  696MOL0     C91756   1.105   1.861   9.697  0.4329 -0.0607  0.1213
  696MOL0     N91757   1.007   1.904   9.591  0.3143 -0.0654  0.2863
  696MOL0     C91758   0.966   2.032   9.566  0.0048  0.1115  0.2756
  696MOL0     C91759   0.905   2.021   9.448  0.5155 -0.5791  0.9253
  696MOL0     C91760   0.867   2.124   9.351  0.0944 -0.6384 -0.0766
  696MOL0     C91761   0.748   2.211   9.404  0.0465  0.2081 -0.1616
  696MOL0     C91762   0.603   2.146   9.399  0.0986  0.0752  0.2234
  696MOL0     C91763   0.485   2.245   9.399  0.2336 -0.1221  0.8562
  696MOL0     O91764   0.476   2.298   9.535  0.2559  0.0838  0.4748
  696MOL0     C91765   0.379   2.380   9.569 -1.1716 -0.5590 -0.0730
  696MOL0     C91766   0.251   2.353   9.530 -0.1432 -0.7544 -0.2758
  696MOL0     C91767   0.141   2.428   9.577  0.1359  0.8109 -0.2785
  696MOL0     C91768   0.164   2.531   9.667  0.2852  0.6273 -0.5300
  696MOL0     C91769   0.054   2.623   9.717 -0.0129  0.4524 -1.0153
  696MOL0     O91770  -0.068   2.567   9.731 -0.3815 -0.4045  0.3831
  696MOL0     C91771  -0.177   2.651   9.744 -0.2479  0.0993 -0.4698
  696MOL0     C91772  -0.236   2.658   9.873  0.0640  0.5577  0.6988
  696MOL0     C91773  -0.332   2.753   9.902  0.0218  0.3947 -0.3693
  696MOL0     C91774  -0.381   2.839   9.798  0.5503  0.5650  1.1546
  696MOL0     O91775  -0.487   2.914   9.825  0.0205 -1.0097 -0.6343
  696MOL0     C91776  -0.456   3.048   9.822 -0.1257  0.2917  0.7539
  696MOL0     C91777  -0.579   3.119   9.861  0.2950  0.3056  0.1716
  696MOL0     C91778  -0.544   3.268   9.863  0.4571 -0.4704  0.7763
  696MOL0     C91779  -0.671   3.350   9.898 -0.2830 -0.0260  0.8490
  696MOL0     C91780  -0.659   3.498   9.946 -0.6735 -0.2413  0.4146
  696MOL0     C91781  -0.562   3.589   9.874 -0.1316 -0.1271 -0.3263
  696MOL0     C91782  -0.581   3.603   9.728  0.3440 -1.0718 -0.1907
  696MOL0     C91783  -0.707   3.681   9.694 -0.0104 -0.7209  0.4411
  696MOL0    Cl91784  -0.732   3.664   9.514 -0.1066  0.6934  0.0817
  696MOL0     C91785  -0.316   2.826   9.672  0.9243 -0.1665  0.4434
  696MOL0     C91786  -0.214   2.729   9.638  0.3761 -0.1155  0.1444
  696MOL0     O91787   0.078   2.741   9.733 -0.0487  0.2483 -0.9050
  696MOL0     C91788   0.290   2.555   9.727 -0.5472  0.6387  0.3436
  696MOL0     C91789   0.395   2.483   9.671  0.3463  0.9612  0.8214
  696MOL0     N91790   0.920   1.893   9.400  0.8673  0.0339 -0.1922
  696MOL0     N91791   0.968   1.813   9.497  0.0841 -0.0708 -0.2759
  696MOL0     C91792   2.063   1.737   9.193  0.8020  0.6577 -0.4638
  696MOL0     C91793   2.185   1.738   9.138 -0.5976 -0.1585 -0.6908
  696MOL0     C91794   2.635   1.863   9.109  0.5518 -0.4739  0.3379
  696MOL0     C91795   2.645   1.791   8.984 -0.0389 -0.3716 -0.4264
  696MOL0     C91796   2.763   1.796   8.902 -0.2305  0.0647 -0.4365
  696MOL0     C91797   2.877   1.866   8.946  0.8601 -0.6547  0.0013
  696MOL0     O91798   2.992   1.870   8.866  0.4599  0.3365 -0.7994
  696MOL0     C91799   3.118   1.904   8.934  0.5878 -0.1518  0.2672
  696MOL0     C91800   3.234   1.869   8.842  1.2014  0.0968 -0.2587
  696MOL0     C91801   3.249   1.977   8.735  0.0095 -0.1286 -0.0161
  696MOL0     C91802   3.376   1.966   8.649  0.0945 -0.3748 -0.5939
  696MOL0     C91803   3.500   1.936   8.726 -0.0468  0.2980 -0.3703
  696MOL0     C91804   3.612   1.937   8.783 -0.3347 -0.2833 -0.2505
  696MOL0     C91805   2.862   1.950   9.065  1.0749  0.4935  0.1582
  696MOL0     C91806   2.745   1.940   9.143  1.3864 -0.1636  0.2972
  696MOL0     H91807   2.361   1.805   9.424  0.4523 -2.7473  0.8609
  696MOL0     H91808   2.143   1.785   9.521 -0.8029 -0.2359  0.1594
  696MOL0     H91809   1.943   1.890   9.504  0.6695 -1.3719 -1.6754
  696MOL0     H91810   1.926   1.731   9.591 -1.4958 -1.0951  1.3944
  696MOL0     H91811   1.706   1.715   9.512 -1.0858  0.4276 -3.0651
  696MOL0     H91812   1.707   1.878   9.446  2.9404 -0.5718 -3.1668
  696MOL0     H91813   1.787   1.948   9.699 -0.8373  2.5218 -1.2233
  696MOL0     H91814   1.740   1.780   9.730 -2.9787  0.0183  0.3734
  696MOL0     H91815   1.550   1.994   9.744 -1.2052  0.8832  0.5224
  696MOL0     H91816   1.524   1.939   9.578 -1.3014  0.3471  1.2817
  696MOL0     H91817   1.540   1.744   9.810  0.8904 -1.1100 -2.2326
  696MOL0     H91818   1.476   1.720   9.644 -0.3420 -1.9514  0.6386
  696MOL0     H91819   1.341   1.898   9.851  0.6609 -0.1218 -0.6171
  696MOL0     H91820   1.292   1.747   9.826 -0.0648  1.4000  1.8773
  696MOL0     H91821   1.276   1.989   9.637  2.0949 -0.2020  0.4172
  696MOL0     H91822   1.271   1.818   9.568  1.8255 -0.1185 -1.1074
  696MOL0     H91823   1.087   1.913   9.791  1.6278  0.8689 -0.1349
  696MOL0     H91824   1.090   1.753   9.702  3.0872 -0.4540  0.8928
  696MOL0     H91825   0.989   2.124   9.618 -1.8128  0.3259  0.7770
  696MOL0     H91826   0.838   2.071   9.261  3.5052  0.4344 -2.0039
  696MOL0     H91827   0.946   2.197   9.329 -1.3702  1.4058  1.1240
  696MOL0     H91828   0.749   2.302   9.344  0.6708  0.4057  0.1383
  696MOL0     H91829   0.767   2.246   9.506 -0.0149 -0.5095  0.1002
  696MOL0     H91830   0.604   2.090   9.306  4.0462 -2.4752  1.5179
  696MOL0     H91831   0.593   2.071   9.478  0.6262  0.3753  0.5895
  696MOL0     H91832   0.396   2.184   9.381 -1.8553  2.6038  1.2597
  696MOL0     H91833   0.489   2.330   9.331  0.4208 -0.2967  0.6480
  696MOL0     H91834   0.226   2.267   9.469  0.9273 -1.1480 -0.1804
  696MOL0     H91835   0.039   2.401   9.554  1.3876 -3.7538 -1.5416
  696MOL0     H91836  -0.199   2.583   9.942  0.5574 -0.6567 -0.8314
  696MOL0     H91837  -0.374   2.767  10.001  0.4418 -2.4407  0.2780
  696MOL0     H91838  -0.447   3.075   9.716 -1.4282  0.8573  0.7655
  696MOL0     H91839  -0.374   3.078   9.889  0.5816  0.0170  0.0287
  696MOL0     H91840  -0.611   3.088   9.961 -1.6632  1.7663  0.0620
  696MOL0     H91841  -0.663   3.104   9.792 -1.2758 -0.4248  2.1497
  696MOL0     H91842  -0.507   3.297   9.764  0.6691  2.0046  1.5053
  696MOL0     H91843  -0.460   3.284   9.931  2.1709 -2.3376 -0.7536
  696MOL0     H91844  -0.722   3.356   9.802  1.8212 -0.3878 -0.3478
  696MOL0     H91845  -0.718   3.291   9.977  1.0886 -0.6002  1.2717
  696MOL0     H91846  -0.638   3.507  10.053  0.4248  3.0889  0.0107
  696MOL0     H91847  -0.759   3.539   9.929 -0.0337  1.3465  0.3660
  696MOL0     H91848  -0.463   3.551   9.900 -0.4429 -0.5512  0.2607
  696MOL0     H91849  -0.571   3.692   9.910  1.0681  0.8351 -2.5803
  696MOL0     H91850  -0.493   3.651   9.683 -0.3384 -0.0444 -0.4412
  696MOL0     H91851  -0.587   3.503   9.683  0.4095 -1.5930  0.9402
  696MOL0     H91852  -0.693   3.787   9.716 -0.0755  0.2057 -3.3528
  696MOL0     H91853  -0.792   3.645   9.753  0.2797 -0.8643  0.7806
  696MOL0     H91854  -0.351   2.879   9.584 -1.4971 -1.4688  0.5567
  696MOL0     H91855  -0.166   2.730   9.541  1.5222  0.6908  0.6952
  696MOL0     H91856   0.309   2.619   9.812  0.4042 -0.4656  0.9956
  696MOL0     H91857   0.491   2.479   9.722  0.2618  1.3007  1.0028
  696MOL0     H91858   1.985   1.723   9.119  1.2024  1.9707 -1.1696
  696MOL0     H91859   2.208   1.743   9.032  2.3472 -0.1703 -0.1394
  696MOL0     H91860   2.565   1.733   8.939  0.9777  0.2016 -3.2038
  696MOL0     H91861   2.754   1.748   8.804 -1.3641  1.5333 -1.0902
  696MOL0     H91862   3.127   1.844   9.025  1.4258 -0.9061 -0.2947
  696MOL0     H91863   3.119   2.010   8.961  2.6344  0.0620 -0.4242
  696MOL0     H91864   3.324   1.864   8.905  0.0350  3.4578  1.9588
  696MOL0     H91865   3.213   1.775   8.791 -1.5456  0.2338  0.4597
  696MOL0     H91866   3.269   2.075   8.778  3.4372 -0.0391 -1.5116
  696MOL0     H91867   3.161   1.981   8.669 -0.2566 -1.2069  0.2437
  696MOL0     H91868   3.376   1.883   8.578  5.5495  0.4170 -1.9296
  696MOL0     H91869   3.393   2.060   8.595 -4.7757  0.9706 -0.2993
  696MOL0     H91870   3.707   1.924   8.831 -1.1468 -1.1459  1.1814
  696MOL0     H91871   2.944   2.014   9.094  1.4778 -0.5339  1.3779
  696MOL0     H91872   2.742   2.008   9.228  1.9568 -0.0253  0.2076
  697MOL0     O91873   6.631   5.808   1.801  0.3217 -0.4858  0.6285
  697MOL0     C91874   6.645   5.740   1.695  0.0560 -0.7131 -0.4588
  697MOL0     O91875   6.765   5.691   1.649  0.4946  0.0302  0.6702
  697MOL0     C91876   6.882   5.738   1.698 -0.1092  0.2684  1.3772
  697MOL0     C91877   6.990   5.734   1.608  0.7243 -0.2152 -0.0905
  697MOL0     C91878   7.115   5.775   1.650  0.2353  0.9838 -0.3604
  697MOL0     C91879   7.138   5.798   1.784 -0.2786 -0.1505 -0.7614
  697MOL0     O91880   7.266   5.813   1.829 -0.8895  0.6608 -0.4420
  697MOL0     C91881   7.342   5.933   1.783  0.6089 -0.3364 -0.0034
  697MOL0     C91882   7.485   5.939   1.845  1.1286 -0.9777  0.3872
  697MOL0     C91883   7.566   5.808   1.817 -0.0336  0.8176 -0.0188
  697MOL0     C91884   7.708   5.813   1.873  0.7911 -0.4065  0.4118
  697MOL0     C91885   7.812   5.733   1.790  0.0984  0.4401  0.6778
  697MOL0     C91886   7.959   5.716   1.843  1.1250  0.2738  0.2944
  697MOL0     C91887   8.047   5.840   1.807 -0.0529 -0.6907 -0.1341
  697MOL0     C91888   8.191   5.808   1.837 -0.5013  0.3820  0.0853
  697MOL0     N91889   8.225   5.791   1.972  0.3670 -0.1910  0.1962
  697MOL0     C91890   8.259   5.670   2.024 -0.0141  0.4882 -0.4037
  697MOL0     C91891   8.320   5.687   2.145 -0.2232  0.0286  0.8518
  697MOL0     C91892   8.410   5.587   2.216  0.3444 -0.3347 -0.5374
  697MOL0     C91893   8.344   5.541   2.341  0.7688  0.5914 -0.3122
  697MOL0     C91894   8.226   5.444   2.316  0.6420  0.0454 -0.6060
  697MOL0     C91895   8.147   5.412   2.445  0.3660 -0.2792 -0.1757
  697MOL0     O91896   8.020   5.363   2.401  0.4457 -1.0876 -0.7485
  697MOL0     C91897   7.939   5.315   2.498 -0.1787 -0.6188 -0.0720
  697MOL0     C91898   7.962   5.340   2.634  0.8063 -0.9948  0.2364
  697MOL0     C91899   7.873   5.303   2.737  0.2845 -0.6402  0.7719
  697MOL0     C91900   7.754   5.236   2.702 -0.0297  0.5743  0.0616
  697MOL0     C91901   7.643   5.212   2.800 -0.4163 -0.9950 -0.6299
  697MOL0     O91902   7.511   5.181   2.762 -0.8846 -0.0881 -0.0822
  697MOL0     C91903   7.411   5.158   2.857 -0.6929 -0.2760 -0.4695
  697MOL0     C91904   7.397   5.238   2.963  0.5842 -0.0997 -1.0818
  697MOL0     C91905   7.284   5.222   3.046  0.3722  0.8963  0.3709
  697MOL0     C91906   7.175   5.137   3.011  0.2368 -0.3223 -0.2527
  697MOL0     O91907   7.064   5.153   3.080 -0.5469  0.1141 -0.8829
  697MOL0     C91908   6.965   5.057   3.061 -0.3984  0.0355  0.3273
  697MOL0     C91909   6.841   5.099   3.136  0.0504 -0.3545 -0.1125
  697MOL0     C91910   6.719   5.030   3.079 -0.0870 -0.2209 -0.0454
  697MOL0     C91911   6.594   5.044   3.167  0.2354  0.5418 -0.2444
  697MOL0     C91912   6.469   4.962   3.122 -0.0977  0.5118 -0.3141
  697MOL0     C91913   6.356   4.978   3.231 -0.7241 -0.3886 -0.3658
  697MOL0     C91914   6.250   4.870   3.210  0.4521 -0.0840 -0.6070
  697MOL0     C91915   6.145   4.870   3.326  0.4173  0.1084  0.2779
  697MOL0    Cl91916   6.028   4.995   3.308  0.2090  0.0022  0.3443
  697MOL0     C91917   7.193   5.048   2.905 -0.1504 -0.2000  0.0455
  697MOL0     C91918   7.308   5.059   2.829  0.0432  0.2261 -1.1135
  697MOL0     O91919   7.687   5.210   2.913 -0.1173 -0.1295  0.0493
  697MOL0     C91920   7.724   5.220   2.565 -0.1061  0.1114  0.6014
  697MOL0     C91921   7.821   5.251   2.463  0.5820 -0.5649 -0.0649
  697MOL0     N91922   8.299   5.823   2.175 -0.0088 -0.0928  0.1350
  697MOL0     N91923   8.244   5.883   2.068 -0.1520  0.1920 -0.3678
  697MOL0     C91924   7.034   5.787   1.879  0.2951 -0.7177  1.3491
  697MOL0     C91925   6.904   5.754   1.835 -0.1549 -0.2067  0.7560
  697MOL0     C91926   6.523   5.688   1.624 -0.4095  0.0704  0.7374
  697MOL0     C91927   6.396   5.722   1.664 -0.0557 -0.7665  0.8805
  697MOL0     C91928   6.289   5.677   1.593  0.2436 -0.2426 -0.5027
  697MOL0     C91929   6.298   5.579   1.491  0.7720  0.0555  0.1132
  697MOL0     O91930   6.196   5.534   1.414 -0.0985 -0.0121 -0.2262
  697MOL0     C91931   6.079   5.492   1.489  0.0035  1.0135 -0.1050
  697MOL0     C91932   6.031   5.357   1.428 -0.2244  0.4975 -0.0414
  697MOL0     C91933   6.021   5.361   1.272 -0.2416 -0.0752 -0.2580
  697MOL0     C91934   6.151   5.300   1.199 -0.5100 -0.7090 -0.1871
  697MOL0     C91935   6.157   5.151   1.214  0.2129  0.3564 -0.5336
  697MOL0     C91936   6.152   5.033   1.229 -0.5736 -0.1889 -0.8686
  697MOL0     C91937   6.424   5.531   1.464 -0.1256  0.4560  0.5757
  697MOL0     C91938   6.538   5.584   1.526  0.6847  1.0348  0.2317
  697MOL0     H91939   6.965   5.718   1.504 -0.2144  2.4764 -0.3522
  697MOL0     H91940   7.184   5.774   1.567  1.9176 -0.1460  0.9872
  697MOL0     H91941   7.278   6.018   1.806  1.8256  0.9329 -1.1150
  697MOL0     H91942   7.356   5.944   1.675 -0.7172 -2.7131 -0.4793
  697MOL0     H91943   7.461   5.944   1.952  0.8691  3.9795  0.3242
  697MOL0     H91944   7.532   6.031   1.810 -2.7689 -0.5502 -4.8850
  697MOL0     H91945   7.581   5.805   1.709  0.2861  3.7288 -0.1470
  697MOL0     H91946   7.517   5.720   1.860  1.1893  0.7890  1.4049
  697MOL0     H91947   7.752   5.913   1.878 -1.1243  0.5462 -0.4722
  697MOL0     H91948   7.703   5.765   1.971 -2.1493 -1.6385 -0.2416
  697MOL0     H91949   7.816   5.776   1.689 -1.2426 -1.3100 -0.1737
  697MOL0     H91950   7.774   5.631   1.784  2.0199 -0.2221 -1.6542
  697MOL0     H91951   7.999   5.632   1.785  2.1427  0.6719  0.3993
  697MOL0     H91952   7.963   5.691   1.949 -0.5932 -0.5652  0.1924
  697MOL0     H91953   8.040   5.870   1.702 -0.3079  0.7925  0.2889
  697MOL0     H91954   8.005   5.929   1.855 -3.6832 -1.8923 -0.7365
  697MOL0     H91955   8.250   5.894   1.804 -3.2815  2.4802  0.2881
  697MOL0     H91956   8.220   5.717   1.784 -0.4191  2.3748 -3.6361
  697MOL0     H91957   8.251   5.573   1.976  2.6903 -0.2927  0.5313
  697MOL0     H91958   8.511   5.626   2.233  1.0812 -2.0056 -0.9135
  697MOL0     H91959   8.412   5.504   2.145 -1.4768 -0.7514 -0.1522
  697MOL0     H91960   8.308   5.634   2.386  1.2508  0.7650 -0.2784
  697MOL0     H91961   8.420   5.493   2.403  1.2540  1.5333 -0.1661
  697MOL0     H91962   8.155   5.488   2.245  0.0738  0.6779  0.3311
  697MOL0     H91963   8.281   5.355   2.284 -0.9237 -0.6437 -1.4759
  697MOL0     H91964   8.132   5.504   2.502  0.7159 -1.7762  2.5180
  697MOL0     H91965   8.199   5.346   2.515  3.8985  2.1622 -0.2775
  697MOL0     H91966   8.036   5.405   2.680 -3.5329  2.3459  3.4822
  697MOL0     H91967   7.896   5.321   2.841 -0.1737 -1.8909  1.1123
  697MOL0     H91968   7.460   5.323   2.986 -0.5508 -0.0169  2.1745
  697MOL0     H91969   7.269   5.283   3.135 -1.2112  1.6426 -0.3624
  697MOL0     H91970   7.010   4.966   3.101  2.0633 -0.0018 -2.2068
  697MOL0     H91971   6.938   5.043   2.956 -1.3156 -3.0947  0.8724
  697MOL0     H91972   6.833   5.208   3.126  2.2282 -0.0614  0.6589
  697MOL0     H91973   6.854   5.076   3.242 -4.3058  0.9959  0.9150
  697MOL0     H91974   6.737   4.922   3.083  0.2614 -0.1708 -0.2191
  697MOL0     H91975   6.706   5.059   2.974  0.4023  1.9034  0.4540
  697MOL0     H91976   6.613   5.006   3.268  2.4832  0.3750 -0.6669
  697MOL0     H91977   6.556   5.146   3.174  0.3394  0.6862 -1.5388
  697MOL0     H91978   6.492   4.861   3.087  0.4949  0.1320  1.0796
  697MOL0     H91979   6.435   5.012   3.031  2.4179  3.5518  0.2699
  697MOL0     H91980   6.321   5.081   3.243  0.9344 -0.1733  5.0497
  697MOL0     H91981   6.392   4.950   3.330  1.1128  0.8858 -0.6006
  697MOL0     H91982   6.197   4.871   3.114  1.3263 -1.4620 -1.1344
  697MOL0     H91983   6.304   4.776   3.223 -0.1846 -0.1923  1.7636
  697MOL0     H91984   6.196   4.877   3.422 -0.4645  3.3489  0.6392
  697MOL0     H91985   6.089   4.777   3.318 -2.2455  1.5948  0.4612
  697MOL0     H91986   7.114   4.992   2.858 -0.0181  0.0023 -0.4207
  697MOL0     H91987   7.318   4.993   2.744  1.4200  0.6745 -1.3235
  697MOL0     H91988   7.628   5.178   2.537  0.4114 -1.2357  0.7395
  697MOL0     H91989   7.787   5.237   2.361  1.8283  1.0903 -0.7574
  697MOL0     H91990   7.060   5.800   1.984 -2.2361  0.7159  1.8856
  697MOL0     H91991   6.823   5.741   1.906  0.1992 -2.0204  0.8644
  697MOL0     H91992   6.376   5.801   1.735  1.5054 -1.5009  2.2171
  697MOL0     H91993   6.187   5.713   1.608 -0.0217 -2.0466  3.1554
  697MOL0     H91994   5.999   5.566   1.484 -0.2813  0.6790 -0.6046
  697MOL0     H91995   6.092   5.475   1.596 -1.7723 -0.9381 -0.1538
  697MOL0     H91996   6.105   5.282   1.458  2.4159  2.6072 -0.8374
  697MOL0     H91997   5.934   5.325   1.467 -1.0262  0.6694 -1.7980
  697MOL0     H91998   6.010   5.464   1.238  0.7440  0.5458  1.1693
  697MOL0     H91999   5.941   5.305   1.223 -0.9950  1.9013 -1.3885
  697MOL0     H92000   6.151   5.328   1.093 -0.3314  1.9338  0.4253
  697MOL0     H92001   6.243   5.351   1.229 -0.3620  0.4222 -2.3815
  697MOL0     H92002   6.146   4.926   1.229  1.3690 -0.3594  0.2654
  697MOL0     H92003   6.449   5.468   1.380  2.4391  1.9387  0.1192
  697MOL0     H92004   6.638   5.564   1.491  1.2632  0.0223  2.2805
  698MOL0     O92005   0.079  10.342   1.845  0.3430  0.3186  0.0199
  698MOL0     C92006   0.021  10.450   1.831  0.5887  0.2711 -0.5462
  698MOL0     O92007   0.060  10.550   1.747 -0.8523 -0.1265  0.2044
  698MOL0     C92008   0.187  10.550   1.702 -0.3696  0.7490 -0.7224
  698MOL0     C92009   0.216  10.517   1.573 -0.4702 -0.2739 -0.4483
  698MOL0     C92010   0.348  10.488   1.532  0.7894  0.4604 -0.1831
  698MOL0     C92011   0.455  10.499   1.624  0.5007 -0.3893  0.8019
  698MOL0     O92012   0.586  10.480   1.601 -0.0766 -0.2075  0.9159
  698MOL0     C92013   0.630  10.450   1.466  0.3715 -0.0074 -0.0273
  698MOL0     C92014   0.661  10.578   1.391  0.3042  0.3159  0.3254
  698MOL0     C92015   0.789  10.642   1.437 -0.4262  0.0025  0.3541
  698MOL0     C92016   0.807  10.770   1.360 -0.1084  0.1539 -0.9373
  698MOL0     C92017   0.937  10.829   1.415  0.3089  0.5287  0.3599
  698MOL0     C92018   0.958  10.979   1.384  0.3514 -0.0207 -0.3885
  698MOL0     C92019   1.094  11.035   1.433  0.3342 -0.5178 -0.0872
  698MOL0     C92020   1.209  10.939   1.369 -0.2378  0.3201 -0.6265
  698MOL0     N92021   1.339  11.002   1.404  0.2243 -0.3761 -0.1021
  698MOL0     C92022   1.457  10.933   1.391 -0.3581 -0.2814 -0.3452
  698MOL0     C92023   1.551  11.009   1.447  0.6821  1.0605  0.2394
  698MOL0     C92024   1.706  10.993   1.459 -0.1116  0.1956 -0.3054
  698MOL0     C92025   1.752  10.881   1.363  0.2946  0.0457 -1.1073
  698MOL0     C92026   1.756  10.752   1.434  0.1291 -0.2814 -0.4787
  698MOL0     C92027   1.790  10.635   1.338 -0.9553 -0.6758 -0.1476
  698MOL0     O92028   1.677  10.592   1.278  0.0716 -0.1150  0.0738
  698MOL0     C92029   1.620  10.467   1.316  0.3429  0.3067 -0.4494
  698MOL0     C92030   1.612  10.425   1.454 -0.3508 -1.2185  0.1746
  698MOL0     C92031   1.550  10.304   1.483 -0.0126 -0.1441 -0.8787
  698MOL0     C92032   1.500  10.227   1.376  0.2327  0.2417 -0.3799
  698MOL0     C92033   1.454  10.088   1.408  0.5422  0.0164  0.6511
  698MOL0     O92034   1.463  10.053   1.540  0.4998  0.4761  0.3074
  698MOL0     C92035   1.445   9.919   1.557 -0.1447 -0.6151 -0.0973
  698MOL0     C92036   1.328   9.878   1.615 -0.1500 -0.2423  0.7548
  698MOL0     C92037   1.291   9.744   1.628 -0.1936 -0.4970  0.0985
  698MOL0     C92038   1.389   9.646   1.594  0.2235  0.1421 -0.4903
  698MOL0     O92039   1.363   9.513   1.608  0.5503  0.3057 -0.3062
  698MOL0     C92040   1.227   9.471   1.572  0.2638 -0.1368 -0.3547
  698MOL0     C92041   1.128   9.441   1.686 -0.0049  0.5878  1.0762
  698MOL0     C92042   1.164   9.320   1.768  0.9889 -0.1269 -0.4931
  698MOL0     C92043   1.062   9.302   1.886 -0.0250 -0.1565  0.4254
  698MOL0     C92044   1.095   9.198   1.989  0.6295  0.2750  0.4335
  698MOL0     C92045   1.220   9.240   2.066 -0.0808  0.3572  0.3206
  698MOL0     C92046   1.262   9.150   2.175  0.2460 -0.0093 -0.5077
  698MOL0     C92047   1.393   9.176   2.232 -0.3792 -0.6045 -0.0427
  698MOL0    Cl92048   1.406   9.339   2.282 -0.1637 -0.0523 -0.0084
  698MOL0     C92049   1.516   9.688   1.546 -0.9951  0.0743 -0.4796
  698MOL0     C92050   1.538   9.824   1.526 -0.1147  0.1652 -0.2740
  698MOL0     O92051   1.399  10.025   1.315  0.0077 -0.5099 -0.0512
  698MOL0     C92052   1.504  10.264   1.240 -0.6693  0.7200  0.5720
  698MOL0     C92053   1.561  10.386   1.213  0.2254 -0.9858  0.6739
  698MOL0     N92054   1.494  11.130   1.486  0.0294 -0.1634  0.0109
  698MOL0     N92055   1.368  11.127   1.457  0.2227 -0.7573 -0.4699
  698MOL0     C92056   0.428  10.525   1.756 -1.0757 -0.4049 -0.4327
  698MOL0     C92057   0.295  10.549   1.797 -0.4116  0.4066 -0.0379
  698MOL0     C92058  -0.110  10.472   1.886 -0.4675 -0.0460 -0.5491
  698MOL0     C92059  -0.168  10.389   1.983  0.0556 -0.1965  0.7230
  698MOL0     C92060  -0.304  10.405   2.026 -0.7428  0.2822  0.6855
  698MOL0     C92061  -0.381  10.507   1.975  0.3279 -0.2601  0.6821
  698MOL0     O92062  -0.511  10.545   2.011 -0.5718 -1.1084  0.8005
  698MOL0     C92063  -0.597  10.463   2.092 -0.3871 -0.4427  0.5780
  698MOL0     C92064  -0.649  10.334   2.026 -0.2916 -0.3518  0.6317
  698MOL0     C92065  -0.720  10.244   2.125 -0.3785  0.3481 -0.0249
  698MOL0     C92066  -0.866  10.260   2.141  0.6998  0.3190  0.0417
  698MOL0     C92067  -0.898  10.373   2.231 -0.4424 -0.0260  0.9382
  698MOL0     C92068  -0.924  10.463   2.311  0.2259  0.4411  0.0144
  698MOL0     C92069  -0.331  10.595   1.883 -1.1335 -0.5690  0.6155
  698MOL0     C92070  -0.193  10.577   1.840  0.7286 -0.3047  0.1603
  698MOL0     H92071   0.134  10.508   1.502  0.2043 -1.0703 -1.1621
  698MOL0     H92072   0.377  10.466   1.430 -0.2297 -3.5810  0.2127
  698MOL0     H92073   0.561  10.374   1.427  0.0490 -1.0238  2.3701
  698MOL0     H92074   0.726  10.399   1.477  0.7115  0.7004  0.3544
  698MOL0     H92075   0.576  10.646   1.402  1.6239  2.2152 -0.6724
  698MOL0     H92076   0.657  10.556   1.284  0.9481 -0.9184  0.5485
  698MOL0     H92077   0.875  10.576   1.420  0.8034  0.8877  2.6541
  698MOL0     H92078   0.783  10.657   1.545  1.1689  0.6966  0.3766
  698MOL0     H92079   0.814  10.752   1.252 -4.1847 -0.2269 -1.3178
  698MOL0     H92080   0.728  10.844   1.376  1.9640  2.6525 -1.7344
  698MOL0     H92081   1.015  10.766   1.374 -0.5148 -0.2626 -0.0357
  698MOL0     H92082   0.948  10.805   1.522  0.5902 -2.5774 -0.2754
  698MOL0     H92083   0.888  11.040   1.442 -0.0550 -1.2531  0.4478
  698MOL0     H92084   0.949  11.006   1.278 -1.6968 -0.1591 -0.2924
  698MOL0     H92085   1.107  11.138   1.399 -1.8360  0.0133  0.4992
  698MOL0     H92086   1.106  11.033   1.542 -1.0006 -1.0985  0.0716
  698MOL0     H92087   1.199  10.946   1.261 -3.1228  0.1680 -0.4531
  698MOL0     H92088   1.203  10.837   1.408 -0.4231  0.2354 -0.8833
  698MOL0     H92089   1.466  10.836   1.342 -0.4304  0.4133 -1.7691
  698MOL0     H92090   1.751  10.990   1.559  0.8816  1.0553 -0.6963
  698MOL0     H92091   1.740  11.086   1.412  1.0425  0.2567  0.6081
  698MOL0     H92092   1.856  10.902   1.336  0.1540 -1.7202 -3.2895
  698MOL0     H92093   1.698  10.882   1.268  1.7168  0.1232 -1.9447
  698MOL0     H92094   1.823  10.767   1.518  0.7359  1.4259 -1.2208
  698MOL0     H92095   1.665  10.725   1.489  0.3630 -1.1809 -0.5149
  698MOL0     H92096   1.849  10.564   1.397  0.9034  2.0700  1.5525
  698MOL0     H92097   1.860  10.668   1.261  0.7955 -0.7784  1.3412
  698MOL0     H92098   1.659  10.479   1.536  0.1025  0.6642 -1.2533
  698MOL0     H92099   1.537  10.259   1.581  0.9510 -2.7636 -1.8864
  698MOL0     H92100   1.243   9.944   1.627  0.1666  0.0617  1.3759
  698MOL0     H92101   1.196   9.713   1.670 -0.2625 -2.0489 -1.1148
  698MOL0     H92102   1.246   9.383   1.509 -3.4935 -3.3553  2.5152
  698MOL0     H92103   1.177   9.549   1.515 -0.2061  0.8267  1.3108
  698MOL0     H92104   1.025   9.440   1.650 -0.9745 -1.6037  3.5803
  698MOL0     H92105   1.121   9.524   1.758  0.0496 -0.1417  1.9422
  698MOL0     H92106   1.267   9.335   1.801  1.7424 -1.6319 -1.9856
  698MOL0     H92107   1.162   9.236   1.698 -1.5785  1.4297 -2.4579
  698MOL0     H92108   1.057   9.400   1.934 -0.6240 -0.4617  1.0060
  698MOL0     H92109   0.961   9.288   1.846  0.5598  2.0835 -2.0473
  698MOL0     H92110   1.108   9.102   1.939  2.2822  0.6813  0.0082
  698MOL0     H92111   1.015   9.186   2.063 -0.4322  4.0044  0.0618
  698MOL0     H92112   1.198   9.336   2.114  0.2444  0.7777 -0.3506
  698MOL0     H92113   1.300   9.249   1.992 -0.7928  1.3882 -0.3468
  698MOL0     H92114   1.188   9.160   2.256  1.4237 -1.0195  0.7547
  698MOL0     H92115   1.249   9.045   2.145 -0.9296 -0.1047  0.2799
  698MOL0     H92116   1.463   9.157   2.150 -0.4687 -0.2438 -0.2048
  698MOL0     H92117   1.422   9.106   2.311 -1.0786 -3.0860 -1.8492
  698MOL0     H92118   1.594   9.620   1.513 -1.0846 -0.2551 -0.0222
  698MOL0     H92119   1.633   9.858   1.485 -0.0747  3.3235  2.0806
  698MOL0     H92120   1.462  10.193   1.170  1.2033 -0.7956  0.8878
  698MOL0     H92121   1.553  10.412   1.108 -1.5997 -1.9219  0.5493
  698MOL0     H92122   0.513  10.537   1.823 -1.8293  1.2082  0.2913
  698MOL0     H92123   0.261  10.570   1.898 -2.5896 -0.2150 -0.5898
  698MOL0     H92124  -0.110  10.303   2.017  0.1070 -0.3755  0.1912
  698MOL0     H92125  -0.340  10.331   2.097  2.1495 -2.0453 -0.0813
  698MOL0     H92126  -0.688  10.508   2.133 -3.0197 -5.5276  1.1328
  698MOL0     H92127  -0.535  10.432   2.177 -0.3317 -0.0439  0.6874
  698MOL0     H92128  -0.725  10.361   1.952 -0.1223 -2.4860 -0.3891
  698MOL0     H92129  -0.573  10.277   1.971 -0.9754  0.8279 -1.6695
  698MOL0     H92130  -0.674  10.251   2.224 -3.3227  0.1219  1.4589
  698MOL0     H92131  -0.707  10.143   2.085 -2.5340 -0.3848  1.0009
  698MOL0     H92132  -0.924  10.275   2.050  0.8456  0.3100 -0.0513
  698MOL0     H92133  -0.905  10.176   2.199  0.0391  1.7068  1.7074
  698MOL0     H92134  -0.960  10.537   2.380  0.6303 -1.2642  2.1707
  698MOL0     H92135  -0.391  10.680   1.851  2.1851  1.7760  0.1313
  698MOL0     H92136  -0.158  10.647   1.765 -0.1920  1.3572  1.1937
  699MOL0     O92137   4.449  10.291   9.192  0.3199  0.8289 -0.9789
  699MOL0     C92138   4.465  10.411   9.191  0.0391 -0.4102  0.6354
  699MOL0     O92139   4.367  10.502   9.188 -0.0169 -0.0266  0.0706
  699MOL0     C92140   4.240  10.456   9.149 -1.3896 -0.1046  0.3621
  699MOL0     C92141   4.198  10.464   9.015  0.0701 -0.0023 -0.6115
  699MOL0     C92142   4.078  10.399   8.978 -0.1677  1.0646 -0.3252
  699MOL0     C92143   4.006  10.318   9.070  0.4676 -0.0533  0.0985
  699MOL0     O92144   3.895  10.252   9.022  0.1516  0.3721  0.3507
  699MOL0     C92145   3.826  10.159   9.114  0.2872 -0.1140 -0.7180
  699MOL0     C92146   3.726  10.070   9.043 -0.1629 -0.0410  0.4932
  699MOL0     C92147   3.651   9.983   9.151 -0.0540  0.4941  0.2378
  699MOL0     C92148   3.545   9.904   9.093 -0.1766 -0.4452  0.4430
  699MOL0     C92149   3.450   9.840   9.198  0.2262 -0.1051  0.5137
  699MOL0     C92150   3.352   9.739   9.134  0.1993 -0.2017  0.8600
  699MOL0     C92151   3.270   9.658   9.234  0.1649 -0.0415  0.4681
  699MOL0     C92152   3.192   9.752   9.323  0.4821  0.3417  0.1795
  699MOL0     N92153   3.085   9.677   9.384  0.7471 -0.4738  0.5374
  699MOL0     C92154   2.982   9.616   9.312  0.1743  1.0307 -1.2158
  699MOL0     C92155   2.947   9.520   9.399  0.7646 -0.8738 -0.7132
  699MOL0     C92156   2.852   9.405   9.364 -0.0659 -0.3067  0.7614
  699MOL0     C92157   2.714   9.450   9.395  0.0800 -0.0341  1.3248
  699MOL0     C92158   2.602   9.340   9.374 -0.5255 -0.4979 -0.4085
  699MOL0     C92159   2.474   9.373   9.451  0.9712 -1.0295 -0.1861
  699MOL0     O92160   2.392   9.472   9.375  0.1985 -1.0942 -0.0206
  699MOL0     C92161   2.255   9.447   9.382  0.3707  0.9177  0.0837
  699MOL0     C92162   2.199   9.416   9.502 -0.3491 -0.3288 -0.0427
  699MOL0     C92163   2.066   9.375   9.508  1.1558 -0.5545 -0.4050
  699MOL0     C92164   1.980   9.379   9.401 -0.6670 -1.0580 -0.8507
  699MOL0     C92165   1.837   9.363   9.421  0.1883 -0.2425 -0.3359
  699MOL0     O92166   1.779   9.357   9.550  0.5818 -0.5711 -0.3142
  699MOL0     C92167   1.638   9.339   9.555  0.0871 -0.5789 -0.1431
  699MOL0     C92168   1.549   9.422   9.481 -0.5791  0.4064 -0.1818
  699MOL0     C92169   1.408   9.399   9.475  0.3326  0.1758  0.3496
  699MOL0     C92170   1.346   9.307   9.561 -0.0268  0.3266  1.0715
  699MOL0     O92171   1.213   9.295   9.555  0.3825 -0.6339 -0.4852
  699MOL0     C92172   1.148   9.234   9.668  0.5248  0.2375 -0.2474
  699MOL0     C92173   1.000   9.218   9.635 -0.3181 -0.0055 -0.1732
  699MOL0     C92174   0.960   9.137   9.513  0.0774  0.3507  1.1198
  699MOL0     C92175   0.809   9.139   9.505 -0.7908  0.2273 -0.1130
  699MOL0     C92176   0.763   9.089   9.369 -0.4948 -0.1054 -0.2694
  699MOL0     C92177   0.610   9.086   9.317  0.0830  0.6080 -0.7352
  699MOL0     C92178   0.520   9.034   9.441 -0.3382 -0.6771  0.7898
  699MOL0     C92179   0.369   9.027   9.404  0.0685 -0.8754  0.4776
  699MOL0    Cl92180   0.335   8.905   9.280 -0.0127  0.0283  0.2199
  699MOL0     C92181   1.439   9.224   9.627  0.7483  0.2030 -0.2531
  699MOL0     C92182   1.580   9.241   9.632  0.5186 -0.3445 -0.5575
  699MOL0     O92183   1.771   9.353   9.314  0.1346  0.4004  0.7717
  699MOL0     C92184   2.034   9.422   9.275 -0.5311  0.3582 -0.4576
  699MOL0     C92185   2.176   9.457   9.273  0.2737  0.8661  0.5518
  699MOL0     N92186   2.995   9.552   9.526 -0.2593 -0.2528 -0.4610
  699MOL0     N92187   3.075   9.650   9.513 -1.0448  0.5644  0.1060
  699MOL0     C92188   4.053  10.311   9.201 -0.2061 -1.1131 -0.6598
  699MOL0     C92189   4.163  10.388   9.244  0.2874  0.2372 -0.1918
  699MOL0     C92190   4.605  10.453   9.217  0.8887  0.0965  1.2414
  699MOL0     C92191   4.618  10.587   9.274 -0.3379 -0.7617  0.0964
  699MOL0     C92192   4.743  10.638   9.321  0.4918  0.1623 -0.2600
  699MOL0     C92193   4.853  10.554   9.309 -0.6399 -0.6846 -0.6522
  699MOL0     O92194   4.974  10.606   9.353  0.3098  0.1423 -0.1963
  699MOL0     C92195   5.090  10.523   9.368  0.9542  0.0777 -0.0929
  699MOL0     C92196   5.205  10.588   9.444 -0.0361 -1.4039  0.4585
  699MOL0     C92197   5.174  10.622   9.588 -0.7591  0.5556  0.8986
  699MOL0     C92198   5.188  10.501   9.679 -0.5451  0.5772  0.0062
  699MOL0     C92199   5.333  10.487   9.709 -0.1379  0.5754  0.1271
  699MOL0     C92200   5.450  10.466   9.723  0.0748  0.3207 -0.5432
  699MOL0     C92201   4.842  10.430   9.258 -0.0969  1.1884 -0.1689
  699MOL0     C92202   4.720  10.378   9.208  0.2204  0.4786  0.2409
  699MOL0     H92203   4.248  10.524   8.940  0.4681  2.0387  1.1990
  699MOL0     H92204   4.041  10.410   8.877  1.1872 -1.7906 -1.2548
  699MOL0     H92205   3.777  10.227   9.184  0.4552 -0.1989 -0.5171
  699MOL0     H92206   3.888  10.087   9.169 -2.1377 -0.4646  1.7847
  699MOL0     H92207   3.779  10.004   8.974  0.8302  0.6710  0.5595
  699MOL0     H92208   3.655  10.125   8.980  0.3254 -0.8850 -0.8331
  699MOL0     H92209   3.605  10.032   9.237 -2.0533 -0.7920 -0.0382
  699MOL0     H92210   3.719   9.908   9.192 -0.5780  0.0296  0.2693
  699MOL0     H92211   3.490   9.965   9.021  2.3422  1.2122 -0.1968
  699MOL0     H92212   3.593   9.816   9.050 -1.0953 -1.4920  1.4732
  699MOL0     H92213   3.398   9.919   9.252  2.9826  2.5869 -0.4699
  699MOL0     H92214   3.499   9.802   9.288 -2.3594 -2.6033  0.9911
  699MOL0     H92215   3.406   9.661   9.080 -0.8253 -0.9910  0.9517
  699MOL0     H92216   3.295   9.799   9.063  0.2711  2.5018  2.9120
  699MOL0     H92217   3.195   9.604   9.175  0.1789  0.9470 -0.4895
  699MOL0     H92218   3.337   9.590   9.287  1.7096  0.7746 -0.3861
  699MOL0     H92219   3.148   9.835   9.267  1.7099  1.9675  1.5175
  699MOL0     H92220   3.255   9.796   9.401  0.3962 -0.8057  0.9216
  699MOL0     H92221   2.954   9.627   9.208  1.4614 -0.4554 -1.7577
  699MOL0     H92222   2.884   9.316   9.420  0.0050 -0.1586  0.9600
  699MOL0     H92223   2.853   9.366   9.262 -1.3525  0.4891  0.4274
  699MOL0     H92224   2.685   9.532   9.328 -0.3875 -0.0278  1.5338
  699MOL0     H92225   2.707   9.480   9.500 -0.9019 -0.7632  1.4752
  699MOL0     H92226   2.589   9.330   9.266 -3.0181  0.2024 -0.2197
  699MOL0     H92227   2.639   9.247   9.420 -2.8681 -1.1228  0.3330
  699MOL0     H92228   2.496   9.403   9.554 -0.4560 -1.3100  0.2225
  699MOL0     H92229   2.414   9.284   9.475 -1.3627  0.3063 -0.7890
  699MOL0     H92230   2.255   9.432   9.594  0.2389  0.6106 -0.5383
  699MOL0     H92231   2.015   9.361   9.603 -0.8212 -0.7575 -1.4528
  699MOL0     H92232   1.598   9.494   9.416 -3.5137  0.4616 -2.5965
  699MOL0     H92233   1.339   9.440   9.401 -0.4103 -0.7010  0.5306
  699MOL0     H92234   1.162   9.298   9.755  3.2839  0.5638 -0.8439
  699MOL0     H92235   1.186   9.134   9.692  1.1135  0.2656 -1.0114
  699MOL0     H92236   0.961   9.318   9.617 -0.1390 -0.0875 -1.0659
  699MOL0     H92237   0.948   9.172   9.719  0.6673 -1.1365 -0.1504
  699MOL0     H92238   0.997   9.036   9.529 -0.4841 -0.3849 -1.6853
  699MOL0     H92239   1.001   9.175   9.419 -1.0608 -0.8154  0.1122
  699MOL0     H92240   0.767   9.074   9.581 -1.3594  0.9317  0.1889
  699MOL0     H92241   0.776   9.242   9.520  1.5414  0.7348  2.1305
  699MOL0     H92242   0.792   8.984   9.369  2.4000  0.5974  0.1318
  699MOL0     H92243   0.819   9.133   9.286  2.2824  1.0287  2.0268
  699MOL0     H92244   0.606   9.014   9.235  0.3611 -1.5553  1.0235
  699MOL0     H92245   0.578   9.184   9.283 -0.9758  0.4523 -0.2626
  699MOL0     H92246   0.565   8.935   9.458  0.7823 -0.6285 -1.4621
  699MOL0     H92247   0.528   9.106   9.523 -0.7883 -0.9761  1.1041
  699MOL0     H92248   0.332   9.125   9.372  0.8872 -1.0676 -1.1943
  699MOL0     H92249   0.311   8.991   9.489 -0.8347 -3.8733 -1.2421
  699MOL0     H92250   1.411   9.144   9.696  2.2369 -0.7931 -0.7688
  699MOL0     H92251   1.641   9.179   9.698 -1.0785  0.2101  1.5507
  699MOL0     H92252   1.978   9.445   9.185 -0.2350  0.2791 -0.6680
  699MOL0     H92253   2.219   9.495   9.181 -0.6085  0.3223 -0.1040
  699MOL0     H92254   3.997  10.247   9.269  0.6688 -0.9575  0.2256
  699MOL0     H92255   4.205  10.382   9.344  2.7512  0.0837 -1.1528
  699MOL0     H92256   4.527  10.645   9.276 -1.0940 -1.9187  0.3802
  699MOL0     H92257   4.750  10.732   9.375 -4.0122  1.8024 -2.0670
  699MOL0     H92258   5.120  10.485   9.270  0.2702  0.9229 -0.6459
  699MOL0     H92259   5.060  10.443   9.435  1.3533  0.6901  0.8450
  699MOL0     H92260   5.299  10.531   9.438  0.2196 -0.8550 -1.5085
  699MOL0     H92261   5.226  10.682   9.392 -0.3912 -1.1205  0.8242
  699MOL0     H92262   5.075  10.668   9.595 -0.4511  1.3924 -0.0602
  699MOL0     H92263   5.245  10.700   9.619  1.3087 -0.8061 -0.2002
  699MOL0     H92264   5.141  10.507   9.777 -0.3666  2.9902 -0.0117
  699MOL0     H92265   5.135  10.421   9.626 -1.0257  1.4256 -0.8191
  699MOL0     H92266   5.554  10.456   9.745  0.6399 -0.0120 -3.1429
  699MOL0     H92267   4.933  10.372   9.243 -0.1952  1.3813 -1.6548
  699MOL0     H92268   4.709  10.281   9.160  1.0966  1.5584 -2.3435
  700MOL0     O92269   0.526   3.788   2.168  0.0652 -0.4240 -0.4256
  700MOL0     C92270   0.568   3.761   2.286 -0.3572  0.9156  0.7235
  700MOL0     O92271   0.501   3.692   2.381 -0.1371 -0.7375  0.7712
  700MOL0     C92272   0.363   3.683   2.374  0.2263  0.9766 -0.1024
  700MOL0     C92273   0.262   3.745   2.292 -1.0965 -0.2017  0.2956
  700MOL0     C92274   0.125   3.725   2.310  0.3340  0.0677  1.3354
  700MOL0     C92275   0.072   3.640   2.414 -0.7950  0.0068 -0.6644
  700MOL0     O92276  -0.056   3.612   2.444  0.5471  0.0529  0.1450
  700MOL0     C92277  -0.146   3.644   2.338  0.6990  0.5676 -0.2785
  700MOL0     C92278  -0.276   3.567   2.368 -0.5075 -0.1494  0.2804
  700MOL0     C92279  -0.340   3.622   2.495 -0.8402 -1.1188  0.8237
  700MOL0     C92280  -0.473   3.539   2.516  0.6227 -0.1472 -0.1974
  700MOL0     C92281  -0.586   3.627   2.577  0.7952 -0.0143 -0.2898
  700MOL0     C92282  -0.565   3.645   2.729  0.0427 -0.0197  1.5674
  700MOL0     C92283  -0.687   3.732   2.777  0.7542 -0.0711 -0.5483
  700MOL0     C92284  -0.712   3.731   2.932  0.4426  0.4655  1.4626
  700MOL0     N92285  -0.833   3.806   2.956 -0.0601 -0.4114  0.2376
  700MOL0     C92286  -0.839   3.941   2.928  0.8148  0.4551  0.4212
  700MOL0     C92287  -0.971   3.963   2.952 -0.1327  0.3447 -0.0037
  700MOL0     C92288  -1.026   4.100   2.950 -0.5589 -0.1580  1.0793
  700MOL0     C92289  -1.148   4.126   3.037  0.2653  0.4902 -0.5952
  700MOL0     C92290  -1.270   4.091   2.951 -0.7955  0.1743  0.2064
  700MOL0     C92291  -1.334   4.212   2.884 -0.1167 -0.5988  0.0456
  700MOL0     O92292  -1.379   4.308   2.980  0.6952 -0.3832 -0.2348
  700MOL0     C92293  -1.496   4.285   3.047 -0.9128 -0.4521 -1.0661
  700MOL0     C92294  -1.542   4.375   3.149 -0.6494 -0.1034 -0.1917
  700MOL0     C92295  -1.663   4.357   3.222 -0.5097  0.1774 -0.0906
  700MOL0     C92296  -1.742   4.238   3.211 -0.2923  0.7172 -0.3147
  700MOL0     C92297  -1.875   4.205   3.282  0.0709 -0.2900  1.1069
  700MOL0     O92298  -1.934   4.316   3.345 -0.3283 -0.2603 -0.2136
  700MOL0     C92299  -2.050   4.302   3.417 -0.0982  0.4821  1.0647
  700MOL0     C92300  -2.081   4.206   3.514 -0.5714 -0.0379 -0.0142
  700MOL0     C92301  -2.206   4.200   3.574 -0.3439  0.2579 -0.0442
  700MOL0     C92302  -2.312   4.290   3.540  0.2536  0.1305 -0.4818
  700MOL0     O92303  -2.442   4.297   3.588 -0.6500  0.0828 -0.2888
  700MOL0     C92304  -2.471   4.193   3.687  0.1281 -0.0348  0.2552
  700MOL0     C92305  -2.619   4.191   3.724  0.0130 -0.5848 -0.9753
  700MOL0     C92306  -2.713   4.218   3.607  0.4581 -0.0655  0.2561
  700MOL0     C92307  -2.853   4.172   3.640  0.5259  0.7514 -0.1603
  700MOL0     C92308  -2.916   4.257   3.756  0.4006 -0.4917 -0.6624
  700MOL0     C92309  -3.050   4.197   3.795  0.4276  0.3135 -0.6371
  700MOL0     C92310  -3.092   4.255   3.931  0.3393  0.7623  0.1723
  700MOL0     C92311  -3.246   4.269   3.944 -0.0957 -0.0415 -0.7250
  700MOL0    Cl92312  -3.320   4.115   3.902 -0.1630 -0.3111  0.1574
  700MOL0     C92313  -2.282   4.381   3.441  0.6623  1.0169  0.5618
  700MOL0     C92314  -2.158   4.377   3.377  0.8809  0.1328  0.1082
  700MOL0     O92315  -1.920   4.094   3.272  0.6714  0.0536  0.2131
  700MOL0     C92316  -1.696   4.154   3.114  0.0608 -0.0196 -0.2674
  700MOL0     C92317  -1.573   4.175   3.043  1.3202  0.3999 -1.0417
  700MOL0     N92318  -1.036   3.847   2.994 -0.2531 -1.1956 -0.2494
  700MOL0     N92319  -0.948   3.756   2.999 -0.0730  0.1874  0.5836
  700MOL0     C92320   0.176   3.567   2.478 -0.4014 -0.1486 -0.0886
  700MOL0     C92321   0.310   3.592   2.462  0.4411 -0.0582 -0.1180
  700MOL0     C92322   0.706   3.801   2.324  0.0286  0.5895  0.2856
  700MOL0     C92323   0.750   3.786   2.457  0.8686 -0.4895  0.2653
  700MOL0     C92324   0.875   3.834   2.496  0.2974  0.2370  0.0623
  700MOL0     C92325   0.962   3.900   2.407  1.5093  0.0447  0.5213
  700MOL0     O92326   1.087   3.943   2.440  0.0588  0.2812  0.8871
  700MOL0     C92327   1.188   3.840   2.424 -0.0432 -0.8119  0.1604
  700MOL0     C92328   1.179   3.748   2.538 -0.2019 -0.8322  1.1570
  700MOL0     C92329   1.316   3.674   2.554  0.0096 -0.1024 -0.4024
  700MOL0     C92330   1.361   3.577   2.455 -0.2428 -0.2868  0.8048
  700MOL0     C92331   1.262   3.467   2.443 -0.2050 -0.8025 -0.1037
  700MOL0     C92332   1.199   3.366   2.473 -0.0136 -0.9237 -0.0480
  700MOL0     C92333   0.915   3.917   2.272 -0.2699 -0.7454 -0.4574
  700MOL0     C92334   0.788   3.874   2.236  0.4733 -0.0064  0.6459
  700MOL0     H92335   0.290   3.808   2.208 -0.5736 -0.8932 -0.0603
  700MOL0     H92336   0.070   3.789   2.242 -0.2463  1.0162  2.6413
  700MOL0     H92337  -0.105   3.612   2.242  0.7587  1.5741 -0.6006
  700MOL0     H92338  -0.170   3.751   2.332  3.1073  1.3599  2.0367
  700MOL0     H92339  -0.253   3.461   2.376 -1.1925 -0.2357  1.2683
  700MOL0     H92340  -0.340   3.577   2.279  1.8487  2.6506 -1.2723
  700MOL0     H92341  -0.366   3.726   2.473  1.0122 -0.6644  0.6342
  700MOL0     H92342  -0.279   3.626   2.585 -0.9780 -0.3588  0.8903
  700MOL0     H92343  -0.512   3.498   2.422 -2.0398 -3.8760  2.2302
  700MOL0     H92344  -0.461   3.445   2.571 -0.8554 -0.5758 -0.5463
  700MOL0     H92345  -0.673   3.562   2.563  0.7007 -0.3777  1.7281
  700MOL0     H92346  -0.609   3.716   2.519  0.5055 -0.2063 -0.4686
  700MOL0     H92347  -0.471   3.700   2.743 -0.5911  1.8240 -0.6828
  700MOL0     H92348  -0.574   3.550   2.782 -0.8353 -0.4633  0.6616
  700MOL0     H92349  -0.670   3.835   2.743  0.0454  0.4143  0.5194
  700MOL0     H92350  -0.774   3.696   2.722  0.3449 -0.3769  0.2840
  700MOL0     H92351  -0.629   3.782   2.982  0.9653 -0.1001  1.1792
  700MOL0     H92352  -0.723   3.627   2.965 -2.9215 -0.4956 -1.9554
  700MOL0     H92353  -0.767   4.011   2.889  1.8885  0.1663  1.8381
  700MOL0     H92354  -1.047   4.141   2.850  0.8495  1.4399  1.3846
  700MOL0     H92355  -0.948   4.169   2.985 -1.2892 -0.3345  3.1729
  700MOL0     H92356  -1.149   4.232   3.060  1.0080  0.5479 -0.8262
  700MOL0     H92357  -1.147   4.069   3.130 -1.0904 -0.0803 -0.8987
  700MOL0     H92358  -1.248   4.014   2.878 -0.6055 -2.1819  2.5910
  700MOL0     H92359  -1.333   4.048   3.030 -0.9036  1.8302  1.0836
  700MOL0     H92360  -1.427   4.187   2.832 -3.4571  0.3784  4.8521
  700MOL0     H92361  -1.265   4.257   2.812 -0.7940 -2.4587 -1.8553
  700MOL0     H92362  -1.477   4.458   3.173 -0.5601  0.6695 -2.8160
  700MOL0     H92363  -1.679   4.433   3.298 -1.5083  2.6295 -2.5880
  700MOL0     H92364  -2.010   4.136   3.556  0.2039  1.7005  1.6980
  700MOL0     H92365  -2.225   4.136   3.659  0.0273 -0.0923 -0.2230
  700MOL0     H92366  -2.406   4.192   3.774  0.3836 -1.6652  0.0819
  700MOL0     H92367  -2.462   4.096   3.637 -2.5949  0.3915 -1.2647
  700MOL0     H92368  -2.647   4.264   3.800 -1.8719 -1.3970 -0.8388
  700MOL0     H92369  -2.631   4.088   3.756 -0.2479 -0.4465 -0.6202
  700MOL0     H92370  -2.689   4.161   3.516 -0.1429  0.3838 -0.1889
  700MOL0     H92371  -2.702   4.322   3.575 -1.3563  0.2099  0.4704
  700MOL0     H92372  -2.911   4.186   3.548  0.9572 -1.0971 -0.7628
  700MOL0     H92373  -2.850   4.064   3.660  0.9912 -0.6195 -5.8361
  700MOL0     H92374  -2.927   4.362   3.728  0.0030 -0.4257 -0.2700
  700MOL0     H92375  -2.845   4.264   3.839  1.3165 -0.0570 -1.4683
  700MOL0     H92376  -3.043   4.088   3.807  0.3622  0.4849  1.2942
  700MOL0     H92377  -3.118   4.217   3.712  0.2135 -2.7701 -1.3488
  700MOL0     H92378  -3.055   4.191   4.012  0.1619 -1.0987 -1.1469
  700MOL0     H92379  -3.049   4.353   3.953 -1.8439  1.4592  1.6245
  700MOL0     H92380  -3.272   4.345   3.869 -1.0343 -1.3758 -1.8144
  700MOL0     H92381  -3.274   4.301   4.045 -1.1681 -1.1830 -0.6421
  700MOL0     H92382  -2.362   4.445   3.406  1.6505  2.1950  0.3652
  700MOL0     H92383  -2.140   4.457   3.306 -0.9084  0.6416  0.1853
  700MOL0     H92384  -1.748   4.060   3.095 -0.2663  0.2074 -0.4951
  700MOL0     H92385  -1.550   4.090   2.980 -0.5176 -3.7725  3.3456
  700MOL0     H92386   0.153   3.500   2.560  0.2559  1.6414  1.6663
  700MOL0     H92387   0.383   3.537   2.522 -0.1481  2.2994  3.0313
  700MOL0     H92388   0.691   3.733   2.532  1.5300 -0.7130  0.6390
  700MOL0     H92389   0.907   3.821   2.599  0.6533 -2.6050 -0.3293
  700MOL0     H92390   1.288   3.886   2.430 -0.7561  0.8527 -0.2383
  700MOL0     H92391   1.174   3.795   2.325  0.1795  1.6594 -1.0840
  700MOL0     H92392   1.168   3.801   2.632  2.7420  2.7285 -0.2596
  700MOL0     H92393   1.099   3.678   2.512 -0.6048 -0.0800  0.2780
  700MOL0     H92394   1.309   3.623   2.651  4.6432  1.8052  1.2207
  700MOL0     H92395   1.395   3.747   2.571  0.4001 -0.5078 -0.4559
  700MOL0     H92396   1.377   3.624   2.358  0.0884  0.7712  1.3650
  700MOL0     H92397   1.458   3.528   2.470  1.0132  2.4898  2.4580
  700MOL0     H92398   1.139   3.278   2.488 -0.6861 -0.5550 -0.4988
  700MOL0     H92399   0.983   3.964   2.202 -2.4937 -1.8413 -3.6358
  700MOL0     H92400   0.748   3.884   2.136 -2.3295  1.6574  1.8100
  701MOL0     O92401   1.625  10.109   7.549 -0.6708  0.6108  0.8687
  701MOL0     C92402   1.599  10.139   7.665  0.8491 -0.1782  0.1877
  701MOL0     O92403   1.685  10.177   7.767  0.3733  0.6268 -0.4381
  701MOL0     C92404   1.823  10.190   7.735  0.4245 -0.4503  0.5246
  701MOL0     C92405   1.870  10.261   7.622  0.1142  0.5723 -1.2792
  701MOL0     C92406   2.004  10.258   7.583  0.4051  0.7133 -0.6151
  701MOL0     C92407   2.095  10.188   7.668 -0.6913 -0.5034  0.4027
  701MOL0     O92408   2.221  10.199   7.624 -0.3410  0.2444 -0.6427
  701MOL0     C92409   2.320  10.252   7.714 -0.7339 -0.0089  0.1407
  701MOL0     C92410   2.460  10.267   7.647 -0.4241  0.5020 -0.6332
  701MOL0     C92411   2.566  10.328   7.744 -0.5205  0.4072  0.5384
  701MOL0     C92412   2.710  10.305   7.693 -0.3490  0.3491 -0.0073
  701MOL0     C92413   2.801  10.332   7.810  0.2391 -0.0588 -0.3449
  701MOL0     C92414   2.941  10.373   7.759 -0.4687 -0.4280  0.5870
  701MOL0     C92415   3.041  10.407   7.878  0.2450 -0.0404 -0.0141
  701MOL0     C92416   3.188  10.373   7.837 -0.2765  1.0006  0.3700
  701MOL0     N92417   3.285  10.372   7.949  0.3336  0.4716  0.5397
  701MOL0     C92418   3.277  10.451   8.057 -0.5300  0.8651 -0.8261
  701MOL0     C92419   3.346  10.387   8.156  0.8122 -0.5933 -0.5465
  701MOL0     C92420   3.379  10.426   8.298 -0.3339 -0.6666  0.3037
  701MOL0     C92421   3.284  10.360   8.400 -0.1053  0.1335  0.2027
  701MOL0     C92422   3.130  10.396   8.379  1.0074 -0.2337  0.0310
  701MOL0     C92423   3.096  10.542   8.404 -0.5599  0.3176  0.2672
  701MOL0     O92424   3.122  10.630   8.297 -0.2836  0.2262  0.6999
  701MOL0     C92425   3.033  10.656   8.198 -0.0550  0.1656  0.4809
  701MOL0     C92426   3.074  10.754   8.114 -0.2239  0.1201 -0.2200
  701MOL0     C92427   2.990  10.816   8.029 -0.1839  0.4534  0.1412
  701MOL0     C92428   2.859  10.765   8.012 -0.0353  0.8552 -0.2524
  701MOL0     C92429   2.760  10.841   7.928 -0.6154  0.1026 -0.3801
  701MOL0     O92430   2.807  10.966   7.872 -0.3264  0.4506 -0.1362
  701MOL0     C92431   2.707  11.035   7.800  0.6592 -0.7672  0.0396
  701MOL0     C92432   2.613  11.116   7.868 -0.3547  0.5197 -0.8144
  701MOL0     C92433   2.507  11.173   7.798  0.4770  0.0168 -0.6644
  701MOL0     C92434   2.499  11.167   7.660 -0.0111 -0.3319  0.1987
  701MOL0     O92435   2.386  11.225   7.606  0.0435  0.0336 -0.0746
  701MOL0     C92436   2.413  11.308   7.497  0.5349 -0.4035  0.3545
  701MOL0     C92437   2.278  11.371   7.472 -0.2768  0.0628  0.7208
  701MOL0     C92438   2.174  11.292   7.397  0.1210 -0.2961  0.5614
  701MOL0     C92439   2.051  11.376   7.386 -0.2125  0.1697 -0.6512
  701MOL0     C92440   1.937  11.304   7.315 -0.1231 -0.1856 -0.4490
  701MOL0     C92441   1.816  11.389   7.276  0.8044  0.4831  0.7765
  701MOL0     C92442   1.717  11.328   7.181  0.1232 -0.2415 -1.5145
  701MOL0     C92443   1.606  11.243   7.254 -0.7106  0.3953  0.3322
  701MOL0    Cl92444   1.487  11.211   7.128 -0.1033  0.3317  0.2361
  701MOL0     C92445   2.603  11.099   7.589  0.3156 -0.2994 -0.5581
  701MOL0     C92446   2.702  11.035   7.659  0.5216  0.4601  0.7658
  701MOL0     O92447   2.652  10.787   7.912 -0.4201  0.1729 -0.7729
  701MOL0     C92448   2.825  10.650   8.086 -0.0491  0.2651 -0.2526
  701MOL0     C92449   2.912  10.597   8.179 -0.9102 -0.0762  0.2480
  701MOL0     N92450   3.411  10.283   8.096  0.1007  1.1585  0.3401
  701MOL0     N92451   3.370  10.265   7.971  1.0744 -0.2412 -1.0460
  701MOL0     C92452   2.053  10.115   7.781  0.7868  0.1169  0.2932
  701MOL0     C92453   1.915  10.114   7.813  0.7050  0.4292 -0.3717
  701MOL0     C92454   1.451  10.147   7.688 -0.1538 -0.4111  0.6951
  701MOL0     C92455   1.361  10.096   7.592 -0.3537 -0.5211  0.6831
  701MOL0     C92456   1.221  10.113   7.615  0.3396  0.1223  0.4404
  701MOL0     C92457   1.164  10.177   7.722  0.2320  0.2208  0.6247
  701MOL0     O92458   1.025  10.165   7.742  0.5578 -0.1615 -0.1105
  701MOL0     C92459   0.979  10.162   7.882 -0.2133 -0.3210 -0.2005
  701MOL0     C92460   0.846  10.090   7.893  0.4204 -1.3046  0.0992
  701MOL0     C92461   0.845   9.941   7.865 -0.4314  0.1953 -0.1464
  701MOL0     C92462   0.720   9.869   7.923 -0.1936  0.3623  0.6044
  701MOL0     C92463   0.716   9.828   8.062 -0.0953 -0.3294  0.7477
  701MOL0     C92464   0.710   9.808   8.182 -0.1509 -0.4136 -0.0991
  701MOL0     C92465   1.257  10.227   7.816 -0.4519  0.5782 -0.0263
  701MOL0     C92466   1.396  10.207   7.807  0.3584 -0.4087  0.9298
  701MOL0     H92467   1.810  10.319   7.553  2.1983  0.2909 -3.4425
  701MOL0     H92468   2.037  10.309   7.494 -0.3762  0.9125 -0.7963
  701MOL0     H92469   2.340  10.175   7.789  0.6413 -1.9923 -2.1493
  701MOL0     H92470   2.289  10.345   7.763 -0.7155 -0.1765  0.4792
  701MOL0     H92471   2.464  10.324   7.554 -1.6665 -0.6030 -1.3885
  701MOL0     H92472   2.494  10.166   7.621  2.3123  1.0318  0.5071
  701MOL0     H92473   2.565  10.277   7.842  2.6993 -0.5211  0.1933
  701MOL0     H92474   2.548  10.435   7.759 -0.4462  0.8345 -2.0847
  701MOL0     H92475   2.725  10.204   7.654 -1.1439  0.4182 -0.5151
  701MOL0     H92476   2.722  10.383   7.617 -0.3204  2.0370  1.6482
  701MOL0     H92477   2.802  10.248   7.880 -1.9037  0.6325  0.5821
  701MOL0     H92478   2.765  10.414   7.872  3.0463 -2.4782  5.1290
  701MOL0     H92479   2.917  10.456   7.692 -0.5656 -1.0973 -0.2311
  701MOL0     H92480   2.979  10.288   7.702 -1.5639  0.3057 -1.3159
  701MOL0     H92481   3.034  10.512   7.905 -1.2876 -0.3037  0.6954
  701MOL0     H92482   3.008  10.355   7.968 -0.7004 -1.3564 -1.0873
  701MOL0     H92483   3.222  10.440   7.757  1.7317  0.8041  1.0061
  701MOL0     H92484   3.195  10.276   7.786  1.2030  0.8892  0.7324
  701MOL0     H92485   3.226  10.547   8.069 -0.7048  0.7324 -0.4923
  701MOL0     H92486   3.361  10.534   8.293 -2.4143 -0.9432  0.8474
  701MOL0     H92487   3.485  10.407   8.318 -0.2908  1.4694  2.5991
  701MOL0     H92488   3.308  10.379   8.505 -2.4874  2.1603  0.4761
  701MOL0     H92489   3.293  10.251   8.396 -0.8111 -0.1360  3.3484
  701MOL0     H92490   3.090  10.364   8.282 -1.7059  2.5652  0.0459
  701MOL0     H92491   3.069  10.336   8.446 -2.9605 -0.6093 -3.4839
  701MOL0     H92492   3.156  10.581   8.488 -1.3729 -0.7373  1.3808
  701MOL0     H92493   2.992  10.558   8.434 -0.7565  0.6112 -0.5644
  701MOL0     H92494   3.175  10.792   8.127 -0.0050 -0.3595 -0.5107
  701MOL0     H92495   3.017  10.908   7.979 -2.0379 -0.0320 -1.9440
  701MOL0     H92496   2.625  11.130   7.975 -0.5458 -1.8750 -0.4162
  701MOL0     H92497   2.425  11.224   7.847 -0.0401  1.8212 -3.2328
  701MOL0     H92498   2.451  11.261   7.406  1.9549  1.3645  0.0000
  701MOL0     H92499   2.480  11.389   7.525 -0.6052  0.1208  1.6971
  701MOL0     H92500   2.286  11.462   7.411 -0.1725 -1.4226 -1.5952
  701MOL0     H92501   2.243  11.408   7.568  1.9840  2.1888  0.8310
  701MOL0     H92502   2.149  11.201   7.453  2.3330 -2.7666 -2.1291
  701MOL0     H92503   2.197  11.270   7.292 -0.9829 -0.3151  0.3139
  701MOL0     H92504   2.023  11.401   7.488 -2.4139  1.7167 -1.5393
  701MOL0     H92505   2.070  11.470   7.332 -1.3651  1.8081  1.6314
  701MOL0     H92506   1.907  11.233   7.392  0.7720 -0.4585 -0.3357
  701MOL0     H92507   1.980  11.256   7.226 -0.3602 -1.7449  0.2370
  701MOL0     H92508   1.863  11.480   7.236  0.7333  0.9952  1.8277
  701MOL0     H92509   1.771  11.423   7.369  1.5280  0.9902  0.9563
  701MOL0     H92510   1.671  11.418   7.139  0.9159  2.8649  3.4532
  701MOL0     H92511   1.773  11.267   7.110 -0.7160 -3.2034  0.1879
  701MOL0     H92512   1.551  11.305   7.325  0.8412  0.8353  1.2047
  701MOL0     H92513   1.653  11.157   7.302  0.6327 -0.4319 -2.2474
  701MOL0     H92514   2.608  11.092   7.481 -0.8763 -0.3218 -0.6207
  701MOL0     H92515   2.784  10.972   7.623  2.6747  0.6675  4.7566
  701MOL0     H92516   2.722  10.616   8.077 -0.6322  1.2138  2.0229
  701MOL0     H92517   2.891  10.508   8.238  0.8603 -0.5060  0.2667
  701MOL0     H92518   2.123  10.060   7.843  1.8232  0.8655 -0.1797
  701MOL0     H92519   1.874  10.052   7.892  0.0599 -1.5739 -2.1725
  701MOL0     H92520   1.388  10.044   7.501  0.9324  2.9926 -1.1434
  701MOL0     H92521   1.152  10.070   7.544  1.5408 -1.7744  0.3482
  701MOL0     H92522   0.962  10.265   7.916 -0.1961 -0.4817  0.3085
  701MOL0     H92523   1.047  10.111   7.950  1.5904  0.3472 -1.4372
  701MOL0     H92524   0.803  10.110   7.992  2.2332  1.4718  0.4434
  701MOL0     H92525   0.773  10.129   7.821 -0.4997  0.6228  1.9563
  701MOL0     H92526   0.928   9.896   7.920 -1.5616 -1.3463  0.3571
  701MOL0     H92527   0.851   9.918   7.758  0.9486  1.6538 -0.4244
  701MOL0     H92528   0.638   9.941   7.920  2.5090  3.6361 -1.3474
  701MOL0     H92529   0.695   9.783   7.859  1.9797 -1.4915  2.0648
  701MOL0     H92530   0.725   9.781   8.285  1.1655  1.3923  0.2360
  701MOL0     H92531   1.217  10.292   7.893 -0.3674  3.5962 -2.3454
  701MOL0     H92532   1.456  10.227   7.895  0.6749  0.4339  0.5291
  702MOL0     O92533  10.334  10.698   4.065  0.6024 -0.3229  0.7185
  702MOL0     C92534  10.345  10.743   3.954 -0.1386 -0.3743 -0.6000
  702MOL0     O92535  10.252  10.810   3.886  0.3253  0.4529  0.0547
  702MOL0     C92536  10.131  10.819   3.952 -0.1273  0.0674 -0.4875
  702MOL0     C92537  10.098  10.944   4.017 -1.0250 -0.0436 -0.3580
  702MOL0     C92538   9.975  10.947   4.087 -0.0067 -0.5320  0.0618
  702MOL0     C92539   9.889  10.836   4.099 -0.3921  0.7590  0.4821
  702MOL0     O92540   9.776  10.832   4.170  0.0678  0.2778 -0.8940
  702MOL0     C92541   9.774  10.922   4.288  0.3908 -0.0565  0.4164
  702MOL0     C92542   9.666  10.873   4.389  0.6423  0.1235  0.7630
  702MOL0     C92543   9.532  10.862   4.309 -0.4045 -0.3113  0.8722
  702MOL0     C92544   9.434  10.802   4.408 -0.3134  0.2357 -0.7061
  702MOL0     C92545   9.305  10.755   4.349 -0.4398  0.2033 -0.0840
  702MOL0     C92546   9.237  10.666   4.453 -0.2124 -0.3080 -0.1737
  702MOL0     C92547   9.107  10.592   4.411  0.4095  0.0942 -0.1383
  702MOL0     C92548   8.993  10.696   4.410 -0.6378 -0.0982 -0.8569
  702MOL0     N92549   8.872  10.652   4.336  0.2346 -0.0336  0.4134
  702MOL0     C92550   8.789  10.555   4.381  0.1488 -0.4942  0.3017
  702MOL0     C92551   8.675  10.572   4.314  0.3842 -0.6661 -0.2488
  702MOL0     C92552   8.556  10.483   4.316 -0.6584 -0.3773  0.2113
  702MOL0     C92553   8.578  10.357   4.242 -0.4445  0.6315  0.1275
  702MOL0     C92554   8.454  10.265   4.234  0.3378 -0.0398 -0.2687
  702MOL0     C92555   8.316  10.323   4.231  0.5531  0.5468  0.6409
  702MOL0     O92556   8.315  10.395   4.107 -0.3297 -0.6442 -0.1235
  702MOL0     C92557   8.193  10.439   4.056 -0.1166  0.4049  0.0842
  702MOL0     C92558   8.200  10.503   3.931 -0.1619 -0.7879  0.3506
  702MOL0     C92559   8.079  10.545   3.880 -0.2296  0.2238  0.3290
  702MOL0     C92560   7.954  10.521   3.939 -0.4497  0.5133 -0.5251
  702MOL0     C92561   7.831  10.578   3.882  0.3031  0.6423  0.7972
  702MOL0     O92562   7.716  10.562   3.956 -0.1439 -0.1752 -0.4287
  702MOL0     C92563   7.593  10.622   3.924 -0.0245 -0.5667  0.1732
  702MOL0     C92564   7.579  10.758   3.894 -0.6145  1.4786  0.6561
  702MOL0     C92565   7.445  10.815   3.870 -0.4794  0.1948  0.0079
  702MOL0     C92566   7.339  10.730   3.866  0.4016  0.0698 -0.1761
  702MOL0     O92567   7.216  10.787   3.831  0.0407  0.1810 -0.0874
  702MOL0     C92568   7.099  10.755   3.912  0.3849  0.8747  0.8124
  702MOL0     C92569   6.990  10.857   3.903  0.6108 -0.0454  1.2091
  702MOL0     C92570   6.878  10.832   4.003  0.4308 -0.4884  0.1099
  702MOL0     C92571   6.755  10.926   3.998 -0.4149  0.7829  0.5456
  702MOL0     C92572   6.681  10.917   3.856  0.9791  0.6041  0.5000
  702MOL0     C92573   6.595  10.782   3.857  0.1284 -0.3030 -0.1153
  702MOL0     C92574   6.496  10.776   3.737  1.3046  0.3460  0.2588
  702MOL0     C92575   6.407  10.652   3.753  0.9272  0.0194 -0.3722
  702MOL0    Cl92576   6.314  10.627   3.601 -0.1808 -0.0400  0.0804
  702MOL0     C92577   7.350  10.598   3.916 -0.0922  0.3191  0.5563
  702MOL0     C92578   7.474  10.546   3.943  0.3526  0.4194  0.5032
  702MOL0     O92579   7.837  10.652   3.785  0.5937  0.5450 -0.2416
  702MOL0     C92580   7.944  10.453   4.064 -0.8787  0.2619  0.1571
  702MOL0     C92581   8.065  10.406   4.120 -0.9318 -0.6804  0.2367
  702MOL0     N92582   8.687  10.670   4.224 -0.0247  0.2816 -0.0488
  702MOL0     N92583   8.805  10.722   4.237  0.5946 -0.2482 -0.7900
  702MOL0     C92584   9.929  10.721   4.034  0.6038  0.5290  0.2439
  702MOL0     C92585  10.051  10.708   3.956 -1.1209 -0.1968 -0.2112
  702MOL0     C92586  10.466  10.704   3.892  0.1934 -0.1942 -0.0667
  702MOL0     C92587  10.550  10.613   3.957  0.0009 -0.1038  0.4145
  702MOL0     C92588  10.671  10.572   3.894 -0.0251 -0.1358 -0.2061
  702MOL0     C92589  10.713  10.630   3.779  0.8453  0.1280  0.9585
  702MOL0     O92590  10.831  10.583   3.729  0.0195 -0.1550 -0.8981
  702MOL0     C92591  10.901  10.664   3.636  0.1570  0.0040 -0.0013
  702MOL0     C92592  11.041  10.614   3.607 -0.5045 -0.2613 -0.3291
  702MOL0     C92593  11.144  10.622   3.732  0.0086  0.4911  0.8531
  702MOL0     C92594  11.282  10.573   3.678  0.3156 -0.8700 -0.2556
  702MOL0     C92595  11.283  10.426   3.662  0.0514  0.1007  0.0086
  702MOL0     C92596  11.296  10.306   3.666 -0.7158 -0.7984 -0.1507
  702MOL0     C92597  10.632  10.727   3.723 -0.1499  0.0578 -0.3991
  702MOL0     C92598  10.505  10.759   3.775  0.3642 -0.3531 -0.3595
  702MOL0     H92599  10.166  11.026   3.996 -0.9358  0.1688  0.7143
  702MOL0     H92600   9.963  11.047   4.127 -1.2323 -1.2638  1.6410
  702MOL0     H92601   9.749  11.023   4.255  1.6126 -0.5971 -2.4299
  702MOL0     H92602   9.874  10.930   4.333  0.7569  0.9759 -0.5254
  702MOL0     H92603   9.661  10.931   4.482 -3.7016  0.7435  0.3591
  702MOL0     H92604   9.694  10.774   4.428  2.0536  0.8498  1.6741
  702MOL0     H92605   9.549  10.804   4.218  1.9089  3.4931 -1.4262
  702MOL0     H92606   9.492  10.956   4.270  1.2542 -0.8888 -2.6461
  702MOL0     H92607   9.483  10.715   4.453  1.0263  0.9383 -0.7574
  702MOL0     H92608   9.414  10.880   4.482 -0.5730  1.3342 -1.8932
  702MOL0     H92609   9.322  10.706   4.252  2.0856  1.0443 -0.1246
  702MOL0     H92610   9.246  10.841   4.315 -1.0030 -1.6142 -4.3667
  702MOL0     H92611   9.216  10.722   4.545  0.2788 -0.4956  0.0542
  702MOL0     H92612   9.307  10.586   4.479  1.4417  0.4966 -1.9190
  702MOL0     H92613   9.120  10.536   4.318 -0.7056 -2.0198  0.9066
  702MOL0     H92614   9.078  10.517   4.486  0.4792  1.4495  1.2967
  702MOL0     H92615   9.033  10.793   4.381 -2.9816  1.0235 -0.5469
  702MOL0     H92616   8.955  10.710   4.512 -1.0319 -0.1829 -0.9907
  702MOL0     H92617   8.784  10.483   4.461 -0.6517 -3.1237 -1.9549
  702MOL0     H92618   8.476  10.537   4.264  0.6100  0.3217 -1.0701
  702MOL0     H92619   8.524  10.471   4.420  2.0203 -2.2051  0.9379
  702MOL0     H92620   8.658  10.296   4.285 -0.3509 -0.0932 -1.0278
  702MOL0     H92621   8.609  10.378   4.139 -4.2894  0.7852 -1.1725
  702MOL0     H92622   8.475  10.181   4.167  0.9064 -1.8896  2.0824
  702MOL0     H92623   8.452  10.215   4.331 -3.3683 -0.7917 -0.5952
  702MOL0     H92624   8.304  10.379   4.324  2.5399  2.0798  0.0330
  702MOL0     H92625   8.236  10.248   4.236 -1.1619  2.1757 -0.6959
  702MOL0     H92626   8.289  10.524   3.873  1.7892 -0.6406  3.1696
  702MOL0     H92627   8.087  10.603   3.789 -1.4401 -1.3307 -0.8370
  702MOL0     H92628   7.673  10.811   3.888  1.0526 -1.3354 -0.5596
  702MOL0     H92629   7.426  10.916   3.835  1.9132  1.3253  1.7492
  702MOL0     H92630   7.123  10.749   4.018  0.4161 -0.6901  0.7423
  702MOL0     H92631   7.066  10.656   3.880  1.6834  0.4867  0.6130
  702MOL0     H92632   6.950  10.848   3.802 -0.3965 -0.0300  1.5926
  702MOL0     H92633   7.027  10.957   3.925  0.3697  0.2340  0.3649
  702MOL0     H92634   6.913  10.858   4.104 -2.2679  0.7329  0.8236
  702MOL0     H92635   6.842  10.729   3.992 -1.0616  0.2838 -3.7298
  702MOL0     H92636   6.678  10.907   4.073 -0.3552  3.6470  1.4569
  702MOL0     H92637   6.790  11.026   4.027  0.4279 -0.5625  4.9271
  702MOL0     H92638   6.739  10.918   3.764 -2.9581 -1.1232 -2.3186
  702MOL0     H92639   6.619  11.006   3.844 -0.8402 -0.7254 -0.5804
  702MOL0     H92640   6.533  10.773   3.947 -1.1464 -2.6947 -1.1208
  702MOL0     H92641   6.666  10.699   3.855 -0.6138 -1.0564  1.8454
  702MOL0     H92642   6.435  10.866   3.742  2.0448  0.7947  1.3969
  702MOL0     H92643   6.541  10.789   3.638  1.3766  2.2362  0.5138
  702MOL0     H92644   6.334  10.670   3.831  0.0173 -0.2673 -1.1414
  702MOL0     H92645   6.470  10.570   3.789  0.8004  0.9837  2.2661
  702MOL0     H92646   7.269  10.528   3.933 -0.5111 -0.0383 -2.4851
  702MOL0     H92647   7.481  10.441   3.968 -0.7094  0.1937 -0.1074
  702MOL0     H92648   7.857  10.427   4.123 -0.4001 -1.4696  0.1673
  702MOL0     H92649   8.066  10.358   4.217  2.0228 -1.0382  0.1102
  702MOL0     H92650   9.871  10.631   4.050 -0.7825  0.8945 -2.2868
  702MOL0     H92651  10.080  10.613   3.914  0.9282  1.1183 -1.9426
  702MOL0     H92652  10.524  10.568   4.052 -4.2457  3.3669  1.2251
  702MOL0     H92653  10.747  10.507   3.936  2.6499  1.6884 -1.9265
  702MOL0     H92654  10.905  10.772   3.656  0.5153 -0.2455  1.3393
  702MOL0     H92655  10.849  10.654   3.540 -3.0625  2.6177  1.2744
  702MOL0     H92656  11.040  10.515   3.560  0.6967 -0.4464 -0.0051
  702MOL0     H92657  11.076  10.686   3.533 -0.1458 -0.1771 -0.0841
  702MOL0     H92658  11.100  10.566   3.815 -1.6425 -0.2945 -0.4847
  702MOL0     H92659  11.157  10.726   3.764 -0.8026  0.4597  1.3291
  702MOL0     H92660  11.316  10.633   3.593  0.3621  0.9617  0.9868
  702MOL0     H92661  11.352  10.588   3.761 -0.6249 -2.1159  0.8032
  702MOL0     H92662  11.311  10.202   3.683 -1.1118 -0.8280  0.0266
  702MOL0     H92663  10.658  10.776   3.630 -0.4236  1.1502  0.0718
  702MOL0     H92664  10.445  10.831   3.721  1.0887 -0.3911 -1.2632
  703MOL0     O92665   0.536   8.636   5.926 -0.2081 -0.2292 -0.5749
  703MOL0     C92666   0.568   8.629   5.809 -0.6598  0.7905 -0.5876
  703MOL0     O92667   0.493   8.573   5.708 -0.1893 -0.0900 -0.1291
  703MOL0     C92668   0.359   8.564   5.738  0.6893  0.0243 -0.4245
  703MOL0     C92669   0.265   8.669   5.741 -0.4232  0.3611  0.3698
  703MOL0     C92670   0.129   8.646   5.757 -0.4643 -0.5117  0.4257
  703MOL0     C92671   0.083   8.523   5.782 -0.0604 -0.1542 -0.7616
  703MOL0     O92672  -0.042   8.499   5.837 -0.4411  0.0205 -0.2331
  703MOL0     C92673  -0.146   8.599   5.807 -0.1291  0.2255 -0.5775
  703MOL0     C92674  -0.276   8.541   5.839  0.0369  0.1411  0.2068
  703MOL0     C92675  -0.389   8.637   5.830  0.6658 -0.8396  0.5342
  703MOL0     C92676  -0.497   8.581   5.914  0.0633 -0.1189 -0.1737
  703MOL0     C92677  -0.639   8.644   5.895  0.7937 -0.2747  0.3892
  703MOL0     C92678  -0.741   8.569   5.986 -0.0124 -0.1110 -0.3151
  703MOL0     C92679  -0.880   8.622   5.966  0.3564  0.4109  0.0367
  703MOL0     C92680  -0.986   8.581   6.083 -0.1903 -0.0948 -0.6477
  703MOL0     N92681  -1.102   8.676   6.098  0.6356 -0.2219 -0.0669
  703MOL0     C92682  -1.085   8.806   6.117  0.4577 -1.1401  0.4569
  703MOL0     C92683  -1.208   8.853   6.154 -0.1892 -0.1461  0.5505
  703MOL0     C92684  -1.275   8.986   6.191 -0.2949 -0.2041  0.9732
  703MOL0     C92685  -1.316   9.057   6.061  0.1276  0.0680 -0.2700
  703MOL0     C92686  -1.401   9.185   6.065 -0.8851 -1.0311  0.2859
  703MOL0     C92687  -1.545   9.152   6.109 -0.0006 -1.4264  0.8114
  703MOL0     O92688  -1.541   9.135   6.252  0.0470  0.3646  0.2748
  703MOL0     C92689  -1.658   9.103   6.318  0.7610  0.2718  0.5729
  703MOL0     C92690  -1.778   9.068   6.253 -0.0754  0.4470  0.1722
  703MOL0     C92691  -1.882   9.014   6.332  0.1440 -0.4156  0.2465
  703MOL0     C92692  -1.878   9.005   6.470  0.2297 -0.4818 -0.0725
  703MOL0     C92693  -1.996   8.946   6.548  0.0298 -0.3436 -0.7996
  703MOL0     O92694  -2.119   8.967   6.486 -0.2527  0.6818  0.5389
  703MOL0     C92695  -2.226   8.892   6.541  0.1441 -0.8719  0.6718
  703MOL0     C92696  -2.333   8.957   6.609 -0.4595  0.2273  0.5836
  703MOL0     C92697  -2.429   8.878   6.664  0.1536  0.5925 -0.6669
  703MOL0     C92698  -2.439   8.743   6.635  0.0066  0.6244 -0.4729
  703MOL0     O92699  -2.560   8.690   6.673  0.3052 -0.4257  0.3471
  703MOL0     C92700  -2.586   8.557   6.639  0.9831 -0.3164  0.5726
  703MOL0     C92701  -2.734   8.537   6.673  0.5250 -0.1764  0.0013
  703MOL0     C92702  -2.785   8.401   6.629  0.5540  0.2315  0.3028
  703MOL0     C92703  -2.933   8.383   6.670  0.8481 -0.6879  0.2417
  703MOL0     C92704  -2.996   8.250   6.635  0.4372  0.3366  0.2815
  703MOL0     C92705  -3.137   8.244   6.697  0.6559 -0.4749 -0.5597
  703MOL0     C92706  -3.234   8.120   6.667 -0.4427  0.4484 -0.2856
  703MOL0     C92707  -3.380   8.168   6.684 -0.0552 -0.0495 -0.3127
  703MOL0    Cl92708  -3.498   8.034   6.626 -0.1992  0.2474  0.0722
  703MOL0     C92709  -2.330   8.676   6.586 -0.1163 -0.1155  1.0903
  703MOL0     C92710  -2.223   8.753   6.538  0.3841  0.1285  0.6522
  703MOL0     O92711  -1.979   8.912   6.664 -0.5428  0.0290 -0.1254
  703MOL0     C92712  -1.760   9.043   6.536 -0.4385 -0.2893  0.5041
  703MOL0     C92713  -1.649   9.091   6.458 -1.0122  0.0774  0.0210
  703MOL0     N92714  -1.292   8.743   6.132 -0.1599  0.0201  0.1060
  703MOL0     N92715  -1.230   8.633   6.103 -0.9371  0.2008 -0.5798
  703MOL0     C92716   0.173   8.416   5.774 -0.0843 -0.2228 -0.3373
  703MOL0     C92717   0.308   8.434   5.751  0.7874 -0.3122 -0.2284
  703MOL0     C92718   0.703   8.678   5.774 -0.0650  0.7031  1.3400
  703MOL0     C92719   0.790   8.740   5.864 -0.0580 -0.5421 -0.2555
  703MOL0     C92720   0.910   8.801   5.820  1.1438  0.7416 -0.3126
  703MOL0     C92721   0.947   8.795   5.686 -0.9173 -0.4838 -0.5268
  703MOL0     O92722   1.065   8.849   5.643  0.1503 -0.2854 -0.4915
  703MOL0     C92723   1.165   8.745   5.603 -0.2601  0.0401 -0.1863
  703MOL0     C92724   1.292   8.776   5.685 -0.5853  0.2314  0.6486
  703MOL0     C92725   1.380   8.881   5.610 -0.1108  0.1636  0.7801
  703MOL0     C92726   1.350   9.021   5.684  0.4490 -0.3704 -0.6240
  703MOL0     C92727   1.474   9.110   5.680  1.2374 -0.2305  0.2702
  703MOL0     C92728   1.575   9.173   5.679  0.3154 -0.5833 -0.2052
  703MOL0     C92729   0.868   8.727   5.599  0.6510  0.1490  1.4957
  703MOL0     C92730   0.751   8.671   5.640  0.5827  0.2574 -0.0540
  703MOL0     H92731   0.298   8.770   5.718 -0.4331  0.4656  0.8079
  703MOL0     H92732   0.060   8.729   5.744  1.1372  0.8877  0.3709
  703MOL0     H92733  -0.139   8.639   5.705  1.6626 -0.5818 -0.8180
  703MOL0     H92734  -0.125   8.684   5.873 -0.0694 -1.7056  2.0421
  703MOL0     H92735  -0.276   8.499   5.940 -3.9542 -0.1685  0.2279
  703MOL0     H92736  -0.293   8.462   5.765 -0.7743  0.9504 -0.4926
  703MOL0     H92737  -0.423   8.653   5.727 -0.2566  2.3122  1.1950
  703MOL0     H92738  -0.365   8.738   5.866  1.9985 -0.0701 -2.2349
  703MOL0     H92739  -0.502   8.472   5.903  1.1217 -0.2924  0.8600
  703MOL0     H92740  -0.469   8.590   6.019 -2.3588 -0.9146  0.6149
  703MOL0     H92741  -0.677   8.640   5.793 -1.7940  3.2830  1.0378
  703MOL0     H92742  -0.643   8.750   5.920  0.9356 -0.4774  1.3316
  703MOL0     H92743  -0.705   8.587   6.088  0.1133  2.8508 -0.7865
  703MOL0     H92744  -0.733   8.462   5.969 -1.8956 -0.2947 -0.2823
  703MOL0     H92745  -0.861   8.730   5.955  2.8770 -0.0439 -0.8797
  703MOL0     H92746  -0.921   8.572   5.877  1.5992 -1.8621  0.6746
  703MOL0     H92747  -0.938   8.572   6.181 -2.4721 -0.6327  0.4949
  703MOL0     H92748  -1.009   8.476   6.062  0.8674 -0.1608 -1.5547
  703MOL0     H92749  -1.001   8.874   6.116 -1.5126  1.4386 -0.2907
  703MOL0     H92750  -1.204   9.044   6.250 -0.9389  0.1530  1.4079
  703MOL0     H92751  -1.361   8.966   6.256  0.8185 -2.4338  1.8716
  703MOL0     H92752  -1.371   8.988   5.996  2.1181 -1.3171 -0.5750
  703MOL0     H92753  -1.230   9.056   5.994 -0.3744 -1.4000 -0.9378
  703MOL0     H92754  -1.359   9.264   6.128 -0.2477 -0.0641 -1.2651
  703MOL0     H92755  -1.400   9.220   5.961 -0.3610  0.6777  0.8194
  703MOL0     H92756  -1.579   9.064   6.055 -2.0626 -0.5747  0.6173
  703MOL0     H92757  -1.606   9.243   6.096  2.7489  0.7265  1.9319
  703MOL0     H92758  -1.786   9.065   6.145  0.8913 -2.0521  0.0973
  703MOL0     H92759  -1.973   8.979   6.285 -0.3838  2.1062 -0.7682
  703MOL0     H92760  -2.344   9.064   6.604  1.0592  0.3808 -0.0207
  703MOL0     H92761  -2.514   8.917   6.719  0.7477  1.3396 -0.2614
  703MOL0     H92762  -2.530   8.490   6.704  1.6651  0.1240  0.4538
  703MOL0     H92763  -2.562   8.540   6.533  0.6532  0.1768  0.4149
  703MOL0     H92764  -2.792   8.603   6.608  0.4728 -1.2345 -1.0575
  703MOL0     H92765  -2.755   8.542   6.780 -1.6482 -4.7010  0.0119
  703MOL0     H92766  -2.730   8.322   6.681 -0.4536  0.9629  2.6337
  703MOL0     H92767  -2.769   8.387   6.522 -0.3065  0.7350  0.1007
  703MOL0     H92768  -2.946   8.402   6.777  1.1651 -2.3688  0.5985
  703MOL0     H92769  -2.992   8.458   6.616  0.6363  0.2797  1.7533
  703MOL0     H92770  -2.942   8.160   6.662  1.2307 -0.1035 -2.4431
  703MOL0     H92771  -3.009   8.258   6.526  0.1838  2.5044  0.4175
  703MOL0     H92772  -3.181   8.338   6.662 -1.4145 -1.5565 -1.0750
  703MOL0     H92773  -3.115   8.252   6.804  0.4101  1.4846 -0.6239
  703MOL0     H92774  -3.227   8.093   6.561  1.2692  1.6157 -0.5151
  703MOL0     H92775  -3.209   8.034   6.731  1.0665  0.6061 -0.6325
  703MOL0     H92776  -3.390   8.265   6.635 -0.3843 -0.0497 -0.2460
  703MOL0     H92777  -3.402   8.179   6.791 -0.4450 -2.7376 -0.0513
  703MOL0     H92778  -2.320   8.570   6.567  1.3791  0.7225 -4.7820
  703MOL0     H92779  -2.141   8.708   6.484  0.5173  0.8723  0.2225
  703MOL0     H92780  -1.752   9.034   6.644  0.8918  1.4072  0.5790
  703MOL0     H92781  -1.559   9.119   6.512 -2.7062  0.1930  2.9990
  703MOL0     H92782   0.142   8.312   5.780  2.1699 -0.9744 -0.9778
  703MOL0     H92783   0.379   8.352   5.753  2.4320  1.0724  0.6676
  703MOL0     H92784   0.766   8.741   5.970  0.1421 -2.2397 -0.1584
  703MOL0     H92785   0.978   8.848   5.891  2.4277 -1.6920  0.1745
  703MOL0     H92786   1.184   8.731   5.496  0.4549 -2.5197  0.2053
  703MOL0     H92787   1.131   8.644   5.628 -2.5198 -0.0666 -3.1788
  703MOL0     H92788   1.269   8.804   5.788  1.6611 -1.5493  1.7149
  703MOL0     H92789   1.342   8.679   5.684 -0.5801  0.2265 -0.7858
  703MOL0     H92790   1.355   8.887   5.504 -0.9466 -3.1490  0.6708
  703MOL0     H92791   1.486   8.851   5.609  0.4285  1.7306  3.0422
  703MOL0     H92792   1.259   9.063   5.639 -0.8193 -1.5886  0.7058
  703MOL0     H92793   1.321   9.004   5.788  1.8976  3.2085  0.5346
  703MOL0     H92794   1.658   9.241   5.688 -0.7705  0.7556 -0.0032
  703MOL0     H92795   0.896   8.722   5.494 -0.3591 -2.4255  1.2777
  703MOL0     H92796   0.694   8.622   5.562  1.8056 -1.7950  0.2909
  704MOL0     O92797   3.262   2.129   5.540 -0.7695  0.4350 -0.1245
  704MOL0     C92798   3.299   2.243   5.528 -0.2904  0.2570 -0.7827
  704MOL0     O92799   3.225   2.351   5.524 -0.0976 -0.0794 -0.1652
  704MOL0     C92800   3.092   2.332   5.538 -0.0943 -0.2977  0.5982
  704MOL0     C92801   3.040   2.324   5.668 -0.2674  0.1481  0.5135
  704MOL0     C92802   2.907   2.302   5.690 -0.4142  0.3105  0.7119
  704MOL0     C92803   2.808   2.294   5.587  0.4687  0.5843 -0.0997
  704MOL0     O92804   2.685   2.245   5.629  0.5354 -0.2531  0.2375
  704MOL0     C92805   2.624   2.128   5.566  0.0866  0.4444 -0.3223
  704MOL0     C92806   2.508   2.077   5.648 -0.5797  0.0616  0.2672
  704MOL0     C92807   2.412   1.987   5.578  0.1312 -0.6100 -0.4537
  704MOL0     C92808   2.335   1.895   5.670  0.2322  0.1336 -0.0927
  704MOL0     C92809   2.219   1.831   5.592  0.6370 -0.3631  0.4088
  704MOL0     C92810   2.268   1.722   5.491 -0.4666 -0.6383  0.6107
  704MOL0     C92811   2.154   1.618   5.467  0.4332 -0.4541 -0.5502
  704MOL0     C92812   2.028   1.701   5.425 -0.1461 -0.4427 -0.2628
  704MOL0     N92813   1.914   1.622   5.369 -1.0166 -0.2198 -0.3934
  704MOL0     C92814   1.813   1.574   5.441  0.3054 -0.2325 -0.4304
  704MOL0     C92815   1.727   1.516   5.353  0.4871 -0.1554  0.0726
  704MOL0     C92816   1.598   1.447   5.394 -0.2567  0.1980  0.3672
  704MOL0     C92817   1.599   1.389   5.536 -0.0994  0.5341  0.8089
  704MOL0     C92818   1.505   1.287   5.578  0.1650 -0.4658  0.6092
  704MOL0     C92819   1.360   1.327   5.567 -0.0256 -0.3280 -0.4533
  704MOL0     O92820   1.297   1.204   5.594 -0.4251  0.5423 -0.2573
  704MOL0     C92821   1.205   1.205   5.696 -0.0479 -0.2104  0.2976
  704MOL0     C92822   1.122   1.316   5.736 -0.1883 -0.4781 -0.2227
  704MOL0     C92823   1.025   1.301   5.837 -0.0905 -0.5977  0.3162
  704MOL0     C92824   0.991   1.170   5.885 -0.5487 -0.7697  0.1481
  704MOL0     C92825   0.886   1.150   5.988  0.0288 -0.0491  0.4736
  704MOL0     O92826   0.795   1.253   6.010 -0.8070 -0.5779 -0.0624
  704MOL0     C92827   0.685   1.210   6.086  1.0500  0.0330 -1.0670
  704MOL0     C92828   0.570   1.149   6.021 -0.3484  0.5849 -0.3533
  704MOL0     C92829   0.457   1.122   6.092 -0.1670 -0.1237  0.8744
  704MOL0     C92830   0.458   1.151   6.233 -0.2162  0.0111 -0.6501
  704MOL0     O92831   0.345   1.144   6.313 -0.0601  0.3305  0.4687
  704MOL0     C92832   0.220   1.134   6.249  0.2121  0.3556 -0.2122
  704MOL0     C92833   0.117   1.155   6.358  0.4225 -0.2651 -0.0532
  704MOL0     C92834  -0.024   1.145   6.298 -0.2277 -0.0567 -0.2464
  704MOL0     C92835  -0.139   1.153   6.399  0.8700  0.0842  0.5131
  704MOL0     C92836  -0.272   1.147   6.318 -0.2168  0.5153 -0.1355
  704MOL0     C92837  -0.394   1.149   6.405  0.2285 -0.4192  0.2275
  704MOL0     C92838  -0.530   1.199   6.339 -0.7003 -0.6614 -0.0784
  704MOL0     C92839  -0.616   1.089   6.308 -1.0128  0.3228 -0.4886
  704MOL0    Cl92840  -0.673   1.005   6.459 -0.4930  0.1843 -0.0721
  704MOL0     C92841   0.580   1.193   6.299 -0.2864 -0.6777  0.9918
  704MOL0     C92842   0.695   1.221   6.222 -0.3840  0.0031 -0.3536
  704MOL0     O92843   0.883   1.035   6.033  0.4790  0.9209 -0.2624
  704MOL0     C92844   1.064   1.058   5.831  0.3782  0.0119  0.4457
  704MOL0     C92845   1.173   1.078   5.746  0.0437  0.3568 -0.4129
  704MOL0     N92846   1.777   1.533   5.223  0.2521 -0.7959 -0.2304
  704MOL0     N92847   1.889   1.600   5.238  0.0914  0.8079  0.0315
  704MOL0     C92848   2.861   2.292   5.459  0.0827 -0.3631  0.1601
  704MOL0     C92849   2.999   2.323   5.430 -0.0548  0.4134  0.0254
  704MOL0     C92850   3.438   2.281   5.521 -0.2526 -0.0990 -0.0090
  704MOL0     C92851   3.478   2.396   5.451 -0.2079  1.0735 -0.3942
  704MOL0     C92852   3.609   2.433   5.449  0.5517 -0.0558  0.3021
  704MOL0     C92853   3.707   2.370   5.519 -0.4731  0.0255 -0.0808
  704MOL0     O92854   3.840   2.417   5.498 -0.1945 -0.4711  0.2910
  704MOL0     C92855   3.956   2.334   5.516 -0.2606 -0.2690 -0.0416
  704MOL0     C92856   4.077   2.417   5.521  0.0372 -0.2854  0.2356
  704MOL0     C92857   4.204   2.338   5.501  0.3687 -0.0418 -0.1899
  704MOL0     C92858   4.325   2.431   5.506  0.0067  0.3525 -0.6184
  704MOL0     C92859   4.442   2.367   5.434  0.2921 -0.4634 -0.1118
  704MOL0     C92860   4.536   2.310   5.371  0.1756  0.1447 -0.1303
  704MOL0     C92861   3.678   2.258   5.594 -0.0583  0.5668 -0.2776
  704MOL0     C92862   3.543   2.212   5.596 -0.4144  0.6024 -0.2969
  704MOL0     H92863   3.101   2.344   5.756  0.1346 -0.5324  0.3985
  704MOL0     H92864   2.874   2.295   5.793 -1.4779  1.3364  0.4674
  704MOL0     H92865   2.703   2.054   5.556  1.6258  2.1552 -1.4372
  704MOL0     H92866   2.599   2.141   5.460  0.8684 -2.3281 -0.9236
  704MOL0     H92867   2.450   2.165   5.677  1.5674  3.0658 -3.5653
  704MOL0     H92868   2.547   2.023   5.735 -0.1157 -1.2386 -0.7056
  704MOL0     H92869   2.460   1.912   5.515 -0.0006 -1.6631  0.6446
  704MOL0     H92870   2.349   2.049   5.514 -0.4449  1.1525  1.6965
  704MOL0     H92871   2.398   1.818   5.716  0.3737  1.0557  1.3141
  704MOL0     H92872   2.297   1.957   5.751 -0.4915  1.6764 -1.5568
  704MOL0     H92873   2.172   1.907   5.528  1.9199 -0.0735 -0.2265
  704MOL0     H92874   2.140   1.785   5.652 -1.4521  3.0944  0.6260
  704MOL0     H92875   2.356   1.667   5.526  2.2079  0.7013 -3.2475
  704MOL0     H92876   2.288   1.778   5.400 -2.2001  2.7574  2.1186
  704MOL0     H92877   2.180   1.559   5.379 -0.8019  0.8999 -1.8904
  704MOL0     H92878   2.132   1.563   5.559 -1.9732  0.2108 -0.6475
  704MOL0     H92879   2.058   1.777   5.353  0.5809 -1.7444 -1.3739
  704MOL0     H92880   1.990   1.765   5.505  1.6227  0.4378 -0.0758
  704MOL0     H92881   1.807   1.587   5.549 -0.2428  2.0148 -0.6731
  704MOL0     H92882   1.575   1.370   5.320  4.2661 -0.7773 -0.2666
  704MOL0     H92883   1.510   1.511   5.382 -0.7328 -0.1044  1.9733
  704MOL0     H92884   1.570   1.473   5.599 -1.4283  0.6234  0.1070
  704MOL0     H92885   1.698   1.349   5.562  1.7173  2.2658 -2.8070
  704MOL0     H92886   1.515   1.207   5.503  1.1762  0.2182 -0.0048
  704MOL0     H92887   1.528   1.242   5.675  0.0871 -0.2695  0.7171
  704MOL0     H92888   1.322   1.367   5.472 -0.5227  0.1610 -0.0499
  704MOL0     H92889   1.336   1.402   5.643  0.8319 -2.7538  2.4120
  704MOL0     H92890   1.138   1.414   5.693  0.4784 -0.0816  0.8779
  704MOL0     H92891   0.978   1.390   5.877 -1.3191 -1.0142 -0.1447
  704MOL0     H92892   0.562   1.151   5.912  2.3764 -1.4936 -0.6939
  704MOL0     H92893   0.368   1.091   6.038 -1.5649  0.8617  2.4915
  704MOL0     H92894   0.221   1.031   6.211 -0.4033 -0.2886  1.4028
  704MOL0     H92895   0.201   1.211   6.175 -1.6973  0.1693  0.0403
  704MOL0     H92896   0.129   1.258   6.395  1.3730 -0.0461 -0.9299
  704MOL0     H92897   0.125   1.084   6.441 -0.3148 -1.2679 -0.8192
  704MOL0     H92898  -0.016   1.047   6.249  2.2184  1.0747 -2.3542
  704MOL0     H92899  -0.037   1.215   6.215 -0.2252 -1.9861 -1.9632
  704MOL0     H92900  -0.147   1.071   6.471 -2.9065 -0.0384  0.1526
  704MOL0     H92901  -0.131   1.249   6.451  2.2669  0.7002 -0.7588
  704MOL0     H92902  -0.270   1.065   6.245 -1.4691  1.0291 -0.7815
  704MOL0     H92903  -0.280   1.238   6.257 -3.0431  1.3816  1.3810
  704MOL0     H92904  -0.376   1.222   6.485 -0.0247 -0.5128  0.3703
  704MOL0     H92905  -0.407   1.051   6.452 -0.3696 -0.4402  0.0259
  704MOL0     H92906  -0.575   1.276   6.402  2.8323 -0.6661  2.7432
  704MOL0     H92907  -0.493   1.242   6.246 -1.0981 -3.3927 -1.6042
  704MOL0     H92908  -0.563   1.013   6.250 -0.5280 -1.9785  2.6882
  704MOL0     H92909  -0.703   1.124   6.252 -2.3537 -0.9165  0.7291
  704MOL0     H92910   0.569   1.223   6.403 -1.7570  1.8312  0.1845
  704MOL0     H92911   0.786   1.255   6.269  0.6152  0.8535 -2.7449
  704MOL0     H92912   1.048   0.954   5.860 -1.6574 -1.1025 -3.8996
  704MOL0     H92913   1.243   0.997   5.729  1.6565  0.9097  2.8655
  704MOL0     H92914   2.800   2.262   5.374 -2.6246  0.4241  1.7226
  704MOL0     H92915   3.047   2.348   5.336  1.2148  0.5746  0.6931
  704MOL0     H92916   3.408   2.461   5.400 -0.0892  0.2316 -1.6912
  704MOL0     H92917   3.633   2.523   5.395 -2.5002 -0.1584 -1.4626
  704MOL0     H92918   3.951   2.270   5.427 -0.6143 -1.9201  1.1090
  704MOL0     H92919   3.960   2.265   5.601 -1.5646 -1.7081 -1.1026
  704MOL0     H92920   4.057   2.489   5.441 -1.9701 -1.4093 -0.3436
  704MOL0     H92921   4.092   2.465   5.619  0.0529 -0.8223  0.4987
  704MOL0     H92922   4.196   2.311   5.396 -2.0891  1.8549 -0.5711
  704MOL0     H92923   4.211   2.249   5.566 -0.9991 -0.3540 -0.4500
  704MOL0     H92924   4.287   2.518   5.452 -1.6696 -1.4491 -2.5735
  704MOL0     H92925   4.351   2.459   5.608 -2.2845  0.0035  0.1299
  704MOL0     H92926   4.625   2.280   5.321  0.3897 -0.7423  0.7660
  704MOL0     H92927   3.760   2.210   5.647 -1.6202 -0.1146  1.6323
  704MOL0     H92928   3.511   2.121   5.647  0.8193 -2.1024 -3.9777
  705MOL0     O92929   3.500  10.150   5.250  0.1164 -0.4822 -0.2595
  705MOL0     C92930   3.579  10.085   5.321  0.6802 -0.1868  0.0049
  705MOL0     O92931   3.548   9.994   5.418  0.4375  0.1656  0.0715
  705MOL0     C92932   3.413   9.979   5.430  0.6763 -0.0754  0.2083
  705MOL0     C92933   3.334  10.074   5.499 -0.3290 -0.3755  0.6327
  705MOL0     C92934   3.198  10.060   5.501 -0.3556  0.4973 -0.3533
  705MOL0     C92935   3.133   9.948   5.445 -0.6911 -0.0845  0.0616
  705MOL0     O92936   3.000   9.939   5.454 -0.7164 -0.1601 -0.1370
  705MOL0     C92937   2.927   9.831   5.394 -0.4703 -0.4903 -0.3301
  705MOL0     C92938   2.792   9.824   5.445  0.5791  0.1183 -0.9607
  705MOL0     C92939   2.795   9.773   5.593  0.3234  0.5631 -0.0322
  705MOL0     C92940   2.656   9.766   5.645  0.2620  0.5464 -0.0258
  705MOL0     C92941   2.649   9.753   5.797  0.1978  0.4847 -0.6195
  705MOL0     C92942   2.513   9.752   5.867  0.1928  0.3118  0.1403
  705MOL0     C92943   2.420   9.651   5.811  0.0683  0.5022 -0.2566
  705MOL0     C92944   2.294   9.627   5.900 -0.1385  0.4712  0.5265
  705MOL0     N92945   2.206   9.748   5.903 -0.3405  0.1773 -0.3403
  705MOL0     C92946   2.092   9.767   5.832 -0.4492 -0.0557 -0.6039
  705MOL0     C92947   2.048   9.895   5.871  0.0380 -0.1495 -0.2120
  705MOL0     C92948   1.921   9.969   5.812  0.6390 -0.1274 -0.1763
  705MOL0     C92949   1.794   9.874   5.788 -0.0356 -0.0024  0.4065
  705MOL0     C92950   1.755   9.812   5.919 -0.1073 -0.2301 -0.5949
  705MOL0     C92951   1.654   9.891   5.996 -0.3462 -0.0560 -0.3885
  705MOL0     O92952   1.533   9.892   5.920 -0.1710 -0.2429 -0.0044
  705MOL0     C92953   1.422   9.956   5.972  0.0866  0.0427 -0.6860
  705MOL0     C92954   1.421  10.029   6.095  0.8729  0.7576  0.4464
  705MOL0     C92955   1.305  10.093   6.137  0.2733  1.3842  0.6056
  705MOL0     C92956   1.185  10.086   6.058 -0.2882  1.2305 -0.2874
  705MOL0     C92957   1.061  10.154   6.110  0.2879 -0.4192  0.2630
  705MOL0     O92958   1.047  10.191   6.238  0.0791 -0.3975  0.3879
  705MOL0     C92959   0.951  10.276   6.281  0.5481  0.0121  0.9794
  705MOL0     C92960   1.000  10.394   6.334  1.1661 -1.1488  0.4363
  705MOL0     C92961   0.911  10.486   6.383  0.6873 -0.8010 -0.9571
  705MOL0     C92962   0.775  10.471   6.373  0.5364 -0.2459  0.6215
  705MOL0     O92963   0.697  10.568   6.421  0.0803  0.1616 -0.5426
  705MOL0     C92964   0.554  10.561   6.418 -0.2968 -0.2684  0.0633
  705MOL0     C92965   0.477  10.686   6.461 -0.5160 -0.2249 -0.9044
  705MOL0     C92966   0.450  10.793   6.356  0.0645 -0.0442  0.0583
  705MOL0     C92967   0.580  10.872   6.325  0.4891 -0.3853  0.6056
  705MOL0     C92968   0.576  11.014   6.274 -0.0446  0.3028  0.0607
  705MOL0     C92969   0.533  11.012   6.124 -0.0528  0.6651 -0.4595
  705MOL0     C92970   0.557  11.157   6.068 -0.0334  0.1680 -0.5405
  705MOL0     C92971   0.568  11.138   5.919 -1.0713  0.7499 -0.2247
  705MOL0    Cl92972   0.410  11.073   5.885  0.1423 -0.1386  0.1217
  705MOL0     C92973   0.726  10.352   6.305 -0.6552 -0.6609  0.1021
  705MOL0     C92974   0.817  10.259   6.260  0.0904 -0.1851  0.6897
  705MOL0     O92975   0.970  10.160   6.025  0.4900  0.3112  1.2270
  705MOL0     C92976   1.195  10.012   5.943 -0.1173  0.0952 -0.0856
  705MOL0     C92977   1.307   9.954   5.888  0.7965  0.8592 -0.5751
  705MOL0     N92978   2.132   9.942   5.975  0.9828 -0.4027 -0.2978
  705MOL0     N92979   2.223   9.849   5.997  0.0792  0.5498 -0.3317
  705MOL0     C92980   3.214   9.852   5.373 -0.7412  0.0728  0.5603
  705MOL0     C92981   3.351   9.866   5.364  0.1853  0.4378 -0.6822
  705MOL0     C92982   3.721  10.097   5.283  0.4634  0.1449 -0.7271
  705MOL0     C92983   3.812  10.005   5.341  0.7704  0.7236  0.4051
  705MOL0     C92984   3.949  10.016   5.331 -0.3179  0.2637  0.0388
  705MOL0     C92985   4.003  10.103   5.238  0.5729 -0.7305  0.2049
  705MOL0     O92986   4.139  10.083   5.218 -0.2027  0.1251 -0.5374
  705MOL0     C92987   4.201  10.167   5.120  0.1088 -0.2355  0.0080
  705MOL0     C92988   4.249  10.304   5.178 -0.8896 -0.0786  0.5879
  705MOL0     C92989   4.378  10.287   5.261  0.3903 -0.7334 -0.5523
  705MOL0     C92990   4.481  10.396   5.223  0.0989 -0.6637 -0.2223
  705MOL0     C92991   4.588  10.402   5.323 -0.5697 -0.3444  0.3535
  705MOL0     C92992   4.675  10.399   5.413 -0.3612  0.6667 -0.2921
  705MOL0     C92993   3.913  10.195   5.176  0.4243  0.0390 -0.4829
  705MOL0     C92994   3.775  10.195   5.213 -0.3106  0.2061 -0.3205
  705MOL0     H92995   3.380  10.161   5.543 -0.1494 -0.1498  0.0096
  705MOL0     H92996   3.141  10.130   5.561 -2.3124 -2.3469  1.3282
  705MOL0     H92997   2.971   9.733   5.418 -2.0092 -1.7911 -2.4800
  705MOL0     H92998   2.925   9.841   5.285 -0.8605  0.5981 -0.2361
  705MOL0     H92999   2.737   9.754   5.382  0.3021  0.3141 -0.9357
  705MOL0     H93000   2.757   9.927   5.437  0.5247  0.1994  0.1430
  705MOL0     H93001   2.850   9.849   5.649 -0.3961  1.9220 -1.0946
  705MOL0     H93002   2.837   9.673   5.603  0.3327  0.6882  1.4595
  705MOL0     H93003   2.585   9.845   5.617 -1.2105  0.1495  2.3194
  705MOL0     H93004   2.612   9.676   5.601 -0.1862 -1.4606  4.0694
  705MOL0     H93005   2.705   9.840   5.835 -3.4545  2.7614  0.1425
  705MOL0     H93006   2.694   9.659   5.828  1.2783  0.9390 -0.7731
  705MOL0     H93007   2.466   9.849   5.848  0.6331  0.2813 -1.2620
  705MOL0     H93008   2.537   9.730   5.971  0.3880  3.4773  0.8583
  705MOL0     H93009   2.394   9.677   5.708 -0.0436 -1.2941 -0.7279
  705MOL0     H93010   2.473   9.555   5.805 -0.6287  0.1082 -0.2669
  705MOL0     H93011   2.327   9.587   5.996  2.9336  1.4297 -0.0306
  705MOL0     H93012   2.225   9.554   5.855  0.3311 -0.3313  1.0755
  705MOL0     H93013   2.056   9.722   5.741  0.8779  0.2463 -1.3075
  705MOL0     H93014   1.945  10.017   5.716 -1.0643 -2.3917 -1.8354
  705MOL0     H93015   1.897  10.053   5.878 -0.6966  0.5979 -1.5320
  705MOL0     H93016   1.821   9.807   5.705 -0.1822 -0.0719  0.4150
  705MOL0     H93017   1.716   9.936   5.744  0.8130 -0.0191 -1.2062
  705MOL0     H93018   1.714   9.711   5.904 -2.5839  0.9128 -2.2132
  705MOL0     H93019   1.838   9.785   5.985 -0.7524 -0.3433  0.1871
  705MOL0     H93020   1.687   9.994   6.013  0.3918 -0.4906  0.8851
  705MOL0     H93021   1.644   9.843   6.093 -0.1852  2.9551  1.2533
  705MOL0     H93022   1.513  10.032   6.154  1.1669 -0.1556  0.0585
  705MOL0     H93023   1.300  10.129   6.239 -0.1483 -1.9026  1.8729
  705MOL0     H93024   1.107  10.415   6.336  1.0321 -0.4683  0.6622
  705MOL0     H93025   0.947  10.581   6.419  0.6763 -0.8727 -0.7539
  705MOL0     H93026   0.526  10.478   6.484  1.6526 -0.6190  0.5106
  705MOL0     H93027   0.524  10.536   6.316  0.5204  0.2162 -0.3056
  705MOL0     H93028   0.537  10.719   6.546 -1.3104 -2.0377  0.4328
  705MOL0     H93029   0.381  10.655   6.505 -0.0433 -2.9157 -1.5859
  705MOL0     H93030   0.373  10.859   6.397  0.7739  0.3513  0.8023
  705MOL0     H93031   0.414  10.756   6.260 -2.7051  1.0020  0.6062
  705MOL0     H93032   0.645  10.866   6.413 -2.2606 -2.1440  2.6805
  705MOL0     H93033   0.641  10.817   6.252  1.4110 -1.1716  1.9079
  705MOL0     H93034   0.676  11.058   6.278 -0.2607  0.7821  0.3664
  705MOL0     H93035   0.516  11.085   6.331  0.5141  1.4565 -0.7237
  705MOL0     H93036   0.434  10.965   6.115 -0.8857  1.9750  1.1809
  705MOL0     H93037   0.605  10.947   6.074  0.2861  2.4098 -2.3694
  705MOL0     H93038   0.474  11.226   6.084 -0.4828 -0.1742 -1.3343
  705MOL0     H93039   0.650  11.208   6.093  1.2135 -1.2615 -2.0324
  705MOL0     H93040   0.644  11.061   5.908 -2.6512 -1.8529  4.4524
  705MOL0     H93041   0.594  11.221   5.852  0.7739  0.0404 -0.4421
  705MOL0     H93042   0.620  10.332   6.291 -1.1212  1.2139  0.7474
  705MOL0     H93043   0.775  10.170   6.213 -2.4305  0.1650  2.0811
  705MOL0     H93044   1.105   9.991   5.886 -0.7104 -0.9039  1.1931
  705MOL0     H93045   1.300   9.896   5.796  2.1591 -3.0096  1.5363
  705MOL0     H93046   3.168   9.767   5.322  4.1512 -2.9256  0.4919
  705MOL0     H93047   3.415   9.802   5.305 -2.5732 -2.7885 -0.4496
  705MOL0     H93048   3.762   9.929   5.400  1.2056 -0.2120 -0.3819
  705MOL0     H93049   4.005   9.941   5.387  0.7496  1.1037  0.1252
  705MOL0     H93050   4.138  10.180   5.032 -1.1482 -0.1383  0.8915
  705MOL0     H93051   4.287  10.116   5.075 -1.4586 -0.5803 -2.8296
  705MOL0     H93052   4.261  10.368   5.090 -1.3667 -0.7637  0.0027
  705MOL0     H93053   4.171  10.349   5.240 -1.8853 -0.6646 -0.2022
  705MOL0     H93054   4.418  10.185   5.252  1.5090 -0.2757 -0.9506
  705MOL0     H93055   4.366  10.305   5.368  3.0660 -0.4129 -0.2261
  705MOL0     H93056   4.529  10.362   5.131  1.6065  2.0239 -0.5399
  705MOL0     H93057   4.435  10.493   5.199 -1.5856 -1.1998  0.7010
  705MOL0     H93058   4.740  10.396   5.498 -0.8209  0.3270  0.0563
  705MOL0     H93059   3.961  10.270   5.114  0.6840  3.2859  3.1890
  705MOL0     H93060   3.708  10.272   5.175  1.3635  2.4747  1.0850
  706MOL0     O93061   3.662   6.491   1.482  0.7340  0.8194  0.4209
  706MOL0     C93062   3.677   6.524   1.600  0.4209  0.5958  0.7846
  706MOL0     O93063   3.593   6.599   1.671  0.6517 -0.4432 -0.2343
  706MOL0     C93064   3.481   6.643   1.603  0.3552  0.5936  0.9046
  706MOL0     C93065   3.477   6.762   1.524  1.4485 -0.1020  0.5725
  706MOL0     C93066   3.356   6.808   1.471  0.3632 -0.3685  0.5232
  706MOL0     C93067   3.239   6.731   1.488  0.9325 -0.3238 -0.3071
  706MOL0     O93068   3.108   6.787   1.465 -0.9174  0.3517 -0.3872
  706MOL0     C93069   3.096   6.924   1.442 -0.1658  0.3077  0.6427
  706MOL0     C93070   2.950   6.976   1.453 -0.7748  0.8614 -0.1088
  706MOL0     C93071   2.859   6.929   1.335  0.4060 -0.6807  0.5095
  706MOL0     C93072   2.737   7.031   1.330 -0.1791  0.1239  0.5518
  706MOL0     C93073   2.592   6.964   1.298  0.2143 -0.0687  0.1648
  706MOL0     C93074   2.464   7.053   1.306  0.4401  0.3381 -0.4649
  706MOL0     C93075   2.339   6.994   1.244 -0.6664  0.2263  1.1770
  706MOL0     C93076   2.214   7.081   1.266  0.0517 -0.4108 -0.0475
  706MOL0     N93077   2.095   6.990   1.246  0.3927  0.3971  0.7977
  706MOL0     C93078   1.977   7.012   1.309  0.3919  0.0647 -0.1942
  706MOL0     C93079   1.892   6.924   1.261 -0.3606  0.2221 -0.1738
  706MOL0     C93080   1.753   6.909   1.310 -0.2136  0.1695 -0.1444
  706MOL0     C93081   1.750   6.811   1.428  0.2905  1.4133  0.4219
  706MOL0     C93082   1.743   6.661   1.376 -0.2884  0.2927  0.1501
  706MOL0     C93083   1.608   6.611   1.342 -0.2743 -0.7289  1.1720
  706MOL0     O93084   1.545   6.602   1.463  0.6274  0.2030 -0.6398
  706MOL0     C93085   1.408   6.571   1.463  0.8471 -0.5378  0.3358
  706MOL0     C93086   1.339   6.519   1.351 -0.6693 -0.6665 -0.3169
  706MOL0     C93087   1.210   6.480   1.369 -0.3739  0.1399 -0.3245
  706MOL0     C93088   1.138   6.492   1.489  0.0254 -1.3320 -1.1430
  706MOL0     C93089   1.000   6.445   1.509 -0.5548  0.8255 -0.5063
  706MOL0     O93090   0.939   6.496   1.626 -0.1350  0.8565  0.2026
  706MOL0     C93091   0.805   6.462   1.648 -0.2908 -0.3685  0.1585
  706MOL0     C93092   0.725   6.569   1.680 -0.5162 -0.1898 -0.0796
  706MOL0     C93093   0.586   6.551   1.687 -0.5959  0.4702 -0.0290
  706MOL0     C93094   0.526   6.431   1.660 -0.0610  0.8323  0.3841
  706MOL0     O93095   0.393   6.405   1.679 -0.3609 -0.2588  0.1108
  706MOL0     C93096   0.303   6.401   1.566 -0.7364  0.0703  0.1470
  706MOL0     C93097   0.165   6.337   1.597 -0.7615  1.1096  0.4323
  706MOL0     C93098   0.089   6.437   1.689 -0.8692  0.4798 -0.3890
  706MOL0     C93099  -0.044   6.381   1.729  0.4938 -0.0301 -0.0594
  706MOL0     C93100  -0.123   6.495   1.799 -1.1567  0.1276 -0.4018
  706MOL0     C93101  -0.269   6.482   1.772 -0.4461  0.4262 -0.1640
  706MOL0     C93102  -0.326   6.361   1.845 -0.3756  0.8898  0.0471
  706MOL0     C93103  -0.477   6.348   1.821  0.4344  0.4875 -0.4203
  706MOL0    Cl93104  -0.557   6.499   1.888  0.2559 -0.0351 -0.9113
  706MOL0     C93105   0.612   6.325   1.627 -0.3740 -0.0282  0.2546
  706MOL0     C93106   0.754   6.335   1.618  1.3531 -0.6800  0.1498
  706MOL0     O93107   0.943   6.378   1.419 -0.3258  0.1073 -0.4202
  706MOL0     C93108   1.206   6.549   1.599 -0.1737  1.5323 -0.1351
  706MOL0     C93109   1.339   6.582   1.586  0.6061 -0.4357 -0.8869
  706MOL0     N93110   1.965   6.838   1.180  0.2446  0.2310  0.0165
  706MOL0     N93111   2.080   6.885   1.164  0.1541  0.6118 -0.1263
  706MOL0     C93112   3.243   6.610   1.562 -0.3145 -0.3110  0.5354
  706MOL0     C93113   3.367   6.565   1.609  0.0371 -0.4219 -0.4476
  706MOL0     C93114   3.804   6.481   1.650  0.6521  0.1296 -0.5700
  706MOL0     C93115   3.859   6.547   1.755  1.1785  0.0363 -0.4229
  706MOL0     C93116   3.989   6.509   1.805  0.3768  0.0587 -0.4196
  706MOL0     C93117   4.054   6.406   1.742 -0.3801  0.1795 -0.2441
  706MOL0     O93118   4.178   6.358   1.789  0.7625  0.1172  1.0062
  706MOL0     C93119   4.220   6.375   1.925  0.0134 -0.1408 -0.4682
  706MOL0     C93120   4.359   6.328   1.958  0.6418 -0.1603 -0.1063
  706MOL0     C93121   4.462   6.394   1.871  0.6772  0.6161  0.2312
  706MOL0     C93122   4.598   6.332   1.905  0.0386 -0.0682  1.0529
  706MOL0     C93123   4.639   6.329   2.044 -0.2584  0.0665 -0.0770
  706MOL0     C93124   4.688   6.337   2.156  0.3462 -0.1815  0.9996
  706MOL0     C93125   3.996   6.352   1.625 -0.5308 -0.7763 -0.4594
  706MOL0     C93126   3.874   6.382   1.579 -0.2658  0.0458  0.1576
  706MOL0     H93127   3.562   6.828   1.511  0.9388  0.2496 -1.1911
  706MOL0     H93128   3.354   6.903   1.419  2.0266 -0.1129  0.8386
  706MOL0     H93129   3.146   6.962   1.352  0.9030  2.5484  2.1013
  706MOL0     H93130   3.161   6.984   1.506 -0.5024 -1.4841  2.7734
  706MOL0     H93131   2.950   7.086   1.450 -1.8915  0.8552 -0.5456
  706MOL0     H93132   2.897   6.944   1.543  0.0779  2.0073  0.8480
  706MOL0     H93133   2.809   6.834   1.355 -2.1208  0.5061  0.2268
  706MOL0     H93134   2.922   6.928   1.246  1.4202 -0.0000  1.2016
  706MOL0     H93135   2.724   7.063   1.434  0.6124 -3.0554  1.7444
  706MOL0     H93136   2.755   7.109   1.256  0.0528  0.1715  0.6579
  706MOL0     H93137   2.597   6.885   1.374  1.0123 -0.4773 -0.2931
  706MOL0     H93138   2.612   6.926   1.198 -1.7054 -1.3236  0.2005
  706MOL0     H93139   2.481   7.152   1.263  1.7049  0.8012  0.9952
  706MOL0     H93140   2.445   7.063   1.414 -1.4900 -0.1223 -0.7181
  706MOL0     H93141   2.355   6.987   1.136 -0.2887 -2.0912  1.3242
  706MOL0     H93142   2.328   6.895   1.291 -0.4845 -0.0882  0.5684
  706MOL0     H93143   2.212   7.161   1.191  0.0377  0.4550  0.8509
  706MOL0     H93144   2.220   7.130   1.364 -0.5955 -1.0358  0.3118
  706MOL0     H93145   1.952   7.098   1.371 -1.6065 -2.2814  2.5515
  706MOL0     H93146   1.679   6.877   1.236  0.4676 -1.8947 -0.0032
  706MOL0     H93147   1.722   7.002   1.359 -1.0466 -1.2605  2.2375
  706MOL0     H93148   1.660   6.830   1.487 -0.2657  0.9477 -0.2511
  706MOL0     H93149   1.834   6.830   1.494  1.3870 -0.7316 -0.2589
  706MOL0     H93150   1.814   6.638   1.296  2.6422  1.0014  2.3447
  706MOL0     H93151   1.783   6.605   1.461  1.1816 -1.9914 -1.9239
  706MOL0     H93152   1.604   6.511   1.298  1.6781 -0.7448  0.9610
  706MOL0     H93153   1.564   6.674   1.265 -1.1441 -1.1991  1.2725
  706MOL0     H93154   1.384   6.503   1.253  1.6400  0.1404  0.5601
  706MOL0     H93155   1.160   6.427   1.288 -1.8517  1.9826 -0.6713
  706MOL0     H93156   0.765   6.669   1.684 -0.1599 -0.3665  1.3891
  706MOL0     H93157   0.528   6.641   1.703  0.1735  1.3141 -1.7205
  706MOL0     H93158   0.356   6.341   1.491 -1.0505 -0.7290  0.5560
  706MOL0     H93159   0.287   6.503   1.530  0.5187  1.1752  2.4295
  706MOL0     H93160   0.172   6.239   1.645 -2.0063  0.2381 -1.0352
  706MOL0     H93161   0.115   6.325   1.500  0.0174  0.7159  0.0696
  706MOL0     H93162   0.074   6.524   1.624 -0.1188 -0.0608 -1.3127
  706MOL0     H93163   0.145   6.446   1.783 -2.1804 -3.9382  1.0542
  706MOL0     H93164  -0.095   6.345   1.638  3.7456 -2.9541 -0.9717
  706MOL0     H93165  -0.028   6.297   1.798 -1.9074 -0.2034  0.3811
  706MOL0     H93166  -0.088   6.595   1.775 -0.6857  0.4576  1.5481
  706MOL0     H93167  -0.116   6.481   1.907 -0.0820  1.2958 -0.2998
  706MOL0     H93168  -0.288   6.474   1.665  1.5077  1.9699 -0.6953
  706MOL0     H93169  -0.320   6.575   1.798 -3.3856 -0.3173 -2.7302
  706MOL0     H93170  -0.275   6.271   1.812 -2.3495 -0.4870  0.5765
  706MOL0     H93171  -0.310   6.368   1.953  1.0823  0.4736 -0.1316
  706MOL0     H93172  -0.513   6.257   1.870 -2.0723  1.8064  0.3883
  706MOL0     H93173  -0.502   6.341   1.715  0.6722 -3.6505 -0.3628
  706MOL0     H93174   0.561   6.231   1.610 -1.1684  0.4851 -0.3118
  706MOL0     H93175   0.805   6.248   1.577 -1.0315 -1.9752 -0.2477
  706MOL0     H93176   1.163   6.563   1.697 -1.7055  0.7152 -0.6592
  706MOL0     H93177   1.396   6.630   1.665 -1.2567  0.9668 -0.3267
  706MOL0     H93178   3.155   6.550   1.584 -1.5869  0.5750 -1.7756
  706MOL0     H93179   3.375   6.480   1.677  0.9665  0.9864  1.2942
  706MOL0     H93180   3.809   6.619   1.819 -0.4460  0.5609 -2.2140
  706MOL0     H93181   4.025   6.540   1.903  1.8607 -1.7311 -0.3445
  706MOL0     H93182   4.151   6.313   1.983  0.9638 -1.6327 -0.8665
  706MOL0     H93183   4.220   6.480   1.955 -0.6856 -0.7973  2.0652
  706MOL0     H93184   4.384   6.339   2.064  0.6084 -3.1068  0.3079
  706MOL0     H93185   4.366   6.220   1.939  2.0552 -0.4061  1.4771
  706MOL0     H93186   4.470   6.502   1.884 -0.2595  0.6680  0.3801
  706MOL0     H93187   4.433   6.381   1.766 -2.2266  2.6015  0.6976
  706MOL0     H93188   4.600   6.231   1.863  2.4288 -0.7468  2.6158
  706MOL0     H93189   4.679   6.395   1.868  0.5978  0.2158  2.7026
  706MOL0     H93190   4.710   6.346   2.260  0.4797  0.6414  0.9037
  706MOL0     H93191   4.054   6.285   1.563  0.1307 -0.7133  0.0743
  706MOL0     H93192   3.840   6.342   1.484 -2.8326  2.9016 -0.3116
  707MOL0     O93193  11.158   6.084   9.062  0.2001 -0.5856 -0.0061
  707MOL0     C93194  11.125   6.071   9.180  0.5172 -0.4218  0.6100
  707MOL0     O93195  10.995   6.068   9.234 -0.3556 -0.4861  0.7084
  707MOL0     C93196  10.881   6.035   9.159  0.1896 -0.6661  0.0306
  707MOL0     C93197  10.787   5.953   9.214  0.2771  0.7317 -0.3492
  707MOL0     C93198  10.660   5.924   9.162  0.7000 -0.0261  0.8632
  707MOL0     C93199  10.621   5.991   9.046  0.0305  0.1362  0.5161
  707MOL0     O93200  10.493   5.963   9.015  0.2400  0.1726 -0.0112
  707MOL0     C93201  10.433   6.040   8.907 -0.0575 -0.4252 -0.4531
  707MOL0     C93202  10.283   5.992   8.915 -0.0037 -0.7412 -0.1348
  707MOL0     C93203  10.201   6.055   8.800  0.1061 -0.7888  0.1215
  707MOL0     C93204  10.056   6.021   8.842  0.2211 -0.1784 -0.3457
  707MOL0     C93205   9.966   6.033   8.716 -0.1509 -0.3229  0.0942
  707MOL0     C93206   9.914   6.175   8.716 -0.4677  0.9898  0.5872
  707MOL0     C93207   9.831   6.212   8.593 -0.6541 -0.2924  0.6605
  707MOL0     C93208   9.705   6.130   8.582  0.5592  1.3177  0.7073
  707MOL0     N93209   9.600   6.172   8.488 -0.7040 -0.2500 -0.0018
  707MOL0     C93210   9.607   6.166   8.352  0.0881 -0.6059 -0.2942
  707MOL0     C93211   9.502   6.238   8.313  0.3995 -0.5668  0.1602
  707MOL0     C93212   9.464   6.268   8.177  0.9327 -0.4353  0.0671
  707MOL0     C93213   9.559   6.208   8.059  0.2693 -0.7541 -0.9291
  707MOL0     C93214   9.506   6.258   7.919 -0.7664  0.3643  0.1419
  707MOL0     C93215   9.360   6.249   7.895  0.1860  0.7970  0.1611
  707MOL0     O93216   9.309   6.120   7.923  0.3543 -0.1254  0.1346
  707MOL0     C93217   9.171   6.110   7.893  0.0141  0.0387  0.5658
  707MOL0     C93218   9.122   5.979   7.895 -0.7470  1.0571  0.1825
  707MOL0     C93219   8.988   5.949   7.853  0.5381  0.3210  0.6613
  707MOL0     C93220   8.897   6.051   7.824 -0.4564 -0.4207  0.1394
  707MOL0     C93221   8.751   6.025   7.803  0.2787 -0.1442  0.4543
  707MOL0     O93222   8.670   6.136   7.778  0.7810  0.0745 -0.3946
  707MOL0     C93223   8.532   6.115   7.751 -0.7014 -0.1788  0.0938
  707MOL0     C93224   8.453   6.221   7.795  0.2895  1.1748 -0.2070
  707MOL0     C93225   8.319   6.213   7.773 -0.1349 -0.4345  0.3430
  707MOL0     C93226   8.256   6.110   7.701 -0.0116  0.3013  0.2085
  707MOL0     O93227   8.119   6.110   7.686 -0.4870 -0.0916 -0.5050
  707MOL0     C93228   8.046   5.989   7.672  0.3144  0.4162 -0.1408
  707MOL0     C93229   7.898   6.025   7.711 -0.1586 -0.5636  0.4224
  707MOL0     C93230   7.818   6.129   7.618 -0.9788  0.3411  0.2426
  707MOL0     C93231   7.690   6.177   7.682  0.6472  0.0461 -0.8197
  707MOL0     C93232   7.558   6.101   7.649  0.1420 -0.0117  0.3516
  707MOL0     C93233   7.510   6.141   7.509  0.4189  0.9310 -0.1660
  707MOL0     C93234   7.365   6.087   7.494 -0.3924  0.2562 -0.1574
  707MOL0     C93235   7.307   6.096   7.354  0.3263 -0.7202  0.3383
  707MOL0    Cl93236   7.285   6.269   7.314  0.1059 -0.0675 -0.1177
  707MOL0     C93237   8.338   6.007   7.645  0.1256 -0.0759  0.7202
  707MOL0     C93238   8.480   6.010   7.679 -0.1490  0.2539 -0.1698
  707MOL0     O93239   8.713   5.911   7.816  0.3802  0.2508  0.6160
  707MOL0     C93240   8.945   6.183   7.839 -0.0306  0.4669 -0.3338
  707MOL0     C93241   9.082   6.213   7.856 -0.3067  0.3608  0.0140
  707MOL0     N93242   9.442   6.288   8.428  0.0016 -0.1269  1.1893
  707MOL0     N93243   9.493   6.244   8.537  0.2205 -0.2520  0.8575
  707MOL0     C93244  10.716   6.079   8.978  0.0297  1.0907  0.1234
  707MOL0     C93245  10.841   6.102   9.036 -0.5220 -0.3737  0.1532
  707MOL0     C93246  11.241   6.050   9.278  0.3444 -0.6195  0.1888
  707MOL0     C93247  11.219   6.000   9.410 -0.7722  0.0542  0.4427
  707MOL0     C93248  11.329   5.992   9.489 -0.0562  0.0297 -0.3530
  707MOL0     C93249  11.452   6.035   9.461 -0.3629  0.1857  0.0997
  707MOL0     O93250  11.532   6.029   9.572 -0.1820 -0.4795  0.5341
  707MOL0     C93251  11.674   6.058   9.551 -0.1841  0.2293 -0.6126
  707MOL0     C93252  11.733   6.082   9.686  0.0699  0.4542 -0.4806
  707MOL0     C93253  11.888   6.092   9.676  0.2606  0.2181 -0.1636
  707MOL0     C93254  11.942   6.110   9.817  0.2176 -0.3902  0.6219
  707MOL0     C93255  11.865   6.199   9.913 -0.7890 -0.0152  0.3317
  707MOL0     C93256  11.806   6.261  10.000  0.7844  0.0690 -0.1384
  707MOL0     C93257  11.480   6.078   9.338 -0.0748  0.4143 -0.1470
  707MOL0     C93258  11.374   6.076   9.239 -0.0949  0.2985 -0.2360
  707MOL0     H93259  10.810   5.919   9.315 -1.5376 -0.0081 -0.1406
  707MOL0     H93260  10.585   5.861   9.210 -0.8299  1.4722  0.5435
  707MOL0     H93261  10.479   6.014   8.811 -0.1361  1.3633 -1.0103
  707MOL0     H93262  10.439   6.149   8.917  1.4704 -0.4169 -1.2500
  707MOL0     H93263  10.247   6.025   9.012  2.1795 -3.8101  1.9021
  707MOL0     H93264  10.282   5.883   8.915 -0.5776 -0.7433  1.3339
  707MOL0     H93265  10.221   6.014   8.701 -3.0891 -1.7578 -0.2633
  707MOL0     H93266  10.224   6.162   8.807  0.4468 -0.7940 -0.8061
  707MOL0     H93267  10.061   5.915   8.868  1.0584 -0.0211  0.1375
  707MOL0     H93268  10.015   6.077   8.926  1.0429  2.0924 -1.3693
  707MOL0     H93269   9.878   5.968   8.726 -0.2979  0.0812  1.7644
  707MOL0     H93270  10.011   6.010   8.619  2.1472  0.4593  0.9018
  707MOL0     H93271  10.003   6.236   8.702  0.5447 -0.1270  1.9270
  707MOL0     H93272   9.865   6.206   8.809 -1.5781 -1.5129  0.9193
  707MOL0     H93273   9.793   6.313   8.613 -0.5813 -0.3576  1.1189
  707MOL0     H93274   9.888   6.201   8.500 -1.1598  0.7984  0.1908
  707MOL0     H93275   9.666   6.133   8.684 -0.0107  0.6959  0.5142
  707MOL0     H93276   9.731   6.026   8.558  1.4749  1.5032  0.8555
  707MOL0     H93277   9.682   6.123   8.286  0.2998 -0.3272 -0.2360
  707MOL0     H93278   9.466   6.377   8.170  1.1722 -0.3894  0.7950
  707MOL0     H93279   9.359   6.236   8.166  0.6984  0.2354  0.3177
  707MOL0     H93280   9.578   6.102   8.074  0.0102 -0.7742 -0.7226
  707MOL0     H93281   9.658   6.250   8.076 -0.2630 -0.1816  1.0965
  707MOL0     H93282   9.546   6.357   7.893  0.9390 -0.0093  1.1902
  707MOL0     H93283   9.558   6.195   7.847 -3.1537  1.9181 -3.2026
  707MOL0     H93284   9.339   6.265   7.789  0.6534 -3.3137 -0.7465
  707MOL0     H93285   9.310   6.323   7.958 -1.2442  0.4372 -0.5177
  707MOL0     H93286   9.199   5.907   7.920 -1.6371 -0.5174 -1.4335
  707MOL0     H93287   8.960   5.844   7.856 -0.1302  0.4649 -0.2288
  707MOL0     H93288   8.486   6.312   7.843 -0.8570  0.4046  2.2512
  707MOL0     H93289   8.253   6.294   7.799 -0.8970 -1.1730  0.7405
  707MOL0     H93290   8.089   5.911   7.735 -2.7466 -0.9862  0.4033
  707MOL0     H93291   8.044   5.957   7.568  1.8328  0.3494 -0.1813
  707MOL0     H93292   7.897   6.064   7.813  0.6957  1.2591 -0.2037
  707MOL0     H93293   7.838   5.934   7.717 -0.2714 -0.3821  2.9768
  707MOL0     H93294   7.792   6.092   7.519  3.1642  2.1520 -1.7480
  707MOL0     H93295   7.873   6.220   7.593 -4.8010  2.4601 -1.3569
  707MOL0     H93296   7.704   6.160   7.789  1.8688 -1.0067 -1.1375
  707MOL0     H93297   7.674   6.283   7.662 -2.2123 -0.5254 -2.0986
  707MOL0     H93298   7.483   6.120   7.726 -0.8685 -2.2178  0.0039
  707MOL0     H93299   7.568   5.992   7.643 -1.0936 -0.1149 -0.1442
  707MOL0     H93300   7.578   6.103   7.432 -0.9598 -0.5129 -0.7370
  707MOL0     H93301   7.483   6.246   7.490 -1.0423  0.4217 -1.1511
  707MOL0     H93302   7.360   5.979   7.511 -0.9207  0.2701 -0.1953
  707MOL0     H93303   7.299   6.140   7.564  1.5399  1.5570  0.7694
  707MOL0     H93304   7.211   6.044   7.353  0.8948 -1.8174 -1.0002
  707MOL0     H93305   7.366   6.043   7.278  1.7862  0.8884  0.3098
  707MOL0     H93306   8.306   5.936   7.569 -3.0752  1.4592  0.4719
  707MOL0     H93307   8.540   5.926   7.644 -3.1207 -2.2219  0.1586
  707MOL0     H93308   8.873   6.263   7.833 -0.8318 -0.1472  0.8106
  707MOL0     H93309   9.107   6.318   7.855 -0.8915  0.5020 -1.4031
  707MOL0     H93310  10.692   6.126   8.883 -0.7832  0.9814  0.2711
  707MOL0     H93311  10.917   6.165   8.990  0.8023 -1.9783  0.0529
  707MOL0     H93312  11.125   5.971   9.455 -1.1471  1.0531  0.3486
  707MOL0     H93313  11.308   5.948   9.586  0.5961  0.4175 -0.0305
  707MOL0     H93314  11.694   6.147   9.491  0.9686  0.9223  0.7266
  707MOL0     H93315  11.730   5.973   9.510  2.9140  1.2821  1.1091
  707MOL0     H93316  11.691   6.175   9.725  2.6984  0.5146  2.6950
  707MOL0     H93317  11.706   5.999   9.753 -3.1975  1.0521 -0.9302
  707MOL0     H93318  11.904   6.179   9.612 -1.9135 -1.1448 -2.7963
  707MOL0     H93319  11.931   6.005   9.626 -3.3440 -0.7019 -1.9577
  707MOL0     H93320  11.960   6.013   9.865  2.3019 -0.6206 -0.5116
  707MOL0     H93321  12.043   6.150   9.816  0.1731 -0.1668  2.6409
  707MOL0     H93322  11.750   6.297  10.084 -0.4763 -0.3124 -0.7913
  707MOL0     H93323  11.577   6.120   9.313 -0.2951  0.7449 -0.4715
  707MOL0     H93324  11.395   6.122   9.143  2.0275 -0.6844 -0.3084
  708MOL0     O93325   8.230   0.121   8.274  0.2872 -0.6465 -0.6705
  708MOL0     C93326   8.250   0.182   8.378 -0.0382  0.1081 -0.3881
  708MOL0     O93327   8.153   0.246   8.456  0.2618 -0.0226 -0.1875
  708MOL0     C93328   8.028   0.251   8.411  0.6841  0.0668 -0.2324
  708MOL0     C93329   8.000   0.325   8.293  0.4517  0.3852 -0.1551
  708MOL0     C93330   7.872   0.336   8.250  0.2719  0.1048  0.3263
  708MOL0     C93331   7.768   0.280   8.318  0.1784  0.1866 -0.0430
  708MOL0     O93332   7.646   0.296   8.254 -0.4037 -0.4699  0.5618
  708MOL0     C93333   7.530   0.241   8.323 -0.0796 -0.1160 -0.1056
  708MOL0     C93334   7.532   0.087   8.310 -0.5161  0.1657 -1.0253
  708MOL0     C93335   7.486   0.039   8.167 -0.0013 -0.0451 -1.2495
  708MOL0     C93336   7.334   0.067   8.163  0.4409  1.0610  0.0165
  708MOL0     C93337   7.281  -0.005   8.046  0.7501  0.9820 -0.1699
  708MOL0     C93338   7.129  -0.004   8.017 -0.1968 -1.1474  0.1750
  708MOL0     C93339   7.064  -0.114   8.094 -0.3016  0.0150  0.2354
  708MOL0     C93340   6.925  -0.074   8.125 -0.3945  0.2080 -1.0400
  708MOL0     N93341   6.860  -0.181   8.199  0.7091  0.6819  0.2585
  708MOL0     C93342   6.819  -0.306   8.158  0.3276 -0.8462 -0.0888
  708MOL0     C93343   6.748  -0.351   8.270  0.8344  0.8489 -0.0438
  708MOL0     C93344   6.650  -0.473   8.278  1.0479  0.3199 -0.0827
  708MOL0     C93345   6.529  -0.439   8.365  0.4465  0.3708  0.3592
  708MOL0     C93346   6.430  -0.556   8.355 -0.9329 -0.0865 -0.5338
  708MOL0     C93347   6.308  -0.513   8.436  0.5609  0.8047  0.1742
  708MOL0     O93348   6.232  -0.636   8.406  0.7782 -0.3802  0.0105
  708MOL0     C93349   6.096  -0.639   8.383 -0.0433 -0.6640 -0.5037
  708MOL0     C93350   6.045  -0.767   8.367  0.6801 -0.8895 -0.4594
  708MOL0     C93351   5.914  -0.787   8.347 -0.8849  0.3086 -0.1331
  708MOL0     C93352   5.821  -0.680   8.359  0.4915 -0.6658 -0.4109
  708MOL0     C93353   5.675  -0.704   8.324  0.1433 -0.1046  0.8171
  708MOL0     O93354   5.660  -0.810   8.241 -0.0444  0.6041 -0.1853
  708MOL0     C93355   5.530  -0.823   8.200 -0.1839  0.5067 -0.2472
  708MOL0     C93356   5.469  -0.745   8.100  0.0348 -1.2612 -0.6895
  708MOL0     C93357   5.336  -0.766   8.061 -0.2571  0.6282 -0.7012
  708MOL0     C93358   5.269  -0.874   8.114  0.2609  0.4381 -0.2138
  708MOL0     O93359   5.137  -0.887   8.070 -0.7758  0.2527 -0.1642
  708MOL0     C93360   5.055  -0.987   8.137  0.4213 -1.0864  0.4590
  708MOL0     C93361   4.914  -0.985   8.072 -0.9007 -0.7017 -0.1441
  708MOL0     C93362   4.819  -1.090   8.129  0.0529 -0.6230 -0.3479
  708MOL0     C93363   4.696  -1.076   8.036  0.3964 -0.9565 -0.7663
  708MOL0     C93364   4.577  -1.147   8.093 -0.2821 -1.2696  0.4068
  708MOL0     C93365   4.453  -1.150   8.009  1.2537  0.0559  0.0254
  708MOL0     C93366   4.346  -1.228   8.071  0.0427 -0.4119  0.2032
  708MOL0     C93367   4.212  -1.220   7.995 -0.2356 -0.1403  0.4987
  708MOL0    Cl93368   4.136  -1.062   8.012  0.0300 -0.2267 -0.1742
  708MOL0     C93369   5.325  -0.963   8.199 -0.4275 -0.7419 -0.0400
  708MOL0     C93370   5.457  -0.936   8.247  0.5909  0.5085 -0.1953
  708MOL0     O93371   5.588  -0.630   8.366  0.0735  0.2820  0.3875
  708MOL0     C93372   5.870  -0.550   8.383  0.5686 -0.1644  0.0942
  708MOL0     C93373   6.009  -0.533   8.391  0.2362 -0.1677 -0.0624
  708MOL0     N93374   6.784  -0.276   8.378  0.5704  0.3527  0.6291
  708MOL0     N93375   6.859  -0.180   8.333  0.2815  0.7804 -0.3111
  708MOL0     C93376   7.796   0.212   8.432 -0.3882  0.6854  0.8602
  708MOL0     C93377   7.927   0.197   8.485  0.1247  0.5487  0.2455
  708MOL0     C93378   8.389   0.176   8.416 -0.3956 -1.2568 -0.2029
  708MOL0     C93379   8.442   0.289   8.481 -0.3707 -0.1876 -0.0083
  708MOL0     C93380   8.575   0.290   8.525  0.8390 -0.1395  0.4819
  708MOL0     C93381   8.661   0.191   8.486 -0.0964 -0.2521  0.6501
  708MOL0     O93382   8.785   0.189   8.527  0.0835 -0.3736  0.0851
  708MOL0     C93383   8.873   0.213   8.419 -0.4600 -0.5653 -0.4012
  708MOL0     C93384   9.018   0.172   8.444 -0.8023  0.0372  0.4701
  708MOL0     C93385   9.083   0.209   8.585 -0.2477 -0.4361 -0.1750
  708MOL0     C93386   9.242   0.199   8.589 -0.4700 -0.1690  0.3336
  708MOL0     C93387   9.297   0.299   8.680  0.0182 -0.4423  0.2908
  708MOL0     C93388   9.354   0.377   8.750  0.2414 -0.1691  0.7042
  708MOL0     C93389   8.614   0.078   8.414 -0.3814 -0.8320 -0.3294
  708MOL0     C93390   8.474   0.070   8.385 -0.5543 -0.4028 -0.3968
  708MOL0     H93391   8.077   0.377   8.238  0.4661  0.7343  0.1922
  708MOL0     H93392   7.844   0.387   8.158 -3.6937 -0.7604  0.8738
  708MOL0     H93393   7.435   0.277   8.283 -0.8258 -3.0717 -1.2396
  708MOL0     H93394   7.527   0.288   8.422  0.8195  1.2676 -0.7204
  708MOL0     H93395   7.466   0.049   8.389  1.4162 -1.2260  0.0148
  708MOL0     H93396   7.631   0.046   8.331 -1.2504 -0.0989  2.5886
  708MOL0     H93397   7.509  -0.065   8.143 -1.5552 -0.4294 -1.1197
  708MOL0     H93398   7.535   0.086   8.080  0.2143  2.8855  0.3329
  708MOL0     H93399   7.286   0.024   8.251  0.8842  3.7799  1.7019
  708MOL0     H93400   7.309   0.173   8.152  1.3737  1.3345  0.3821
  708MOL0     H93401   7.299  -0.113   8.051 -2.8424  0.3159  1.9812
  708MOL0     H93402   7.334   0.047   7.966  2.9583  1.0908  1.2840
  708MOL0     H93403   7.113  -0.015   7.910  1.2324 -0.7372 -0.0976
  708MOL0     H93404   7.089   0.095   8.043  2.8418  0.4977 -0.9659
  708MOL0     H93405   7.069  -0.208   8.037 -0.3439 -2.1624  3.5455
  708MOL0     H93406   7.112  -0.133   8.190  0.4179 -0.9680 -0.2994
  708MOL0     H93407   6.869  -0.052   8.033  0.7778 -1.7888 -2.3031
  708MOL0     H93408   6.921   0.014   8.189 -1.1297 -0.7011  0.2123
  708MOL0     H93409   6.826  -0.351   8.060  1.8959 -0.5859 -0.1105
  708MOL0     H93410   6.696  -0.561   8.326  0.3619  2.0278  4.1936
  708MOL0     H93411   6.609  -0.493   8.179 -4.0883  1.1773  1.5704
  708MOL0     H93412   6.486  -0.346   8.328  1.0440  1.4344  2.2201
  708MOL0     H93413   6.562  -0.423   8.468 -1.8212  2.1994  0.8705
  708MOL0     H93414   6.409  -0.570   8.249 -1.5094  0.1736 -0.4579
  708MOL0     H93415   6.471  -0.647   8.400  4.9209  1.4513 -1.9150
  708MOL0     H93416   6.250  -0.432   8.391  0.1099  0.0416 -0.6443
  708MOL0     H93417   6.331  -0.496   8.542  0.2977 -0.5346  0.4687
  708MOL0     H93418   6.102  -0.859   8.360  2.2084  0.0700 -0.8867
  708MOL0     H93419   5.885  -0.888   8.320  0.5636 -0.5627  1.4096
  708MOL0     H93420   5.519  -0.658   8.058  1.1760 -1.2981  0.5454
  708MOL0     H93421   5.289  -0.695   7.993 -1.6108  1.4635  1.0153
  708MOL0     H93422   5.048  -0.974   8.245 -1.2629  2.3057  0.1006
  708MOL0     H93423   5.099  -1.086   8.134 -0.2547 -1.4387  1.5186
  708MOL0     H93424   4.915  -0.979   7.962 -1.7007  0.7549 -0.1046
  708MOL0     H93425   4.873  -0.892   8.112 -3.7928 -0.5538 -3.0224
  708MOL0     H93426   4.786  -1.067   8.231 -0.5717  1.0527 -0.8905
  708MOL0     H93427   4.857  -1.193   8.126 -1.8424 -1.3570 -0.5158
  708MOL0     H93428   4.675  -0.970   8.015 -2.2648 -1.4612 -0.9083
  708MOL0     H93429   4.723  -1.123   7.941  1.0850 -2.6114  0.2145
  708MOL0     H93430   4.564  -1.120   8.198  0.9034  1.7032 -0.1361
  708MOL0     H93431   4.612  -1.251   8.085  1.1025 -1.0743  2.9058
  708MOL0     H93432   4.459  -1.193   7.909 -3.2275  0.9427 -0.8261
  708MOL0     H93433   4.417  -1.048   7.989  1.6859 -0.1134 -1.8393
  708MOL0     H93434   4.384  -1.330   8.078  1.0188 -0.1835 -1.2191
  708MOL0     H93435   4.332  -1.182   8.169 -2.3796  1.8727 -1.0982
  708MOL0     H93436   4.144  -1.301   8.025 -0.7850 -0.6149 -1.7677
  708MOL0     H93437   4.231  -1.234   7.888 -1.7826 -0.7168  0.2623
  708MOL0     H93438   5.279  -1.054   8.238 -2.6965  0.9635  1.4850
  708MOL0     H93439   5.507  -0.997   8.321  0.6860  2.6053  1.5611
  708MOL0     H93440   5.803  -0.465   8.391  2.5161  1.3338  1.3044
  708MOL0     H93441   6.050  -0.438   8.423 -1.5794  1.0411 -1.1434
  708MOL0     H93442   7.716   0.169   8.492 -0.1750  0.2342  0.8264
  708MOL0     H93443   7.949   0.143   8.576  0.3947 -0.7614 -0.5638
  708MOL0     H93444   8.383   0.380   8.490 -0.2372  0.2470 -2.7540
  708MOL0     H93445   8.612   0.386   8.559 -0.4287  0.6664 -0.3530
  708MOL0     H93446   8.876   0.321   8.398 -2.7413 -0.5688 -1.0068
  708MOL0     H93447   8.824   0.163   8.335  0.2107 -0.4765 -0.8588
  708MOL0     H93448   9.035   0.064   8.433  0.3811  0.0779  1.6627
  708MOL0     H93449   9.074   0.219   8.362 -0.0399 -2.9384 -0.8510
  708MOL0     H93450   9.041   0.127   8.644 -3.6085 -0.6839 -2.6220
  708MOL0     H93451   9.047   0.311   8.603 -1.1298 -0.2546 -2.5736
  708MOL0     H93452   9.277   0.099   8.613  1.5532  0.8368  1.9115
  708MOL0     H93453   9.275   0.222   8.487 -2.1228 -1.7510 -0.6186
  708MOL0     H93454   9.405   0.443   8.817 -1.0400  1.2374  0.3333
  708MOL0     H93455   8.678  -0.003   8.381  0.7382 -0.0015 -0.2509
  708MOL0     H93456   8.449  -0.026   8.342 -0.0790 -0.0983 -1.3710
  709MOL0     O93457   5.396   6.567   5.417  0.0100 -0.3605  0.7999
  709MOL0     C93458   5.413   6.595   5.302 -0.5488 -0.3351  0.3082
  709MOL0     O93459   5.312   6.612   5.213  0.1157 -0.3653 -0.0914
  709MOL0     C93460   5.183   6.594   5.260  0.2075 -0.5948  0.2235
  709MOL0     C93461   5.126   6.686   5.337 -0.5814 -0.8435 -0.5447
  709MOL0     C93462   4.991   6.687   5.366  0.0660  0.2642 -0.6748
  709MOL0     C93463   4.905   6.585   5.323  0.1193 -0.2482 -0.4349
  709MOL0     O93464   4.772   6.575   5.372  0.2547  0.2692  0.8623
  709MOL0     C93465   4.729   6.683   5.453 -0.2640 -0.2939 -0.5402
  709MOL0     C93466   4.578   6.685   5.477 -0.1721  0.3147 -0.0549
  709MOL0     C93467   4.504   6.720   5.351 -0.3376  0.0306  0.4041
  709MOL0     C93468   4.349   6.720   5.374 -0.4043 -0.5079 -0.2553
  709MOL0     C93469   4.273   6.822   5.306  0.4882 -0.3360  0.2805
  709MOL0     C93470   4.281   6.815   5.157 -0.6624 -0.4285  0.1462
  709MOL0     C93471   4.193   6.915   5.088  1.2398 -0.5600 -0.4363
  709MOL0     C93472   4.226   6.946   4.940  0.2760 -0.0502  0.1171
  709MOL0     N93473   4.128   7.028   4.865 -0.3310 -0.0873  0.0555
  709MOL0     C93474   3.994   7.021   4.859  0.5763 -0.1646 -0.1035
  709MOL0     C93475   3.947   7.119   4.784 -0.1013  0.3875  0.2216
  709MOL0     C93476   3.805   7.142   4.749  0.3077  0.4788 -0.2718
  709MOL0     C93477   3.770   7.245   4.645  0.0141 -0.4602 -0.0447
  709MOL0     C93478   3.619   7.264   4.607 -0.4348  0.0452  0.4717
  709MOL0     C93479   3.547   7.328   4.727  0.0135  0.1096 -0.1888
  709MOL0     O93480   3.400   7.343   4.707 -0.8268  0.7857 -0.5458
  709MOL0     C93481   3.318   7.247   4.765  0.1006 -0.0746 -0.0294
  709MOL0     C93482   3.356   7.131   4.831  0.1412  0.3894  0.2117
  709MOL0     C93483   3.262   7.034   4.879 -0.2649  0.2848 -0.0573
  709MOL0     C93484   3.125   7.041   4.843 -0.1017  0.8610 -0.1465
  709MOL0     C93485   3.025   6.928   4.865  0.3246  1.5114  0.1154
  709MOL0     O93486   2.893   6.941   4.833 -0.0676  0.0059 -0.1686
  709MOL0     C93487   2.790   6.847   4.860 -0.3037 -0.1982  1.2097
  709MOL0     C93488   2.673   6.862   4.792  1.0422  0.5659  0.3136
  709MOL0     C93489   2.561   6.791   4.824 -0.6210 -0.5003  0.5244
  709MOL0     C93490   2.571   6.688   4.915 -0.0546  0.5759 -0.3761
  709MOL0     O93491   2.458   6.618   4.949  0.2691  0.0839 -0.2697
  709MOL0     C93492   2.378   6.552   4.846  0.0194 -0.1117  0.7770
  709MOL0     C93493   2.280   6.444   4.899 -0.4694  0.4130 -0.4384
  709MOL0     C93494   2.209   6.376   4.777 -0.6803 -0.2747 -0.5243
  709MOL0     C93495   2.091   6.292   4.818  0.6035 -0.1048 -0.0533
  709MOL0     C93496   1.964   6.367   4.837  0.7983 -0.1031 -0.6237
  709MOL0     C93497   1.839   6.282   4.881  0.5662  0.7248  0.0835
  709MOL0     C93498   1.707   6.355   4.841 -0.0388  0.2413 -0.6656
  709MOL0     C93499   1.591   6.262   4.839  0.6713 -0.1100  1.2072
  709MOL0    Cl93500   1.586   6.164   4.999  0.3853 -0.9105  0.0580
  709MOL0     C93501   2.688   6.675   4.988 -0.6895  1.4976  0.2939
  709MOL0     C93502   2.796   6.748   4.957 -0.2935  0.2265 -0.2360
  709MOL0     O93503   3.079   6.827   4.911  0.6392  0.3721  0.1957
  709MOL0     C93504   3.087   7.162   4.785  0.9612  0.6515  1.3023
  709MOL0     C93505   3.178   7.261   4.751 -0.9073  0.4514  0.0153
  709MOL0     N93506   4.054   7.192   4.741 -0.1359 -0.0764  0.2114
  709MOL0     N93507   4.158   7.148   4.805  0.2502  0.8512  0.2375
  709MOL0     C93508   4.952   6.494   5.233  0.3717  0.3977  0.7786
  709MOL0     C93509   5.091   6.496   5.205 -0.0398 -0.0737  0.0362
  709MOL0     C93510   5.558   6.599   5.256  0.3166  0.2628  0.3202
  709MOL0     C93511   5.579   6.613   5.117  0.3650 -0.1752  0.6222
  709MOL0     C93512   5.708   6.642   5.071  0.4175 -0.4572 -0.0705
  709MOL0     C93513   5.817   6.661   5.155  1.0537  0.5797 -0.3018
  709MOL0     O93514   5.945   6.690   5.119  0.3861 -0.1861  0.0319
  709MOL0     C93515   5.950   6.803   5.035  0.6873  0.6954  0.3536
  709MOL0     C93516   6.068   6.898   5.059  0.2734  0.0012 -0.4139
  709MOL0     C93517   6.199   6.832   5.040  0.3192 -0.2184  0.0941
  709MOL0     C93518   6.296   6.941   5.047 -0.3571  0.0184  0.2767
  709MOL0     C93519   6.435   6.886   5.065 -0.8724 -0.2654  0.0613
  709MOL0     C93520   6.551   6.840   5.060 -0.2536  0.3306  0.9795
  709MOL0     C93521   5.794   6.652   5.291  0.2824  1.4037 -0.2572
  709MOL0     C93522   5.667   6.621   5.342 -0.4278 -0.0753 -0.9310
  709MOL0     H93523   5.169   6.778   5.374 -2.7899  0.2797 -0.5627
  709MOL0     H93524   4.971   6.773   5.430  0.9113  0.4531 -0.6609
  709MOL0     H93525   4.757   6.778   5.407  0.0066  0.6452  1.4422
  709MOL0     H93526   4.781   6.675   5.549  0.3007 -3.5996 -1.0086
  709MOL0     H93527   4.544   6.747   5.560 -1.6710 -1.0843  0.4266
  709MOL0     H93528   4.548   6.586   5.511  0.9775  0.4675  1.4805
  709MOL0     H93529   4.532   6.667   5.259  2.2221  1.0224  0.5343
  709MOL0     H93530   4.530   6.825   5.336  2.2093 -0.9027 -2.9720
  709MOL0     H93531   4.315   6.621   5.341 -1.8619  0.5759 -2.2324
  709MOL0     H93532   4.334   6.731   5.482  0.2051  2.0871 -0.3692
  709MOL0     H93533   4.315   6.915   5.346 -0.6255 -0.5743  2.0792
  709MOL0     H93534   4.167   6.821   5.333  0.5403  1.4591  0.7083
  709MOL0     H93535   4.254   6.714   5.124  1.5088 -0.9592 -0.1506
  709MOL0     H93536   4.380   6.855   5.133  0.1727 -1.8481  1.0522
  709MOL0     H93537   4.086   6.894   5.095  0.8895  1.4759  1.9371
  709MOL0     H93538   4.200   7.010   5.141  0.2676 -1.6734  1.7973
  709MOL0     H93539   4.231   6.852   4.885  1.0809 -0.3191  0.6261
  709MOL0     H93540   4.326   6.989   4.931  0.4094 -0.3814 -0.0127
  709MOL0     H93541   3.933   6.950   4.914  1.9601 -0.7343  0.7484
  709MOL0     H93542   3.757   7.151   4.846 -0.7916  0.8546 -0.8347
  709MOL0     H93543   3.757   7.054   4.706 -0.3299  1.5913 -1.9418
  709MOL0     H93544   3.817   7.212   4.551 -0.2030 -0.5456 -0.1251
  709MOL0     H93545   3.813   7.342   4.671  2.9578 -1.6822  0.0722
  709MOL0     H93546   3.591   7.314   4.513  2.3478  3.4001  1.2236
  709MOL0     H93547   3.581   7.162   4.600  1.6858 -0.7154 -1.7151
  709MOL0     H93548   3.578   7.433   4.739  0.8206 -0.1992  0.5241
  709MOL0     H93549   3.577   7.276   4.818  0.2786 -0.6682 -0.7098
  709MOL0     H93550   3.462   7.109   4.842 -0.1849 -1.7556 -0.5053
  709MOL0     H93551   3.305   6.942   4.917  0.2873  1.0678  1.2590
  709MOL0     H93552   2.654   6.941   4.720  1.6310  0.7047  0.3079
  709MOL0     H93553   2.467   6.811   4.773 -2.7843 -1.2628  3.9163
  709MOL0     H93554   2.450   6.503   4.780 -1.5829 -0.8249 -0.5437
  709MOL0     H93555   2.338   6.627   4.777 -1.5681 -2.4873 -1.0348
  709MOL0     H93556   2.204   6.505   4.949 -0.1678 -0.8167  1.6025
  709MOL0     H93557   2.328   6.382   4.974  1.8282  1.8830 -0.6085
  709MOL0     H93558   2.279   6.308   4.727 -2.1225 -0.7462 -1.9930
  709MOL0     H93559   2.181   6.444   4.696  0.4949 -1.0289 -1.5920
  709MOL0     H93560   2.086   6.215   4.740  0.5869  0.1965 -0.3515
  709MOL0     H93561   2.115   6.234   4.907  0.5681 -1.7846 -1.0846
  709MOL0     H93562   1.937   6.420   4.745 -2.6074 -1.5394 -0.6071
  709MOL0     H93563   1.985   6.433   4.922 -1.3995 -1.4496  1.0829
  709MOL0     H93564   1.838   6.271   4.990 -1.2001  2.4156  0.2957
  709MOL0     H93565   1.839   6.180   4.842 -1.4718  0.7776 -0.1994
  709MOL0     H93566   1.690   6.428   4.920 -1.5169 -0.7989  0.0119
  709MOL0     H93567   1.711   6.421   4.754 -2.0550 -0.2493 -1.1798
  709MOL0     H93568   1.587   6.192   4.755 -0.4477  3.0625 -1.5756
  709MOL0     H93569   1.500   6.323   4.834  1.4354  1.1371  2.0095
  709MOL0     H93570   2.689   6.592   5.058 -0.6278 -1.3364 -2.8141
  709MOL0     H93571   2.872   6.735   5.034 -1.4724 -2.4392  0.5918
  709MOL0     H93572   2.983   7.185   4.766  1.1033  1.3556  1.3479
  709MOL0     H93573   3.149   7.359   4.713  2.9212  1.4462 -0.7461
  709MOL0     H93574   4.888   6.421   5.185  0.9730  2.2738 -3.3016
  709MOL0     H93575   5.133   6.423   5.137  0.7222  0.7073 -0.3506
  709MOL0     H93576   5.506   6.599   5.038 -0.9761 -3.9231  2.2787
  709MOL0     H93577   5.729   6.650   4.965 -0.1137 -0.6664 -0.1959
  709MOL0     H93578   5.853   6.854   5.036  0.6492  0.6235  0.8058
  709MOL0     H93579   5.963   6.766   4.933  1.5758 -0.5955  0.8999
  709MOL0     H93580   6.075   6.977   4.983  3.0209  0.2364 -0.0449
  709MOL0     H93581   6.054   6.938   5.159 -0.9575  1.1223 -1.0007
  709MOL0     H93582   6.206   6.793   4.938 -2.5616  0.2741 -0.3683
  709MOL0     H93583   6.215   6.764   5.124  0.9354  0.8516  0.8644
  709MOL0     H93584   6.306   7.013   4.964 -0.2861 -0.8538 -0.4842
  709MOL0     H93585   6.282   6.996   5.140  0.4650 -0.8463  0.9342
  709MOL0     H93586   6.650   6.801   5.057 -1.1333 -2.0943  1.3489
  709MOL0     H93587   5.879   6.666   5.357  0.1855 -0.1409  0.2474
  709MOL0     H93588   5.656   6.608   5.450  0.4610  0.3496 -0.7811
  710MOL0     O93589   1.404   1.583   7.906 -0.1880 -0.1385  0.3385
  710MOL0     C93590   1.466   1.580   8.009 -0.0631  0.4176 -0.0227
  710MOL0     O93591   1.415   1.601   8.131  0.0164 -0.1566  0.6135
  710MOL0     C93592   1.281   1.629   8.134  0.0427 -0.4288 -0.2181
  710MOL0     C93593   1.199   1.553   8.208  0.4434 -0.0563 -0.6294
  710MOL0     C93594   1.065   1.596   8.225  0.3098  0.8017  0.8221
  710MOL0     C93595   1.026   1.709   8.153  0.4056 -0.2016 -0.8351
  710MOL0     O93596   0.891   1.750   8.155 -1.4868  0.0670  0.4778
  710MOL0     C93597   0.796   1.721   8.260  0.1184  0.2176  0.1656
  710MOL0     C93598   0.764   1.857   8.323 -1.3603 -0.2662  0.9761
  710MOL0     C93599   0.640   1.845   8.400  0.2725 -0.3284 -0.5389
  710MOL0     C93600   0.587   1.978   8.445  0.9649 -0.4709 -0.0827
  710MOL0     C93601   0.452   1.974   8.515 -0.3254  0.2131 -0.1933
  710MOL0     C93602   0.454   1.901   8.648 -0.1757 -0.2586  0.3734
  710MOL0     C93603   0.311   1.873   8.710 -0.5995 -0.2199 -0.6435
  710MOL0     C93604   0.247   2.003   8.740 -0.1551 -0.5869 -1.0450
  710MOL0     N93605   0.126   1.995   8.826 -0.8079  1.0497 -0.2634
  710MOL0     C93606   0.046   2.107   8.847  1.1652 -0.2891 -0.5277
  710MOL0     C93607  -0.061   2.051   8.914 -0.7676 -0.3822 -1.4124
  710MOL0     C93608  -0.160   2.150   8.973 -0.1552  0.2936 -1.1231
  710MOL0     C93609  -0.248   2.078   9.084 -0.4126 -0.1294  0.0502
  710MOL0     C93610  -0.379   2.153   9.117  1.0435 -0.2945 -0.8100
  710MOL0     C93611  -0.451   2.101   9.244 -0.0958  0.2179  0.0544
  710MOL0     O93612  -0.542   2.203   9.294  0.0144  1.0358 -0.2860
  710MOL0     C93613  -0.614   2.190   9.406  0.2978 -0.9195 -0.1056
  710MOL0     C93614  -0.686   2.296   9.457 -0.1826  0.6357 -0.0645
  710MOL0     C93615  -0.772   2.281   9.568 -0.1867  0.4590 -0.0325
  710MOL0     C93616  -0.791   2.156   9.630  0.8235 -0.3636 -0.3499
  710MOL0     C93617  -0.892   2.146   9.735 -0.1778 -0.9237 -0.2835
  710MOL0     O93618  -1.001   2.230   9.724  0.7009  0.2585  0.1821
  710MOL0     C93619  -1.101   2.246   9.819 -0.4766 -0.5003 -0.0469
  710MOL0     C93620  -1.178   2.129   9.844  0.7192  0.7012  0.9200
  710MOL0     C93621  -1.288   2.135   9.931  0.5863 -0.3229 -0.2936
  710MOL0     C93622  -1.315   2.254  10.005  0.0971  0.9672 -1.0201
  710MOL0     O93623  -1.420   2.275  10.092  0.2351 -0.0273 -0.8111
  710MOL0     C93624  -1.502   2.158  10.130  0.7123  0.9519  0.4619
  710MOL0     C93625  -1.564   2.175  10.267 -0.2525 -0.2608 -0.8209
  710MOL0     C93626  -1.624   2.038  10.320  0.6728  0.4141 -0.3607
  710MOL0     C93627  -1.695   2.057  10.453 -0.8289  0.5255  0.2720
  710MOL0     C93628  -1.769   1.935  10.513  0.6237 -0.3287 -0.1941
  710MOL0     C93629  -1.674   1.809  10.553  0.1962 -0.4410  1.4758
  710MOL0     C93630  -1.612   1.845  10.686 -0.8050 -0.0011 -0.3457
  710MOL0     C93631  -1.516   1.735  10.728 -1.2939  0.1786 -0.9890
  710MOL0    Cl93632  -1.398   1.697  10.599 -0.5291 -0.1604  0.0970
  710MOL0     C93633  -1.245   2.371   9.977 -0.3670 -0.3738  0.5297
  710MOL0     C93634  -1.139   2.367   9.881 -0.0817 -0.0151  0.2815
  710MOL0     O93635  -0.869   2.070   9.828  0.5962  1.0867 -0.5345
  710MOL0     C93636  -0.713   2.051   9.585 -0.4365 -0.2045 -0.1067
  710MOL0     C93637  -0.626   2.067   9.476 -0.3933 -0.2939 -0.4849
  710MOL0     N93638  -0.056   1.917   8.928  0.7927  0.4760 -0.2805
  710MOL0     N93639   0.068   1.884   8.889  0.6058  0.1693 -0.5856
  710MOL0     C93640   1.111   1.792   8.089  0.2077  0.1549 -0.9057
  710MOL0     C93641   1.244   1.753   8.082 -0.5458  0.1728  0.1698
  710MOL0     C93642   1.614   1.538   7.990 -0.0610  0.1084 -0.0788
  710MOL0     C93643   1.683   1.534   8.113 -0.1190  0.3755 -0.0819
  710MOL0     C93644   1.814   1.482   8.114  0.1133 -0.6819  0.0574
  710MOL0     C93645   1.871   1.433   7.995 -0.0873  0.1667 -0.8805
  710MOL0     O93646   1.989   1.359   7.995  0.1441  0.6468 -0.5687
  710MOL0     C93647   2.055   1.327   8.119  0.5614  0.0326  0.3756
  710MOL0     C93648   2.163   1.226   8.078 -1.5918  0.9637  0.0982
  710MOL0     C93649   2.286   1.298   8.009 -0.6320  0.3001  0.3707
  710MOL0     C93650   2.415   1.207   7.988 -0.2559 -0.3557 -1.1429
  710MOL0     C93651   2.523   1.225   8.086  0.0497 -0.8235  0.1056
  710MOL0     C93652   2.610   1.242   8.172  1.3679  0.1567 -0.7420
  710MOL0     C93653   1.797   1.443   7.870  0.1586 -0.4639 -0.2484
  710MOL0     C93654   1.669   1.493   7.873 -0.0466  0.6224 -0.6007
  710MOL0     H93655   1.240   1.469   8.263  2.3745  1.1349 -0.1575
  710MOL0     H93656   1.000   1.540   8.292  2.3774 -1.4579  1.0849
  710MOL0     H93657   0.831   1.647   8.332  0.7595 -0.3919 -0.7481
  710MOL0     H93658   0.705   1.676   8.221 -0.4264  0.1534  1.4733
  710MOL0     H93659   0.756   1.933   8.244 -1.4464  0.5601  1.7682
  710MOL0     H93660   0.845   1.895   8.386 -1.3595  0.7367  0.4048
  710MOL0     H93661   0.676   1.782   8.482 -1.4735 -0.9278 -0.1955
  710MOL0     H93662   0.560   1.797   8.342 -1.5952  1.1878  0.6675
  710MOL0     H93663   0.662   2.022   8.511 -0.5733  0.1456  1.3124
  710MOL0     H93664   0.574   2.047   8.361  0.6129  1.1011  1.2133
  710MOL0     H93665   0.382   1.938   8.439  0.2326  1.6888 -1.4603
  710MOL0     H93666   0.415   2.074   8.540  2.2214  1.1273  0.1620
  710MOL0     H93667   0.520   1.954   8.718 -2.8162  1.0417  2.0626
  710MOL0     H93668   0.499   1.803   8.633  1.5336  0.5003  0.4090
  710MOL0     H93669   0.248   1.826   8.635 -0.5593  0.7856 -1.3296
  710MOL0     H93670   0.312   1.796   8.787 -1.6842 -0.2725 -0.6746
  710MOL0     H93671   0.209   2.047   8.647  1.0205  2.1030 -0.3377
  710MOL0     H93672   0.316   2.077   8.782 -0.7478 -0.1358 -0.8534
  710MOL0     H93673   0.065   2.210   8.818 -1.1695  0.4816  0.4038
  710MOL0     H93674  -0.223   2.191   8.893 -0.3898  0.7978 -0.6891
  710MOL0     H93675  -0.102   2.233   9.015 -1.3310  1.1350 -1.1016
  710MOL0     H93676  -0.193   2.060   9.177 -0.6060  1.7343  0.5487
  710MOL0     H93677  -0.284   1.983   9.043 -2.3418  1.6175 -2.5863
  710MOL0     H93678  -0.356   2.258   9.139  2.6319 -0.6954 -0.4231
  710MOL0     H93679  -0.443   2.152   9.028 -1.5089  3.1124  0.7373
  710MOL0     H93680  -0.370   2.083   9.316 -0.2334  0.9979  0.4204
  710MOL0     H93681  -0.504   2.009   9.218  0.7332 -0.6526  1.2884
  710MOL0     H93682  -0.665   2.397   9.424  0.3845  1.6757  3.0736
  710MOL0     H93683  -0.808   2.373   9.612  1.2732  0.9288  0.2548
  710MOL0     H93684  -1.155   2.041   9.785 -1.1627  1.3285 -0.8422
  710MOL0     H93685  -1.349   2.046   9.945 -0.1478  0.1958 -0.1103
  710MOL0     H93686  -1.432   2.073  10.137  1.3430  1.3542 -0.6624
  710MOL0     H93687  -1.586   2.133  10.066  0.4534  1.1817  0.7103
  710MOL0     H93688  -1.638   2.255  10.261 -0.9232 -0.6649  1.2186
  710MOL0     H93689  -1.487   2.216  10.332 -0.4612  1.8579 -1.8185
  710MOL0     H93690  -1.541   1.971  10.343  1.2880  1.0519 -0.6759
  710MOL0     H93691  -1.692   2.002  10.242  0.9049 -0.9797  0.0556
  710MOL0     H93692  -1.612   2.092  10.515  0.3141 -1.1295 -0.2625
  710MOL0     H93693  -1.771   2.135  10.440 -2.7504 -1.5550 -2.0249
  710MOL0     H93694  -1.843   1.904  10.438  4.1423 -2.5858 -3.0567
  710MOL0     H93695  -1.827   1.959  10.603 -0.4161 -0.8774 -0.6996
  710MOL0     H93696  -1.605   1.790  10.470  0.5513  1.4470  1.2918
  710MOL0     H93697  -1.733   1.717  10.558 -1.4547  0.3576 -1.0723
  710MOL0     H93698  -1.558   1.940  10.674 -1.6250  0.3930 -0.9610
  710MOL0     H93699  -1.684   1.863  10.766  0.7988 -1.4793  1.5695
  710MOL0     H93700  -1.565   1.642  10.757 -0.5255  0.4464  1.3500
  710MOL0     H93701  -1.464   1.771  10.817 -0.9973  0.6931 -1.3635
  710MOL0     H93702  -1.257   2.463  10.034 -2.7904 -0.5056  0.3320
  710MOL0     H93703  -1.069   2.447   9.857  2.4776 -1.7937  1.3660
  710MOL0     H93704  -0.711   1.965   9.650 -1.2535  0.0568  0.2745
  710MOL0     H93705  -0.573   1.977   9.446  0.0074 -0.0568 -0.4889
  710MOL0     H93706   1.076   1.885   8.045 -1.1954 -0.7978 -1.8652
  710MOL0     H93707   1.322   1.816   8.040  0.4597 -0.6332  0.8010
  710MOL0     H93708   1.640   1.579   8.202 -4.1303  0.9208 -2.0259
  710MOL0     H93709   1.877   1.476   8.203  2.5262  0.1195 -1.5040
  710MOL0     H93710   1.988   1.276   8.189 -0.4860 -0.5606 -1.0176
  710MOL0     H93711   2.100   1.421   8.151  0.2869  0.2177  0.2249
  710MOL0     H93712   2.196   1.170   8.166  2.4387  0.0511 -1.7568
  710MOL0     H93713   2.124   1.153   8.007  2.0208  1.6168 -2.8259
  710MOL0     H93714   2.305   1.395   8.055  2.0565  1.1221 -2.1231
  710MOL0     H93715   2.253   1.326   7.908  2.2145 -0.9501 -1.0303
  710MOL0     H93716   2.383   1.102   7.985 -0.7960 -0.3887  2.0062
  710MOL0     H93717   2.454   1.237   7.890 -3.1354 -2.2870 -3.0415
  710MOL0     H93718   2.684   1.251   8.249  0.2802 -0.1282  0.3897
  710MOL0     H93719   1.855   1.413   7.783  0.8158  1.7605 -0.6407
  710MOL0     H93720   1.611   1.488   7.781 -1.8766 -0.8949  0.5610
  711MOL0     O93721   1.700  10.062   8.366  0.0557 -0.8672  0.4381
  711MOL0     C93722   1.741  10.106   8.253 -0.2080 -0.2869 -0.2314
  711MOL0     O93723   1.655  10.165   8.161  0.2534  0.6150 -0.2869
  711MOL0     C93724   1.520  10.181   8.171 -0.0198 -0.3570 -0.3173
  711MOL0     C93725   1.427  10.073   8.175  0.4079  0.4185  0.2224
  711MOL0     C93726   1.286  10.092   8.183  0.0478  0.7060  0.0491
  711MOL0     C93727   1.234  10.225   8.172 -0.3954  0.3450 -0.5081
  711MOL0     O93728   1.096  10.241   8.177 -0.5596 -0.7742  0.3148
  711MOL0     C93729   1.031  10.180   8.287  0.4052  0.0169  1.2257
  711MOL0     C93730   0.901  10.241   8.313 -0.0049  0.2408  0.6595
  711MOL0     C93731   0.839  10.164   8.423 -0.2432  0.4783 -0.4365
  711MOL0     C93732   0.701  10.214   8.460 -1.1574 -0.1882  0.2190
  711MOL0     C93733   0.589  10.118   8.393  0.3673 -0.8690 -0.5848
  711MOL0     C93734   0.551  10.184   8.252 -0.3698  0.6224  0.4159
  711MOL0     C93735   0.406  10.149   8.206  0.4537 -0.0691  0.1310
  711MOL0     C93736   0.362  10.174   8.058 -0.5676  0.1628  0.4555
  711MOL0     N93737   0.233  10.108   8.024 -0.1221 -0.1688 -0.0285
  711MOL0     C93738   0.120  10.190   8.011  0.0973  0.1917 -0.4609
  711MOL0     C93739   0.017  10.099   8.001 -0.4827 -0.6023 -0.3134
  711MOL0     C93740  -0.128  10.135   8.010  0.2233 -0.6097 -0.6893
  711MOL0     C93741  -0.170  10.121   8.158 -0.0818 -1.2824  0.0322
  711MOL0     C93742  -0.115  10.011   8.243  0.3889 -0.0873  0.7811
  711MOL0     C93743  -0.210   9.976   8.353  0.2600  0.2618 -0.2106
  711MOL0     O93744  -0.234  10.099   8.429  0.4883 -0.3653 -0.1936
  711MOL0     C93745  -0.334  10.081   8.526 -0.1097  0.6034  0.4610
  711MOL0     C93746  -0.363   9.958   8.589  0.5244  0.6391 -0.5367
  711MOL0     C93747  -0.480   9.950   8.673 -0.3356 -0.6590 -0.6084
  711MOL0     C93748  -0.560  10.061   8.701 -0.3984 -0.2762 -0.3984
  711MOL0     C93749  -0.675  10.062   8.789 -0.0946 -1.0669  0.7590
  711MOL0     O93750  -0.735  10.183   8.820  0.2826  0.0108 -0.3082
  711MOL0     C93751  -0.848  10.183   8.890  0.1519 -0.7184 -0.1335
  711MOL0     C93752  -0.841  10.222   9.022  0.9362  0.1016 -0.5415
  711MOL0     C93753  -0.961  10.225   9.101  0.4659 -0.8511  0.6224
  711MOL0     C93754  -1.077  10.165   9.055  0.8678  0.0687 -1.2030
  711MOL0     O93755  -1.189  10.154   9.139 -0.6384 -0.3189 -0.6839
  711MOL0     C93756  -1.168  10.150   9.278 -0.2238 -0.0815  0.0704
  711MOL0     C93757  -1.275  10.062   9.350 -0.5999  0.1194 -0.5113
  711MOL0     C93758  -1.415  10.108   9.320 -0.2607 -0.6199  0.1426
  711MOL0     C93759  -1.501  10.046   9.430  0.1453 -0.1739  0.0622
  711MOL0     C93760  -1.648  10.070   9.384 -0.1235  0.3364  0.4742
  711MOL0     C93761  -1.739  10.068   9.503 -0.2020  0.4833  0.0577
  711MOL0     C93762  -1.886  10.048   9.458  0.2110 -0.2391 -0.5414
  711MOL0     C93763  -1.977  10.032   9.580  0.1366 -0.7528 -0.3160
  711MOL0    Cl93764  -2.007  10.177   9.672  0.3806 -0.4267 -0.0043
  711MOL0     C93765  -1.079  10.124   8.920 -0.2313  0.6103  0.2176
  711MOL0     C93766  -0.966  10.136   8.836  0.5415 -0.1619  0.6713
  711MOL0     O93767  -0.714   9.952   8.816  0.0447 -0.3892  0.3432
  711MOL0     C93768  -0.514  10.181   8.646 -0.1304  0.3680 -0.4124
  711MOL0     C93769  -0.402  10.196   8.566 -0.2559 -1.2408  0.0382
  711MOL0     N93770   0.070   9.975   8.005  0.4571 -0.1864 -0.1271
  711MOL0     N93771   0.202   9.976   8.017  0.1690  0.1933  0.5903
  711MOL0     C93772   1.326  10.331   8.154  1.0759  0.3145  0.0438
  711MOL0     C93773   1.462  10.311   8.177 -0.1674  0.0698  0.1353
  711MOL0     C93774   1.888  10.129   8.251 -0.1037 -0.2133  0.0667
  711MOL0     C93775   1.955  10.190   8.137  0.2323 -0.3887 -1.6719
  711MOL0     C93776   2.092  10.211   8.133 -0.3025  0.0431  0.5530
  711MOL0     C93777   2.171  10.178   8.238  0.2809 -0.7193 -0.4570
  711MOL0     O93778   2.310  10.198   8.246 -0.1536  0.4428  0.5917
  711MOL0     C93779   2.383  10.260   8.138  0.6857 -0.1380  0.4750
  711MOL0     C93780   2.520  10.298   8.175 -0.4724 -0.4120 -0.5797
  711MOL0     C93781   2.590  10.190   8.260 -0.1301 -1.2712  0.3390
  711MOL0     C93782   2.736  10.216   8.280  1.1090  0.8846 -0.1846
  711MOL0     C93783   2.762  10.331   8.366 -0.1721 -0.9161  0.0889
  711MOL0     C93784   2.765  10.432   8.440 -0.5363 -0.3026  0.3385
  711MOL0     C93785   2.113  10.118   8.348  0.4356  0.2852 -0.6438
  711MOL0     C93786   1.976  10.094   8.358  0.1518 -0.6056 -0.1656
  711MOL0     H93787   1.462   9.970   8.173  0.5245  0.3928  1.8799
  711MOL0     H93788   1.226  10.002   8.193  0.6319  0.4361  1.2109
  711MOL0     H93789   1.093  10.179   8.377 -0.3113  0.1309  1.7267
  711MOL0     H93790   1.024  10.079   8.246 -0.3569  1.7762 -3.6316
  711MOL0     H93791   0.832  10.241   8.228 -2.0334 -0.4113  2.2202
  711MOL0     H93792   0.911  10.348   8.333  1.5441  0.2911 -0.2674
  711MOL0     H93793   0.906  10.162   8.509 -0.0369 -2.6568 -0.5698
  711MOL0     H93794   0.830  10.061   8.389 -0.7893 -0.5324  2.5422
  711MOL0     H93795   0.679  10.209   8.567 -0.9099  2.5048  0.4627
  711MOL0     H93796   0.685  10.317   8.427 -2.1674 -0.2348  0.5104
  711MOL0     H93797   0.511  10.124   8.469  0.3729  1.3070 -0.7111
  711MOL0     H93798   0.618  10.012   8.391 -0.0270 -1.0390  1.2006
  711MOL0     H93799   0.617  10.144   8.174 -1.1342 -0.5992  0.3703
  711MOL0     H93800   0.555  10.293   8.253 -2.0000  0.7013  1.3523
  711MOL0     H93801   0.375  10.045   8.223 -2.3504  1.1749  4.4008
  711MOL0     H93802   0.348  10.200   8.284  0.6678 -0.6729  0.7009
  711MOL0     H93803   0.442  10.139   7.992 -1.2661  1.0386 -0.8826
  711MOL0     H93804   0.349  10.281   8.037  0.3171 -0.2432 -2.5725
  711MOL0     H93805   0.097  10.296   8.022 -0.7241  0.0376 -0.6236
  711MOL0     H93806  -0.189  10.067   7.950 -2.0878  2.2535 -1.7989
  711MOL0     H93807  -0.149  10.236   7.973 -1.9794 -2.5367 -5.5891
  711MOL0     H93808  -0.278  10.108   8.162 -0.3140  0.6415  3.0192
  711MOL0     H93809  -0.153  10.216   8.209  1.4254 -0.4000 -1.9557
  711MOL0     H93810  -0.105   9.927   8.173  1.3828  1.9108 -1.5919
  711MOL0     H93811  -0.023  10.040   8.295  0.2030  1.6108  0.2197
  711MOL0     H93812  -0.160   9.901   8.415 -2.3119 -0.3372  1.2938
  711MOL0     H93813  -0.305   9.939   8.314  0.2505  0.4714 -0.3902
  711MOL0     H93814  -0.299   9.874   8.564  1.0834  1.3906 -1.7060
  711MOL0     H93815  -0.507   9.849   8.703 -1.4863 -0.1272  0.2390
  711MOL0     H93816  -0.749  10.260   9.064  1.6374  0.7391 -2.5589
  711MOL0     H93817  -0.957  10.259   9.204 -0.1877 -1.0856  0.7321
  711MOL0     H93818  -1.184  10.255   9.303 -4.7008 -0.2202 -1.2827
  711MOL0     H93819  -1.071  10.107   9.305 -0.4590 -0.0081  1.0756
  711MOL0     H93820  -1.256  10.075   9.457 -2.9988  0.2442 -0.0400
  711MOL0     H93821  -1.266   9.957   9.319  4.5832  0.3735 -0.6470
  711MOL0     H93822  -1.451  10.085   9.219  0.5651 -0.1969 -0.2603
  711MOL0     H93823  -1.417  10.217   9.329  1.6136 -0.6026  0.7503
  711MOL0     H93824  -1.467   9.945   9.455  0.2866 -0.2225 -0.3239
  711MOL0     H93825  -1.478  10.106   9.518 -0.8914 -2.4856  2.0338
  711MOL0     H93826  -1.682   9.992   9.315 -1.1448  0.2780  1.0159
  711MOL0     H93827  -1.650  10.175   9.352  1.0883  0.4495  0.7283
  711MOL0     H93828  -1.730  10.165   9.553 -2.0277  1.0640 -0.6607
  711MOL0     H93829  -1.706   9.993   9.576 -1.0637  1.5534  1.6145
  711MOL0     H93830  -1.923  10.127   9.392  1.8403  1.1885  0.1856
  711MOL0     H93831  -1.893   9.954   9.402 -0.0872 -0.8389  0.4584
  711MOL0     H93832  -1.928   9.960   9.647  2.0154  0.0921 -0.7175
  711MOL0     H93833  -2.075   9.999   9.545 -0.0185 -1.2725  0.5826
  711MOL0     H93834  -1.170  10.081   8.878 -1.3902  1.8992  1.3087
  711MOL0     H93835  -0.962  10.096   8.735 -1.3103 -1.5917  1.1115
  711MOL0     H93836  -0.558  10.275   8.675  0.8299  0.5212  0.6083
  711MOL0     H93837  -0.373  10.298   8.546 -1.7258 -0.0866  3.1191
  711MOL0     H93838   1.277  10.426   8.133 -5.7193 -2.4148  0.8947
  711MOL0     H93839   1.525  10.397   8.195  1.9593 -1.7837  2.2555
  711MOL0     H93840   1.901  10.220   8.048  2.1750  3.0489 -1.8529
  711MOL0     H93841   2.155  10.252   8.054  2.5806 -0.3240  2.4949
  711MOL0     H93842   2.331  10.354   8.118  1.8162  0.7402  1.4951
  711MOL0     H93843   2.380  10.185   8.059 -0.3479 -1.2695  1.5517
  711MOL0     H93844   2.581  10.322   8.087  2.0405 -1.4826  0.7972
  711MOL0     H93845   2.508  10.382   8.244 -0.8965 -0.5505 -0.4844
  711MOL0     H93846   2.582  10.088   8.220  1.4224 -1.8147  1.3169
  711MOL0     H93847   2.545  10.192   8.359  0.9898 -0.4763  0.8520
  711MOL0     H93848   2.779  10.121   8.314 -0.8100  0.2296  0.5875
  711MOL0     H93849   2.779  10.226   8.180  0.6375 -1.1631 -0.6387
  711MOL0     H93850   2.755  10.527   8.488 -0.3749 -0.9953  1.7903
  711MOL0     H93851   2.164  10.083   8.438 -1.5239 -0.0208  0.4009
  711MOL0     H93852   1.940  10.033   8.440  3.0437 -0.8441  1.0219
  712MOL0     O93853   3.584  10.433   3.045  0.9972 -0.0948  0.3825
  712MOL0     C93854   3.615  10.545   3.001  0.9375  0.1491  0.1507
  712MOL0     O93855   3.696  10.638   3.062  0.0806 -0.5306 -0.2001
  712MOL0     C93856   3.745  10.608   3.185  0.1373 -0.8280  0.1317
  712MOL0     C93857   3.879  10.614   3.211  0.6733  0.3484 -0.2015
  712MOL0     C93858   3.936  10.571   3.332  0.0413  0.1264  0.1223
  712MOL0     C93859   3.855  10.507   3.424 -1.2204 -0.5629 -0.1941
  712MOL0     O93860   3.910  10.458   3.535 -0.5435  0.6659 -0.1907
  712MOL0     C93861   3.841  10.467   3.657 -0.1290 -0.5668  0.6374
  712MOL0     C93862   3.924  10.439   3.782  0.5345 -0.4511 -0.0928
  712MOL0     C93863   3.963  10.287   3.787  0.3707 -0.2760  0.0382
  712MOL0     C93864   4.052  10.268   3.909  0.0990 -0.3959  1.1844
  712MOL0     C93865   3.969  10.254   4.033 -0.1777  0.1039  0.7032
  712MOL0     C93866   4.074  10.232   4.147  0.7028  0.8057 -0.4369
  712MOL0     C93867   4.010  10.178   4.274 -0.3148  0.7941 -0.8262
  712MOL0     C93868   4.111  10.195   4.392  0.0555  0.1038 -0.4587
  712MOL0     N93869   4.066  10.162   4.535 -0.0821  0.5333 -0.3415
  712MOL0     C93870   4.015  10.035   4.567  0.2442 -0.2541 -0.3191
  712MOL0     C93871   3.997  10.037   4.700  0.0980  0.2519 -0.2164
  712MOL0     C93872   3.975   9.931   4.805 -0.4330 -0.3631  0.4760
  712MOL0     C93873   3.836   9.896   4.829 -0.1419  0.1435  0.0171
  712MOL0     C93874   3.759  10.024   4.872 -0.0155 -0.1251 -0.0084
  712MOL0     C93875   3.626   9.982   4.919 -0.2150  0.0869 -0.1966
  712MOL0     O93876   3.546   9.913   4.829  0.4844  0.1389  0.3226
  712MOL0     C93877   3.412   9.903   4.855 -0.2334 -0.2125  0.0403
  712MOL0     C93878   3.354   9.927   4.983 -0.1368 -0.1810 -0.0891
  712MOL0     C93879   3.215   9.925   4.991 -0.1675  0.1630  0.1468
  712MOL0     C93880   3.134   9.890   4.882  1.2697  0.0188 -0.2695
  712MOL0     C93881   2.983   9.883   4.903 -0.4771  0.6740  0.0811
  712MOL0     O93882   2.945   9.911   5.037  0.4718  0.3070  0.3374
  712MOL0     C93883   2.813   9.893   5.066 -0.9145 -0.5605 -0.5798
  712MOL0     C93884   2.758   9.771   5.058 -1.2937  0.0765 -0.1406
  712MOL0     C93885   2.623   9.757   5.072 -0.6683  0.4286 -0.9493
  712MOL0     C93886   2.538   9.858   5.117  0.2779  0.0100  0.5536
  712MOL0     O93887   2.409   9.839   5.156 -0.4566 -0.4805 -0.2834
  712MOL0     C93888   2.365   9.706   5.184  0.2368 -0.6955 -0.1767
  712MOL0     C93889   2.231   9.713   5.265  0.1217  1.0246 -0.2705
  712MOL0     C93890   2.110   9.771   5.179  0.4615  0.1307 -0.3306
  712MOL0     C93891   1.976   9.796   5.251 -0.3899  0.2093  0.5164
  712MOL0     C93892   1.870   9.861   5.155  0.0504  0.1468  0.3122
  712MOL0     C93893   1.727   9.869   5.199  0.0431  0.1211  0.2647
  712MOL0     C93894   1.706   9.958   5.321  1.5881  0.6864  0.3632
  712MOL0     C93895   1.623   9.880   5.434  0.0808 -0.7089  0.7792
  712MOL0    Cl93896   1.461   9.826   5.368 -0.3481 -0.1441 -0.1455
  712MOL0     C93897   2.595   9.983   5.137 -0.1703 -0.2665 -0.3550
  712MOL0     C93898   2.733   9.997   5.106 -0.2075 -0.4473 -0.5806
  712MOL0     O93899   2.905   9.848   4.810  0.2857 -0.5079  0.3238
  712MOL0     C93900   3.191   9.852   4.760  0.5001 -0.5491 -0.0582
  712MOL0     C93901   3.332   9.863   4.750  0.5221  0.3819 -0.4804
  712MOL0     N93902   4.016  10.165   4.746  0.1015  0.4559  0.2230
  712MOL0     N93903   4.056  10.239   4.648 -0.9368 -0.4699  1.1828
  712MOL0     C93904   3.717  10.512   3.396 -0.7521  0.5659  0.9824
  712MOL0     C93905   3.655  10.563   3.284 -0.3863 -0.3139  0.7447
  712MOL0     C93906   3.531  10.581   2.884 -0.0873 -0.9811 -0.8640
  712MOL0     C93907   3.396  10.556   2.878 -0.0447  0.7671 -0.8334
  712MOL0     C93908   3.321  10.571   2.768 -0.1452 -0.3219  0.1922
  712MOL0     C93909   3.380  10.626   2.649 -0.1697 -0.9347 -0.0186
  712MOL0     O93910   3.324  10.629   2.522  0.9363 -0.2693 -0.2569
  712MOL0     C93911   3.178  10.639   2.511  0.1079 -0.0822  0.5978
  712MOL0     C93912   3.153  10.598   2.369 -0.3666  0.2586 -0.5332
  712MOL0     C93913   3.002  10.622   2.344  0.0917 -0.3158 -0.3688
  712MOL0     C93914   2.958  10.579   2.201  0.1415 -0.4370  0.4001
  712MOL0     C93915   3.001  10.671   2.095  0.4612  0.3438  0.5645
  712MOL0     C93916   3.055  10.736   2.007  0.0696  0.3852  0.5719
  712MOL0     C93917   3.511  10.664   2.661  0.3377 -0.0017 -0.6254
  712MOL0     C93918   3.586  10.647   2.776  0.2059  0.1794  0.1100
  712MOL0     H93919   3.941  10.647   3.129 -1.3266  0.3816 -1.7769
  712MOL0     H93920   4.040  10.566   3.364  1.4913 -3.1551 -4.1684
  712MOL0     H93921   3.758  10.395   3.663  0.7588 -1.5510  1.7414
  712MOL0     H93922   3.804  10.569   3.663 -0.4627 -0.6540  0.0825
  712MOL0     H93923   3.867  10.473   3.868  0.6536  0.0399 -0.2035
  712MOL0     H93924   4.015  10.500   3.774  1.6877 -2.2101 -0.9947
  712MOL0     H93925   4.013  10.246   3.699  1.0511 -1.5134  0.9590
  712MOL0     H93926   3.882  10.214   3.779 -0.7264  0.3616  3.4917
  712MOL0     H93927   4.102  10.171   3.898 -3.0857 -2.1639  1.0914
  712MOL0     H93928   4.129  10.346   3.905 -1.2771  1.0941  2.5398
  712MOL0     H93929   3.898  10.171   4.035  0.7286 -0.6896  2.5524
  712MOL0     H93930   3.914  10.339   4.076 -0.4548 -0.7661  2.1563
  712MOL0     H93931   4.117  10.329   4.172 -0.7225  0.7255  2.7305
  712MOL0     H93932   4.165  10.179   4.115  0.6744 -0.8596  1.9647
  712MOL0     H93933   3.917  10.231   4.296 -0.0881  1.2010 -0.8265
  712MOL0     H93934   3.985  10.073   4.257 -1.9610  1.2495 -1.4038
  712MOL0     H93935   4.142  10.300   4.394  1.6715 -0.2232 -3.2757
  712MOL0     H93936   4.203  10.142   4.364 -1.5448 -1.8972 -2.2155
  712MOL0     H93937   3.996   9.956   4.496 -0.9997  1.3125 -1.8113
  712MOL0     H93938   4.015   9.972   4.898  0.1126  3.2175 -1.1376
  712MOL0     H93939   4.028   9.839   4.780  1.9680  0.9797  0.3045
  712MOL0     H93940   3.838   9.820   4.908 -3.0455 -0.5528 -0.4746
  712MOL0     H93941   3.786   9.855   4.741 -0.9162  0.2641  0.3933
  712MOL0     H93942   3.810  10.084   4.947 -1.0703  0.7698  0.0253
  712MOL0     H93943   3.741  10.094   4.789  0.6004  2.4016  1.8830
  712MOL0     H93944   3.561  10.067   4.943 -1.8879 -0.2247 -3.1585
  712MOL0     H93945   3.641   9.921   5.009 -1.1477 -4.1893 -2.6685
  712MOL0     H93946   3.419   9.945   5.068 -1.6075  0.5138  0.9522
  712MOL0     H93947   3.167   9.959   5.082 -0.2708  1.6062 -0.4258
  712MOL0     H93948   2.827   9.688   5.046 -1.2479 -0.3862  2.6776
  712MOL0     H93949   2.607   9.650   5.083  0.6595  0.1609 -1.4170
  712MOL0     H93950   2.440   9.655   5.246  0.9319  0.4282 -0.0634
  712MOL0     H93951   2.353   9.651   5.091  0.1581  0.3809 -0.8137
  712MOL0     H93952   2.266   9.783   5.341  0.8990 -0.7260  1.0664
  712MOL0     H93953   2.210   9.614   5.306  5.4384 -0.6613 -0.9237
  712MOL0     H93954   2.089   9.714   5.087  0.1702  0.2943 -0.3667
  712MOL0     H93955   2.146   9.865   5.137 -1.6494  0.4876 -1.4840
  712MOL0     H93956   1.938   9.710   5.307 -1.0387  0.1297 -0.0255
  712MOL0     H93957   1.999   9.858   5.339 -0.1413 -2.3316  2.3512
  712MOL0     H93958   1.863   9.796   5.067 -2.5056 -0.7928  1.1043
  712MOL0     H93959   1.896   9.965   5.132 -3.4824  1.1107  0.0757
  712MOL0     H93960   1.696   9.768   5.228 -1.1262 -0.3487 -2.3049
  712MOL0     H93961   1.663   9.903   5.117 -0.1231  4.9611  2.1214
  712MOL0     H93962   1.801   9.990   5.366  1.9880  0.3671 -0.2374
  712MOL0     H93963   1.651  10.049   5.294  1.3192  0.9421  1.7267
  712MOL0     H93964   1.611   9.949   5.518  0.0809  0.0509  0.1702
  712MOL0     H93965   1.689   9.800   5.468 -0.0403 -0.6040  1.2640
  712MOL0     H93966   2.536  10.067   5.172 -1.1972 -1.0313 -0.2210
  712MOL0     H93967   2.770  10.098   5.116  1.8161 -1.0669 -1.3613
  712MOL0     H93968   3.124   9.819   4.681  1.3325 -1.4913 -0.3885
  712MOL0     H93969   3.375   9.849   4.651 -3.5551 -0.7115 -2.3221
  712MOL0     H93970   3.654  10.459   3.467 -2.7211  1.7828  0.2192
  712MOL0     H93971   3.548  10.553   3.275 -0.3158 -0.9069  0.5599
  712MOL0     H93972   3.337  10.519   2.961 -0.4779  1.4802 -0.8118
  712MOL0     H93973   3.220  10.532   2.763 -0.0728 -0.9642  2.6584
  712MOL0     H93974   3.143  10.742   2.523 -1.4821 -0.1553 -2.3821
  712MOL0     H93975   3.129  10.560   2.570  0.8807 -2.7003 -2.0070
  712MOL0     H93976   3.207  10.661   2.297  0.5507 -0.1981 -0.2617
  712MOL0     H93977   3.183  10.494   2.356 -0.7308  0.3647 -2.5431
  712MOL0     H93978   2.985  10.728   2.366 -0.9863 -0.6418  0.4571
  712MOL0     H93979   2.944  10.569   2.420 -1.3988 -0.8574 -1.8168
  712MOL0     H93980   2.989  10.477   2.176  0.2543  0.1277 -2.0659
  712MOL0     H93981   2.850  10.569   2.206  0.1624 -0.8610  0.0720
  712MOL0     H93982   3.104  10.794   1.931  0.9655 -0.2148  0.6660
  712MOL0     H93983   3.561  10.697   2.571 -1.8595  1.5308 -1.3553
  712MOL0     H93984   3.694  10.661   2.774  0.2196  0.7045  1.9062
  713MOL0     O93985  10.949   7.452   6.615 -0.6059 -0.4967  0.4647
  713MOL0     C93986  11.032   7.538   6.582  0.2794  0.2584  0.2002
  713MOL0     O93987  11.002   7.659   6.531  0.0633 -0.3008 -0.0706
  713MOL0     C93988  10.877   7.682   6.476 -0.8991 -0.4966  0.6947
  713MOL0     C93989  10.779   7.716   6.566  0.0861 -0.4372 -0.3245
  713MOL0     C93990  10.655   7.733   6.518  0.3294  0.8067  0.4030
  713MOL0     C93991  10.620   7.707   6.386 -0.0387 -0.1552  0.1140
  713MOL0     O93992  10.484   7.704   6.362 -0.7132 -0.4194  0.5609
  713MOL0     C93993  10.438   7.659   6.236  0.3623  0.1363 -0.5539
  713MOL0     C93994  10.281   7.647   6.238 -0.4590 -0.5201 -0.0075
  713MOL0     C93995  10.221   7.617   6.096 -0.2694 -0.5984 -0.4779
  713MOL0     C93996  10.062   7.595   6.092  0.4881  0.0093  0.0098
  713MOL0     C93997  10.025   7.490   5.989 -1.0538 -0.1327  0.5601
  713MOL0     C93998   9.879   7.481   5.974  0.0532  0.3246 -0.9233
  713MOL0     C93999   9.847   7.337   5.919  0.6997  0.0022  0.2423
  713MOL0     C94000   9.703   7.312   5.877  0.2673 -0.7956  0.0534
  713MOL0     N94001   9.615   7.341   5.987 -0.5822  0.8978  0.3395
  713MOL0     C94002   9.578   7.255   6.084  0.0345  0.1503 -0.3020
  713MOL0     C94003   9.507   7.334   6.168 -0.1987  0.1893  0.5652
  713MOL0     C94004   9.435   7.268   6.286 -1.2799 -0.2085 -0.2179
  713MOL0     C94005   9.285   7.262   6.253  0.3783  0.3060 -0.7369
  713MOL0     C94006   9.203   7.158   6.351 -0.3014 -0.1925  0.2845
  713MOL0     C94007   9.077   7.126   6.277 -0.1146  0.2384  0.6314
  713MOL0     O94008   8.968   7.085   6.358 -0.4638  0.3820 -0.1402
  713MOL0     C94009   8.860   7.022   6.304  0.4822  0.5954  0.1488
  713MOL0     C94010   8.763   6.965   6.390 -0.2624 -0.6045 -0.2383
  713MOL0     C94011   8.660   6.893   6.343  0.1665  0.2900  0.3517
  713MOL0     C94012   8.633   6.887   6.200  0.9199 -0.0089 -0.4290
  713MOL0     C94013   8.511   6.820   6.150  0.3455  0.3428 -0.5651
  713MOL0     O94014   8.467   6.868   6.032  0.4861 -0.5519  0.5465
  713MOL0     C94015   8.342   6.837   5.991  0.5817  0.6231  0.4994
  713MOL0     C94016   8.233   6.927   5.999 -0.0096 -0.0534 -0.1105
  713MOL0     C94017   8.108   6.903   5.946  1.3652 -0.5705  0.3051
  713MOL0     C94018   8.092   6.797   5.859  0.1985  0.5919 -0.3812
  713MOL0     O94019   7.971   6.782   5.801  0.3023 -0.9008  0.4675
  713MOL0     C94020   7.861   6.753   5.893  0.2115  0.1845 -0.3584
  713MOL0     C94021   7.776   6.632   5.842  0.8753 -0.6651 -0.6671
  713MOL0     C94022   7.850   6.501   5.825 -0.1878  0.0365 -0.7652
  713MOL0     C94023   7.758   6.396   5.767 -0.0114  0.0747  0.0958
  713MOL0     C94024   7.833   6.291   5.689 -0.1586 -0.8916  0.6361
  713MOL0     C94025   7.896   6.182   5.776 -0.4139 -0.1238  0.0502
  713MOL0     C94026   8.003   6.097   5.700 -0.4059  0.9197 -0.4397
  713MOL0     C94027   7.998   5.941   5.725  1.1209  0.4389 -0.4968
  713MOL0    Cl94028   8.127   5.852   5.635 -0.1537  0.0539  0.0347
  713MOL0     C94029   8.199   6.704   5.840  0.3522  0.3772  0.4984
  713MOL0     C94030   8.326   6.729   5.904  0.6526 -0.0746  0.1547
  713MOL0     O94031   8.453   6.742   6.227 -0.1916  0.2282 -0.1606
  713MOL0     C94032   8.722   6.960   6.120 -0.7229 -0.3212 -0.1510
  713MOL0     C94033   8.841   7.011   6.168  0.9887  0.4269 -0.2976
  713MOL0     N94034   9.508   7.466   6.122 -0.5561  0.3258  0.2716
  713MOL0     N94035   9.567   7.470   6.006 -0.2134 -0.2386  0.1418
  713MOL0     C94036  10.716   7.685   6.292  0.3090  0.3907  0.1724
  713MOL0     C94037  10.851   7.678   6.338  0.0875  0.0810 -0.3428
  713MOL0     C94038  11.180   7.521   6.597 -0.3730  0.6335  0.4098
  713MOL0     C94039  11.269   7.627   6.625  0.2432  0.0855  0.3063
  713MOL0     C94040  11.401   7.598   6.652 -0.1470 -0.4108  0.7364
  713MOL0     C94041  11.448   7.467   6.661 -0.4436  0.4744 -0.0029
  713MOL0     O94042  11.583   7.455   6.681 -0.4403  0.0647 -0.7993
  713MOL0     C94043  11.626   7.346   6.778 -0.1118 -0.2484 -0.6190
  713MOL0     C94044  11.660   7.403   6.915 -0.5393  0.1706  0.7835
  713MOL0     C94045  11.547   7.467   6.988  0.0333 -1.0174  0.1811
  713MOL0     C94046  11.427   7.371   7.014 -0.0282 -0.4186  0.0045
  713MOL0     C94047  11.334   7.429   7.116  0.3884  0.3636  0.1454
  713MOL0     C94048  11.236   7.466   7.193  0.4499  0.3642 -0.0544
  713MOL0     C94049  11.360   7.362   6.633 -0.1809 -0.8581  0.0390
  713MOL0     C94050  11.224   7.387   6.604  0.3544 -1.0174  0.0946
  713MOL0     H94051  10.817   7.721   6.667  2.5145  0.7400 -1.2093
  713MOL0     H94052  10.568   7.753   6.579 -0.6485  0.9100 -0.9689
  713MOL0     H94053  10.482   7.562   6.210  1.5677  1.2068 -2.7993
  713MOL0     H94054  10.470   7.715   6.148  1.3700 -0.0775 -0.3375
  713MOL0     H94055  10.232   7.736   6.277 -0.7214 -0.0991 -1.2549
  713MOL0     H94056  10.251   7.560   6.297 -2.4030  0.1600  0.0675
  713MOL0     H94057  10.283   7.536   6.057  0.5483  0.0590 -0.5584
  713MOL0     H94058  10.250   7.708   6.044  2.1234 -0.2786  1.2537
  713MOL0     H94059  10.026   7.554   6.187 -1.2785  2.9326  0.7377
  713MOL0     H94060  10.016   7.691   6.066 -0.6732 -0.7080 -0.6816
  713MOL0     H94061  10.073   7.395   6.016  0.3018 -0.0610 -1.3766
  713MOL0     H94062  10.071   7.515   5.893 -0.1535 -2.8407  0.1929
  713MOL0     H94063   9.841   7.560   5.908 -2.7296  0.3933  0.6010
  713MOL0     H94064   9.836   7.499   6.073  1.5269  4.0729 -0.8026
  713MOL0     H94065   9.902   7.320   5.826 -0.7136 -3.2194 -0.1214
  713MOL0     H94066   9.886   7.264   5.991 -2.2896  0.0481  2.0513
  713MOL0     H94067   9.690   7.213   5.832  0.3079 -1.6396  1.8324
  713MOL0     H94068   9.682   7.380   5.793  0.7429 -1.6234 -0.7529
  713MOL0     H94069   9.597   7.149   6.099  3.0578  0.6836  0.2453
  713MOL0     H94070   9.461   7.334   6.370  2.3520 -0.7054 -0.7750
  713MOL0     H94071   9.486   7.176   6.315  2.0736  1.8244  0.9522
  713MOL0     H94072   9.277   7.240   6.146  1.4747 -1.8745 -0.4235
  713MOL0     H94073   9.245   7.361   6.275 -2.2253 -0.8184  0.0006
  713MOL0     H94074   9.257   7.068   6.382 -0.5915 -0.0158  1.3491
  713MOL0     H94075   9.170   7.213   6.440 -1.2640 -1.5453  0.8025
  713MOL0     H94076   9.108   7.050   6.205  0.2033  0.1226  0.8889
  713MOL0     H94077   9.037   7.211   6.220 -1.4608 -2.2016 -2.3754
  713MOL0     H94078   8.777   6.976   6.497 -0.8102 -1.0622 -0.1194
  713MOL0     H94079   8.593   6.841   6.411 -1.8359 -1.4137 -2.6933
  713MOL0     H94080   8.244   7.006   6.072  0.8922 -0.0606 -0.2232
  713MOL0     H94081   8.023   6.971   5.946  0.4442 -1.6279  2.5044
  713MOL0     H94082   7.788   6.834   5.902 -2.7424 -2.1669 -1.2816
  713MOL0     H94083   7.908   6.751   5.991  0.1224 -0.8365 -0.3250
  713MOL0     H94084   7.726   6.659   5.749 -1.4165  1.6100  1.0907
  713MOL0     H94085   7.698   6.611   5.917  3.5019  0.7761  2.7215
  713MOL0     H94086   7.881   6.469   5.925 -0.9901  0.0041 -0.5166
  713MOL0     H94087   7.932   6.526   5.757  0.9439  2.8928  1.4635
  713MOL0     H94088   7.696   6.344   5.841  0.1534 -0.7476 -0.3416
  713MOL0     H94089   7.705   6.450   5.688 -0.4313  0.5570  0.6903
  713MOL0     H94090   7.908   6.330   5.620 -0.1008 -1.2871  0.4789
  713MOL0     H94091   7.754   6.238   5.635 -0.3662  0.8268 -0.8507
  713MOL0     H94092   7.810   6.125   5.813  1.7184 -2.1526  2.2221
  713MOL0     H94093   7.939   6.245   5.855 -1.0588 -0.7793  0.9534
  713MOL0     H94094   7.972   6.108   5.596 -2.0265  2.1896  0.1315
  713MOL0     H94095   8.104   6.140   5.697 -0.1667  0.4137 -3.7958
  713MOL0     H94096   7.907   5.898   5.682  0.6667  1.3194 -0.4359
  713MOL0     H94097   8.014   5.918   5.831 -0.1395 -1.1404 -0.6272
  713MOL0     H94098   8.166   6.621   5.779 -0.6291  1.0377  0.0998
  713MOL0     H94099   8.399   6.653   5.877 -0.1696  0.5918 -5.0903
  713MOL0     H94100   8.708   6.974   6.013  1.7004  2.2325 -0.2561
  713MOL0     H94101   8.914   7.042   6.093  1.3144 -2.5166 -1.3198
  713MOL0     H94102  10.691   7.673   6.187  0.2953 -4.5308  0.5200
  713MOL0     H94103  10.937   7.663   6.274  1.1158 -2.3021  1.4611
  713MOL0     H94104  11.226   7.727   6.628 -0.2777 -0.1573  1.6220
  713MOL0     H94105  11.463   7.686   6.671 -0.8949 -0.0360  1.5205
  713MOL0     H94106  11.704   7.288   6.727  0.3426  0.7924 -1.1372
  713MOL0     H94107  11.545   7.276   6.799 -1.4407  1.7496  1.5200
  713MOL0     H94108  11.706   7.326   6.978  1.9737  1.4309  0.6085
  713MOL0     H94109  11.737   7.480   6.915  0.0773 -0.4352  0.5743
  713MOL0     H94110  11.512   7.547   6.922 -0.3420  0.1654  1.7558
  713MOL0     H94111  11.582   7.516   7.080 -0.8702 -2.9197  1.6156
  713MOL0     H94112  11.377   7.342   6.922  1.2303 -2.8225 -0.0007
  713MOL0     H94113  11.467   7.284   7.067 -0.0539  0.3303  1.3108
  713MOL0     H94114  11.163   7.502   7.262  0.3795 -0.2124  0.1746
  713MOL0     H94115  11.396   7.260   6.638 -1.4343 -1.4341 -1.6845
  713MOL0     H94116  11.157   7.304   6.585  0.9520 -1.3995 -0.3852
  714MOL0     O94117   4.013   3.477   0.436  0.2061 -0.0923  0.0630
  714MOL0     C94118   4.028   3.473   0.312  0.5217 -0.5269 -0.1766
  714MOL0     O94119   3.927   3.460   0.222 -0.6712  0.5418  0.5043
  714MOL0     C94120   3.793   3.454   0.258  0.3688 -0.5110 -0.5881
  714MOL0     C94121   3.733   3.571   0.321 -0.5615  1.0222  1.0033
  714MOL0     C94122   3.595   3.578   0.343  0.8627  0.2691 -0.0245
  714MOL0     C94123   3.512   3.466   0.306 -0.1402  1.1821  0.4655
  714MOL0     O94124   3.377   3.451   0.334 -0.4121 -0.1877 -0.3056
  714MOL0     C94125   3.307   3.562   0.407  0.1292  0.0218  0.2682
  714MOL0     C94126   3.153   3.544   0.412 -0.2564  0.0604 -0.1951
  714MOL0     C94127   3.093   3.412   0.474 -0.1154  0.4179 -0.2982
  714MOL0     C94128   2.954   3.386   0.426 -0.5578  0.2072  0.2214
  714MOL0     C94129   2.942   3.350   0.285  1.0456 -0.2987  0.1603
  714MOL0     C94130   2.796   3.299   0.272 -0.3444  0.5721  1.1912
  714MOL0     C94131   2.752   3.284   0.128  0.8678  0.4886 -0.1976
  714MOL0     C94132   2.614   3.209   0.102  0.1456 -0.0744  0.8441
  714MOL0     N94133   2.502   3.260   0.170 -0.2577 -1.0230  0.0705
  714MOL0     C94134   2.471   3.237   0.304 -0.4369 -0.3113  0.2511
  714MOL0     C94135   2.345   3.289   0.317 -0.5535 -0.1915  0.3368
  714MOL0     C94136   2.254   3.283   0.432  0.5687  0.7102 -0.1370
  714MOL0     C94137   2.134   3.190   0.399  0.2161  0.1817 -0.1004
  714MOL0     C94138   2.031   3.211   0.510 -0.0922 -1.1433 -0.1628
  714MOL0     C94139   1.897   3.157   0.465  0.9060  0.0189  0.2294
  714MOL0     O94140   1.787   3.212   0.547  0.2016  1.0661 -0.1934
  714MOL0     C94141   1.661   3.171   0.511  0.9564 -0.6033 -0.7542
  714MOL0     C94142   1.626   3.096   0.395 -0.3670  0.0657 -0.5854
  714MOL0     C94143   1.494   3.083   0.360  0.9125  0.2716 -0.5153
  714MOL0     C94144   1.385   3.130   0.445 -0.1624  1.2308  0.5823
  714MOL0     C94145   1.239   3.111   0.412  0.6303  0.2986 -0.4628
  714MOL0     O94146   1.156   3.194   0.479  0.2488 -0.1544 -0.3450
  714MOL0     C94147   1.024   3.169   0.453  0.6954 -0.1320  0.0659
  714MOL0     C94148   0.958   3.243   0.353 -0.2833  0.4261 -0.2213
  714MOL0     C94149   0.821   3.222   0.345  1.1274  0.7472  0.7381
  714MOL0     C94150   0.753   3.129   0.425  0.4500  0.2786  0.5097
  714MOL0     O94151   0.615   3.121   0.397  0.0148  0.5380 -0.6489
  714MOL0     C94152   0.531   3.075   0.510 -0.8393 -0.0625 -0.2797
  714MOL0     C94153   0.390   3.088   0.471  0.2875 -0.0531 -0.4164
  714MOL0     C94154   0.303   3.076   0.595  0.2949  0.0816  0.1710
  714MOL0     C94155   0.153   3.091   0.567  0.0833  0.5932 -0.2974
  714MOL0     C94156   0.078   3.061   0.694  0.5302  0.8160 -0.3625
  714MOL0     C94157  -0.076   3.062   0.678  1.0421  0.7318  1.1188
  714MOL0     C94158  -0.127   3.194   0.617  0.2343 -0.7110 -0.8038
  714MOL0     C94159  -0.271   3.227   0.637 -0.1981 -0.7152 -0.1470
  714MOL0    Cl94160  -0.311   3.268   0.807  0.0577  0.0617  0.2482
  714MOL0     C94161   0.819   3.051   0.520 -0.0012 -0.2636 -0.1494
  714MOL0     C94162   0.954   3.075   0.537 -0.7128 -1.0427 -1.1277
  714MOL0     O94163   1.207   3.036   0.320  0.3332 -0.5424  0.0371
  714MOL0     C94164   1.420   3.206   0.559  1.2839  0.3994 -0.7566
  714MOL0     C94165   1.558   3.228   0.590  0.6867  0.2734 -0.3923
  714MOL0     N94166   2.309   3.348   0.193 -0.1286  0.2969 -0.3389
  714MOL0     N94167   2.404   3.330   0.108 -0.5341  0.8132 -0.2991
  714MOL0     C94168   3.576   3.354   0.253  0.0816 -0.7994  0.3118
  714MOL0     C94169   3.708   3.344   0.231  0.1747 -0.3385 -0.0720
  714MOL0     C94170   4.162   3.493   0.242 -1.1231 -1.0695 -0.4529
  714MOL0     C94171   4.175   3.478   0.100 -0.3528  0.7389 -0.4990
  714MOL0     C94172   4.299   3.479   0.036  0.6822  1.1955 -0.6721
  714MOL0     C94173   4.414   3.517   0.099  0.4974  0.4816 -0.3147
  714MOL0     O94174   4.523   3.536   0.016 -0.1889  0.2843  0.1282
  714MOL0     C94175   4.651   3.566   0.082 -0.6023  0.2355  0.3796
  714MOL0     C94176   4.750   3.590  -0.036 -0.4261  0.0796  0.6850
  714MOL0     C94177   4.883   3.641   0.016 -0.7833  0.1743  0.1672
  714MOL0     C94178   4.970   3.534   0.086  1.2323  0.0819  0.0341
  714MOL0     C94179   5.084   3.599   0.148  0.0182  0.0537 -0.3591
  714MOL0     C94180   5.185   3.645   0.211 -0.1034 -0.1173  0.1770
  714MOL0     C94181   4.412   3.540   0.243 -0.1603  0.1483 -0.4265
  714MOL0     C94182   4.283   3.516   0.307 -0.9675  0.6961  0.2427
  714MOL0     H94183   3.804   3.651   0.339  0.9300  0.0033 -0.0502
  714MOL0     H94184   3.555   3.667   0.390  0.1881  0.2737 -0.5812
  714MOL0     H94185   3.319   3.659   0.357 -0.7824  0.4854  0.9206
  714MOL0     H94186   3.346   3.569   0.509  0.3162 -1.1574  0.2873
  714MOL0     H94187   3.121   3.543   0.308 -0.4600 -3.1356 -0.1844
  714MOL0     H94188   3.100   3.625   0.463  2.1809 -0.0133  2.7279
  714MOL0     H94189   3.094   3.442   0.579 -0.9726  1.0084 -0.4519
  714MOL0     H94190   3.156   3.327   0.446 -0.4695 -0.1756  0.6584
  714MOL0     H94191   2.914   3.304   0.486 -2.8665  1.3264  0.3444
  714MOL0     H94192   2.886   3.469   0.449 -1.2171 -0.4336  0.6506
  714MOL0     H94193   3.019   3.276   0.262 -0.1391 -1.3569 -0.4929
  714MOL0     H94194   2.954   3.439   0.223 -2.9608  1.4623  1.5769
  714MOL0     H94195   2.727   3.365   0.325  0.7966  2.1911  0.7438
  714MOL0     H94196   2.798   3.204   0.327 -1.7284  1.2310  2.4685
  714MOL0     H94197   2.752   3.385   0.085  3.0986  0.5636 -0.1362
  714MOL0     H94198   2.824   3.223   0.073  2.2215 -0.4539  2.4342
  714MOL0     H94199   2.623   3.107   0.139  0.5949 -0.1320  0.5844
  714MOL0     H94200   2.603   3.208  -0.007 -3.5971 -0.0900  1.1032
  714MOL0     H94201   2.518   3.172   0.378 -2.9803  0.6990  2.9788
  714MOL0     H94202   2.234   3.388   0.456  0.0025 -0.0661  3.2967
  714MOL0     H94203   2.304   3.256   0.525  0.4364  0.9699  0.0127
  714MOL0     H94204   2.166   3.085   0.407  0.7809  0.2271 -1.4562
  714MOL0     H94205   2.090   3.200   0.299 -0.8203  0.7793  0.3968
  714MOL0     H94206   2.074   3.174   0.604  2.8855  0.2563 -0.8615
  714MOL0     H94207   2.011   3.318   0.520 -1.1784 -1.5116  2.2323
  714MOL0     H94208   1.916   3.049   0.471  0.9650  0.0824  1.3985
  714MOL0     H94209   1.869   3.186   0.364  1.5030  1.0349  0.3477
  714MOL0     H94210   1.709   3.073   0.329 -0.7977  1.0193 -1.4923
  714MOL0     H94211   1.489   3.038   0.261 -0.5662  1.9362 -1.2752
  714MOL0     H94212   1.024   3.309   0.299 -0.0428  0.6628  0.3505
  714MOL0     H94213   0.767   3.274   0.267  0.0993 -0.5922  0.5194
  714MOL0     H94214   0.537   3.130   0.604 -0.9734 -0.2560 -0.1560
  714MOL0     H94215   0.562   2.974   0.541  2.3580  0.8996  0.0802
  714MOL0     H94216   0.365   3.010   0.399 -0.6816  1.0299 -1.2909
  714MOL0     H94217   0.370   3.187   0.431 -0.0853  0.0432 -0.0076
  714MOL0     H94218   0.326   3.163   0.657  2.6786  1.0745 -1.9212
  714MOL0     H94219   0.338   2.983   0.641  1.4013  0.9115  1.0705
  714MOL0     H94220   0.122   3.186   0.524  0.0975  1.4540  1.4886
  714MOL0     H94221   0.119   3.015   0.495  0.7464 -1.7278  1.6784
  714MOL0     H94222   0.095   3.136   0.771 -1.0983 -0.6987  1.5797
  714MOL0     H94223   0.094   2.963   0.740 -1.2208  1.1189  0.9998
  714MOL0     H94224  -0.107   3.062   0.783 -0.9888 -0.1828  0.5710
  714MOL0     H94225  -0.115   2.975   0.623  0.2851  1.0936  1.0666
  714MOL0     H94226  -0.069   3.267   0.675  0.8798 -0.6070 -1.5572
  714MOL0     H94227  -0.107   3.203   0.509  0.2204 -0.7662 -0.8107
  714MOL0     H94228  -0.330   3.141   0.604 -0.2376 -1.8868  2.6308
  714MOL0     H94229  -0.300   3.316   0.582  4.1501  2.2105  1.6851
  714MOL0     H94230   0.763   2.985   0.587 -1.0413  0.5011 -0.2386
  714MOL0     H94231   1.015   3.027   0.613 -0.5275 -0.3282 -0.8068
  714MOL0     H94232   1.343   3.253   0.620  1.9318  0.8836 -0.2906
  714MOL0     H94233   1.595   3.277   0.680 -1.3063  1.0030  0.0995
  714MOL0     H94234   3.511   3.270   0.234 -3.2935  1.9902 -1.6457
  714MOL0     H94235   3.743   3.248   0.195  0.9655  0.0605 -0.3976
  714MOL0     H94236   4.093   3.446   0.037  1.0546  0.1094 -2.1104
  714MOL0     H94237   4.295   3.453  -0.070  1.2836 -2.4680  0.0894
  714MOL0     H94238   4.689   3.484   0.143 -0.0175 -0.1557 -0.4892
  714MOL0     H94239   4.636   3.660   0.136 -1.8112  0.7902 -0.8383
  714MOL0     H94240   4.756   3.497  -0.094  1.2097  1.4075 -1.3934
  714MOL0     H94241   4.712   3.675  -0.093  0.0034  1.2672  2.1254
  714MOL0     H94242   4.864   3.731   0.075  2.3315  0.6070  0.6730
  714MOL0     H94243   4.926   3.688  -0.074 -0.5326  2.8339  1.5703
  714MOL0     H94244   4.917   3.492   0.172  1.4298  1.0068  0.6262
  714MOL0     H94245   4.999   3.455   0.017  0.7649  0.3566 -0.4870
  714MOL0     H94246   5.277   3.682   0.251 -0.6937  3.3751 -1.3689
  714MOL0     H94247   4.504   3.541   0.300 -1.2804 -1.2808  1.5157
  714MOL0     H94248   4.264   3.521   0.414  0.6199  0.9932  0.5369
  715MOL0     O94249   0.154   5.496   1.822  0.1121  0.0446  0.8414
  715MOL0     C94250   0.068   5.516   1.906 -0.0815  0.3519 -0.5800
  715MOL0     O94251  -0.063   5.510   1.876 -0.1164 -1.2139  0.2889
  715MOL0     C94252  -0.103   5.515   1.740 -0.7701  0.0534  0.0527
  715MOL0     C94253  -0.202   5.605   1.707 -0.4106 -0.0757 -0.4851
  715MOL0     C94254  -0.254   5.623   1.580 -1.2036 -0.7278 -0.7753
  715MOL0     C94255  -0.209   5.530   1.483 -0.4296  0.6020 -0.2347
  715MOL0     O94256  -0.269   5.557   1.360 -0.0796  0.1500 -0.1546
  715MOL0     C94257  -0.283   5.440   1.277 -0.5870 -0.1499 -0.7805
  715MOL0     C94258  -0.348   5.481   1.144  0.4039  0.0073  0.0315
  715MOL0     C94259  -0.480   5.570   1.160  0.0752  0.1275 -0.2806
  715MOL0     C94260  -0.576   5.516   1.269  0.1961  0.4071 -0.3807
  715MOL0     C94261  -0.718   5.579   1.256  0.7932  0.1179 -0.3033
  715MOL0     C94262  -0.791   5.534   1.133 -0.0235 -1.3584 -0.2524
  715MOL0     C94263  -0.942   5.558   1.150  0.3867 -0.2832 -0.0402
  715MOL0     C94264  -0.994   5.700   1.111  0.0309 -0.5706  0.2721
  715MOL0     N94265  -1.139   5.717   1.106  0.0283  0.2186 -0.0549
  715MOL0     C94266  -1.221   5.627   1.039 -0.4239 -0.4782  0.7923
  715MOL0     C94267  -1.344   5.680   1.051  0.3723  0.2495 -0.8989
  715MOL0     C94268  -1.473   5.611   1.009 -0.4406 -0.2529 -0.0552
  715MOL0     C94269  -1.605   5.688   1.051 -0.0614  0.5579  0.5830
  715MOL0     C94270  -1.733   5.597   1.053 -0.5205  0.4777  1.4718
  715MOL0     C94271  -1.850   5.677   1.106  0.2193  1.2320  0.0304
  715MOL0     O94272  -1.966   5.592   1.112  0.1768  0.2777 -0.3152
  715MOL0     C94273  -2.002   5.520   1.228 -0.6418  0.0837  0.1598
  715MOL0     C94274  -2.130   5.462   1.220  0.5209  0.4913 -0.2638
  715MOL0     C94275  -2.182   5.391   1.328  0.3549 -0.0277  0.1045
  715MOL0     C94276  -2.108   5.373   1.450  0.3375 -0.1329  0.8744
  715MOL0     C94277  -2.164   5.295   1.564  0.1933 -0.6547  0.2229
  715MOL0     O94278  -2.073   5.271   1.662  0.0941 -0.0540  0.1797
  715MOL0     C94279  -2.121   5.232   1.790 -0.4869  0.0102  0.3460
  715MOL0     C94280  -2.117   5.315   1.903 -0.6454  0.2315  0.5142
  715MOL0     C94281  -2.158   5.270   2.031 -0.1086 -0.4764 -1.0626
  715MOL0     C94282  -2.198   5.141   2.048  0.5559  0.0183  0.7812
  715MOL0     O94283  -2.239   5.104   2.172 -0.1701  0.3097 -0.1969
  715MOL0     C94284  -2.353   5.008   2.179  0.1106  0.0990  0.0968
  715MOL0     C94285  -2.372   4.988   2.328 -0.7325 -0.2331 -0.4826
  715MOL0     C94286  -2.478   5.069   2.395 -0.1944  0.3712  0.1856
  715MOL0     C94287  -2.626   5.013   2.363  0.0501  0.9252 -0.3607
  715MOL0     C94288  -2.722   5.088   2.454  0.1799  0.0267 -0.3834
  715MOL0     C94289  -2.868   5.050   2.432  0.2024 -0.1557  0.0600
  715MOL0     C94290  -2.904   5.051   2.283 -0.4106 -0.0620  0.3281
  715MOL0     C94291  -3.057   5.055   2.251 -0.2194  0.3116 -0.8515
  715MOL0    Cl94292  -3.117   4.911   2.347  0.2277 -0.2337  0.5484
  715MOL0     C94293  -2.196   5.050   1.935 -0.2855  0.1873 -0.6399
  715MOL0     C94294  -2.172   5.103   1.808 -0.2732  0.3058  0.2498
  715MOL0     O94295  -2.281   5.273   1.572 -0.1717 -0.7179 -0.1504
  715MOL0     C94296  -1.980   5.417   1.448 -0.1370  0.6633 -0.5671
  715MOL0     C94297  -1.932   5.499   1.342  0.0483 -0.7085 -0.2156
  715MOL0     N94298  -1.325   5.806   1.108 -0.8845 -0.2100 -0.5360
  715MOL0     N94299  -1.207   5.822   1.148 -0.1807  0.2103  0.2170
  715MOL0     C94300  -0.121   5.432   1.512 -0.7012  0.4600 -0.4072
  715MOL0     C94301  -0.069   5.414   1.642  0.4313 -1.2421 -0.3407
  715MOL0     C94302   0.116   5.519   2.048  1.2510 -0.5122 -0.3347
  715MOL0     C94303   0.246   5.519   2.075 -0.7342 -0.1892  0.2265
  715MOL0     C94304   0.297   5.513   2.207  0.3541 -0.1876 -0.5720
  715MOL0     C94305   0.209   5.500   2.315 -0.8822  0.4601 -0.1524
  715MOL0     O94306   0.266   5.488   2.439 -0.0529  0.6052 -0.5985
  715MOL0     C94307   0.182   5.455   2.552  0.2887 -0.3538 -0.2172
  715MOL0     C94308   0.266   5.385   2.663 -0.1304  0.1311  0.2173
  715MOL0     C94309   0.178   5.345   2.788 -0.1825  0.2174  0.1616
  715MOL0     C94310   0.255   5.296   2.907 -0.2788  0.1959 -0.4345
  715MOL0     C94311   0.170   5.282   3.024 -0.2065  0.5654 -0.5199
  715MOL0     C94312   0.103   5.259   3.124  0.2426 -0.0402  0.2716
  715MOL0     C94313   0.080   5.514   2.295 -0.0504 -0.2723  0.3931
  715MOL0     C94314   0.026   5.522   2.162 -0.0990 -1.2120 -0.0091
  715MOL0     H94315  -0.235   5.659   1.795  2.2429  0.9009  0.0172
  715MOL0     H94316  -0.345   5.678   1.558  0.1939  1.5563 -1.2117
  715MOL0     H94317  -0.349   5.370   1.328 -1.3818  0.1597 -1.3626
  715MOL0     H94318  -0.185   5.397   1.253  0.1141  1.4019 -0.8111
  715MOL0     H94319  -0.375   5.389   1.091 -0.3596 -0.1276  0.6331
  715MOL0     H94320  -0.275   5.537   1.085  1.5087 -0.6502  0.7448
  715MOL0     H94321  -0.522   5.586   1.060  1.5592  0.7993 -0.8290
  715MOL0     H94322  -0.450   5.670   1.194  1.3311  0.3231 -1.8313
  715MOL0     H94323  -0.593   5.409   1.255  0.5209  0.5221 -1.8702
  715MOL0     H94324  -0.533   5.548   1.364  2.8376 -0.2990 -1.2569
  715MOL0     H94325  -0.709   5.688   1.258  2.2293  0.0763  3.1283
  715MOL0     H94326  -0.776   5.539   1.340 -1.5062 -1.2916 -2.4384
  715MOL0     H94327  -0.774   5.427   1.118  0.0313 -1.2484 -0.9740
  715MOL0     H94328  -0.747   5.588   1.049 -0.5384 -0.8118 -0.1759
  715MOL0     H94329  -0.987   5.477   1.092  0.4553  0.9691 -1.9256
  715MOL0     H94330  -0.973   5.527   1.250 -0.7619 -0.0487 -0.3117
  715MOL0     H94331  -0.955   5.735   1.015 -1.3306  3.0239  0.8912
  715MOL0     H94332  -0.964   5.773   1.187 -1.5288  2.2743 -1.6564
  715MOL0     H94333  -1.191   5.546   0.972 -0.0646  1.6258 -1.7886
  715MOL0     H94334  -1.469   5.510   1.052  2.2716 -0.9215 -1.6517
  715MOL0     H94335  -1.463   5.599   0.900 -0.0026  2.3116 -0.3553
  715MOL0     H94336  -1.628   5.760   0.971  1.3695 -1.3223 -1.6716
  715MOL0     H94337  -1.591   5.732   1.150 -2.2576 -0.4011  1.3702
  715MOL0     H94338  -1.743   5.559   0.951  0.5014  0.3357  1.4181
  715MOL0     H94339  -1.711   5.507   1.110  0.4192  0.7879  1.6110
  715MOL0     H94340  -1.861   5.757   1.032  0.4760 -1.1566 -2.7810
  715MOL0     H94341  -1.832   5.712   1.208 -3.4397 -1.9262  2.0210
  715MOL0     H94342  -2.184   5.480   1.128  2.4685  1.5387 -1.2801
  715MOL0     H94343  -2.285   5.356   1.319  0.5341 -0.0837 -2.2795
  715MOL0     H94344  -2.081   5.417   1.893 -0.8237  0.3407  0.9689
  715MOL0     H94345  -2.170   5.342   2.111 -0.3163 -1.0207 -0.5998
  715MOL0     H94346  -2.319   4.909   2.148 -1.3726 -0.0368 -1.2369
  715MOL0     H94347  -2.449   5.031   2.131 -1.4210  1.7664  3.5301
  715MOL0     H94348  -2.278   5.028   2.366  0.1417 -0.3685 -2.3719
  715MOL0     H94349  -2.375   4.884   2.361 -0.0555 -0.3428 -0.7542
  715MOL0     H94350  -2.472   5.165   2.344 -0.1004 -1.0291 -2.6234
  715MOL0     H94351  -2.463   5.076   2.503 -0.6221 -0.0158  0.2717
  715MOL0     H94352  -2.649   5.038   2.259 -1.6687 -1.7560 -0.7186
  715MOL0     H94353  -2.621   4.906   2.382 -1.3701  0.8525 -0.2901
  715MOL0     H94354  -2.709   5.196   2.445 -1.9927  0.3378 -0.3039
  715MOL0     H94355  -2.689   5.069   2.557  0.2398 -2.1634 -0.7475
  715MOL0     H94356  -2.925   5.124   2.488 -3.5159 -0.7711 -2.5501
  715MOL0     H94357  -2.898   4.950   2.467 -0.6902 -0.7128 -2.1561
  715MOL0     H94358  -2.858   5.137   2.235  0.5190  0.2021  1.6563
  715MOL0     H94359  -2.863   4.967   2.225  0.5122  1.5798 -1.5027
  715MOL0     H94360  -3.088   5.047   2.147  0.0794  1.4856 -1.0550
  715MOL0     H94361  -3.093   5.150   2.293  0.1690 -1.0523  2.9112
  715MOL0     H94362  -2.225   4.945   1.928 -1.3863  0.4457 -0.2433
  715MOL0     H94363  -2.188   5.037   1.723  0.3092 -0.4345  0.6939
  715MOL0     H94364  -1.917   5.411   1.536  0.9203 -2.7020 -1.4289
  715MOL0     H94365  -1.834   5.545   1.342 -0.8267  1.2992 -1.6163
  715MOL0     H94366  -0.099   5.350   1.445  2.4848  1.6865 -1.0818
  715MOL0     H94367   0.006   5.338   1.661  4.1411  2.2974  0.5191
  715MOL0     H94368   0.321   5.506   1.997 -1.4629 -1.5229 -0.2987
  715MOL0     H94369   0.403   5.526   2.227 -0.0472  0.2421  1.5274
  715MOL0     H94370   0.103   5.383   2.528  2.2686 -3.2243  1.3146
  715MOL0     H94371   0.143   5.549   2.594  3.9375  1.1812  0.1075
  715MOL0     H94372   0.303   5.294   2.614  1.1047  1.1206 -0.7857
  715MOL0     H94373   0.345   5.458   2.684  0.7530 -1.1444  1.4624
  715MOL0     H94374   0.114   5.264   2.752  0.1406  0.1575 -0.2851
  715MOL0     H94375   0.131   5.438   2.820  0.5407  0.9848 -0.9529
  715MOL0     H94376   0.312   5.205   2.884  0.7637  0.9536 -0.9394
  715MOL0     H94377   0.331   5.374   2.921 -0.4818  0.7060 -1.9963
  715MOL0     H94378   0.045   5.229   3.209 -0.3276 -0.2783 -0.1960
  715MOL0     H94379   0.010   5.507   2.378  1.1954 -1.6759  1.3654
  715MOL0     H94380  -0.080   5.523   2.142 -0.4152 -1.1456  1.6115
  716MOL0     O94381   7.113   9.884   8.429  0.8245  0.6665  0.7106
  716MOL0     C94382   7.181   9.982   8.407  0.3800  0.1926  0.8294
  716MOL0     O94383   7.141  10.095   8.334  0.7000 -0.6497 -0.4063
  716MOL0     C94384   7.014  10.105   8.296  0.1640 -0.5439  0.1832
  716MOL0     C94385   6.971  10.029   8.191  1.1187  0.5073  0.1406
  716MOL0     C94386   6.836  10.041   8.146 -0.0238  0.0829 -0.3596
  716MOL0     C94387   6.750  10.126   8.201  0.6161  0.2666 -1.0147
  716MOL0     O94388   6.622  10.130   8.146  0.1782  0.0372  0.6277
  716MOL0     C94389   6.543  10.249   8.169 -0.6918 -0.2265  0.7838
  716MOL0     C94390   6.422  10.266   8.072  0.0435  0.0372 -0.0668
  716MOL0     C94391   6.302  10.179   8.105  0.1542 -0.0184 -0.5804
  716MOL0     C94392   6.202  10.182   7.987 -0.3051 -0.6743 -0.1165
  716MOL0     C94393   6.074  10.112   8.024  0.0251 -0.6039  0.6730
  716MOL0     C94394   5.977  10.080   7.907 -0.6642 -0.1319 -1.1574
  716MOL0     C94395   5.840  10.038   7.946 -0.1580  0.2343 -0.2293
  716MOL0     C94396   5.754  10.156   8.008  0.3113 -0.4569 -0.4146
  716MOL0     N94397   5.635  10.164   7.917 -0.2957 -0.6626  0.3849
  716MOL0     C94398   5.527  10.080   7.926 -0.9284  0.2261 -0.6774
  716MOL0     C94399   5.457  10.096   7.814 -0.0839  0.3535  0.3526
  716MOL0     C94400   5.331  10.019   7.770 -0.5669 -0.2791 -0.6774
  716MOL0     C94401   5.221  10.031   7.880  0.0223  0.9282  0.2012
  716MOL0     C94402   5.149   9.899   7.896  1.3603 -0.8802  0.5168
  716MOL0     C94403   5.081   9.850   7.768  0.1326  0.5089 -0.0481
  716MOL0     O94404   4.982   9.932   7.725 -0.8256  0.0770 -0.1096
  716MOL0     C94405   4.853   9.893   7.742 -0.4756  0.0866  0.1905
  716MOL0     C94406   4.767   9.949   7.644  0.5179  1.1588 -0.0274
  716MOL0     C94407   4.636   9.897   7.634  0.0622 -0.3720 -1.0924
  716MOL0     C94408   4.588   9.816   7.730  1.1883  0.1910 -0.8847
  716MOL0     C94409   4.448   9.767   7.720 -0.2595  0.5865 -0.3238
  716MOL0     O94410   4.382   9.793   7.606 -0.2340  0.1902  0.3875
  716MOL0     C94411   4.248   9.755   7.617 -0.0212  0.0075  0.6935
  716MOL0     C94412   4.203   9.627   7.582  0.2495 -0.5488  0.7189
  716MOL0     C94413   4.065   9.595   7.579  1.0247  0.0977 -0.5601
  716MOL0     C94414   3.973   9.696   7.621  0.8825 -0.2525 -0.5435
  716MOL0     O94415   3.836   9.683   7.649  1.3344 -0.0641  0.3617
  716MOL0     C94416   3.755   9.592   7.573 -1.3626  0.3863 -0.2557
  716MOL0     C94417   3.628   9.593   7.632 -0.0970  0.6954 -0.6139
  716MOL0     C94418   3.549   9.465   7.600  0.4113 -0.7233  0.8044
  716MOL0     C94419   3.515   9.455   7.443 -0.7743 -0.4579 -0.4021
  716MOL0     C94420   3.449   9.321   7.401 -0.6426 -0.3785  0.2360
  716MOL0     C94421   3.302   9.319   7.453 -0.7634 -0.0771 -0.1443
  716MOL0     C94422   3.241   9.182   7.445  0.3455 -0.1788  0.4893
  716MOL0     C94423   3.106   9.159   7.500  0.1468  0.0397 -0.4913
  716MOL0    Cl94424   2.975   9.246   7.408 -0.4198  0.1107  0.1243
  716MOL0     C94425   4.017   9.822   7.654 -0.7813 -0.3042  0.1638
  716MOL0     C94426   4.155   9.849   7.648  0.7500 -0.7514 -0.3737
  716MOL0     O94427   4.403   9.719   7.822  0.4108 -0.5008 -0.2460
  716MOL0     C94428   4.667   9.782   7.840 -0.1342  0.3007 -1.3056
  716MOL0     C94429   4.798   9.807   7.837  0.7331  0.9909 -0.5319
  716MOL0     N94430   5.531  10.181   7.725  0.7229  0.3512 -0.5967
  716MOL0     N94431   5.635  10.212   7.791 -0.1659 -0.1254  0.3096
  716MOL0     C94432   6.801  10.212   8.300  0.6513  0.3029  0.0271
  716MOL0     C94433   6.935  10.204   8.340 -1.1329 -0.0109 -0.2577
  716MOL0     C94434   7.329   9.965   8.438  0.8717  1.1038  0.6807
  716MOL0     C94435   7.409  10.078   8.462 -0.7914  0.1045  0.5843
  716MOL0     C94436   7.545  10.060   8.473  0.3127  0.4623  0.5150
  716MOL0     C94437   7.607   9.936   8.464 -0.0008 -0.6123 -0.2687
  716MOL0     O94438   7.747   9.932   8.497  0.0102  0.8008  0.5932
  716MOL0     C94439   7.814   9.810   8.454 -0.2126 -0.1542  0.5565
  716MOL0     C94440   7.958   9.833   8.475 -0.2008  0.7035  0.1728
  716MOL0     C94441   8.044   9.709   8.459  0.7174 -0.3196  0.5607
  716MOL0     C94442   8.200   9.728   8.434 -0.3227 -0.1821 -0.3528
  716MOL0     C94443   8.265   9.627   8.351  1.6157  0.0126 -0.0056
  716MOL0     C94444   8.292   9.544   8.265 -0.5319 -0.7214  0.5217
  716MOL0     C94445   7.526   9.824   8.454 -0.1133 -0.1861  0.2095
  716MOL0     C94446   7.389   9.838   8.440 -0.4754 -0.2734 -0.0354
  716MOL0     H94447   7.023   9.943   8.149 -0.4620  0.0291 -0.9362
  716MOL0     H94448   6.800   9.974   8.068 -0.4763 -1.7806  1.3616
  716MOL0     H94449   6.604  10.339   8.153 -0.0109 -0.2641  2.8224
  716MOL0     H94450   6.502  10.243   8.271  0.9901 -2.2120  1.4009
  716MOL0     H94451   6.461  10.241   7.974 -2.0499  0.3904 -1.0513
  716MOL0     H94452   6.386  10.369   8.067 -0.2301 -0.0472  0.0785
  716MOL0     H94453   6.256  10.216   8.197 -1.1447 -1.9527 -0.4068
  716MOL0     H94454   6.333  10.074   8.112  0.4915  0.0418 -1.0483
  716MOL0     H94455   6.166  10.283   7.967  1.1949 -0.1438 -0.3210
  716MOL0     H94456   6.254  10.142   7.900  0.8953  0.0135  0.2550
  716MOL0     H94457   6.024  10.154   8.112  0.8736 -0.7600  1.2460
  716MOL0     H94458   6.106  10.011   8.053  1.7138 -0.1305  0.5547
  716MOL0     H94459   6.021   9.997   7.853 -0.6407  0.3192 -1.8428
  716MOL0     H94460   5.959  10.165   7.841 -2.5400 -0.3571 -0.9918
  716MOL0     H94461   5.791   9.996   7.857  0.3589 -1.2579  0.1611
  716MOL0     H94462   5.855   9.959   8.020  0.4338  0.5589 -0.0035
  716MOL0     H94463   5.805  10.253   8.009 -1.3135  0.4392  1.1418
  716MOL0     H94464   5.728  10.127   8.110 -0.5332 -2.3194 -1.1098
  716MOL0     H94465   5.495  10.017   8.008 -2.3525 -0.2691 -1.5716
  716MOL0     H94466   5.360   9.914   7.759 -0.6354 -0.3572 -0.1757
  716MOL0     H94467   5.296  10.048   7.671 -0.1744 -1.6285 -1.2262
  716MOL0     H94468   5.147  10.104   7.847  1.6484  3.3124  1.5043
  716MOL0     H94469   5.253  10.069   7.977 -2.3831  1.2214  0.9516
  716MOL0     H94470   5.219   9.819   7.922 -1.0596 -4.2010 -2.1902
  716MOL0     H94471   5.068   9.896   7.970  0.2998  0.8475 -0.5238
  716MOL0     H94472   5.048   9.746   7.780  0.2911  0.4130 -0.4258
  716MOL0     H94473   5.162   9.857   7.694  2.4198  1.6674  2.4003
  716MOL0     H94474   4.803  10.006   7.558  0.4018  1.4763  0.1321
  716MOL0     H94475   4.592   9.941   7.545  2.1183  3.3170 -0.4743
  716MOL0     H94476   4.280   9.559   7.549 -0.8169 -1.6609  0.4323
  716MOL0     H94477   4.035   9.496   7.546  1.1988  0.8028 -3.0304
  716MOL0     H94478   3.800   9.493   7.559 -0.7497  0.3913  1.4105
  716MOL0     H94479   3.750   9.629   7.470 -2.3630 -2.3714 -1.2957
  716MOL0     H94480   3.579   9.681   7.589 -1.9539 -0.0172 -0.0204
  716MOL0     H94481   3.640   9.603   7.740  0.6282 -2.3141 -0.3323
  716MOL0     H94482   3.455   9.467   7.656  0.1058 -0.6070  0.2911
  716MOL0     H94483   3.610   9.378   7.629  3.4003  0.4066 -1.6288
  716MOL0     H94484   3.449   9.537   7.412 -2.0405 -1.3412 -0.0904
  716MOL0     H94485   3.606   9.458   7.383 -2.0744 -0.8637 -2.4906
  716MOL0     H94486   3.505   9.240   7.449 -0.8962 -1.0912 -0.6495
  716MOL0     H94487   3.452   9.301   7.294  0.0289 -1.8544  0.5128
  716MOL0     H94488   3.242   9.391   7.396  0.9604  2.8509  1.5056
  716MOL0     H94489   3.302   9.340   7.560  0.9954  2.4142 -0.5235
  716MOL0     H94490   3.234   9.149   7.341 -2.1286 -2.9963  1.4061
  716MOL0     H94491   3.304   9.117   7.506 -1.3040  0.4332  3.0528
  716MOL0     H94492   3.105   9.195   7.603  3.9029  1.3267 -0.7342
  716MOL0     H94493   3.085   9.051   7.498  1.7514 -0.2925 -0.8885
  716MOL0     H94494   3.946   9.903   7.667 -0.8652 -0.2847 -0.3854
  716MOL0     H94495   4.182   9.951   7.675 -3.1309  1.1292 -2.7461
  716MOL0     H94496   4.629   9.721   7.922  0.7150 -1.9143 -2.4803
  716MOL0     H94497   4.833   9.758   7.927 -2.9314 -2.5737 -0.7103
  716MOL0     H94498   6.737  10.282   8.352  0.8788  1.9453 -1.7834
  716MOL0     H94499   6.967  10.280   8.411  2.5533 -1.8135  0.2782
  716MOL0     H94500   7.363  10.174   8.441  3.0035  1.7688 -1.1123
  716MOL0     H94501   7.603  10.151   8.483  0.5345  0.4500 -0.5821
  716MOL0     H94502   7.794   9.802   8.347  2.6900  1.1793 -0.1808
  716MOL0     H94503   7.777   9.721   8.506 -0.0254 -1.0561 -0.8034
  716MOL0     H94504   7.990   9.911   8.405 -0.3795  1.1121  0.5448
  716MOL0     H94505   7.974   9.863   8.579  3.6337 -2.5463  0.7508
  716MOL0     H94506   8.001   9.658   8.372  1.9315 -0.9581  0.3182
  716MOL0     H94507   8.025   9.648   8.548 -0.0612  1.6759  1.8384
  716MOL0     H94508   8.213   9.829   8.395 -1.7189  0.5868  1.0521
  716MOL0     H94509   8.248   9.720   8.532 -2.2728 -0.7752  0.6129
  716MOL0     H94510   8.302   9.466   8.192 -4.5080 -0.4794 -0.5268
  716MOL0     H94511   7.559   9.721   8.448  1.5870 -0.0072  3.8670
  716MOL0     H94512   7.341   9.744   8.414  0.5661 -1.6663  2.6762
  717MOL0     O94513   9.567   3.611   3.891 -0.6325  0.0436 -0.6313
  717MOL0     C94514   9.622   3.511   3.944  0.3326  0.4429  0.6448
  717MOL0     O94515   9.551   3.408   4.010 -0.6644  0.7077  0.5969
  717MOL0     C94516   9.410   3.411   4.002  0.1750 -0.3347 -0.6611
  717MOL0     C94517   9.335   3.424   4.119  0.4274 -0.0561 -0.0272
  717MOL0     C94518   9.202   3.439   4.126  0.2163 -0.4008  0.2204
  717MOL0     C94519   9.131   3.442   3.998  0.3701  0.6256 -0.0691
  717MOL0     O94520   8.995   3.446   4.006  0.3659  0.2714 -0.3852
  717MOL0     C94521   8.928   3.467   3.883  0.2323  1.0037  0.5944
  717MOL0     C94522   8.786   3.514   3.904 -0.3196  0.0296 -0.9911
  717MOL0     C94523   8.708   3.398   3.974 -0.2684  0.0200  0.4290
  717MOL0     C94524   8.562   3.445   4.000  0.2505  0.2253 -0.0684
  717MOL0     C94525   8.484   3.333   4.052  0.0611  0.2901 -0.1622
  717MOL0     C94526   8.330   3.345   4.075 -0.3240  0.0225  0.0575
  717MOL0     C94527   8.264   3.223   4.126  1.0633  1.1918  0.0297
  717MOL0     C94528   8.121   3.234   4.166  1.3403 -0.8195  0.2139
  717MOL0     N94529   8.102   3.318   4.281  0.7750 -0.8274 -0.1559
  717MOL0     C94530   8.010   3.419   4.300  0.5440 -0.6789 -0.1573
  717MOL0     C94531   8.020   3.440   4.435 -1.0376  0.6002 -0.4987
  717MOL0     C94532   7.962   3.542   4.524  0.1745 -0.2285 -0.3176
  717MOL0     C94533   7.812   3.524   4.556 -0.1928 -0.0025  0.5613
  717MOL0     C94534   7.768   3.564   4.692  0.1779  0.0461 -0.4319
  717MOL0     C94535   7.616   3.531   4.723 -0.4416  0.0033  0.3427
  717MOL0     O94536   7.581   3.557   4.858 -0.2408  0.0108 -0.3266
  717MOL0     C94537   7.455   3.541   4.909 -0.4874  0.5321 -0.5426
  717MOL0     C94538   7.339   3.559   4.825 -0.1291 -0.4082 -0.2352
  717MOL0     C94539   7.217   3.554   4.894 -0.0354  0.4272 -0.2148
  717MOL0     C94540   7.200   3.548   5.032 -0.4247  0.3150 -0.7744
  717MOL0     C94541   7.063   3.551   5.095  0.8667 -0.4293 -0.4641
  717MOL0     O94542   6.954   3.565   5.009 -0.9198 -0.8608  0.3005
  717MOL0     C94543   6.825   3.559   5.052  0.2989  0.1394 -1.2462
  717MOL0     C94544   6.772   3.630   5.169  0.1502 -0.1380 -0.9133
  717MOL0     C94545   6.638   3.619   5.203  0.0050 -0.2177 -0.8456
  717MOL0     C94546   6.553   3.535   5.130 -0.0213 -0.1410 -0.4153
  717MOL0     O94547   6.419   3.520   5.155  0.4592  0.4775 -0.2909
  717MOL0     C94548   6.359   3.593   5.265 -0.6029 -0.3491 -0.9144
  717MOL0     C94549   6.211   3.593   5.288  0.0437  0.1257  0.1875
  717MOL0     C94550   6.136   3.607   5.160  0.4517 -0.0619  0.2708
  717MOL0     C94551   5.986   3.633   5.171 -0.2755 -0.5799  0.2849
  717MOL0     C94552   5.915   3.664   5.039  0.1357  0.1051  0.1306
  717MOL0     C94553   5.768   3.705   5.062  0.4423  0.2336  0.1814
  717MOL0     C94554   5.722   3.758   4.930 -0.3486  0.5745  0.6652
  717MOL0     C94555   5.567   3.781   4.925 -0.5950  0.5103 -0.1445
  717MOL0    Cl94556   5.530   3.906   5.043 -0.1884 -0.7369 -0.1876
  717MOL0     C94557   6.605   3.471   5.025  0.1163 -0.1429 -0.4037
  717MOL0     C94558   6.734   3.486   4.981 -0.2625 -0.1190  0.1785
  717MOL0     O94559   7.058   3.551   5.221 -0.6522  0.4134 -0.0707
  717MOL0     C94560   7.313   3.541   5.111  0.1255 -0.3818 -0.2436
  717MOL0     C94561   7.437   3.528   5.049 -0.1922 -0.2078 -0.2795
  717MOL0     N94562   8.120   3.352   4.492 -0.3301 -0.2075  0.2326
  717MOL0     N94563   8.155   3.278   4.397 -0.0205  0.7497 -0.5413
  717MOL0     C94564   9.204   3.421   3.877  0.6974  0.6385 -0.2896
  717MOL0     C94565   9.344   3.412   3.882 -0.0295 -0.7273  0.4828
  717MOL0     C94566   9.768   3.488   3.940  0.0766 -0.2709 -0.5462
  717MOL0     C94567   9.821   3.373   4.009 -0.7602 -0.2251 -0.7697
  717MOL0     C94568   9.955   3.353   4.009 -0.4899  0.1803  0.3073
  717MOL0     C94569  10.043   3.444   3.943 -0.3305 -0.4379 -0.1628
  717MOL0     O94570  10.180   3.424   3.942 -0.2369  0.0001  0.0588
  717MOL0     C94571  10.249   3.323   4.006 -0.4738  0.1190  0.3540
  717MOL0     C94572  10.397   3.355   3.976  0.0865  0.4771  0.4225
  717MOL0     C94573  10.493   3.291   4.074 -0.3764  0.0524  0.7237
  717MOL0     C94574  10.637   3.351   4.045 -0.2154  0.0663  0.9320
  717MOL0     C94575  10.738   3.276   4.123 -0.1297 -1.2177 -0.0645
  717MOL0     C94576  10.833   3.220   4.170  0.6404 -1.4103 -0.5804
  717MOL0     C94577   9.994   3.547   3.870  0.1992  0.6395  0.8892
  717MOL0     C94578   9.853   3.575   3.877 -0.4753  0.1765  0.0767
  717MOL0     H94579   9.389   3.425   4.213  1.2780  1.3889 -0.4983
  717MOL0     H94580   9.141   3.448   4.216 -0.3133 -0.6131 -0.1080
  717MOL0     H94581   8.920   3.371   3.831  0.6283  1.7335 -0.8675
  717MOL0     H94582   8.978   3.542   3.821  0.3980  0.6767  0.3329
  717MOL0     H94583   8.737   3.536   3.808 -0.2025  2.6625 -0.5223
  717MOL0     H94584   8.782   3.602   3.970  1.7664 -2.2285  2.4644
  717MOL0     H94585   8.760   3.389   4.070  3.5304 -0.8443 -1.5073
  717MOL0     H94586   8.716   3.299   3.929  1.4190  1.7587 -3.6617
  717MOL0     H94587   8.546   3.531   4.065  0.5778 -1.5339  2.4764
  717MOL0     H94588   8.517   3.464   3.902  2.2838 -2.7164 -1.7313
  717MOL0     H94589   8.527   3.304   4.149  1.1441  2.4451  0.0446
  717MOL0     H94590   8.499   3.249   3.982 -0.1241 -0.8335  1.1003
  717MOL0     H94591   8.290   3.369   3.975  1.0285 -1.2095 -0.8192
  717MOL0     H94592   8.307   3.429   4.142 -4.0184 -1.2636  0.6164
  717MOL0     H94593   8.268   3.163   4.035 -3.8317  2.1788 -1.0848
  717MOL0     H94594   8.319   3.179   4.210 -1.3570  0.7883  1.4946
  717MOL0     H94595   8.102   3.131   4.199  0.5711 -0.0767  2.2263
  717MOL0     H94596   8.060   3.263   4.080 -0.6008 -0.8699  1.5110
  717MOL0     H94597   7.944   3.483   4.242 -3.2911 -1.4252  2.8888
  717MOL0     H94598   7.984   3.638   4.475  0.7016  1.0682  2.2615
  717MOL0     H94599   8.023   3.549   4.615  1.1863 -0.8414 -0.9276
  717MOL0     H94600   7.787   3.418   4.549 -1.4679  0.2452  1.1778
  717MOL0     H94601   7.753   3.573   4.478 -1.8482 -2.9577 -0.1862
  717MOL0     H94602   7.830   3.519   4.770 -0.0592  0.2052 -0.1502
  717MOL0     H94603   7.789   3.672   4.693 -3.7769  0.9931  1.3485
  717MOL0     H94604   7.597   3.428   4.692  0.0648  0.2701 -0.9349
  717MOL0     H94605   7.564   3.608   4.665  1.2797  1.5341  0.7213
  717MOL0     H94606   7.344   3.577   4.718  0.4178  3.5513  0.2768
  717MOL0     H94607   7.132   3.559   4.828  0.1291  0.5030 -0.4222
  717MOL0     H94608   6.831   3.705   5.221  0.7299 -0.5055 -1.0382
  717MOL0     H94609   6.607   3.667   5.295 -1.1691 -0.2754 -1.1946
  717MOL0     H94610   6.375   3.700   5.255  0.3991 -0.5796 -1.9888
  717MOL0     H94611   6.413   3.563   5.356  1.2087  2.3544 -0.9932
  717MOL0     H94612   6.181   3.681   5.345  2.6418  1.9353 -1.0476
  717MOL0     H94613   6.173   3.510   5.349 -0.4470  2.1613  2.8190
  717MOL0     H94614   6.148   3.514   5.104 -0.6252  0.1844 -0.3918
  717MOL0     H94615   6.177   3.692   5.104  1.6030 -1.9281 -1.9358
  717MOL0     H94616   5.944   3.541   5.213  1.4925 -1.5008  0.1340
  717MOL0     H94617   5.959   3.718   5.235 -3.0789 -2.3580  1.6596
  717MOL0     H94618   5.907   3.575   4.977 -0.2838 -1.8353  2.7800
  717MOL0     H94619   5.971   3.748   4.997  0.7537  0.4113  1.4964
  717MOL0     H94620   5.763   3.777   5.144 -0.2413  0.5722 -0.1525
  717MOL0     H94621   5.703   3.621   5.086 -0.8173  1.2894  0.5892
  717MOL0     H94622   5.773   3.853   4.911  2.9211 -1.3203 -0.7967
  717MOL0     H94623   5.745   3.700   4.840 -1.3278  1.2334 -0.0411
  717MOL0     H94624   5.509   3.691   4.950  0.3082  0.2720  1.2218
  717MOL0     H94625   5.543   3.817   4.825 -0.0430  1.5469  0.0810
  717MOL0     H94626   6.540   3.407   4.966 -0.0743  0.5972 -1.0074
  717MOL0     H94627   6.779   3.431   4.899  1.1985  2.5917 -0.9829
  717MOL0     H94628   7.303   3.557   5.218 -0.3511  2.0334 -0.5947
  717MOL0     H94629   7.523   3.541   5.113 -1.7749  0.6306  1.7968
  717MOL0     H94630   9.152   3.398   3.785 -2.7694 -1.0047  1.8704
  717MOL0     H94631   9.393   3.394   3.787 -0.6216 -1.4399  0.3071
  717MOL0     H94632   9.753   3.304   4.057 -1.2203  0.5527 -0.2715
  717MOL0     H94633   9.991   3.257   4.043  3.3324  1.8563  1.6112
  717MOL0     H94634  10.221   3.223   3.974 -1.6890  1.1105 -1.9437
  717MOL0     H94635  10.238   3.334   4.115  1.3490  2.7554  0.3729
  717MOL0     H94636  10.410   3.305   3.880 -1.9314 -3.4752  1.9824
  717MOL0     H94637  10.413   3.463   3.989 -0.5397  0.4598  1.4908
  717MOL0     H94638  10.503   3.182   4.071 -2.5768 -0.1936  0.5350
  717MOL0     H94639  10.473   3.330   4.174  2.3188 -0.4237  1.5283
  717MOL0     H94640  10.657   3.339   3.938 -0.1728 -1.3520  1.0770
  717MOL0     H94641  10.649   3.458   4.060  2.6940 -0.1082  0.5055
  717MOL0     H94642  10.910   3.173   4.227 -0.2351 -1.7228  0.3656
  717MOL0     H94643  10.061   3.613   3.816 -0.0590  0.4678  0.3480
  717MOL0     H94644   9.808   3.664   3.834 -0.5687  0.0148 -0.1608
  718MOL0     O94645   8.824   4.499   1.314  0.8636  0.6895 -0.3340
  718MOL0     C94646   8.768   4.472   1.208  0.3205 -0.3001  0.0744
  718MOL0     O94647   8.665   4.538   1.156  0.0146  0.0015 -0.7238
  718MOL0     C94648   8.612   4.650   1.223 -0.1027  1.0650 -0.8423
  718MOL0     C94649   8.530   4.630   1.339  0.3466 -0.8147 -0.5749
  718MOL0     C94650   8.472   4.752   1.395  0.3191  0.0714  0.2021
  718MOL0     C94651   8.498   4.880   1.347 -0.2482 -0.4258  0.3388
  718MOL0     O94652   8.441   4.988   1.409 -0.2574  0.7913 -1.0764
  718MOL0     C94653   8.512   5.115   1.406 -0.2008  0.3722  0.5165
  718MOL0     C94654   8.425   5.207   1.496 -1.1333  0.4459 -0.3933
  718MOL0     C94655   8.275   5.182   1.479 -0.1493  0.3495  0.7476
  718MOL0     C94656   8.198   5.313   1.504 -0.6013 -0.1486 -0.3639
  718MOL0     C94657   8.047   5.281   1.503  0.0603  0.4643  0.4891
  718MOL0     C94658   7.955   5.406   1.512 -0.5294 -0.5588  1.3208
  718MOL0     C94659   7.809   5.368   1.467  0.1211 -0.3248  0.9691
  718MOL0     C94660   7.708   5.445   1.549  0.1745 -0.0655  0.5173
  718MOL0     N94661   7.570   5.425   1.500  0.6100 -0.3359  0.2032
  718MOL0     C94662   7.522   5.493   1.390  1.0055 -0.3318 -1.0472
  718MOL0     C94663   7.413   5.418   1.358  0.2452  0.2379 -0.2317
  718MOL0     C94664   7.327   5.441   1.238  0.1701 -0.4572 -0.6141
  718MOL0     C94665   7.228   5.559   1.256  0.1323  0.8526  0.6109
  718MOL0     C94666   7.141   5.584   1.128 -0.2109  1.1509  0.6205
  718MOL0     C94667   7.070   5.714   1.136 -0.0854 -0.1513 -0.0623
  718MOL0     O94668   6.971   5.709   1.241 -0.3095  0.1403 -0.4052
  718MOL0     C94669   6.898   5.821   1.260  0.6547 -0.2806 -0.0820
  718MOL0     C94670   6.788   5.815   1.342 -0.2363 -0.0474 -1.1528
  718MOL0     C94671   6.703   5.920   1.359  0.5090  0.6372 -0.0141
  718MOL0     C94672   6.728   6.048   1.299 -0.4336 -0.5276  0.3187
  718MOL0     C94673   6.636   6.160   1.333  0.1928  0.1577 -0.1509
  718MOL0     O94674   6.667   6.280   1.274 -0.2949  0.3489  0.2339
  718MOL0     C94675   6.576   6.375   1.266  0.1949 -0.4911  0.2263
  718MOL0     C94676   6.450   6.353   1.209  0.3601  0.8277  0.1533
  718MOL0     C94677   6.346   6.452   1.225  0.6810  0.3812  0.1517
  718MOL0     C94678   6.366   6.562   1.307 -0.4521 -0.5132 -0.9597
  718MOL0     O94679   6.263   6.647   1.336 -0.2616  0.6861 -0.1348
  718MOL0     C94680   6.123   6.603   1.352  0.1398  0.3566  0.0030
  718MOL0     C94681   6.041   6.653   1.235 -1.0370  0.0288  0.4839
  718MOL0     C94682   5.893   6.630   1.245  0.3953  0.4329  0.6614
  718MOL0     C94683   5.804   6.707   1.142 -0.9193  0.5030 -0.1997
  718MOL0     C94684   5.660   6.673   1.155  0.0768 -0.1010  0.0136
  718MOL0     C94685   5.570   6.744   1.051  0.2692  0.0611  0.2738
  718MOL0     C94686   5.420   6.702   1.063  0.7085 -0.2357  0.5365
  718MOL0     C94687   5.337   6.792   0.965 -0.1813 -0.6828  0.0249
  718MOL0    Cl94688   5.336   6.968   0.997  0.0280 -0.2122 -0.0894
  718MOL0     C94689   6.494   6.591   1.364  0.9758  0.7366  0.2356
  718MOL0     C94690   6.598   6.490   1.346  0.4960 -0.1818 -0.1111
  718MOL0     O94691   6.541   6.134   1.407 -0.3474  1.5392  0.3453
  718MOL0     C94692   6.839   6.062   1.216  0.1380 -0.1167  1.5935
  718MOL0     C94693   6.920   5.948   1.198  0.4044  0.3435  0.3481
  718MOL0     N94694   7.385   5.325   1.456  0.8650  0.5329 -0.6930
  718MOL0     N94695   7.485   5.325   1.537 -0.0828  0.3004 -0.4104
  718MOL0     C94696   8.570   4.885   1.236  0.0937 -0.2175 -0.6020
  718MOL0     C94697   8.638   4.777   1.176  0.8271  0.3080 -0.5564
  718MOL0     C94698   8.802   4.341   1.139  0.2363 -0.0662  0.5834
  718MOL0     C94699   8.928   4.281   1.142  0.8270  0.1638  0.2774
  718MOL0     C94700   8.946   4.148   1.097  0.2859  0.5470 -0.4716
  718MOL0     C94701   8.833   4.079   1.043 -0.2896 -0.2509 -0.8941
  718MOL0     O94702   8.856   3.955   0.984  0.2468 -0.3880  0.1783
  718MOL0     C94703   8.809   3.944   0.848  0.0842 -0.0183  0.3939
  718MOL0     C94704   8.944   3.940   0.773  0.1798  0.2252  0.5234
  718MOL0     C94705   8.914   3.936   0.624 -0.5836  0.1736 -0.4686
  718MOL0     C94706   9.047   3.940   0.543  0.2147 -0.0744  1.0418
  718MOL0     C94707   9.014   3.920   0.397  0.3045  0.6122 -0.0032
  718MOL0     C94708   8.974   3.912   0.278 -0.2765  0.4444 -0.8798
  718MOL0     C94709   8.710   4.141   1.035 -0.3502  0.3049 -0.5219
  718MOL0     C94710   8.694   4.274   1.083 -0.5127  0.8464  0.4198
  718MOL0     H94711   8.500   4.529   1.367 -0.9426 -0.6922 -1.4095
  718MOL0     H94712   8.396   4.746   1.473  1.1164 -4.1502  0.9067
  718MOL0     H94713   8.511   5.147   1.302 -0.7955 -1.7504 -0.1678
  718MOL0     H94714   8.618   5.110   1.434 -0.5391 -0.6673  1.7263
  718MOL0     H94715   8.457   5.299   1.448  0.7453 -0.5540 -1.1742
  718MOL0     H94716   8.455   5.195   1.601 -1.3936 -0.5531 -0.4243
  718MOL0     H94717   8.235   5.108   1.549  0.1052 -1.0147 -0.5023
  718MOL0     H94718   8.240   5.155   1.379  0.6975 -1.8457  0.9872
  718MOL0     H94719   8.233   5.350   1.601  1.1288 -2.5059  0.0169
  718MOL0     H94720   8.218   5.397   1.437  1.2941  1.2183  1.7393
  718MOL0     H94721   8.024   5.213   1.585 -2.3777 -0.9331 -1.2306
  718MOL0     H94722   8.019   5.227   1.412 -0.1322 -1.1900  1.5014
  718MOL0     H94723   7.993   5.483   1.444 -0.2763 -2.3319 -0.6800
  718MOL0     H94724   7.964   5.448   1.612  1.1607 -0.4513  1.1393
  718MOL0     H94725   7.802   5.399   1.362 -0.0741  0.8947  1.3240
  718MOL0     H94726   7.775   5.264   1.470 -1.1571  0.0660  0.7961
  718MOL0     H94727   7.731   5.552   1.556 -2.1497  0.4197  1.4730
  718MOL0     H94728   7.724   5.409   1.652 -0.4327 -1.6920  0.0677
  718MOL0     H94729   7.561   5.578   1.335  1.7876 -0.4508 -0.6903
  718MOL0     H94730   7.271   5.349   1.219 -1.3641  0.3133  0.0220
  718MOL0     H94731   7.396   5.465   1.157  1.1744  0.1604  0.3815
  718MOL0     H94732   7.288   5.649   1.270 -0.0638  0.8826  1.3086
  718MOL0     H94733   7.165   5.552   1.346  0.7047 -0.3134  0.9324
  718MOL0     H94734   7.204   5.578   1.039 -0.6616 -1.1793  0.3777
  718MOL0     H94735   7.068   5.503   1.120  0.9596 -0.0192  1.2298
  718MOL0     H94736   7.014   5.738   1.045 -1.2940  0.2426  0.7569
  718MOL0     H94737   7.142   5.791   1.164 -0.2950 -0.9714  3.0073
  718MOL0     H94738   6.768   5.726   1.402  1.7183  1.0294  1.3131
  718MOL0     H94739   6.626   5.907   1.435  1.2076  0.2986  0.6463
  718MOL0     H94740   6.428   6.263   1.153 -1.1944  1.8905 -1.0041
  718MOL0     H94741   6.246   6.444   1.183 -0.7080  3.0611  2.5983
  718MOL0     H94742   6.089   6.651   1.444  2.5291  0.1628  1.0511
  718MOL0     H94743   6.108   6.495   1.359 -2.6136  0.6229 -0.6131
  718MOL0     H94744   6.078   6.607   1.142 -0.9061 -0.8440  0.9617
  718MOL0     H94745   6.058   6.761   1.229 -2.4087  0.1971 -1.1621
  718MOL0     H94746   5.851   6.644   1.345 -0.9496 -0.0223  0.1916
  718MOL0     H94747   5.878   6.522   1.234  0.0576  0.5495 -0.0994
  718MOL0     H94748   5.814   6.816   1.146  1.3895  0.5608 -3.3359
  718MOL0     H94749   5.832   6.678   1.040  2.9187 -0.2422  0.9010
  718MOL0     H94750   5.628   6.699   1.257 -2.8058  0.5005 -0.9322
  718MOL0     H94751   5.645   6.565   1.152 -2.8420  0.2466 -0.7700
  718MOL0     H94752   5.601   6.718   0.949 -0.1604 -3.1131  0.8385
  718MOL0     H94753   5.578   6.852   1.060  0.9040  0.0235  0.2241
  718MOL0     H94754   5.401   6.598   1.036 -0.0706  0.1721 -0.5968
  718MOL0     H94755   5.383   6.721   1.165  1.5744 -2.5421  1.3315
  718MOL0     H94756   5.237   6.747   0.959 -0.3980 -0.7789  2.8735
  718MOL0     H94757   5.384   6.792   0.866 -0.2044  0.5607  0.0012
  718MOL0     H94758   6.523   6.674   1.428  1.0923 -0.0288  1.1983
  718MOL0     H94759   6.698   6.494   1.387  1.2483  0.3415 -1.8803
  718MOL0     H94760   6.870   6.157   1.174  1.2713 -1.4314 -0.7078
  718MOL0     H94761   7.001   5.947   1.126  1.4993 -2.1929  1.4631
  718MOL0     H94762   8.582   4.983   1.190 -1.1463  0.6417  0.8545
  718MOL0     H94763   8.708   4.801   1.096  0.5171 -1.1782 -1.2997
  718MOL0     H94764   9.013   4.343   1.167 -0.9890  1.8564  2.7657
  718MOL0     H94765   9.047   4.107   1.091 -0.2244 -0.7570 -0.6125
  718MOL0     H94766   8.757   4.029   0.804  3.4675  3.0547  1.8221
  718MOL0     H94767   8.746   3.855   0.841 -1.8425  1.4438 -2.5981
  718MOL0     H94768   9.016   4.019   0.798 -0.2565  0.1336  2.1365
  718MOL0     H94769   8.980   3.840   0.798 -1.3835 -0.6988 -0.7153
  718MOL0     H94770   8.849   4.017   0.591  0.6505  1.5372  0.3199
  718MOL0     H94771   8.872   3.837   0.604 -0.3523 -1.1344  4.3672
  718MOL0     H94772   9.099   4.036   0.548  0.8192 -0.1998 -1.3956
  718MOL0     H94773   9.120   3.865   0.575 -0.5642 -1.0978  0.4654
  718MOL0     H94774   8.924   3.902   0.183 -1.1360 -1.3457 -0.2910
  718MOL0     H94775   8.628   4.085   0.992  0.3961 -1.3992  0.1787
  718MOL0     H94776   8.602   4.331   1.071  0.1408  1.9041  0.2381
  719MOL0     O94777   8.714   7.555   7.460 -0.2960  0.0540  0.0967
  719MOL0     C94778   8.728   7.548   7.339 -0.1329  0.1802 -0.0793
  719MOL0     O94779   8.622   7.532   7.252 -0.2919  0.1578 -0.6405
  719MOL0     C94780   8.502   7.494   7.306 -0.2916  0.4534  0.1246
  719MOL0     C94781   8.433   7.563   7.401 -0.1823  0.0392 -0.7049
  719MOL0     C94782   8.306   7.523   7.447 -0.4564 -0.8664  0.5521
  719MOL0     C94783   8.227   7.425   7.382 -0.2341  0.0509  1.1307
  719MOL0     O94784   8.097   7.383   7.407  0.4391  0.8070  0.0108
  719MOL0     C94785   8.011   7.467   7.488 -0.1740  0.3386  0.2978
  719MOL0     C94786   7.876   7.456   7.411 -0.5832 -0.6727 -0.0389
  719MOL0     C94787   7.765   7.529   7.484 -0.5704  0.0052 -0.1058
  719MOL0     C94788   7.631   7.520   7.411 -0.4801  0.1721 -0.2835
  719MOL0     C94789   7.519   7.600   7.485 -0.3517  0.5877 -0.1520
  719MOL0     C94790   7.383   7.574   7.433 -0.5480  0.2577 -0.4542
  719MOL0     C94791   7.282   7.674   7.503 -0.1092 -0.4172  0.1929
  719MOL0     C94792   7.241   7.629   7.639 -0.3154 -0.6811 -0.2755
  719MOL0     N94793   7.124   7.697   7.692 -0.5531  0.1000 -0.0224
  719MOL0     C94794   6.998   7.697   7.648 -0.2283 -0.4276  0.6149
  719MOL0     C94795   6.928   7.774   7.739 -0.6592  0.0279  0.5082
  719MOL0     C94796   6.787   7.816   7.742  0.1498  0.1035 -0.0083
  719MOL0     C94797   6.713   7.784   7.872  0.0837 -0.3964 -0.1242
  719MOL0     C94798   6.576   7.844   7.863 -0.8514  0.4113 -0.3923
  719MOL0     C94799   6.508   7.819   8.001 -0.2003  0.9006 -0.0986
  719MOL0     O94800   6.380   7.871   7.986 -0.7869 -0.3054 -0.3418
  719MOL0     C94801   6.285   7.825   8.069 -0.2499  0.5477  0.0359
  719MOL0     C94802   6.303   7.728   8.160  0.4837 -0.0338 -0.5024
  719MOL0     C94803   6.205   7.699   8.255 -0.7850  0.4024 -0.1602
  719MOL0     C94804   6.077   7.751   8.240 -0.4980 -0.1674  0.2454
  719MOL0     C94805   5.952   7.713   8.317  0.0626 -0.4519 -0.4311
  719MOL0     O94806   5.844   7.801   8.310  0.0425 -0.2663  0.0095
  719MOL0     C94807   5.721   7.777   8.373 -1.6726 -0.3842 -0.1240
  719MOL0     C94808   5.607   7.790   8.296  1.5254  0.2186  0.2044
  719MOL0     C94809   5.479   7.771   8.361 -0.7857  0.2465  0.5155
  719MOL0     C94810   5.470   7.749   8.497  0.4806  0.7485  0.2739
  719MOL0     O94811   5.363   7.724   8.567  0.6034  0.0602 -0.3838
  719MOL0     C94812   5.251   7.816   8.545 -0.1339  0.4511  0.5359
  719MOL0     C94813   5.237   7.930   8.652  0.5795  0.5842 -0.2156
  719MOL0     C94814   5.354   8.017   8.646  0.2939  0.1921  0.6821
  719MOL0     C94815   5.331   8.158   8.709  1.1291 -0.3335 -0.3996
  719MOL0     C94816   5.319   8.144   8.860  0.3297 -0.2431 -0.8670
  719MOL0     C94817   5.448   8.115   8.938  0.7133  0.6694 -0.1937
  719MOL0     C94818   5.566   8.188   8.899 -0.3889 -0.6536  0.8573
  719MOL0     C94819   5.692   8.144   8.974 -1.0494  0.5393  0.1293
  719MOL0    Cl94820   5.838   8.202   8.883  0.2768 -0.4913  0.1666
  719MOL0     C94821   5.590   7.733   8.567  0.5960  0.2566 -0.1989
  719MOL0     C94822   5.709   7.748   8.510 -0.9647 -0.1562  0.5508
  719MOL0     O94823   5.958   7.611   8.385 -0.5430 -0.2154  0.6055
  719MOL0     C94824   6.064   7.856   8.143  0.3061 -0.5676  0.8900
  719MOL0     C94825   6.161   7.895   8.057 -0.4263  0.4476  0.4637
  719MOL0     N94826   7.023   7.820   7.831 -0.2158 -0.4229 -0.6428
  719MOL0     N94827   7.142   7.772   7.803  0.2691 -0.0048 -0.6664
  719MOL0     C94828   8.299   7.361   7.274 -0.1023  0.5804  0.2367
  719MOL0     C94829   8.428   7.398   7.238  0.6206 -0.6394  1.3345
  719MOL0     C94830   8.864   7.534   7.273 -0.2729 -0.8779 -0.5650
  719MOL0     C94831   8.887   7.486   7.138 -0.7949 -1.5478 -0.5857
  719MOL0     C94832   9.016   7.486   7.084 -0.1236  0.1586 -1.2403
  719MOL0     C94833   9.125   7.525   7.153  0.3624 -0.3738  1.0117
  719MOL0     O94834   9.245   7.506   7.082 -0.8473 -0.1739  0.0389
  719MOL0     C94835   9.371   7.508   7.156 -1.4751  0.5215  1.0278
  719MOL0     C94836   9.494   7.486   7.062 -0.3182 -0.5119 -0.0971
  719MOL0     C94837   9.539   7.613   6.984 -0.1592 -0.6332  0.3188
  719MOL0     C94838   9.694   7.621   6.985 -0.2494 -0.1365  0.0675
  719MOL0     C94839   9.736   7.718   6.887 -0.5775  0.0681  0.3192
  719MOL0     C94840   9.779   7.792   6.804  0.9567  0.5232  0.5759
  719MOL0     C94841   9.110   7.581   7.284  0.0423 -0.1365 -0.4534
  719MOL0     C94842   8.980   7.579   7.340  1.0020  0.3122 -0.5027
  719MOL0     H94843   8.481   7.653   7.437 -0.9882  0.8758 -1.6588
  719MOL0     H94844   8.265   7.584   7.526  0.9452 -1.4138  1.7504
  719MOL0     H94845   8.051   7.569   7.488  0.4580  0.1471  2.6138
  719MOL0     H94846   7.996   7.436   7.591  1.6620  0.1657  0.5402
  719MOL0     H94847   7.846   7.351   7.408 -0.9780 -0.5483 -0.8377
  719MOL0     H94848   7.880   7.478   7.304 -0.6829  0.4249  0.1697
  719MOL0     H94849   7.785   7.636   7.493 -1.0763  0.2102 -1.1758
  719MOL0     H94850   7.745   7.496   7.586 -0.5721  0.4826  0.0514
  719MOL0     H94851   7.646   7.565   7.313  2.6086 -0.3701 -0.1677
  719MOL0     H94852   7.599   7.416   7.405 -2.5895  0.7831 -0.2208
  719MOL0     H94853   7.548   7.706   7.480  0.0427  0.4855 -0.1108
  719MOL0     H94854   7.516   7.576   7.591  2.6831  1.0990  0.1373
  719MOL0     H94855   7.356   7.468   7.436  0.1157  0.0599 -1.0345
  719MOL0     H94856   7.390   7.603   7.327  1.5030 -1.3157 -0.8370
  719MOL0     H94857   7.322   7.775   7.517 -2.9179  0.9710 -1.0339
  719MOL0     H94858   7.190   7.683   7.445  0.2822 -0.1592 -0.4004
  719MOL0     H94859   7.328   7.642   7.704  0.8055  0.5057 -1.9128
  719MOL0     H94860   7.230   7.521   7.642  1.8265 -0.9186  1.8849
  719MOL0     H94861   6.956   7.659   7.555  2.1659 -0.8273 -0.3681
  719MOL0     H94862   6.732   7.779   7.655  1.2548 -0.3258 -0.5414
  719MOL0     H94863   6.797   7.925   7.736  0.9571  0.0863  0.8312
  719MOL0     H94864   6.765   7.835   7.954 -3.7387  2.5848  0.7104
  719MOL0     H94865   6.720   7.676   7.889  1.8306 -0.5531 -1.4793
  719MOL0     H94866   6.584   7.953   7.863  0.9596  0.3175  0.4618
  719MOL0     H94867   6.510   7.808   7.784 -2.5529  0.5426  0.8867
  719MOL0     H94868   6.558   7.857   8.090  0.8257 -0.5351 -0.0162
  719MOL0     H94869   6.510   7.709   8.003  1.0609  0.8857 -0.7710
  719MOL0     H94870   6.387   7.662   8.173  1.0773  0.4773 -1.6641
  719MOL0     H94871   6.225   7.619   8.325 -0.2973  1.4594  0.9586
  719MOL0     H94872   5.599   7.812   8.189 -1.8278 -2.7264 -0.3328
  719MOL0     H94873   5.385   7.780   8.307 -0.3255 -0.4177 -0.4315
  719MOL0     H94874   5.161   7.753   8.551  0.5793 -0.5128  1.5655
  719MOL0     H94875   5.253   7.866   8.448 -0.0915  1.1621  0.9012
  719MOL0     H94876   5.225   7.882   8.750  0.2558 -1.3176 -1.1286
  719MOL0     H94877   5.140   7.976   8.632 -1.7860 -3.3392  0.9125
  719MOL0     H94878   5.368   8.036   8.540 -3.8555 -1.7862 -0.4408
  719MOL0     H94879   5.446   7.976   8.688  2.2348  1.0029 -2.4533
  719MOL0     H94880   5.412   8.226   8.683 -1.0396  1.5021 -2.9215
  719MOL0     H94881   5.238   8.205   8.675  0.5132 -2.2159 -1.4912
  719MOL0     H94882   5.251   8.060   8.877  0.0060 -0.1192 -1.5085
  719MOL0     H94883   5.273   8.235   8.897  1.6006 -0.1834  0.6833
  719MOL0     H94884   5.468   8.010   8.917  1.3205  0.3895  1.6522
  719MOL0     H94885   5.431   8.125   9.046  1.6044  1.3629 -0.0963
  719MOL0     H94886   5.583   8.193   8.791  1.4720 -0.2739  1.1282
  719MOL0     H94887   5.553   8.295   8.917  1.1361 -0.3034  0.1161
  719MOL0     H94888   5.689   8.034   8.972 -0.3525  0.5173 -1.5972
  719MOL0     H94889   5.690   8.177   9.078  1.7688 -0.9102  0.7315
  719MOL0     H94890   5.586   7.713   8.674  4.0168 -1.7976 -0.3161
  719MOL0     H94891   5.792   7.728   8.577  0.4264 -0.6349 -1.2226
  719MOL0     H94892   5.973   7.916   8.138 -0.0672 -1.1298  0.7662
  719MOL0     H94893   6.152   7.989   8.003  2.8583  0.0422 -1.0212
  719MOL0     H94894   8.246   7.286   7.216 -2.0936  2.8492 -1.0747
  719MOL0     H94895   8.475   7.348   7.154  2.0071 -1.2824  2.4473
  719MOL0     H94896   8.808   7.441   7.080  0.1045 -3.7036 -0.2518
  719MOL0     H94897   9.033   7.455   6.981 -0.4663  0.5250 -1.4060
  719MOL0     H94898   9.367   7.426   7.229 -1.5680 -0.7660 -0.3803
  719MOL0     H94899   9.386   7.597   7.217 -0.8920  1.5452 -0.5734
  719MOL0     H94900   9.571   7.454   7.133  0.2432  0.6297 -0.1660
  719MOL0     H94901   9.478   7.403   6.993  0.7554 -2.3759  1.7747
  719MOL0     H94902   9.489   7.701   7.027 -0.0607  0.3524 -1.5097
  719MOL0     H94903   9.503   7.601   6.882 -0.1975  0.3369  0.2114
  719MOL0     H94904   9.725   7.655   7.084  1.8328  0.2432 -0.6700
  719MOL0     H94905   9.742   7.524   6.969  0.2914  0.2995 -1.1068
  719MOL0     H94906   9.826   7.862   6.738  1.2873 -0.1405  0.0989
  719MOL0     H94907   9.196   7.618   7.337  0.8451  0.4695 -2.1256
  719MOL0     H94908   8.970   7.622   7.440  1.2470 -0.4010 -0.1688
  720MOL0     O94909   9.951   2.258   5.608  0.5057 -0.2674  0.1126
  720MOL0     C94910  10.000   2.142   5.611 -0.3091 -0.5581 -0.2462
  720MOL0     O94911   9.928   2.030   5.622  0.6336 -0.2500  0.0958
  720MOL0     C94912   9.790   2.045   5.618 -0.2488 -0.5501  0.3219
  720MOL0     C94913   9.720   1.972   5.518  0.3495  0.5695  0.0782
  720MOL0     C94914   9.589   1.984   5.503  0.8706  0.3169  0.0827
  720MOL0     C94915   9.512   2.056   5.592  0.2391  0.0708 -0.1392
  720MOL0     O94916   9.381   2.062   5.576  0.2623  0.6034  0.8472
  720MOL0     C94917   9.323   2.193   5.569  0.3254 -0.5956 -0.6117
  720MOL0     C94918   9.201   2.184   5.482  0.8248 -0.0320 -0.2123
  720MOL0     C94919   9.085   2.104   5.555 -0.6876 -0.3460  0.2408
  720MOL0     C94920   8.953   2.143   5.500  0.1695  0.3474 -0.5923
  720MOL0     C94921   8.851   2.085   5.598 -0.5778  0.1022 -0.2261
  720MOL0     C94922   8.709   2.115   5.543  0.4859  0.5261  0.5873
  720MOL0     C94923   8.615   2.000   5.581 -0.2051  0.3597  0.2244
  720MOL0     C94924   8.482   2.013   5.505  0.8707 -0.3310  0.3536
  720MOL0     N94925   8.398   2.134   5.549  0.1652 -0.4606 -0.3850
  720MOL0     C94926   8.298   2.137   5.639  0.5555 -0.3106  0.3852
  720MOL0     C94927   8.225   2.249   5.611  1.0677 -0.2720  0.4661
  720MOL0     C94928   8.090   2.297   5.677 -0.6422  0.6426  0.3075
  720MOL0     C94929   7.988   2.190   5.696 -0.7393 -0.7457  0.1427
  720MOL0     C94930   8.013   2.099   5.816 -0.0503  0.1398 -0.7949
  720MOL0     C94931   7.874   2.053   5.871 -0.0505  0.1509  0.4572
  720MOL0     O94932   7.819   1.934   5.817 -0.1649  0.5485 -0.4942
  720MOL0     C94933   7.687   1.908   5.834 -0.3099 -0.0825 -0.4393
  720MOL0     C94934   7.632   1.810   5.760  0.3192 -0.4997  0.9797
  720MOL0     C94935   7.505   1.766   5.781 -0.0481 -0.0794 -0.5923
  720MOL0     C94936   7.425   1.833   5.881  0.1871 -0.9293 -0.2497
  720MOL0     C94937   7.290   1.803   5.903  1.0303  0.7072 -0.5968
  720MOL0     O94938   7.233   1.832   6.027 -0.1828  0.2735  0.1062
  720MOL0     C94939   7.098   1.807   6.044  0.3488 -0.1456  0.1464
  720MOL0     C94940   6.998   1.874   5.971 -0.1346  1.0563  0.2862
  720MOL0     C94941   6.868   1.869   6.018  0.2474 -0.4536 -0.3577
  720MOL0     C94942   6.825   1.798   6.132 -0.4344 -0.7525 -0.8690
  720MOL0     O94943   6.693   1.792   6.181  0.9765  0.2154  0.1902
  720MOL0     C94944   6.585   1.866   6.117  0.3730  0.2614 -0.0440
  720MOL0     C94945   6.571   2.007   6.172  0.3262  0.9374  0.2343
  720MOL0     C94946   6.486   2.014   6.306 -0.3087 -0.4177 -0.0504
  720MOL0     C94947   6.343   1.955   6.298  0.8374  0.1825  0.3033
  720MOL0     C94948   6.246   2.028   6.400 -0.4084 -0.3373  0.0409
  720MOL0     C94949   6.109   1.961   6.399 -0.4763 -0.1608 -0.9046
  720MOL0     C94950   6.031   1.975   6.270  0.3206  1.1862  0.9655
  720MOL0     C94951   5.874   1.956   6.281 -0.7000 -0.1583 -0.1372
  720MOL0    Cl94952   5.811   2.115   6.344 -0.2879  0.5287  0.0526
  720MOL0     C94953   6.929   1.729   6.197  0.0272  1.1267 -0.6257
  720MOL0     C94954   7.066   1.733   6.157 -0.1059 -0.3699  0.2325
  720MOL0     O94955   7.226   1.773   5.799 -0.0297 -0.1144  0.0308
  720MOL0     C94956   7.478   1.933   5.961 -0.4305  0.0308 -0.0324
  720MOL0     C94957   7.608   1.975   5.933 -0.4566  0.4586 -0.6012
  720MOL0     N94958   8.290   2.321   5.519  0.3374  0.4042  0.6099
  720MOL0     N94959   8.390   2.250   5.473  0.6195  0.5233 -0.1291
  720MOL0     C94960   9.574   2.123   5.694  0.4403  0.3226  0.2862
  720MOL0     C94961   9.708   2.115   5.711 -0.0474  0.3324 -0.3855
  720MOL0     C94962  10.138   2.124   5.569  0.1378 -0.3384 -0.5086
  720MOL0     C94963  10.204   2.005   5.590  0.0872 -0.0835 -0.3618
  720MOL0     C94964  10.345   1.993   5.568 -0.2445  0.0418 -0.2672
  720MOL0     C94965  10.415   2.095   5.509  0.4087 -0.3051  0.6865
  720MOL0     O94966  10.540   2.050   5.484 -1.1731  0.2153  0.0436
  720MOL0     C94967  10.630   2.143   5.418 -0.1956 -0.2129 -0.1170
  720MOL0     C94968  10.770   2.095   5.386  0.3894  0.4391  0.8180
  720MOL0     C94969  10.865   2.102   5.503 -1.3680  0.7223  0.5771
  720MOL0     C94970  11.012   2.067   5.453  0.1958  0.8048  0.6634
  720MOL0     C94971  11.072   2.150   5.344 -0.0958 -0.1229  0.9649
  720MOL0     C94972  11.131   2.208   5.256 -0.5540  0.1969 -0.3138
  720MOL0     C94973  10.346   2.217   5.484  0.5894 -0.8202  0.0387
  720MOL0     C94974  10.221   2.225   5.522 -0.3977 -0.6270  0.8198
  720MOL0     H94975   9.784   1.925   5.443 -0.9001 -2.6609  0.8980
  720MOL0     H94976   9.528   1.939   5.425  0.9489  1.4710 -0.6672
  720MOL0     H94977   9.399   2.268   5.543 -0.6513  0.1375 -1.4395
  720MOL0     H94978   9.280   2.230   5.662 -0.9010 -0.0698 -1.3601
  720MOL0     H94979   9.236   2.146   5.385  2.1488 -0.7216  0.4986
  720MOL0     H94980   9.169   2.287   5.467  3.2454  1.3917  3.0309
  720MOL0     H94981   9.082   2.123   5.663 -0.8023 -1.2391  0.4036
  720MOL0     H94982   9.098   1.997   5.537 -0.9966 -0.0525 -1.9455
  720MOL0     H94983   8.943   2.252   5.501 -1.5219  0.2522  1.7172
  720MOL0     H94984   8.953   2.107   5.397  0.4280  1.5566 -1.0290
  720MOL0     H94985   8.865   2.147   5.688 -0.6476  3.3063 -2.2541
  720MOL0     H94986   8.869   1.980   5.622  1.9276  0.4951 -0.1414
  720MOL0     H94987   8.715   2.127   5.434 -1.4204  1.3704  0.5385
  720MOL0     H94988   8.670   2.207   5.586  1.3921  0.6934  1.0763
  720MOL0     H94989   8.662   1.901   5.571  0.9025  1.0030 -1.2567
  720MOL0     H94990   8.605   2.008   5.690 -0.1402 -2.3827  0.4951
  720MOL0     H94991   8.414   1.927   5.503  0.9443 -0.3851  0.1379
  720MOL0     H94992   8.511   2.027   5.401 -0.1249 -0.7471  0.0043
  720MOL0     H94993   8.265   2.060   5.708 -0.8715  0.6037  0.7600
  720MOL0     H94994   8.048   2.383   5.624  1.2882  0.0882 -2.3056
  720MOL0     H94995   8.107   2.336   5.778 -0.3615  0.3912  0.3585
  720MOL0     H94996   7.980   2.128   5.606  0.0234 -1.0705  0.2881
  720MOL0     H94997   7.894   2.246   5.693  0.4812  1.3784 -0.5280
  720MOL0     H94998   8.086   2.019   5.803 -1.3853 -1.6131  1.5873
  720MOL0     H94999   8.049   2.162   5.898  1.7337 -1.4635 -0.2703
  720MOL0     H95000   7.802   2.134   5.862  1.9614  1.9355 -0.6639
  720MOL0     H95001   7.891   2.037   5.978  3.0857  0.6707  0.1457
  720MOL0     H95002   7.693   1.767   5.681 -1.2748  0.0102 -0.6152
  720MOL0     H95003   7.481   1.675   5.726  0.5860 -0.1190 -0.8084
  720MOL0     H95004   7.027   1.929   5.882  3.7499 -1.7576 -0.4456
  720MOL0     H95005   6.794   1.929   5.965 -1.1146 -1.0916  0.7393
  720MOL0     H95006   6.491   1.817   6.143  0.0420 -0.0307 -1.7017
  720MOL0     H95007   6.589   1.844   6.010  0.8570 -4.0262  0.6744
  720MOL0     H95008   6.508   2.058   6.098  0.9467  3.3155  1.2691
  720MOL0     H95009   6.665   2.059   6.191  0.2240  0.5742  1.8405
  720MOL0     H95010   6.478   2.121   6.328 -1.9306 -0.6081  0.4793
  720MOL0     H95011   6.531   1.950   6.383  2.0220  1.7463  0.5130
  720MOL0     H95012   6.297   1.947   6.199  1.5483  0.2895 -0.0426
  720MOL0     H95013   6.355   1.849   6.320  2.0925 -0.0679 -1.4100
  720MOL0     H95014   6.243   2.134   6.374  1.2269 -0.3602 -0.3285
  720MOL0     H95015   6.298   2.025   6.496 -0.2800  1.1449  0.0335
  720MOL0     H95016   6.057   2.018   6.477 -1.2479 -2.4900  0.3868
  720MOL0     H95017   6.130   1.858   6.431  1.3604  0.4291 -0.0606
  720MOL0     H95018   6.052   2.073   6.226 -0.9966  1.1741  0.2512
  720MOL0     H95019   6.064   1.895   6.203 -0.9383  0.3181  1.3480
  720MOL0     H95020   5.846   1.875   6.349 -2.3153 -1.2345 -1.9880
  720MOL0     H95021   5.823   1.926   6.189  1.6065 -1.8057 -0.9807
  720MOL0     H95022   6.896   1.664   6.278 -1.1353 -1.2007 -2.8189
  720MOL0     H95023   7.145   1.682   6.211  0.1653 -0.2210 -0.0169
  720MOL0     H95024   7.418   1.972   6.043 -0.4634  0.8592 -0.4501
  720MOL0     H95025   7.653   2.055   5.990  2.4489 -0.5740 -1.2843
  720MOL0     H95026   9.510   2.178   5.762  0.0742  0.0967  0.1272
  720MOL0     H95027   9.759   2.166   5.792  2.7989 -0.4920 -1.5290
  720MOL0     H95028  10.142   1.927   5.633 -1.4858 -0.0694 -2.4344
  720MOL0     H95029  10.393   1.898   5.587  1.8962  0.8396 -1.3517
  720MOL0     H95030  10.636   2.237   5.473 -1.4141 -0.0937 -0.1665
  720MOL0     H95031  10.589   2.163   5.319 -2.7471 -0.5750  0.8126
  720MOL0     H95032  10.757   1.992   5.351 -0.4930  0.1991  1.7784
  720MOL0     H95033  10.817   2.140   5.298 -0.6404 -4.5825 -2.7467
  720MOL0     H95034  10.840   2.030   5.581 -1.6158 -0.3565 -0.4586
  720MOL0     H95035  10.868   2.202   5.547  0.6160  1.4090 -0.9536
  720MOL0     H95036  11.071   2.063   5.545  1.8991 -0.5277 -0.4337
  720MOL0     H95037  10.994   1.964   5.418 -0.8747  1.2959 -0.2915
  720MOL0     H95038  11.188   2.255   5.178 -2.4159 -1.1565 -2.6204
  720MOL0     H95039  10.394   2.305   5.441 -0.4771  0.5490  1.4942
  720MOL0     H95040  10.172   2.321   5.511  1.5311  0.2067 -1.4619
  721MOL0     O95041   1.005   2.544   7.160  0.2764  0.4613  0.5215
  721MOL0     C95042   1.070   2.561   7.055  0.1731 -1.3979 -0.1138
  721MOL0     O95043   1.018   2.601   6.934  0.7232  0.1565  0.2580
  721MOL0     C95044   0.880   2.615   6.918 -0.0215 -0.0798 -0.2283
  721MOL0     C95045   0.829   2.742   6.932  0.6973  0.2951  0.1660
  721MOL0     C95046   0.695   2.774   6.916  0.1091 -0.5980 -0.7198
  721MOL0     C95047   0.612   2.676   6.879  1.4795  0.4251  0.1299
  721MOL0     O95048   0.482   2.710   6.863  0.1853  0.5952  0.0048
  721MOL0     C95049   0.374   2.613   6.890  0.0067  0.1211  0.2551
  721MOL0     C95050   0.237   2.696   6.868  0.0924  0.0377 -0.2694
  721MOL0     C95051   0.195   2.772   6.994 -0.2778 -0.5508  0.6055
  721MOL0     C95052   0.115   2.899   6.951 -0.3312  0.7149 -0.4001
  721MOL0     C95053   0.085   2.993   7.067 -0.4301 -0.4398 -0.3246
  721MOL0     C95054  -0.007   2.941   7.181  0.6153 -0.5572  0.0722
  721MOL0     C95055  -0.131   2.863   7.131  0.4904  0.6927 -0.4712
  721MOL0     C95056  -0.222   2.957   7.045  0.2017  0.0904  0.0369
  721MOL0     N95057  -0.254   3.085   7.109 -0.4987  0.3535  0.0645
  721MOL0     C95058  -0.337   3.094   7.214 -0.7716  0.3529  0.0017
  721MOL0     C95059  -0.337   3.221   7.244  0.4419  0.0813  0.0164
  721MOL0     C95060  -0.425   3.275   7.350 -0.0353  0.0679 -0.5299
  721MOL0     C95061  -0.562   3.295   7.292  0.7185 -0.4083 -0.4316
  721MOL0     C95062  -0.651   3.339   7.409 -0.4707 -0.2113 -1.0935
  721MOL0     C95063  -0.799   3.346   7.394  0.9474  0.5733  0.2275
  721MOL0     O95064  -0.856   3.218   7.368 -0.6473  0.6039 -0.6434
  721MOL0     C95065  -0.972   3.193   7.437  0.4890 -0.1391  0.9629
  721MOL0     C95066  -1.093   3.197   7.370  0.4746 -0.6028  0.1883
  721MOL0     C95067  -1.209   3.178   7.447  0.3007  0.0269 -1.1239
  721MOL0     C95068  -1.209   3.147   7.590 -1.0296  0.3648  0.7238
  721MOL0     C95069  -1.339   3.137   7.665  0.3769  0.3037  0.5054
  721MOL0     O95070  -1.448   3.200   7.625 -0.1247 -0.0812 -0.5187
  721MOL0     C95071  -1.564   3.156   7.675  0.3860 -0.2499 -0.2743
  721MOL0     C95072  -1.648   3.061   7.606 -0.4845  0.2952 -1.2755
  721MOL0     C95073  -1.771   3.021   7.661 -0.0805 -0.5070 -1.0192
  721MOL0     C95074  -1.810   3.071   7.788  0.2266 -0.2455  0.6626
  721MOL0     O95075  -1.929   3.051   7.846  0.6806  0.7249 -0.0004
  721MOL0     C95076  -2.013   2.949   7.792 -0.9787  0.5569 -0.6313
  721MOL0     C95077  -2.133   2.919   7.878 -0.2319 -1.1491  0.1517
  721MOL0     C95078  -2.203   3.058   7.912  0.0411 -0.3719 -0.4311
  721MOL0     C95079  -2.278   3.032   8.039  1.4366  0.6002 -0.2243
  721MOL0     C95080  -2.406   2.942   8.017  0.3746 -1.0501 -0.0367
  721MOL0     C95081  -2.489   2.926   8.148  0.3104 -0.2322  0.7799
  721MOL0     C95082  -2.613   2.834   8.125  0.2917 -0.7846  0.1424
  721MOL0     C95083  -2.730   2.892   8.034 -0.6238  0.5156 -1.3195
  721MOL0    Cl95084  -2.827   2.995   8.137  0.3472 -0.3158 -0.2525
  721MOL0     C95085  -1.723   3.157   7.857 -1.0974 -0.5472  0.0343
  721MOL0     C95086  -1.610   3.201   7.797  0.2720 -0.1143  0.4236
  721MOL0     O95087  -1.334   3.050   7.756  0.5313 -0.4000  0.7562
  721MOL0     C95088  -1.082   3.143   7.652 -0.6653 -0.8744 -0.6465
  721MOL0     C95089  -0.966   3.171   7.580  0.4266  1.2145 -0.4170
  721MOL0     N95090  -0.249   3.287   7.154  0.3845  0.1185 -0.0219
  721MOL0     N95091  -0.209   3.202   7.069 -0.5297 -0.1593 -0.3758
  721MOL0     C95092   0.661   2.545   6.853 -0.2914  0.1660 -0.4842
  721MOL0     C95093   0.794   2.513   6.877  0.1047 -0.2451 -0.1205
  721MOL0     C95094   1.218   2.559   7.076  0.7221  0.3934 -0.8921
  721MOL0     C95095   1.271   2.531   7.204  0.9394  0.4256  0.3867
  721MOL0     C95096   1.400   2.537   7.231  0.2773 -0.5846  0.1803
  721MOL0     C95097   1.489   2.577   7.132  0.2008 -0.0763 -0.1684
  721MOL0     O95098   1.623   2.562   7.182 -0.0014 -0.0723 -0.2590
  721MOL0     C95099   1.734   2.608   7.102  0.0827  0.3871 -0.4735
  721MOL0     C95100   1.862   2.579   7.171 -0.8960  0.0568  0.4650
  721MOL0     C95101   1.995   2.574   7.095  1.0708  0.7083  0.1041
  721MOL0     C95102   2.101   2.525   7.190 -0.2880  0.1205 -0.0577
  721MOL0     C95103   2.230   2.524   7.127  0.7064  0.7908 -0.3702
  721MOL0     C95104   2.336   2.514   7.079 -0.0218 -0.0005  0.5068
  721MOL0     C95105   1.447   2.604   6.998 -0.3481  0.0498 -0.7133
  721MOL0     C95106   1.305   2.600   6.973 -0.4038  0.3087 -0.3916
  721MOL0     H95107   0.897   2.824   6.957 -1.1149  1.2012  2.5753
  721MOL0     H95108   0.676   2.876   6.948 -1.4682 -1.3480  0.9476
  721MOL0     H95109   0.378   2.571   6.991 -1.7590  0.0637  0.3353
  721MOL0     H95110   0.385   2.526   6.824 -1.2014 -0.5675  0.9329
  721MOL0     H95111   0.163   2.618   6.851 -0.8803  0.0034  3.3577
  721MOL0     H95112   0.252   2.767   6.786  4.3832  0.0507  0.2648
  721MOL0     H95113   0.286   2.797   7.050  1.3559 -0.8755 -1.7692
  721MOL0     H95114   0.128   2.716   7.060  1.4057 -0.9870  2.0264
  721MOL0     H95115   0.169   2.949   6.870  2.0309 -2.1557 -0.7792
  721MOL0     H95116   0.017   2.863   6.919  0.7251 -1.6415 -1.2319
  721MOL0     H95117   0.031   3.073   7.015  0.5329 -0.5057 -1.4627
  721MOL0     H95118   0.170   3.046   7.110 -1.6227  1.7434 -0.4835
  721MOL0     H95119  -0.041   3.028   7.239 -2.0550 -0.5349 -1.3264
  721MOL0     H95120   0.049   2.879   7.252 -0.0127 -0.9265  0.2546
  721MOL0     H95121  -0.097   2.778   7.071 -1.9724  0.5617 -1.8259
  721MOL0     H95122  -0.193   2.820   7.209 -1.6701 -2.3426 -3.5500
  721MOL0     H95123  -0.316   2.904   7.030  0.0230  0.1398  0.9308
  721MOL0     H95124  -0.168   2.965   6.950  2.4255  0.8196  1.2895
  721MOL0     H95125  -0.390   3.014   7.265  1.7548 -0.5037  1.4794
  721MOL0     H95126  -0.395   3.377   7.375 -2.3392  0.3808  1.2168
  721MOL0     H95127  -0.421   3.207   7.436  0.2156  2.0514  1.0911
  721MOL0     H95128  -0.601   3.200   7.255 -2.9599  0.5846  0.5201
  721MOL0     H95129  -0.558   3.375   7.218  0.0706  0.4118  0.3943
  721MOL0     H95130  -0.613   3.274   7.488  3.0127  1.2887 -1.3361
  721MOL0     H95131  -0.609   3.435   7.440  0.0965  0.2175 -3.0419
  721MOL0     H95132  -0.834   3.405   7.309  0.1308  0.8368  0.7370
  721MOL0     H95133  -0.843   3.395   7.481 -0.7773 -2.2684  1.0924
  721MOL0     H95134  -1.104   3.232   7.267  0.1570  1.4721  0.8789
  721MOL0     H95135  -1.309   3.185   7.406 -1.4455  0.0222  2.7394
  721MOL0     H95136  -1.618   3.021   7.510  2.1539 -1.6937  0.1930
  721MOL0     H95137  -1.841   2.958   7.607 -0.0502 -2.0399  0.6656
  721MOL0     H95138  -1.959   2.853   7.784 -0.9947  0.0407  3.4694
  721MOL0     H95139  -2.053   2.975   7.693 -1.2463  1.5416 -0.2677
  721MOL0     H95140  -2.100   2.869   7.969  0.8036  1.3676  1.2638
  721MOL0     H95141  -2.202   2.856   7.820 -2.3015  0.6607  0.4826
  721MOL0     H95142  -2.262   3.092   7.826 -0.1266  0.0827 -0.1389
  721MOL0     H95143  -2.125   3.132   7.927  1.7171 -1.8783 -1.3642
  721MOL0     H95144  -2.231   2.976   8.120 -1.3845 -0.6034  0.7004
  721MOL0     H95145  -2.314   3.130   8.071  2.5122  0.5650  1.2016
  721MOL0     H95146  -2.383   2.845   7.972  1.3881 -1.6209  1.6261
  721MOL0     H95147  -2.468   2.999   7.947 -0.5543 -3.3457 -1.1754
  721MOL0     H95148  -2.510   3.031   8.171  4.4707  0.4188  2.4435
  721MOL0     H95149  -2.432   2.897   8.236 -1.7068  0.2032  2.3124
  721MOL0     H95150  -2.567   2.742   8.088 -0.4529 -1.1199  0.0275
  721MOL0     H95151  -2.658   2.819   8.224  0.8927  2.1684  0.9821
  721MOL0     H95152  -2.793   2.805   8.012  0.9561 -1.1549  0.3973
  721MOL0     H95153  -2.694   2.945   7.945  1.6742 -0.4208 -1.0312
  721MOL0     H95154  -1.746   3.199   7.954 -0.5800  1.9015 -0.8371
  721MOL0     H95155  -1.547   3.274   7.846  2.0371  0.5549 -2.5854
  721MOL0     H95156  -1.072   3.117   7.757 -0.0490 -1.5476 -0.8606
  721MOL0     H95157  -0.868   3.170   7.626 -0.0588  2.0668  0.6786
  721MOL0     H95158   0.607   2.458   6.818 -0.6339  0.3424 -0.4048
  721MOL0     H95159   0.837   2.417   6.853 -0.3563 -0.0636 -1.7617
  721MOL0     H95160   1.204   2.496   7.281 -0.1089  0.1874 -0.6154
  721MOL0     H95161   1.436   2.494   7.323  2.0027  1.4122  0.5351
  721MOL0     H95162   1.725   2.712   7.070 -2.3427  0.6769  0.8311
  721MOL0     H95163   1.714   2.548   7.013 -2.0941  1.8149 -1.0210
  721MOL0     H95164   1.877   2.652   7.251 -1.8539  0.6039  0.1560
  721MOL0     H95165   1.845   2.489   7.231 -1.9640 -0.3274 -0.3859
  721MOL0     H95166   2.024   2.669   7.049  0.4020  0.1485 -1.5386
  721MOL0     H95167   1.989   2.501   7.014  0.2639  0.0140  0.7752
  721MOL0     H95168   2.110   2.595   7.273 -0.7746  1.4956 -1.1238
  721MOL0     H95169   2.083   2.425   7.229  2.1932 -0.0673  0.7807
  721MOL0     H95170   2.430   2.515   7.028 -0.0292  2.1678  0.4564
  721MOL0     H95171   1.516   2.617   6.915 -0.6930  0.0633 -1.0040
  721MOL0     H95172   1.261   2.621   6.876 -0.0634  4.2227  0.1376
  722MOL0     O95173   2.112  10.991   6.922  0.8351 -0.2520  0.3339
  722MOL0     C95174   2.129  10.947   7.034 -0.2531 -0.5659  0.2091
  722MOL0     O95175   2.035  10.883   7.115  1.0855  0.1924  0.0587
  722MOL0     C95176   1.919  10.845   7.066 -0.1674 -0.0599  0.4553
  722MOL0     C95177   1.916  10.742   6.970  0.2860 -0.0364 -0.2153
  722MOL0     C95178   1.790  10.702   6.927  1.2362 -0.6530 -0.3282
  722MOL0     C95179   1.666  10.771   6.955  0.0830 -0.3436 -1.1632
  722MOL0     O95180   1.557  10.754   6.883 -0.6360  0.6540 -0.3948
  722MOL0     C95181   1.505  10.621   6.868  0.7612 -0.8920 -0.0013
  722MOL0     C95182   1.364  10.634   6.791  0.1183 -0.4286  0.2506
  722MOL0     C95183   1.251  10.597   6.889 -0.1335  0.4640  0.2259
  722MOL0     C95184   1.118  10.620   6.827  0.6092 -0.8248 -0.6020
  722MOL0     C95185   1.007  10.571   6.920 -0.4037  0.2051  0.0061
  722MOL0     C95186   0.866  10.619   6.895 -0.4481 -0.1516  0.0750
  722MOL0     C95187   0.802  10.538   6.784  0.5566 -0.0018  0.1184
  722MOL0     C95188   0.672  10.616   6.747  0.1894 -0.0838 -0.1306
  722MOL0     N95189   0.576  10.632   6.861 -0.4772  0.4336  0.2760
  722MOL0     C95190   0.523  10.537   6.941 -0.0795 -0.0897 -0.1559
  722MOL0     C95191   0.438  10.608   7.031 -0.7249  0.2934  0.1780
  722MOL0     C95192   0.352  10.544   7.140 -0.3361 -0.7947 -0.5811
  722MOL0     C95193   0.201  10.524   7.107  0.6049 -0.5347  0.1108
  722MOL0     C95194   0.112  10.644   7.126 -0.2376 -0.2919 -0.0617
  722MOL0     C95195  -0.031  10.613   7.098 -0.5216  1.5603  0.2721
  722MOL0     O95196  -0.110  10.731   7.117 -0.4504 -0.8568  0.9831
  722MOL0     C95197  -0.241  10.710   7.080 -0.5718  0.5398  0.5767
  722MOL0     C95198  -0.334  10.654   7.162  0.0789  0.8553  0.3394
  722MOL0     C95199  -0.468  10.647   7.117  0.1528  0.0221 -0.6890
  722MOL0     C95200  -0.509  10.698   6.987 -0.4587  0.8057  0.4862
  722MOL0     C95201  -0.651  10.693   6.939  0.1205 -0.5693 -0.7476
  722MOL0     O95202  -0.744  10.669   7.041  0.0054 -0.5347 -0.4988
  722MOL0     C95203  -0.875  10.662   7.008 -0.4697  0.0268  0.1447
  722MOL0     C95204  -0.942  10.596   6.814 -0.2750  0.0049 -0.3355
  722MOL0     C95205  -1.155  10.590   6.773  0.0854  0.6652 -0.6901
  722MOL0     C95206  -1.291  10.652   6.919 -0.9099  0.4318 -0.3252
  722MOL0     O95207  -1.426  10.653   6.905 -0.8473  0.5660 -0.5336
  722MOL0     C95208  -1.466  10.603   6.774 -0.3540 -0.2044  0.5123
  722MOL0     C95209  -1.619  10.572   6.760 -0.7650 -0.6087  0.8462
  722MOL0     C95210  -1.660  10.502   6.891 -0.2144  0.3090  0.2657
  722MOL0     C95211  -1.813  10.468   6.881 -1.3251  0.3363  0.3118
  722MOL0     C95212  -1.857  10.361   6.983 -0.8114 -0.1561 -0.4415
  722MOL0     C95213  -2.010  10.362   7.002  0.0141  0.8384  0.3351
  722MOL0     C95214  -2.072  10.289   6.889 -0.1987  0.0315 -0.2201
  722MOL0     C95215  -2.131  10.161   6.945 -0.7551  0.6119 -0.1207
  722MOL0    Cl95216  -2.215  10.088   6.811  0.2475  0.2070 -0.3048
  722MOL0     C95217  -1.225  10.716   7.112  0.1713  0.2795  0.1947
  722MOL0     C95218  -1.015  10.719   7.152 -0.3342 -0.9688 -0.4362
  722MOL0     O95219  -0.671  10.688   6.816  0.3194  0.5702 -0.7207
  722MOL0     C95220  -0.403  10.750   6.904  0.2884 -0.0623 -1.1058
  722MOL0     C95221  -0.272  10.751   6.959  0.1669  0.0825  0.4194
  722MOL0     N95222   0.452  10.744   6.993  0.4140  0.3904 -0.0084
  722MOL0     N95223   0.537  10.753   6.899  0.3190 -0.0375  0.0216
  722MOL0     C95224   1.683  10.878   7.043 -0.0926 -0.4298 -0.1143
  722MOL0     C95225   1.803  10.915   7.105  0.2214  0.6019  0.3869
  722MOL0     C95226   2.266  10.955   7.081  0.1092 -0.2171  1.0167
  722MOL0     C95227   2.370  10.976   6.994  0.2572  0.2024 -0.7456
  722MOL0     C95228   2.501  10.988   7.040  0.4520  0.4755 -0.0314
  722MOL0     C95229   2.533  10.974   7.180 -0.3939 -0.1343  0.6179
  722MOL0     O95230   2.659  10.978   7.239  0.0845 -0.4580  0.2944
  722MOL0     C95231   2.768  10.978   7.154  0.0839  0.9891 -1.1266
  722MOL0     C95232   2.901  10.974   7.216 -0.4492 -0.6990 -0.7651
  722MOL0     C95233   2.916  10.885   7.340 -0.4778 -0.2472 -0.3146
  722MOL0     C95234   3.065  10.864   7.388 -0.3854 -0.4654 -1.3763
  722MOL0     C95235   3.063  10.794   7.524  0.0920  0.0389 -0.3756
  722MOL0     C95236   3.060  10.723   7.621  0.4179 -0.1204 -0.4408
  722MOL0     C95237   2.427  10.946   7.257  0.5105 -0.1551 -0.7098
  722MOL0     C95238   2.290  10.938   7.212 -0.1125  0.2093 -0.0103
  722MOL0     H95239   2.003  10.700   6.921 -0.7320 -1.4662 -0.8610
  722MOL0     H95240   1.777  10.621   6.856 -0.8535  0.2038 -0.9784
  722MOL0     H95241   1.494  10.575   6.966  0.0330 -0.0492  0.3335
  722MOL0     H95242   1.571  10.556   6.810 -0.3002 -0.6587 -1.5459
  722MOL0     H95243   1.369  10.565   6.707 -1.7559  0.6490 -0.8142
  722MOL0     H95244   1.341  10.727   6.738 -0.2883  0.0017  1.1730
  722MOL0     H95245   1.264  10.648   6.985  0.1648 -0.4385  0.6806
  722MOL0     H95246   1.256  10.490   6.912  0.0092  0.3809 -0.1678
  722MOL0     H95247   1.103  10.728   6.822 -0.4725 -1.0096 -2.3805
  722MOL0     H95248   1.106  10.576   6.728  2.9178 -1.8996 -0.4619
  722MOL0     H95249   1.038  10.618   7.014  3.5544 -0.7282 -0.6591
  722MOL0     H95250   1.014  10.461   6.920 -0.7800  0.1552  1.5370
  722MOL0     H95251   0.871  10.727   6.879 -2.8693 -0.1171 -0.7526
  722MOL0     H95252   0.809  10.604   6.987 -1.6862 -0.8132 -0.7757
  722MOL0     H95253   0.856  10.536   6.689  0.1744 -0.9711 -0.0843
  722MOL0     H95254   0.789  10.436   6.820  3.3599  0.3806  2.6566
  722MOL0     H95255   0.626  10.550   6.673 -0.2267 -2.4139  2.0497
  722MOL0     H95256   0.698  10.714   6.707 -0.0528  0.2621  0.5471
  722MOL0     H95257   0.542  10.431   6.925 -0.1926 -0.0154 -0.8245
  722MOL0     H95258   0.361  10.608   7.228  2.4116 -0.2587 -1.1904
  722MOL0     H95259   0.406  10.456   7.177  1.2137 -0.0456 -0.9986
  722MOL0     H95260   0.154  10.444   7.164 -0.4954 -1.9030 -2.5316
  722MOL0     H95261   0.198  10.484   7.005  0.1730 -3.0270  1.0503
  722MOL0     H95262   0.117  10.692   7.224 -1.0777 -0.9262  0.3121
  722MOL0     H95263   0.142  10.723   7.058 -0.8640  2.6163  2.8141
  722MOL0     H95264  -0.071  10.524   7.147  1.7442  0.1928 -0.1909
  722MOL0     H95265  -0.038  10.578   6.995  0.2861 -0.3067  0.8138
  722MOL0     H95266  -0.314  10.627   7.265 -1.5547 -0.2616  0.3990
  722MOL0     H95267  -0.537  10.606   7.190 -0.2893  1.7273 -0.1133
  722MOL0     H95268  -0.874  10.563   6.736  0.5030  1.5383 -0.3412
  722MOL0     H95269  -1.185  10.552   6.676  2.8098 -2.0140 -0.6491
  722MOL0     H95270  -1.409  10.511   6.756 -0.6544 -0.3700  0.3934
  722MOL0     H95271  -1.440  10.682   6.703 -0.7518 -2.0323 -1.8049
  722MOL0     H95272  -1.649  10.516   6.671 -1.0376  1.1914 -0.2261
  722MOL0     H95273  -1.672  10.667   6.764  0.0115 -0.2029  1.9466
  722MOL0     H95274  -1.645  10.562   6.982 -1.0572  0.4152  0.3450
  722MOL0     H95275  -1.612  10.404   6.897 -1.2702 -0.1932  0.8467
  722MOL0     H95276  -1.864  10.565   6.881 -1.3326  0.3550 -1.1197
  722MOL0     H95277  -1.828  10.424   6.782  0.8636  0.7070 -0.2364
  722MOL0     H95278  -1.811  10.393   7.078 -1.3231 -1.1610  0.1548
  722MOL0     H95279  -1.815  10.265   6.953  0.3929  0.2056  0.0099
  722MOL0     H95280  -2.049  10.463   6.987 -0.5381  0.6285  0.3655
  722MOL0     H95281  -2.047  10.327   7.098 -0.1973 -0.2947 -0.1429
  722MOL0     H95282  -2.146  10.356   6.843 -0.7355 -0.9227 -0.7760
  722MOL0     H95283  -1.999  10.269   6.811 -0.2782  3.3619 -1.3097
  722MOL0     H95284  -2.206  10.179   7.023  1.0285 -3.4672  2.9057
  722MOL0     H95285  -2.061  10.089   6.988  1.4729  2.6313 -0.1845
  722MOL0     H95286  -1.293  10.748   7.190  0.7503 -0.7579  1.1561
  722MOL0     H95287  -0.992  10.769   7.246  0.7512  0.1898 -1.3024
  722MOL0     H95288  -0.426  10.784   6.803  1.0600  1.7439 -0.7128
  722MOL0     H95289  -0.202  10.805   6.896 -0.2032 -0.5049 -0.5235
  722MOL0     H95290   1.604  10.951   7.058  1.0421  0.3095  3.0315
  722MOL0     H95291   1.804  11.003   7.169 -0.2031  3.2203 -2.9653
  722MOL0     H95292   2.355  10.990   6.888  0.8045 -0.5958 -0.9373
  722MOL0     H95293   2.570  11.028   6.967  1.2622  0.3305  0.6358
  722MOL0     H95294   2.757  11.065   7.089 -2.1819  1.2029 -0.5352
  722MOL0     H95295   2.765  10.886   7.094  0.4112  1.0784 -1.2854
  722MOL0     H95296   2.963  10.923   7.142  0.4387 -2.4587  1.0917
  722MOL0     H95297   2.933  11.076   7.239 -0.6300 -0.9371  0.6319
  722MOL0     H95298   2.853  10.796   7.334 -3.1581  1.5841 -1.0698
  722MOL0     H95299   2.867  10.942   7.419  1.5209 -0.8163  1.4008
  722MOL0     H95300   3.135  10.810   7.324 -0.0026 -1.1703 -0.3843
  722MOL0     H95301   3.117  10.958   7.411  0.2688 -1.3453  1.0374
  722MOL0     H95302   3.062  10.660   7.708 -2.1758 -2.5091 -1.9332
  722MOL0     H95303   2.438  10.940   7.364  0.2846  0.1206 -0.6699
  722MOL0     H95304   2.205  10.933   7.279 -2.7515 -3.0645 -3.1681
  723MOL0     O95305   1.874   9.239   7.134  0.3761  0.0823 -0.1676
  723MOL0     C95306   1.937   9.308   7.062 -0.5058 -0.0167 -0.2668
  723MOL0     O95307   1.883   9.405   6.973  0.3383 -0.1001  0.1021
  723MOL0     C95308   1.753   9.387   6.932 -0.6627 -0.0467 -0.2915
  723MOL0     C95309   1.731   9.355   6.798  0.1574  0.3167 -0.4067
  723MOL0     C95310   1.601   9.337   6.752 -1.1047 -0.0010  0.3613
  723MOL0     C95311   1.485   9.352   6.837 -0.1091 -0.3829  0.1858
  723MOL0     O95312   1.358   9.317   6.789 -0.1651 -0.0131 -0.2029
  723MOL0     C95313   1.300   9.208   6.867  0.8805 -0.3088 -0.4697
  723MOL0     C95314   1.174   9.272   6.919  0.4503  1.0284  0.3756
  723MOL0     C95315   1.090   9.155   6.990  0.8733 -0.4608 -0.1384
  723MOL0     C95316   0.957   9.201   7.045  0.9818  0.0132 -0.2332
  723MOL0     C95317   0.904   9.088   7.129  0.8531  1.0656 -0.5712
  723MOL0     C95318   0.765   9.112   7.200 -1.2192  1.2806 -0.3674
  723MOL0     C95319   0.656   9.165   7.107  0.8328  0.8887 -0.0736
  723MOL0     C95320   0.516   9.192   7.174 -0.6642 -0.1490  0.0559
  723MOL0     N95321   0.447   9.068   7.205  0.1042 -0.7202  0.8088
  723MOL0     C95322   0.361   9.004   7.120  0.0797 -0.1752  0.3245
  723MOL0     C95323   0.326   8.895   7.189  0.1141 -0.3329  0.9717
  723MOL0     C95324   0.264   8.782   7.116 -0.1633  0.4915  0.5450
  723MOL0     C95325   0.239   8.663   7.215  0.2751 -0.4802 -0.1519
  723MOL0     C95326   0.095   8.658   7.280 -0.8214 -0.3962  0.3187
  723MOL0     C95327  -0.012   8.624   7.181  0.6143 -0.3203  0.2546
  723MOL0     O95328  -0.013   8.484   7.161  0.6780  0.2251 -0.4084
  723MOL0     C95329  -0.143   8.435   7.169  0.4586  0.9990  0.8712
  723MOL0     C95330  -0.232   8.444   7.058 -0.5168 -0.0784 -0.6249
  723MOL0     C95331  -0.366   8.409   7.064  0.2560 -1.1280  0.8979
  723MOL0     C95332  -0.413   8.368   7.190  0.4377 -0.4177  0.5018
  723MOL0     C95333  -0.554   8.320   7.207  0.0178  0.1205 -0.3828
  723MOL0     O95334  -0.631   8.383   7.303 -0.4078  0.1357  0.4312
  723MOL0     C95335  -0.765   8.354   7.317 -0.2007  0.1670  0.5760
  723MOL0     C95336  -0.847   8.337   7.210 -0.6413  0.3227 -0.0875
  723MOL0     C95337  -0.977   8.306   7.234  0.3811  0.4153 -0.1487
  723MOL0     C95338  -1.037   8.296   7.364  0.6195  0.2670 -0.1568
  723MOL0     O95339  -1.173   8.275   7.366  0.0928 -0.5676 -1.1193
  723MOL0     C95340  -1.240   8.280   7.493  0.4097 -0.4695  0.0708
  723MOL0     C95341  -1.382   8.214   7.487 -0.8292 -1.0043  0.4539
  723MOL0     C95342  -1.448   8.225   7.623  0.1768  0.0098  0.8986
  723MOL0     C95343  -1.601   8.221   7.617 -0.4873  0.3860 -0.0262
  723MOL0     C95344  -1.657   8.078   7.587 -0.5238 -0.6582  0.3721
  723MOL0     C95345  -1.806   8.073   7.637  0.4498  0.2856  0.5970
  723MOL0     C95346  -1.866   7.932   7.594  1.1993 -0.2173 -0.2613
  723MOL0     C95347  -2.018   7.927   7.625 -0.3684  0.5093 -0.5713
  723MOL0    Cl95348  -2.061   7.760   7.627  0.5008 -0.0619  0.3030
  723MOL0     C95349  -0.950   8.320   7.475  0.3386 -0.4306 -0.9685
  723MOL0     C95350  -0.819   8.361   7.449  0.3802  0.2075 -0.8154
  723MOL0     O95351  -0.592   8.226   7.133  0.0649 -0.1586  0.4076
  723MOL0     C95352  -0.327   8.351   7.297 -0.5100 -0.0718  0.7411
  723MOL0     C95353  -0.193   8.380   7.288 -0.0133  0.5128  0.6214
  723MOL0     N95354   0.379   8.902   7.311 -0.2507 -0.5743 -0.2542
  723MOL0     N95355   0.457   9.004   7.324 -0.2126  0.1992 -0.0041
  723MOL0     C95356   1.509   9.391   6.967 -0.0758 -0.4058 -0.6062
  723MOL0     C95357   1.641   9.413   7.012 -0.6951  0.1154  0.6284
  723MOL0     C95358   2.081   9.321   7.100  1.0211 -0.5399 -0.4785
  723MOL0     C95359   2.136   9.254   7.215 -0.7666  0.1401 -0.5735
  723MOL0     C95360   2.272   9.266   7.243  0.3016  0.1661 -0.4685
  723MOL0     C95361   2.359   9.343   7.159  0.8691 -0.0274 -0.0928
  723MOL0     O95362   2.495   9.363   7.186 -0.5493 -0.7074 -0.2247
  723MOL0     C95363   2.562   9.316   7.314 -0.2433  0.2247  0.5138
  723MOL0     C95364   2.519   9.409   7.432  0.0894 -0.4518  0.6137
  723MOL0     C95365   2.568   9.355   7.572 -0.5760 -0.4164  0.0107
  723MOL0     C95366   2.536   9.442   7.691 -0.7082  0.8911 -0.2988
  723MOL0     C95367   2.391   9.460   7.704  0.7107  0.8630  0.4854
  723MOL0     C95368   2.272   9.469   7.725  0.0695  0.7912 -1.0848
  723MOL0     C95369   2.302   9.410   7.046  0.1067 -0.5798  0.1524
  723MOL0     C95370   2.164   9.394   7.018 -1.0616 -0.2349 -0.5514
  723MOL0     H95371   1.816   9.346   6.732  1.6835 -1.6558  1.7030
  723MOL0     H95372   1.590   9.306   6.648  0.2322 -1.4646  0.6208
  723MOL0     H95373   1.369   9.184   6.948 -1.6326 -0.9739  1.6161
  723MOL0     H95374   1.280   9.114   6.815 -0.1896 -0.7941  0.7548
  723MOL0     H95375   1.110   9.302   6.835  0.7580  0.2553 -0.1517
  723MOL0     H95376   1.184   9.357   6.987  2.5113  1.6181 -0.5859
  723MOL0     H95377   1.152   9.104   7.064  2.2742 -0.8807 -1.5328
  723MOL0     H95378   1.065   9.081   6.914 -0.6203  0.1423 -0.2719
  723MOL0     H95379   0.965   9.284   7.115  3.4519 -0.0410 -0.3635
  723MOL0     H95380   0.894   9.226   6.959 -0.4416  0.7805  0.9985
  723MOL0     H95381   0.983   9.067   7.201 -0.2698  0.0376  0.4141
  723MOL0     H95382   0.888   8.997   7.070  0.0053 -1.5120  3.3086
  723MOL0     H95383   0.781   9.161   7.297  1.5479 -0.4510  0.1546
  723MOL0     H95384   0.739   9.009   7.226 -1.2656  1.3363 -0.1929
  723MOL0     H95385   0.687   9.260   7.064  1.3156 -0.2255 -2.3482
  723MOL0     H95386   0.640   9.106   7.017  0.0375 -0.8949  1.1691
  723MOL0     H95387   0.462   9.251   7.099  0.2286  2.0282  1.0291
  723MOL0     H95388   0.536   9.256   7.261 -1.3924 -0.2181  0.2773
  723MOL0     H95389   0.331   9.048   7.025  0.2801  2.2425  1.2973
  723MOL0     H95390   0.342   8.749   7.047  0.5820 -1.2015  2.0856
  723MOL0     H95391   0.173   8.815   7.065 -0.0558  1.6026  1.0501
  723MOL0     H95392   0.325   8.659   7.282 -2.1891  1.5107  3.4906
  723MOL0     H95393   0.246   8.568   7.160 -2.4082 -0.9669  0.2212
  723MOL0     H95394   0.085   8.584   7.360 -4.7396 -0.7978 -0.3692
  723MOL0     H95395   0.073   8.757   7.322  1.0326  0.6964 -1.1353
  723MOL0     H95396   0.023   8.663   7.085 -0.5270  1.3202  0.4676
  723MOL0     H95397  -0.109   8.665   7.211 -1.0186 -1.2996 -3.2466
  723MOL0     H95398  -0.189   8.488   6.968 -1.2203 -0.1159 -0.9831
  723MOL0     H95399  -0.439   8.433   6.987 -0.5357 -0.8765  1.7216
  723MOL0     H95400  -0.811   8.334   7.107 -1.5747 -2.7831 -0.4251
  723MOL0     H95401  -1.035   8.285   7.145  0.5089 -0.6683  0.0116
  723MOL0     H95402  -1.254   8.388   7.506  0.9308 -0.3920  0.0071
  723MOL0     H95403  -1.175   8.240   7.571  1.2373  0.8504  0.0981
  723MOL0     H95404  -1.369   8.111   7.454 -1.1219 -0.6730 -0.7532
  723MOL0     H95405  -1.441   8.268   7.412  1.2127 -0.1933 -0.6325
  723MOL0     H95406  -1.423   8.325   7.660 -0.2867  0.0073  1.2385
  723MOL0     H95407  -1.423   8.152   7.700  1.6906 -0.8696 -0.3793
  723MOL0     H95408  -1.646   8.251   7.712 -1.5074 -0.4873 -0.2208
  723MOL0     H95409  -1.637   8.296   7.546 -1.9663 -1.7288 -1.6500
  723MOL0     H95410  -1.597   7.999   7.634  1.3023  0.5643  0.1973
  723MOL0     H95411  -1.660   8.068   7.478 -1.1033  1.9744  0.0901
  723MOL0     H95412  -1.861   8.157   7.593  0.3570 -0.9426 -1.7828
  723MOL0     H95413  -1.811   8.083   7.746  1.0125  0.2451  0.6340
  723MOL0     H95414  -1.858   7.922   7.486  1.9278 -2.5044 -0.0511
  723MOL0     H95415  -1.813   7.847   7.638  1.7729  0.5388  0.5517
  723MOL0     H95416  -2.076   7.984   7.552 -2.2054 -1.8688 -1.1334
  723MOL0     H95417  -2.026   7.975   7.723  1.1762  0.1475 -0.2390
  723MOL0     H95418  -0.988   8.306   7.575  0.7165 -1.3849 -0.9399
  723MOL0     H95419  -0.753   8.393   7.530  1.1404 -0.3473 -1.2071
  723MOL0     H95420  -0.361   8.310   7.391  1.0809 -0.3745  1.2169
  723MOL0     H95421  -0.125   8.380   7.372  1.4610 -3.9988 -0.3177
  723MOL0     H95422   1.425   9.410   7.033 -0.1019 -0.3418 -0.6567
  723MOL0     H95423   1.649   9.447   7.114  1.0972  2.3059 -0.1731
  723MOL0     H95424   2.077   9.189   7.279  0.3486 -0.0780  0.2608
  723MOL0     H95425   2.311   9.228   7.337 -0.1336 -0.1343 -0.4102
  723MOL0     H95426   2.670   9.328   7.304 -0.1338 -2.0695 -2.6392
  723MOL0     H95427   2.540   9.212   7.338  1.3528  0.3649  3.0016
  723MOL0     H95428   2.540   9.515   7.413 -0.7216  0.1208  2.6184
  723MOL0     H95429   2.411   9.403   7.422  0.1889  0.0974 -1.0952
  723MOL0     H95430   2.676   9.338   7.576 -0.6786 -0.9904  0.4317
  723MOL0     H95431   2.508   9.267   7.599 -1.3056  0.6666  2.1422
  723MOL0     H95432   2.584   9.414   7.785 -1.8396  0.2741  0.1079
  723MOL0     H95433   2.584   9.535   7.658  0.5780 -0.0237 -1.0615
  723MOL0     H95434   2.169   9.477   7.754  0.6017 -1.1856  1.8652
  723MOL0     H95435   2.367   9.460   6.975 -1.1544 -3.2843 -3.2035
  723MOL0     H95436   2.111   9.438   6.934 -2.4306  1.6829  1.2017
  724MOL0     O95437   9.673   0.619   2.018  0.1518  0.3589  0.4475
  724MOL0     C95438   9.793   0.626   1.982  0.2870 -0.6354 -0.3211
  724MOL0     O95439   9.900   0.628   2.064  0.0254  0.2940 -0.0510
  724MOL0     C95440   9.888   0.641   2.203 -0.5420 -0.4079 -0.0840
  724MOL0     C95441   9.916   0.528   2.286 -0.2582  0.4338  0.0605
  724MOL0     C95442   9.930   0.537   2.424 -0.5202 -0.5597  0.5946
  724MOL0     C95443   9.906   0.661   2.485 -1.1827  0.4184 -0.1996
  724MOL0     O95444   9.923   0.690   2.618  0.2546 -0.5852 -0.2298
  724MOL0     C95445   9.952   0.582   2.710  0.3764  0.0663  0.3326
  724MOL0     C95446   9.815   0.514   2.733  0.3897  0.3003  0.0709
  724MOL0     C95447   9.707   0.595   2.792 -0.0878  0.3984  0.5973
  724MOL0     C95448   9.601   0.516   2.867  0.5650 -0.2855 -0.5808
  724MOL0     C95449   9.645   0.482   3.017 -0.1724  0.9387  1.1246
  724MOL0     C95450   9.600   0.594   3.101  0.3715  0.0906 -0.5220
  724MOL0     C95451   9.632   0.570   3.241 -0.2392  0.5069  0.4712
  724MOL0     C95452   9.519   0.483   3.298  0.1200  0.5593 -0.3526
  724MOL0     N95453   9.554   0.418   3.428 -0.1953 -0.0266  0.8180
  724MOL0     C95454   9.471   0.334   3.503 -0.1541 -0.0209  0.0532
  724MOL0     C95455   9.556   0.303   3.615 -1.1521  0.0287  0.1238
  724MOL0     C95456   9.528   0.224   3.735  0.4724 -0.0735 -0.9794
  724MOL0     C95457   9.548   0.319   3.852 -0.4816 -0.0011  0.5675
  724MOL0     C95458   9.482   0.266   3.971 -0.1383  0.8441  1.2988
  724MOL0     C95459   9.486   0.370   4.087 -0.1201  0.1216 -1.1594
  724MOL0     O95460   9.428   0.492   4.065  0.0414  0.3955 -0.3980
  724MOL0     C95461   9.287   0.509   4.069 -0.7212 -0.5559  0.1352
  724MOL0     C95462   9.200   0.413   4.120  0.5711  0.1239  0.7891
  724MOL0     C95463   9.057   0.434   4.113 -0.4271 -0.0048 -0.4261
  724MOL0     C95464   9.004   0.557   4.069 -0.3463 -0.1241 -0.3991
  724MOL0     C95465   8.859   0.589   4.071  0.6773  0.3318 -0.4345
  724MOL0     O95466   8.770   0.507   4.138 -0.1055 -0.2298  0.2045
  724MOL0     C95467   8.646   0.562   4.167  0.0351 -0.0667  0.0636
  724MOL0     C95468   8.555   0.599   4.069 -0.8082 -0.0559 -0.6103
  724MOL0     C95469   8.430   0.633   4.098 -0.1815  0.1074  0.1587
  724MOL0     C95470   8.376   0.628   4.229 -0.2905  1.0625 -0.2129
  724MOL0     O95471   8.251   0.642   4.266  0.1004 -0.2147 -0.0404
  724MOL0     C95472   8.145   0.673   4.169  0.1903 -0.1449  0.0283
  724MOL0     C95473   8.015   0.668   4.237 -0.5196  0.3483 -0.5616
  724MOL0     C95474   7.901   0.743   4.167 -0.1178  0.1214  0.2264
  724MOL0     C95475   7.766   0.707   4.230  0.3587 -0.6578  0.1571
  724MOL0     C95476   7.643   0.775   4.155  0.0575 -0.4071 -0.2824
  724MOL0     C95477   7.510   0.728   4.202  0.0633  0.6609 -0.7242
  724MOL0     C95478   7.395   0.784   4.130  0.5273 -0.2310 -0.0361
  724MOL0     C95479   7.269   0.782   4.219 -0.1868  0.1279  0.9437
  724MOL0    Cl95480   7.214   0.615   4.239  0.5680  0.3350 -0.8602
  724MOL0     C95481   8.465   0.583   4.332 -0.7276  0.0824 -0.0034
  724MOL0     C95482   8.599   0.562   4.301 -0.1843  0.3067 -0.6174
  724MOL0     O95483   8.821   0.678   4.011  0.1858 -0.0376 -0.2002
  724MOL0     C95484   9.096   0.652   4.020  0.3043  0.0821 -0.3882
  724MOL0     C95485   9.235   0.629   4.023  0.3491  0.1698 -0.1202
  724MOL0     N95486   9.681   0.361   3.589 -0.6252  0.2786 -0.4025
  724MOL0     N95487   9.675   0.434   3.484  0.4314  0.3171  0.3282
  724MOL0     C95488   9.877   0.773   2.414 -0.3361 -0.2192  0.4484
  724MOL0     C95489   9.859   0.764   2.273 -1.1901  0.4454  0.0445
  724MOL0     C95490   9.815   0.608   1.846 -0.1012  0.1670  0.7272
  724MOL0     C95491   9.708   0.574   1.755  0.2749 -0.1687 -0.1409
  724MOL0     C95492   9.735   0.550   1.619 -0.7067 -0.1564 -0.6618
  724MOL0     C95493   9.860   0.575   1.572  0.3981  0.7536  0.4737
  724MOL0     O95494   9.882   0.570   1.438  0.0607  0.9021 -0.1720
  724MOL0     C95495   9.991   0.637   1.374 -0.5403 -0.5323 -0.8206
  724MOL0     C95496  10.097   0.532   1.358 -0.1366  0.6688 -0.2007
  724MOL0     C95497  10.061   0.430   1.250 -0.1431  0.5536  0.3227
  724MOL0     C95498  10.169   0.336   1.204  0.5677  0.0329  0.9608
  724MOL0     C95499  10.291   0.395   1.152 -0.5758 -0.3983  0.8088
  724MOL0     C95500  10.398   0.447   1.116 -0.1180 -0.2542  0.0150
  724MOL0     C95501   9.960   0.616   1.660  0.1853 -0.9701  0.9393
  724MOL0     C95502   9.936   0.641   1.794  0.0132 -0.1478  0.3910
  724MOL0     H95503   9.938   0.439   2.227  0.6888  0.6220  0.1196
  724MOL0     H95504   9.959   0.448   2.478  1.4128  0.0863  0.6835
  724MOL0     H95505   9.988   0.620   2.806  0.4164  2.1025 -0.4232
  724MOL0     H95506  10.038   0.529   2.667  1.8307  0.7215  2.2992
  724MOL0     H95507   9.827   0.436   2.809 -1.1041  1.3734  1.4645
  724MOL0     H95508   9.787   0.459   2.642 -1.4336  0.5287  0.4525
  724MOL0     H95509   9.660   0.635   2.702  2.4259  1.5548 -0.3077
  724MOL0     H95510   9.749   0.678   2.850  2.2590  1.1199 -1.9138
  724MOL0     H95511   9.503   0.564   2.866  0.0066 -1.4028 -1.1756
  724MOL0     H95512   9.577   0.425   2.812  0.0491  0.8126 -2.2507
  724MOL0     H95513   9.752   0.463   3.018  0.0768  2.1645  0.0913
  724MOL0     H95514   9.590   0.391   3.044 -0.5795 -0.1960 -2.9197
  724MOL0     H95515   9.492   0.614   3.098 -0.0951 -1.6909  1.3831
  724MOL0     H95516   9.659   0.681   3.074 -1.9853  2.3981  1.2491
  724MOL0     H95517   9.733   0.528   3.238 -0.4979 -0.1837 -2.9989
  724MOL0     H95518   9.624   0.658   3.305 -1.8040  0.1213  0.8551
  724MOL0     H95519   9.478   0.408   3.230 -2.4485  2.1482 -0.6548
  724MOL0     H95520   9.434   0.540   3.336 -1.5905 -3.5521  2.7510
  724MOL0     H95521   9.369   0.303   3.482 -0.0299 -1.7220  1.6930
  724MOL0     H95522   9.588   0.133   3.744  0.3216 -0.0850  0.1161
  724MOL0     H95523   9.424   0.190   3.731  1.0858 -1.9823 -1.8236
  724MOL0     H95524   9.486   0.407   3.831 -2.8379 -1.8190 -0.5490
  724MOL0     H95525   9.654   0.343   3.865 -0.3375 -0.2184 -0.1865
  724MOL0     H95526   9.381   0.227   3.955  0.4834 -0.2993 -0.0795
  724MOL0     H95527   9.538   0.176   3.998  0.0012  0.1437 -1.0742
  724MOL0     H95528   9.594   0.383   4.100 -0.3746  1.2980 -0.0149
  724MOL0     H95529   9.445   0.314   4.171  1.1154  0.4285 -0.3176
  724MOL0     H95530   9.230   0.321   4.169  0.3370 -0.6740 -0.5090
  724MOL0     H95531   8.988   0.355   4.141 -0.8106  0.5486  0.1961
  724MOL0     H95532   8.586   0.593   3.965 -0.4480 -4.0771 -0.4355
  724MOL0     H95533   8.368   0.666   4.015  3.3126  4.6392 -1.0159
  724MOL0     H95534   8.158   0.597   4.091 -0.7196  1.2844 -1.5874
  724MOL0     H95535   8.147   0.771   4.121 -2.7896  1.1114  2.1504
  724MOL0     H95536   8.020   0.697   4.342  0.8770  0.8680 -0.7483
  724MOL0     H95537   7.985   0.563   4.231  0.0343  0.2462 -1.8423
  724MOL0     H95538   7.899   0.721   4.060 -0.5887 -0.4565  0.3433
  724MOL0     H95539   7.927   0.848   4.178  0.4506  0.4359 -3.1006
  724MOL0     H95540   7.748   0.600   4.219  0.9756 -0.7113 -0.3569
  724MOL0     H95541   7.766   0.736   4.336  0.0705  1.3332 -0.3519
  724MOL0     H95542   7.650   0.743   4.050 -2.6893  0.8293 -0.9373
  724MOL0     H95543   7.651   0.884   4.160 -0.3828 -0.3865  0.0475
  724MOL0     H95544   7.501   0.736   4.311  0.0816 -2.3878 -0.3885
  724MOL0     H95545   7.518   0.621   4.181 -0.1323  0.6377 -0.6872
  724MOL0     H95546   7.423   0.884   4.095  2.3363 -1.2894 -1.8138
  724MOL0     H95547   7.372   0.731   4.037 -2.2136  1.9322 -0.7310
  724MOL0     H95548   7.190   0.827   4.159  0.5922  1.8026  1.1318
  724MOL0     H95549   7.271   0.835   4.314  1.8784  2.0012 -0.0419
  724MOL0     H95550   8.423   0.570   4.431 -0.6085 -2.8069 -0.2550
  724MOL0     H95551   8.665   0.526   4.380  0.2393  1.3304 -0.4805
  724MOL0     H95552   9.065   0.750   3.985  0.2664  0.4722  0.7021
  724MOL0     H95553   9.302   0.708   3.993  1.8653 -0.0542  2.4128
  724MOL0     H95554   9.866   0.868   2.466  2.3771 -0.4761  1.6928
  724MOL0     H95555   9.824   0.839   2.202 -0.7555 -0.5482 -1.2520
  724MOL0     H95556   9.608   0.552   1.789  1.5216 -4.1788  1.5793
  724MOL0     H95557   9.659   0.527   1.546 -1.5683 -0.1256  0.2043
  724MOL0     H95558  10.040   0.720   1.425 -0.8316 -2.0816  2.1730
  724MOL0     H95559   9.956   0.679   1.279 -2.3714 -0.1625 -0.0297
  724MOL0     H95560  10.186   0.585   1.322  0.9173 -0.3222  0.8332
  724MOL0     H95561  10.126   0.492   1.456 -3.4830 -0.6665  0.3782
  724MOL0     H95562  10.030   0.478   1.156 -2.1274  1.3065  1.3116
  724MOL0     H95563   9.987   0.358   1.288  1.4434 -0.5239  1.4733
  724MOL0     H95564  10.205   0.262   1.275 -0.5686 -0.4016  1.0992
  724MOL0     H95565  10.123   0.280   1.122  1.4360 -1.2031  1.2896
  724MOL0     H95566  10.486   0.476   1.062  0.0708  2.2294  1.5168
  724MOL0     H95567  10.062   0.630   1.626 -0.3277 -0.2015 -0.3612
  724MOL0     H95568  10.015   0.678   1.858  0.4084  0.9565 -0.7084
  725MOL0     O95569   2.472   1.352   8.425  0.0811  0.1416  1.1171
  725MOL0     C95570   2.483   1.254   8.496  0.5142  0.1212  0.1190
  725MOL0     O95571   2.374   1.179   8.547  0.3091  0.3915  0.9894
  725MOL0     C95572   2.242   1.197   8.534  0.3193 -0.9695 -1.0915
  725MOL0     C95573   2.151   1.099   8.580 -0.1889  0.3514 -0.2529
  725MOL0     C95574   2.014   1.109   8.557 -0.3754 -0.1739  0.4397
  725MOL0     C95575   1.961   1.226   8.501 -0.3116  1.1385 -0.7885
  725MOL0     O95576   1.826   1.258   8.477 -1.4887 -0.1364  0.5103
  725MOL0     C95577   1.727   1.146   8.508 -0.6015 -0.6586  0.5834
  725MOL0     C95578   1.602   1.197   8.459  0.3302  0.2519  0.5727
  725MOL0     C95579   1.555   1.320   8.531 -0.2985 -0.1633 -0.8587
  725MOL0     C95580   1.398   1.341   8.506  0.1059  0.2733  0.5016
  725MOL0     C95581   1.334   1.436   8.598 -0.8049 -0.1551 -0.6293
  725MOL0     C95582   1.180   1.460   8.577  0.8146 -0.7861 -0.5167
  725MOL0     C95583   1.164   1.606   8.619  0.6499  0.4531  0.0201
  725MOL0     C95584   1.017   1.627   8.644 -0.6931  0.1626 -0.5310
  725MOL0     N95585   0.995   1.750   8.699  0.5456  0.3680  0.4894
  725MOL0     C95586   0.996   1.783   8.834  0.0968  0.0507 -0.4013
  725MOL0     C95587   0.934   1.907   8.846  0.5702  0.0584  0.9526
  725MOL0     C95588   0.919   1.995   8.969 -0.1312 -0.3084  0.0461
  725MOL0     C95589   0.788   2.076   8.966  0.2311  0.3104  0.0988
  725MOL0     C95590   0.667   1.975   8.977 -0.4283 -0.0770  0.2780
  725MOL0     C95591   0.533   2.034   9.007 -0.0023 -0.3840  0.3541
  725MOL0     O95592   0.443   1.936   9.060  0.0966 -0.9857  0.3060
  725MOL0     C95593   0.326   1.967   9.118  0.2172 -0.1989  0.8385
  725MOL0     C95594   0.284   2.101   9.131 -0.1653  0.3018 -0.1390
  725MOL0     C95595   0.174   2.139   9.199 -0.3244  0.6737 -0.0364
  725MOL0     C95596   0.099   2.042   9.266  0.0018  0.1321  0.0215
  725MOL0     C95597  -0.009   2.095   9.351  0.4686  1.0049  0.2668
  725MOL0     O95598  -0.054   2.218   9.330  0.3940 -1.2205 -0.3298
  725MOL0     C95599  -0.157   2.282   9.395  0.5155  0.1983  0.6934
  725MOL0     C95600  -0.194   2.264   9.528  0.4780  0.5169  0.1373
  725MOL0     C95601  -0.299   2.333   9.575  0.3084  0.0353 -0.4000
  725MOL0     C95602  -0.357   2.436   9.499  0.4270  0.0567 -0.1757
  725MOL0     O95603  -0.458   2.519   9.541 -0.3139  0.0783  0.8711
  725MOL0     C95604  -0.519   2.503   9.665  0.0232  0.2676 -0.3255
  725MOL0     C95605  -0.628   2.618   9.670  0.1180  0.5682  0.5923
  725MOL0     C95606  -0.679   2.631   9.811 -0.2374 -0.1499  1.5067
  725MOL0     C95607  -0.774   2.760   9.821 -1.0034  0.0381 -0.2328
  725MOL0     C95608  -0.833   2.771   9.966 -0.1855 -0.3889 -0.1462
  725MOL0     C95609  -0.892   2.907   9.994 -0.0428  0.0521  0.1300
  725MOL0     C95610  -0.970   2.903  10.128  1.1297  0.1989 -0.0931
  725MOL0     C95611  -1.037   3.036  10.143 -0.2402  0.4049  0.1785
  725MOL0    Cl95612  -1.111   3.038  10.303 -0.0148  0.2514  0.1553
  725MOL0     C95613  -0.314   2.457   9.366  0.2480  0.5591 -0.0997
  725MOL0     C95614  -0.218   2.374   9.315 -0.3901  0.3920 -0.5516
  725MOL0     O95615  -0.069   2.012   9.425 -1.3230  0.3247  0.3389
  725MOL0     C95616   0.128   1.902   9.244 -0.2858  0.2272  0.0337
  725MOL0     C95617   0.243   1.864   9.171 -0.0570 -0.3244 -0.1500
  725MOL0     N95618   0.887   1.944   8.719 -0.4968  0.1884 -0.2757
  725MOL0     N95619   0.923   1.850   8.637 -0.1766  0.1948 -0.4478
  725MOL0     C95620   2.050   1.318   8.461  0.2757 -0.5994  0.2970
  725MOL0     C95621   2.184   1.302   8.467  0.6039  0.6816  0.6536
  725MOL0     C95622   2.615   1.221   8.552 -0.7314 -0.7025 -0.1544
  725MOL0     C95623   2.734   1.289   8.516 -0.1263  0.1399  0.6246
  725MOL0     C95624   2.863   1.253   8.560 -0.8746  0.3606  0.2521
  725MOL0     C95625   2.878   1.135   8.641  0.2743 -0.3838  0.4267
  725MOL0     O95626   3.000   1.118   8.706  0.0041  0.9626 -0.4481
  725MOL0     C95627   3.068   1.001   8.667  0.8138  0.5939  0.6311
  725MOL0     C95628   3.193   1.016   8.585 -0.6926 -0.8763 -0.9472
  725MOL0     C95629   3.302   1.119   8.641  0.7811  0.3569 -0.7355
  725MOL0     C95630   3.390   1.085   8.773  0.1301 -0.5743  0.5054
  725MOL0     C95631   3.303   1.064   8.880 -0.4350  0.3226  0.5139
  725MOL0     C95632   3.227   1.063   8.968 -0.2276 -0.1222  0.5259
  725MOL0     C95633   2.759   1.066   8.681  0.0835  0.2921  0.6650
  725MOL0     C95634   2.639   1.111   8.635 -0.6931  0.7092 -0.7682
  725MOL0     H95635   2.188   1.017   8.640 -2.4446 -0.8570 -0.4155
  725MOL0     H95636   1.950   1.029   8.591 -2.2007  1.2414  0.4807
  725MOL0     H95637   1.714   1.133   8.616 -1.1802 -0.7706  0.5060
  725MOL0     H95638   1.749   1.048   8.464  0.2768 -0.0108 -0.4616
  725MOL0     H95639   1.536   1.111   8.474 -1.7099  1.4645 -0.9762
  725MOL0     H95640   1.620   1.216   8.353 -1.7973  0.2731  0.1738
  725MOL0     H95641   1.619   1.404   8.503  2.7966 -1.6004  1.3623
  725MOL0     H95642   1.567   1.296   8.637 -0.3458  1.3683 -0.4814
  725MOL0     H95643   1.389   1.379   8.403 -0.2541 -1.8103 -0.2842
  725MOL0     H95644   1.352   1.242   8.505  0.5786  0.0481  0.8464
  725MOL0     H95645   1.400   1.523   8.588  2.5184 -2.2468  1.2020
  725MOL0     H95646   1.356   1.407   8.701 -0.9230 -0.4653 -0.6925
  725MOL0     H95647   1.120   1.395   8.643 -2.7559 -0.4842 -3.1903
  725MOL0     H95648   1.148   1.443   8.474 -2.2315  1.7019 -0.1208
  725MOL0     H95649   1.241   1.643   8.687  2.3431  5.7387 -4.0555
  725MOL0     H95650   1.193   1.659   8.527 -2.7666 -1.7099 -2.5667
  725MOL0     H95651   0.973   1.549   8.707 -2.5647  1.6928  0.1392
  725MOL0     H95652   0.969   1.622   8.546 -2.1747 -1.7221  0.2370
  725MOL0     H95653   1.053   1.725   8.905 -0.0674 -1.5698 -1.5487
  725MOL0     H95654   1.006   2.062   8.966  0.3525 -0.4670  4.5125
  725MOL0     H95655   0.932   1.933   9.058  0.4593  1.4986  1.2798
  725MOL0     H95656   0.784   2.143   8.879 -0.3316 -1.2940 -1.1592
  725MOL0     H95657   0.782   2.152   9.044 -4.1905 -0.2508  0.5727
  725MOL0     H95658   0.649   1.908   8.893  1.1552 -1.4504  0.9844
  725MOL0     H95659   0.686   1.906   9.059  0.6493 -0.2301 -0.0778
  725MOL0     H95660   0.489   2.077   8.916  1.0010  0.3300  0.1954
  725MOL0     H95661   0.552   2.110   9.083  0.3613  2.5902 -2.5056
  725MOL0     H95662   0.345   2.174   9.080  0.3259 -1.1799 -1.7396
  725MOL0     H95663   0.140   2.242   9.200 -1.4087  0.4049  3.4063
  725MOL0     H95664  -0.148   2.185   9.586  2.5335  1.1273 -0.5445
  725MOL0     H95665  -0.336   2.313   9.675 -2.4033 -1.7872 -1.6465
  725MOL0     H95666  -0.447   2.524   9.744  0.6530  0.0272 -0.8232
  725MOL0     H95667  -0.560   2.402   9.679  2.4229 -0.7364 -0.0694
  725MOL0     H95668  -0.712   2.607   9.601  0.2793  0.2720  0.4389
  725MOL0     H95669  -0.574   2.707   9.637 -0.5509  0.0966 -1.9789
  725MOL0     H95670  -0.592   2.636   9.877  2.8041 -0.2983 -2.1656
  725MOL0     H95671  -0.739   2.542   9.828  0.9989 -1.6002 -1.1299
  725MOL0     H95672  -0.728   2.854   9.791 -1.6299  0.3451 -0.2404
  725MOL0     H95673  -0.855   2.747   9.748  0.3707  1.0054 -2.0175
  725MOL0     H95674  -0.752   2.753  10.038  0.9690  1.5336 -0.8990
  725MOL0     H95675  -0.914   2.698   9.973 -1.0155  0.6144  4.1015
  725MOL0     H95676  -0.961   2.941   9.916 -0.1587  1.4737  0.8204
  725MOL0     H95677  -0.815   2.985   9.997  1.4941 -1.1720 -2.8022
  725MOL0     H95678  -1.039   2.819  10.129 -0.2778  1.3293  0.5835
  725MOL0     H95679  -0.908   2.895  10.218 -0.2311  2.3966  1.1425
  725MOL0     H95680  -1.111   3.056  10.065  0.5163  0.3906 -0.5466
  725MOL0     H95681  -0.959   3.112  10.145  0.2311 -0.0687 -0.0664
  725MOL0     H95682  -0.356   2.536   9.305  0.1012  0.2492 -0.4073
  725MOL0     H95683  -0.161   2.393   9.225 -0.3064 -0.9373 -0.8013
  725MOL0     H95684   0.059   1.838   9.298  0.9859 -1.9487 -0.7936
  725MOL0     H95685   0.275   1.760   9.170  2.0787  0.2009  2.5502
  725MOL0     H95686   2.014   1.411   8.417  0.8694  0.2808  1.6003
  725MOL0     H95687   2.253   1.374   8.424  0.8808  0.8613  1.3978
  725MOL0     H95688   2.720   1.375   8.451  2.2759 -1.1116 -1.7395
  725MOL0     H95689   2.953   1.299   8.521 -1.3705 -0.4015 -1.9678
  725MOL0     H95690   2.996   0.948   8.604 -0.9165  2.2320  1.1528
  725MOL0     H95691   3.083   0.935   8.753  2.9464  0.6673  0.3790
  725MOL0     H95692   3.238   0.921   8.554 -0.2351 -0.3774 -1.8597
  725MOL0     H95693   3.175   1.065   8.489  1.2530  1.5725 -0.1632
  725MOL0     H95694   3.250   1.214   8.658  1.0104  0.5006 -0.8387
  725MOL0     H95695   3.372   1.138   8.559  0.9168  1.0300 -0.4637
  725MOL0     H95696   3.443   0.991   8.754 -0.6890 -1.1958  1.2136
  725MOL0     H95697   3.455   1.173   8.774 -0.4381  0.0774 -3.6331
  725MOL0     H95698   3.153   1.065   9.046 -0.6896  1.3584  0.0761
  725MOL0     H95699   2.768   0.978   8.744  1.1436 -0.9902 -1.1551
  725MOL0     H95700   2.555   1.045   8.655 -0.5910  0.8378  0.1338
  726MOL0     O95701   8.964   6.391   7.607  0.4374  0.2620  0.2054
  726MOL0     C95702   8.933   6.482   7.526 -0.0181 -0.4832 -0.1116
  726MOL0     O95703   9.023   6.555   7.460 -0.0371 -0.5883  0.4353
  726MOL0     C95704   9.155   6.555   7.502  0.3325  0.3087  0.6522
  726MOL0     C95705   9.228   6.675   7.504  0.2100  0.0003 -0.9974
  726MOL0     C95706   9.362   6.686   7.555 -0.1361  0.3915 -0.1762
  726MOL0     C95707   9.430   6.567   7.581  0.5908 -0.2521  0.1062
  726MOL0     O95708   9.559   6.585   7.623 -0.2431 -0.3981  0.2250
  726MOL0     C95709   9.658   6.527   7.537 -0.4888 -0.4055 -0.2331
  726MOL0     C95710   9.792   6.589   7.575  0.4411  0.2402  0.1198
  726MOL0     C95711   9.840   6.541   7.707 -0.2289  0.4526 -0.3515
  726MOL0     C95712   9.987   6.572   7.719  0.0715  0.3196 -0.4121
  726MOL0     C95713  10.031   6.528   7.861 -0.3908  0.7382 -0.4977
  726MOL0     C95714  10.182   6.549   7.869 -0.7040  0.6746 -0.4636
  726MOL0     C95715  10.244   6.539   8.011  0.0838 -0.0199  0.9618
  726MOL0     C95716  10.201   6.418   8.089  0.7648  0.4606  0.2588
  726MOL0     N95717  10.060   6.425   8.142 -1.1156 -0.1036 -0.0051
  726MOL0     C95718  10.010   6.495   8.249  0.3658 -0.4235 -0.6935
  726MOL0     C95719   9.897   6.427   8.294  0.4116  1.1773  0.0845
  726MOL0     C95720   9.804   6.485   8.399 -0.1528  0.1456  0.7717
  726MOL0     C95721   9.743   6.612   8.337 -0.2556  0.3233  0.2517
  726MOL0     C95722   9.667   6.692   8.447  0.2011  0.4038  0.7875
  726MOL0     C95723   9.522   6.641   8.465  0.2776 -0.2384 -0.1335
  726MOL0     O95724   9.455   6.719   8.560 -0.0911  0.3422  0.8873
  726MOL0     C95725   9.317   6.710   8.560 -0.2415 -0.2075  0.3814
  726MOL0     C95726   9.260   6.806   8.644  1.2033 -0.2284 -0.3320
  726MOL0     C95727   9.123   6.807   8.671  0.3837  0.5120  0.4861
  726MOL0     C95728   9.042   6.708   8.612 -0.3566  0.1748  0.1424
  726MOL0     C95729   8.897   6.697   8.636  0.5613  1.0765 -1.4181
  726MOL0     O95730   8.842   6.577   8.593  0.3336 -0.0853  0.4592
  726MOL0     C95731   8.707   6.543   8.591 -0.3333 -0.0311  0.6550
  726MOL0     C95732   8.681   6.403   8.588 -0.2748  0.1461  0.8357
  726MOL0     C95733   8.546   6.359   8.595 -0.3822 -0.5036  0.1872
  726MOL0     C95734   8.444   6.459   8.576 -0.4130  0.4958 -0.2837
  726MOL0     O95735   8.321   6.405   8.565  0.3811  0.1667  0.2945
  726MOL0     C95736   8.211   6.485   8.515  0.6404  0.3156  0.6653
  726MOL0     C95737   8.093   6.387   8.503  0.6322  0.4262 -0.2221
  726MOL0     C95738   7.964   6.459   8.456 -0.1928  0.2668 -0.6446
  726MOL0     C95739   7.861   6.352   8.426  0.8277  0.6067 -0.5814
  726MOL0     C95740   7.724   6.409   8.446  0.0059 -1.4583  0.4247
  726MOL0     C95741   7.610   6.318   8.394  0.7906  0.0640 -0.1079
  726MOL0     C95742   7.494   6.408   8.367 -0.2422  0.4800 -0.5339
  726MOL0     C95743   7.367   6.331   8.380  0.0621 -0.2345  0.1857
  726MOL0    Cl95744   7.381   6.176   8.292  0.2277  0.4996 -0.1497
  726MOL0     C95745   8.469   6.600   8.566  0.7340  0.7433 -0.5698
  726MOL0     C95746   8.605   6.636   8.573 -0.4260  0.0422 -0.0674
  726MOL0     O95747   8.831   6.781   8.702 -0.1647 -0.1614  0.4971
  726MOL0     C95748   9.098   6.612   8.521 -0.7912  0.1852  0.8122
  726MOL0     C95749   9.231   6.620   8.496  0.0363  1.1304  0.2122
  726MOL0     N95750   9.877   6.318   8.215 -0.0575  0.5887  0.2020
  726MOL0     N95751   9.959   6.331   8.121  0.0119  0.7876 -0.4182
  726MOL0     C95752   9.366   6.444   7.565  0.6006 -0.7364 -0.2269
  726MOL0     C95753   9.231   6.430   7.522 -0.0260  1.0947 -0.0717
  726MOL0     C95754   8.789   6.507   7.499 -0.1606 -0.2093 -0.4277
  726MOL0     C95755   8.750   6.590   7.397  0.2202 -0.5022 -0.2431
  726MOL0     C95756   8.610   6.616   7.364 -0.9830 -0.5771  0.2732
  726MOL0     C95757   8.507   6.542   7.436 -0.3725 -0.4302 -0.9473
  726MOL0     O95758   8.375   6.556   7.397 -0.1590 -0.4758 -0.2742
  726MOL0     C95759   8.259   6.500   7.464  0.2373  0.0261  0.0172
  726MOL0     C95760   8.246   6.572   7.600 -0.3477  0.7458 -0.5235
  726MOL0     C95761   8.120   6.543   7.681  0.0336  1.5857  0.5632
  726MOL0     C95762   7.995   6.564   7.598  0.0668  0.0878 -0.1546
  726MOL0     C95763   7.966   6.707   7.584 -0.1996 -0.2533 -0.2534
  726MOL0     C95764   7.936   6.821   7.570 -0.1257 -0.5033  0.7421
  726MOL0     C95765   8.553   6.447   7.527  0.0306  0.1629  0.2100
  726MOL0     C95766   8.689   6.437   7.565 -0.3387 -0.9091 -0.7292
  726MOL0     H95767   9.176   6.767   7.480  0.5104  0.9452  1.6576
  726MOL0     H95768   9.401   6.786   7.570 -1.5109  0.8569  0.4157
  726MOL0     H95769   9.640   6.557   7.433 -0.1453 -1.4650 -0.6093
  726MOL0     H95770   9.664   6.419   7.546  5.8877 -0.3508  0.0850
  726MOL0     H95771   9.791   6.699   7.571  1.7601  0.2445 -0.7868
  726MOL0     H95772   9.854   6.552   7.492 -1.1957  0.6305 -1.3418
  726MOL0     H95773   9.829   6.433   7.716  0.6529  0.2951 -1.0803
  726MOL0     H95774   9.780   6.583   7.788 -0.3320 -0.4215  0.0348
  726MOL0     H95775  10.036   6.505   7.648 -0.9783  1.4293 -2.2771
  726MOL0     H95776  10.004   6.673   7.680 -1.1731 -0.0903 -2.1692
  726MOL0     H95777  10.004   6.425   7.884 -1.3513  1.7194  3.5758
  726MOL0     H95778   9.988   6.588   7.942 -1.2101  1.3568 -1.3723
  726MOL0     H95779  10.201   6.646   7.824  2.0324  0.5650  0.2438
  726MOL0     H95780  10.229   6.474   7.804  0.7498 -0.8372  2.1516
  726MOL0     H95781  10.352   6.521   8.001 -0.2711 -2.3516  0.8147
  726MOL0     H95782  10.221   6.627   8.072 -3.8003 -0.8967  0.9672
  726MOL0     H95783  10.268   6.408   8.175 -1.3314  1.7437  2.1452
  726MOL0     H95784  10.207   6.331   8.023 -0.0844 -0.7368  1.7027
  726MOL0     H95785  10.040   6.577   8.314  1.3867 -2.1765  1.1755
  726MOL0     H95786   9.871   6.509   8.483 -0.2238  1.0865  0.5694
  726MOL0     H95787   9.727   6.414   8.433 -0.0864 -0.1108  0.3917
  726MOL0     H95788   9.672   6.584   8.259  2.4961 -1.1316 -1.8936
  726MOL0     H95789   9.813   6.671   8.278  0.8659 -1.3620 -0.1841
  726MOL0     H95790   9.719   6.686   8.543 -1.9989  3.4910  2.3649
  726MOL0     H95791   9.654   6.797   8.420 -1.9551 -0.1153 -0.3744
  726MOL0     H95792   9.514   6.537   8.499 -0.8344  0.0023  0.3889
  726MOL0     H95793   9.477   6.646   8.365 -0.8602  1.2453  0.4195
  726MOL0     H95794   9.330   6.878   8.685  0.4396 -0.3954  1.3096
  726MOL0     H95795   9.078   6.884   8.733 -1.7878  1.2179 -1.7949
  726MOL0     H95796   8.760   6.329   8.590 -2.4380 -2.2979  1.3943
  726MOL0     H95797   8.516   6.255   8.601  1.5590 -1.0789  0.7974
  726MOL0     H95798   8.235   6.526   8.416 -1.2667 -0.3522 -0.1197
  726MOL0     H95799   8.190   6.562   8.589  0.5695  2.3414 -1.3417
  726MOL0     H95800   8.067   6.339   8.598  0.7186  0.5571 -0.1310
  726MOL0     H95801   8.125   6.307   8.435  0.9874 -0.0449  0.4879
  726MOL0     H95802   7.974   6.521   8.367  0.2377  0.3942 -0.5078
  726MOL0     H95803   7.935   6.521   8.541  1.9043  1.9106 -1.0529
  726MOL0     H95804   7.865   6.319   8.322 -1.4090 -0.5828 -0.3583
  726MOL0     H95805   7.873   6.256   8.477 -4.7216  0.3770  0.9994
  726MOL0     H95806   7.722   6.499   8.384 -3.1530 -2.8875 -1.8016
  726MOL0     H95807   7.723   6.435   8.552  1.7843 -0.9294  0.3418
  726MOL0     H95808   7.587   6.241   8.467  2.6747  1.8938  2.6309
  726MOL0     H95809   7.646   6.282   8.297  1.1483  1.4874 -0.5274
  726MOL0     H95810   7.487   6.489   8.440 -1.0160 -0.7805  0.8622
  726MOL0     H95811   7.504   6.451   8.267  0.8487  0.8051 -0.2969
  726MOL0     H95812   7.287   6.392   8.336 -1.0923 -0.1082  2.3201
  726MOL0     H95813   7.342   6.314   8.485 -0.7592  1.7070  0.3519
  726MOL0     H95814   8.395   6.678   8.559  0.0279  0.5067  2.7808
  726MOL0     H95815   8.640   6.738   8.562 -1.4306  0.4549  0.4388
  726MOL0     H95816   9.046   6.531   8.471  0.3079  1.5074 -2.8104
  726MOL0     H95817   9.268   6.534   8.441 -0.1408  0.2907  1.3597
  726MOL0     H95818   9.420   6.353   7.593  2.2234  0.6689  1.5146
  726MOL0     H95819   9.188   6.331   7.532  0.1486  0.9534 -0.6779
  726MOL0     H95820   8.827   6.654   7.354 -0.4854  1.3047  1.0207
  726MOL0     H95821   8.595   6.702   7.300  0.4711 -1.2107 -0.9823
  726MOL0     H95822   8.290   6.396   7.476 -0.4401 -0.0564  1.2164
  726MOL0     H95823   8.176   6.510   7.394  1.0177 -1.6462 -1.2297
  726MOL0     H95824   8.331   6.555   7.666  1.0978  4.4918 -1.1257
  726MOL0     H95825   8.253   6.680   7.580 -0.3735  1.2993  2.1096
  726MOL0     H95826   8.117   6.596   7.776 -3.4441  0.9663  0.9561
  726MOL0     H95827   8.123   6.436   7.707 -2.3496  1.3033 -0.0833
  726MOL0     H95828   8.016   6.523   7.499  0.1933  1.7840 -0.8758
  726MOL0     H95829   7.900   6.522   7.630 -1.3529  2.6060 -0.7492
  726MOL0     H95830   7.902   6.922   7.560  1.7995  0.2377  1.1845
  726MOL0     H95831   8.491   6.375   7.579  2.2199  0.1368  2.9517
  726MOL0     H95832   8.722   6.366   7.641 -1.1308 -0.7964 -0.2680
  727MOL0     O95833   9.925   3.495  10.958  0.5999 -0.5064  0.7856
  727MOL0     C95834  10.012   3.480  11.041 -1.0405  0.2038 -0.0108
  727MOL0     O95835   9.989   3.483  11.177 -0.2976 -0.0857 -0.0600
  727MOL0     C95836   9.858   3.496  11.225 -0.2469 -0.0602  0.2075
  727MOL0     C95837   9.806   3.403  11.317 -0.2782  0.4204 -0.1533
  727MOL0     C95838   9.673   3.406  11.364 -0.8644  0.2884  0.2532
  727MOL0     C95839   9.584   3.504  11.318  0.4132  0.5148  0.7504
  727MOL0     O95840   9.470   3.517  11.396  0.6038 -0.0127 -0.0719
  727MOL0     C95841   9.360   3.605  11.355 -0.6711 -0.3003  0.1793
  727MOL0     C95842   9.223   3.559  11.387 -0.4088 -0.6403 -0.1362
  727MOL0     C95843   9.210   3.557  11.540 -0.3308  0.4847  0.0567
  727MOL0     C95844   9.083   3.497  11.596 -0.1354 -0.2101 -0.5376
  727MOL0     C95845   9.072   3.527  11.745 -0.7780  0.1160 -0.4327
  727MOL0     C95846   8.933   3.495  11.785  0.1091  0.3537 -0.0762
  727MOL0     C95847   8.923   3.507  11.934  0.0258 -0.0338 -0.0300
  727MOL0     C95848   8.783   3.475  11.973 -0.6232  0.4502  0.1566
  727MOL0     N95849   8.753   3.549  12.091  0.4243  0.0086 -0.6026
  727MOL0     C95850   8.648   3.633  12.104  0.2518 -0.5216  0.3697
  727MOL0     C95851   8.675   3.691  12.222  0.9440 -0.0760 -0.3517
  727MOL0     C95852   8.583   3.787  12.294  0.2262 -0.4539 -0.1600
  727MOL0     C95853   8.460   3.731  12.369  0.5909 -0.8634  0.4958
  727MOL0     C95854   8.508   3.644  12.486  0.7475 -0.8692  0.1729
  727MOL0     C95855   8.387   3.596  12.572  0.2527  0.5600 -0.0026
  727MOL0     O95856   8.430   3.584  12.708  0.4302  0.5207 -0.8407
  727MOL0     C95857   8.338   3.631  12.803 -0.3687 -0.0998  0.3453
  727MOL0     C95858   8.398   3.655  12.925 -0.2817 -0.3825  0.1562
  727MOL0     C95859   8.313   3.685  13.037 -0.1285 -0.2566  0.1028
  727MOL0     C95860   8.173   3.698  13.027  0.3139  0.2864  0.0977
  727MOL0     C95861   8.092   3.717  13.144 -0.3059  0.2435 -1.3169
  727MOL0     O95862   7.958   3.753  13.127 -0.1514  0.1714  0.0386
  727MOL0     C95863   7.876   3.768  13.236 -0.3292  0.3545  0.5433
  727MOL0     C95864   7.807   3.890  13.243 -0.4002  0.0921 -0.6217
  727MOL0     C95865   7.704   3.911  13.337  0.0683 -0.0040 -0.1125
  727MOL0     C95866   7.689   3.816  13.444  0.6377  0.1404  0.0949
  727MOL0     O95867   7.592   3.834  13.536  0.1671 -0.1276  0.1092
  727MOL0     C95868   7.514   3.724  13.571 -0.7746  0.1550  0.9399
  727MOL0     C95869   7.519   3.681  13.718  0.0292 -0.1281  0.3698
  727MOL0     C95870   7.441   3.779  13.808  0.2631 -0.0068  0.5428
  727MOL0     C95871   7.292   3.748  13.803 -0.0581 -0.0683  0.7925
  727MOL0     C95872   7.218   3.837  13.905 -0.6056 -0.2732 -0.0722
  727MOL0     C95873   7.064   3.804  13.893  0.4659 -0.9591  0.4368
  727MOL0     C95874   6.979   3.818  14.018  0.0108  0.0337 -0.0238
  727MOL0     C95875   6.833   3.779  13.978  0.1506  0.5998  0.9794
  727MOL0    Cl95876   6.746   3.750  14.123  0.4923 -0.3356  0.3138
  727MOL0     C95877   7.775   3.707  13.439  0.2065 -0.5365 -0.9261
  727MOL0     C95878   7.861   3.680  13.339 -0.2132  0.3255  0.3507
  727MOL0     O95879   8.144   3.692  13.254  0.1777  0.4266 -0.3288
  727MOL0     C95880   8.119   3.687  12.897 -0.1415 -0.5748  0.1147
  727MOL0     C95881   8.198   3.644  12.789 -0.0845 -0.6698  0.4086
  727MOL0     N95882   8.792   3.661  12.274  0.1925 -0.1344 -0.5217
  727MOL0     N95883   8.833   3.568  12.205 -0.8528 -0.0898 -0.3919
  727MOL0     C95884   9.631   3.599  11.222 -0.0396 -0.1094 -0.1039
  727MOL0     C95885   9.762   3.592  11.176 -1.4983  0.4516  0.1858
  727MOL0     C95886  10.165   3.481  11.001  1.2509  0.6879 -0.4130
  727MOL0     C95887  10.253   3.417  11.083  0.4602 -0.7155 -0.3505
  727MOL0     C95888  10.385   3.421  11.052  0.5683  0.8538 -0.2232
  727MOL0     C95889  10.440   3.488  10.941 -0.1852  0.8386 -0.4164
  727MOL0     O95890  10.574   3.478  10.914 -0.5874  0.3833  0.5042
  727MOL0     C95891  10.629   3.526  10.792  0.1266 -0.0069 -1.0036
  727MOL0     C95892  10.774   3.486  10.803 -0.4905 -0.1900 -0.2428
  727MOL0     C95893  10.873   3.540  10.701  0.0977  0.3326 -0.2209
  727MOL0     C95894  11.006   3.469  10.730  0.4867 -0.7478 -0.1530
  727MOL0     C95895  11.098   3.502  10.623 -0.1143 -0.2277  0.2805
  727MOL0     C95896  11.181   3.542  10.544  0.4811 -0.0477  0.3198
  727MOL0     C95897  10.343   3.545  10.855  0.4129  0.1608  0.4407
  727MOL0     C95898  10.208   3.545  10.890  0.3036  0.2108  0.3013
  727MOL0     H95899   9.863   3.313  11.337 -1.6419 -0.7514 -1.2928
  727MOL0     H95900   9.636   3.337  11.439 -0.7184 -1.4315 -1.2044
  727MOL0     H95901   9.359   3.613  11.246 -0.3744  0.9394  0.2474
  727MOL0     H95902   9.378   3.705  11.397  0.6628 -0.7416  0.7011
  727MOL0     H95903   9.220   3.461  11.338 -0.8437 -0.7403  0.0844
  727MOL0     H95904   9.149   3.624  11.340  1.4508 -0.8143 -3.5887
  727MOL0     H95905   9.203   3.660  11.576  3.6491 -0.0378  3.0551
  727MOL0     H95906   9.292   3.508  11.594 -1.8500 -0.4144  1.6680
  727MOL0     H95907   9.003   3.545  11.539 -2.2599 -1.5968  1.1050
  727MOL0     H95908   9.082   3.388  11.592  1.3000 -0.4031  2.1590
  727MOL0     H95909   9.092   3.633  11.764 -0.8372  1.1340 -4.8163
  727MOL0     H95910   9.148   3.469  11.797  1.7836  2.3784 -1.3919
  727MOL0     H95911   8.913   3.392  11.756 -0.8632  0.7081 -0.7153
  727MOL0     H95912   8.861   3.563  11.737 -1.5714 -0.4128  1.2611
  727MOL0     H95913   8.991   3.439  11.986  1.7665  1.6844  0.0637
  727MOL0     H95914   8.952   3.610  11.959  2.6914 -0.6475 -0.2779
  727MOL0     H95915   8.777   3.367  11.987 -1.8579  0.5315  0.3985
  727MOL0     H95916   8.706   3.499  11.898 -1.0343 -0.1171  0.3913
  727MOL0     H95917   8.556   3.646  12.048 -0.9420 -2.4514  1.7830
  727MOL0     H95918   8.546   3.866  12.229 -0.8349  0.7143  1.7689
  727MOL0     H95919   8.651   3.831  12.368  5.2008 -2.1408 -3.2163
  727MOL0     H95920   8.389   3.682  12.302 -1.2901  1.3982  0.6963
  727MOL0     H95921   8.402   3.815  12.409  0.0402 -2.3028  2.9331
  727MOL0     H95922   8.567   3.560  12.448 -0.6446 -1.9103  0.1996
  727MOL0     H95923   8.570   3.705  12.551 -1.1638 -0.1699  1.4341
  727MOL0     H95924   8.349   3.498  12.545 -3.0416  0.7656  3.0405
  727MOL0     H95925   8.302   3.665  12.573 -1.0220 -0.9136  2.1425
  727MOL0     H95926   8.505   3.639  12.936 -0.3487 -0.6160  0.4851
  727MOL0     H95927   8.362   3.692  13.133  1.9758 -2.2468 -0.7319
  727MOL0     H95928   7.822   3.964  13.166 -2.4401  1.3222  0.1023
  727MOL0     H95929   7.643   3.999  13.326 -0.3370 -0.5860 -4.0825
  727MOL0     H95930   7.550   3.639  13.513  0.0172  1.4535 -0.5547
  727MOL0     H95931   7.410   3.743  13.542  0.5278  2.8449 -2.7123
  727MOL0     H95932   7.623   3.674  13.752 -0.3688 -3.7551  1.2546
  727MOL0     H95933   7.472   3.583  13.736  0.1466 -0.1756  0.4239
  727MOL0     H95934   7.459   3.883  13.780 -3.1709  1.5500  3.3496
  727MOL0     H95935   7.481   3.764  13.909  0.3231  1.7404  0.8084
  727MOL0     H95936   7.253   3.770  13.703  1.3945  0.3544  0.2953
  727MOL0     H95937   7.283   3.643  13.832  2.2982 -1.1949 -2.0596
  727MOL0     H95938   7.232   3.942  13.880  0.3099  0.0140  1.5059
  727MOL0     H95939   7.256   3.819  14.006  0.7137  2.8558  0.1064
  727MOL0     H95940   7.048   3.710  13.839 -0.6815 -1.0106  0.8458
  727MOL0     H95941   7.031   3.887  13.830 -0.7319 -2.0340 -0.4064
  727MOL0     H95942   7.011   3.743  14.090 -1.7351  0.4087  1.2260
  727MOL0     H95943   6.984   3.921  14.055  0.3553 -0.7399  2.2124
  727MOL0     H95944   6.829   3.682  13.927 -2.1422  1.4310 -0.6121
  727MOL0     H95945   6.790   3.854  13.910  0.2280 -0.0901  0.1500
  727MOL0     H95946   7.760   3.640  13.523 -1.5014  0.4084 -0.4182
  727MOL0     H95947   7.918   3.588  13.350 -1.3393 -0.3596  0.5750
  727MOL0     H95948   8.011   3.685  12.890 -0.2814 -3.3362  1.6171
  727MOL0     H95949   8.157   3.617  12.693  1.9142  2.0611 -1.3581
  727MOL0     H95950   9.555   3.670  11.190 -0.6829 -1.3346 -1.4413
  727MOL0     H95951   9.796   3.659  11.098  0.9080 -0.2582  0.5181
  727MOL0     H95952  10.224   3.371  11.177  2.3765 -0.8589  0.1987
  727MOL0     H95953  10.461   3.382  11.119  0.9114 -1.1945 -1.7185
  727MOL0     H95954  10.606   3.631  10.778 -0.0755  0.1100  0.1216
  727MOL0     H95955  10.586   3.475  10.706 -1.3399 -0.4492 -0.0422
  727MOL0     H95956  10.799   3.516  10.905 -1.7526  0.3928 -0.0913
  727MOL0     H95957  10.768   3.377  10.797 -0.2369 -0.1065 -3.0693
  727MOL0     H95958  10.889   3.647  10.720 -0.2599  0.1056  1.4366
  727MOL0     H95959  10.835   3.515  10.601  0.0153 -0.6061  0.0418
  727MOL0     H95960  11.048   3.517  10.819  0.7133  0.3682 -0.8390
  727MOL0     H95961  10.998   3.361  10.747 -0.5119 -1.2128 -3.0179
  727MOL0     H95962  11.255   3.579  10.475  2.0687  1.9158  2.8862
  727MOL0     H95963  10.367   3.588  10.759  0.9684 -1.8234 -0.3589
  727MOL0     H95964  10.140   3.585  10.816  1.3933 -2.0672 -2.0908
  728MOL0     O95965  10.875   8.460   9.067  0.1159 -0.3774  0.0085
  728MOL0     C95966  10.865   8.369   8.981  0.2214  0.5365  0.7495
  728MOL0     O95967  10.752   8.340   8.905  0.0221  0.0314  0.1033
  728MOL0     C95968  10.634   8.399   8.938  0.2815 -0.2292  0.9292
  728MOL0     C95969  10.613   8.539   8.960  0.2564  0.8471 -0.2939
  728MOL0     C95970  10.484   8.595   8.977  0.0219 -0.0720  0.3760
  728MOL0     C95971  10.370   8.506   8.983 -0.4195 -1.2521  0.6234
  728MOL0     O95972  10.246   8.545   9.012  0.1805  0.4835  0.3315
  728MOL0     C95973  10.231   8.637   9.125  1.0499 -0.0344  0.6563
  728MOL0     C95974  10.076   8.656   9.146 -0.8376  0.3172  0.6228
  728MOL0     C95975  10.054   8.764   9.260  0.4748  0.6055  0.1519
  728MOL0     C95976   9.900   8.780   9.284 -0.1029  0.4618  0.6588
  728MOL0     C95977   9.847   8.851   9.412  0.3124 -0.1853 -0.3030
  728MOL0     C95978   9.899   8.786   9.538  0.3878  1.0185 -0.0650
  728MOL0     C95979   9.831   8.836   9.672 -0.7348  0.3177 -0.1828
  728MOL0     C95980   9.680   8.784   9.691  0.0150  0.1870  0.0330
  728MOL0     N95981   9.607   8.824   9.812  0.2586 -0.6375 -0.0517
  728MOL0     C95982   9.655   8.816   9.937  0.1598 -0.2411  0.0079
  728MOL0     C95983   9.589   8.910  10.006 -0.1637  0.4307 -0.2539
  728MOL0     C95984   9.609   8.930  10.152  0.1733  0.1007  0.5167
  728MOL0     C95985   9.503   8.858  10.240  0.7909 -0.4747  0.6401
  728MOL0     C95986   9.366   8.925  10.218 -0.0777  0.1052 -0.1209
  728MOL0     C95987   9.258   8.865  10.299 -0.0018 -0.3936 -0.7332
  728MOL0     O95988   9.124   8.897  10.248 -0.0719  0.7385  0.5195
  728MOL0     C95989   9.021   8.842  10.315 -0.3920  0.6613  0.8274
  728MOL0     C95990   8.892   8.845  10.254 -0.4578 -0.5332  0.0268
  728MOL0     C95991   8.773   8.799  10.323  0.2651  0.4117 -0.2930
  728MOL0     C95992   8.788   8.747  10.450  0.8542  0.6932  0.8821
  728MOL0     C95993   8.665   8.699  10.521  0.5087 -0.6456 -0.1723
  728MOL0     O95994   8.552   8.685  10.444 -0.2174 -0.6952 -0.4442
  728MOL0     C95995   8.439   8.662  10.521  0.0071  0.3581  0.5470
  728MOL0     C95996   8.382   8.763  10.606 -0.2889  0.0597  0.3284
  728MOL0     C95997   8.254   8.734  10.671  0.6727  0.1335  0.4667
  728MOL0     C95998   8.179   8.622  10.632 -0.5604 -0.2518  0.2637
  728MOL0     O95999   8.060   8.599  10.690 -0.4159  0.3456 -0.3134
  728MOL0     C96000   7.954   8.687  10.661  0.3017 -0.1066  0.7015
  728MOL0     C96001   7.868   8.617  10.553 -0.3978 -0.3710  0.1719
  728MOL0     C96002   7.732   8.676  10.511  0.5461  0.3824 -0.1415
  728MOL0     C96003   7.671   8.608  10.388  0.1118 -0.3669  0.0449
  728MOL0     C96004   7.628   8.477  10.431 -0.0538  0.6703 -1.0628
  728MOL0     C96005   7.538   8.420  10.326 -0.2572 -1.2067 -0.4926
  728MOL0     C96006   7.494   8.272  10.347  0.0780 -0.6602 -0.2456
  728MOL0     C96007   7.413   8.224  10.235 -0.0926  0.0298  0.5089
  728MOL0    Cl96008   7.512   8.211  10.080 -0.4573 -0.1095 -0.2327
  728MOL0     C96009   8.242   8.524  10.556  0.2879  0.1069 -0.1149
  728MOL0     C96010   8.363   8.549  10.497 -0.0716 -0.2862 -0.8514
  728MOL0     O96011   8.668   8.684  10.645  0.2264  0.5458  0.6422
  728MOL0     C96012   8.917   8.735  10.508  0.0580  0.2289 -0.5172
  728MOL0     C96013   9.027   8.780  10.435  0.3060  0.0079  1.6735
  728MOL0     N96014   9.497   8.973   9.925  0.0315  0.0342 -0.2603
  728MOL0     N96015   9.507   8.917   9.809 -0.3547 -0.9388 -1.0033
  728MOL0     C96016  10.387   8.373   8.954  0.0972 -0.0936 -0.8377
  728MOL0     C96017  10.515   8.321   8.936 -0.6806  0.8680 -0.0732
  728MOL0     C96018  10.983   8.288   8.944  0.6508 -0.1611  0.7748
  728MOL0     C96019  11.076   8.267   9.048 -0.3722 -0.2713  0.3128
  728MOL0     C96020  11.185   8.189   9.018 -0.8861  0.6526 -0.2891
  728MOL0     C96021  11.200   8.119   8.896  0.0740  0.1138  0.7252
  728MOL0     O96022  11.304   8.040   8.851 -0.2870  0.0404 -0.7026
  728MOL0     C96023  11.408   8.009   8.944  0.1394  0.4099  0.2310
  728MOL0     C96024  11.542   7.957   8.878  0.3816 -0.3048  0.0241
  728MOL0     C96025  11.626   8.064   8.812  0.5589  0.5417  0.3555
  728MOL0     C96026  11.766   8.007   8.775 -0.2876  0.3262  0.2387
  728MOL0     C96027  11.759   7.947   8.649 -0.7027  0.4403  0.1263
  728MOL0     C96028  11.750   7.899   8.543 -0.0294  1.1694  0.5368
  728MOL0     C96029  11.103   8.140   8.795  0.0784  0.6611  0.1593
  728MOL0     C96030  11.000   8.230   8.819  0.4095  0.5874  0.2222
  728MOL0     H96031  10.694   8.610   8.956 -0.7636  1.9747 -1.9674
  728MOL0     H96032  10.470   8.701   8.999 -0.6835  0.1877 -1.2189
  728MOL0     H96033  10.277   8.732   9.097 -0.1831  2.2296  5.3178
  728MOL0     H96034  10.273   8.589   9.214  0.9726 -2.2525 -0.4341
  728MOL0     H96035  10.028   8.565   9.184 -0.1480  0.7212  2.6088
  728MOL0     H96036  10.026   8.690   9.055  0.2874  1.1169  0.2901
  728MOL0     H96037  10.103   8.857   9.227  0.0192  0.7767 -0.0531
  728MOL0     H96038  10.097   8.726   9.353 -2.3445 -2.3005  0.4435
  728MOL0     H96039   9.858   8.826   9.194  0.2488 -0.4728  0.0022
  728MOL0     H96040   9.861   8.678   9.295 -0.2517  0.6161  1.6714
  728MOL0     H96041   9.738   8.837   9.415 -0.0021  1.9962  1.0565
  728MOL0     H96042   9.871   8.958   9.409  0.1955 -0.0824 -4.8954
  728MOL0     H96043  10.006   8.811   9.544  0.0769  3.9561 -3.1310
  728MOL0     H96044   9.887   8.678   9.533  2.1873  0.7096  1.3794
  728MOL0     H96045   9.892   8.806   9.758  1.8663  1.7073 -1.4054
  728MOL0     H96046   9.840   8.945   9.665 -0.3504  0.3228  0.3080
  728MOL0     H96047   9.709   8.679   9.686  0.7071  0.3757 -0.0942
  728MOL0     H96048   9.623   8.816   9.603  1.3693  1.7183 -0.3480
  728MOL0     H96049   9.744   8.760   9.963 -1.1380 -2.1603  0.5163
  728MOL0     H96050   9.604   9.037  10.175  2.8594  0.6074 -0.8224
  728MOL0     H96051   9.704   8.882  10.175  1.0803  0.1837 -2.5964
  728MOL0     H96052   9.545   8.873  10.340  1.8241  1.5159 -0.0553
  728MOL0     H96053   9.507   8.750  10.222  2.4100 -0.5243  1.1274
  728MOL0     H96054   9.374   9.029  10.251  0.0188 -0.5285  2.0118
  728MOL0     H96055   9.332   8.916  10.115 -1.1836  1.9083  0.0440
  728MOL0     H96056   9.274   8.900  10.401  3.0728 -0.0595 -1.2403
  728MOL0     H96057   9.264   8.756  10.293  0.9898 -0.4216  0.4531
  728MOL0     H96058   8.875   8.892  10.158 -0.7115 -0.5113  0.0835
  728MOL0     H96059   8.671   8.808  10.286 -0.1020 -0.0507  0.5598
  728MOL0     H96060   8.440   8.852  10.629  0.8420 -0.6628  0.3706
  728MOL0     H96061   8.209   8.811  10.732 -1.7519  0.2042 -1.2665
  728MOL0     H96062   7.994   8.782  10.624 -0.8458 -0.4217 -1.5043
  728MOL0     H96063   7.888   8.714  10.744 -0.6876  1.5475 -0.5728
  728MOL0     H96064   7.858   8.511  10.578 -3.2778 -0.3305 -0.4404
  728MOL0     H96065   7.927   8.622  10.461 -0.6606 -0.4983 -0.0047
  728MOL0     H96066   7.743   8.781  10.482 -0.1364  0.4827 -0.0610
  728MOL0     H96067   7.668   8.668  10.599  0.1539 -3.1634 -0.6002
  728MOL0     H96068   7.591   8.672  10.348  0.8065  0.7383  0.3891
  728MOL0     H96069   7.750   8.596  10.313  0.2064  2.0249 -0.3223
  728MOL0     H96070   7.586   8.474  10.532  3.9671  0.6405  0.7993
  728MOL0     H96071   7.718   8.416  10.441 -0.0212  0.6898 -1.2382
  728MOL0     H96072   7.598   8.422  10.235 -1.2343  2.6453 -1.2022
  728MOL0     H96073   7.450   8.485  10.317  0.1142 -0.6199  0.0822
  728MOL0     H96074   7.581   8.206  10.348 -0.9138 -2.1867 -3.0446
  728MOL0     H96075   7.435   8.270  10.439  0.6094  0.6995  0.1503
  728MOL0     H96076   7.328   8.292  10.221 -1.2544 -0.9742  2.2646
  728MOL0     H96077   7.366   8.128  10.257 -3.2632  1.3081 -0.1514
  728MOL0     H96078   8.179   8.438  10.537 -3.1089  2.2074  0.9099
  728MOL0     H96079   8.403   8.472  10.432  1.2504 -0.0606 -0.3275
  728MOL0     H96080   8.938   8.687  10.603  1.0729  0.4370 -0.6248
  728MOL0     H96081   9.123   8.763  10.483  0.7117 -0.8481  0.6139
  728MOL0     H96082  10.306   8.302   8.953  2.0359 -2.5534  1.9381
  728MOL0     H96083  10.527   8.214   8.923  2.3613  0.9230  1.4601
  728MOL0     H96084  11.069   8.309   9.148 -2.8330  0.0835  0.0309
  728MOL0     H96085  11.255   8.181   9.100 -0.9439  0.8982 -0.2165
  728MOL0     H96086  11.377   7.931   9.013 -2.4008  1.0030 -0.1635
  728MOL0     H96087  11.431   8.097   9.005 -0.3510  0.5341  0.2392
  728MOL0     H96088  11.603   7.909   8.955  1.9060  0.8650 -0.4020
  728MOL0     H96089  11.508   7.884   8.804 -0.7250 -0.8493  1.0289
  728MOL0     H96090  11.635   8.149   8.881 -1.3197  2.1464 -1.2549
  728MOL0     H96091  11.574   8.095   8.721  0.9621 -0.3359 -0.1787
  728MOL0     H96092  11.832   8.093   8.777  2.4280 -1.3859 -3.4290
  728MOL0     H96093  11.809   7.936   8.846  0.1074  0.4868  0.1625
  728MOL0     H96094  11.733   7.852   8.448  0.4543  1.1604  0.4536
  728MOL0     H96095  11.107   8.093   8.698  2.1804  0.1119  0.4496
  728MOL0     H96096  10.918   8.252   8.750 -1.7223 -3.1654  1.3041
  729MOL0     O96097   5.091   4.939   6.685 -0.2616  0.1625 -0.0150
  729MOL0     C96098   5.130   5.044   6.736  0.4842  0.6266  0.3808
  729MOL0     O96099   5.052   5.149   6.781  0.2818  0.1972 -0.1350
  729MOL0     C96100   4.913   5.128   6.773  0.6835  0.3844  0.5893
  729MOL0     C96101   4.848   5.019   6.831  0.1642 -0.0039 -0.4197
  729MOL0     C96102   4.712   5.012   6.820  0.2907 -0.0237 -0.0345
  729MOL0     C96103   4.639   5.111   6.757 -0.1272 -0.4168  0.4311
  729MOL0     O96104   4.505   5.088   6.750  0.4340  0.1967  0.1845
  729MOL0     C96105   4.440   5.116   6.621 -1.2807 -0.0023 -0.7962
  729MOL0     C96106   4.297   5.078   6.626  0.6693  0.0506 -0.1303
  729MOL0     C96107   4.250   5.085   6.478 -0.1304  1.0307 -0.0979
  729MOL0     C96108   4.118   5.017   6.454  0.3412 -0.3443  0.3610
  729MOL0     C96109   3.991   5.079   6.524 -0.4152  0.1842  0.7883
  729MOL0     C96110   3.865   4.984   6.502 -0.1532 -0.6638  0.0797
  729MOL0     C96111   3.735   5.042   6.563 -0.8707 -0.5633 -0.1146
  729MOL0     C96112   3.608   4.972   6.509 -0.3341 -0.2582  0.0513
  729MOL0     N96113   3.481   5.042   6.553  0.4865 -0.4604  0.0305
  729MOL0     C96114   3.411   5.139   6.485 -0.2027 -0.6195 -0.7406
  729MOL0     C96115   3.309   5.176   6.571  1.0002  1.1225  0.5968
  729MOL0     C96116   3.195   5.269   6.537 -0.3093 -0.2174 -0.2842
  729MOL0     C96117   3.086   5.279   6.639 -0.1959 -0.0512  0.2343
  729MOL0     C96118   2.966   5.340   6.569 -0.5019 -0.8947  0.5677
  729MOL0     C96119   2.849   5.340   6.654  0.6824 -0.3599  0.6113
  729MOL0     O96120   2.739   5.362   6.565 -0.2867 -0.5505  0.3127
  729MOL0     C96121   2.636   5.450   6.583 -0.7855 -0.8433  0.0517
  729MOL0     C96122   2.603   5.505   6.708  0.3130 -0.2492 -0.6125
  729MOL0     C96123   2.498   5.594   6.710 -0.0469  0.3659 -0.4654
  729MOL0     C96124   2.427   5.638   6.598  0.3790 -0.7359  1.3451
  729MOL0     C96125   2.303   5.732   6.615 -0.5267 -0.1410 -1.0505
  729MOL0     O96126   2.224   5.751   6.507  0.1575 -1.0735 -0.7635
  729MOL0     C96127   2.105   5.820   6.526 -0.0206  0.2770  0.0205
  729MOL0     C96128   2.016   5.791   6.630 -0.1405 -0.9119 -0.2308
  729MOL0     C96129   1.886   5.851   6.631 -0.0960 -0.3126 -0.0988
  729MOL0     C96130   1.858   5.951   6.537  0.8569  0.3602 -0.2288
  729MOL0     O96131   1.750   6.044   6.564  0.0051 -0.2382  0.1857
  729MOL0     C96132   1.694   6.132   6.466  0.4911  0.0269  0.6750
  729MOL0     C96133   1.563   6.086   6.414 -0.2101 -0.1616  0.4211
  729MOL0     C96134   1.486   6.193   6.332 -0.0409  0.4362 -0.1918
  729MOL0     C96135   1.336   6.162   6.308  0.0767 -0.3808  0.0129
  729MOL0     C96136   1.263   6.281   6.248  0.8279  0.3831  0.5527
  729MOL0     C96137   1.279   6.282   6.091  0.1005 -0.5262  0.2159
  729MOL0     C96138   1.226   6.422   6.039  0.7892  0.2576 -0.0375
  729MOL0     C96139   1.084   6.424   5.982 -0.2330 -0.3996  0.0025
  729MOL0    Cl96140   0.968   6.317   6.083 -0.1777  0.5388  0.1851
  729MOL0     C96141   1.955   5.986   6.447  0.4960 -0.5080  0.4593
  729MOL0     C96142   2.076   5.916   6.434 -0.5774  0.2359 -0.0578
  729MOL0     O96143   2.296   5.782   6.735  0.0570 -0.4432  0.1859
  729MOL0     C96144   2.467   5.579   6.473  0.8358  0.3303  0.3259
  729MOL0     C96145   2.565   5.486   6.463 -0.4734  0.3087 -0.2396
  729MOL0     N96146   3.323   5.098   6.683  0.5621  0.4533  0.0896
  729MOL0     N96147   3.423   5.015   6.670  0.0542 -0.1002 -0.6086
  729MOL0     C96148   4.698   5.226   6.704 -0.3131 -0.3169  0.4965
  729MOL0     C96149   4.841   5.230   6.715 -0.2287 -0.2472 -0.2404
  729MOL0     C96150   5.278   5.066   6.742 -0.0123  0.0424  0.4349
  729MOL0     C96151   5.370   4.992   6.660  0.5596 -0.3503  0.5582
  729MOL0     C96152   5.503   5.003   6.687 -0.0695 -0.0898  0.1706
  729MOL0     C96153   5.554   5.097   6.774 -0.5930 -0.7374 -0.1314
  729MOL0     O96154   5.691   5.096   6.782 -0.0212 -0.4457 -0.7415
  729MOL0     C96155   5.751   5.177   6.878 -0.4697 -0.1382 -0.4083
  729MOL0     C96156   5.905   5.174   6.864 -0.3022 -0.2683 -0.7168
  729MOL0     C96157   5.990   5.279   6.937  0.5483  0.5619  0.3678
  729MOL0     C96158   6.141   5.243   6.939  0.1436  0.3604 -0.0309
  729MOL0     C96159   6.170   5.114   7.007  0.0189 -0.1304 -0.1016
  729MOL0     C96160   6.191   5.019   7.074  0.3470 -0.5680 -0.7144
  729MOL0     C96161   5.465   5.163   6.858 -0.0538  0.5764  0.2437
  729MOL0     C96162   5.327   5.146   6.843  0.1477  0.5423 -0.1615
  729MOL0     H96163   4.912   4.948   6.881  1.9136  1.4460 -0.5323
  729MOL0     H96164   4.656   4.929   6.864 -2.6184 -0.8543 -4.6059
  729MOL0     H96165   4.496   5.056   6.549  1.0697 -0.1927  1.0354
  729MOL0     H96166   4.450   5.221   6.590  1.2480  0.7182  1.8953
  729MOL0     H96167   4.238   5.148   6.686 -0.5855 -0.9468 -0.1366
  729MOL0     H96168   4.285   4.979   6.673 -0.9505  0.4493  0.3713
  729MOL0     H96169   4.321   5.026   6.419 -2.1232  0.2413 -1.8338
  729MOL0     H96170   4.252   5.186   6.437  1.5351  1.6591  1.3941
  729MOL0     H96171   4.094   5.034   6.348 -0.5876  1.4625  0.8117
  729MOL0     H96172   4.114   4.914   6.490  1.4054  0.7913  4.1207
  729MOL0     H96173   3.983   5.177   6.477  1.3615  0.2405  0.5419
  729MOL0     H96174   4.008   5.100   6.630  0.4107 -0.4218  0.7832
  729MOL0     H96175   3.891   4.888   6.549  2.0989  0.1135  0.5873
  729MOL0     H96176   3.853   4.971   6.394 -1.1857  1.3740 -0.0938
  729MOL0     H96177   3.735   5.024   6.670 -0.6761  0.0718 -0.0013
  729MOL0     H96178   3.721   5.149   6.544 -0.7901 -0.8304 -1.9241
  729MOL0     H96179   3.614   4.870   6.546  2.3085 -0.2316 -0.0828
  729MOL0     H96180   3.612   4.981   6.400  4.8855  2.1581  0.1202
  729MOL0     H96181   3.425   5.173   6.383  0.5506 -0.9859 -0.7659
  729MOL0     H96182   3.154   5.233   6.441 -0.7117 -1.2088  0.2441
  729MOL0     H96183   3.239   5.368   6.527  4.0525 -2.0171 -1.4069
  729MOL0     H96184   3.113   5.347   6.720  0.2697  0.2127 -0.1358
  729MOL0     H96185   3.061   5.177   6.670  2.0274 -0.2827  1.5039
  729MOL0     H96186   3.000   5.440   6.542 -0.9234 -0.7781  0.4722
  729MOL0     H96187   2.945   5.287   6.476  1.2115  1.0287 -1.0259
  729MOL0     H96188   2.862   5.417   6.730  0.6907 -2.2704  2.6333
  729MOL0     H96189   2.834   5.245   6.707 -0.5606 -0.7631 -0.3909
  729MOL0     H96190   2.655   5.479   6.800 -0.0782  1.6779  0.2055
  729MOL0     H96191   2.474   5.642   6.804  0.6774 -1.2725  0.5973
  729MOL0     H96192   2.042   5.716   6.704  2.0704 -0.4962 -0.5057
  729MOL0     H96193   1.815   5.830   6.711 -1.1025  1.1774 -0.5585
  729MOL0     H96194   1.750   6.142   6.373 -3.3561  1.2791 -1.7278
  729MOL0     H96195   1.686   6.229   6.514 -1.7072 -0.3847  1.2753
  729MOL0     H96196   1.503   6.076   6.504  0.7776 -1.1602  0.9900
  729MOL0     H96197   1.586   5.998   6.352 -0.2992  0.5199 -0.6159
  729MOL0     H96198   1.536   6.205   6.235 -0.0531 -0.3367 -0.2942
  729MOL0     H96199   1.491   6.280   6.399  0.0683 -1.5730  2.5677
  729MOL0     H96200   1.312   6.070   6.255 -1.6998  0.1658 -0.1966
  729MOL0     H96201   1.292   6.143   6.406 -2.3751 -0.5404 -1.0559
  729MOL0     H96202   1.286   6.375   6.300 -3.4832  1.4188  0.9772
  729MOL0     H96203   1.157   6.263   6.266  0.1350  0.9767 -2.2926
  729MOL0     H96204   1.217   6.204   6.045 -1.6483  0.5926  0.5816
  729MOL0     H96205   1.380   6.279   6.050 -1.0808 -0.4763 -2.9444
  729MOL0     H96206   1.221   6.488   6.126  0.2231  0.5124 -0.2595
  729MOL0     H96207   1.296   6.464   5.965  2.2444 -1.3282  0.3629
  729MOL0     H96208   1.088   6.391   5.878  0.0193 -2.1647  0.5375
  729MOL0     H96209   1.050   6.528   5.987 -0.2080 -0.3990  0.1649
  729MOL0     H96210   1.946   6.078   6.390  2.1550  0.5161  1.7301
  729MOL0     H96211   2.152   5.957   6.368  3.0334  0.2794  3.7695
  729MOL0     H96212   2.423   5.614   6.380  0.5510  1.1207  0.7477
  729MOL0     H96213   2.586   5.439   6.367 -1.3818  0.0418 -0.3160
  729MOL0     H96214   4.645   5.304   6.650  2.3922  2.7562  1.9607
  729MOL0     H96215   4.893   5.314   6.672 -0.1658  0.5302  1.3014
  729MOL0     H96216   5.333   4.926   6.582 -1.7003 -0.9105  2.0351
  729MOL0     H96217   5.579   4.944   6.636 -1.6289 -1.7619 -0.3015
  729MOL0     H96218   5.718   5.149   6.978 -3.0512  3.6065  0.0141
  729MOL0     H96219   5.715   5.280   6.874 -2.5479 -0.7277  1.3939
  729MOL0     H96220   5.936   5.080   6.910  0.2532  0.9281  1.5264
  729MOL0     H96221   5.913   5.172   6.755  0.9414 -1.9021 -0.6344
  729MOL0     H96222   5.956   5.287   7.040 -0.7457  1.3270 -0.0976
  729MOL0     H96223   5.985   5.381   6.897  0.7772  0.2822 -0.3872
  729MOL0     H96224   6.175   5.231   6.836  0.6126  2.3149 -0.1578
  729MOL0     H96225   6.193   5.332   6.977  2.8349 -0.1320 -2.2113
  729MOL0     H96226   6.204   4.937   7.142 -1.5820  0.6126  1.2376
  729MOL0     H96227   5.510   5.237   6.923 -0.9129  1.6760 -0.3720
  729MOL0     H96228   5.255   5.198   6.906  2.4178  2.1423  1.2854
  730MOL0     O96229   0.324   8.899   6.854 -0.0959 -0.1599 -0.3461
  730MOL0     C96230   0.354   8.830   6.755  0.2157  0.1248  0.8580
  730MOL0     O96231   0.264   8.771   6.675 -0.2427 -0.9438 -0.1250
  730MOL0     C96232   0.132   8.798   6.698  0.7059  0.2460 -0.6394
  730MOL0     C96233   0.063   8.869   6.599 -0.0501  0.4291 -1.2161
  730MOL0     C96234  -0.072   8.909   6.634 -0.4262  0.1834  0.3218
  730MOL0     C96235  -0.126   8.877   6.754  0.1194 -1.0769 -0.8538
  730MOL0     O96236  -0.240   8.951   6.799  0.2281  1.1272  0.7360
  730MOL0     C96237  -0.350   8.961   6.709 -0.1334  0.3657 -0.0016
  730MOL0     C96238  -0.469   9.013   6.796 -0.2023  0.3404 -0.2853
  730MOL0     C96239  -0.613   8.976   6.738  0.4081  0.3200  0.1088
  730MOL0     C96240  -0.723   9.039   6.826 -0.4932  0.3310  1.3149
  730MOL0     C96241  -0.850   8.959   6.808  0.4423 -0.8840 -0.1573
  730MOL0     C96242  -0.951   9.009   6.911 -0.6277 -0.1094 -0.2885
  730MOL0     C96243  -1.088   8.933   6.908 -0.1421 -0.0377 -0.2567
  730MOL0     C96244  -1.150   8.951   7.047 -0.0543 -0.3290 -0.5270
  730MOL0     N96245  -1.275   8.873   7.049  0.5298 -1.0901 -0.5914
  730MOL0     C96246  -1.295   8.760   7.114  0.1833 -0.6901  0.2507
  730MOL0     C96247  -1.418   8.720   7.089 -0.0595 -1.1364  0.9380
  730MOL0     C96248  -1.493   8.610   7.158 -0.4411 -0.4829  0.0508
  730MOL0     C96249  -1.448   8.479   7.108 -0.2544 -0.0356  0.3363
  730MOL0     C96250  -1.528   8.442   6.983  0.2043  0.5406 -0.3899
  730MOL0     C96251  -1.674   8.417   7.006 -0.5030 -0.1877  0.8786
  730MOL0     O96252  -1.691   8.312   7.103  0.2280  0.6640  0.2717
  730MOL0     C96253  -1.821   8.266   7.136 -1.0350 -0.3347  0.4521
  730MOL0     C96254  -1.932   8.301   7.063  0.2660 -0.4094  0.2947
  730MOL0     C96255  -2.055   8.260   7.096 -0.2120  0.2752  0.6291
  730MOL0     C96256  -2.074   8.174   7.205  0.2043 -0.0010 -0.1896
  730MOL0     C96257  -2.209   8.128   7.237  0.2542  0.4754  0.3596
  730MOL0     O96258  -2.223   8.051   7.347 -0.0358  0.7218 -0.3308
  730MOL0     C96259  -2.357   8.021   7.375  0.1880  0.0774  0.0809
  730MOL0     C96260  -2.430   7.918   7.321 -0.6168  0.0507 -0.2830
  730MOL0     C96261  -2.561   7.906   7.346 -0.0288  0.4931 -0.1016
  730MOL0     C96262  -2.634   7.993   7.422 -0.2121 -0.5367  0.8094
  730MOL0     O96263  -2.771   7.981   7.405  0.1686 -0.5395  0.7019
  730MOL0     C96264  -2.854   8.039   7.508  0.4970  0.9277 -0.3772
  730MOL0     C96265  -3.003   7.992   7.479 -0.3912 -0.2893  0.3372
  730MOL0     C96266  -3.090   8.050   7.594  0.1960 -0.5795  0.0966
  730MOL0     C96267  -3.233   8.014   7.579 -0.1210  0.2559  0.9626
  730MOL0     C96268  -3.306   8.076   7.700 -0.3873  0.2782 -1.1368
  730MOL0     C96269  -3.457   8.088   7.680  0.3371  0.6527 -0.6676
  730MOL0     C96270  -3.525   7.946   7.687 -0.2136  0.0312  0.3353
  730MOL0     C96271  -3.681   7.964   7.679  0.4319  0.5183 -0.0162
  730MOL0    Cl96272  -3.743   8.015   7.510  0.1331  0.2792  0.1068
  730MOL0     C96273  -2.564   8.098   7.487 -0.2585 -0.6151  0.4244
  730MOL0     C96274  -2.429   8.110   7.461  0.0310 -0.4097 -0.4788
  730MOL0     O96275  -2.305   8.185   7.187  0.0605  0.0093  0.2583
  730MOL0     C96276  -1.963   8.136   7.287  0.0636 -0.0691  0.6713
  730MOL0     C96277  -1.837   8.181   7.245  0.2280 -0.6047  0.1032
  730MOL0     N96278  -1.481   8.827   7.023 -0.5142 -0.1340 -0.3482
  730MOL0     N96279  -1.388   8.917   7.002  0.7233 -0.0117 -0.1527
  730MOL0     C96280  -0.055   8.797   6.853 -0.0832 -0.3630 -0.8243
  730MOL0     C96281   0.071   8.751   6.817  0.1864 -0.1127 -0.8936
  730MOL0     C96282   0.497   8.798   6.720 -0.4563  0.0543  0.0798
  730MOL0     C96283   0.602   8.864   6.792 -0.0189 -0.6944  1.3505
  730MOL0     C96284   0.735   8.853   6.748 -0.7162  0.3007  0.4039
  730MOL0     C96285   0.773   8.756   6.656 -0.5067 -0.4950  0.1330
  730MOL0     O96286   0.909   8.730   6.647  0.0823  0.1749  0.5211
  730MOL0     C96287   0.950   8.664   6.533 -0.3818 -0.1398  0.6722
  730MOL0     C96288   1.094   8.710   6.503  1.1334 -0.2200 -1.3069
  730MOL0     C96289   1.153   8.646   6.389  0.5303  0.6331 -0.9328
  730MOL0     C96290   1.298   8.683   6.382 -0.3067  0.7036 -0.1964
  730MOL0     C96291   1.371   8.589   6.287 -0.2168 -0.0318  0.0764
  730MOL0     C96292   1.437   8.546   6.202  0.3389  0.8468  0.4052
  730MOL0     C96293   0.675   8.691   6.582 -0.0802  0.1592  0.3805
  730MOL0     C96294   0.538   8.719   6.609 -0.5944 -0.0753 -0.5626
  730MOL0     H96295   0.127   8.894   6.515 -0.4029  0.2399 -1.5482
  730MOL0     H96296  -0.115   8.981   6.565 -0.7009  0.2065  0.5202
  730MOL0     H96297  -0.374   8.864   6.664  0.3272  0.0966  0.3349
  730MOL0     H96298  -0.329   9.030   6.626  0.1886 -0.2183 -0.4166
  730MOL0     H96299  -0.460   9.121   6.807 -1.3147  0.7620 -2.6511
  730MOL0     H96300  -0.463   8.953   6.887 -0.2478  0.9580  0.1294
  730MOL0     H96301  -0.621   8.867   6.736 -3.5883  0.4708  0.0825
  730MOL0     H96302  -0.621   9.027   6.642  0.0921  1.8535  0.9104
  730MOL0     H96303  -0.691   9.023   6.930 -0.6780  1.5490  1.5711
  730MOL0     H96304  -0.731   9.147   6.816 -1.4446  0.4617  2.9986
  730MOL0     H96305  -0.831   8.854   6.832  1.9425 -1.6529 -4.0033
  730MOL0     H96306  -0.885   8.947   6.705 -0.5556 -2.3270  0.3253
  730MOL0     H96307  -0.971   9.115   6.889  1.0020  0.0164 -1.3060
  730MOL0     H96308  -0.900   9.001   7.007  0.3301 -1.7079 -0.8971
  730MOL0     H96309  -1.157   8.970   6.831 -1.2447 -2.0248 -0.2911
  730MOL0     H96310  -1.074   8.825   6.896 -0.0044  0.2757 -4.5354
  730MOL0     H96311  -1.172   9.055   7.076 -2.1325 -0.7228 -0.5381
  730MOL0     H96312  -1.082   8.911   7.122  0.4868 -1.5452 -1.6331
  730MOL0     H96313  -1.226   8.707   7.179  0.5305 -0.2418  0.2545
  730MOL0     H96314  -1.598   8.621   7.130 -0.3284  1.5370  0.3045
  730MOL0     H96315  -1.464   8.614   7.263  4.9028  3.4003 -1.1056
  730MOL0     H96316  -1.454   8.405   7.188  2.1236 -1.8593 -1.0085
  730MOL0     H96317  -1.342   8.491   7.080  0.3830 -2.6482  1.3196
  730MOL0     H96318  -1.512   8.509   6.898 -2.2500 -0.9392 -2.1593
  730MOL0     H96319  -1.486   8.353   6.935 -0.4315  0.7191 -1.3010
  730MOL0     H96320  -1.721   8.403   6.908  1.9882 -3.1011 -0.0742
  730MOL0     H96321  -1.727   8.503   7.049 -0.3979  1.2550 -1.6840
  730MOL0     H96322  -1.926   8.360   6.972  2.6780  2.0108  1.8762
  730MOL0     H96323  -2.133   8.288   7.026  0.4447  0.4237 -0.0452
  730MOL0     H96324  -2.381   7.853   7.249 -1.5855 -0.9854 -0.0163
  730MOL0     H96325  -2.619   7.830   7.293 -0.0436  0.1157  0.4416
  730MOL0     H96326  -2.848   8.148   7.513 -0.7518  0.9621  1.2767
  730MOL0     H96327  -2.827   7.997   7.605 -0.7994 -1.0626 -0.8219
  730MOL0     H96328  -3.023   7.886   7.461  0.4412 -0.0144 -2.6202
  730MOL0     H96329  -3.032   8.050   7.391 -1.1749  0.8549  1.3209
  730MOL0     H96330  -3.076   8.157   7.610 -1.2648 -0.2019 -0.9799
  730MOL0     H96331  -3.068   8.002   7.690 -0.4575 -0.2009  0.4416
  730MOL0     H96332  -3.269   8.068   7.491  0.9129 -0.1908  0.2480
  730MOL0     H96333  -3.254   7.907   7.571  1.1009  0.1330 -1.3351
  730MOL0     H96334  -3.262   8.172   7.729  2.3233 -0.6057 -2.0837
  730MOL0     H96335  -3.291   8.013   7.787 -1.1599 -0.6680 -1.6745
  730MOL0     H96336  -3.476   8.134   7.583  3.0324  2.7347 -0.3338
  730MOL0     H96337  -3.501   8.159   7.750 -1.9712  0.8690 -2.2426
  730MOL0     H96338  -3.492   7.887   7.601 -0.9311  1.2099 -0.7963
  730MOL0     H96339  -3.498   7.892   7.777  0.2591 -0.5014 -0.1227
  730MOL0     H96340  -3.700   8.035   7.760  0.8938 -0.9785  1.4462
  730MOL0     H96341  -3.734   7.872   7.705 -1.0135  0.8644 -1.5759
  730MOL0     H96342  -2.605   8.176   7.550  3.1517  1.5329  0.2389
  730MOL0     H96343  -2.376   8.194   7.504  0.8656 -1.1499 -0.0050
  730MOL0     H96344  -1.966   8.074   7.376  1.7987  0.8582  1.4388
  730MOL0     H96345  -1.738   8.156   7.283  1.1445  2.7501  0.2680
  730MOL0     H96346  -0.095   8.772   6.951  0.0616 -1.1419 -0.9588
  730MOL0     H96347   0.121   8.682   6.884 -2.6930 -0.7400  0.8137
  730MOL0     H96348   0.581   8.937   6.870  2.1597  2.3539 -0.6498
  730MOL0     H96349   0.811   8.904   6.806  0.1807  0.1714 -0.6340
  730MOL0     H96350   0.893   8.681   6.441  1.0864 -1.4863 -0.5643
  730MOL0     H96351   0.949   8.557   6.556 -0.1513 -1.6452 -4.8723
  730MOL0     H96352   1.083   8.819   6.500 -2.6980 -0.1864  2.9423
  730MOL0     H96353   1.149   8.690   6.596 -2.0317  1.3872  1.1058
  730MOL0     H96354   1.098   8.657   6.294 -1.9868 -2.0242  0.0728
  730MOL0     H96355   1.139   8.539   6.407  1.6126  0.8434  1.4847
  730MOL0     H96356   1.309   8.789   6.357 -1.4255  0.9766  0.4025
  730MOL0     H96357   1.348   8.684   6.479  0.9221  0.8372 -0.8156
  730MOL0     H96358   1.494   8.520   6.115  0.3158  1.6644  0.1320
  730MOL0     H96359   0.705   8.625   6.501 -2.6512 -1.6133  0.7408
  730MOL0     H96360   0.470   8.661   6.548  0.7842 -2.3687 -0.0321
  731MOL0     O96361   5.921   9.966   1.814 -0.4794  0.4452 -0.6277
  731MOL0     C96362   6.016   9.918   1.750 -0.2572 -0.0222 -0.5279
  731MOL0     O96363   6.020   9.878   1.616  0.3247  0.1458  0.2945
  731MOL0     C96364   5.896   9.875   1.552  0.6810 -0.0078 -0.2770
  731MOL0     C96365   5.789   9.797   1.601 -0.2545 -0.2824 -0.1783
  731MOL0     C96366   5.664   9.798   1.538  0.3261 -0.0756  0.1616
  731MOL0     C96367   5.642   9.878   1.420  0.4719  0.8909 -0.2139
  731MOL0     O96368   5.513   9.869   1.367  0.2647  0.7137 -0.5878
  731MOL0     C96369   5.488   9.760   1.283  0.6229  0.2192 -0.3427
  731MOL0     C96370   5.380   9.807   1.189  0.2825  0.3512 -0.5402
  731MOL0     C96371   5.240   9.831   1.250 -0.7562  0.4456  1.0380
  731MOL0     C96372   5.159   9.908   1.138  0.3389 -0.1139  0.6503
  731MOL0     C96373   5.026   9.971   1.187 -0.1392  0.1602 -0.0903
  731MOL0     C96374   4.911   9.870   1.173  0.4686 -0.4541 -0.4393
  731MOL0     C96375   4.771   9.932   1.178 -0.3837  0.5434 -0.3596
  731MOL0     C96376   4.731  10.030   1.066 -0.5922 -0.4364  0.8197
  731MOL0     N96377   4.601  10.093   1.085  0.8097 -0.8609  0.7026
  731MOL0     C96378   4.547  10.165   1.182 -0.3407 -0.1957  0.0473
  731MOL0     C96379   4.417  10.194   1.140 -0.6242 -0.3796 -0.4096
  731MOL0     C96380   4.297  10.263   1.213  0.0200 -0.2522  0.3020
  731MOL0     C96381   4.169  10.287   1.126  1.1986  1.0942  0.0828
  731MOL0     C96382   4.179  10.420   1.050 -0.9180 -0.2073 -0.3247
  731MOL0     C96383   4.050  10.450   0.973 -0.1171  0.2624 -0.7231
  731MOL0     O96384   3.960  10.542   1.049 -0.0434 -0.0229  0.1822
  731MOL0     C96385   3.828  10.534   1.005  0.7476  0.7489  0.1766
  731MOL0     C96386   3.781  10.478   0.883  0.3165  0.1524  0.7402
  731MOL0     C96387   3.635  10.481   0.859 -0.3294 -0.5232  0.4650
  731MOL0     C96388   3.548  10.527   0.957 -0.6356  0.1267  0.3641
  731MOL0     C96389   3.400  10.532   0.937 -0.1205 -1.0431 -0.2256
  731MOL0     O96390   3.320  10.591   1.035  0.9300 -0.7776 -0.0326
  731MOL0     C96391   3.184  10.587   1.011  0.2909 -0.9039  0.4132
  731MOL0     C96392   3.112  10.470   0.995 -0.3779 -0.7893  1.0874
  731MOL0     C96393   2.974  10.474   0.968 -0.3048  0.4624 -0.0162
  731MOL0     C96394   2.910  10.600   0.951 -0.0999  0.1483  0.0258
  731MOL0     O96395   2.781  10.615   0.915 -1.0978  0.0156 -0.2952
  731MOL0     C96396   2.707  10.501   0.893  0.2118  0.6463 -0.2705
  731MOL0     C96397   2.559  10.542   0.856 -0.5315  0.0086  0.7473
  731MOL0     C96398   2.476  10.573   0.980 -0.0277 -0.5604  0.1301
  731MOL0     C96399   2.328  10.600   0.959  0.0910  0.6976  0.4879
  731MOL0     C96400   2.245  10.615   1.084  0.1157 -0.7450  0.0775
  731MOL0     C96401   2.092  10.622   1.056  0.0055 -0.1775 -0.3904
  731MOL0     C96402   2.026  10.482   1.049 -0.1492  0.4387 -0.4128
  731MOL0     C96403   1.882  10.476   0.992  0.2247  0.6914 -0.1323
  731MOL0    Cl96404   1.875  10.470   0.815  0.1899  0.5846  0.0195
  731MOL0     C96405   2.986  10.713   0.968  0.0611 -0.4426 -0.6640
  731MOL0     C96406   3.123  10.706   0.994  0.6157  0.1234  0.4596
  731MOL0     O96407   3.352  10.493   0.830 -1.2873 -0.2307  0.5428
  731MOL0     C96408   3.596  10.574   1.075 -0.6367  0.3099 -0.0173
  731MOL0     C96409   3.735  10.573   1.099  0.0234  0.6079 -0.4712
  731MOL0     N96410   4.403  10.157   1.009 -0.0465  1.3081 -0.1612
  731MOL0     N96411   4.504  10.076   0.985 -0.1838  0.1190 -0.3813
  731MOL0     C96412   5.747   9.950   1.366 -0.0541 -1.1246  0.2223
  731MOL0     C96413   5.875   9.946   1.431  0.3300  0.2285  0.4234
  731MOL0     C96414   6.147   9.910   1.823 -0.1703  0.5158  0.1917
  731MOL0     C96415   6.265   9.868   1.755 -0.2802 -0.1348 -0.6595
  731MOL0     C96416   6.386   9.866   1.829  0.0848 -0.0151  0.5164
  731MOL0     C96417   6.392   9.896   1.963 -0.4518  0.1348  0.7900
  731MOL0     O96418   6.518   9.890   2.018 -0.2531  0.0661 -0.5838
  731MOL0     C96419   6.536   9.887   2.162 -0.1389  0.0794  0.2900
  731MOL0     C96420   6.492   9.754   2.227 -0.0873 -0.1118  0.4161
  731MOL0     C96421   6.604   9.644   2.206 -0.5896 -0.8432  0.8610
  731MOL0     C96422   6.599   9.565   2.074  0.1841  0.1698  0.4695
  731MOL0     C96423   6.635   9.422   2.088  0.6873  0.5331  0.0671
  731MOL0     C96424   6.692   9.310   2.080  0.2711 -0.5003  0.1131
  731MOL0     C96425   6.274   9.914   2.033  0.0196 -0.4074 -0.1748
  731MOL0     C96426   6.157   9.919   1.960 -0.4145 -0.4634 -0.3480
  731MOL0     H96427   5.801   9.738   1.691 -0.7632 -1.2123 -0.7085
  731MOL0     H96428   5.587   9.732   1.576  1.9189 -1.4749  1.0857
  731MOL0     H96429   5.458   9.667   1.333 -1.3165 -0.2343 -2.2020
  731MOL0     H96430   5.579   9.743   1.226  1.9565 -1.3997  2.0928
  731MOL0     H96431   5.363   9.728   1.116 -0.6799 -0.8365  0.9188
  731MOL0     H96432   5.415   9.894   1.132 -0.3830 -0.2725 -1.9343
  731MOL0     H96433   5.248   9.898   1.336 -2.5061  0.2031  1.4202
  731MOL0     H96434   5.187   9.740   1.278  0.7684 -1.0976 -0.8206
  731MOL0     H96435   5.220   9.982   1.084  2.1991 -2.5547 -0.7968
  731MOL0     H96436   5.138   9.843   1.052  0.7482 -1.1207  1.3035
  731MOL0     H96437   5.008  10.055   1.120  0.3171  0.8097  0.5796
  731MOL0     H96438   5.038  10.014   1.287  0.7739  1.1413 -0.6118
  731MOL0     H96439   4.920   9.803   1.259 -0.2042  0.1394  0.0912
  731MOL0     H96440   4.919   9.818   1.077 -2.2589 -2.3650  0.2381
  731MOL0     H96441   4.704   9.846   1.186  1.3641 -0.6923  2.8307
  731MOL0     H96442   4.768   9.974   1.279  2.1561 -1.2053  0.5429
  731MOL0     H96443   4.737   9.982   0.968  1.1212 -0.0436  0.6991
  731MOL0     H96444   4.803  10.112   1.076 -1.3427  0.3243  0.0866
  731MOL0     H96445   4.597  10.188   1.276  2.4044 -0.0698 -1.3370
  731MOL0     H96446   4.326  10.362   1.250  0.2350 -0.9733  2.1805
  731MOL0     H96447   4.259  10.207   1.299 -1.5425  0.1014 -0.1197
  731MOL0     H96448   4.078  10.283   1.186  2.0822  0.5048  1.4379
  731MOL0     H96449   4.158  10.215   1.044  2.9514  1.4000 -0.4672
  731MOL0     H96450   4.214  10.499   1.117  2.8287 -2.3597  0.5828
  731MOL0     H96451   4.257  10.410   0.974 -2.3292 -0.4081 -1.7896
  731MOL0     H96452   4.002  10.354   0.954  0.7865 -0.5033  0.6738
  731MOL0     H96453   4.074  10.496   0.877 -0.3946 -1.4083 -1.6371
  731MOL0     H96454   3.838  10.449   0.796 -0.7258  1.1544 -0.3129
  731MOL0     H96455   3.608  10.445   0.760  2.1538 -0.7721 -0.2040
  731MOL0     H96456   3.153  10.370   1.005 -2.9715 -2.0513 -0.1387
  731MOL0     H96457   2.919  10.383   0.946  4.2560 -2.7959  0.7452
  731MOL0     H96458   2.699  10.447   0.988 -0.7728 -0.7984 -1.1412
  731MOL0     H96459   2.748  10.432   0.819  1.3521  0.4354  0.5330
  731MOL0     H96460   2.508  10.462   0.803  0.6580 -1.8804  2.3075
  731MOL0     H96461   2.564  10.629   0.790 -1.1515 -1.1090 -0.8261
  731MOL0     H96462   2.520  10.660   1.028  0.9296 -1.5529  1.0872
  731MOL0     H96463   2.484  10.493   1.053  1.4144 -0.2655  0.3313
  731MOL0     H96464   2.313  10.681   0.887  1.8147  2.0916  1.6144
  731MOL0     H96465   2.291  10.511   0.906  1.7064  0.9598 -1.1837
  731MOL0     H96466   2.276  10.709   1.131 -2.3677  1.3105 -2.1069
  731MOL0     H96467   2.265  10.528   1.148  0.1363 -0.4808  0.4315
  731MOL0     H96468   2.070  10.664   0.958 -0.1608  1.2798  0.2367
  731MOL0     H96469   2.044  10.685   1.132  1.1679  0.7817 -0.4038
  731MOL0     H96470   2.091  10.411   0.997  0.8112  1.3081 -0.4193
  731MOL0     H96471   2.019  10.434   1.148  1.1392  1.2081  0.0784
  731MOL0     H96472   1.834  10.568   1.029 -0.4176  0.3215 -0.0394
  731MOL0     H96473   1.837  10.394   1.049  0.8124  0.4572  0.0020
  731MOL0     H96474   2.930  10.805   0.953 -2.9808 -2.2208 -1.1323
  731MOL0     H96475   3.190  10.791   0.998  2.0523 -0.9072 -0.7111
  731MOL0     H96476   3.539  10.616   1.157 -0.0204  1.1902 -0.0255
  731MOL0     H96477   3.759  10.622   1.193  2.1190  0.7151 -1.0219
  731MOL0     H96478   5.736  10.015   1.279  1.4823 -1.3988 -0.2063
  731MOL0     H96479   5.959  10.007   1.399  0.6726  0.4733  1.7195
  731MOL0     H96480   6.261   9.833   1.652 -1.2127  0.3783 -0.8135
  731MOL0     H96481   6.479   9.837   1.781  0.8726  1.3707  1.1305
  731MOL0     H96482   6.476   9.969   2.204 -0.1836  0.9417 -1.3678
  731MOL0     H96483   6.637   9.923   2.185 -0.1920  0.9500 -0.7344
  731MOL0     H96484   6.458   9.769   2.330  0.2740  0.7094  0.4172
  731MOL0     H96485   6.406   9.716   2.170  0.1938  1.6082 -1.2333
  731MOL0     H96486   6.581   9.573   2.286  1.5976 -0.5120  1.8671
  731MOL0     H96487   6.703   9.686   2.229 -1.3388  0.4401  1.8438
  731MOL0     H96488   6.493   9.562   2.044  0.0190  0.6739  0.9951
  731MOL0     H96489   6.651   9.609   1.988 -1.5586 -1.2425 -1.4222
  731MOL0     H96490   6.759   9.226   2.073  0.8073  0.0406 -2.3602
  731MOL0     H96491   6.269   9.921   2.141 -1.8435 -1.8657 -0.1244
  731MOL0     H96492   6.061   9.936   2.007 -0.2180  0.2060 -0.1742
  732MOL0     O96493   9.465   6.920   6.090  0.1858 -0.5505  0.5277
  732MOL0     C96494   9.442   6.853   6.192  0.5675 -0.1849 -0.4426
  732MOL0     O96495   9.521   6.840   6.297 -0.3990  0.2333  0.0491
  732MOL0     C96496   9.656   6.886   6.285  0.1623 -0.2850  0.4315
  732MOL0     C96497   9.718   6.944   6.396 -0.6922 -0.2308 -0.5140
  732MOL0     C96498   9.849   6.998   6.386 -0.3116  0.2899  0.7439
  732MOL0     C96499   9.922   7.000   6.268 -0.3140  0.3747 -0.3179
  732MOL0     O96500  10.048   7.047   6.260 -0.2229 -0.6983 -0.2434
  732MOL0     C96501  10.059   7.187   6.234 -0.0900  0.3397  0.2304
  732MOL0     C96502  10.085   7.285   6.348 -0.2193  0.1547  0.1963
  732MOL0     C96503  10.225   7.266   6.397  0.1000  0.1710 -0.4880
  732MOL0     C96504  10.245   7.343   6.525 -0.3410  0.5930 -0.0831
  732MOL0     C96505  10.394   7.384   6.563  0.8044  0.0332 -0.0832
  732MOL0     C96506  10.481   7.255   6.594 -0.5545  0.5059  0.4428
  732MOL0     C96507  10.629   7.272   6.646  0.0915 -0.1134  0.5464
  732MOL0     C96508  10.642   7.365   6.764 -1.0729  0.2731 -0.8428
  732MOL0     N96509  10.567   7.329   6.884 -0.5830  0.3344  0.6526
  732MOL0     C96510  10.565   7.190   6.932  0.0056  0.2295 -0.2789
  732MOL0     C96511  10.492   7.201   7.046 -0.2475  0.2363  0.8767
  732MOL0     C96512  10.462   7.091   7.147  0.7626 -0.2697 -0.4941
  732MOL0     C96513  10.320   7.024   7.132 -0.4449 -0.2784  0.0042
  732MOL0     C96514  10.209   7.106   7.099  0.4261 -0.1687  0.0480
  732MOL0     C96515  10.076   7.026   7.096  0.3158  0.2789 -0.2200
  732MOL0     O96516   9.967   7.109   7.046  0.3874 -0.4714  0.1570
  732MOL0     C96517   9.837   7.070   7.067  0.5678 -0.3927 -0.6484
  732MOL0     C96518   9.791   6.970   7.157 -0.0129 -0.2414 -0.0296
  732MOL0     C96519   9.658   6.955   7.183  0.0988  0.6305  0.2091
  732MOL0     C96520   9.561   7.032   7.112 -0.5265 -0.5254 -0.2174
  732MOL0     C96521   9.420   7.013   7.133 -0.8079  0.1434 -0.2293
  732MOL0     O96522   9.333   7.074   7.054  0.7957 -0.1381 -0.7486
  732MOL0     C96523   9.200   7.037   7.066 -0.5781  0.0986  0.9824
  732MOL0     C96524   9.113   7.142   7.105  0.4712 -0.7187 -0.9249
  732MOL0     C96525   8.979   7.117   7.142  0.4552  0.0305 -0.0719
  732MOL0     C96526   8.927   6.987   7.112 -0.9038 -0.0445 -0.3874
  732MOL0     O96527   8.798   6.957   7.126  1.0323 -0.3556  0.3991
  732MOL0     C96528   8.704   7.073   7.110  0.1321  0.2491  0.7613
  732MOL0     C96529   8.556   7.025   7.087  0.2254 -0.6303 -0.5651
  732MOL0     C96530   8.497   7.015   7.226 -1.0193 -0.6069 -0.3092
  732MOL0     C96531   8.351   6.980   7.236  0.6530 -0.0397 -0.5913
  732MOL0     C96532   8.312   6.939   7.385 -0.0514  0.3177 -0.0985
  732MOL0     C96533   8.333   7.055   7.474  0.6269 -0.8704 -0.3727
  732MOL0     C96534   8.269   7.055   7.614  0.5376  0.3657  0.0556
  732MOL0     C96535   8.293   7.189   7.691  0.0364  0.4312 -0.0791
  732MOL0    Cl96536   8.205   7.181   7.849 -0.3361 -0.3166 -0.0463
  732MOL0     C96537   9.010   6.881   7.064  0.3050 -0.0740 -0.5275
  732MOL0     C96538   9.149   6.907   7.046  0.2826  0.3873  0.0712
  732MOL0     O96539   9.391   6.942   7.226  0.6330 -0.0602  0.3431
  732MOL0     C96540   9.607   7.138   7.039  0.5840 -0.0129 -0.3765
  732MOL0     C96541   9.741   7.155   7.013 -0.0270 -0.0168  0.3774
  732MOL0     N96542  10.441   7.333   7.053 -0.0985  0.0076 -0.0273
  732MOL0     N96543  10.490   7.407   6.959  0.1087  0.3789  0.2461
  732MOL0     C96544   9.863   6.930   6.159  0.8774  0.6206  0.1268
  732MOL0     C96545   9.730   6.873   6.167 -0.4503 -0.4640  0.2674
  732MOL0     C96546   9.309   6.795   6.202 -0.2093 -0.5743 -0.5202
  732MOL0     C96547   9.237   6.774   6.092 -0.1813  0.8292  0.3277
  732MOL0     C96548   9.106   6.713   6.096  0.3339 -0.3615  0.0153
  732MOL0     C96549   9.044   6.689   6.219 -0.6003 -0.3144  0.6281
  732MOL0     O96550   8.919   6.642   6.246 -0.0311  0.2355  0.7853
  732MOL0     C96551   8.838   6.609   6.129 -0.4192  0.9822 -0.4620
  732MOL0     C96552   8.723   6.527   6.160  0.1671  0.1894 -0.7422
  732MOL0     C96553   8.658   6.470   6.035  0.1197  0.5072  0.7290
  732MOL0     C96554   8.518   6.411   6.056  0.1094 -0.2181 -0.2292
  732MOL0     C96555   8.461   6.356   5.926  0.3105  0.6583 -0.4508
  732MOL0     C96556   8.400   6.327   5.828  0.7339 -0.3605 -0.0801
  732MOL0     C96557   9.118   6.723   6.340  0.8628  0.4734  0.4118
  732MOL0     C96558   9.252   6.765   6.325 -0.0819 -1.0223 -0.2095
  732MOL0     H96559   9.669   6.963   6.491  2.5408  0.4606  1.1684
  732MOL0     H96560   9.888   7.067   6.460  0.4281  2.1281 -1.2641
  732MOL0     H96561   9.968   7.224   6.186 -1.8186  0.9410  3.6307
  732MOL0     H96562  10.141   7.192   6.162  0.8916 -1.2233  1.1861
  732MOL0     H96563  10.009   7.253   6.420 -0.8492  0.8238 -0.1495
  732MOL0     H96564  10.070   7.388   6.316 -0.7313  0.2347  0.6851
  732MOL0     H96565  10.304   7.292   6.325 -0.3049 -1.2145 -1.4818
  732MOL0     H96566  10.233   7.160   6.421 -3.9962 -0.1408  0.0445
  732MOL0     H96567  10.199   7.442   6.520  0.2648  0.8406 -1.1437
  732MOL0     H96568  10.203   7.284   6.607  2.3308 -2.4006 -0.7005
  732MOL0     H96569  10.380   7.456   6.645 -0.0727 -1.5135  1.1815
  732MOL0     H96570  10.442   7.440   6.482  1.0219 -0.0485 -0.0139
  732MOL0     H96571  10.493   7.197   6.502  0.3432 -0.9872  1.4494
  732MOL0     H96572  10.420   7.201   6.668 -3.3186  0.6142 -1.6231
  732MOL0     H96573  10.681   7.179   6.672 -0.4800 -0.2659  1.1616
  732MOL0     H96574  10.689   7.317   6.566  1.8914 -1.6426  0.9600
  732MOL0     H96575  10.615   7.464   6.727 -3.7143 -0.5598 -1.3376
  732MOL0     H96576  10.745   7.363   6.802 -2.3510  0.2538  2.9824
  732MOL0     H96577  10.623   7.105   6.899 -2.2214 -0.2539 -3.3279
  732MOL0     H96578  10.471   7.133   7.247 -1.6796  1.7568 -1.0117
  732MOL0     H96579  10.538   7.013   7.136  0.4951 -0.4375 -1.1946
  732MOL0     H96580  10.294   6.958   7.216 -0.1848 -1.7135 -0.9984
  732MOL0     H96581  10.326   6.955   7.047 -2.1448 -2.3983  1.4988
  732MOL0     H96582  10.206   7.188   7.171  0.5737 -0.6163  0.5721
  732MOL0     H96583  10.225   7.158   7.004 -0.4180  2.1975  1.1219
  732MOL0     H96584  10.056   6.999   7.200 -2.1230  3.1019  0.1869
  732MOL0     H96585  10.083   6.937   7.032 -2.0858 -0.4327  0.4060
  732MOL0     H96586   9.872   6.918   7.208  1.5326  2.5619  0.6145
  732MOL0     H96587   9.626   6.877   7.251 -0.5672  0.8406  0.1410
  732MOL0     H96588   9.156   7.241   7.109 -1.4527  0.2308 -2.2974
  732MOL0     H96589   8.922   7.205   7.170 -0.3111 -0.7248  0.7919
  732MOL0     H96590   8.731   7.134   7.023  0.4397  0.2328  0.8452
  732MOL0     H96591   8.721   7.136   7.198 -0.0893  1.3682  0.0344
  732MOL0     H96592   8.556   6.936   7.022  0.5487  1.5532 -3.7817
  732MOL0     H96593   8.502   7.096   7.025 -0.3453 -0.8150 -0.2883
  732MOL0     H96594   8.511   7.110   7.279 -1.7908 -1.3793  1.3687
  732MOL0     H96595   8.557   6.939   7.278 -0.7628  1.6716  2.9898
  732MOL0     H96596   8.295   7.068   7.201  1.0243 -0.4952 -2.4417
  732MOL0     H96597   8.336   6.896   7.168 -3.0598  0.2671 -0.3724
  732MOL0     H96598   8.373   6.857   7.424 -0.3466  1.3356  2.7221
  732MOL0     H96599   8.208   6.905   7.392 -0.0670  0.4184  0.1654
  732MOL0     H96600   8.293   7.141   7.420  0.4693 -2.2682 -2.6434
  732MOL0     H96601   8.439   7.078   7.481  1.4286 -3.0904 -3.1858
  732MOL0     H96602   8.163   7.048   7.589  0.9540 -0.2495 -1.7679
  732MOL0     H96603   8.307   6.968   7.667 -0.7044 -0.1802  0.0897
  732MOL0     H96604   8.245   7.268   7.633  1.0008  2.3648  1.5866
  732MOL0     H96605   8.401   7.200   7.708  0.0006 -1.2236  1.6195
  732MOL0     H96606   8.974   6.781   7.041  0.4280 -0.9811  2.6857
  732MOL0     H96607   9.213   6.827   7.010 -2.0483 -0.7171 -1.8498
  732MOL0     H96608   9.528   7.193   6.989 -0.5379 -2.0611 -0.9484
  732MOL0     H96609   9.765   7.230   6.939 -3.0849 -0.4776 -1.2470
  732MOL0     H96610   9.917   6.918   6.066  0.4460  2.6898 -0.4595
  732MOL0     H96611   9.690   6.827   6.077 -0.4636  1.1722 -0.6035
  732MOL0     H96612   9.275   6.787   5.991 -0.0137  0.6469  0.3678
  732MOL0     H96613   9.048   6.695   6.006 -0.5875 -1.1928  0.7563
  732MOL0     H96614   8.891   6.550   6.054 -0.7386  2.9770 -2.3572
  732MOL0     H96615   8.816   6.698   6.069 -2.2987  2.3099  1.9933
  732MOL0     H96616   8.771   6.447   6.217  0.6592 -0.4334 -1.9950
  732MOL0     H96617   8.659   6.577   6.234  2.2956 -0.1391  1.4604
  732MOL0     H96618   8.718   6.392   5.987 -3.4906 -1.5760 -0.8275
  732MOL0     H96619   8.644   6.549   5.961 -0.6609 -1.7468 -1.7098
  732MOL0     H96620   8.525   6.331   6.130  1.1932  0.7039  0.6956
  732MOL0     H96621   8.457   6.487   6.105  1.8981  1.2410 -0.1497
  732MOL0     H96622   8.337   6.329   5.741  4.0004  1.3765 -2.6042
  732MOL0     H96623   9.076   6.711   6.439  0.2309 -0.9226 -0.0049
  732MOL0     H96624   9.299   6.800   6.416  2.7850 -2.1984 -1.1445
  733MOL0     O96625   1.652   2.037   3.732  0.0640 -0.3677  0.3115
  733MOL0     C96626   1.681   1.935   3.804  0.2705 -0.5649 -0.3994
  733MOL0     O96627   1.586   1.858   3.872  0.0003 -0.0340 -0.4194
  733MOL0     C96628   1.453   1.884   3.895 -0.0293 -0.5210  0.1011
  733MOL0     C96629   1.387   1.782   3.964 -0.4865  0.2143  0.1380
  733MOL0     C96630   1.249   1.779   3.983  0.2331 -0.5313  0.0359
  733MOL0     C96631   1.174   1.893   3.935  0.6670 -0.3938 -1.2817
  733MOL0     O96632   1.041   1.906   3.922 -0.1960 -0.7041  0.4334
  733MOL0     C96633   0.970   1.811   3.843 -0.0159  0.6469 -0.3872
  733MOL0     C96634   0.858   1.741   3.922 -0.2883  0.6591 -0.4283
  733MOL0     C96635   0.772   1.641   3.848 -0.1757 -0.6224 -0.2546
  733MOL0     C96636   0.641   1.596   3.910  0.6459 -0.8339  0.8664
  733MOL0     C96637   0.547   1.530   3.810  0.0438  0.4888 -0.4006
  733MOL0     C96638   0.403   1.491   3.873 -0.3954  0.5116 -0.1111
  733MOL0     C96639   0.309   1.434   3.769  0.2051  0.1235  0.1950
  733MOL0     C96640   0.340   1.288   3.739  0.3907 -0.5746  0.3152
  733MOL0     N96641   0.224   1.236   3.662  0.1937  0.2145  0.5900
  733MOL0     C96642   0.179   1.285   3.540 -0.3716  1.2168  1.0175
  733MOL0     C96643   0.068   1.205   3.507  0.1942 -0.6677  0.1648
  733MOL0     C96644  -0.011   1.194   3.382 -0.8694  0.2432  0.8836
  733MOL0     C96645  -0.162   1.222   3.396  0.8442 -0.4095  0.4776
  733MOL0     C96646  -0.196   1.348   3.307  0.2916  0.2989 -0.1956
  733MOL0     C96647  -0.338   1.402   3.334  0.7890 -0.8179 -0.2332
  733MOL0     O96648  -0.426   1.302   3.281  0.3356 -0.0427  0.4940
  733MOL0     C96649  -0.564   1.317   3.315 -0.6994  0.0984  0.5655
  733MOL0     C96650  -0.612   1.450   3.352  0.6454  0.0067 -0.1934
  733MOL0     C96651  -0.751   1.464   3.371 -0.0802 -0.7596  0.6358
  733MOL0     C96652  -0.842   1.357   3.354  0.0519 -0.0582  0.1868
  733MOL0     C96653  -0.985   1.379   3.371 -0.4230 -0.6734 -0.2836
  733MOL0     O96654  -1.071   1.268   3.348 -0.2530  0.1582  0.1674
  733MOL0     C96655  -1.206   1.290   3.349 -0.2020 -0.2960 -0.7086
  733MOL0     C96656  -1.277   1.231   3.452 -0.0893 -0.4446  0.3613
  733MOL0     C96657  -1.415   1.254   3.452  0.0338 -0.6958 -0.1925
  733MOL0     C96658  -1.482   1.328   3.350  0.5443  0.8117  0.9306
  733MOL0     O96659  -1.619   1.342   3.337  0.4290 -0.5708  0.9665
  733MOL0     C96660  -1.712   1.276   3.422 -0.3847  0.9500  0.4579
  733MOL0     C96661  -1.855   1.318   3.396 -0.5558 -0.2317  0.2563
  733MOL0     C96662  -1.957   1.240   3.484  0.6177  0.0250 -0.3779
  733MOL0     C96663  -2.094   1.248   3.419 -0.4276  0.1178  0.5978
  733MOL0     C96664  -2.200   1.163   3.487  0.1182 -0.2049 -0.3634
  733MOL0     C96665  -2.327   1.173   3.399  0.2573 -0.7734 -0.3324
  733MOL0     C96666  -2.445   1.095   3.451  0.1873  0.3123  0.2349
  733MOL0     C96667  -2.494   1.137   3.588 -0.4933 -1.6612 -0.2914
  733MOL0    Cl96668  -2.564   1.303   3.609 -0.2399 -0.2503  0.7680
  733MOL0     C96669  -1.403   1.379   3.245  0.5968 -0.1332 -0.1265
  733MOL0     C96670  -1.268   1.367   3.246 -0.0172 -0.1758 -0.0440
  733MOL0     O96671  -1.031   1.494   3.407 -0.8229 -0.1011  0.4910
  733MOL0     C96672  -0.791   1.228   3.315  0.3967  0.8065 -0.7734
  733MOL0     C96673  -0.657   1.215   3.287 -0.9121 -0.0576 -0.1798
  733MOL0     N96674   0.047   1.124   3.617 -0.3095  0.9640  0.2221
  733MOL0     N96675   0.143   1.137   3.701  0.6167  0.6402  0.5478
  733MOL0     C96676   1.245   2.008   3.885  0.7185 -0.5290 -0.8396
  733MOL0     C96677   1.383   1.996   3.858 -0.9858 -0.2959  0.2644
  733MOL0     C96678   1.822   1.895   3.818  0.3226  0.3130 -0.2189
  733MOL0     C96679   1.921   1.996   3.802 -0.8208  0.4372 -0.2167
  733MOL0     C96680   2.055   1.961   3.785 -0.6756  0.8484  0.5509
  733MOL0     C96681   2.088   1.826   3.786  0.0205  0.9008 -0.6648
  733MOL0     O96682   2.208   1.763   3.740 -0.6452 -0.1168 -0.2579
  733MOL0     C96683   2.268   1.800   3.621 -0.0297  0.4671 -0.7648
  733MOL0     C96684   2.429   1.806   3.647  0.7132  0.3658 -0.2108
  733MOL0     C96685   2.482   1.662   3.683 -0.7479 -0.1804 -0.1311
  733MOL0     C96686   2.638   1.665   3.711  0.5655  0.2714  0.0321
  733MOL0     C96687   2.719   1.698   3.589  0.0114 -0.7655 -0.8869
  733MOL0     C96688   2.768   1.710   3.483 -0.2499 -0.5366 -0.0614
  733MOL0     C96689   1.994   1.734   3.824 -0.1152  0.1756  0.0529
  733MOL0     C96690   1.866   1.763   3.839  1.1722 -0.4670 -0.4266
  733MOL0     H96691   1.432   1.684   3.978 -0.8124  0.0598  0.1078
  733MOL0     H96692   1.197   1.691   4.017 -2.2188  0.6984 -0.3250
  733MOL0     H96693   1.039   1.733   3.809  0.1139  0.4782  0.2579
  733MOL0     H96694   0.927   1.870   3.761  0.6214  1.6735  0.0042
  733MOL0     H96695   0.793   1.823   3.954 -0.2170 -0.2320  2.2754
  733MOL0     H96696   0.894   1.688   4.011  0.6525  2.5820  0.3930
  733MOL0     H96697   0.829   1.551   3.822  0.5412 -0.0726 -0.6140
  733MOL0     H96698   0.739   1.696   3.759 -3.3988 -0.1263  1.0972
  733MOL0     H96699   0.661   1.516   3.983 -0.4883 -1.3828  0.5986
  733MOL0     H96700   0.584   1.669   3.968  1.5170  0.0921  0.5858
  733MOL0     H96701   0.590   1.444   3.757 -1.4115  1.3972 -3.2948
  733MOL0     H96702   0.515   1.598   3.731  0.5800 -0.5046 -1.5068
  733MOL0     H96703   0.346   1.578   3.909  0.5820 -0.1059  3.2897
  733MOL0     H96704   0.422   1.422   3.956  1.9490 -1.0014 -1.8042
  733MOL0     H96705   0.201   1.438   3.788 -0.1641  1.7099 -1.8838
  733MOL0     H96706   0.323   1.492   3.678 -2.7593 -0.4639 -0.7451
  733MOL0     H96707   0.356   1.236   3.835  0.4845 -0.8346  0.1617
  733MOL0     H96708   0.428   1.283   3.674  0.8279 -1.3862  0.9398
  733MOL0     H96709   0.226   1.362   3.479  4.2635 -1.6859  0.3439
  733MOL0     H96710   0.003   1.089   3.353 -1.7278  0.0134  1.2572
  733MOL0     H96711   0.034   1.265   3.313 -0.0749  2.1159  3.2112
  733MOL0     H96712  -0.177   1.252   3.500  0.5998  0.9815  0.0563
  733MOL0     H96713  -0.221   1.133   3.371  1.2477 -0.3931 -0.6110
  733MOL0     H96714  -0.125   1.429   3.329 -3.0106  2.7585  2.3949
  733MOL0     H96715  -0.196   1.326   3.200 -3.4181  1.6090 -0.6120
  733MOL0     H96716  -0.356   1.490   3.271 -0.8735 -0.1864  1.0577
  733MOL0     H96717  -0.342   1.429   3.439  1.4077  1.3733 -0.7186
  733MOL0     H96718  -0.549   1.538   3.366  1.7816 -1.1112  2.6773
  733MOL0     H96719  -0.780   1.563   3.403 -2.3851 -0.2797 -2.5270
  733MOL0     H96720  -1.218   1.176   3.524  0.4244 -0.3198  0.0356
  733MOL0     H96721  -1.471   1.214   3.536 -0.7489 -2.0378 -1.3167
  733MOL0     H96722  -1.692   1.291   3.529 -1.0759  0.4440  0.6669
  733MOL0     H96723  -1.697   1.169   3.407  0.0831  0.9357  0.9814
  733MOL0     H96724  -1.879   1.306   3.290  0.7297 -0.6358  0.0003
  733MOL0     H96725  -1.870   1.425   3.416 -2.4157 -0.8892  2.8745
  733MOL0     H96726  -1.940   1.281   3.584 -0.8428 -2.7952  1.1363
  733MOL0     H96727  -1.935   1.134   3.490 -2.8285 -0.9786 -2.4210
  733MOL0     H96728  -2.132   1.350   3.410 -0.7670 -0.1729 -2.1385
  733MOL0     H96729  -2.079   1.203   3.320  1.3137 -0.1347  0.9472
  733MOL0     H96730  -2.204   1.191   3.592  2.0962 -1.1557  0.0137
  733MOL0     H96731  -2.162   1.060   3.490  0.8721 -0.0682 -2.9355
  733MOL0     H96732  -2.301   1.129   3.302 -1.2511 -3.0580  0.2203
  733MOL0     H96733  -2.352   1.279   3.392 -0.4600 -1.0330 -2.3863
  733MOL0     H96734  -2.524   1.082   3.376  0.9592 -2.7737 -0.1780
  733MOL0     H96735  -2.407   0.993   3.463  2.7753  1.2680  0.7965
  733MOL0     H96736  -2.415   1.123   3.663  0.8168  0.3843 -1.1810
  733MOL0     H96737  -2.572   1.064   3.611 -0.6649 -0.5785  3.1090
  733MOL0     H96738  -1.457   1.442   3.175  1.1577 -3.0627 -3.5258
  733MOL0     H96739  -1.204   1.416   3.174 -1.8118  3.2295  0.4929
  733MOL0     H96740  -0.866   1.151   3.297  0.4796  0.8070 -1.1200
  733MOL0     H96741  -0.622   1.121   3.245 -0.4219  1.0587 -2.3958
  733MOL0     H96742   1.199   2.102   3.859 -1.7244 -0.8571  1.7932
  733MOL0     H96743   1.429   2.083   3.812 -3.0285  0.5300 -0.3005
  733MOL0     H96744   1.900   2.102   3.792 -1.4351  0.5646  1.7979
  733MOL0     H96745   2.127   2.040   3.766  1.4898 -1.2898 -0.6679
  733MOL0     H96746   2.228   1.900   3.604 -1.0347  0.4843  1.3656
  733MOL0     H96747   2.245   1.725   3.545  1.0209  0.1398 -0.7791
  733MOL0     H96748   2.474   1.852   3.559 -0.6021  2.7597  0.2832
  733MOL0     H96749   2.445   1.876   3.729 -0.9145  1.0440 -0.4257
  733MOL0     H96750   2.463   1.600   3.595 -2.2446  0.9444 -0.6614
  733MOL0     H96751   2.427   1.620   3.768 -1.4066  1.9452  0.5657
  733MOL0     H96752   2.658   1.741   3.788 -0.8652  0.1566  0.5364
  733MOL0     H96753   2.673   1.575   3.762 -2.6892  0.1250  2.2663
  733MOL0     H96754   2.803   1.705   3.382  2.3034 -0.4443  0.7383
  733MOL0     H96755   2.018   1.634   3.857 -3.5500 -0.8508 -0.1528
  733MOL0     H96756   1.801   1.680   3.868  2.0262 -0.7331  0.8290
  734MOL0     O96757   6.192   6.894   6.723  0.0686 -1.1301 -0.4273
  734MOL0     C96758   6.204   6.793   6.655 -0.9121 -0.6244  0.0329
  734MOL0     O96759   6.108   6.719   6.601 -0.1764  0.3290 -0.0762
  734MOL0     C96760   5.986   6.775   6.582  0.3298  0.1295 -0.5988
  734MOL0     C96761   5.966   6.883   6.495  0.5355 -0.1612 -0.6747
  734MOL0     C96762   5.840   6.936   6.473 -0.2957 -0.1103  0.9448
  734MOL0     C96763   5.730   6.885   6.537  0.2525  0.3485 -0.6716
  734MOL0     O96764   5.614   6.948   6.500  0.3790  0.1715  0.2673
  734MOL0     C96765   5.496   6.881   6.543 -0.2443 -0.0392 -0.9107
  734MOL0     C96766   5.359   6.938   6.505  0.0935  1.1522  0.3501
  734MOL0     C96767   5.332   7.062   6.590  0.2734 -0.0835  0.2075
  734MOL0     C96768   5.216   7.150   6.529  0.5918  0.7446 -0.2152
  734MOL0     C96769   5.083   7.121   6.585  0.2881  0.1052 -0.5540
  734MOL0     C96770   4.978   7.194   6.502 -0.0326  0.6982  0.4453
  734MOL0     C96771   4.837   7.147   6.540 -0.2568 -0.4103  0.2693
  734MOL0     C96772   4.735   7.231   6.464 -0.5008  0.3599  0.8933
  734MOL0     N96773   4.593   7.191   6.491  0.3979  0.9718 -0.2457
  734MOL0     C96774   4.493   7.279   6.516 -0.1391  0.0961  0.0593
  734MOL0     C96775   4.380   7.200   6.508 -0.6196  0.0262  0.2972
  734MOL0     C96776   4.230   7.232   6.522 -0.6450 -0.0486 -0.2496
  734MOL0     C96777   4.207   7.373   6.589  0.1328  0.1657 -0.3109
  734MOL0     C96778   4.065   7.432   6.576 -0.7753  0.5009 -0.4043
  734MOL0     C96779   3.944   7.347   6.629 -0.0569  0.4451 -0.3213
  734MOL0     O96780   3.834   7.433   6.581 -0.0257  0.1989 -0.2646
  734MOL0     C96781   3.699   7.407   6.614  0.0291  0.9454 -0.6220
  734MOL0     C96782   3.608   7.513   6.624 -0.3061 -0.4063  0.7826
  734MOL0     C96783   3.477   7.493   6.664 -0.2432  0.6445 -0.0330
  734MOL0     C96784   3.426   7.363   6.693 -0.0323  0.0576  0.9792
  734MOL0     C96785   3.275   7.341   6.721 -0.1513  0.1019 -0.1662
  734MOL0     O96786   3.206   7.456   6.761  0.5099 -0.6717  0.5814
  734MOL0     C96787   3.070   7.446   6.776  0.3584 -0.7473  0.0890
  734MOL0     C96788   3.010   7.343   6.853  0.4637 -1.1621 -0.6879
  734MOL0     C96789   2.874   7.345   6.868 -0.4634  1.4841  0.6568
  734MOL0     C96790   2.802   7.461   6.816 -0.3889  0.2488 -0.6383
  734MOL0     O96791   2.671   7.444   6.844  0.0240  0.0784 -0.2186
  734MOL0     C96792   2.610   7.568   6.881 -0.1122  0.2577 -0.0257
  734MOL0     C96793   2.468   7.533   6.927 -0.3645 -0.2544 -0.4389
  734MOL0     C96794   2.376   7.647   6.951  0.2022  0.6679  0.1002
  734MOL0     C96795   2.394   7.735   7.076  0.1916 -0.3862 -0.8637
  734MOL0     C96796   2.314   7.872   7.087  0.2030  0.2415  0.1347
  734MOL0     C96797   2.164   7.846   7.106  0.2624  0.2300  0.4184
  734MOL0     C96798   2.081   7.967   7.078  0.3348  0.2404  0.7053
  734MOL0     C96799   1.928   7.941   7.112  0.6210  0.0735 -0.6598
  734MOL0    Cl96800   1.840   8.095   7.069  0.0047  0.3489  0.4379
  734MOL0     C96801   2.850   7.557   6.738  0.5057  0.0661  0.3830
  734MOL0     C96802   2.990   7.545   6.714 -0.1852 -0.7231  0.1927
  734MOL0     O96803   3.236   7.227   6.717 -0.3994  0.2616 -0.1418
  734MOL0     C96804   3.512   7.254   6.678  0.0119 -0.3123 -0.2263
  734MOL0     C96805   3.650   7.274   6.649  0.0810 -0.7619  0.0042
  734MOL0     N96806   4.419   7.065   6.498  0.6826  0.2524 -0.6698
  734MOL0     N96807   4.547   7.056   6.487  0.1866 -0.7261  0.3679
  734MOL0     C96808   5.744   6.768   6.618  0.2194  0.5331  0.2406
  734MOL0     C96809   5.877   6.716   6.632  0.6732  0.1312  0.5083
  734MOL0     C96810   6.348   6.740   6.628  0.7157  0.6631 -0.0247
  734MOL0     C96811   6.372   6.630   6.546 -0.0668 -0.5133 -0.6166
  734MOL0     C96812   6.497   6.585   6.509 -0.2767 -0.4741  0.4487
  734MOL0     C96813   6.615   6.656   6.549  0.1834  0.6661  0.9027
  734MOL0     O96814   6.750   6.624   6.538 -0.3476 -0.2431 -0.1670
  734MOL0     C96815   6.780   6.514   6.446 -0.3633  0.8012 -0.4079
  734MOL0     C96816   6.813   6.562   6.300  0.1247  0.6778 -0.2805
  734MOL0     C96817   6.946   6.644   6.301  0.6313 -0.3252  0.0941
  734MOL0     C96818   6.997   6.660   6.167 -0.0736  0.0754  0.3078
  734MOL0     C96819   7.115   6.754   6.163  0.5095  0.6850  0.5188
  734MOL0     C96820   7.207   6.831   6.144 -0.3693 -0.2342 -0.0195
  734MOL0     C96821   6.589   6.759   6.643 -0.1374 -0.5841  0.5326
  734MOL0     C96822   6.462   6.808   6.676 -0.9876  0.1904  0.0388
  734MOL0     H96823   6.059   6.926   6.459  0.5694  1.1509  0.8859
  734MOL0     H96824   5.844   7.027   6.414  1.9478 -0.3661  0.6259
  734MOL0     H96825   5.505   6.863   6.651  2.2232  1.8555 -0.7104
  734MOL0     H96826   5.498   6.777   6.510  1.7902 -0.3725  0.0656
  734MOL0     H96827   5.283   6.863   6.529  1.5103 -0.6242 -0.5028
  734MOL0     H96828   5.360   6.954   6.397  1.0951  1.8121  0.4452
  734MOL0     H96829   5.419   7.128   6.602 -0.0930  0.3065  0.7625
  734MOL0     H96830   5.312   7.025   6.691 -4.9398  1.9812  0.1954
  734MOL0     H96831   5.245   7.255   6.536  0.5699  0.8519 -1.5496
  734MOL0     H96832   5.221   7.129   6.422  0.0472 -1.9328  0.2132
  734MOL0     H96833   5.081   7.156   6.689 -2.3236  1.4876 -1.0026
  734MOL0     H96834   5.058   7.015   6.598  0.3936  0.1807  0.3200
  734MOL0     H96835   4.990   7.176   6.395 -0.0322 -0.2023  0.5887
  734MOL0     H96836   4.989   7.303   6.512  0.7602  0.6019  0.6541
  734MOL0     H96837   4.831   7.042   6.507  0.9157 -0.6041  0.6216
  734MOL0     H96838   4.821   7.162   6.647 -2.8137  1.6209 -0.3015
  734MOL0     H96839   4.742   7.226   6.355  1.0570  4.2333  0.6386
  734MOL0     H96840   4.758   7.333   6.497 -0.5903 -0.6314  4.4298
  734MOL0     H96841   4.492   7.387   6.528 -0.5335  0.2625 -1.2657
  734MOL0     H96842   4.176   7.160   6.585 -2.6213  1.5977  0.0496
  734MOL0     H96843   4.200   7.234   6.417  0.2840 -0.3849 -0.5265
  734MOL0     H96844   4.279   7.450   6.556  0.4983 -0.2506 -0.4986
  734MOL0     H96845   4.236   7.359   6.693  1.2691  2.6258 -0.2248
  734MOL0     H96846   4.060   7.528   6.629 -1.3387 -0.9555  2.3496
  734MOL0     H96847   4.054   7.451   6.469  0.2267  1.9899 -0.2818
  734MOL0     H96848   3.940   7.351   6.739 -4.0173  0.1881 -0.3071
  734MOL0     H96849   3.933   7.245   6.592  1.5867  0.0225  0.2928
  734MOL0     H96850   3.632   7.616   6.599 -0.4640 -0.3311  0.9390
  734MOL0     H96851   3.408   7.575   6.680 -0.5750  0.7206 -1.6863
  734MOL0     H96852   3.073   7.265   6.894  2.5831 -0.1351 -1.8401
  734MOL0     H96853   2.831   7.260   6.918 -0.2252  0.5879 -0.6118
  734MOL0     H96854   2.589   7.638   6.800 -1.1882 -1.6967 -1.5198
  734MOL0     H96855   2.672   7.625   6.952 -0.0395 -0.4376  0.4802
  734MOL0     H96856   2.483   7.476   7.019  0.5591  0.0301 -0.4067
  734MOL0     H96857   2.426   7.454   6.864 -1.8679 -0.0511  0.2543
  734MOL0     H96858   2.273   7.612   6.959  0.2244 -1.2657 -4.7702
  734MOL0     H96859   2.380   7.711   6.862  0.2747  0.3514 -0.1268
  734MOL0     H96860   2.375   7.674   7.165 -1.2971  1.6854  0.3298
  734MOL0     H96861   2.499   7.767   7.073  0.5191 -1.4949 -2.4447
  734MOL0     H96862   2.333   7.937   7.001  0.8761 -0.5063 -0.3041
  734MOL0     H96863   2.351   7.927   7.174  0.3240 -1.2804  1.0812
  734MOL0     H96864   2.141   7.817   7.209 -1.0688 -1.6061 -0.3446
  734MOL0     H96865   2.115   7.772   7.042 -0.1859 -0.1542  1.1951
  734MOL0     H96866   2.117   8.051   7.137  1.8111  0.1960 -0.0843
  734MOL0     H96867   2.085   8.014   6.979 -2.0883  0.5318  0.6894
  734MOL0     H96868   1.923   7.933   7.221  0.8156 -2.2990 -0.7731
  734MOL0     H96869   1.891   7.852   7.060 -0.6513  0.1094  0.1476
  734MOL0     H96870   2.792   7.644   6.708  0.2947 -0.4696 -0.8596
  734MOL0     H96871   3.041   7.625   6.661 -0.7542 -0.7310 -0.3784
  734MOL0     H96872   3.473   7.153   6.688 -0.1713 -0.3581 -1.2721
  734MOL0     H96873   3.712   7.185   6.651  0.2148 -0.7856 -2.4340
  734MOL0     H96874   5.660   6.711   6.657  0.8602 -0.9396 -0.4597
  734MOL0     H96875   5.874   6.618   6.679 -2.0443 -0.5247 -0.8381
  734MOL0     H96876   6.288   6.571   6.511  0.5401  0.1758 -3.4393
  734MOL0     H96877   6.499   6.496   6.447 -1.0486  0.3947 -0.8734
  734MOL0     H96878   6.711   6.429   6.448 -3.5218  3.1797  0.1118
  734MOL0     H96879   6.867   6.472   6.497 -0.8590  0.8301  0.4729
  734MOL0     H96880   6.818   6.477   6.232 -0.4148 -0.5531  1.1470
  734MOL0     H96881   6.723   6.616   6.270  0.2311  0.7965 -0.3883
  734MOL0     H96882   7.025   6.597   6.361  0.5926 -1.3541 -0.6405
  734MOL0     H96883   6.920   6.743   6.340 -0.0771 -0.8449  0.9624
  734MOL0     H96884   7.021   6.569   6.112 -0.9022  1.0790 -1.8275
  734MOL0     H96885   6.911   6.700   6.112 -2.3420 -4.9968 -0.3543
  734MOL0     H96886   7.286   6.902   6.132 -0.3061 -0.3642 -0.4028
  734MOL0     H96887   6.671   6.805   6.697 -0.5470 -0.6637  1.2382
  734MOL0     H96888   6.450   6.895   6.739 -2.4311 -0.7101  1.0862
  735MOL0     O96889   5.036   1.296   0.450 -0.3554  0.2521  0.1681
  735MOL0     C96890   4.975   1.364   0.532 -0.3401  0.0693 -0.3387
  735MOL0     O96891   4.853   1.424   0.505 -0.0973 -0.0066  0.0440
  735MOL0     C96892   4.775   1.378   0.404  0.5371  0.8281 -0.2491
  735MOL0     C96893   4.821   1.342   0.271 -0.0268  0.5755 -0.6198
  735MOL0     C96894   4.734   1.288   0.174 -0.2610 -1.1189 -0.4817
  735MOL0     C96895   4.595   1.266   0.203 -0.0984 -0.4352  0.5744
  735MOL0     O96896   4.503   1.204   0.122 -0.3013  0.0885 -0.4028
  735MOL0     C96897   4.559   1.139   0.005  0.3662  0.7437  0.1981
  735MOL0     C96898   4.465   1.029  -0.050 -0.3271 -0.2272 -0.3444
  735MOL0     C96899   4.327   1.087  -0.096 -0.0479  0.0344 -0.2691
  735MOL0     C96900   4.245   0.959  -0.139  0.7662 -0.7545  0.2251
  735MOL0     C96901   4.106   0.994  -0.194 -0.1611 -0.7988  0.2610
  735MOL0     C96902   4.013   0.872  -0.199 -0.2833 -0.9389  0.4134
  735MOL0     C96903   3.875   0.916  -0.244  0.6453 -0.1365  0.5356
  735MOL0     C96904   3.792   0.791  -0.274 -0.3515  0.0985  0.0022
  735MOL0     N96905   3.647   0.826  -0.271 -1.0100  0.1800 -0.3735
  735MOL0     C96906   3.555   0.752  -0.193  0.0238  0.1737 -0.0197
  735MOL0     C96907   3.432   0.789  -0.242  0.6874 -0.2438 -0.4930
  735MOL0     C96908   3.296   0.759  -0.175 -0.3369 -0.2462 -0.3292
  735MOL0     C96909   3.204   0.873  -0.174 -0.5418 -0.7205 -0.3576
  735MOL0     C96910   3.135   0.920  -0.304 -0.7970 -0.2919 -0.6471
  735MOL0     C96911   3.092   0.809  -0.402 -0.0784 -0.3189 -0.2642
  735MOL0     O96912   3.022   0.698  -0.336  1.1114 -0.6034 -0.0428
  735MOL0     C96913   2.893   0.706  -0.363  0.3617 -0.0459 -0.1300
  735MOL0     C96914   2.806   0.788  -0.294  0.3824 -0.0378  0.9814
  735MOL0     C96915   2.662   0.774  -0.305 -0.0455  0.1938  0.1629
  735MOL0     C96916   2.603   0.683  -0.390 -0.3069 -0.2566 -0.4517
  735MOL0     C96917   2.461   0.677  -0.406  0.3950  0.2452 -0.0632
  735MOL0     O96918   2.393   0.787  -0.380  0.0779  0.1297 -0.0133
  735MOL0     C96919   2.262   0.791  -0.405  0.2021  0.0202 -0.0403
  735MOL0     C96920   2.216   0.817  -0.534 -0.0774  1.6627  0.7188
  735MOL0     C96921   2.073   0.835  -0.558 -0.1954  1.4941  0.0090
  735MOL0     C96922   1.977   0.840  -0.455 -0.7154 -0.1210 -0.7411
  735MOL0     O96923   1.855   0.874  -0.497 -0.1009 -0.4277  0.8017
  735MOL0     C96924   1.742   0.878  -0.405 -0.0754  0.0606 -0.3474
  735MOL0     C96925   1.632   0.940  -0.494 -0.4561  0.8402  0.6050
  735MOL0     C96926   1.499   0.878  -0.456  0.4022 -0.1383 -0.1328
  735MOL0     C96927   1.392   0.931  -0.551  0.2755 -0.2138  0.3632
  735MOL0     C96928   1.258   0.862  -0.546 -0.2698 -0.4843  0.3661
  735MOL0     C96929   1.151   0.934  -0.649 -0.6872 -0.4659 -0.2808
  735MOL0     C96930   1.005   0.891  -0.623 -0.5176 -0.3629  0.1707
  735MOL0     C96931   0.909   0.966  -0.723  0.2456 -0.6529 -0.2662
  735MOL0    Cl96932   0.889   1.141  -0.659  0.1000 -0.1119  0.1219
  735MOL0     C96933   2.023   0.801  -0.332  0.1194  1.2027 -0.4608
  735MOL0     C96934   2.163   0.774  -0.308 -0.5069 -0.2850 -0.3346
  735MOL0     O96935   2.414   0.567  -0.441 -1.1845  0.0028  0.1251
  735MOL0     C96936   2.699   0.589  -0.446 -0.0108 -0.0553  0.1099
  735MOL0     C96937   2.840   0.597  -0.428 -0.4520  0.0338  0.3645
  735MOL0     N96938   3.459   0.876  -0.340 -0.2974 -1.1317  0.6022
  735MOL0     N96939   3.581   0.904  -0.358 -0.3533 -0.9350  0.0636
  735MOL0     C96940   4.559   1.318   0.322 -0.1792  0.3387 -0.0302
  735MOL0     C96941   4.643   1.371   0.421  0.5646 -0.3605 -0.4332
  735MOL0     C96942   5.028   1.388   0.665  0.2802  1.0607 -0.4981
  735MOL0     C96943   4.936   1.416   0.777  0.5613 -0.4085 -0.2569
  735MOL0     C96944   4.987   1.424   0.907 -0.2332 -0.2299  0.7338
  735MOL0     C96945   5.126   1.399   0.926 -0.3172 -0.8639 -0.3082
  735MOL0     O96946   5.194   1.419   1.041  0.5799  0.1567 -0.1194
  735MOL0     C96947   5.113   1.429   1.170  0.7583 -0.4779 -0.0337
  735MOL0     C96948   5.213   1.431   1.288  0.0285 -0.2797 -0.5919
  735MOL0     C96949   5.301   1.310   1.283  0.1948  0.1239 -0.2265
  735MOL0     C96950   5.429   1.323   1.202  0.5408 -0.1649 -0.3550
  735MOL0     C96951   5.521   1.431   1.235 -0.0105 -0.2465 -0.3531
  735MOL0     C96952   5.607   1.501   1.274  0.3001 -0.7747 -0.7783
  735MOL0     C96953   5.211   1.369   0.817  0.6576 -0.4769 -0.2454
  735MOL0     C96954   5.158   1.355   0.691  0.4739  0.1999 -0.1616
  735MOL0     H96955   4.927   1.343   0.245  0.3204  1.8308  0.6710
  735MOL0     H96956   4.764   1.255   0.075  0.5137 -3.0867  0.3701
  735MOL0     H96957   4.646   1.088   0.047 -0.0149  0.0972  0.2101
  735MOL0     H96958   4.587   1.220  -0.063  1.2198  2.9663  2.9697
  735MOL0     H96959   4.447   0.962   0.033 -0.5327  0.9791  0.6178
  735MOL0     H96960   4.513   0.963  -0.123  0.1682 -2.1673  1.6258
  735MOL0     H96961   4.339   1.165  -0.172  2.6122  2.0213  2.0137
  735MOL0     H96962   4.273   1.134  -0.014 -2.5010 -2.3674 -0.3496
  735MOL0     H96963   4.301   0.901  -0.213 -3.5913 -2.2883 -2.2572
  735MOL0     H96964   4.219   0.904  -0.048  0.6852 -0.1249  0.5918
  735MOL0     H96965   4.111   1.046  -0.291  1.5747  2.1929  1.7912
  735MOL0     H96966   4.065   1.069  -0.125  1.3704  0.9065 -0.5934
  735MOL0     H96967   4.007   0.833  -0.097  0.4918 -1.3862  0.2916
  735MOL0     H96968   4.057   0.806  -0.274  0.4394  1.0327 -0.9900
  735MOL0     H96969   3.824   0.982  -0.173  0.7219  1.3091 -0.7221
  735MOL0     H96970   3.897   0.969  -0.337 -3.4044 -0.0180 -0.5390
  735MOL0     H96971   3.814   0.714  -0.200 -1.0261  0.6212  0.7705
  735MOL0     H96972   3.816   0.737  -0.366 -1.4961 -1.1218  0.3899
  735MOL0     H96973   3.575   0.680  -0.114  1.7194 -2.0627 -2.3284
  735MOL0     H96974   3.298   0.733  -0.069 -2.1071  0.0696 -0.1747
  735MOL0     H96975   3.254   0.673  -0.228  0.9461 -1.2710  0.2760
  735MOL0     H96976   3.262   0.957  -0.135 -0.0146 -0.5157 -1.5475
  735MOL0     H96977   3.124   0.862  -0.100 -0.8415  5.4233  0.7909
  735MOL0     H96978   3.045   0.975  -0.274 -0.9387 -1.6821  1.7621
  735MOL0     H96979   3.200   0.998  -0.344  0.1222  0.5876  2.2979
  735MOL0     H96980   3.183   0.769  -0.448 -0.2670 -0.1196 -0.8206
  735MOL0     H96981   3.039   0.860  -0.482  0.5002  2.3158  0.9437
  735MOL0     H96982   2.827   0.873  -0.230 -3.6239  1.6714  0.2901
  735MOL0     H96983   2.607   0.854  -0.258 -1.5651  0.8867 -2.5692
  735MOL0     H96984   2.286   0.811  -0.616 -1.6192  0.6772 -0.5696
  735MOL0     H96985   2.046   0.872  -0.656  0.3561  1.8413 -0.0130
  735MOL0     H96986   1.762   0.945  -0.321 -0.5352 -1.0931  0.7185
  735MOL0     H96987   1.717   0.774  -0.381 -0.4374  0.0490 -0.7510
  735MOL0     H96988   1.644   0.903  -0.596 -2.9052  0.3043  0.4627
  735MOL0     H96989   1.622   1.049  -0.496 -0.9996  0.8285 -2.0876
  735MOL0     H96990   1.479   0.909  -0.353 -1.3190 -0.4731 -0.3345
  735MOL0     H96991   1.504   0.769  -0.455  1.5463 -0.0955  0.7222
  735MOL0     H96992   1.382   1.040  -0.545  0.6546  0.1512 -3.5192
  735MOL0     H96993   1.426   0.912  -0.653  2.7850  0.7956  0.9490
  735MOL0     H96994   1.222   0.865  -0.443 -0.5250 -4.3844  0.5356
  735MOL0     H96995   1.260   0.755  -0.568  0.7722 -0.0722 -1.8395
  735MOL0     H96996   1.177   0.920  -0.755 -2.3471 -0.0143 -0.7931
  735MOL0     H96997   1.147   1.043  -0.641  0.0717 -0.5441  1.6244
  735MOL0     H96998   1.002   0.781  -0.623 -1.3555 -0.3826 -1.5134
  735MOL0     H96999   0.976   0.918  -0.521  2.2959  3.9091  0.0927
  735MOL0     H97000   0.813   0.916  -0.723  0.0253 -0.5171  3.6347
  735MOL0     H97001   0.954   0.968  -0.823  1.7254  1.2558  0.3684
  735MOL0     H97002   1.956   0.796  -0.247  1.2363  0.4721  0.4084
  735MOL0     H97003   2.200   0.756  -0.207  1.9840  2.2588 -0.6482
  735MOL0     H97004   2.672   0.513  -0.520  0.4907  0.1174 -0.2562
  735MOL0     H97005   2.903   0.524  -0.478 -2.6673 -1.5345 -0.3245
  735MOL0     H97006   4.454   1.297   0.340  0.8071 -4.1800  1.6394
  735MOL0     H97007   4.601   1.411   0.513 -0.1377 -1.4008 -0.2697
  735MOL0     H97008   4.834   1.452   0.770 -0.0267 -1.7593  0.8240
  735MOL0     H97009   4.935   1.465   0.993  1.8185 -0.4311  2.1292
  735MOL0     H97010   5.038   1.350   1.181  0.2310 -0.3819 -2.4541
  735MOL0     H97011   5.071   1.530   1.162  2.5073  0.2969  0.0780
  735MOL0     H97012   5.270   1.524   1.297 -0.0540 -0.3735  1.7241
  735MOL0     H97013   5.154   1.426   1.380 -1.2974  0.1380 -1.3941
  735MOL0     H97014   5.245   1.232   1.232  0.7660 -0.8930  0.6606
  735MOL0     H97015   5.328   1.278   1.384 -0.7973  1.4639  0.4988
  735MOL0     H97016   5.485   1.231   1.221  0.9158  0.1308  0.0149
  735MOL0     H97017   5.411   1.328   1.094 -0.0284  0.4635 -0.2334
  735MOL0     H97018   5.693   1.556   1.307  1.1861 -0.3738 -3.4456
  735MOL0     H97019   5.318   1.349   0.826  0.7271 -0.7313 -1.4846
  735MOL0     H97020   5.221   1.330   0.606  0.2284  1.0335 -0.6010
  736MOL0     O97021   4.924   8.639   4.728 -0.0447 -0.1175  0.0530
  736MOL0     C97022   5.040   8.609   4.733  0.0439  0.0811 -0.3484
  736MOL0     O97023   5.111   8.553   4.836 -0.6866  0.1624 -0.1739
  736MOL0     C97024   5.036   8.528   4.943 -0.5379  0.4526  0.6829
  736MOL0     C97025   5.088   8.589   5.059  0.0480 -0.3774  0.4104
  736MOL0     C97026   5.026   8.569   5.188 -0.0408 -0.2462 -0.2611
  736MOL0     C97027   4.913   8.490   5.187 -0.4800  0.6188 -0.2789
  736MOL0     O97028   4.832   8.471   5.299 -0.1312  0.1703 -0.2237
  736MOL0     C97029   4.873   8.530   5.428  0.5376  0.4719  0.4014
  736MOL0     C97030   4.791   8.468   5.553  0.1539  0.2252 -0.3446
  736MOL0     C97031   4.647   8.496   5.537  0.0651 -0.1207  0.6897
  736MOL0     C97032   4.568   8.430   5.659  0.5559 -0.2344 -0.7667
  736MOL0     C97033   4.410   8.460   5.660  0.1692  0.2555 -0.4506
  736MOL0     C97034   4.357   8.442   5.803  0.3299  0.0481 -0.2485
  736MOL0     C97035   4.204   8.445   5.816 -0.5100 -0.2680  0.1525
  736MOL0     C97036   4.165   8.401   5.958 -0.1835  0.0312 -0.2606
  736MOL0     N97037   4.022   8.405   5.967  0.2172  0.8343 -0.1866
  736MOL0     C97038   3.931   8.483   5.892 -0.2651  0.8193 -0.3273
  736MOL0     C97039   3.805   8.451   5.932 -0.3750  0.4987  0.1034
  736MOL0     C97040   3.679   8.501   5.878 -0.2463  0.6618 -1.0124
  736MOL0     C97041   3.551   8.484   5.976 -0.4442 -0.6355  0.4589
  736MOL0     C97042   3.494   8.338   5.957  0.1258 -0.4581 -0.2566
  736MOL0     C97043   3.367   8.331   6.045  0.3014  0.0859  0.3278
  736MOL0     O97044   3.276   8.253   5.975  0.2988  0.5777  0.3577
  736MOL0     C97045   3.143   8.304   5.963  1.1451  0.1020 -0.5660
  736MOL0     C97046   3.078   8.289   5.840  0.4051 -0.2599  0.5455
  736MOL0     C97047   2.945   8.327   5.822 -0.8335  0.1315 -0.1800
  736MOL0     C97048   2.874   8.377   5.928  0.2559 -0.1206  0.5515
  736MOL0     C97049   2.730   8.409   5.900 -0.0243  0.5562 -0.2846
  736MOL0     O97050   2.677   8.489   6.000 -0.2764  0.2058  0.3936
  736MOL0     C97051   2.543   8.477   6.008  0.3492 -0.2326 -0.7468
  736MOL0     C97052   2.490   8.386   6.102  0.7076 -0.1636 -0.2505
  736MOL0     C97053   2.351   8.365   6.111 -0.5576  0.0421  0.1274
  736MOL0     C97054   2.255   8.439   6.032 -0.4891  0.3993 -0.3240
  736MOL0     O97055   2.120   8.424   6.034  0.0114  0.0859 -0.3946
  736MOL0     C97056   2.055   8.343   6.135 -1.1356 -0.1433  0.4988
  736MOL0     C97057   1.907   8.339   6.112  0.0940 -0.6612 -0.1035
  736MOL0     C97058   1.843   8.281   6.245 -1.2810 -0.8423  0.7717
  736MOL0     C97059   1.695   8.247   6.217 -0.3075 -0.1412 -0.6432
  736MOL0     C97060   1.617   8.175   6.330 -0.3130 -0.1498 -0.3175
  736MOL0     C97061   1.476   8.131   6.301  0.3699 -0.3988  0.3664
  736MOL0     C97062   1.426   8.044   6.414 -0.1936  0.2844 -0.1624
  736MOL0     C97063   1.293   7.988   6.373  0.7893 -0.5206  0.5416
  736MOL0    Cl97064   1.309   7.835   6.286 -0.0286  0.0906  0.3694
  736MOL0     C97065   2.314   8.519   5.937 -0.2595 -0.1704  0.5357
  736MOL0     C97066   2.453   8.541   5.926 -0.0251 -0.3231  0.1440
  736MOL0     O97067   2.667   8.350   5.809 -0.8653  0.1558  0.6034
  736MOL0     C97068   2.938   8.416   6.046 -0.1562  0.2355 -0.6297
  736MOL0     C97069   3.070   8.375   6.067  0.4667  0.1644  0.3055
  736MOL0     N97070   3.817   8.354   6.035 -0.3242 -0.4487  0.3393
  736MOL0     N97071   3.942   8.337   6.058  0.1111  0.1909 -0.9917
  736MOL0     C97072   4.867   8.419   5.074  0.4799 -0.4808 -0.7483
  736MOL0     C97073   4.929   8.447   4.955 -0.9535  0.5715 -0.2842
  736MOL0     C97074   5.116   8.639   4.620 -0.5466  0.1536  1.0431
  736MOL0     C97075   5.061   8.715   4.516  0.3278 -0.6454  0.3732
  736MOL0     C97076   5.131   8.742   4.403 -0.0345 -0.1073  0.4217
  736MOL0     C97077   5.258   8.696   4.379 -0.4745  0.6568 -0.0406
  736MOL0     O97078   5.316   8.728   4.254  0.7631 -0.1181 -0.6795
  736MOL0     C97079   5.460   8.716   4.248  1.1042 -0.1225  0.2894
  736MOL0     C97080   5.490   8.704   4.095  0.1607 -0.8934  0.0282
  736MOL0     C97081   5.418   8.595   4.009 -0.7031 -0.1005 -0.7686
  736MOL0     C97082   5.430   8.605   3.859  0.3368  0.0347 -0.0023
  736MOL0     C97083   5.373   8.737   3.806 -0.5200 -0.0837 -0.6579
  736MOL0     C97084   5.351   8.845   3.761  0.1606 -0.5416 -0.3132
  736MOL0     C97085   5.311   8.613   4.473 -0.0039  0.1935  0.3054
  736MOL0     C97086   5.242   8.587   4.592  0.4984 -1.0424  0.8357
  736MOL0     H97087   5.178   8.647   5.043  0.7806 -1.9561 -1.5383
  736MOL0     H97088   5.054   8.632   5.272 -1.2350  2.2296 -1.6303
  736MOL0     H97089   4.866   8.639   5.430 -1.3046  0.4499 -1.5088
  736MOL0     H97090   4.982   8.516   5.430  0.7931  2.2172  0.1064
  736MOL0     H97091   4.820   8.520   5.644  0.9015  0.5768 -0.7772
  736MOL0     H97092   4.814   8.362   5.570 -1.4385 -0.1433 -0.2666
  736MOL0     H97093   4.612   8.465   5.438  0.2389  3.5069 -0.6507
  736MOL0     H97094   4.636   8.605   5.536 -0.3005 -0.1586  0.2038
  736MOL0     H97095   4.578   8.321   5.651 -1.0246 -0.4214 -0.4768
  736MOL0     H97096   4.605   8.466   5.756 -1.4401  0.8281 -0.3474
  736MOL0     H97097   4.362   8.390   5.590  2.3022  0.6881 -2.4822
  736MOL0     H97098   4.387   8.560   5.624  1.3881  0.9453  0.5967
  736MOL0     H97099   4.397   8.528   5.858  1.2449  2.0801 -3.7664
  736MOL0     H97100   4.405   8.351   5.841  0.4876 -1.1807 -3.1716
  736MOL0     H97101   4.170   8.545   5.788 -2.8829 -1.1931 -0.5439
  736MOL0     H97102   4.154   8.387   5.738 -1.1544 -1.3797  1.3430
  736MOL0     H97103   4.210   8.459   6.039 -0.6787  2.5191 -1.6459
  736MOL0     H97104   4.181   8.293   5.966  1.0098  0.3180  1.7305
  736MOL0     H97105   3.959   8.551   5.811 -1.0847  0.5172 -0.8723
  736MOL0     H97106   3.654   8.459   5.780 -0.4206 -0.0285 -0.6766
  736MOL0     H97107   3.692   8.610   5.871 -3.3191  1.6237  3.5669
  736MOL0     H97108   3.479   8.565   5.960  1.6979  0.8958 -2.2513
  736MOL0     H97109   3.582   8.498   6.080  0.5433  0.3836  0.0466
  736MOL0     H97110   3.457   8.325   5.855 -0.1294 -2.0740  0.0197
  736MOL0     H97111   3.567   8.261   5.984  0.6848  0.7278  1.9427
  736MOL0     H97112   3.321   8.426   6.076  1.5155  0.7123  0.2670
  736MOL0     H97113   3.397   8.270   6.130  2.1648  2.2196  1.3183
  736MOL0     H97114   3.133   8.252   5.754  1.0204  1.4642  0.1413
  736MOL0     H97115   2.890   8.312   5.730  2.4279 -0.0301 -2.2334
  736MOL0     H97116   2.561   8.323   6.154  1.3425 -0.7028 -1.7266
  736MOL0     H97117   2.302   8.298   6.181 -1.5490  0.9292  0.3060
  736MOL0     H97118   2.095   8.394   6.223 -1.1512 -0.4011  0.6542
  736MOL0     H97119   2.085   8.239   6.139  0.9520  0.3436 -1.0653
  736MOL0     H97120   1.874   8.283   6.024 -0.1854  0.5282 -0.7724
  736MOL0     H97121   1.870   8.442   6.105 -1.3116 -1.0903  0.5593
  736MOL0     H97122   1.850   8.353   6.327 -2.9761 -0.3203  0.4887
  736MOL0     H97123   1.898   8.191   6.275  0.4056 -0.2212 -0.3043
  736MOL0     H97124   1.647   8.343   6.198  2.7012  2.1148  1.9970
  736MOL0     H97125   1.686   8.187   6.126 -0.4922 -1.7530  0.3871
  736MOL0     H97126   1.613   8.233   6.423  1.2828 -0.7946  0.1982
  736MOL0     H97127   1.677   8.084   6.343 -2.3826 -1.9568 -2.5069
  736MOL0     H97128   1.466   8.074   6.208  1.3659 -2.1439  1.2609
  736MOL0     H97129   1.416   8.221   6.286 -0.1749 -0.8107  0.0385
  736MOL0     H97130   1.494   7.958   6.420 -0.9642 -0.5513 -2.3423
  736MOL0     H97131   1.416   8.102   6.507  0.4571 -2.4547  1.7419
  736MOL0     H97132   1.229   8.055   6.316 -0.0997 -1.3495  0.5456
  736MOL0     H97133   1.248   7.961   6.469 -0.8971  0.7456  0.1408
  736MOL0     H97134   2.252   8.584   5.875  0.2183 -1.6454 -1.5986
  736MOL0     H97135   2.493   8.618   5.861 -2.4868  0.4576 -0.5670
  736MOL0     H97136   2.901   8.470   6.132 -0.2306 -3.0560  1.6126
  736MOL0     H97137   3.120   8.385   6.163 -1.6043  1.3219  1.3366
  736MOL0     H97138   4.772   8.370   5.090 -0.7366  2.4642  2.2341
  736MOL0     H97139   4.885   8.417   4.860 -3.6279  0.1393  0.9826
  736MOL0     H97140   4.960   8.754   4.520 -0.6203 -2.9854  0.8878
  736MOL0     H97141   5.082   8.811   4.335  1.2264 -1.2654 -1.7731
  736MOL0     H97142   5.508   8.625   4.286  1.2487  0.3507  1.2761
  736MOL0     H97143   5.513   8.805   4.283  1.9643 -0.6243  0.2914
  736MOL0     H97144   5.451   8.799   4.057 -1.9255 -0.1893  3.4401
  736MOL0     H97145   5.598   8.709   4.075  0.0207 -4.1425 -2.1995
  736MOL0     H97146   5.311   8.598   4.032 -0.2398 -3.2167  2.8648
  736MOL0     H97147   5.446   8.497   4.049  0.6752  0.9250  0.9490
  736MOL0     H97148   5.530   8.576   3.825 -0.8926 -1.1364 -2.9462
  736MOL0     H97149   5.364   8.526   3.820 -2.0664  1.4398  0.9837
  736MOL0     H97150   5.313   8.935   3.718 -2.5928 -0.5166  1.9389
  736MOL0     H97151   5.407   8.564   4.462  0.3439  0.7956  0.6815
  736MOL0     H97152   5.285   8.520   4.665  3.0025 -0.7081 -0.2146
  737MOL0     O97153   8.503   1.957   6.509 -0.2761 -0.0451 -0.6584
  737MOL0     C97154   8.503   1.840   6.549  0.1000  0.5356 -0.0007
  737MOL0     O97155   8.580   1.744   6.500 -0.0464 -0.4521  0.0737
  737MOL0     C97156   8.693   1.778   6.431 -0.0795  0.4316 -0.1744
  737MOL0     C97157   8.731   1.688   6.329 -0.3989  0.5999  0.9628
  737MOL0     C97158   8.834   1.710   6.240 -0.1283 -0.1071 -0.7474
  737MOL0     C97159   8.918   1.824   6.268 -0.2910  0.6661  0.4267
  737MOL0     O97160   9.034   1.836   6.195 -0.0069 -0.4814 -0.5239
  737MOL0     C97161   9.015   1.863   6.060 -0.1395  0.0498  0.1329
  737MOL0     C97162   9.138   1.912   5.984 -0.3205 -0.0717  0.5837
  737MOL0     C97163   9.249   1.808   5.989  0.2045 -0.3015 -0.7018
  737MOL0     C97164   9.349   1.864   5.889  0.2488 -0.5068 -0.3696
  737MOL0     C97165   9.489   1.798   5.883 -0.2854  0.0070  0.1079
  737MOL0     C97166   9.578   1.832   6.002 -0.1571 -0.0406  0.4591
  737MOL0     C97167   9.723   1.791   5.977  0.3048  0.3627 -0.4683
  737MOL0     C97168   9.815   1.836   6.087 -0.3593  0.0424  0.0419
  737MOL0     N97169   9.957   1.833   6.044 -0.6748  0.0877  1.1265
  737MOL0     C97170  10.037   1.721   6.024 -0.4825  0.4245 -0.2740
  737MOL0     C97171  10.163   1.768   6.017  0.5247 -0.0561  0.0238
  737MOL0     C97172  10.298   1.701   6.001 -0.3265 -0.4801  0.1720
  737MOL0     C97173  10.352   1.634   6.124  0.3542 -0.1596  0.1343
  737MOL0     C97174  10.399   1.735   6.240 -0.3236 -0.2351 -0.2301
  737MOL0     C97175  10.277   1.797   6.313 -0.0744  0.7079 -0.0811
  737MOL0     O97176  10.193   1.688   6.354 -0.1946  0.3795 -0.5707
  737MOL0     C97177  10.075   1.728   6.407 -0.2718  0.1033  0.6493
  737MOL0     C97178  10.041   1.861   6.425 -0.0926 -0.2807 -0.7742
  737MOL0     C97179   9.907   1.892   6.448 -0.6803 -0.4364  0.2897
  737MOL0     C97180   9.817   1.788   6.471 -0.5163 -0.1101 -1.3192
  737MOL0     C97181   9.673   1.831   6.505  0.7189  1.1383 -0.0779
  737MOL0     O97182   9.580   1.731   6.483 -0.1664 -0.1277 -0.3596
  737MOL0     C97183   9.454   1.756   6.527 -0.0237  0.5529  0.1014
  737MOL0     C97184   9.359   1.808   6.448  0.4583  0.5353  1.2205
  737MOL0     C97185   9.238   1.842   6.485  0.5843  0.0915 -0.1091
  737MOL0     C97186   9.189   1.801   6.611 -0.9392 -0.0168 -0.2224
  737MOL0     O97187   9.054   1.835   6.633 -0.7571  0.9888  0.1460
  737MOL0     C97188   8.999   1.819   6.765  0.0204 -0.5835 -0.4669
  737MOL0     C97189   8.958   1.680   6.802 -0.1442 -0.2752  0.2469
  737MOL0     C97190   8.912   1.668   6.952  0.2569 -0.5372 -0.0307
  737MOL0     C97191   8.768   1.708   6.965  0.3051  0.4099  0.5070
  737MOL0     C97192   8.719   1.707   7.108 -0.0671  0.2807 -0.5062
  737MOL0     C97193   8.570   1.747   7.127  0.7810  0.0101 -0.0222
  737MOL0     C97194   8.503   1.690   7.250 -0.5298  0.5002 -0.0437
  737MOL0     C97195   8.581   1.715   7.376 -0.0498  0.0532 -0.2753
  737MOL0    Cl97196   8.484   1.679   7.528 -0.0743 -0.1550  0.4043
  737MOL0     C97197   9.282   1.753   6.698  0.5513  0.0520  0.0552
  737MOL0     C97198   9.414   1.727   6.661  0.0853  0.9866  0.2575
  737MOL0     O97199   9.652   1.938   6.555  0.7947 -0.3710  0.4456
  737MOL0     C97200   9.855   1.652   6.462 -0.3180 -0.6354  0.0279
  737MOL0     C97201   9.984   1.624   6.409 -0.0519  0.2837 -0.1785
  737MOL0     N97202  10.149   1.911   6.025 -0.4578  0.4239  0.2188
  737MOL0     N97203  10.033   1.951   6.052  0.3013  0.5628 -0.2232
  737MOL0     C97204   8.894   1.912   6.378  0.0912  0.1372 -0.0950
  737MOL0     C97205   8.783   1.882   6.461  0.7776  1.0324  0.0807
  737MOL0     C97206   8.407   1.795   6.654  0.0123 -0.6921  0.5903
  737MOL0     C97207   8.277   1.850   6.660 -0.5163  0.2727 -0.5560
  737MOL0     C97208   8.189   1.803   6.760 -0.3904  0.2996  0.2662
  737MOL0     C97209   8.227   1.703   6.854  0.2630  0.2159 -0.4102
  737MOL0     O97210   8.149   1.665   6.966 -0.3575 -0.1058  0.6415
  737MOL0     C97211   8.035   1.584   6.937  0.2246 -0.4266  0.8913
  737MOL0     C97212   7.990   1.538   7.067  0.1864 -0.2702  0.1454
  737MOL0     C97213   7.863   1.456   7.061 -0.2423  0.6077 -0.3866
  737MOL0     C97214   7.809   1.419   7.193 -0.3103  0.3731  0.0531
  737MOL0     C97215   7.676   1.354   7.183 -0.1662  0.2069 -0.0647
  737MOL0     C97216   7.566   1.316   7.168  0.2762 -0.1054  0.6440
  737MOL0     C97217   8.364   1.652   6.851  1.2753 -0.6564  0.1370
  737MOL0     C97218   8.447   1.697   6.746 -0.5827  0.5404  0.1383
  737MOL0     H97219   8.680   1.593   6.340  0.1489  0.0085 -1.2627
  737MOL0     H97220   8.862   1.635   6.167 -0.3632 -0.9574  0.0257
  737MOL0     H97221   8.939   1.941   6.048  0.8331  0.8260 -1.3665
  737MOL0     H97222   8.983   1.772   6.007 -2.4827 -0.0389  1.5399
  737MOL0     H97223   9.170   2.009   6.021 -0.3304  0.7135 -1.3809
  737MOL0     H97224   9.104   1.922   5.881  1.8143 -0.3366 -0.1778
  737MOL0     H97225   9.215   1.709   5.959 -5.6020  1.0899 -0.0092
  737MOL0     H97226   9.295   1.789   6.087 -0.5065 -2.5839 -0.7472
  737MOL0     H97227   9.312   1.864   5.786  3.3529 -0.5913 -1.5994
  737MOL0     H97228   9.376   1.969   5.907  4.4290 -1.6872  1.4960
  737MOL0     H97229   9.533   1.818   5.785 -0.1562  1.5502  0.4656
  737MOL0     H97230   9.476   1.691   5.862 -1.6513  0.5921 -2.3766
  737MOL0     H97231   9.553   1.782   6.096  3.8416 -1.2746  1.0356
  737MOL0     H97232   9.583   1.941   6.014  1.2330  0.0187 -0.4764
  737MOL0     H97233   9.734   1.682   5.974  1.2721  0.4666 -1.3072
  737MOL0     H97234   9.747   1.841   5.882 -2.7348 -0.1102 -1.5978
  737MOL0     H97235   9.791   1.774   6.174 -2.9807 -0.5146 -0.9719
  737MOL0     H97236   9.799   1.941   6.114 -0.5526  0.0154  0.0330
  737MOL0     H97237  10.008   1.618   6.041 -0.1238  0.3024 -0.3986
  737MOL0     H97238  10.373   1.772   5.966  0.7733 -1.2080  0.9784
  737MOL0     H97239  10.274   1.628   5.923 -1.0614 -1.7960  1.5568
  737MOL0     H97240  10.443   1.577   6.103  0.9673  0.7390  0.2967
  737MOL0     H97241  10.287   1.556   6.164 -0.8474  0.5200 -0.4549
  737MOL0     H97242  10.473   1.687   6.305 -2.0812 -2.8723 -0.0231
  737MOL0     H97243  10.449   1.818   6.190 -0.7477 -0.4186 -0.9853
  737MOL0     H97244  10.223   1.872   6.255  0.5668  0.1434 -1.4479
  737MOL0     H97245  10.320   1.852   6.397 -0.7135  1.2282 -0.0831
  737MOL0     H97246  10.120   1.936   6.417  1.7169 -2.1995 -2.1076
  737MOL0     H97247   9.875   1.995   6.457 -1.3497 -0.4219 -1.8175
  737MOL0     H97248   9.379   1.832   6.344  0.4583 -3.0890  0.2350
  737MOL0     H97249   9.166   1.879   6.412  0.3784  1.8178  0.9265
  737MOL0     H97250   8.914   1.887   6.774  0.4968 -0.1121  0.6625
  737MOL0     H97251   9.071   1.859   6.837  0.5192 -3.3860  0.7121
  737MOL0     H97252   9.038   1.607   6.787  1.2988  0.8187  2.1848
  737MOL0     H97253   8.874   1.661   6.735 -0.2193  0.1622  0.2113
  737MOL0     H97254   8.977   1.730   7.016 -0.3616  1.9599 -1.6557
  737MOL0     H97255   8.923   1.564   6.984 -1.0812 -0.0202  2.3210
  737MOL0     H97256   8.747   1.807   6.923  2.5472  0.3569 -0.8960
  737MOL0     H97257   8.706   1.637   6.909 -0.6861  0.2321  1.7931
  737MOL0     H97258   8.778   1.764   7.180 -1.9281  0.3542  1.0428
  737MOL0     H97259   8.740   1.607   7.147 -2.7523 -0.1191  0.1092
  737MOL0     H97260   8.513   1.713   7.040 -0.4949  2.0418 -0.0362
  737MOL0     H97261   8.561   1.856   7.130  0.8877  0.0673 -1.2409
  737MOL0     H97262   8.404   1.736   7.261 -0.9136 -0.4976  0.8999
  737MOL0     H97263   8.486   1.582   7.242 -0.8898  0.5352  0.2134
  737MOL0     H97264   8.623   1.816   7.379  0.7178 -0.2798  1.8596
  737MOL0     H97265   8.664   1.644   7.387  0.7251  0.7409 -1.3899
  737MOL0     H97266   9.243   1.723   6.795  1.9024 -1.1402  0.2688
  737MOL0     H97267   9.487   1.687   6.731 -0.1079 -0.4351 -0.3057
  737MOL0     H97268   9.783   1.573   6.480  0.2130 -0.6827  2.1659
  737MOL0     H97269  10.010   1.522   6.382 -1.4845  0.5068 -2.6907
  737MOL0     H97270   8.951   2.002   6.399 -1.3502  0.7382  1.4347
  737MOL0     H97271   8.762   1.943   6.549 -0.1886  0.3884  0.3177
  737MOL0     H97272   8.236   1.933   6.604 -0.6783  0.7184  0.2083
  737MOL0     H97273   8.090   1.846   6.766 -0.0496  1.0048  1.0015
  737MOL0     H97274   8.058   1.494   6.879  3.1628 -0.1874  1.5090
  737MOL0     H97275   7.972   1.648   6.875 -0.0616  0.8221  2.4093
  737MOL0     H97276   8.065   1.471   7.111  0.0764  0.0870  0.9021
  737MOL0     H97277   7.972   1.632   7.119 -0.8158  0.0966 -0.8439
  737MOL0     H97278   7.902   1.368   7.009  1.4299 -0.1472  1.9761
  737MOL0     H97279   7.789   1.504   6.997  0.0562 -1.8779 -2.8021
  737MOL0     H97280   7.881   1.356   7.246 -0.6469  0.2720  0.3956
  737MOL0     H97281   7.798   1.516   7.243  2.4675  1.6689 -1.6455
  737MOL0     H97282   7.465   1.282   7.152  1.3812 -2.6196 -1.9329
  737MOL0     H97283   8.378   1.581   6.933  4.6980  1.4161  1.5540
  737MOL0     H97284   8.544   1.650   6.738 -1.1187 -0.4147 -1.0121
  738MOL0     O97285   2.763  10.284  10.661 -0.5022 -0.1680  0.4731
  738MOL0     C97286   2.821  10.320  10.561 -0.6951  0.2220  0.0174
  738MOL0     O97287   2.766  10.370  10.447 -0.6275 -0.3237  0.1251
  738MOL0     C97288   2.628  10.375  10.439 -0.5840  0.3397 -0.5689
  738MOL0     C97289   2.547  10.260  10.440 -0.0891 -0.2594  1.1513
  738MOL0     C97290   2.410  10.274  10.431 -0.2768  0.3261 -0.0735
  738MOL0     C97291   2.350  10.402  10.428 -0.0857 -0.2342  0.4350
  738MOL0     O97292   2.209  10.424  10.430  0.0691  0.2955 -0.5395
  738MOL0     C97293   2.121  10.310  10.439  0.1233 -0.1438 -0.1267
  738MOL0     C97294   1.983  10.359  10.421  0.9432 -0.0016 -0.5000
  738MOL0     C97295   1.881  10.244  10.422  0.0815 -0.2269  0.4334
  738MOL0     C97296   1.740  10.287  10.378 -0.4393  0.9996 -0.2275
  738MOL0     C97297   1.642  10.163  10.378 -0.3656 -1.0361 -0.2681
  738MOL0     C97298   1.501  10.215  10.345 -0.5095 -0.2975 -0.2474
  738MOL0     C97299   1.399  10.111  10.388  0.2979 -0.4536 -1.0450
  738MOL0     C97300   1.247  10.139  10.355  0.6105  0.1820  0.1594
  738MOL0     N97301   1.143  10.050  10.413  0.6486 -0.5031  0.0508
  738MOL0     C97302   1.106  10.056  10.550 -0.0787 -0.3028 -0.3686
  738MOL0     C97303   1.016   9.966  10.564 -0.2264  0.5680 -0.3805
  738MOL0     C97304   0.942   9.936  10.692 -0.6296  0.3645  0.2358
  738MOL0     C97305   0.991   9.823  10.775 -0.0270 -0.7617  0.3516
  738MOL0     C97306   0.920   9.815  10.911  0.9213 -0.7190  0.2552
  738MOL0     C97307   1.005   9.729  11.010 -0.0810 -0.3101 -0.2719
  738MOL0     O97308   0.949   9.686  11.130  0.0782 -0.5077 -0.2785
  738MOL0     C97309   0.827   9.620  11.124  0.4349 -0.4380 -0.4056
  738MOL0     C97310   0.798   9.522  11.029 -0.1171  0.1638  0.0988
  738MOL0     C97311   0.689   9.434  11.037  1.2926 -0.6407  0.1222
  738MOL0     C97312   0.594   9.458  11.141 -0.4945 -0.4041  0.0697
  738MOL0     C97313   0.482   9.362  11.144 -0.1467 -0.1063  0.7879
  738MOL0     O97314   0.376   9.398  11.228 -0.7694 -0.2672 -0.3832
  738MOL0     C97315   0.261   9.324  11.236 -0.4758  0.2420  0.8043
  738MOL0     C97316   0.234   9.262  11.365 -0.5661 -0.8053  0.2282
  738MOL0     C97317   0.126   9.186  11.376 -0.9598  0.3483  0.0275
  738MOL0     C97318   0.035   9.172  11.279 -0.3671 -0.4738 -0.0159
  738MOL0     O97319  -0.080   9.103  11.287 -0.4734  0.5329  0.2263
  738MOL0     C97320  -0.122   9.059  11.416 -0.7170 -0.0462 -1.0743
  738MOL0     C97321  -0.258   8.993  11.392 -0.7580  0.0614 -0.7078
  738MOL0     C97322  -0.358   9.077  11.311  0.4686 -0.0396 -0.0033
  738MOL0     C97323  -0.496   9.022  11.307  0.1167  0.2045  0.0493
  738MOL0     C97324  -0.587   9.107  11.221 -0.6829  0.1983 -0.0643
  738MOL0     C97325  -0.735   9.062  11.236  0.1206  0.6894  0.0713
  738MOL0     C97326  -0.824   9.153  11.156  0.3826  0.2052 -0.0472
  738MOL0     C97327  -0.967   9.151  11.215  0.2086 -0.2949 -0.4832
  738MOL0    Cl97328  -1.031   8.986  11.220 -0.1896 -0.0570  0.2242
  738MOL0     C97329   0.063   9.225  11.155 -0.3049  0.4724 -0.1193
  738MOL0     C97330   0.179   9.299  11.121 -0.5961  0.3013  0.2770
  738MOL0     O97331   0.487   9.261  11.076  0.1780  0.3232  0.0017
  738MOL0     C97332   0.615   9.554  11.241  0.1511  0.1167 -0.1067
  738MOL0     C97333   0.730   9.639  11.228  0.1756  0.2632  0.0724
  738MOL0     N97334   1.007   9.884  10.448  0.9481 -0.0772 -0.5617
  738MOL0     N97335   1.063   9.958  10.353 -0.4547 -0.1044 -0.0097
  738MOL0     C97336   2.432  10.522  10.435 -0.4245  0.0544 -0.9888
  738MOL0     C97337   2.566  10.503  10.448  0.2674 -0.6843 -0.3237
  738MOL0     C97338   2.968  10.306  10.573  0.4105  0.2014  0.5393
  738MOL0     C97339   3.031  10.288  10.698 -0.4772  0.1345  0.1471
  738MOL0     C97340   3.169  10.285  10.700  0.3220 -0.2506 -0.9581
  738MOL0     C97341   3.248  10.312  10.585 -0.3379 -0.2586 -0.4130
  738MOL0     O97342   3.387  10.315  10.579  0.1506 -0.3976  0.2451
  738MOL0     C97343   3.477  10.313  10.695 -0.2981 -0.2332 -0.2280
  738MOL0     C97344   3.625  10.321  10.647 -0.3285 -0.4369  0.1958
  738MOL0     C97345   3.715  10.269  10.755  0.2027  0.7008  0.4229
  738MOL0     C97346   3.853  10.335  10.749  0.3458 -1.0189  0.0090
  738MOL0     C97347   3.928  10.315  10.629 -0.2019  0.1845  0.5027
  738MOL0     C97348   3.991  10.305  10.527 -0.3754 -0.0993  0.6379
  738MOL0     C97349   3.183  10.331  10.465  0.8075 -0.9452  0.8117
  738MOL0     C97350   3.042  10.327  10.463 -0.4248 -0.4053 -0.3592
  738MOL0     H97351   2.586  10.159  10.447 -0.3048 -0.3325  1.3345
  738MOL0     H97352   2.348  10.185  10.417 -1.2531  0.8781  0.6257
  738MOL0     H97353   2.129  10.254  10.533  0.2566  0.1118  0.0162
  738MOL0     H97354   2.152  10.233  10.368 -1.1829 -0.2132 -0.6578
  738MOL0     H97355   1.978  10.418  10.330 -0.7355 -0.7359 -0.9080
  738MOL0     H97356   1.955  10.419  10.508 -2.2947 -2.6484  0.5075
  738MOL0     H97357   1.871  10.210  10.526 -0.2273 -2.1102 -0.1626
  738MOL0     H97358   1.912  10.162  10.357 -0.6626 -0.5907  0.5257
  738MOL0     H97359   1.701  10.369  10.438  0.4349  0.1216  1.6143
  738MOL0     H97360   1.751  10.322  10.275 -1.5128  2.3057  0.0783
  738MOL0     H97361   1.639  10.106  10.472 -0.2573  1.7336  1.5176
  738MOL0     H97362   1.679  10.099  10.297 -1.1976 -0.1173 -1.3865
  738MOL0     H97363   1.485  10.226  10.237 -0.9312 -0.5243 -0.2076
  738MOL0     H97364   1.483  10.313  10.389 -0.6173 -0.5593  0.2901
  738MOL0     H97365   1.429  10.015  10.345 -0.4342 -0.1321 -2.3140
  738MOL0     H97366   1.401  10.095  10.496 -2.0899 -3.6597 -1.3138
  738MOL0     H97367   1.242  10.146  10.246  1.6205 -1.4515 -0.0214
  738MOL0     H97368   1.229  10.240  10.393 -1.0976  0.1080 -0.3992
  738MOL0     H97369   1.147  10.114  10.632 -0.4082 -0.0579 -0.3745
  738MOL0     H97370   0.840   9.909  10.664  0.2325 -1.3407 -1.4104
  738MOL0     H97371   0.934  10.021  10.761 -5.0497  0.0074  0.4446
  738MOL0     H97372   1.099   9.837  10.780 -0.0190  0.1948 -1.5319
  738MOL0     H97373   0.968   9.727  10.727 -3.1338  1.2899 -2.7196
  738MOL0     H97374   0.917   9.912  10.960 -1.6652 -1.0275  0.8476
  738MOL0     H97375   0.817   9.781  10.900  0.1724  0.8205  2.0212
  738MOL0     H97376   1.092   9.785  11.045  0.8782  0.2110 -3.2081
  738MOL0     H97377   1.048   9.642  10.958 -0.3616 -1.5410  1.4542
  738MOL0     H97378   0.870   9.509  10.949 -0.5348  0.3522 -0.3124
  738MOL0     H97379   0.678   9.358  10.961 -0.3429 -0.1068 -0.2023
  738MOL0     H97380   0.310   9.265  11.442 -0.2798  0.0107 -0.0666
  738MOL0     H97381   0.098   9.146  11.474 -0.7036  3.5406  1.5317
  738MOL0     H97382  -0.137   9.139  11.488 -0.0300 -1.9738  1.3763
  738MOL0     H97383  -0.054   8.995  11.474 -1.9086  1.6710  2.5231
  738MOL0     H97384  -0.304   8.974  11.489 -0.4276  0.7574 -0.4090
  738MOL0     H97385  -0.238   8.899  11.339  2.3424 -0.4023  1.0178
  738MOL0     H97386  -0.320   9.095  11.210  0.5137 -0.0909  0.0048
  738MOL0     H97387  -0.368   9.177  11.354 -0.7489  1.2608 -3.0484
  738MOL0     H97388  -0.492   8.920  11.266 -0.4214 -0.4058  1.4274
  738MOL0     H97389  -0.547   9.022  11.404 -1.6422  0.5519 -0.8229
  738MOL0     H97390  -0.570   9.099  11.113 -0.2520 -1.2626  0.0903
  738MOL0     H97391  -0.574   9.213  11.241  3.0822 -0.4433  1.8349
  738MOL0     H97392  -0.768   9.061  11.340  0.9658  1.3975  0.3443
  738MOL0     H97393  -0.748   8.958  11.203 -1.6930  1.3030 -1.3248
  738MOL0     H97394  -0.778   9.252  11.161 -1.0128  0.8097  2.1226
  738MOL0     H97395  -0.822   9.128  11.049  0.3935 -2.7097  0.5529
  738MOL0     H97396  -1.025   9.208  11.141  2.2287 -2.1421 -3.7781
  738MOL0     H97397  -0.980   9.204  11.309 -2.0340 -1.4833 -0.0458
  738MOL0     H97398  -0.014   9.205  11.080 -0.2319  0.2211 -0.1278
  738MOL0     H97399   0.207   9.329  11.021 -1.6706  2.8929  0.6866
  738MOL0     H97400   0.542   9.565  11.320  1.5905 -2.3868  1.7244
  738MOL0     H97401   0.743   9.716  11.303  1.0523 -1.9195  2.2816
  738MOL0     H97402   2.391  10.621  10.450 -1.7051 -0.6320  0.3334
  738MOL0     H97403   2.623  10.592  10.475 -2.3042  0.6249  1.2352
  738MOL0     H97404   2.973  10.266  10.787  0.1907  1.5080  0.9469
  738MOL0     H97405   3.204  10.284  10.802 -0.0271 -0.4601 -0.8382
  738MOL0     H97406   3.465  10.220  10.751 -0.8382  0.5788  1.0696
  738MOL0     H97407   3.452  10.387  10.773 -0.4206  1.4172 -1.7677
  738MOL0     H97408   3.634  10.273  10.549  1.7393  0.1995  0.0185
  738MOL0     H97409   3.649  10.424  10.619  0.5582 -1.1389 -1.8172
  738MOL0     H97410   3.726  10.162  10.739 -0.1891  0.8816 -1.2795
  738MOL0     H97411   3.680  10.283  10.858 -2.9585 -1.4714 -0.2049
  738MOL0     H97412   3.822  10.439  10.756 -0.5122 -1.3441  1.4246
  738MOL0     H97413   3.923  10.318  10.832  0.0292 -1.2971  0.2242
  738MOL0     H97414   4.035  10.285  10.431 -2.8770 -1.3252 -0.3571
  738MOL0     H97415   3.238  10.352  10.375 -0.9101 -3.1173 -0.8749
  738MOL0     H97416   2.993  10.335  10.367  1.1961 -1.5085 -1.3207
  739MOL0     O97417   5.622  10.840   3.380 -0.6348  0.3982 -0.5043
  739MOL0     C97418   5.641  10.945   3.448 -0.2681 -0.8914  0.1422
  739MOL0     O97419   5.559  11.050   3.454 -0.1757 -0.2401  0.1959
  739MOL0     C97420   5.425  11.028   3.443 -0.2407  0.3988  0.1505
  739MOL0     C97421   5.345  11.078   3.539  0.5439  0.4186 -0.5211
  739MOL0     C97422   5.212  11.072   3.523  0.7585  0.2570 -0.5726
  739MOL0     C97423   5.151  11.009   3.409  0.0966  0.3428 -0.3788
  739MOL0     O97424   5.024  10.987   3.392 -0.3709  0.1799 -0.2211
  739MOL0     C97425   4.933  10.968   3.501  0.5324  0.4089  0.4779
  739MOL0     C97426   4.798  10.920   3.454  0.6547 -0.4937 -0.9170
  739MOL0     C97427   4.740  11.017   3.353 -0.6358 -0.7755 -0.8315
  739MOL0     C97428   4.591  11.010   3.322 -0.2148  0.2362  0.5127
  739MOL0     C97429   4.538  11.124   3.230 -0.7577  0.1358  0.1302
  739MOL0     C97430   4.400  11.112   3.172  0.8266 -0.5465 -0.4364
  739MOL0     C97431   4.372  11.003   3.063 -0.2218 -0.0827  0.0432
  739MOL0     C97432   4.453  11.014   2.933  0.1288  0.1967 -0.0808
  739MOL0     N97433   4.381  11.091   2.827 -0.1152 -0.1246  0.2784
  739MOL0     C97434   4.364  11.230   2.828 -0.2318  0.1351  0.8004
  739MOL0     C97435   4.288  11.252   2.722 -0.0959  0.0879  0.2880
  739MOL0     C97436   4.230  11.383   2.664 -0.2903  1.1421  0.3993
  739MOL0     C97437   4.109  11.424   2.752 -0.1699  0.3109  0.9585
  739MOL0     C97438   3.999  11.506   2.678 -0.7195  0.1644  0.5805
  739MOL0     C97439   4.035  11.647   2.628 -0.1742 -0.1113 -0.3540
  739MOL0     O97440   4.056  11.739   2.730  0.2571 -0.4189  0.4880
  739MOL0     C97441   4.112  11.868   2.703 -0.7730  0.5730  0.7970
  739MOL0     C97442   4.098  11.930   2.581 -0.1322 -0.0048 -0.9532
  739MOL0     C97443   4.171  12.051   2.552  0.1277  0.7493  0.3490
  739MOL0     C97444   4.255  12.111   2.651  0.7186  0.7804 -0.3302
  739MOL0     C97445   4.335  12.229   2.621 -0.6624  0.1353 -0.0859
  739MOL0     O97446   4.301  12.296   2.507  0.4119 -0.8910 -0.3253
  739MOL0     C97447   4.370  12.411   2.484 -0.4397 -0.2036 -0.3241
  739MOL0     C97448   4.347  12.524   2.560  0.0478 -0.5674 -0.2703
  739MOL0     C97449   4.428  12.640   2.543  0.0143  0.5217 -0.1819
  739MOL0     C97450   4.544  12.632   2.465  0.3076 -0.8489 -0.2917
  739MOL0     O97451   4.617  12.740   2.446  0.3756  0.5628 -0.2482
  739MOL0     C97452   4.739  12.737   2.371 -0.0095  0.3112  0.3593
  739MOL0     C97453   4.724  12.756   2.222  0.5967 -0.5134  0.3118
  739MOL0     C97454   4.857  12.758   2.142 -0.1844  0.4735  0.0009
  739MOL0     C97455   4.930  12.886   2.145 -0.0313 -0.3738  0.2057
  739MOL0     C97456   5.070  12.870   2.068 -0.1647  0.6805 -0.0952
  739MOL0     C97457   5.131  13.002   2.046 -0.9753 -1.0717 -0.0665
  739MOL0     C97458   5.266  12.998   1.969  0.8558 -0.1091  0.0419
  739MOL0     C97459   5.327  13.137   1.980 -0.1371  0.7275 -0.1701
  739MOL0    Cl97460   5.404  13.161   2.143 -0.1590  0.4233  0.0270
  739MOL0     C97461   4.558  12.520   2.387  0.5325  0.8536 -0.0312
  739MOL0     C97462   4.472  12.410   2.395  0.6889  0.0707  1.1608
  739MOL0     O97463   4.412  12.266   2.707  0.3311  0.2520 -0.7683
  739MOL0     C97464   4.254  12.050   2.778 -0.7054 -1.3906  0.5860
  739MOL0     C97465   4.193  11.929   2.800 -0.5998 -0.0762  0.6021
  739MOL0     N97466   4.260  11.139   2.654  0.2064 -0.5896 -0.2349
  739MOL0     N97467   4.313  11.041   2.713  0.4503  0.0575 -0.8376
  739MOL0     C97468   5.238  10.954   3.318 -0.2927 -0.3000 -0.0655
  739MOL0     C97469   5.375  10.965   3.326 -0.1669  0.1292 -0.8598
  739MOL0     C97470   5.773  10.967   3.520 -0.5642  0.2063  0.2923
  739MOL0     C97471   5.873  10.868   3.496  0.3728 -0.6856  0.6919
  739MOL0     C97472   5.987  10.874   3.576  0.1397 -0.0077  0.3024
  739MOL0     C97473   6.009  10.974   3.671 -0.0526 -0.1320  0.1602
  739MOL0     O97474   6.117  10.964   3.753 -0.4058 -0.3113  0.2178
  739MOL0     C97475   6.121  11.013   3.885  0.2495 -0.3826  0.4640
  739MOL0     C97476   6.246  10.961   3.957  0.2881  0.5632  0.1082
  739MOL0     C97477   6.253  11.040   4.096  0.3865  0.5341 -0.0162
  739MOL0     C97478   6.385  11.026   4.166 -0.3703  0.5166  0.0901
  739MOL0     C97479   6.403  10.883   4.203 -0.6945 -0.5847 -0.0113
  739MOL0     C97480   6.412  10.763   4.245 -0.2244  0.2479 -0.0602
  739MOL0     C97481   5.904  11.068   3.686 -0.5199 -0.1054 -0.2002
  739MOL0     C97482   5.788  11.073   3.611  0.3196  1.0715  0.2569
  739MOL0     H97483   5.390  11.127   3.625  1.6264  0.3927 -1.0627
  739MOL0     H97484   5.144  11.120   3.592 -0.8681 -2.5634 -0.0634
  739MOL0     H97485   4.923  11.056   3.566  0.2966  0.0071  1.0014
  739MOL0     H97486   4.971  10.891   3.568  0.1111 -1.9032 -1.7913
  739MOL0     H97487   4.740  10.922   3.547 -0.0202  3.4478 -1.2595
  739MOL0     H97488   4.795  10.815   3.426 -1.0204 -1.0218  1.0015
  739MOL0     H97489   4.793  10.993   3.261 -0.5031  3.0833 -1.9333
  739MOL0     H97490   4.768  11.121   3.376 -0.1856 -1.0753  0.0480
  739MOL0     H97491   4.572  10.910   3.282  0.1398  0.0051  0.9073
  739MOL0     H97492   4.527  11.007   3.411  0.2885 -1.1070  0.8554
  739MOL0     H97493   4.609  11.126   3.147 -0.6345 -2.1567  0.1103
  739MOL0     H97494   4.542  11.215   3.290 -0.2814  1.2196 -1.4857
  739MOL0     H97495   4.380  11.211   3.130  1.5792 -0.2213 -0.0294
  739MOL0     H97496   4.327  11.088   3.250  1.2546 -0.2701  0.0482
  739MOL0     H97497   4.397  10.905   3.104 -1.6796 -0.9029 -0.9395
  739MOL0     H97498   4.268  11.002   3.030 -0.5877  1.3815  1.0484
  739MOL0     H97499   4.459  10.907   2.911  1.5659  0.5316 -1.5015
  739MOL0     H97500   4.550  11.056   2.962 -0.5719  2.2708 -0.5607
  739MOL0     H97501   4.408  11.295   2.902 -0.7987  0.2282  1.0591
  739MOL0     H97502   4.201  11.359   2.561 -0.2331 -0.0239  0.6500
  739MOL0     H97503   4.303  11.464   2.664  0.3869  0.5428  0.8796
  739MOL0     H97504   4.145  11.481   2.838 -0.9452  2.9723 -0.3891
  739MOL0     H97505   4.056  11.332   2.779  0.2468 -0.7524 -1.5183
  739MOL0     H97506   3.975  11.445   2.590 -1.5211  1.3144 -0.0355
  739MOL0     H97507   3.917  11.513   2.750 -0.7481  0.5315  0.5157
  739MOL0     H97508   3.956  11.683   2.561  0.3506  1.9791  0.0618
  739MOL0     H97509   4.130  11.634   2.576 -0.3991  1.8774 -1.3575
  739MOL0     H97510   4.028  11.890   2.508 -1.0788  0.7087 -0.4619
  739MOL0     H97511   4.161  12.087   2.451 -3.4832  0.8674  0.6196
  739MOL0     H97512   4.275  12.521   2.641  0.0003 -0.4544 -0.3082
  739MOL0     H97513   4.396  12.723   2.605 -3.9711 -0.1021 -1.1058
  739MOL0     H97514   4.771  12.633   2.383 -2.5568 -0.5487  0.3966
  739MOL0     H97515   4.807  12.813   2.410  0.3554  1.1721 -1.8085
  739MOL0     H97516   4.677  12.853   2.205 -0.6953 -0.9862  1.0154
  739MOL0     H97517   4.653  12.683   2.180  0.9106  0.1653 -1.5033
  739MOL0     H97518   4.853  12.721   2.039  3.8621 -0.6480  0.0937
  739MOL0     H97519   4.926  12.688   2.189 -0.6653 -0.3216 -0.4586
  739MOL0     H97520   4.872  12.964   2.095 -2.3536 -2.1863 -0.0740
  739MOL0     H97521   4.963  12.918   2.244  1.4992  2.0637 -0.9849
  739MOL0     H97522   5.054  12.824   1.970  1.4134 -0.5396  0.1688
  739MOL0     H97523   5.146  12.803   2.111 -1.5893 -0.0168  1.4821
  739MOL0     H97524   5.138  13.055   2.141  0.3683 -1.8581  0.3070
  739MOL0     H97525   5.064  13.064   1.986 -2.8502 -3.4098 -0.5672
  739MOL0     H97526   5.322  12.915   2.012 -2.8806 -1.8923  1.9545
  739MOL0     H97527   5.238  12.982   1.865  0.8847  0.5385 -0.0707
  739MOL0     H97528   5.237  13.198   1.981 -1.3993 -0.9413  3.0126
  739MOL0     H97529   5.397  13.154   1.898  1.1220 -0.4602  0.5918
  739MOL0     H97530   4.638  12.498   2.316  3.0865 -0.8330  3.1233
  739MOL0     H97531   4.491  12.330   2.324 -0.3610  1.1306 -0.3715
  739MOL0     H97532   4.292  12.106   2.862  0.8212  1.2960 -1.7203
  739MOL0     H97533   4.186  11.888   2.900 -1.2538  1.7943  1.3724
  739MOL0     H97534   5.194  10.902   3.233  2.5171  0.1781 -1.9538
  739MOL0     H97535   5.441  10.924   3.250  1.8073  0.3361  0.6430
  739MOL0     H97536   5.852  10.774   3.445 -1.5215 -0.7349  1.4845
  739MOL0     H97537   6.051  10.788   3.561 -0.2305  0.0611 -2.0400
  739MOL0     H97538   6.029  10.977   3.933 -0.9586 -0.7231 -1.9596
  739MOL0     H97539   6.120  11.122   3.888  0.7561 -0.3909  2.4239
  739MOL0     H97540   6.227  10.854   3.970 -2.2041  0.8302 -0.8561
  739MOL0     H97541   6.327  10.980   3.886  0.1042 -2.4761 -1.0620
  739MOL0     H97542   6.178  10.995   4.163 -0.0378  0.7809 -0.3172
  739MOL0     H97543   6.215  11.141   4.081  3.7036  1.5418 -2.6816
  739MOL0     H97544   6.463  11.067   4.101 -0.4851 -0.6903 -0.8360
  739MOL0     H97545   6.389  11.081   4.261 -0.9936 -1.3210  1.2145
  739MOL0     H97546   6.434  10.672   4.295 -1.9386  0.6325  1.5259
  739MOL0     H97547   5.905  11.131   3.774  0.1391 -1.4516  0.8001
  739MOL0     H97548   5.718  11.156   3.610  0.0890  0.9592  2.2501
  740MOL0     O97549   0.356  10.321   4.345 -0.2491 -0.4806  0.0870
  740MOL0     C97550   0.406  10.343   4.452  0.2348 -0.0943  0.5267
  740MOL0     O97551   0.539  10.306   4.487  0.6039 -0.3864 -0.6901
  740MOL0     C97552   0.634  10.258   4.394  0.2334 -0.1150  0.3380
  740MOL0     C97553   0.735  10.186   4.456  0.8861  0.5134  0.8923
  740MOL0     C97554   0.856  10.170   4.383  1.4562 -0.3464  0.3571
  740MOL0     C97555   0.879  10.206   4.252  0.1820 -0.3716  0.5055
  740MOL0     O97556   1.003  10.185   4.201  0.2047  0.1291  0.4550
  740MOL0     C97557   1.030  10.236   4.067 -0.5858 -0.1916 -0.7164
  740MOL0     C97558   1.177  10.203   4.015  0.2779  0.6628 -0.3477
  740MOL0     C97559   1.204  10.236   3.869 -0.0630  0.5396 -0.8143
  740MOL0     C97560   1.354  10.241   3.850  0.0415  0.3279 -0.2517
  740MOL0     C97561   1.385  10.219   3.705  0.1927  0.3055  0.4672
  740MOL0     C97562   1.528  10.214   3.665  0.3126  0.4665 -1.0449
  740MOL0     C97563   1.604  10.104   3.738  0.1367 -0.1350 -0.1450
  740MOL0     C97564   1.743  10.093   3.670 -0.0303  0.4801 -0.8671
  740MOL0     N97565   1.833  10.200   3.687 -0.1527 -0.4404 -0.4492
  740MOL0     C97566   1.857  10.306   3.603  0.8974  0.4393  0.4120
  740MOL0     C97567   1.943  10.389   3.666  0.2753  0.0178  0.3820
  740MOL0     C97568   2.004  10.523   3.603  0.3435 -0.0541 -0.5761
  740MOL0     C97569   1.889  10.627   3.572  0.0486  0.0710  0.7078
  740MOL0     C97570   1.832  10.662   3.705  0.1493  0.2333 -0.8172
  740MOL0     C97571   1.719  10.755   3.684  0.2789  0.1066 -0.2320
  740MOL0     O97572   1.600  10.702   3.627 -0.2840  0.2703  0.3124
  740MOL0     C97573   1.498  10.671   3.717 -0.0501 -0.1159  0.4458
  740MOL0     C97574   1.367  10.662   3.664 -0.3143 -0.3563 -0.7475
  740MOL0     C97575   1.258  10.647   3.747 -0.2163  0.7306  0.6806
  740MOL0     C97576   1.277  10.645   3.884  0.4427 -0.7219 -0.2550
  740MOL0     C97577   1.162  10.628   3.985  0.9365  1.0858  0.4632
  740MOL0     O97578   1.191  10.650   4.120 -0.1655 -0.0263 -0.2257
  740MOL0     C97579   1.074  10.664   4.189  0.2303  0.6322  0.3762
  740MOL0     C97580   1.004  10.793   4.195  0.2946  0.2118  0.4489
  740MOL0     C97581   0.887  10.803   4.276 -0.6247 -0.3803 -1.2050
  740MOL0     C97582   0.839  10.701   4.349 -0.0473  0.8608 -0.0948
  740MOL0     O97583   0.727  10.732   4.426 -0.0375 -0.5447 -0.7487
  740MOL0     C97584   0.669  10.616   4.500 -0.9955 -1.1269 -0.6528
  740MOL0     C97585   0.550  10.658   4.587 -0.5812  0.6369  0.7515
  740MOL0     C97586   0.428  10.696   4.500 -0.0177 -0.2734  0.5132
  740MOL0     C97587   0.305  10.759   4.556  0.3353 -0.1843 -0.1831
  740MOL0     C97588   0.193  10.792   4.456 -0.0366 -0.2478 -0.1931
  740MOL0     C97589   0.077  10.849   4.541 -0.0597  0.2829 -0.7032
  740MOL0     C97590  -0.042  10.874   4.453 -0.1606 -0.0117  0.4990
  740MOL0     C97591  -0.162  10.935   4.527  0.9259 -0.6451  0.3069
  740MOL0    Cl97592  -0.277  10.973   4.398 -0.4186  0.3284 -0.2012
  740MOL0     C97593   0.898  10.575   4.336  0.3534 -0.3597  0.0335
  740MOL0     C97594   1.010  10.552   4.253 -0.2109  0.5571 -0.1281
  740MOL0     O97595   1.051  10.610   3.929 -0.5209  0.3101 -0.2687
  740MOL0     C97596   1.398  10.656   3.941 -0.7293 -0.3978  0.3267
  740MOL0     C97597   1.515  10.661   3.855  0.0247  0.0514 -0.8872
  740MOL0     N97598   1.972  10.340   3.780 -0.4694  0.8890 -0.2015
  740MOL0     N97599   1.907  10.231   3.804 -0.0230  0.6868  0.0468
  740MOL0     C97600   0.767  10.271   4.187 -0.1897  1.1883  0.0396
  740MOL0     C97601   0.646  10.295   4.264 -0.1855 -0.6604 -0.6105
  740MOL0     C97602   0.310  10.380   4.554 -0.3116  0.3000  1.2488
  740MOL0     C97603   0.358  10.385   4.690 -0.0250 -0.4040 -1.5168
  740MOL0     C97604   0.271  10.413   4.788  0.1858  0.4595  0.3420
  740MOL0     C97605   0.136  10.433   4.765  0.8169 -0.0485  0.5272
  740MOL0     O97606   0.051  10.448   4.871 -0.1398  0.1914 -0.3133
  740MOL0     C97607   0.080  10.401   5.006  0.2744  0.3108  0.1613
  740MOL0     C97608  -0.049  10.421   5.090  0.3301  0.2588 -0.5526
  740MOL0     C97609  -0.025  10.408   5.248 -0.5937 -0.8331  0.7861
  740MOL0     C97610  -0.148  10.382   5.323  0.5677 -0.0728 -0.2545
  740MOL0     C97611  -0.219  10.514   5.347 -0.4210  0.4792  0.0090
  740MOL0     C97612  -0.285  10.617   5.347 -0.1936  0.0864 -0.4406
  740MOL0     C97613   0.086  10.428   4.636 -0.6355  0.6065  0.0734
  740MOL0     C97614   0.174  10.404   4.525  0.7143  0.8900 -0.2582
  740MOL0     H97615   0.716  10.155   4.558  0.2235 -0.0382  0.6068
  740MOL0     H97616   0.941  10.117   4.425  5.5332  3.5776 -2.0047
  740MOL0     H97617   1.026  10.345   4.078 -0.2559 -0.2807  0.4081
  740MOL0     H97618   0.957  10.205   3.991  0.7929  0.0485 -2.1853
  740MOL0     H97619   1.199  10.098   4.036 -3.0502 -0.1494 -0.3344
  740MOL0     H97620   1.246  10.257   4.080  0.8899 -1.9785  1.3533
  740MOL0     H97621   1.153  10.331   3.845 -0.8010  0.0448 -1.2558
  740MOL0     H97622   1.153  10.161   3.807  1.4462  0.0554 -1.5227
  740MOL0     H97623   1.401  10.330   3.894 -1.1490 -0.0832  1.9973
  740MOL0     H97624   1.386  10.157   3.913 -0.0270  0.1386 -0.4702
  740MOL0     H97625   1.336  10.294   3.642 -1.0910 -1.2448 -0.4815
  740MOL0     H97626   1.336  10.127   3.671 -0.4537  0.9258 -0.3098
  740MOL0     H97627   1.567  10.311   3.698 -1.0936  0.1050  2.0614
  740MOL0     H97628   1.525  10.197   3.557 -2.8468  1.8886 -1.3176
  740MOL0     H97629   1.608  10.133   3.843  0.3403  2.3172 -0.7584
  740MOL0     H97630   1.557  10.007   3.718 -1.5433  0.6763 -0.3071
  740MOL0     H97631   1.735  10.063   3.565  2.4689 -0.9797 -0.7239
  740MOL0     H97632   1.790  10.004   3.713 -1.2128  0.9485  1.5751
  740MOL0     H97633   1.820  10.323   3.502  1.5856  1.0178  0.2489
  740MOL0     H97634   2.049  10.499   3.506 -2.4475 -1.9902 -1.5088
  740MOL0     H97635   2.067  10.581   3.671  0.1208  1.3442 -1.5007
  740MOL0     H97636   1.816  10.576   3.509  1.8718 -2.4164  0.4810
  740MOL0     H97637   1.938  10.701   3.508  0.8008 -2.3778 -1.7188
  740MOL0     H97638   1.807  10.579   3.772  5.9393 -2.9800 -1.9065
  740MOL0     H97639   1.902  10.719   3.766  0.0124 -0.0304 -0.4056
  740MOL0     H97640   1.745  10.841   3.621  3.8515 -1.3680 -1.0414
  740MOL0     H97641   1.702  10.813   3.776  0.8078  3.6668 -2.1851
  740MOL0     H97642   1.358  10.671   3.556 -0.8125  0.9000 -0.6237
  740MOL0     H97643   1.158  10.636   3.704 -0.2928 -3.0728  1.4666
  740MOL0     H97644   1.036  10.879   4.137 -0.2578  1.9211  2.5684
  740MOL0     H97645   0.827  10.894   4.274  0.3567  0.3209  0.0810
  740MOL0     H97646   0.755  10.579   4.556  1.7941  2.3233 -2.2824
  740MOL0     H97647   0.641  10.541   4.425 -2.2610 -0.0427 -1.2975
  740MOL0     H97648   0.577  10.742   4.652  1.4028  1.1151 -0.5800
  740MOL0     H97649   0.529  10.579   4.659 -2.6122  1.4587  1.1131
  740MOL0     H97650   0.391  10.609   4.445 -0.0794  0.3832 -0.5216
  740MOL0     H97651   0.467  10.763   4.423  2.2102 -0.4662  1.4174
  740MOL0     H97652   0.262  10.688   4.628 -3.7671  1.5096 -0.6517
  740MOL0     H97653   0.320  10.851   4.613 -2.2107  1.6134 -2.1435
  740MOL0     H97654   0.154  10.713   4.392  0.0308  0.5355 -1.2195
  740MOL0     H97655   0.227  10.879   4.398 -1.3118  1.0353  0.8820
  740MOL0     H97656   0.112  10.942   4.586  2.0156  0.1198 -1.8132
  740MOL0     H97657   0.052  10.779   4.621 -2.0092  0.7670 -0.8317
  740MOL0     H97658  -0.006  10.950   4.383  0.2151  1.7732  2.5217
  740MOL0     H97659  -0.074  10.786   4.396 -2.5158 -0.1486  1.8872
  740MOL0     H97660  -0.132  11.019   4.589 -1.7527  0.7414 -0.1330
  740MOL0     H97661  -0.200  10.862   4.599  0.6276  0.9837  1.8366
  740MOL0     H97662   0.860  10.489   4.391  0.1979  0.3795  1.1114
  740MOL0     H97663   1.058  10.454   4.257  0.3000  0.8015 -0.1883
  740MOL0     H97664   1.410  10.648   4.049  0.7268 -0.0437  0.2142
  740MOL0     H97665   1.610  10.675   3.906 -0.4546 -2.3581  0.9097
  740MOL0     H97666   0.776  10.307   4.085 -1.5705  1.1901 -0.1021
  740MOL0     H97667   0.571  10.358   4.218  1.8317  1.4023 -1.2482
  740MOL0     H97668   0.453  10.355   4.733 -1.3727 -0.5676  1.6415
  740MOL0     H97669   0.321  10.419   4.884  1.0709  1.1659 -0.1607
  740MOL0     H97670   0.160  10.464   5.046  0.1161  2.1873 -2.1941
  740MOL0     H97671   0.109  10.296   5.002 -1.8077 -0.2827 -0.6959
  740MOL0     H97672  -0.094  10.520   5.075  0.2263  0.3868  0.5259
  740MOL0     H97673  -0.130  10.355   5.057  1.4062 -1.1821 -0.3748
  740MOL0     H97674   0.023  10.501   5.278  1.3912 -2.0985  1.7269
  740MOL0     H97675   0.053  10.334   5.268  0.3974  0.4972  1.9854
  740MOL0     H97676  -0.209  10.317   5.260  2.9487 -0.1806 -2.5943
  740MOL0     H97677  -0.121  10.328   5.414  2.8971 -0.2294 -0.9583
  740MOL0     H97678  -0.343  10.707   5.340 -0.7252 -0.3691 -2.6522
  740MOL0     H97679  -0.017  10.453   4.613  0.0004  2.3838 -1.0336
  740MOL0     H97680   0.137  10.403   4.423  0.0407  0.3203 -0.0146
  741MOL0     O97681   0.821   0.984  11.098  0.9096  0.1464 -0.2902
  741MOL0     C97682   0.870   0.927  11.003 -0.6058  0.8824 -0.2693
  741MOL0     O97683   0.812   0.909  10.881  0.0903  0.1317 -0.6522
  741MOL0     C97684   0.706   0.981  10.844  0.2071  0.2530 -0.0341
  741MOL0     C97685   0.695   1.116  10.882  0.2236 -0.5286  0.1194
  741MOL0     C97686   0.585   1.192  10.842 -0.4146  0.1583 -0.5639
  741MOL0     C97687   0.486   1.139  10.754 -0.2061 -0.3819  0.7513
  741MOL0     O97688   0.388   1.214  10.701  0.7403  0.3459  0.1572
  741MOL0     C97689   0.363   1.351  10.738 -1.0512  0.6380 -0.4384
  741MOL0     C97690   0.226   1.377  10.681  0.0356 -0.4935 -0.0468
  741MOL0     C97691   0.217   1.370  10.522 -0.5382 -0.1737  0.6108
  741MOL0     C97692   0.069   1.362  10.480 -0.3335  0.2841  0.0138
  741MOL0     C97693   0.041   1.329  10.335  0.4333 -0.5474  0.2375
  741MOL0     C97694  -0.117   1.335  10.321 -0.0328  0.2331 -0.2965
  741MOL0     C97695  -0.177   1.379  10.186 -0.5007  0.2066  0.0636
  741MOL0     C97696  -0.174   1.259  10.092 -0.1857 -0.9970  0.4058
  741MOL0     N97697  -0.187   1.314   9.949 -0.9047  0.4327 -0.5357
  741MOL0     C97698  -0.089   1.377   9.881  0.0997  0.3870  0.1159
  741MOL0     C97699  -0.152   1.426   9.769 -0.1313  0.3521 -0.5644
  741MOL0     C97700  -0.092   1.511   9.664  0.2912  0.6334  0.6240
  741MOL0     C97701  -0.059   1.422   9.540 -0.7008 -0.0362  0.0208
  741MOL0     C97702   0.031   1.510   9.451  0.3841 -0.5216  0.9045
  741MOL0     C97703   0.081   1.437   9.317  0.0981 -0.5453  0.4363
  741MOL0     O97704   0.149   1.523   9.231  0.2130 -0.2276  0.4212
  741MOL0     C97705   0.164   1.462   9.111 -0.2980  0.5748  1.2018
  741MOL0     C97706   0.226   1.333   9.102 -0.9949 -1.1428 -0.2585
  741MOL0     C97707   0.269   1.287   8.975 -0.1155 -0.3513 -0.6009
  741MOL0     C97708   0.246   1.357   8.856 -0.7942  0.0137 -0.6188
  741MOL0     C97709   0.296   1.309   8.727  0.4418  0.8796 -0.1748
  741MOL0     O97710   0.304   1.172   8.718 -0.4237  0.3812 -0.1584
  741MOL0     C97711   0.388   1.116   8.618  0.8605  0.2039 -0.1991
  741MOL0     C97712   0.376   1.140   8.476 -0.2550  0.3557 -0.8403
  741MOL0     C97713   0.461   1.075   8.395 -0.2798  0.1525  0.2116
  741MOL0     C97714   0.567   0.995   8.444 -0.5469 -0.4366 -0.3894
  741MOL0     O97715   0.653   0.934   8.355 -0.7059 -0.0337 -0.0689
  741MOL0     C97716   0.712   0.803   8.391 -0.4643 -0.2737 -0.8626
  741MOL0     C97717   0.777   0.725   8.279 -0.7096  0.0948  0.6107
  741MOL0     C97718   0.915   0.789   8.255  0.2128 -0.2852  1.2410
  741MOL0     C97719   1.010   0.707   8.168 -0.5756 -0.2548  0.0879
  741MOL0     C97720   1.118   0.779   8.092  0.9401 -0.1515  0.1261
  741MOL0     C97721   1.212   0.684   8.020 -0.1728  0.4005 -0.0518
  741MOL0     C97722   1.320   0.760   7.933  0.3629 -0.1536  0.4370
  741MOL0     C97723   1.406   0.666   7.839  0.0553 -0.3958 -0.1566
  741MOL0    Cl97724   1.524   0.769   7.742  0.7877 -0.0435  0.1544
  741MOL0     C97725   0.588   0.984   8.583  0.6605 -0.4866  0.4565
  741MOL0     C97726   0.493   1.042   8.670 -0.5812  0.2853 -0.6414
  741MOL0     O97727   0.337   1.394   8.648 -0.1499 -0.5839 -0.0681
  741MOL0     C97728   0.163   1.473   8.872  0.4436  0.2086 -0.5097
  741MOL0     C97729   0.124   1.524   8.996  0.7934 -0.0627  0.6506
  741MOL0     N97730  -0.285   1.399   9.785  0.3786 -0.0051  0.4645
  741MOL0     N97731  -0.307   1.331   9.891 -0.1051  0.1031  0.2865
  741MOL0     C97732   0.501   1.009  10.715 -0.2716  0.2608  0.2839
  741MOL0     C97733   0.612   0.926  10.759  0.5056  0.7462 -0.0500
  741MOL0     C97734   1.000   0.855  11.020 -0.0847  0.2225  0.0992
  741MOL0     C97735   1.108   0.916  11.090 -0.5778  0.5359  0.1052
  741MOL0     C97736   1.237   0.867  11.092 -0.8480 -0.2339  1.2875
  741MOL0     C97737   1.268   0.743  11.040  0.4165 -0.3762 -0.0341
  741MOL0     O97738   1.402   0.717  11.044 -0.3401  0.0181 -0.1948
  741MOL0     C97739   1.446   0.600  10.984  0.3464  0.0627 -0.5248
  741MOL0     C97740   1.588   0.559  11.028 -0.0637 -0.0749  0.8555
  741MOL0     C97741   1.593   0.403  11.033 -1.0797 -0.0042 -1.2818
  741MOL0     C97742   1.721   0.365  11.108  0.0648  0.2849 -0.5293
  741MOL0     C97743   1.846   0.411  11.048  0.4403 -0.0165 -0.1743
  741MOL0     C97744   1.944   0.451  10.987 -0.8791 -0.2223 -0.3927
  741MOL0     C97745   1.160   0.667  10.980 -0.5831 -0.1804  0.1148
  741MOL0     C97746   1.033   0.724  10.966 -0.6627  0.3372  0.0343
  741MOL0     H97747   0.776   1.166  10.934  0.5487 -0.1482 -0.7298
  741MOL0     H97748   0.591   1.295  10.877  1.5571  0.1923 -0.8817
  741MOL0     H97749   0.439   1.415  10.693  0.2942 -0.0326  0.8123
  741MOL0     H97750   0.354   1.359  10.847 -1.5128  1.5120 -0.5288
  741MOL0     H97751   0.199   1.481  10.703  1.4289 -0.2878  0.8350
  741MOL0     H97752   0.162   1.307  10.735  1.0513 -1.6389 -0.3022
  741MOL0     H97753   0.278   1.284  10.494  0.1802 -0.3845  2.6457
  741MOL0     H97754   0.264   1.465  10.495 -2.9117  0.5526 -1.2966
  741MOL0     H97755   0.021   1.286  10.543  1.3184 -2.3199 -1.6600
  741MOL0     H97756   0.021   1.458  10.503  1.7207  1.4411 -0.2758
  741MOL0     H97757   0.091   1.240  10.297  1.4938  0.6075 -1.1888
  741MOL0     H97758   0.084   1.407  10.271  0.6418  1.1813  2.3629
  741MOL0     H97759  -0.162   1.410  10.387 -3.4061 -3.1093  1.5946
  741MOL0     H97760  -0.160   1.240  10.354 -1.3420  1.3708  1.4775
  741MOL0     H97761  -0.282   1.405  10.201 -1.4773 -2.1826 -2.0991
  741MOL0     H97762  -0.113   1.464  10.160 -0.8101  1.7600  3.7115
  741MOL0     H97763  -0.253   1.190  10.123 -2.2108  0.6516 -0.7666
  741MOL0     H97764  -0.076   1.212  10.106 -0.2602 -1.1228  0.5023
  741MOL0     H97765   0.015   1.394   9.908 -0.3032  0.7163  1.5567
  741MOL0     H97766  -0.006   1.562   9.709  1.5227 -1.2712  0.5276
  741MOL0     H97767  -0.154   1.593   9.625  0.7487  0.0505 -1.4343
  741MOL0     H97768  -0.152   1.383   9.498  0.2300 -1.9408 -0.3878
  741MOL0     H97769   0.006   1.337   9.562 -2.0093 -1.3874 -1.0330
  741MOL0     H97770  -0.015   1.608   9.430  2.5056  1.2491  3.7928
  741MOL0     H97771   0.112   1.549   9.513  1.9678 -1.3269 -0.6102
  741MOL0     H97772   0.002   1.387   9.260  0.5971  0.7167 -1.4709
  741MOL0     H97773   0.153   1.363   9.353 -1.6738 -1.5456  2.1158
  741MOL0     H97774   0.263   1.284   9.191 -0.6673 -1.4668 -0.5701
  741MOL0     H97775   0.313   1.188   8.977  2.2152  0.6233  0.4608
  741MOL0     H97776   0.300   1.203   8.431 -0.3269  0.2603 -0.8523
  741MOL0     H97777   0.450   1.087   8.288  0.5666 -3.1953 -0.3655
  741MOL0     H97778   0.639   0.732   8.428  3.0059 -2.3215  2.8763
  741MOL0     H97779   0.790   0.833   8.462 -0.0042 -1.1112 -1.0042
  741MOL0     H97780   0.710   0.730   8.192 -0.9651 -2.9777  0.5466
  741MOL0     H97781   0.793   0.620   8.304 -1.1099 -1.4154 -4.3770
  741MOL0     H97782   0.979   0.802   8.342  3.0045 -2.7500 -0.2406
  741MOL0     H97783   0.908   0.885   8.203  0.8118 -1.0585 -0.3455
  741MOL0     H97784   1.059   0.629   8.226 -2.4393 -1.6168 -0.0507
  741MOL0     H97785   0.964   0.648   8.089  0.7805 -0.3873 -0.6247
  741MOL0     H97786   1.184   0.834   8.160 -0.3884  0.2790  1.1150
  741MOL0     H97787   1.078   0.839   8.011 -0.4278 -1.7270 -0.4234
  741MOL0     H97788   1.158   0.612   7.958  0.5167 -1.7119  1.6668
  741MOL0     H97789   1.263   0.619   8.092  2.5811  1.1516 -1.1986
  741MOL0     H97790   1.260   0.826   7.870 -1.4846 -0.9461  1.3078
  741MOL0     H97791   1.390   0.812   7.999  1.6080  0.9740 -1.6525
  741MOL0     H97792   1.339   0.601   7.782 -0.2853  2.1590 -2.8955
  741MOL0     H97793   1.451   0.594   7.910 -0.5617 -0.6323 -0.0018
  741MOL0     H97794   0.669   0.926   8.627 -1.7745 -2.9850  1.9314
  741MOL0     H97795   0.513   1.031   8.776  2.2939  0.8404 -1.0619
  741MOL0     H97796   0.124   1.507   8.776 -1.8732 -0.0625  0.2794
  741MOL0     H97797   0.060   1.610   9.011  0.5754 -0.3601  1.5109
  741MOL0     H97798   0.434   0.962  10.645  0.3293  2.0897 -1.6452
  741MOL0     H97799   0.609   0.820  10.738  0.5644  0.1028  2.7747
  741MOL0     H97800   1.087   1.011  11.137  0.0664  0.8391 -0.2049
  741MOL0     H97801   1.312   0.930  11.140 -0.5307  1.0006 -0.7055
  741MOL0     H97802   1.451   0.620  10.876 -2.8990 -0.2358 -0.8316
  741MOL0     H97803   1.380   0.514  10.995  1.0772 -0.5281 -0.7204
  741MOL0     H97804   1.668   0.599  10.965 -0.8640  2.0182  1.1017
  741MOL0     H97805   1.599   0.605  11.127 -0.8286  3.3299 -0.5018
  741MOL0     H97806   1.604   0.348  10.939  2.2739 -0.0328 -1.0013
  741MOL0     H97807   1.502   0.375  11.085 -0.5946  1.8868  0.7402
  741MOL0     H97808   1.728   0.387  11.215  1.2486 -1.6714 -0.1671
  741MOL0     H97809   1.718   0.257  11.098 -0.9397  0.4623 -2.8247
  741MOL0     H97810   2.037   0.476  10.940 -1.3719  0.7300 -0.8902
  741MOL0     H97811   1.185   0.570  10.937  0.3174 -0.2680  0.8210
  741MOL0     H97812   0.960   0.663  10.913 -0.3057  0.6342 -0.8135
  742MOL0     O97813   0.565   9.462   4.103  0.5722  0.5209  1.2205
  742MOL0     C97814   0.658   9.533   4.121 -0.5100 -1.3015  0.4311
  742MOL0     O97815   0.656   9.646   4.196 -0.2183 -0.9259 -0.0184
  742MOL0     C97816   0.547   9.690   4.272 -0.3398 -0.3320 -0.4975
  742MOL0     C97817   0.562   9.824   4.313 -0.0738 -0.1766 -1.5902
  742MOL0     C97818   0.468   9.882   4.399  0.3900 -1.1727  0.9588
  742MOL0     C97819   0.358   9.806   4.447  0.2278 -0.5530 -1.1593
  742MOL0     O97820   0.258   9.851   4.539 -0.4610 -0.2745 -0.3087
  742MOL0     C97821   0.287   9.978   4.601 -0.0644  0.1341 -0.0421
  742MOL0     C97822   0.211   9.998   4.732  0.2718 -0.2211 -0.7576
  742MOL0     C97823   0.057   9.980   4.721 -0.2248  0.2273 -0.0860
  742MOL0     C97824  -0.013   9.998   4.850 -0.1660 -0.2933  0.1939
  742MOL0     C97825  -0.159   9.961   4.826 -0.2441 -0.1854 -0.4274
  742MOL0     C97826  -0.210   9.909   4.961 -0.4469 -0.0381 -0.2754
  742MOL0     C97827  -0.362   9.862   4.947  0.6493 -0.2006 -1.2869
  742MOL0     C97828  -0.415   9.824   5.084  0.0083 -0.3944  1.0484
  742MOL0     N97829  -0.557   9.794   5.081 -0.0967  0.1915  0.9939
  742MOL0     C97830  -0.619   9.676   5.104  0.1417 -0.3942 -0.1049
  742MOL0     C97831  -0.750   9.694   5.084  0.0102 -1.0283 -0.0799
  742MOL0     C97832  -0.862   9.596   5.101  0.1524  0.0189  0.5071
  742MOL0     C97833  -0.936   9.625   5.236 -0.3075 -0.3654  0.4809
  742MOL0     C97834  -1.017   9.759   5.247 -0.4335 -0.0703  0.4683
  742MOL0     C97835  -1.171   9.739   5.272 -0.0501 -0.0714  0.0958
  742MOL0     O97836  -1.191   9.696   5.409 -0.1592  0.3845 -0.4634
  742MOL0     C97837  -1.322   9.701   5.455 -1.0349  0.1272 -0.0682
  742MOL0     C97838  -1.425   9.639   5.389  0.4984 -0.3547  0.4267
  742MOL0     C97839  -1.562   9.643   5.423  0.4876 -0.6340 -0.7060
  742MOL0     C97840  -1.598   9.739   5.523 -0.8764  0.0801  0.8178
  742MOL0     C97841  -1.729   9.756   5.582  0.5398 -1.0113  0.1924
  742MOL0     O97842  -1.748   9.849   5.688 -0.3423 -0.0689  0.5546
  742MOL0     C97843  -1.869   9.826   5.754 -0.9353 -0.3640  0.0258
  742MOL0     C97844  -1.888   9.710   5.834  0.5979  0.4837  0.6285
  742MOL0     C97845  -2.010   9.698   5.910  0.0420  0.6608  0.2297
  742MOL0     C97846  -2.107   9.802   5.910  0.7687  1.0983  1.2372
  742MOL0     O97847  -2.220   9.800   5.983  0.6858  0.1353 -0.2616
  742MOL0     C97848  -2.269   9.677   6.032  0.6854 -0.5303 -0.6920
  742MOL0     C97849  -2.418   9.681   6.075  0.3530  0.9747  0.2982
  742MOL0     C97850  -2.510   9.775   5.985  0.6372  0.0498  0.0901
  742MOL0     C97851  -2.656   9.788   6.039 -0.4641  0.1653  0.1815
  742MOL0     C97852  -2.725   9.645   6.062 -0.3314 -0.5989 -0.9865
  742MOL0     C97853  -2.871   9.663   6.112  0.1091  0.1074  0.1191
  742MOL0     C97854  -2.935   9.520   6.121  0.2990 -0.1368  0.2212
  742MOL0     C97855  -3.085   9.531   6.168 -0.4488  0.1175  0.4139
  742MOL0    Cl97856  -3.134   9.367   6.219 -0.1014 -0.1510  0.2390
  742MOL0     C97857  -2.089   9.912   5.822  0.1255 -0.0454  0.3391
  742MOL0     C97858  -1.964   9.926   5.751 -0.2510  0.7642  0.1803
  742MOL0     O97859  -1.817   9.685   5.534 -0.2613  0.0913 -0.4998
  742MOL0     C97860  -1.491   9.806   5.585 -0.1474 -0.0820  0.4739
  742MOL0     C97861  -1.358   9.782   5.554  0.1271  0.0096 -0.2106
  742MOL0     N97862  -0.766   9.827   5.049  0.5128  0.0631  0.7502
  742MOL0     N97863  -0.651   9.883   5.042  0.3704  0.0124 -0.0456
  742MOL0     C97864   0.345   9.673   4.415  0.2142 -0.6194  0.6893
  742MOL0     C97865   0.446   9.613   4.328 -0.4214 -0.3821  0.3276
  742MOL0     C97866   0.791   9.516   4.058  0.5521  1.0453 -0.7457
  742MOL0     C97867   0.887   9.622   4.074 -0.2169  0.7297  0.3158
  742MOL0     C97868   1.017   9.598   4.039  0.1479 -0.2918 -0.1070
  742MOL0     C97869   1.062   9.479   3.978  0.0549 -0.6507 -0.1681
  742MOL0     O97870   1.199   9.468   3.952 -0.1505 -0.6529  0.3450
  742MOL0     C97871   1.260   9.348   3.903 -0.2666 -0.6313 -0.0288
  742MOL0     C97872   1.415   9.337   3.927 -0.3361 -0.2728  0.1800
  742MOL0     C97873   1.444   9.362   4.070  0.7469 -0.2130 -0.0908
  742MOL0     C97874   1.593   9.366   4.109 -0.3132  0.6330  0.4396
  742MOL0     C97875   1.660   9.497   4.089 -0.1052 -0.3404  0.0651
  742MOL0     C97876   1.719   9.605   4.078 -0.0186  0.6733 -0.7031
  742MOL0     C97877   0.958   9.387   3.947  0.4745  0.0269 -0.1218
  742MOL0     C97878   0.822   9.403   3.982 -0.5769 -0.4448 -0.0808
  742MOL0     H97879   0.651   9.873   4.274  1.9834 -1.9137  0.6261
  742MOL0     H97880   0.487   9.986   4.425 -1.0013 -0.7018  0.2450
  742MOL0     H97881   0.263  10.061   4.533  0.5819  1.4447  1.2707
  742MOL0     H97882   0.391   9.973   4.636 -0.9580  0.9660  3.0329
  742MOL0     H97883   0.228  10.098   4.773  0.1813 -1.4146  2.4662
  742MOL0     H97884   0.253   9.927   4.804  1.6898  0.5313 -0.7899
  742MOL0     H97885   0.042   9.877   4.687  1.3515 -0.1325  0.2286
  742MOL0     H97886   0.013  10.040   4.641 -0.6645 -0.3235 -0.2670
  742MOL0     H97887   0.034   9.930   4.921  1.2657  0.1413 -0.3171
  742MOL0     H97888  -0.017  10.097   4.895 -1.1415 -0.6231  0.8783
  742MOL0     H97889  -0.169   9.877   4.756 -1.3614 -0.9812  0.6193
  742MOL0     H97890  -0.205  10.052   4.788  2.1274  0.5011 -1.8151
  742MOL0     H97891  -0.202   9.994   5.030  0.8552  1.2934 -1.9718
  742MOL0     H97892  -0.143   9.836   5.007 -0.2788  0.4444  0.2596
  742MOL0     H97893  -0.437   9.923   4.894  0.4935  1.3197  0.5839
  742MOL0     H97894  -0.354   9.767   4.893  1.7004 -1.1303  0.4443
  742MOL0     H97895  -0.398   9.901   5.159 -1.8729  0.6719  0.4435
  742MOL0     H97896  -0.356   9.741   5.124  1.1501  0.1859  0.6059
  742MOL0     H97897  -0.570   9.584   5.134  0.9912 -1.0904 -3.2326
  742MOL0     H97898  -0.805   9.504   5.117  0.6473  0.4207  1.0829
  742MOL0     H97899  -0.935   9.596   5.020  0.5463 -0.9522  0.1319
  742MOL0     H97900  -0.860   9.605   5.312 -0.8962 -0.5201  1.0366
  742MOL0     H97901  -1.012   9.548   5.251 -0.4282 -0.5628 -1.0024
  742MOL0     H97902  -0.983   9.832   5.321  0.6710  0.1287 -0.2125
  742MOL0     H97903  -1.000   9.810   5.151  0.3797  0.1123  0.7018
  742MOL0     H97904  -1.203   9.655   5.209  0.3273  0.8345 -1.3430
  742MOL0     H97905  -1.231   9.826   5.242  0.0403 -0.2757 -0.7042
  742MOL0     H97906  -1.417   9.574   5.303  0.8987 -1.1467  1.0501
  742MOL0     H97907  -1.637   9.579   5.378  1.0833 -1.0506 -1.1268
  742MOL0     H97908  -1.806   9.639   5.838  0.0783 -0.1032  1.0812
  742MOL0     H97909  -2.018   9.608   5.971 -1.2880 -0.2050 -1.1515
  742MOL0     H97910  -2.195   9.649   6.107  2.5282  2.0708 -1.3962
  742MOL0     H97911  -2.269   9.601   5.953 -2.9365 -2.2387  0.7369
  742MOL0     H97912  -2.422   9.711   6.180  0.0517 -0.6133  0.7648
  742MOL0     H97913  -2.453   9.577   6.070  0.9341  0.7781  0.1648
  742MOL0     H97914  -2.508   9.751   5.878 -0.9226  0.5229 -0.0668
  742MOL0     H97915  -2.463   9.873   5.995  1.0929 -0.0588 -0.8161
  742MOL0     H97916  -2.655   9.843   6.133  2.6453  1.0149 -0.2258
  742MOL0     H97917  -2.716   9.839   5.962 -2.0191 -1.7168  0.0649
  742MOL0     H97918  -2.672   9.588   6.139 -2.1990 -1.2577 -0.1241
  742MOL0     H97919  -2.725   9.587   5.970 -4.4105 -1.4467 -0.6618
  742MOL0     H97920  -2.929   9.717   6.036 -0.3516 -0.1481  0.2882
  742MOL0     H97921  -2.881   9.721   6.204 -2.0974 -1.5602  1.0281
  742MOL0     H97922  -2.928   9.459   6.030 -3.0335  1.0309 -0.9704
  742MOL0     H97923  -2.889   9.467   6.205 -2.6942  1.9857  3.4678
  742MOL0     H97924  -3.148   9.574   6.089  1.4346 -0.0651 -1.2665
  742MOL0     H97925  -3.096   9.597   6.254 -2.4501  0.1977  0.1447
  742MOL0     H97926  -2.170   9.984   5.816 -0.3225 -0.6803 -3.3318
  742MOL0     H97927  -1.928  10.022   5.715 -0.0374  0.8825  0.7036
  742MOL0     H97928  -1.511   9.884   5.658 -1.5516  0.4545 -0.4416
  742MOL0     H97929  -1.275   9.832   5.604 -0.3340 -1.1136  1.8162
  742MOL0     H97930   0.264   9.618   4.461 -2.5413  2.2168 -0.4409
  742MOL0     H97931   0.457   9.505   4.327 -0.6452 -0.4046 -0.6106
  742MOL0     H97932   0.863   9.713   4.128 -1.4145 -0.7438  2.4091
  742MOL0     H97933   1.091   9.676   4.051 -1.1961  1.1978 -1.1025
  742MOL0     H97934   1.236   9.332   3.797  0.1028 -0.6638 -0.1084
  742MOL0     H97935   1.204   9.273   3.960 -1.0370  0.3401  0.5305
  742MOL0     H97936   1.450   9.237   3.897  1.1760  0.6190 -1.2218
  742MOL0     H97937   1.476   9.401   3.862 -0.5422  0.2064  0.4528
  742MOL0     H97938   1.392   9.285   4.126 -0.0663  0.8627  0.6620
  742MOL0     H97939   1.398   9.454   4.108 -2.1759 -1.7782  0.4240
  742MOL0     H97940   1.589   9.345   4.216 -0.7459 -0.2802  0.2544
  742MOL0     H97941   1.663   9.294   4.065 -0.2245 -0.6578  2.5320
  742MOL0     H97942   1.777   9.694   4.065  1.2686 -0.1632 -0.8126
  742MOL0     H97943   0.975   9.290   3.900 -2.2427 -1.8353  2.3649
  742MOL0     H97944   0.750   9.323   3.969 -2.0822  0.5442  1.6917
  743MOL0     O97945   9.968   7.080   0.472  0.5324  0.3426  0.0416
  743MOL0     C97946   9.988   7.196   0.471  0.1297 -0.2954 -0.0126
  743MOL0     O97947   9.903   7.299   0.521  0.4532  0.6932 -0.1787
  743MOL0     C97948   9.789   7.249   0.564 -0.2397 -0.2934 -1.0057
  743MOL0     C97949   9.761   7.247   0.703 -0.0924  0.0016 -0.1491
  743MOL0     C97950   9.631   7.216   0.752  0.5444  0.3739  0.4966
  743MOL0     C97951   9.530   7.177   0.659  0.4198  1.3750  0.3700
  743MOL0     O97952   9.410   7.142   0.716  0.1148 -0.8557 -0.1802
  743MOL0     C97953   9.350   7.024   0.656  0.3768 -1.1283  0.6837
  743MOL0     C97954   9.257   6.953   0.759  0.3880  0.4254  0.0411
  743MOL0     C97955   9.122   6.916   0.700 -0.3466 -0.3242  0.2610
  743MOL0     C97956   9.006   6.917   0.801  0.2889  0.5689  0.4933
  743MOL0     C97957   8.878   6.894   0.726  0.3079  0.7395  0.4400
  743MOL0     C97958   8.745   6.901   0.807  0.2011 -0.2367  0.0845
  743MOL0     C97959   8.620   6.889   0.715  0.2534  0.5805 -0.1746
  743MOL0     C97960   8.506   6.971   0.766  0.0455  0.4520 -0.4726
  743MOL0     N97961   8.388   6.957   0.678  0.4510  0.6544 -0.5415
  743MOL0     C97962   8.367   7.042   0.567  0.2251 -0.8139  0.1852
  743MOL0     C97963   8.240   7.016   0.526  0.4687 -0.0830 -0.5589
  743MOL0     C97964   8.159   7.079   0.413 -0.6578  0.3152 -0.2784
  743MOL0     C97965   8.103   7.222   0.450 -0.3899  0.7328  0.6927
  743MOL0     C97966   8.046   7.303   0.336 -0.2828  0.1321  0.4436
  743MOL0     C97967   7.912   7.270   0.282  0.1874  1.4576  0.3029
  743MOL0     O97968   7.816   7.275   0.383  0.0554  0.4673 -0.1317
  743MOL0     C97969   7.681   7.269   0.355  0.6775 -1.1869 -0.0663
  743MOL0     C97970   7.601   7.352   0.418 -0.8016 -0.5148 -0.3128
  743MOL0     C97971   7.465   7.355   0.410  0.6951 -0.3898 -0.2301
  743MOL0     C97972   7.407   7.266   0.320 -0.3611 -0.3747  0.4623
  743MOL0     C97973   7.258   7.261   0.311  0.8619  0.2746  0.0337
  743MOL0     O97974   7.210   7.166   0.230 -0.1211 -1.1118 -0.1604
  743MOL0     C97975   7.077   7.175   0.186  0.8549  0.8391  0.1534
  743MOL0     C97976   7.016   7.287   0.130 -0.2717 -0.6030 -0.0057
  743MOL0     C97977   6.886   7.293   0.085  0.2239  0.4269  0.5867
  743MOL0     C97978   6.813   7.182   0.074 -0.4958  0.0857 -0.1031
  743MOL0     O97979   6.693   7.163   0.007  0.9809 -0.0574 -0.5113
  743MOL0     C97980   6.631   7.283  -0.049  0.0417  0.1679 -0.7833
  743MOL0     C97981   6.488   7.261  -0.114 -0.3137 -0.8065 -0.2768
  743MOL0     C97982   6.444   7.393  -0.172  0.0986 -0.3638 -0.6714
  743MOL0     C97983   6.308   7.380  -0.250 -0.7106 -0.6012 -0.0843
  743MOL0     C97984   6.189   7.429  -0.168  0.2469 -0.1902 -1.0398
  743MOL0     C97985   6.074   7.467  -0.263 -1.7482 -0.1170  0.2297
  743MOL0     C97986   5.934   7.483  -0.196  0.2905 -0.8634 -0.7748
  743MOL0     C97987   5.818   7.513  -0.299  0.5163  0.6126 -0.8218
  743MOL0    Cl97988   5.669   7.573  -0.216 -0.5310 -0.2471 -0.2115
  743MOL0     C97989   6.860   7.068   0.134 -0.2847 -0.4307 -0.6698
  743MOL0     C97990   6.996   7.067   0.190  0.5123 -0.3479 -0.2057
  743MOL0     O97991   7.192   7.348   0.368  0.7530 -0.0260 -0.4555
  743MOL0     C97992   7.484   7.175   0.240 -0.4621 -0.4519  0.2117
  743MOL0     C97993   7.622   7.183   0.265  1.1459 -0.2462 -0.2623
  743MOL0     N97994   8.189   6.916   0.607 -0.1936  0.1398  0.1077
  743MOL0     N97995   8.267   6.885   0.702 -0.7642 -0.4351 -0.5133
  743MOL0     C97996   9.562   7.183   0.523  1.1759 -0.4870 -0.7836
  743MOL0     C97997   9.686   7.221   0.482  0.6603  0.1459  0.4319
  743MOL0     C97998  10.119   7.256   0.433 -0.3792  0.5400  0.0067
  743MOL0     C97999  10.148   7.393   0.461  0.0800  0.9915  0.8942
  743MOL0     C98000  10.271   7.446   0.418 -0.2995  0.2216 -0.4637
  743MOL0     C98001  10.360   7.358   0.347 -0.1314  0.2369 -0.1959
  743MOL0     O98002  10.485   7.413   0.312 -0.2562 -0.1798 -0.2246
  743MOL0     C98003  10.545   7.362   0.196  0.6350  0.5272  1.1820
  743MOL0     C98004  10.675   7.290   0.230  0.6980  0.8749  0.0925
  743MOL0     C98005  10.732   7.215   0.110  0.1674 -0.1963  0.9279
  743MOL0     C98006  10.847   7.116   0.137  0.6174  0.0830  0.3785
  743MOL0     C98007  10.907   7.075   0.007  0.4908  0.0131  0.2726
  743MOL0     C98008  10.957   7.036  -0.099  0.0984 -0.1317 -1.0596
  743MOL0     C98009  10.327   7.223   0.320  0.0809  0.9554 -0.0367
  743MOL0     C98010  10.207   7.172   0.362 -0.1770 -0.4709 -0.2048
  743MOL0     H98011   9.832   7.285   0.776 -0.6908 -0.6479  0.7844
  743MOL0     H98012   9.610   7.205   0.858 -3.2622 -0.1632 -0.1699
  743MOL0     H98013   9.419   6.943   0.628 -0.5784 -0.9532 -2.5062
  743MOL0     H98014   9.296   7.056   0.567  1.6540  0.8301  0.5671
  743MOL0     H98015   9.239   7.025   0.839  1.1363  0.6024  0.0552
  743MOL0     H98016   9.302   6.865   0.805 -1.6227  0.0810  1.5065
  743MOL0     H98017   9.133   6.816   0.658 -1.8049 -0.3884 -0.0196
  743MOL0     H98018   9.095   6.985   0.620 -1.0746  3.0541  3.1578
  743MOL0     H98019   9.015   6.835   0.874 -0.2848  0.9073  0.9485
  743MOL0     H98020   8.997   7.009   0.859 -1.4362  1.7531 -1.5342
  743MOL0     H98021   8.874   6.795   0.679  0.5977  0.7826  0.3196
  743MOL0     H98022   8.877   6.984   0.663  0.3658  0.0061 -0.6412
  743MOL0     H98023   8.741   6.988   0.873  1.9667 -0.4387  0.5128
  743MOL0     H98024   8.744   6.824   0.885 -4.3772  1.1008  1.6771
  743MOL0     H98025   8.643   6.921   0.613 -0.5057 -0.2167 -0.6158
  743MOL0     H98026   8.582   6.786   0.715 -0.6115  0.8876 -0.1808
  743MOL0     H98027   8.549   7.072   0.759  4.8783 -1.1808  1.1581
  743MOL0     H98028   8.479   6.943   0.868  0.1180 -2.0123 -1.0560
  743MOL0     H98029   8.432   7.120   0.529 -0.4496  0.0379  0.7268
  743MOL0     H98030   8.078   7.009   0.392  0.9148 -1.2758 -1.3072
  743MOL0     H98031   8.219   7.090   0.322  0.7235 -2.2828  0.2419
  743MOL0     H98032   8.186   7.278   0.493  0.4189  1.8669 -2.0728
  743MOL0     H98033   8.026   7.220   0.527 -1.4446 -1.3681 -0.3244
  743MOL0     H98034   8.027   7.405   0.373 -0.5614  0.3607 -0.3264
  743MOL0     H98035   8.118   7.319   0.255 -1.8673  2.2460 -0.6374
  743MOL0     H98036   7.917   7.170   0.238 -0.2884  1.6158 -0.1267
  743MOL0     H98037   7.882   7.344   0.208  1.6088  2.9143  1.1293
  743MOL0     H98038   7.640   7.438   0.471 -0.6412  0.7417 -2.3555
  743MOL0     H98039   7.403   7.422   0.468 -0.5159 -1.0235 -0.7332
  743MOL0     H98040   7.069   7.381   0.137  0.5241 -1.0370 -0.1123
  743MOL0     H98041   6.851   7.392   0.059 -1.6210  0.4191  2.7760
  743MOL0     H98042   6.699   7.326  -0.123 -0.8185  2.5342 -0.2728
  743MOL0     H98043   6.604   7.357   0.027 -0.2177  0.3572 -1.0586
  743MOL0     H98044   6.423   7.222  -0.036 -2.7047  1.2456 -1.1071
  743MOL0     H98045   6.491   7.187  -0.195 -1.1526 -2.1094  0.8454
  743MOL0     H98046   6.513   7.430  -0.249 -0.6968  1.7476 -0.4614
  743MOL0     H98047   6.444   7.464  -0.089  1.3091 -0.7592 -0.3122
  743MOL0     H98048   6.318   7.442  -0.340  0.4448 -1.1628 -0.3585
  743MOL0     H98049   6.291   7.278  -0.287 -4.0148 -0.8634  1.7626
  743MOL0     H98050   6.225   7.515  -0.111  0.9160  0.1239 -1.9026
  743MOL0     H98051   6.150   7.356  -0.097 -3.4882  0.1272 -2.5326
  743MOL0     H98052   6.073   7.409  -0.356 -2.3924  0.0127  0.1524
  743MOL0     H98053   6.113   7.565  -0.293  0.6465 -0.3703  2.1758
  743MOL0     H98054   5.911   7.386  -0.150 -1.3863 -0.3509 -0.4664
  743MOL0     H98055   5.934   7.553  -0.113 -2.0918 -0.5319 -0.9692
  743MOL0     H98056   5.790   7.428  -0.361  2.1853  1.8656 -3.4624
  743MOL0     H98057   5.853   7.595  -0.362 -1.8421  0.5368 -2.3694
  743MOL0     H98058   6.795   6.982   0.144 -0.2894 -0.1193  3.0050
  743MOL0     H98059   7.031   6.978   0.241  2.6115  1.2971  1.4439
  743MOL0     H98060   7.442   7.110   0.165  0.3102 -0.3786 -0.2932
  743MOL0     H98061   7.684   7.108   0.216 -1.0237 -1.6005 -1.0681
  743MOL0     H98062   9.481   7.159   0.456 -3.2537  2.3194  2.9820
  743MOL0     H98063   9.710   7.226   0.376  0.1852 -0.3066  0.2960
  743MOL0     H98064  10.078   7.457   0.513 -0.0771 -0.0964  2.0809
  743MOL0     H98065  10.294   7.552   0.424 -0.9773  0.3714 -0.4599
  743MOL0     H98066  10.575   7.444   0.131 -0.1168 -0.7575 -0.8838
  743MOL0     H98067  10.471   7.304   0.140 -0.8101 -0.4914  3.9108
  743MOL0     H98068  10.752   7.363   0.257  2.5729 -1.2192  0.7417
  743MOL0     H98069  10.656   7.220   0.312 -0.4096 -0.0461 -0.9091
  743MOL0     H98070  10.771   7.293   0.043 -4.2220 -0.3848 -2.3638
  743MOL0     H98071  10.653   7.163   0.055  0.5826  0.4604 -0.3249
  743MOL0     H98072  10.922   7.164   0.202  2.0133 -0.8843 -0.4554
  743MOL0     H98073  10.819   7.033   0.202  2.9490 -1.0514  0.0406
  743MOL0     H98074  10.988   6.999  -0.195  1.7077 -0.0234 -0.6043
  743MOL0     H98075  10.385   7.153   0.262 -1.0244 -0.0874  0.0713
  743MOL0     H98076  10.185   7.067   0.345  2.5348 -1.2081  0.2879
  744MOL0     O98077   0.699  10.016   1.409  0.0037  0.0665 -0.0775
  744MOL0     C98078   0.688  10.071   1.300  0.1330 -0.5169 -0.1146
  744MOL0     O98079   0.577  10.124   1.246  1.0630  0.3085  0.2228
  744MOL0     C98080   0.452  10.119   1.305 -0.2815 -0.6420  0.0025
  744MOL0     C98081   0.363  10.226   1.283  0.7418 -0.4049  0.2515
  744MOL0     C98082   0.235  10.222   1.342 -0.0939 -0.5030  0.9076
  744MOL0     C98083   0.192  10.116   1.414  0.1507 -0.0019  0.2531
  744MOL0     O98084   0.066  10.126   1.463 -0.3676 -0.4264  0.4919
  744MOL0     C98085   0.049  10.193   1.585  0.3225 -0.0660 -0.2984
  744MOL0     C98086  -0.094  10.155   1.631 -0.8283  0.0428  0.3057
  744MOL0     C98087  -0.207  10.218   1.552  0.1406 -0.4093 -0.0617
  744MOL0     C98088  -0.249  10.367   1.595  0.8915  0.1908  0.5915
  744MOL0     C98089  -0.342  10.419   1.479 -0.2549  0.0708  0.5869
  744MOL0     C98090  -0.486  10.361   1.476  0.2073  0.0052  0.6485
  744MOL0     C98091  -0.548  10.367   1.617  0.5525  0.5618  0.3939
  744MOL0     C98092  -0.702  10.365   1.627 -0.4087 -0.4426  0.7511
  744MOL0     N98093  -0.762  10.231   1.654 -0.2504 -0.8149  0.6677
  744MOL0     C98094  -0.800  10.144   1.551  0.0646  0.1032  0.8006
  744MOL0     C98095  -0.853  10.038   1.615 -0.5271 -1.0361 -0.0713
  744MOL0     C98096  -0.925   9.920   1.548 -0.0315 -0.3052  0.0420
  744MOL0     C98097  -1.075   9.929   1.564 -0.0753 -0.1976  0.1038
  744MOL0     C98098  -1.135  10.041   1.481  0.1051 -0.0960  0.4176
  744MOL0     C98099  -1.292  10.049   1.487 -0.0782  0.4588 -0.0790
  744MOL0     O98100  -1.356   9.917   1.455 -0.0316 -0.3068 -0.5152
  744MOL0     C98101  -1.491   9.923   1.446  0.3838 -0.5915 -0.5134
  744MOL0     C98102  -1.553   9.803   1.420  0.1858  0.0026 -0.4400
  744MOL0     C98103  -1.691   9.778   1.421 -0.5250 -0.1066  0.3091
  744MOL0     C98104  -1.781   9.887   1.432 -0.1132  0.2512 -0.5014
  744MOL0     C98105  -1.923   9.859   1.422 -0.3093 -0.4125  0.6899
  744MOL0     O98106  -2.012   9.944   1.484 -0.1531 -0.4501  0.4620
  744MOL0     C98107  -2.147   9.907   1.469  0.3089  0.3703 -1.0063
  744MOL0     C98108  -2.236   9.923   1.362  0.5014  0.0601  0.3339
  744MOL0     C98109  -2.365   9.861   1.359 -0.5535 -0.5679 -0.1503
  744MOL0     C98110  -2.412   9.800   1.474 -0.0873  0.8017  0.2280
  744MOL0     O98111  -2.540   9.749   1.487  0.2878  0.6808 -0.3775
  744MOL0     C98112  -2.644   9.764   1.386  0.1928 -0.2195 -1.1799
  744MOL0     C98113  -2.728   9.891   1.393 -0.6151 -1.0293 -0.3118
  744MOL0     C98114  -2.827   9.870   1.282  0.0591 -0.3721  0.4109
  744MOL0     C98115  -2.918   9.989   1.261  0.3644  0.2017 -0.3771
  744MOL0     C98116  -3.031   9.956   1.168  0.3023 -0.8811 -0.0675
  744MOL0     C98117  -3.100  10.087   1.121 -1.3320  1.0779  1.0558
  744MOL0     C98118  -3.231  10.050   1.030 -0.8562  0.0938 -0.5212
  744MOL0     C98119  -3.329  10.154   0.989  0.2690 -0.9892 -0.6250
  744MOL0    Cl98120  -3.279  10.314   0.966 -0.4552  0.3812 -0.4079
  744MOL0     C98121  -2.331   9.789   1.588 -1.6122  0.2522  0.7308
  744MOL0     C98122  -2.201   9.839   1.579  0.3637  0.7393  0.3972
  744MOL0     O98123  -1.952   9.757   1.359  0.0219 -0.0771 -0.2805
  744MOL0     C98124  -1.724  10.008   1.455  0.5570  0.1360 -0.5166
  744MOL0     C98125  -1.584  10.026   1.465 -0.2469  0.5537 -0.0457
  744MOL0     N98126  -0.836  10.058   1.751 -0.4049  0.0050 -1.2115
  744MOL0     N98127  -0.785  10.176   1.771 -0.1575  0.7127  0.4929
  744MOL0     C98128   0.274  10.005   1.427 -0.2061 -0.1593 -0.7224
  744MOL0     C98129   0.402  10.005   1.374 -0.3548 -0.2858  0.2007
  744MOL0     C98130   0.816  10.109   1.238  0.0095 -0.0724 -0.6422
  744MOL0     C98131   0.822  10.165   1.109  0.8825 -0.4625 -0.6395
  744MOL0     C98132   0.944  10.194   1.043 -0.9742  0.3693  0.1925
  744MOL0     C98133   1.058  10.173   1.112 -0.9786 -0.0862 -0.4456
  744MOL0     O98134   1.184  10.217   1.057  0.3336  0.2928 -0.3754
  744MOL0     C98135   1.197  10.258   0.924  0.1924  0.8364 -0.1315
  744MOL0     C98136   1.338  10.328   0.919 -0.0933 -0.0259 -0.3161
  744MOL0     C98137   1.355  10.392   0.785 -0.1232  0.4733 -0.0909
  744MOL0     C98138   1.493  10.449   0.761 -0.0489 -0.0440  0.6154
  744MOL0     C98139   1.524  10.566   0.844 -0.4112  0.0464  0.2037
  744MOL0     C98140   1.570  10.658   0.911  0.1189 -0.0412  0.5873
  744MOL0     C98141   1.058  10.121   1.250 -0.9246  0.6496  0.5361
  744MOL0     C98142   0.937  10.086   1.309  0.3992  0.3990  0.6013
  744MOL0     H98143   0.392  10.297   1.206 -1.0474  0.2399  0.1355
  744MOL0     H98144   0.167  10.307   1.343 -2.5353 -2.3645  1.4289
  744MOL0     H98145   0.048  10.302   1.570  3.2109  0.1679  0.6633
  744MOL0     H98146   0.129  10.158   1.650  0.5461  0.0822 -0.4933
  744MOL0     H98147  -0.112  10.189   1.734 -2.1982  1.5788 -0.3891
  744MOL0     H98148  -0.087  10.046   1.629  1.5215  0.1346 -1.5751
  744MOL0     H98149  -0.294  10.155   1.571 -1.9290  2.3886  0.3629
  744MOL0     H98150  -0.185  10.209   1.446  1.1234  1.5017 -0.0664
  744MOL0     H98151  -0.296  10.367   1.693 -0.8493  3.2295 -0.1104
  744MOL0     H98152  -0.165  10.436   1.590  0.8993  0.1614  0.3059
  744MOL0     H98153  -0.288  10.422   1.384  0.7637  2.1026  1.1658
  744MOL0     H98154  -0.356  10.525   1.504  1.0771  0.2436  0.6795
  744MOL0     H98155  -0.479  10.258   1.440  0.1973  0.3039 -0.2300
  744MOL0     H98156  -0.548  10.428   1.415 -0.3037  0.0014  1.1639
  744MOL0     H98157  -0.516  10.275   1.668 -0.2417  0.1255  0.1242
  744MOL0     H98158  -0.515  10.457   1.670  3.3343 -0.7957  1.2142
  744MOL0     H98159  -0.746  10.403   1.534  1.4031  0.6759  0.2850
  744MOL0     H98160  -0.736  10.425   1.712 -0.9824 -0.9062  0.8522
  744MOL0     H98161  -0.796  10.173   1.446  2.4274  0.0423  0.8296
  744MOL0     H98162  -0.893   9.833   1.606 -0.7207  1.7702  3.8873
  744MOL0     H98163  -0.891   9.922   1.444  0.0570  1.1161  0.0719
  744MOL0     H98164  -1.108   9.930   1.668 -3.4816 -5.2164 -0.5525
  744MOL0     H98165  -1.109   9.836   1.518 -0.1724  0.3638 -1.0182
  744MOL0     H98166  -1.098  10.139   1.512 -0.2310  0.0444  0.3717
  744MOL0     H98167  -1.112  10.029   1.375  1.5657  1.2343  0.5565
  744MOL0     H98168  -1.329  10.123   1.416 -0.0264 -0.8793 -1.5732
  744MOL0     H98169  -1.325  10.087   1.584  2.0795  0.2717  0.7667
  744MOL0     H98170  -1.484   9.720   1.406  0.8036  0.5548 -0.7509
  744MOL0     H98171  -1.723   9.676   1.404 -0.6043  0.2295 -1.7622
  744MOL0     H98172  -2.200   9.963   1.268  2.0237 -0.7876  0.5207
  744MOL0     H98173  -2.433   9.870   1.275  0.0360  3.6305 -0.3707
  744MOL0     H98174  -2.718   9.685   1.398 -1.1813  1.0666 -0.9598
  744MOL0     H98175  -2.591   9.744   1.292  1.3456 -3.6815  0.0461
  744MOL0     H98176  -2.666   9.975   1.361 -1.3603 -0.6793 -0.8525
  744MOL0     H98177  -2.773   9.903   1.492 -1.8660 -0.5784 -0.9131
  744MOL0     H98178  -2.885   9.783   1.312 -0.7139 -0.0503 -0.1343
  744MOL0     H98179  -2.778   9.852   1.186 -0.4923 -1.3744  0.3026
  744MOL0     H98180  -2.959  10.015   1.359  2.0951 -1.9184  0.9878
  744MOL0     H98181  -2.855  10.073   1.228  0.2799 -0.6116 -2.8502
  744MOL0     H98182  -3.113   9.908   1.221 -2.9917  0.9409 -3.0830
  744MOL0     H98183  -2.998   9.889   1.088  1.2023 -1.0563  0.4354
  744MOL0     H98184  -3.017  10.133   1.065 -0.4158 -1.4338  0.1774
  744MOL0     H98185  -3.131  10.152   1.203  0.0921  0.6112  1.9966
  744MOL0     H98186  -3.210   9.991   0.941 -2.0457 -1.1562 -0.0024
  744MOL0     H98187  -3.290   9.978   1.086 -1.0354  1.3091  0.9456
  744MOL0     H98188  -3.407  10.149   1.065  1.6377 -0.6446  0.8744
  744MOL0     H98189  -3.368  10.117   0.894  0.5414 -1.3659 -0.5953
  744MOL0     H98190  -2.377   9.742   1.674 -1.1926 -0.6102  0.4916
  744MOL0     H98191  -2.139   9.825   1.667  2.0624  0.2753 -0.8258
  744MOL0     H98192  -1.799  10.083   1.478 -1.1824 -2.4928  3.3710
  744MOL0     H98193  -1.558  10.130   1.481  2.2797 -0.3178  2.1555
  744MOL0     H98194   0.252   9.919   1.488 -1.1257  0.0055 -0.7972
  744MOL0     H98195   0.459   9.913   1.383  1.3360  0.8511  1.9729
  744MOL0     H98196   0.729  10.176   1.054  1.4471  1.3576 -1.3061
  744MOL0     H98197   0.937  10.221   0.939  0.0331 -2.3580 -0.6755
  744MOL0     H98198   1.120  10.315   0.873  0.1189 -1.5354 -2.8822
  744MOL0     H98199   1.204  10.168   0.863 -0.0376 -0.0765  1.1388
  744MOL0     H98200   1.338  10.405   0.997  0.8086 -0.5010  0.1707
  744MOL0     H98201   1.416  10.256   0.946  0.5610  1.1507  1.0300
  744MOL0     H98202   1.290  10.481   0.778  0.6049  0.9133 -1.8134
  744MOL0     H98203   1.335  10.321   0.705 -0.4328  1.9195 -1.3574
  744MOL0     H98204   1.573  10.376   0.778 -0.1136 -0.6856 -1.5927
  744MOL0     H98205   1.500  10.474   0.655  2.4187 -1.6739  0.3185
  744MOL0     H98206   1.602  10.741   0.972 -2.4331  0.6431  1.0919
  744MOL0     H98207   1.153  10.124   1.303 -0.4649 -1.0192 -0.1192
  744MOL0     H98208   0.940  10.044   1.409  1.6633  1.4875  1.0386
  745MOL0     O98209   8.189   8.769   0.245  0.4213 -0.5395  0.5342
  745MOL0     C98210   8.245   8.858   0.192 -0.8425 -0.6857  0.6074
  745MOL0     O98211   8.193   8.967   0.129 -0.2160  0.0777  0.2776
  745MOL0     C98212   8.060   8.986   0.116  0.4414 -0.6369  1.1999
  745MOL0     C98213   8.026   9.121   0.088  0.2251  0.1032  0.7179
  745MOL0     C98214   7.889   9.153   0.071  0.0575 -0.8458 -0.3940
  745MOL0     C98215   7.787   9.054   0.061 -0.4050 -0.2850  1.0705
  745MOL0     O98216   7.662   9.100   0.029 -0.1917  0.7764  0.7018
  745MOL0     C98217   7.560   9.005  -0.016  0.3702 -0.5865  0.5579
  745MOL0     C98218   7.424   9.069  -0.065  0.4331  0.3171  1.2112
  745MOL0     C98219   7.327   8.960  -0.127  0.6081  0.6278 -0.7794
  745MOL0     C98220   7.178   9.014  -0.121 -0.1428 -0.0050  0.0112
  745MOL0     C98221   7.090   8.926  -0.202  0.4276 -0.3730  0.1545
  745MOL0     C98222   6.943   8.971  -0.192  0.0428  0.0121  0.3825
  745MOL0     C98223   6.864   8.896  -0.297 -0.7191  0.0422  0.1722
  745MOL0     C98224   6.710   8.927  -0.292  0.2254  0.0890 -0.1342
  745MOL0     N98225   6.633   8.840  -0.392 -0.5882 -0.1425 -0.2909
  745MOL0     C98226   6.538   8.898  -0.474 -0.1671 -0.1535 -0.9983
  745MOL0     C98227   6.465   8.791  -0.518 -0.0765 -0.1222  0.3869
  745MOL0     C98228   6.349   8.789  -0.618 -0.8112  1.2454 -0.1609
  745MOL0     C98229   6.253   8.914  -0.602  0.5502  0.8258 -0.5056
  745MOL0     C98230   6.145   8.917  -0.715 -0.7415  0.3042 -0.0510
  745MOL0     C98231   6.033   9.010  -0.690  0.0617  0.9913  0.0889
  745MOL0     O98232   5.924   8.930  -0.663  0.2406  0.4436 -0.2809
  745MOL0     C98233   5.800   8.979  -0.684 -0.2089 -0.2288 -0.1015
  745MOL0     C98234   5.772   9.108  -0.722  0.0836  0.8151 -0.3361
  745MOL0     C98235   5.643   9.152  -0.748 -0.3560  1.2314 -0.0201
  745MOL0     C98236   5.537   9.060  -0.742  0.6868 -0.9328  0.5967
  745MOL0     C98237   5.394   9.099  -0.781 -0.7269 -0.3186  0.4515
  745MOL0     O98238   5.294   9.009  -0.773  0.2135 -0.1538  0.4251
  745MOL0     C98239   5.170   9.057  -0.800  1.4033 -0.0902  0.2564
  745MOL0     C98240   5.119   9.156  -0.718 -0.1691 -0.6271  1.6948
  745MOL0     C98241   4.983   9.200  -0.727 -0.7294  0.6627 -0.2328
  745MOL0     C98242   4.903   9.145  -0.827  0.4754 -0.4768 -0.7968
  745MOL0     O98243   4.774   9.199  -0.838 -0.6774 -0.0215 -0.4267
  745MOL0     C98244   4.669   9.130  -0.910 -0.6523 -0.5706 -0.1970
  745MOL0     C98245   4.558   9.232  -0.947  0.8880  0.6645  0.2927
  745MOL0     C98246   4.430   9.167  -1.011 -0.1906 -0.5067 -0.3192
  745MOL0     C98247   4.342   9.284  -1.081  0.5333  0.3045  0.5979
  745MOL0     C98248   4.242   9.364  -0.978 -0.2436 -0.3223 -0.1880
  745MOL0     C98249   4.125   9.295  -0.915  0.2285 -0.2465 -0.4437
  745MOL0     C98250   4.053   9.386  -0.811 -0.2695  0.4932 -0.2221
  745MOL0     C98251   3.940   9.300  -0.754  0.5993 -0.1107  0.3938
  745MOL0    Cl98252   3.811   9.292  -0.884  0.2432 -0.3999 -0.0646
  745MOL0     C98253   4.953   9.041  -0.910  0.1109  0.0617  0.2502
  745MOL0     C98254   5.080   8.995  -0.897 -0.5109 -1.0372  0.6736
  745MOL0     O98255   5.389   9.219  -0.817 -0.5215 -0.2226  0.4113
  745MOL0     C98256   5.562   8.932  -0.697 -0.2637 -0.0366 -0.6746
  745MOL0     C98257   5.695   8.892  -0.666  0.1726  0.2305  0.3380
  745MOL0     N98258   6.515   8.673  -0.453  1.3450  0.1341 -0.0529
  745MOL0     N98259   6.616   8.705  -0.380  0.2829  0.4312 -0.1806
  745MOL0     C98260   7.827   8.918   0.075 -0.5146  0.1571 -0.4255
  745MOL0     C98261   7.956   8.889   0.116  0.2772  0.7863  0.1226
  745MOL0     C98262   8.399   8.850   0.189 -0.1030 -0.6525  0.4854
  745MOL0     C98263   8.473   8.915   0.084  0.2145  0.2655 -0.2920
  745MOL0     C98264   8.611   8.915   0.087  0.2313  0.3636  0.8084
  745MOL0     C98265   8.682   8.862   0.197 -0.0746 -0.7888 -0.2153
  745MOL0     O98266   8.812   8.850   0.213  0.2289  0.0420 -0.2013
  745MOL0     C98267   8.882   8.823   0.088 -0.9134  0.2908 -0.2297
  745MOL0     C98268   9.020   8.751   0.106 -0.4792 -1.0235  0.2562
  745MOL0     C98269   8.997   8.615   0.181  0.0733 -0.7656  0.1368
  745MOL0     C98270   9.130   8.540   0.212 -0.1757  0.3166 -0.3927
  745MOL0     C98271   9.194   8.487   0.086  0.1125  0.4005 -0.1592
  745MOL0     C98272   9.248   8.445  -0.011  0.3356 -0.2209  0.1351
  745MOL0     C98273   8.614   8.802   0.305  0.5132 -0.4508  0.1921
  745MOL0     C98274   8.469   8.796   0.292 -0.7917 -0.7134  0.2652
  745MOL0     H98275   8.094   9.204   0.097  1.9181 -1.0533 -0.7646
  745MOL0     H98276   7.857   9.257   0.065 -0.0241 -0.9537 -2.4492
  745MOL0     H98277   7.522   8.939   0.062  0.2096  1.0958  1.9863
  745MOL0     H98278   7.607   8.945  -0.094  0.7520 -0.8732  1.0069
  745MOL0     H98279   7.444   9.141  -0.145  0.9746  0.0350  1.0835
  745MOL0     H98280   7.372   9.128   0.010  1.4716  0.8207  1.5571
  745MOL0     H98281   7.331   8.868  -0.066  0.3479  1.2702  0.2323
  745MOL0     H98282   7.358   8.922  -0.225  0.9468  0.2494 -0.5293
  745MOL0     H98283   7.142   9.029  -0.019  1.1944 -0.9853  0.6606
  745MOL0     H98284   7.174   9.113  -0.168 -1.7096  2.0380  3.9584
  745MOL0     H98285   7.075   8.823  -0.169 -3.8720 -0.2456 -0.8373
  745MOL0     H98286   7.117   8.933  -0.308 -0.7020  1.2754 -0.0477
  745MOL0     H98287   6.923   9.077  -0.211 -1.1067 -0.4039 -0.9603
  745MOL0     H98288   6.894   8.944  -0.098 -4.3910  4.0131 -0.3804
  745MOL0     H98289   6.905   8.914  -0.396 -2.4709 -3.0681 -1.2880
  745MOL0     H98290   6.881   8.793  -0.262  0.8934 -0.6625 -2.3708
  745MOL0     H98291   6.703   9.034  -0.311  1.8315  0.0169 -1.3722
  745MOL0     H98292   6.678   8.894  -0.193  3.2615 -2.1725  0.2409
  745MOL0     H98293   6.511   9.003  -0.481 -0.5010  0.1287  2.7078
  745MOL0     H98294   6.297   8.693  -0.606  0.5569  0.5679  0.5092
  745MOL0     H98295   6.386   8.786  -0.721 -2.2632  0.5245 -0.6949
  745MOL0     H98296   6.314   9.005  -0.609  0.3618  1.2386  2.1918
  745MOL0     H98297   6.200   8.902  -0.507 -1.7646 -0.4887 -1.8748
  745MOL0     H98298   6.188   8.941  -0.812  1.3493  0.2287  0.7861
  745MOL0     H98299   6.111   8.815  -0.733  0.6069 -0.3848  1.1157
  745MOL0     H98300   6.016   9.064  -0.783 -1.7475 -0.2710 -0.3697
  745MOL0     H98301   6.059   9.065  -0.599 -0.6806 -0.2572  1.0865
  745MOL0     H98302   5.850   9.183  -0.714  1.1031 -0.2845  0.1660
  745MOL0     H98303   5.626   9.255  -0.780  2.5807  1.9673  0.4675
  745MOL0     H98304   5.174   9.216  -0.645 -1.7093  1.9832  0.8420
  745MOL0     H98305   4.950   9.276  -0.658 -0.0341 -2.0916  3.4559
  745MOL0     H98306   4.631   9.053  -0.843  1.2717  0.7635  2.6148
  745MOL0     H98307   4.702   9.086  -1.005 -1.4400 -1.1322 -0.2227
  745MOL0     H98308   4.594   9.301  -1.024  0.5425 -1.5659 -2.0406
  745MOL0     H98309   4.523   9.286  -0.859 -1.7993 -1.4714  0.6941
  745MOL0     H98310   4.368   9.113  -0.938 -0.7386  0.2271 -0.2271
  745MOL0     H98311   4.458   9.094  -1.088 -0.9073 -2.2018  0.9532
  745MOL0     H98312   4.403   9.353  -1.139 -2.7696  1.5451 -1.6756
  745MOL0     H98313   4.280   9.233  -1.155  0.9860  2.7707 -1.6079
  745MOL0     H98314   4.192   9.443  -1.035 -0.2333  0.8078  1.3279
  745MOL0     H98315   4.304   9.409  -0.900 -2.3350  2.7155 -0.1433
  745MOL0     H98316   4.159   9.203  -0.865  0.4219  0.4901  0.8337
  745MOL0     H98317   4.060   9.266  -0.998  1.9488 -1.0691 -1.5735
  745MOL0     H98318   4.124   9.409  -0.731 -1.3942  0.1786  0.8941
  745MOL0     H98319   4.015   9.476  -0.859 -0.4234  0.9887  0.8011
  745MOL0     H98320   3.903   9.341  -0.659 -2.4582  1.3555 -1.2693
  745MOL0     H98321   3.978   9.200  -0.732 -2.0107 -1.1982  0.3417
  745MOL0     H98322   4.885   8.989  -0.976 -0.1458 -1.8743  1.9395
  745MOL0     H98323   5.122   8.915  -0.958  2.1875  0.3199  0.6126
  745MOL0     H98324   5.483   8.858  -0.689  0.2331 -0.3452  3.3728
  745MOL0     H98325   5.714   8.791  -0.631  0.8588  1.0758  2.5458
  745MOL0     H98326   7.764   8.834   0.048 -0.1416 -0.3331  0.1972
  745MOL0     H98327   7.976   8.785   0.138 -1.9848  0.3820  0.5420
  745MOL0     H98328   8.420   8.947  -0.006  1.1637 -1.1993 -1.4346
  745MOL0     H98329   8.674   8.965   0.014  1.8184 -0.4861  1.5572
  745MOL0     H98330   8.910   8.921   0.047  0.0640 -0.1780 -0.7171
  745MOL0     H98331   8.833   8.756   0.017  1.8377  0.4746 -2.4370
  745MOL0     H98332   9.066   8.732   0.009  1.1680  0.0967  0.7803
  745MOL0     H98333   9.086   8.819   0.161  0.7658 -0.9590 -1.2561
  745MOL0     H98334   8.933   8.553   0.117  0.3014  0.2395 -1.1196
  745MOL0     H98335   8.946   8.631   0.276 -1.8270 -3.1993 -0.3512
  745MOL0     H98336   9.193   8.616   0.258 -3.0036  1.0560  2.6222
  745MOL0     H98337   9.114   8.453   0.277 -1.0441  1.9289  1.6628
  745MOL0     H98338   9.267   8.398  -0.106  0.4363  1.6792 -0.8249
  745MOL0     H98339   8.671   8.754   0.383  1.2509 -1.1796 -0.7707
  745MOL0     H98340   8.420   8.742   0.372  2.8952 -2.2345  1.6978
  746MOL0     O98341   8.649   3.965   8.506 -0.2234 -0.1101 -0.2006
  746MOL0     C98342   8.717   4.055   8.553  0.1187 -0.4299 -0.8010
  746MOL0     O98343   8.725   4.085   8.683 -0.0918 -0.2483 -0.3453
  746MOL0     C98344   8.626   4.041   8.762  0.2856 -0.2471 -1.2050
  746MOL0     C98345   8.662   3.947   8.855 -0.4563  0.9241 -0.3454
  746MOL0     C98346   8.567   3.900   8.944  0.7075  0.2860 -0.0961
  746MOL0     C98347   8.428   3.939   8.933 -0.9880  0.7663  0.0528
  746MOL0     O98348   8.344   3.896   9.031 -0.1416  0.1406 -0.4776
  746MOL0     C98349   8.353   3.764   9.081 -0.5240  0.0685 -0.1739
  746MOL0     C98350   8.340   3.757   9.232  0.0276  0.3649 -0.9273
  746MOL0     C98351   8.255   3.873   9.293  0.0218  0.0913 -0.0858
  746MOL0     C98352   8.249   3.856   9.445  0.2843 -0.0190 -0.0181
  746MOL0     C98353   8.179   3.970   9.524  0.3924  0.5985 -0.5196
  746MOL0     C98354   8.026   3.964   9.481 -0.1660  0.4180 -0.7249
  746MOL0     C98355   7.943   4.032   9.586  0.8667 -0.5877 -0.3115
  746MOL0     C98356   7.812   4.081   9.526  0.3320  0.2148 -0.6376
  746MOL0     N98357   7.720   4.141   9.624 -0.3402 -0.0022 -0.1339
  746MOL0     C98358   7.636   4.079   9.717  0.0509 -0.2024  0.6925
  746MOL0     C98359   7.569   4.176   9.786 -0.1429 -0.0910 -0.3929
  746MOL0     C98360   7.466   4.149   9.893 -0.7955 -0.3311  0.0444
  746MOL0     C98361   7.335   4.105   9.831 -0.3131 -0.8432  0.5676
  746MOL0     C98362   7.216   4.101   9.923 -0.3084 -0.0020  0.2743
  746MOL0     C98363   7.084   4.082   9.846 -0.1259  0.3033  0.6922
  746MOL0     O98364   6.976   4.042   9.934 -0.0947 -0.1374 -0.1907
  746MOL0     C98365   6.845   4.087   9.899  0.7848 -0.0739  0.1061
  746MOL0     C98366   6.748   4.082   9.997  0.4251 -0.8374  0.0666
  746MOL0     C98367   6.610   4.113   9.970  0.0274 -0.2733  0.4998
  746MOL0     C98368   6.574   4.151   9.832  0.2430  0.0353 -0.1742
  746MOL0     C98369   6.428   4.177   9.786 -0.2891  0.1860  0.6192
  746MOL0     O98370   6.419   4.235   9.666 -0.1554 -0.1607 -0.3310
  746MOL0     C98371   6.296   4.234   9.604 -0.5954 -0.3866  0.1712
  746MOL0     C98372   6.241   4.360   9.584  0.5922  0.2083 -0.9850
  746MOL0     C98373   6.108   4.362   9.536  0.2239  1.1468  0.7167
  746MOL0     C98374   6.033   4.244   9.517  0.6037 -0.2388 -0.1613
  746MOL0     O98375   5.908   4.229   9.452 -0.0604 -0.0079  0.3508
  746MOL0     C98376   5.845   4.352   9.409  0.5576  0.1420 -0.0395
  746MOL0     C98377   5.709   4.314   9.339 -0.0327 -1.2693 -0.3577
  746MOL0     C98378   5.623   4.445   9.319 -0.3892 -0.3221 -0.5580
  746MOL0     C98379   5.516   4.419   9.223 -0.7640  0.1453  0.4576
  746MOL0     C98380   5.424   4.539   9.220 -0.7593 -0.4465  0.5055
  746MOL0     C98381   5.290   4.492   9.169  0.6691 -0.1245  0.2601
  746MOL0     C98382   5.274   4.412   9.038  0.2171  0.6546 -0.3236
  746MOL0     C98383   5.132   4.411   8.993  0.1416 -0.4814 -0.2183
  746MOL0    Cl98384   5.026   4.338   9.113 -0.1135  0.4047  0.0789
  746MOL0     C98385   6.098   4.118   9.537 -0.1944 -0.1169 -0.1555
  746MOL0     C98386   6.233   4.113   9.576  0.9982  0.3219  0.2011
  746MOL0     O98387   6.332   4.137   9.854 -0.0980  0.4834  0.3711
  746MOL0     C98388   6.676   4.149   9.741 -0.6522 -1.0308 -0.6262
  746MOL0     C98389   6.807   4.118   9.772 -1.1030  0.2608  0.3465
  746MOL0     N98390   7.615   4.300   9.737  0.4318 -0.1394  0.3481
  746MOL0     N98391   7.701   4.279   9.643  0.4695 -0.2325 -0.0804
  746MOL0     C98392   8.389   4.035   8.838  0.0180 -0.2319  0.3531
  746MOL0     C98393   8.489   4.076   8.750 -0.5197  0.9040 -0.1507
  746MOL0     C98394   8.804   4.142   8.477 -0.4471  0.3213  0.6219
  746MOL0     C98395   8.818   4.120   8.335 -0.3692  0.1938 -0.4772
  746MOL0     C98396   8.905   4.195   8.262 -0.2149  0.2243  0.4875
  746MOL0     C98397   8.995   4.276   8.331  0.0319  0.2028  0.3661
  746MOL0     O98398   9.105   4.336   8.269  0.1521  0.3139  0.8135
  746MOL0     C98399   9.127   4.317   8.119  0.5103  0.0654 -1.5365
  746MOL0     C98400   9.244   4.399   8.088 -0.0113 -0.0729  0.2414
  746MOL0     C98401   9.376   4.336   8.115 -0.4722 -0.5093 -0.6528
  746MOL0     C98402   9.492   4.414   8.065 -1.3428 -0.3677 -0.0654
  746MOL0     C98403   9.620   4.338   8.065  0.4740  0.7351  0.3245
  746MOL0     C98404   9.732   4.288   8.050  0.3442  1.0869 -0.5754
  746MOL0     C98405   8.997   4.293   8.470 -0.2098 -0.0875 -0.0072
  746MOL0     C98406   8.903   4.228   8.540 -0.1609  0.2667 -0.3604
  746MOL0     H98407   8.763   3.911   8.871 -2.0946 -2.7783  3.5740
  746MOL0     H98408   8.597   3.837   9.027 -1.1761 -0.9595 -0.3158
  746MOL0     H98409   8.432   3.698   9.044 -0.2896 -0.3466  1.0240
  746MOL0     H98410   8.264   3.717   9.040 -0.9276 -1.5450  2.3118
  746MOL0     H98411   8.441   3.761   9.275  0.2987  0.2641 -1.5402
  746MOL0     H98412   8.288   3.666   9.264  0.6944  0.9745  2.2796
  746MOL0     H98413   8.159   3.865   9.241 -0.1775 -0.2474  0.3261
  746MOL0     H98414   8.304   3.967   9.265  3.2453 -1.5442 -0.3508
  746MOL0     H98415   8.200   3.763   9.474  0.5316 -0.4769 -1.0412
  746MOL0     H98416   8.352   3.845   9.481  0.7226 -4.6800 -1.9970
  746MOL0     H98417   8.215   4.070   9.501  0.3992  1.1887  1.8512
  746MOL0     H98418   8.186   3.950   9.631 -5.3487  0.5793  0.1645
  746MOL0     H98419   7.978   3.867   9.464 -2.0209  1.3142 -0.8694
  746MOL0     H98420   8.007   4.014   9.386  1.0725  0.0073 -1.2081
  746MOL0     H98421   7.922   3.975   9.677  0.0619  0.6891  0.3350
  746MOL0     H98422   7.999   4.116   9.628  0.1683  0.1433 -0.8102
  746MOL0     H98423   7.756   3.998   9.481  0.1578  0.0340 -0.0992
  746MOL0     H98424   7.834   4.151   9.445  0.9530 -0.5455 -1.1463
  746MOL0     H98425   7.645   3.971   9.731  1.6148 -0.4116 -1.4438
  746MOL0     H98426   7.445   4.233   9.960  0.4406 -0.3228  0.4442
  746MOL0     H98427   7.515   4.074   9.956  0.0608  0.8304  0.7984
  746MOL0     H98428   7.351   4.010   9.779 -0.4820  0.6960 -2.5660
  746MOL0     H98429   7.313   4.168   9.745  0.3110  0.5660  1.4045
  746MOL0     H98430   7.219   4.015   9.991 -5.4077  1.0428  2.3101
  746MOL0     H98431   7.208   4.191   9.984 -0.9000  1.1065 -1.3751
  746MOL0     H98432   7.118   4.004   9.777  1.1932 -0.1171  1.7896
  746MOL0     H98433   7.052   4.174   9.797 -2.7856  1.1052  3.6249
  746MOL0     H98434   6.776   4.044  10.095  1.0891  1.3987  0.8085
  746MOL0     H98435   6.531   4.113  10.044  1.0950  0.5544  1.6842
  746MOL0     H98436   6.294   4.448   9.620 -0.7130  0.1803  1.2107
  746MOL0     H98437   6.057   4.453   9.506 -0.0668  2.0537  3.6533
  746MOL0     H98438   5.903   4.416   9.342 -0.1383 -0.8805 -1.6859
  746MOL0     H98439   5.826   4.415   9.496 -0.1509  0.2032 -0.2289
  746MOL0     H98440   5.659   4.239   9.400 -1.3045 -0.2080 -0.0539
  746MOL0     H98441   5.735   4.282   9.237  3.0659  1.3871 -0.5933
  746MOL0     H98442   5.680   4.531   9.283 -0.4159  1.2718  2.8260
  746MOL0     H98443   5.580   4.482   9.412 -0.4541  4.8930 -2.3560
  746MOL0     H98444   5.547   4.390   9.122 -0.8842  0.9680  0.1783
  746MOL0     H98445   5.455   4.339   9.267 -3.4377  2.8068  1.9619
  746MOL0     H98446   5.465   4.619   9.157  1.2828 -0.6859  1.4565
  746MOL0     H98447   5.397   4.584   9.316 -1.4812 -1.0953  0.6158
  746MOL0     H98448   5.230   4.582   9.157  0.2115 -0.3994  0.4871
  746MOL0     H98449   5.237   4.441   9.249  0.5511  0.4663  0.5647
  746MOL0     H98450   5.332   4.454   8.955 -0.0223 -1.1360 -1.4423
  746MOL0     H98451   5.308   4.312   9.064 -2.3430  0.3462  2.2261
  746MOL0     H98452   5.118   4.349   8.904 -1.1822 -1.5304  0.6755
  746MOL0     H98453   5.088   4.506   8.959 -0.3351 -0.7737 -0.4336
  746MOL0     H98454   6.045   4.027   9.510 -0.4972  0.5608 -1.8954
  746MOL0     H98455   6.294   4.024   9.576  1.1806  0.4207  1.8286
  746MOL0     H98456   6.657   4.175   9.638 -1.4325 -0.0923 -0.2699
  746MOL0     H98457   6.859   4.104   9.678 -0.4334  1.4544  0.5144
  746MOL0     H98458   8.286   4.063   8.819 -0.1572 -0.5698  0.7972
  746MOL0     H98459   8.467   4.134   8.661  0.4079  1.4403 -0.0454
  746MOL0     H98460   8.753   4.039   8.303 -0.8408 -0.6634  2.3765
  746MOL0     H98461   8.913   4.193   8.154 -1.4066  0.8956  0.3667
  746MOL0     H98462   9.045   4.350   8.054 -2.6797 -1.8261  1.2259
  746MOL0     H98463   9.151   4.215   8.088 -1.5639 -0.5499 -1.2688
  746MOL0     H98464   9.238   4.417   7.980  1.2720 -2.4034 -0.2764
  746MOL0     H98465   9.229   4.492   8.144 -1.1912 -2.4405  4.2495
  746MOL0     H98466   9.388   4.234   8.075  1.6269 -0.2365 -0.8319
  746MOL0     H98467   9.381   4.321   8.223 -0.6141  1.2993 -0.3651
  746MOL0     H98468   9.475   4.454   7.964 -0.2460 -2.3468 -1.1014
  746MOL0     H98469   9.506   4.502   8.128  1.5394 -0.3708 -0.5625
  746MOL0     H98470   9.824   4.237   8.031  0.9170  2.5886 -2.1449
  746MOL0     H98471   9.086   4.342   8.511  1.1103 -1.3906 -1.1944
  746MOL0     H98472   8.907   4.231   8.648  2.5384  2.4837 -0.4086
  747MOL0     O98473  11.166   2.374   8.009  0.1840 -0.4962  0.5986
  747MOL0     C98474  11.136   2.356   7.887 -0.2876  0.3628 -0.0053
  747MOL0     O98475  11.012   2.354   7.835 -0.4452 -0.1992  0.0142
  747MOL0     C98476  10.905   2.391   7.917  0.5246  0.5042 -0.6090
  747MOL0     C98477  10.796   2.308   7.915 -0.7413 -0.0909 -0.5341
  747MOL0     C98478  10.686   2.327   8.005 -0.0934 -0.2654 -0.9044
  747MOL0     C98479  10.674   2.437   8.092  0.0503  0.4047  0.8518
  747MOL0     O98480  10.555   2.456   8.156 -0.6316 -0.4918 -0.7079
  747MOL0     C98481  10.497   2.582   8.146 -0.1360 -0.5220  0.1174
  747MOL0     C98482  10.363   2.566   8.209  0.6444 -0.2579 -0.4697
  747MOL0     C98483  10.268   2.502   8.101  0.8690  1.0550 -0.1147
  747MOL0     C98484  10.124   2.483   8.156  0.4506  1.0840  0.0450
  747MOL0     C98485  10.053   2.397   8.060  0.5749 -0.3831  0.2736
  747MOL0     C98486   9.906   2.384   8.080  1.2492  0.2877 -0.3738
  747MOL0     C98487   9.830   2.516   8.071  0.0900  0.6091 -0.9911
  747MOL0     C98488   9.678   2.485   8.058  0.5618  0.5568 -0.7306
  747MOL0     N98489   9.618   2.403   8.158 -0.4366 -0.2357  0.9735
  747MOL0     C98490   9.611   2.426   8.294 -0.3069  0.5247  0.1799
  747MOL0     C98491   9.516   2.336   8.338 -0.2334 -0.2467 -0.2847
  747MOL0     C98492   9.461   2.317   8.475 -0.2820  0.0363 -0.3232
  747MOL0     C98493   9.487   2.174   8.527  0.9573  0.3506 -0.1714
  747MOL0     C98494   9.427   2.170   8.669  0.0157  0.0329  0.8456
  747MOL0     C98495   9.274   2.129   8.663  0.0047  0.6117 -0.2244
  747MOL0     O98496   9.223   2.126   8.798 -0.1373  0.1694 -0.7776
  747MOL0     C98497   9.098   2.076   8.814  0.2197  0.9021 -0.1489
  747MOL0     C98498   9.058   2.066   8.946  0.6364  0.3836  0.2357
  747MOL0     C98499   8.928   2.038   8.989 -0.1481 -0.3710  0.1994
  747MOL0     C98500   8.833   2.004   8.893  0.0887  0.4452 -0.2623
  747MOL0     C98501   8.695   1.963   8.928  0.4311  0.8036  0.6881
  747MOL0     O98502   8.599   1.973   8.837 -0.4203  0.3355 -0.4778
  747MOL0     C98503   8.471   1.946   8.860  0.1346  0.7080 -0.0503
  747MOL0     C98504   8.406   1.880   8.757  0.2410  0.5411 -0.0592
  747MOL0     C98505   8.264   1.852   8.780 -0.3891  0.3397  0.2402
  747MOL0     C98506   8.200   1.885   8.899 -0.3316 -0.0990 -1.1673
  747MOL0     O98507   8.064   1.858   8.918  0.0218  0.8856 -0.1642
  747MOL0     C98508   7.977   1.811   8.809  0.0717  0.2966 -0.5025
  747MOL0     C98509   7.820   1.817   8.843 -0.4543 -0.0252 -1.0835
  747MOL0     C98510   7.742   1.777   8.727  0.4326 -0.8709  1.4246
  747MOL0     C98511   7.593   1.783   8.752 -0.8043  0.0756  0.1290
  747MOL0     C98512   7.501   1.782   8.627 -0.4131  0.0305 -0.4559
  747MOL0     C98513   7.372   1.695   8.647  0.6103  0.2412 -1.0517
  747MOL0     C98514   7.275   1.686   8.519  0.1803  0.3362 -0.6915
  747MOL0     C98515   7.150   1.612   8.554 -0.9089  0.3931 -0.6082
  747MOL0    Cl98516   7.065   1.579   8.402  0.3773  0.1577  0.0829
  747MOL0     C98517   8.268   1.951   9.003  0.0918  0.7844  0.8141
  747MOL0     C98518   8.401   1.979   8.982 -0.0289 -0.3046 -0.0972
  747MOL0     O98519   8.680   1.926   9.045 -0.3279 -0.9838  0.3739
  747MOL0     C98520   8.862   2.015   8.758  0.0438 -0.1893 -0.7725
  747MOL0     C98521   8.993   2.054   8.716  0.3586  0.1667 -0.0569
  747MOL0     N98522   9.473   2.264   8.225 -0.1311 -0.0623  0.6551
  747MOL0     N98523   9.530   2.316   8.121 -0.3947  0.5557  0.0966
  747MOL0     C98524  10.784   2.527   8.084 -0.0888 -0.1876  0.2930
  747MOL0     C98525  10.892   2.509   7.995 -0.0809 -0.0030  0.3016
  747MOL0     C98526  11.246   2.331   7.786 -1.4213  0.3536 -0.0845
  747MOL0     C98527  11.225   2.312   7.643  0.8813  0.3634 -1.1420
  747MOL0     C98528  11.336   2.276   7.568 -0.2359 -0.1781 -0.2071
  747MOL0     C98529  11.465   2.262   7.632  0.0250  0.9322 -0.2718
  747MOL0     O98530  11.566   2.224   7.556  0.4734  0.2220 -0.1192
  747MOL0     C98531  11.652   2.119   7.600 -0.6193  0.8274  0.5377
  747MOL0     C98532  11.682   2.026   7.482 -0.4661  0.4941 -0.1546
  747MOL0     C98533  11.800   1.935   7.504  0.2549  0.0008  0.0800
  747MOL0     C98534  11.851   1.884   7.373 -0.2872 -0.4359 -0.3956
  747MOL0     C98535  11.958   1.784   7.393  0.1783 -0.3766 -0.2904
  747MOL0     C98536  12.034   1.698   7.408  0.0706 -0.1239  0.2624
  747MOL0     C98537  11.480   2.311   7.759  0.2447  0.6952 -0.4697
  747MOL0     C98538  11.377   2.340   7.832 -0.6389 -0.8531  0.2468
  747MOL0     H98539  10.801   2.227   7.842 -0.8522 -0.4478 -0.1482
  747MOL0     H98540  10.599   2.263   8.008 -1.8939  1.9989 -1.8196
  747MOL0     H98541  10.495   2.618   8.042 -0.6970 -0.3329  0.1886
  747MOL0     H98542  10.561   2.657   8.193  0.8066 -3.0535  3.1776
  747MOL0     H98543  10.323   2.662   8.242 -0.6315  0.1099 -2.8600
  747MOL0     H98544  10.368   2.502   8.298  1.0527  0.9071  0.3720
  747MOL0     H98545  10.308   2.405   8.068  0.6757  2.0016 -3.5210
  747MOL0     H98546  10.263   2.569   8.014  0.3084 -3.9834 -4.4789
  747MOL0     H98547  10.124   2.433   8.253  0.3705  1.5767  0.2976
  747MOL0     H98548  10.080   2.582   8.169  1.7603  1.5571  1.1105
  747MOL0     H98549  10.104   2.301   8.074  1.1531  0.1752  2.3158
  747MOL0     H98550  10.066   2.437   7.959  0.4150  0.4845  0.5915
  747MOL0     H98551   9.875   2.318   8.161 -2.2635  1.4148 -0.6452
  747MOL0     H98552   9.877   2.332   7.988  0.9990 -1.1923  0.5002
  747MOL0     H98553   9.844   2.569   8.166 -0.8355 -0.7108 -0.0764
  747MOL0     H98554   9.866   2.586   7.996 -0.9943 -1.7290 -3.8681
  747MOL0     H98555   9.661   2.453   7.954 -0.1651  3.2315 -1.5003
  747MOL0     H98556   9.633   2.584   8.051  1.2011  0.7728 -2.1130
  747MOL0     H98557   9.664   2.503   8.349 -0.9802 -0.3831  2.2348
  747MOL0     H98558   9.353   2.334   8.473 -0.5049 -0.9565  1.2514
  747MOL0     H98559   9.512   2.401   8.524 -1.3845 -0.0205  0.9443
  747MOL0     H98560   9.594   2.150   8.536  0.6852 -0.7154  0.4391
  747MOL0     H98561   9.434   2.100   8.468 -0.6562  0.7144  0.7557
  747MOL0     H98562   9.483   2.096   8.727 -1.3574 -1.8997 -0.1743
  747MOL0     H98563   9.441   2.266   8.719 -1.0259  0.7296 -0.1445
  747MOL0     H98564   9.253   2.037   8.607 -1.1964 -0.3853  1.7711
  747MOL0     H98565   9.227   2.204   8.599 -1.1985  0.5459  0.5566
  747MOL0     H98566   9.125   2.089   9.028  0.6986  1.4427 -0.0924
  747MOL0     H98567   8.895   2.031   9.092 -1.3779  0.4321 -0.1161
  747MOL0     H98568   8.455   1.857   8.663 -0.1113  0.2874 -0.1831
  747MOL0     H98569   8.208   1.787   8.714  0.2077  1.8867 -1.8901
  747MOL0     H98570   8.003   1.708   8.783  0.5211 -0.1130  1.3906
  747MOL0     H98571   7.995   1.877   8.724 -1.9216  2.4019  0.5826
  747MOL0     H98572   7.789   1.916   8.875  2.0515  0.0434  1.4833
  747MOL0     H98573   7.803   1.753   8.930  1.9206  2.2344  1.2256
  747MOL0     H98574   7.773   1.683   8.681  0.5856  0.5336 -1.5651
  747MOL0     H98575   7.772   1.848   8.649 -0.7325  0.3468  2.0471
  747MOL0     H98576   7.564   1.699   8.815 -0.7026  1.0220  1.5022
  747MOL0     H98577   7.574   1.875   8.809 -1.7940 -0.5665  0.8553
  747MOL0     H98578   7.565   1.746   8.546  1.2758 -1.0721  1.2854
  747MOL0     H98579   7.468   1.884   8.606 -0.6398  0.7619  2.9073
  747MOL0     H98580   7.326   1.741   8.735 -1.0684  1.5625 -2.5716
  747MOL0     H98581   7.401   1.593   8.675  0.2315  0.4122  0.0046
  747MOL0     H98582   7.250   1.789   8.489 -0.2393 -0.2335 -2.4234
  747MOL0     H98583   7.336   1.643   8.439  2.8485  0.5592  1.0960
  747MOL0     H98584   7.088   1.665   8.627 -0.3111  0.4294 -0.1187
  747MOL0     H98585   7.169   1.513   8.598 -0.1414 -1.3253 -4.4271
  747MOL0     H98586   8.217   1.974   9.096  0.4018  0.6188  1.0284
  747MOL0     H98587   8.445   2.049   9.052  1.0412 -0.2447 -0.8056
  747MOL0     H98588   8.785   2.002   8.682  1.1823  2.6352 -2.5891
  747MOL0     H98589   9.010   2.073   8.611 -1.3570 -0.9350 -0.5653
  747MOL0     H98590  10.785   2.621   8.139 -2.5088  0.0664  0.0277
  747MOL0     H98591  10.970   2.585   7.997  1.3989 -1.3637 -1.5362
  747MOL0     H98592  11.127   2.299   7.600  0.5109 -0.0017 -0.2245
  747MOL0     H98593  11.324   2.256   7.462 -0.6124  0.9401 -0.3846
  747MOL0     H98594  11.604   2.067   7.684 -0.2216  0.0360  0.2802
  747MOL0     H98595  11.739   2.166   7.647  1.3793 -0.7588 -1.3958
  747MOL0     H98596  11.595   1.960   7.476 -1.0500  1.3262 -1.0241
  747MOL0     H98597  11.697   2.095   7.399 -0.8522  1.7990  0.8426
  747MOL0     H98598  11.769   1.847   7.563  1.8893  0.2098  1.3321
  747MOL0     H98599  11.881   1.995   7.548 -1.7134  3.8758 -1.1931
  747MOL0     H98600  11.772   1.842   7.311 -0.3123  0.3331 -0.8966
  747MOL0     H98601  11.894   1.970   7.320 -0.2277  0.0832  0.4748
  747MOL0     H98602  12.101   1.622   7.442  0.9013  0.1837 -0.6255
  747MOL0     H98603  11.574   2.320   7.813 -0.6550 -3.1655  2.2310
  747MOL0     H98604  11.405   2.352   7.936  0.9901  2.3336 -0.4528
  748MOL0     O98605  10.086   0.073  10.491 -0.3339  0.1447 -0.4626
  748MOL0     C98606  10.141   0.182  10.466  0.4995 -0.6641 -0.3542
  748MOL0     O98607  10.095   0.305  10.504 -0.2325 -0.0017 -0.4657
  748MOL0     C98608   9.984   0.318  10.574 -0.3897 -0.1561 -1.2051
  748MOL0     C98609   9.864   0.247  10.563 -0.6729 -0.5136  0.3629
  748MOL0     C98610   9.759   0.285  10.644  0.7480  0.5401 -0.8032
  748MOL0     C98611   9.761   0.389  10.739 -0.4346 -0.6019  0.0362
  748MOL0     O98612   9.650   0.415  10.818  0.4586  0.3671  0.5235
  748MOL0     C98613   9.517   0.391  10.760  0.3706  0.0469 -0.8921
  748MOL0     C98614   9.404   0.487  10.823 -0.0943 -0.0485  0.2948
  748MOL0     C98615   9.452   0.633  10.824 -0.8945 -0.2730  0.0061
  748MOL0     C98616   9.359   0.733  10.910 -0.5484 -0.3850  0.1077
  748MOL0     C98617   9.221   0.750  10.841  0.2747  0.5623  0.2243
  748MOL0     C98618   9.098   0.811  10.920  0.5966  1.0232  0.4793
  748MOL0     C98619   9.117   0.928  11.022 -0.9813 -1.0621 -0.0111
  748MOL0     C98620   8.987   0.947  11.096  0.6367 -0.8120 -0.1103
  748MOL0     N98621   8.879   1.017  11.030  0.1674 -0.1864 -0.7512
  748MOL0     C98622   8.884   1.129  10.946  0.1180  0.1293  0.7651
  748MOL0     C98623   8.756   1.174  10.923  0.6328  0.6374  0.6049
  748MOL0     C98624   8.712   1.288  10.835 -0.4012  0.2007  0.3101
  748MOL0     C98625   8.686   1.413  10.916 -0.7266 -0.2876 -0.4024
  748MOL0     C98626   8.580   1.383  11.028  0.2049  0.4040 -0.4661
  748MOL0     C98627   8.438   1.337  10.975 -0.9960  0.0442 -0.3442
  748MOL0     O98628   8.386   1.431  10.886 -0.1752 -0.3082 -0.4357
  748MOL0     C98629   8.259   1.399  10.834 -0.6644  0.7130  0.4681
  748MOL0     C98630   8.181   1.286  10.861 -0.0170  0.4251 -0.6117
  748MOL0     C98631   8.049   1.272  10.813  0.2852  0.1448 -0.0470
  748MOL0     C98632   7.994   1.369  10.727 -0.0770 -0.8857 -0.7534
  748MOL0     C98633   7.865   1.351  10.666  0.1384  0.1597  0.0985
  748MOL0     O98634   7.813   1.220  10.683  0.3018  0.4915  0.3421
  748MOL0     C98635   7.695   1.194  10.629 -0.2040 -0.4959 -0.7375
  748MOL0     C98636   7.586   1.157  10.714 -0.0952  0.0187 -0.9763
  748MOL0     C98637   7.465   1.142  10.659 -0.0542  0.8187  0.1110
  748MOL0     C98638   7.442   1.153  10.524  0.0411 -0.1769 -1.0511
  748MOL0     O98639   7.312   1.136  10.488  0.2676  0.0051  0.4122
  748MOL0     C98640   7.304   1.081  10.357 -0.0406  0.2401  0.7962
  748MOL0     C98641   7.155   1.036  10.349  0.0811  0.9299  0.3727
  748MOL0     C98642   7.120   0.977  10.211 -0.2476  0.5852 -0.3609
  748MOL0     C98643   6.980   0.914  10.210  0.4872 -0.1544  0.0985
  748MOL0     C98644   6.942   0.845  10.080 -0.0907 -0.0815  0.0057
  748MOL0     C98645   7.037   0.732  10.041  0.1051  0.0112 -0.2727
  748MOL0     C98646   6.978   0.624   9.942  1.6879 -0.6066 -0.4374
  748MOL0     C98647   6.847   0.562   9.980 -0.4441 -0.7539 -0.6920
  748MOL0    Cl98648   6.826   0.494  10.144 -0.3149 -0.2647 -0.5017
  748MOL0     C98649   7.547   1.191  10.441 -0.2445  0.1205 -0.1035
  748MOL0     C98650   7.676   1.206  10.488 -0.7600  0.7272 -0.2128
  748MOL0     O98651   7.814   1.450  10.602  0.2847 -0.4223  0.3691
  748MOL0     C98652   8.074   1.476  10.697 -0.0906 -0.4210  0.1118
  748MOL0     C98653   8.202   1.491  10.748  0.3631 -1.0150  0.0779
  748MOL0     N98654   8.673   1.087  10.998 -0.0222 -0.4884  0.5018
  748MOL0     N98655   8.747   0.998  11.056 -0.2370 -0.1563 -0.7884
  748MOL0     C98656   9.880   0.452  10.752  0.2640  0.2515  0.3331
  748MOL0     C98657   9.991   0.416  10.675 -0.4713 -0.0491 -0.2170
  748MOL0     C98658  10.261   0.175  10.388  0.1126  1.0468 -0.2848
  748MOL0     C98659  10.355   0.076  10.418 -0.0343 -0.1718  0.3138
  748MOL0     C98660  10.476   0.071  10.340  0.3003  0.6084 -0.6845
  748MOL0     C98661  10.503   0.160  10.240  0.2962 -0.2074  0.1112
  748MOL0     O98662  10.621   0.147  10.172  0.3865  0.0914 -0.5479
  748MOL0     C98663  10.657   0.236  10.071  0.3309 -0.5170 -0.8448
  748MOL0     C98664  10.809   0.232  10.059 -0.1405  0.2298 -1.0825
  748MOL0     C98665  10.856   0.116   9.969 -0.4755  0.9897  0.0987
  748MOL0     C98666  11.005   0.109   9.967  0.5347  0.3397  0.1796
  748MOL0     C98667  11.075   0.221   9.892 -0.0272 -0.1230  0.2293
  748MOL0     C98668  11.125   0.308   9.834 -0.9503 -0.1637  0.0764
  748MOL0     C98669  10.403   0.249  10.209  1.0487 -1.0953  0.5036
  748MOL0     C98670  10.285   0.256  10.287  0.4819 -1.1881  0.4215
  748MOL0     H98671   9.860   0.167  10.490  2.1410  1.0227 -1.6716
  748MOL0     H98672   9.671   0.221  10.642  2.8799 -2.7044  1.6654
  748MOL0     H98673   9.478   0.294  10.788 -1.9204  1.7137  2.2660
  748MOL0     H98674   9.507   0.405  10.652 -1.2596  3.4619 -0.4414
  748MOL0     H98675   9.374   0.447  10.920  0.1302  0.8146  0.7194
  748MOL0     H98676   9.319   0.479  10.753  0.3590  1.3201 -0.4363
  748MOL0     H98677   9.455   0.672  10.722 -3.4445 -2.1610 -0.9067
  748MOL0     H98678   9.553   0.638  10.866 -0.4189 -0.9246 -1.0085
  748MOL0     H98679   9.341   0.687  11.008  1.2023 -1.7754 -0.1667
  748MOL0     H98680   9.416   0.825  10.925 -1.2712  0.5105 -2.1982
  748MOL0     H98681   9.187   0.655  10.800  1.3340  0.4803 -0.4988
  748MOL0     H98682   9.239   0.817  10.755  5.5596 -1.2479 -0.4436
  748MOL0     H98683   9.052   0.723  10.966 -4.0595  1.9937 -1.7484
  748MOL0     H98684   9.031   0.839  10.838  0.7066  0.0394  0.0351
  748MOL0     H98685   9.199   0.906  11.092  1.3669  1.1708 -1.8798
  748MOL0     H98686   9.155   1.018  10.974  1.1395 -2.7202 -1.6801
  748MOL0     H98687   9.016   1.008  11.183 -0.7287  1.8174 -1.3771
  748MOL0     H98688   8.945   0.852  11.130  0.0872 -1.1984 -1.7949
  748MOL0     H98689   8.976   1.172  10.908  0.8750 -1.2711  0.9277
  748MOL0     H98690   8.619   1.266  10.781 -0.7667  2.8555 -0.2711
  748MOL0     H98691   8.794   1.310  10.766 -1.8009 -2.3817 -2.3879
  748MOL0     H98692   8.652   1.495  10.853  0.2436  1.4484  1.2044
  748MOL0     H98693   8.781   1.434  10.965 -0.6324 -1.5349 -0.0053
  748MOL0     H98694   8.619   1.308  11.098 -1.8002  0.4934  0.8292
  748MOL0     H98695   8.563   1.468  11.094  0.8183 -0.3484  0.6817
  748MOL0     H98696   8.365   1.327  11.056  0.4642 -0.6279  0.9337
  748MOL0     H98697   8.456   1.240  10.927  3.3201 -0.0161  0.9726
  748MOL0     H98698   8.220   1.217  10.936  1.5679  3.2900  1.3774
  748MOL0     H98699   7.982   1.193  10.845 -2.1880  2.0876 -0.0783
  748MOL0     H98700   7.620   1.133  10.815  2.8744  0.8572 -1.6789
  748MOL0     H98701   7.381   1.112  10.722  0.2494  1.2071  0.7072
  748MOL0     H98702   7.370   0.994  10.350  0.7129  0.6070  2.6503
  748MOL0     H98703   7.326   1.149  10.275 -2.2360 -0.7791 -0.7438
  748MOL0     H98704   7.094   1.127  10.359 -0.2404  1.0586 -2.0013
  748MOL0     H98705   7.133   0.968  10.431 -0.5888  1.1277  0.3620
  748MOL0     H98706   7.193   0.907  10.168  1.1770  3.1292 -2.4348
  748MOL0     H98707   7.121   1.055  10.134 -3.0740  0.1470 -0.9730
  748MOL0     H98708   6.989   0.845  10.294 -1.9865  0.5186  0.9841
  748MOL0     H98709   6.903   0.982  10.247 -0.5524 -1.3847  0.2384
  748MOL0     H98710   6.938   0.923  10.003 -2.1289 -0.0713  0.0564
  748MOL0     H98711   6.836   0.818  10.076 -1.3224  4.1332 -2.2513
  748MOL0     H98712   7.072   0.668  10.123  3.4621  0.6958 -1.0164
  748MOL0     H98713   7.130   0.782  10.012  0.6750 -1.0373 -0.3081
  748MOL0     H98714   6.968   0.683   9.850  2.6455 -0.4748 -0.4696
  748MOL0     H98715   7.059   0.550   9.932  1.6224 -0.6804 -0.4199
  748MOL0     H98716   6.827   0.485   9.905  0.7426 -0.9928 -0.7824
  748MOL0     H98717   6.757   0.623   9.964 -0.3919 -0.5389 -0.1947
  748MOL0     H98718   7.533   1.216  10.336  3.6131  2.6032 -0.1885
  748MOL0     H98719   7.764   1.240  10.434 -2.0183  2.4740 -1.2879
  748MOL0     H98720   8.029   1.556  10.638 -0.1980 -1.5329 -1.3784
  748MOL0     H98721   8.255   1.583  10.725 -0.4605  0.1379  2.5138
  748MOL0     H98722   9.888   0.523  10.834  2.2144 -0.0585  0.4687
  748MOL0     H98723  10.084   0.454  10.716 -0.4571 -1.8880  1.6561
  748MOL0     H98724  10.340   0.005  10.498 -0.7554 -1.5014 -0.9642
  748MOL0     H98725  10.548  -0.010  10.350 -0.8368 -0.2356  1.1094
  748MOL0     H98726  10.631   0.340  10.090 -1.4233 -1.0924  0.1470
  748MOL0     H98727  10.600   0.193   9.988  0.8010 -1.7930 -0.5367
  748MOL0     H98728  10.854   0.322  10.016  1.1186  0.9880  1.6150
  748MOL0     H98729  10.844   0.232  10.163 -0.1392  0.0609 -1.0819
  748MOL0     H98730  10.819   0.141   9.869 -0.4934 -0.0299 -0.1590
  748MOL0     H98731  10.820   0.018  10.002  1.3713  0.0318 -0.5533
  748MOL0     H98732  11.041   0.105  10.070  0.3688 -0.0282  0.2242
  748MOL0     H98733  11.038   0.013   9.927 -0.7365 -1.5641  3.3226
  748MOL0     H98734  11.183   0.388   9.792  1.1990 -1.4284  0.4499
  748MOL0     H98735  10.413   0.323  10.131  3.8178 -0.7191  1.1228
  748MOL0     H98736  10.222   0.337  10.252 -0.4228 -2.5077 -1.0934
  749MOL0     O98737   9.945   9.217   9.361  0.2095  0.6842 -0.1851
  749MOL0     C98738  10.039   9.261   9.431  0.7115 -1.0214 -0.7087
  749MOL0     O98739  10.156   9.297   9.386 -0.0296 -0.2295  0.3745
  749MOL0     C98740  10.189   9.283   9.254  1.3035  0.0137 -0.1640
  749MOL0     C98741  10.208   9.156   9.200  0.3117  0.1025  0.2378
  749MOL0     C98742  10.250   9.143   9.071  1.0298  0.8889 -0.0542
  749MOL0     C98743  10.271   9.253   8.993 -0.5978  0.2323  0.0830
  749MOL0     O98744  10.320   9.243   8.861  0.0659 -0.0641 -0.3979
  749MOL0     C98745  10.391   9.128   8.813  0.7832  0.4743 -0.8842
  749MOL0     C98746  10.457   9.168   8.679  0.1424  0.5242  0.4580
  749MOL0     C98747  10.373   9.113   8.550 -1.4071 -0.1740  0.2045
  749MOL0     C98748  10.244   9.191   8.521  0.0174 -0.1807 -0.0755
  749MOL0     C98749  10.163   9.129   8.407  0.2437 -0.3062  0.4299
  749MOL0     C98750  10.041   9.223   8.366  0.4828 -0.0295  1.1253
  749MOL0     C98751   9.935   9.220   8.468 -0.5676 -0.6557  0.6120
  749MOL0     C98752   9.812   9.308   8.423  0.1149  0.0094  1.0069
  749MOL0     N98753   9.840   9.449   8.392  0.6679 -0.4663  0.0564
  749MOL0     C98754   9.897   9.545   8.479  1.2635  0.5062  0.6345
  749MOL0     C98755   9.903   9.660   8.402  0.7182 -0.4100 -0.0870
  749MOL0     C98756   9.950   9.790   8.439  0.2183  0.3967 -0.2444
  749MOL0     C98757   9.848   9.865   8.529 -0.5780  0.1977 -0.4097
  749MOL0     C98758   9.887  10.017   8.536 -0.1443 -0.2743 -0.0015
  749MOL0     C98759   9.778  10.085   8.635 -0.0198 -0.8017  0.1181
  749MOL0     O98760   9.807  10.044   8.770 -0.1284  0.7880  1.1325
  749MOL0     C98761   9.692   9.999   8.829  0.2629 -0.0617 -0.3494
  749MOL0     C98762   9.675   9.859   8.842 -0.5383  0.3565 -0.3532
  749MOL0     C98763   9.560   9.804   8.887  0.9743  0.2532 -0.4131
  749MOL0     C98764   9.460   9.892   8.933 -0.0904  0.5329 -0.2520
  749MOL0     C98765   9.340   9.833   9.005 -0.7247 -0.8691  0.0370
  749MOL0     O98766   9.327   9.701   9.034 -0.3371  0.1934 -0.3055
  749MOL0     C98767   9.215   9.643   9.087  0.2657 -0.0703 -0.7737
  749MOL0     C98768   9.227   9.515   9.151  0.0551  0.4878 -0.3824
  749MOL0     C98769   9.118   9.458   9.204  0.3655 -0.7605  0.1922
  749MOL0     C98770   8.988   9.517   9.193  0.0243  0.7843 -0.5832
  749MOL0     O98771   8.886   9.432   9.231  0.2334  0.3771 -0.0404
  749MOL0     C98772   8.754   9.491   9.225 -0.2972  0.0708  0.3168
  749MOL0     C98773   8.667   9.384   9.280  0.5676  0.2154 -0.4338
  749MOL0     C98774   8.514   9.432   9.296 -0.6112  0.3210 -0.2553
  749MOL0     C98775   8.435   9.315   9.366 -0.9499  0.2138  0.0320
  749MOL0     C98776   8.283   9.331   9.330 -0.3719  0.0293  0.3000
  749MOL0     C98777   8.198   9.256   9.425  0.0049  0.3964  0.2204
  749MOL0     C98778   8.055   9.268   9.385  0.4219  0.3426  0.1769
  749MOL0     C98779   7.963   9.204   9.486 -0.0850 -0.1379  0.3714
  749MOL0    Cl98780   7.789   9.209   9.441 -0.5124  0.3113 -0.1625
  749MOL0     C98781   8.970   9.637   9.120 -0.6158  0.5389  0.4831
  749MOL0     C98782   9.085   9.706   9.074 -0.4938  0.6059  0.2720
  749MOL0     O98783   9.266   9.921   9.048  0.2326  0.6260  1.2166
  749MOL0     C98784   9.469  10.033   8.915 -0.8102  0.3074  0.0323
  749MOL0     C98785   9.586  10.085   8.859 -0.1208 -0.6111 -0.5274
  749MOL0     N98786   9.860   9.632   8.268  0.3222  0.6556 -0.9962
  749MOL0     N98787   9.817   9.511   8.271  0.5217  0.4286  0.7068
  749MOL0     C98788  10.262   9.381   9.045 -0.4039  0.5041  0.2001
  749MOL0     C98789  10.212   9.400   9.178 -0.1614 -0.1335  0.2845
  749MOL0     C98790  10.016   9.260   9.582  1.0765 -0.5294 -0.2005
  749MOL0     C98791   9.903   9.202   9.644 -0.4393 -0.6151 -0.3670
  749MOL0     C98792   9.888   9.212   9.783 -0.0343  0.3171  0.0682
  749MOL0     C98793   9.968   9.288   9.870 -0.6832 -0.6993  0.3191
  749MOL0     O98794   9.962   9.309  10.005 -0.1568  0.4783 -0.1317
  749MOL0     C98795   9.875   9.229  10.080 -0.0963 -0.2387 -1.0461
  749MOL0     C98796   9.875   9.284  10.218  0.9552 -0.2610 -0.0795
  749MOL0     C98797   9.780   9.210  10.309  0.6391 -0.0443  0.2840
  749MOL0     C98798   9.754   9.282  10.438 -0.4761  0.0193 -0.0853
  749MOL0     C98799   9.671   9.193  10.515 -0.8049 -0.4743  0.0766
  749MOL0     C98800   9.584   9.121  10.567 -0.6539  0.4801 -0.3916
  749MOL0     C98801  10.076   9.359   9.800  0.3670 -0.1576 -0.5356
  749MOL0     C98802  10.103   9.338   9.662  0.5300  0.3626  0.5561
  749MOL0     H98803  10.190   9.064   9.256 -3.4546  1.3441  1.3605
  749MOL0     H98804  10.252   9.042   9.030 -1.7486 -0.2837  2.3762
  749MOL0     H98805  10.322   9.046   8.793  2.3106 -1.5851  1.6564
  749MOL0     H98806  10.455   9.094   8.895 -1.6981  0.6645  1.2641
  749MOL0     H98807  10.556   9.125   8.664  1.2652  3.1723 -0.2572
  749MOL0     H98808  10.464   9.277   8.672 -0.5441  0.4915 -1.2738
  749MOL0     H98809  10.359   9.005   8.555 -3.0871  0.0018 -0.3409
  749MOL0     H98810  10.433   9.139   8.462 -1.6602 -0.0362  0.0712
  749MOL0     H98811  10.192   9.196   8.617  3.0254  0.1209  1.6622
  749MOL0     H98812  10.270   9.294   8.495  0.6886 -0.6780 -1.5143
  749MOL0     H98813  10.132   9.029   8.437  1.2940 -0.9740 -0.6326
  749MOL0     H98814  10.227   9.106   8.322 -0.9360 -0.5405 -0.4240
  749MOL0     H98815   9.992   9.179   8.278  1.6250  0.8114  0.0282
  749MOL0     H98816  10.076   9.324   8.345  0.3673 -0.1662  0.2235
  749MOL0     H98817   9.897   9.118   8.482  1.1545 -1.4543 -0.2173
  749MOL0     H98818   9.969   9.244   8.570  3.4707  0.4333 -0.7946
  749MOL0     H98819   9.733   9.304   8.498  0.3442  1.2979  1.3460
  749MOL0     H98820   9.762   9.270   8.333 -1.3098  0.3986  1.6068
  749MOL0     H98821   9.923   9.542   8.584 -1.6975 -3.3319  1.4792
  749MOL0     H98822   9.974   9.850   8.350 -1.5308  1.2055 -0.2142
  749MOL0     H98823  10.047   9.767   8.484 -0.5116 -2.9602 -0.1208
  749MOL0     H98824   9.844   9.819   8.628 -1.5017 -0.0700 -0.5646
  749MOL0     H98825   9.748   9.865   8.486  0.0190 -0.0404 -1.8664
  749MOL0     H98826   9.990  10.024   8.572 -0.5364 -1.2862  1.4026
  749MOL0     H98827   9.879  10.073   8.442  1.7408 -1.0602 -0.6741
  749MOL0     H98828   9.676  10.061   8.606 -0.0235 -2.6771  1.5252
  749MOL0     H98829   9.790  10.194   8.638  1.0511 -0.8891  2.7961
  749MOL0     H98830   9.749   9.780   8.828 -0.5266 -0.4158  3.1410
  749MOL0     H98831   9.538   9.698   8.898  0.2974  0.4424  0.1470
  749MOL0     H98832   9.323   9.467   9.167  0.1376  1.1792  1.3694
  749MOL0     H98833   9.126   9.359   9.248  0.5883 -0.9229 -0.2051
  749MOL0     H98834   8.724   9.521   9.124  0.4112  0.3828  0.1958
  749MOL0     H98835   8.756   9.584   9.283  0.5964  1.0326 -1.2090
  749MOL0     H98836   8.695   9.355   9.382 -1.9562  2.0900  0.8918
  749MOL0     H98837   8.673   9.298   9.212  0.5344 -0.0587 -0.0937
  749MOL0     H98838   8.473   9.454   9.197  0.1783 -1.1876 -0.9582
  749MOL0     H98839   8.507   9.513   9.369 -1.7034 -1.1231  1.3319
  749MOL0     H98840   8.477   9.223   9.324 -0.1713  0.3747  0.4401
  749MOL0     H98841   8.463   9.323   9.471  0.0748  2.6640 -0.3521
  749MOL0     H98842   8.270   9.301   9.225 -2.2514 -1.2288  0.8274
  749MOL0     H98843   8.261   9.438   9.332 -1.4871 -0.1956  1.7110
  749MOL0     H98844   8.212   9.293   9.527  1.7717  0.1307  0.1070
  749MOL0     H98845   8.234   9.153   9.441 -2.6693 -0.6434 -0.0173
  749MOL0     H98846   8.034   9.371   9.355  0.4397 -0.1020 -1.4688
  749MOL0     H98847   8.038   9.216   9.290 -0.5779 -1.3231  1.2190
  749MOL0     H98848   7.963   9.265   9.577 -1.2699  1.6822 -0.7867
  749MOL0     H98849   7.984   9.099   9.506 -0.6349 -0.0263  1.5867
  749MOL0     H98850   8.878   9.684   9.090  1.0384  2.9788 -1.1456
  749MOL0     H98851   9.069   9.801   9.026 -3.6323  0.1375  0.1827
  749MOL0     H98852   9.397  10.099   8.961 -1.0336 -0.3666  0.6482
  749MOL0     H98853   9.611  10.190   8.852 -1.9512 -0.2421 -2.3687
  749MOL0     H98854  10.293   9.471   8.992  0.6736  0.6737  1.0875
  749MOL0     H98855  10.209   9.495   9.229  0.5149  0.3516 -0.5575
  749MOL0     H98856   9.825   9.140   9.601 -3.7316  1.5429  2.0207
  749MOL0     H98857   9.794   9.169   9.818 -1.6921  2.6865 -1.1386
  749MOL0     H98858   9.919   9.130  10.087  0.4192 -0.1502 -2.6674
  749MOL0     H98859   9.773   9.220  10.041 -0.2709 -0.7933 -0.4811
  749MOL0     H98860   9.976   9.281  10.261  1.4295  4.7683 -0.3063
  749MOL0     H98861   9.861   9.392  10.225  1.5852 -0.1757 -0.0650
  749MOL0     H98862   9.817   9.108  10.325 -0.1820 -0.2753  0.7519
  749MOL0     H98863   9.685   9.210  10.255  1.8067  0.4388 -1.8962
  749MOL0     H98864   9.845   9.307  10.493 -1.2721  1.1292  0.7656
  749MOL0     H98865   9.704   9.379  10.442 -0.8536 -0.1903  3.9887
  749MOL0     H98866   9.521   9.051  10.619  1.0666  0.1464  1.3360
  749MOL0     H98867  10.140   9.423   9.860  2.0808  1.4063 -3.7129
  749MOL0     H98868  10.187   9.388   9.616 -1.4926  4.9980  1.3470
  750MOL0     O98869   9.625   4.086   5.800  0.0518  1.0916  0.6271
  750MOL0     C98870   9.629   4.093   5.678  0.2961  0.4870  0.0518
  750MOL0     O98871   9.525   4.068   5.589 -0.3178 -0.6732  0.3123
  750MOL0     C98872   9.400   4.038   5.621  0.0238  0.5261 -0.5953
  750MOL0     C98873   9.373   3.940   5.719 -1.3229 -0.5592  0.1854
  750MOL0     C98874   9.243   3.902   5.748 -0.1588 -0.2830  0.1681
  750MOL0     C98875   9.131   3.965   5.686 -0.7175  0.5868 -0.6362
  750MOL0     O98876   9.007   3.924   5.712  0.0454 -0.5467 -0.0015
  750MOL0     C98877   8.973   3.796   5.775 -0.1135  0.5687  1.4352
  750MOL0     C98878   8.819   3.797   5.783 -0.4839 -0.4386 -0.5485
  750MOL0     C98879   8.765   3.671   5.842  0.2648 -0.6298 -0.4515
  750MOL0     C98880   8.608   3.680   5.861 -0.0013  0.4475  0.2045
  750MOL0     C98881   8.551   3.547   5.916 -0.6453 -0.4230  0.0541
  750MOL0     C98882   8.403   3.557   5.919  0.6106  0.2864  0.5437
  750MOL0     C98883   8.346   3.450   6.009 -0.4472  0.4211  0.1350
  750MOL0     C98884   8.396   3.308   5.979 -0.6316 -0.3039 -0.0360
  750MOL0     N98885   8.286   3.211   5.983 -0.0600  0.0490  0.6083
  750MOL0     C98886   8.232   3.169   6.108 -0.8757 -0.4610  0.6477
  750MOL0     C98887   8.131   3.088   6.065  0.3610  0.4242 -0.7954
  750MOL0     C98888   8.038   3.020   6.156  0.2885  0.9273 -0.5803
  750MOL0     C98889   7.897   3.016   6.090  0.1311 -0.1966  0.4889
  750MOL0     C98890   7.784   3.003   6.199  0.1068 -0.0722  0.5234
  750MOL0     C98891   7.644   3.048   6.150 -0.1439  0.1423  0.0968
  750MOL0     O98892   7.562   3.057   6.265 -0.5666  0.1023 -0.0551
  750MOL0     C98893   7.433   3.083   6.264 -0.6078  0.4076  0.7923
  750MOL0     C98894   7.356   3.046   6.379  1.3435  0.6687  0.4727
  750MOL0     C98895   7.213   3.082   6.388  1.0509 -0.9476  0.2701
  750MOL0     C98896   7.151   3.142   6.273 -0.8041 -0.1637 -0.4152
  750MOL0     C98897   7.004   3.149   6.272  0.0716 -0.1724 -0.7275
  750MOL0     O98898   6.938   3.119   6.389 -0.1605  0.4320 -0.2230
  750MOL0     C98899   6.798   3.140   6.402  0.7185 -0.2434 -0.0525
  750MOL0     C98900   6.742   3.110   6.529 -0.0456  0.0416  1.0944
  750MOL0     C98901   6.605   3.128   6.560  0.6975 -0.1227 -0.0121
  750MOL0     C98902   6.511   3.177   6.461  0.0010  0.1900  0.2625
  750MOL0     O98903   6.372   3.167   6.484  0.0210  0.2381  0.6252
  750MOL0     C98904   6.323   3.179   6.613  0.3021  0.7722 -0.6154
  750MOL0     C98905   6.182   3.245   6.638  0.0400  0.5230 -0.2481
  750MOL0     C98906   6.164   3.280   6.787  1.2206  0.6212 -0.3776
  750MOL0     C98907   6.032   3.353   6.803 -0.2762 -0.5693  0.7621
  750MOL0     C98908   6.015   3.388   6.952  0.2100  0.1447 -0.9423
  750MOL0     C98909   5.886   3.450   7.002  0.5453 -0.6057  0.1358
  750MOL0     C98910   5.842   3.567   6.907 -0.1541 -0.2722 -0.3834
  750MOL0     C98911   5.704   3.621   6.938 -0.2449 -0.2669 -0.2242
  750MOL0    Cl98912   5.656   3.744   6.826 -0.0004 -0.1528  0.4313
  750MOL0     C98913   6.561   3.209   6.339  0.1156  0.0018  0.6380
  750MOL0     C98914   6.699   3.199   6.310 -0.6632 -0.4060  0.1460
  750MOL0     O98915   6.941   3.180   6.169  0.1991 -0.3355  0.5399
  750MOL0     C98916   7.238   3.189   6.166  1.2162  0.5239 -0.1654
  750MOL0     C98917   7.374   3.152   6.158  0.5225 -0.3356 -0.3628
  750MOL0     N98918   8.124   3.096   5.919 -0.1667 -0.1879 -0.0179
  750MOL0     N98919   8.215   3.170   5.876  0.6120  0.1682  0.6700
  750MOL0     C98920   9.159   4.062   5.585  0.1503  0.3138  0.4948
  750MOL0     C98921   9.295   4.094   5.557  0.4232 -0.5801  0.2386
  750MOL0     C98922   9.757   4.124   5.608  0.3018  0.2000  0.5167
  750MOL0     C98923   9.762   4.152   5.469 -0.2349  0.3264 -1.3174
  750MOL0     C98924   9.885   4.186   5.412  0.1679 -0.3227  0.0265
  750MOL0     C98925   9.999   4.182   5.481  0.2153 -0.2373  0.0166
  750MOL0     O98926  10.123   4.220   5.421  0.7881  0.1244  0.0721
  750MOL0     C98927  10.250   4.197   5.483 -0.5734 -0.2381  0.4763
  750MOL0     C98928  10.381   4.195   5.400 -0.0615  0.5659  0.1832
  750MOL0     C98929  10.454   4.342   5.380  1.2506  0.0312  0.9375
  750MOL0     C98930  10.591   4.351   5.448  0.3443 -0.2149  0.3907
  750MOL0     C98931  10.698   4.288   5.372 -0.0745 -0.0686 -0.0286
  750MOL0     C98932  10.797   4.234   5.323 -0.3891 -0.7125 -0.0951
  750MOL0     C98933   9.998   4.128   5.615 -0.3753 -1.5993  0.5508
  750MOL0     C98934   9.878   4.093   5.673  0.0712 -0.3315 -0.6668
  750MOL0     H98935   9.450   3.884   5.773  2.3770  3.3121 -0.5629
  750MOL0     H98936   9.232   3.818   5.816 -0.5473  0.2474  0.7663
  750MOL0     H98937   9.025   3.788   5.870  1.7250 -5.8898  0.3354
  750MOL0     H98938   9.005   3.708   5.719  3.7143  1.5886  1.7261
  750MOL0     H98939   8.772   3.812   5.685 -1.7949 -0.7060  0.0159
  750MOL0     H98940   8.785   3.880   5.844 -0.0547 -0.0164 -0.8703
  750MOL0     H98941   8.811   3.662   5.941  1.9180  0.4310 -1.0733
  750MOL0     H98942   8.785   3.590   5.772 -0.3709 -0.2466 -1.0927
  750MOL0     H98943   8.574   3.759   5.929  0.2204  0.7911 -0.0763
  750MOL0     H98944   8.556   3.700   5.766 -0.0263 -2.2423 -0.4342
  750MOL0     H98945   8.591   3.542   6.018  1.8891  0.2899 -0.8271
  750MOL0     H98946   8.584   3.461   5.856  1.9203  1.1623 -0.9914
  750MOL0     H98947   8.356   3.535   5.822 -0.5140 -1.2470  1.3929
  750MOL0     H98948   8.374   3.656   5.954  3.2923  1.2557  0.2452
  750MOL0     H98949   8.373   3.469   6.113 -0.3809 -1.8738  0.5910
  750MOL0     H98950   8.237   3.448   6.011 -0.5263  2.4374 -0.0721
  750MOL0     H98951   8.472   3.291   6.056  1.2123  0.0760 -1.6905
  750MOL0     H98952   8.452   3.305   5.885  0.1374 -0.3465  0.4120
  750MOL0     H98953   8.269   3.186   6.209 -0.7954 -1.7917  0.8653
  750MOL0     H98954   8.035   3.065   6.256  1.9213  0.0490 -0.0998
  750MOL0     H98955   8.063   2.915   6.173 -0.0736  0.9017 -0.1763
  750MOL0     H98956   7.895   2.925   6.030  0.6056 -1.3598  2.1675
  750MOL0     H98957   7.864   3.105   6.035 -1.6280 -0.9545  0.2419
  750MOL0     H98958   7.777   2.898   6.229 -1.0960 -0.1496  0.0221
  750MOL0     H98959   7.808   3.059   6.289 -1.1515  0.8694  0.3068
  750MOL0     H98960   7.605   2.970   6.083 -0.5082  0.1415  0.3090
  750MOL0     H98961   7.659   3.146   6.103 -1.7127  1.8590  2.9309
  750MOL0     H98962   7.398   2.979   6.453 -0.6382 -1.4288 -0.1591
  750MOL0     H98963   7.152   3.042   6.468  1.8433 -0.9979  0.8573
  750MOL0     H98964   6.809   3.077   6.607  1.3438  0.8192  0.2640
  750MOL0     H98965   6.574   3.082   6.653  2.8457 -1.0141  0.3255
  750MOL0     H98966   6.389   3.237   6.679 -1.8097  0.4858  1.8810
  750MOL0     H98967   6.307   3.078   6.652 -3.3747  0.7277 -1.8848
  750MOL0     H98968   6.103   3.182   6.596  0.6461  1.2108 -2.5410
  750MOL0     H98969   6.188   3.333   6.574 -3.6750 -0.4256 -2.2012
  750MOL0     H98970   6.247   3.341   6.826  0.5564 -0.0582  2.3613
  750MOL0     H98971   6.161   3.182   6.836  0.3661  0.9225  0.1924
  750MOL0     H98972   6.046   3.436   6.734  4.4074 -1.6394  0.1039
  750MOL0     H98973   5.950   3.291   6.766  0.7406  0.1430 -3.1565
  750MOL0     H98974   6.098   3.457   6.968  1.6436 -1.1489 -2.3590
  750MOL0     H98975   6.034   3.295   7.007  0.9670 -2.4538 -5.1371
  750MOL0     H98976   5.899   3.475   7.108  0.0249  1.0548 -0.1677
  750MOL0     H98977   5.812   3.369   6.992  1.3849 -1.3031 -0.6105
  750MOL0     H98978   5.917   3.644   6.921 -0.7294 -0.0339  1.7532
  750MOL0     H98979   5.847   3.536   6.802 -0.3575  0.1079 -0.5049
  750MOL0     H98980   5.693   3.644   7.045 -1.3915 -1.6182 -0.0295
  750MOL0     H98981   5.633   3.539   6.924 -1.2083  0.2370  1.4542
  750MOL0     H98982   6.485   3.243   6.270 -1.0654 -1.7345  1.0247
  750MOL0     H98983   6.725   3.220   6.207 -2.2723 -1.2511 -0.4612
  750MOL0     H98984   7.197   3.242   6.081  0.5723 -1.2110 -0.9733
  750MOL0     H98985   7.435   3.172   6.070 -0.3670 -1.2833 -1.2140
  750MOL0     H98986   9.072   4.110   5.541 -1.1923 -1.7012  0.7930
  750MOL0     H98987   9.321   4.165   5.479 -1.4718 -0.3413 -0.2291
  750MOL0     H98988   9.670   4.163   5.413 -0.8462 -2.1115 -0.8801
  750MOL0     H98989   9.877   4.186   5.303  1.5636  0.3800 -0.1063
  750MOL0     H98990  10.232   4.110   5.548 -3.7878  1.2871  1.8721
  750MOL0     H98991  10.279   4.277   5.551 -2.4565  0.2650  0.7511
  750MOL0     H98992  10.456   4.133   5.449  1.7632  1.5370 -1.2764
  750MOL0     H98993  10.364   4.144   5.305 -1.7148  1.1335  0.1441
  750MOL0     H98994  10.378   4.414   5.410  1.3130  1.3091 -1.7420
  750MOL0     H98995  10.473   4.352   5.273 -0.4215 -3.5691  0.1590
  750MOL0     H98996  10.623   4.455   5.456 -0.6054 -0.0191  2.6674
  750MOL0     H98997  10.592   4.319   5.553 -1.3922 -1.6391  0.0268
  750MOL0     H98998  10.886   4.194   5.277 -0.3123  0.1280 -0.6965
  750MOL0     H98999  10.082   4.138   5.683  1.0151  0.9654 -1.3725
  750MOL0     H99000   9.884   4.045   5.770  2.1351 -1.3291 -1.2333
  751MOL0     O99001   5.183   2.872   9.450 -0.4464  0.1052 -0.7983
  751MOL0     C99002   5.274   2.803   9.501 -0.1724 -0.1917  0.0621
  751MOL0     O99003   5.251   2.691   9.581  0.2940 -0.2900 -0.0208
  751MOL0     C99004   5.120   2.685   9.625 -0.3278 -0.2948 -0.2151
  751MOL0     C99005   5.016   2.655   9.542 -0.6278  0.0856 -0.0758
  751MOL0     C99006   4.898   2.619   9.596 -0.0691  0.3067  0.2969
  751MOL0     C99007   4.875   2.625   9.742 -0.3974  0.0633  0.4977
  751MOL0     O99008   4.761   2.592   9.806  0.0995  0.3200  0.0197
  751MOL0     C99009   4.640   2.656   9.765 -0.4781  0.0803 -0.3815
  751MOL0     C99010   4.558   2.662   9.897 -0.7133 -0.8123  0.2024
  751MOL0     C99011   4.403   2.695   9.883 -0.2418 -0.1471 -0.1598
  751MOL0     C99012   4.340   2.678  10.026 -0.2611  0.5025 -0.1243
  751MOL0     C99013   4.207   2.748  10.023  0.0312  0.1075  0.2235
  751MOL0     C99014   4.106   2.684   9.934 -0.3064 -0.2716  0.4627
  751MOL0     C99015   3.960   2.737   9.951 -0.4346 -0.1957  0.0358
  751MOL0     C99016   3.934   2.863   9.875  0.3767 -0.0898 -0.2011
  751MOL0     N99017   3.794   2.906   9.900  0.1396  0.5944 -0.5900
  751MOL0     C99018   3.739   2.955  10.021  0.2363 -0.1076  0.8994
  751MOL0     C99019   3.601   2.950   9.999 -0.2016  0.1005 -0.2391
  751MOL0     C99020   3.509   2.999  10.100  0.4067  0.9412 -0.2605
  751MOL0     C99021   3.360   3.026  10.060  0.4999 -0.2191 -0.7096
  751MOL0     C99022   3.288   3.082  10.187 -0.1070  0.0832  0.3700
  751MOL0     C99023   3.143   3.102  10.153  0.6589 -0.1047  0.1195
  751MOL0     O99024   3.138   3.209  10.062 -0.4190  0.1680  0.2461
  751MOL0     C99025   3.020   3.239   9.996 -0.1819 -0.9888  0.2582
  751MOL0     C99026   2.891   3.193  10.029 -0.2327 -0.3671  0.0309
  751MOL0     C99027   2.776   3.233   9.968  1.2150  0.8490 -0.0431
  751MOL0     C99028   2.783   3.332   9.869  0.6981 -1.2007 -0.0146
  751MOL0     C99029   2.666   3.397   9.806  0.4027 -0.1432 -0.0806
  751MOL0     O99030   2.562   3.419   9.890 -0.1502  0.2908  0.5192
  751MOL0     C99031   2.440   3.459   9.846 -0.4192 -0.6216 -0.2448
  751MOL0     C99032   2.343   3.362   9.855  0.6009  0.2869 -0.5820
  751MOL0     C99033   2.225   3.380   9.788  0.7211 -0.2024  0.6458
  751MOL0     C99034   2.191   3.499   9.723  0.1849  0.1483 -0.2137
  751MOL0     O99035   2.058   3.513   9.697  0.2064 -0.2902  0.9308
  751MOL0     C99036   2.004   3.643   9.740  0.7809  0.4055  0.1037
  751MOL0     C99037   1.854   3.633   9.789 -0.1452 -0.0867  1.2300
  751MOL0     C99038   1.755   3.616   9.674  0.4915  0.3312 -0.2074
  751MOL0     C99039   1.606   3.614   9.715 -0.5071 -0.2774 -0.8101
  751MOL0     C99040   1.560   3.755   9.764 -0.1119  0.2160 -0.0528
  751MOL0     C99041   1.409   3.775   9.739 -0.1068 -0.1770 -0.2642
  751MOL0     C99042   1.348   3.913   9.761 -0.3933 -0.9761  0.1679
  751MOL0     C99043   1.215   3.908   9.830 -0.1212 -0.1999  0.5823
  751MOL0    Cl99044   1.096   3.816   9.742 -0.1188 -0.0732 -0.2456
  751MOL0     C99045   2.289   3.597   9.711  0.1051  0.0872 -0.1963
  751MOL0     C99046   2.415   3.579   9.770  0.3097 -0.4148  0.3971
  751MOL0     O99047   2.670   3.437   9.692 -0.2440 -0.6378  0.1811
  751MOL0     C99048   2.908   3.376   9.819  0.7598  0.0050 -0.9555
  751MOL0     C99049   3.020   3.335   9.887 -0.5332 -0.5809  0.1471
  751MOL0     N99050   3.569   2.886   9.877  0.6617 -0.4661  0.0892
  751MOL0     N99051   3.685   2.855   9.826 -0.0112 -0.2835  0.2473
  751MOL0     C99052   4.982   2.662   9.822 -0.2401 -0.3363 -0.7012
  751MOL0     C99053   5.108   2.694   9.767 -0.0717 -0.4425 -0.4055
  751MOL0     C99054   5.415   2.848   9.480  0.3730 -0.1073  0.0034
  751MOL0     C99055   5.444   2.952   9.384  0.9678  0.3309 -0.4140
  751MOL0     C99056   5.571   3.001   9.376 -0.6216  0.2036 -0.0334
  751MOL0     C99057   5.677   2.937   9.440  0.1578  0.2233  0.2265
  751MOL0     O99058   5.806   2.975   9.408 -0.1840 -0.5427 -0.0477
  751MOL0     C99059   5.876   3.053   9.511 -0.0142 -0.2461 -0.5354
  751MOL0     C99060   6.027   3.037   9.500 -0.8174  0.0163  0.6639
  751MOL0     C99061   6.082   3.058   9.360  0.5942  0.5854 -0.1778
  751MOL0     C99062   6.235   3.076   9.357  0.1498 -0.1149  0.8539
  751MOL0     C99063   6.279   3.193   9.437 -0.5703  0.3588 -0.3143
  751MOL0     C99064   6.304   3.294   9.494 -0.6346 -0.2142  0.2012
  751MOL0     C99065   5.652   2.838   9.538 -0.4860 -0.4074  0.1962
  751MOL0     C99066   5.524   2.793   9.556 -0.2066 -0.3320 -0.1344
  751MOL0     H99067   5.041   2.658   9.436  0.6487 -0.3940  0.1990
  751MOL0     H99068   4.820   2.575   9.534 -2.4447  0.0342  3.2175
  751MOL0     H99069   4.602   2.606   9.676 -0.0134  1.2968 -1.2935
  751MOL0     H99070   4.664   2.758   9.732  2.9238 -0.9838 -1.6103
  751MOL0     H99071   4.610   2.730   9.965 -0.2778  1.1451 -1.9506
  751MOL0     H99072   4.558   2.562   9.939 -1.2391 -2.1588 -2.7406
  751MOL0     H99073   4.357   2.630   9.808  0.2054 -0.0496 -0.5234
  751MOL0     H99074   4.381   2.795   9.847 -1.6464 -0.1912  0.4806
  751MOL0     H99075   4.333   2.573  10.057  0.1368  0.4741 -0.1233
  751MOL0     H99076   4.410   2.722  10.098 -0.3943  0.5279 -0.0092
  751MOL0     H99077   4.222   2.850   9.989 -0.5202  0.1645  0.1337
  751MOL0     H99078   4.173   2.751  10.127 -0.5277 -1.5217  0.1214
  751MOL0     H99079   4.106   2.575   9.945 -3.4349 -0.4072 -0.0410
  751MOL0     H99080   4.137   2.708   9.832  0.9146  1.4381  1.1859
  751MOL0     H99081   3.886   2.665   9.914 -1.8362  0.3098  1.7153
  751MOL0     H99082   3.939   2.748  10.058  1.4716 -1.3258  0.5791
  751MOL0     H99083   3.962   2.856   9.770 -2.0361 -1.0234 -0.8584
  751MOL0     H99084   3.983   2.954   9.911  1.5571 -1.0611  0.7670
  751MOL0     H99085   3.792   3.010  10.098 -1.7936  1.4020  1.3244
  751MOL0     H99086   3.550   3.086  10.152  0.1011  2.0451 -1.7943
  751MOL0     H99087   3.507   2.921  10.177  3.0895  2.3056  1.3220
  751MOL0     H99088   3.317   2.932  10.023  0.5798  0.6378 -3.1235
  751MOL0     H99089   3.368   3.100   9.980 -0.7815  0.5178 -0.1782
  751MOL0     H99090   3.284   3.001  10.261 -0.5902 -0.6899 -0.4842
  751MOL0     H99091   3.333   3.173  10.228  2.8413 -0.2950 -1.7130
  751MOL0     H99092   3.088   3.128  10.244  1.7302 -1.3237  1.1484
  751MOL0     H99093   3.094   3.019  10.102 -4.0804  0.2837  3.4069
  751MOL0     H99094   2.879   3.118  10.107  4.0419  1.2026  2.5759
  751MOL0     H99095   2.682   3.203  10.012  1.7544 -0.2678  0.4092
  751MOL0     H99096   2.364   3.270   9.908 -2.0277  1.0270  1.9843
  751MOL0     H99097   2.150   3.305   9.809 -0.2870  0.6076  0.0406
  751MOL0     H99098   2.014   3.714   9.656  0.6281 -2.0902 -2.1452
  751MOL0     H99099   2.064   3.671   9.827  1.1691  0.7656 -0.2739
  751MOL0     H99100   1.836   3.726   9.844  0.7456  0.8074  0.0634
  751MOL0     H99101   1.855   3.543   9.851  0.8900 -0.3955  0.7874
  751MOL0     H99102   1.780   3.529   9.613  0.2736  1.4809 -2.0099
  751MOL0     H99103   1.775   3.698   9.604  2.7285  0.7536  0.8310
  751MOL0     H99104   1.556   3.596   9.619 -0.3447  1.7824 -1.3267
  751MOL0     H99105   1.586   3.534   9.787 -0.3488 -2.1853 -2.7951
  751MOL0     H99106   1.613   3.834   9.711  0.3136 -0.0989 -0.0960
  751MOL0     H99107   1.582   3.767   9.871  0.5307  0.7784 -0.2488
  751MOL0     H99108   1.365   3.693   9.797  0.4305 -1.6741 -1.8803
  751MOL0     H99109   1.401   3.743   9.635 -1.0414 -0.7132 -0.0371
  751MOL0     H99110   1.424   3.968   9.816 -1.3834 -1.3210  1.9491
  751MOL0     H99111   1.348   3.963   9.664 -4.0834  0.7922  0.8852
  751MOL0     H99112   1.191   4.014   9.845  0.9447 -0.0983  1.8055
  751MOL0     H99113   1.236   3.870   9.931  1.8852  0.5429  0.5005
  751MOL0     H99114   2.272   3.698   9.675  1.3915  0.6229  0.6290
  751MOL0     H99115   2.481   3.665   9.770 -1.0907  0.8289  3.5661
  751MOL0     H99116   2.913   3.449   9.739  1.9157  1.4718  0.3880
  751MOL0     H99117   3.117   3.370   9.855 -1.8849  0.3761 -3.2946
  751MOL0     H99118   4.981   2.650   9.929  0.4166 -0.8877 -0.7479
  751MOL0     H99119   5.200   2.710   9.823 -0.6269  0.2449  0.3346
  751MOL0     H99120   5.360   3.011   9.351  1.5657  0.9206 -0.9171
  751MOL0     H99121   5.587   3.087   9.311  0.6296  0.7241  0.9291
  751MOL0     H99122   5.844   3.028   9.612 -2.7584 -2.2314 -1.7756
  751MOL0     H99123   5.851   3.159   9.499 -2.0562 -0.7449 -1.0167
  751MOL0     H99124   6.074   3.110   9.567  2.6988  0.2451 -1.7596
  751MOL0     H99125   6.057   2.938   9.535  1.1423 -0.0717 -1.0401
  751MOL0     H99126   6.036   3.143   9.308 -0.0255 -1.0336 -2.3968
  751MOL0     H99127   6.058   2.971   9.299  2.3303 -1.3146  1.6638
  751MOL0     H99128   6.291   2.995   9.405  2.1274  0.0062 -1.1217
  751MOL0     H99129   6.254   3.092   9.251 -1.7117 -1.5617  0.2474
  751MOL0     H99130   6.322   3.378   9.558 -0.6167  1.3066 -1.7335
  751MOL0     H99131   5.732   2.794   9.596  1.1738  1.6007 -0.4620
  751MOL0     H99132   5.509   2.711   9.627  2.4209 -0.4700  0.3936
  752MOL0     O99133   2.929   3.591   7.432  0.5839  0.1816 -0.6963
  752MOL0     C99134   2.948   3.695   7.496  0.2015 -0.1879  0.2630
  752MOL0     O99135   2.848   3.767   7.561 -0.0389 -0.6370  0.0707
  752MOL0     C99136   2.721   3.722   7.573 -0.0519 -0.7966 -0.1370
  752MOL0     C99137   2.610   3.805   7.533 -0.2628  0.2424 -0.6346
  752MOL0     C99138   2.478   3.761   7.551  1.0839 -0.6147  0.4411
  752MOL0     C99139   2.450   3.645   7.615  0.7612  0.5008  1.0088
  752MOL0     O99140   2.321   3.599   7.629 -0.2965 -0.1812 -1.1897
  752MOL0     C99141   2.216   3.664   7.548  0.7819  0.1484  0.0208
  752MOL0     C99142   2.078   3.594   7.571 -0.0636  0.1888 -0.1087
  752MOL0     C99143   1.975   3.670   7.486 -0.2005  0.6318 -0.6507
  752MOL0     C99144   1.827   3.627   7.516  0.7905 -0.2716 -0.8106
  752MOL0     C99145   1.714   3.715   7.454 -0.0260  0.9935  0.7101
  752MOL0     C99146   1.723   3.865   7.495 -0.3391  0.2517 -0.2708
  752MOL0     C99147   1.601   3.953   7.459 -0.2796  0.2252  0.1423
  752MOL0     C99148   1.597   4.092   7.540 -0.6693 -0.1167 -0.3531
  752MOL0     N99149   1.463   4.153   7.508 -0.3295  0.6235  0.0059
  752MOL0     C99150   1.366   4.185   7.596 -0.0431  0.4470 -0.5324
  752MOL0     C99151   1.274   4.252   7.530 -0.1816  0.8080  0.4635
  752MOL0     C99152   1.148   4.296   7.589  0.1121  0.0101  0.4776
  752MOL0     C99153   1.049   4.176   7.609  0.3733  0.5891  0.7832
  752MOL0     C99154   0.919   4.217   7.672 -0.0422 -0.2502 -0.5422
  752MOL0     C99155   0.835   4.326   7.611 -0.1397  0.5012 -0.4692
  752MOL0     O99156   0.718   4.338   7.688  0.0511  0.2600 -0.0867
  752MOL0     C99157   0.622   4.408   7.622  0.1737  0.0281 -0.7725
  752MOL0     C99158   0.522   4.449   7.717 -0.1445 -0.3711  0.2259
  752MOL0     C99159   0.400   4.503   7.670 -0.4715 -0.8830 -0.3810
  752MOL0     C99160   0.378   4.523   7.528 -0.4707  0.4204 -0.6731
  752MOL0     C99161   0.257   4.581   7.469 -0.4612 -0.7084  0.0128
  752MOL0     O99162   0.232   4.573   7.338  0.3816  0.3271  0.6468
  752MOL0     C99163   0.107   4.612   7.289 -0.0898 -0.9440 -0.3215
  752MOL0     C99164   0.069   4.744   7.293  0.4929 -0.1652  0.2663
  752MOL0     C99165  -0.062   4.779   7.256 -0.3679 -0.5187 -0.4609
  752MOL0     C99166  -0.148   4.682   7.203 -0.2589 -0.1510 -0.4581
  752MOL0     O99167  -0.273   4.714   7.148 -0.4038  0.0218 -0.1680
  752MOL0     C99168  -0.326   4.848   7.172  0.4042  0.1454 -0.7726
  752MOL0     C99169  -0.452   4.850   7.085  0.3407 -0.0853 -1.5915
  752MOL0     C99170  -0.520   4.996   7.090  0.3071  0.4339 -0.6630
  752MOL0     C99171  -0.645   4.997   7.003 -0.7680  0.7634 -1.2025
  752MOL0     C99172  -0.726   5.120   7.035 -0.2944 -0.6022  0.8059
  752MOL0     C99173  -0.770   5.146   7.184  0.0271  0.2364  0.5898
  752MOL0     C99174  -0.892   5.226   7.184  0.4989 -0.1691  0.5194
  752MOL0     C99175  -0.912   5.279   7.328  0.3421 -0.4519 -0.7158
  752MOL0    Cl99176  -1.085   5.340   7.346  0.0926 -0.2048  0.2488
  752MOL0     C99177  -0.102   4.551   7.192  0.1448 -0.0530 -0.1676
  752MOL0     C99178   0.024   4.517   7.237 -0.7025 -0.1944  0.3543
  752MOL0     O99179   0.182   4.632   7.552  0.0784 -0.5084 -0.7074
  752MOL0     C99180   0.479   4.477   7.434 -0.2439 -0.1669 -1.3307
  752MOL0     C99181   0.600   4.420   7.484 -0.3240  0.0035 -0.5782
  752MOL0     N99182   1.325   4.284   7.405  0.5726  0.1329  0.9172
  752MOL0     N99183   1.437   4.220   7.391  0.1377 -0.4876 -0.2289
  752MOL0     C99184   2.553   3.560   7.651 -0.4994  0.2104 -0.0816
  752MOL0     C99185   2.687   3.597   7.632 -0.0188  0.5431  0.4742
  752MOL0     C99186   3.085   3.743   7.505  0.0185 -0.1899  0.5820
  752MOL0     C99187   3.185   3.677   7.437 -0.1171 -0.0332 -0.1671
  752MOL0     C99188   3.314   3.736   7.441  0.1085  0.7674 -0.2596
  752MOL0     C99189   3.341   3.851   7.515  1.0968  0.2746 -0.0680
  752MOL0     O99190   3.466   3.901   7.514 -0.4680 -0.0021  0.7685
  752MOL0     C99191   3.523   3.967   7.629  0.6078  0.0474 -0.3610
  752MOL0     C99192   3.671   3.960   7.623  0.2377 -0.1985  0.1886
  752MOL0     C99193   3.723   3.819   7.577 -0.2124  0.0157  0.6815
  752MOL0     C99194   3.872   3.803   7.607  0.1927  1.6172  0.5418
  752MOL0     C99195   3.944   3.893   7.527  0.2385  1.1451 -0.3030
  752MOL0     C99196   4.021   3.962   7.458  0.5237 -1.2820  0.9862
  752MOL0     C99197   3.244   3.912   7.588  0.2645 -0.5925 -0.3035
  752MOL0     C99198   3.120   3.857   7.586  0.6798 -1.0726  0.3398
  752MOL0     H99199   2.628   3.900   7.484 -0.9114  0.8893  0.3324
  752MOL0     H99200   2.401   3.821   7.504  0.8319 -1.6465 -0.5194
  752MOL0     H99201   2.246   3.675   7.444  0.6218  2.6315  0.1807
  752MOL0     H99202   2.195   3.765   7.583  0.3707  0.0994 -0.0907
  752MOL0     H99203   2.058   3.580   7.677 -1.1867  1.8442 -0.0639
  752MOL0     H99204   2.085   3.497   7.521  1.2428  0.0186  0.3685
  752MOL0     H99205   1.997   3.653   7.380 -0.3259 -1.1770 -0.4276
  752MOL0     H99206   1.981   3.778   7.496 -1.6270  0.6649  0.2495
  752MOL0     H99207   1.812   3.524   7.483  0.0292 -1.7318  3.4645
  752MOL0     H99208   1.813   3.619   7.625 -2.5480 -0.9708 -1.1834
  752MOL0     H99209   1.622   3.671   7.492  1.1826 -1.4152  1.0407
  752MOL0     H99210   1.715   3.714   7.344 -0.8555  0.4654  0.7051
  752MOL0     H99211   1.812   3.911   7.451 -0.6237  0.0555 -1.0608
  752MOL0     H99212   1.734   3.864   7.604  1.5654  1.3243 -0.3937
  752MOL0     H99213   1.586   3.977   7.353 -3.3779 -1.9450 -0.0384
  752MOL0     H99214   1.509   3.898   7.483  1.4877 -1.8153  2.8591
  752MOL0     H99215   1.685   4.151   7.515 -1.8419  0.7617 -2.6456
  752MOL0     H99216   1.604   4.067   7.647 -0.8413 -0.5856 -0.4487
  752MOL0     H99217   1.367   4.152   7.699  1.0689 -2.1541 -1.2887
  752MOL0     H99218   1.097   4.373   7.531  0.3956 -0.7237 -0.7879
  752MOL0     H99219   1.171   4.345   7.684  0.5620  2.4242 -0.7892
  752MOL0     H99220   1.089   4.089   7.661  0.6329 -1.0870 -2.0151
  752MOL0     H99221   1.034   4.132   7.510  1.7288 -0.2960  0.9586
  752MOL0     H99222   0.855   4.129   7.682  0.5244 -0.7024 -0.8473
  752MOL0     H99223   0.954   4.250   7.770 -0.5455 -0.5581 -0.2530
  752MOL0     H99224   0.822   4.291   7.508  1.2348  2.0963 -1.2340
  752MOL0     H99225   0.899   4.415   7.604 -0.3366  0.6817 -0.0099
  752MOL0     H99226   0.531   4.430   7.823  0.8093  1.3897  0.5048
  752MOL0     H99227   0.326   4.518   7.747  0.2613 -1.1142  0.3905
  752MOL0     H99228   0.137   4.823   7.326  1.1357 -0.2225 -0.8709
  752MOL0     H99229  -0.082   4.885   7.259 -2.1152 -0.7744 -1.4881
  752MOL0     H99230  -0.257   4.927   7.141  1.3221  0.2521  1.4053
  752MOL0     H99231  -0.354   4.866   7.276  2.6005  0.0479 -0.1234
  752MOL0     H99232  -0.516   4.775   7.133  2.1716 -0.8724 -0.2332
  752MOL0     H99233  -0.433   4.834   6.978  1.8901  1.9821 -1.6927
  752MOL0     H99234  -0.450   5.073   7.055 -0.1615  0.9394 -0.5005
  752MOL0     H99235  -0.546   5.020   7.193  0.0187 -2.0155 -0.1082
  752MOL0     H99236  -0.627   5.007   6.895 -1.9613  1.7804 -1.3194
  752MOL0     H99237  -0.701   4.904   7.015  0.5928  0.0722  0.1200
  752MOL0     H99238  -0.815   5.122   6.971  1.7294 -0.9203 -2.1985
  752MOL0     H99239  -0.667   5.207   7.004  0.9088 -1.9707 -0.9133
  752MOL0     H99240  -0.683   5.188   7.236  0.4618  0.0085  0.0635
  752MOL0     H99241  -0.794   5.053   7.236  0.0703 -1.4060 -2.1290
  752MOL0     H99242  -0.897   5.314   7.119  2.0701 -1.0476 -0.8355
  752MOL0     H99243  -0.978   5.166   7.154  0.8465 -0.4085 -0.0118
  752MOL0     H99244  -0.835   5.352   7.355 -0.4068  0.7860 -1.7819
  752MOL0     H99245  -0.889   5.191   7.389  2.9663 -1.1126 -2.5216
  752MOL0     H99246  -0.167   4.476   7.149 -0.2207 -0.6445  1.3662
  752MOL0     H99247   0.048   4.413   7.217 -0.1616  0.4533 -3.0346
  752MOL0     H99248   0.458   4.481   7.327 -0.7329 -0.9253 -1.2695
  752MOL0     H99249   0.675   4.386   7.414 -0.5506 -3.0560  0.4979
  752MOL0     H99250   2.523   3.464   7.692  1.0951 -0.1295  0.3260
  752MOL0     H99251   2.760   3.521   7.657  0.7720  0.5990 -1.4990
  752MOL0     H99252   3.159   3.597   7.369  0.2025  0.3179 -0.7152
  752MOL0     H99253   3.396   3.683   7.394 -0.1268 -0.8828  1.1111
  752MOL0     H99254   3.491   3.911   7.717 -0.5978 -0.1410 -0.8906
  752MOL0     H99255   3.479   4.068   7.638 -2.1827 -1.0098 -0.9868
  752MOL0     H99256   3.700   4.048   7.564 -0.3082  1.5383  2.3774
  752MOL0     H99257   3.709   3.978   7.724 -0.1783  1.8228  0.0311
  752MOL0     H99258   3.700   3.807   7.470  1.2537  1.4907  0.1655
  752MOL0     H99259   3.666   3.746   7.635 -0.4584  0.1962  0.6695
  752MOL0     H99260   3.890   3.831   7.711 -1.8029  2.3619  0.7268
  752MOL0     H99261   3.895   3.697   7.592  0.9559  1.9948 -1.2283
  752MOL0     H99262   4.084   4.032   7.407 -1.1722 -0.1898  0.3083
  752MOL0     H99263   3.267   3.998   7.650 -0.4578 -1.7422  1.6436
  752MOL0     H99264   3.043   3.904   7.646  2.7285  2.2869  0.5585
  753MOL0     O99265  10.497  10.936  10.416  0.8168  0.1530  0.1663
  753MOL0     C99266  10.506  10.898  10.296 -0.2718 -0.0569 -0.7465
  753MOL0     O99267  10.408  10.851  10.225 -0.4084 -0.1076 -0.3178
  753MOL0     C99268  10.276  10.854  10.265  0.2255  0.2059  0.1641
  753MOL0     C99269  10.197  10.766  10.202  0.0289 -0.0518 -0.0759
  753MOL0     C99270  10.062  10.765  10.233  0.4005  0.4645 -0.3675
  753MOL0     C99271  10.007  10.850  10.328 -0.4061 -0.0136 -0.1430
  753MOL0     O99272   9.876  10.832  10.363 -0.3789 -0.1970  0.0698
  753MOL0     C99273   9.792  10.950  10.393  0.2715  0.1587 -0.4931
  753MOL0     C99274   9.656  10.896  10.437 -0.0015  0.0359 -0.2975
  753MOL0     C99275   9.563  11.012  10.476 -0.6296 -1.7852 -0.0870
  753MOL0     C99276   9.434  10.967  10.531  0.0431 -0.4865 -0.4038
  753MOL0     C99277   9.330  11.087  10.565  0.0707 -0.0417 -0.1966
  753MOL0     C99278   9.198  11.011  10.602  0.2193 -0.7197  0.5194
  753MOL0     C99279   9.084  11.111  10.627 -0.0230 -0.0085  0.2943
  753MOL0     C99280   8.991  11.021  10.708  0.6027  0.6937  1.2186
  753MOL0     N99281   8.865  11.082  10.754 -0.1060  1.1525  0.3537
  753MOL0     C99282   8.867  11.179  10.847 -0.0177  0.3255  0.5780
  753MOL0     C99283   8.738  11.186  10.887  0.1593  0.2555 -0.3508
  753MOL0     C99284   8.690  11.295  10.983  0.9835  0.5855 -0.8874
  753MOL0     C99285   8.541  11.305  11.001 -0.2750 -0.1307 -0.0213
  753MOL0     C99286   8.522  11.425  11.094 -0.3961  0.0558 -0.0701
  753MOL0     C99287   8.373  11.454  11.123  0.5400  0.6138 -0.3458
  753MOL0     O99288   8.311  11.500  10.997  0.0368  0.4585  0.5984
  753MOL0     C99289   8.175  11.492  10.983  0.2710  0.3953 -0.7239
  753MOL0     C99290   8.131  11.486  10.855 -0.1664  0.5849  0.4923
  753MOL0     C99291   7.994  11.467  10.823 -0.2550  0.5051 -0.0918
  753MOL0     C99292   7.900  11.463  10.924 -0.3719  1.4725  0.0603
  753MOL0     C99293   7.750  11.437  10.896  0.0652  0.0416  0.0810
  753MOL0     O99294   7.711  11.409  10.763  0.5827 -0.5741 -0.2929
  753MOL0     C99295   7.572  11.410  10.730 -0.1963 -0.8080  0.3663
  753MOL0     C99296   7.478  11.330  10.798 -0.1232 -0.1839 -0.2871
  753MOL0     C99297   7.348  11.325  10.750 -0.8953 -0.5882 -1.3848
  753MOL0     C99298   7.304  11.388  10.639 -1.2449 -0.4299  0.2793
  753MOL0     O99299   7.174  11.386  10.601 -0.1191 -0.1343 -0.1331
  753MOL0     C99300   7.096  11.489  10.657  0.2675 -1.2193  0.2303
  753MOL0     C99301   6.953  11.442  10.676  0.3141 -0.3989 -0.4539
  753MOL0     C99302   6.935  11.323  10.780  0.2323 -0.1928  0.1353
  753MOL0     C99303   6.784  11.283  10.800 -0.3095 -0.1625  0.4756
  753MOL0     C99304   6.709  11.397  10.879  0.0883  0.4151 -0.1216
  753MOL0     C99305   6.565  11.361  10.918  0.7039 -0.1790 -0.2494
  753MOL0     C99306   6.548  11.254  11.026 -0.9122  0.3099 -0.2032
  753MOL0     C99307   6.413  11.172  11.015 -0.1285 -0.2947  0.7969
  753MOL0    Cl99308   6.282  11.288  11.035  0.5154 -0.2002  0.2837
  753MOL0     C99309   7.392  11.464  10.567 -0.2556  1.1112  0.6929
  753MOL0     C99310   7.527  11.467  10.609  0.3116 -0.7187 -0.8176
  753MOL0     O99311   7.675  11.430  10.991  0.9956 -0.1735  0.2758
  753MOL0     C99312   7.947  11.476  11.058  0.5567 -0.4239  0.7536
  753MOL0     C99313   8.083  11.492  11.089  0.0313  0.1580 -0.1839
  753MOL0     N99314   8.663  11.086  10.837  0.0244 -0.1292  0.2793
  753MOL0     N99315   8.740  11.030  10.751  1.0230  0.3955 -0.5804
  753MOL0     C99316  10.088  10.952  10.383  0.0004  0.1938 -0.3848
  753MOL0     C99317  10.221  10.951  10.350  1.1985 -0.1542 -0.5145
  753MOL0     C99318  10.636  10.925  10.232 -0.1430 -0.2145 -0.3846
  753MOL0     C99319  10.671  10.838  10.126  0.4362  0.0883 -0.1913
  753MOL0     C99320  10.791  10.857  10.058 -0.8203 -0.4590 -0.7465
  753MOL0     C99321  10.885  10.954  10.108  0.0824  0.1337  0.2738
  753MOL0     O99322  11.010  10.970  10.053 -0.6306  0.2961 -0.1083
  753MOL0     C99323  11.060  10.887   9.948  0.1470 -0.3012 -1.1191
  753MOL0     C99324  11.205  10.925   9.918 -0.2956 -0.3005 -0.2198
  753MOL0     C99325  11.273  10.808   9.837  0.0232 -0.2081 -0.2664
  753MOL0     C99326  11.405  10.855   9.773 -0.0277  0.1718  0.0489
  753MOL0     C99327  11.505  10.897   9.868 -0.1046 -0.0751 -0.3117
  753MOL0     C99328  11.593  10.940   9.948  0.6515  0.7176  0.7167
  753MOL0     C99329  10.848  11.034  10.213 -0.5660  0.5405  0.0478
  753MOL0     C99330  10.728  11.016  10.279 -0.6395  0.5770 -0.0028
  753MOL0     H99331  10.237  10.696  10.130 -1.8373 -0.9258 -0.3215
  753MOL0     H99332  10.006  10.680  10.194 -0.1019 -0.7799  2.7459
  753MOL0     H99333   9.797  11.032  10.321 -1.8903  1.4013  0.6664
  753MOL0     H99334   9.825  10.988  10.490 -0.5741 -0.0826 -0.0988
  753MOL0     H99335   9.656  10.824  10.519 -1.5295 -1.0136 -1.1705
  753MOL0     H99336   9.608  10.839  10.357 -4.0382  1.9137  0.5575
  753MOL0     H99337   9.539  11.076  10.392 -2.3970 -0.7651  1.1357
  753MOL0     H99338   9.610  11.072  10.555  0.5217 -1.7746 -0.7636
  753MOL0     H99339   9.385  10.909  10.452 -2.6062  1.2010 -0.1042
  753MOL0     H99340   9.463  10.927  10.629 -0.5732  3.8895  1.8211
  753MOL0     H99341   9.319  11.156  10.480 -2.2676 -1.9748 -1.5971
  753MOL0     H99342   9.371  11.144  10.649  1.1535 -0.6649 -0.2923
  753MOL0     H99343   9.225  10.963  10.697 -3.2078 -0.0873  1.9840
  753MOL0     H99344   9.180  10.942  10.520 -0.8292  0.0881  0.0342
  753MOL0     H99345   9.104  11.208  10.673  0.1220  1.7215 -3.1107
  753MOL0     H99346   9.040  11.147  10.533  2.8252 -0.4468 -1.2994
  753MOL0     H99347   9.043  10.980  10.795  0.6940  1.3730  1.4942
  753MOL0     H99348   8.962  10.940  10.641  0.9347  0.1612  1.7110
  753MOL0     H99349   8.956  11.235  10.876 -0.3504  1.3257 -0.2914
  753MOL0     H99350   8.719  11.387  10.931  0.5186  1.4973  0.4366
  753MOL0     H99351   8.743  11.280  11.077  0.4009  0.7822 -0.5217
  753MOL0     H99352   8.508  11.220  11.061  0.5540  0.7303  1.7330
  753MOL0     H99353   8.481  11.321  10.912  0.9675  1.9564 -0.5534
  753MOL0     H99354   8.579  11.422  11.188 -0.0860  0.4325 -0.2446
  753MOL0     H99355   8.545  11.516  11.038 -1.7936 -0.1094 -0.9508
  753MOL0     H99356   8.371  11.518  11.212  0.4545  1.3866 -0.8896
  753MOL0     H99357   8.315  11.369  11.161 -0.1136  2.2700  2.6996
  753MOL0     H99358   8.203  11.470  10.775  0.0624 -1.4903  1.0606
  753MOL0     H99359   7.965  11.427  10.726  1.5509  0.1729 -0.5239
  753MOL0     H99360   7.510  11.265  10.880  3.9450 -1.1585 -2.3624
  753MOL0     H99361   7.277  11.262  10.803  1.0411 -2.5623 -1.0089
  753MOL0     H99362   7.082  11.567  10.582 -0.1570  0.2505  1.7868
  753MOL0     H99363   7.119  11.549  10.745 -2.3141  2.3287 -1.2940
  753MOL0     H99364   6.919  11.408  10.578 -1.9119 -0.1906  0.1906
  753MOL0     H99365   6.891  11.529  10.700 -0.8508 -0.6028 -2.5099
  753MOL0     H99366   6.979  11.352  10.876  1.2844 -1.2260 -0.0051
  753MOL0     H99367   6.984  11.233  10.739 -1.2350 -1.4992  1.1228
  753MOL0     H99368   6.727  11.254  10.711  0.5399  0.0492 -0.1370
  753MOL0     H99369   6.786  11.193  10.862 -0.4435 -0.6747 -0.2480
  753MOL0     H99370   6.707  11.478  10.805 -2.6368 -0.5085 -1.2100
  753MOL0     H99371   6.768  11.435  10.963  3.8083  3.4262 -3.6703
  753MOL0     H99372   6.520  11.314  10.830  1.6849 -1.0065 -0.3266
  753MOL0     H99373   6.508  11.448  10.950 -0.7900 -0.3319 -2.2924
  753MOL0     H99374   6.624  11.176  11.019 -0.9903  0.1348  0.6817
  753MOL0     H99375   6.550  11.295  11.128 -1.1311  1.5922 -0.7022
  753MOL0     H99376   6.415  11.105  11.102 -1.7387 -0.9815  0.3618
  753MOL0     H99377   6.404  11.118  10.920  1.8612  1.5374 -0.5059
  753MOL0     H99378   7.366  11.531  10.485  0.1471  1.4692  0.8478
  753MOL0     H99379   7.598  11.530  10.557  1.7236 -0.7838  0.9615
  753MOL0     H99380   7.881  11.459  11.143 -0.2311 -1.1756  0.0134
  753MOL0     H99381   8.116  11.511  11.191  0.9385  0.4448 -0.5218
  753MOL0     H99382  10.049  11.013  10.463  0.2826  1.6957 -1.3433
  753MOL0     H99383  10.278  11.024  10.407  2.3756 -0.2690 -1.5041
  753MOL0     H99384  10.598  10.762  10.102 -1.5424  1.7265  0.3981
  753MOL0     H99385  10.808  10.790   9.974  0.7696 -3.0185  1.4527
  753MOL0     H99386  10.999  10.894   9.857 -0.1452 -1.4627 -1.0256
  753MOL0     H99387  11.061  10.786   9.988 -1.6071 -1.0206 -2.7263
  753MOL0     H99388  11.209  11.016   9.858  0.4031 -0.3784 -0.2991
  753MOL0     H99389  11.255  10.943  10.013 -0.7337 -0.9099  0.1357
  753MOL0     H99390  11.207  10.777   9.756 -0.9779 -2.6404  1.3615
  753MOL0     H99391  11.290  10.716   9.894  0.8443  0.1989  0.1687
  753MOL0     H99392  11.453  10.768   9.729 -0.6816  1.2635 -3.1222
  753MOL0     H99393  11.393  10.933   9.696  0.7008  0.3759  0.1284
  753MOL0     H99394  11.661  11.001  10.005  0.6035  1.8927 -0.4223
  753MOL0     H99395  10.914  11.110  10.254 -1.5332  1.1566  0.4863
  753MOL0     H99396  10.717  11.072  10.371 -0.8847 -1.2863  1.1460
  754MOL0     O99397   9.993   5.802   8.348  0.8369  0.4661  0.8471
  754MOL0     C99398   9.979   5.742   8.451 -0.2394 -0.4972 -0.6524
  754MOL0     O99399   9.858   5.700   8.502  0.0092 -0.1625 -0.3470
  754MOL0     C99400   9.737   5.717   8.440  0.5181  0.6705 -0.7997
  754MOL0     C99401   9.632   5.643   8.476  0.4265 -0.1681 -1.0583
  754MOL0     C99402   9.503   5.658   8.423  0.3185  0.3764  0.6044
  754MOL0     C99403   9.479   5.743   8.318 -0.1135 -0.0633  0.0455
  754MOL0     O99404   9.362   5.726   8.262  1.1425 -0.4925  0.3215
  754MOL0     C99405   9.303   5.837   8.200 -1.1579  0.7402 -0.7560
  754MOL0     C99406   9.228   5.907   8.314  0.1558  0.2125 -0.6614
  754MOL0     C99407   9.130   6.022   8.262 -0.6113  0.0610 -0.3165
  754MOL0     C99408   9.080   6.109   8.378 -0.7214 -0.1762  0.1000
  754MOL0     C99409   9.013   6.244   8.338  0.3186  0.2531  0.0856
  754MOL0     C99410   8.918   6.249   8.221 -0.1669 -0.1188  0.3104
  754MOL0     C99411   8.798   6.169   8.258 -0.6422 -0.2458 -0.2007
  754MOL0     C99412   8.691   6.190   8.147 -0.6109 -0.3376 -0.1229
  754MOL0     N99413   8.572   6.121   8.178 -0.7190  0.4696  0.2711
  754MOL0     C99414   8.517   6.028   8.093 -0.2245 -0.5350  0.4462
  754MOL0     C99415   8.388   6.015   8.129  0.4294 -0.3825 -1.1156
  754MOL0     C99416   8.285   5.941   8.057  0.3903  0.4501  1.0692
  754MOL0     C99417   8.139   5.993   8.062 -0.2802  0.4397  0.4216
  754MOL0     C99418   8.071   5.963   8.193  0.0999  0.0644  0.6119
  754MOL0     C99419   7.920   5.975   8.180  1.2762  0.2892 -0.0390
  754MOL0     O99420   7.861   5.877   8.092  0.2264 -0.1438  0.3542
  754MOL0     C99421   7.733   5.889   8.067  0.7490  0.2881 -0.3846
  754MOL0     C99422   7.695   5.838   7.948 -0.0206 -0.4715 -0.1470
  754MOL0     C99423   7.562   5.825   7.909  0.0451 -0.2766  0.2475
  754MOL0     C99424   7.459   5.865   7.994 -0.9028 -0.4262  1.1428
  754MOL0     C99425   7.317   5.853   7.957  0.7345 -0.2056 -0.2335
  754MOL0     O99426   7.221   5.891   8.040  0.2839  0.1151 -1.0005
  754MOL0     C99427   7.086   5.885   8.014  2.0343 -0.7355 -0.0451
  754MOL0     C99428   7.034   5.876   7.881  0.4934 -0.2790 -0.1564
  754MOL0     C99429   6.896   5.854   7.857  0.1881 -0.5652 -0.4957
  754MOL0     C99430   6.805   5.847   7.964 -0.3003  0.0478 -0.4664
  754MOL0     O99431   6.671   5.827   7.946  0.3432 -0.3689  0.0798
  754MOL0     C99432   6.607   5.927   7.851 -0.8867  0.4451 -0.1833
  754MOL0     C99433   6.471   5.961   7.905 -0.4313  0.5078  0.2606
  754MOL0     C99434   6.388   5.829   7.915 -0.0455 -0.3445 -0.2127
  754MOL0     C99435   6.241   5.866   7.875 -0.0636 -1.3292  0.1830
  754MOL0     C99436   6.153   5.752   7.907 -0.2692 -0.3224 -0.9538
  754MOL0     C99437   6.002   5.776   7.898 -0.9274  0.8004 -0.1901
  754MOL0     C99438   5.960   5.898   7.985  0.0372  0.4454 -0.5715
  754MOL0     C99439   5.809   5.884   8.020 -0.9134 -0.1277 -0.0809
  754MOL0    Cl99440   5.713   5.902   7.871  0.4560 -0.0429  0.2140
  754MOL0     C99441   6.863   5.852   8.095 -0.5459  0.0318  0.2776
  754MOL0     C99442   7.001   5.869   8.126 -0.2012 -0.5214  0.8649
  754MOL0     O99443   7.294   5.808   7.845 -0.3115  0.0564  0.0253
  754MOL0     C99444   7.500   5.919   8.124 -0.4598  0.2194  0.4727
  754MOL0     C99445   7.635   5.920   8.164 -0.2499 -0.5497 -0.0933
  754MOL0     N99446   8.375   6.080   8.252  0.1324  0.8420  0.1898
  754MOL0     N99447   8.487   6.134   8.275  0.0304  0.2082  0.4130
  754MOL0     C99448   9.590   5.826   8.279  0.6913 -0.0269  0.5677
  754MOL0     C99449   9.713   5.817   8.346 -0.0835  0.0919  0.2854
  754MOL0     C99450  10.105   5.712   8.518 -0.4797 -0.0861 -0.5015
  754MOL0     C99451  10.104   5.698   8.657 -0.2537  0.1643  0.6220
  754MOL0     C99452  10.221   5.675   8.729 -0.1308  0.1503  0.5652
  754MOL0     C99453  10.340   5.644   8.662  0.9797  0.7157 -0.0012
  754MOL0     O99454  10.458   5.587   8.722 -0.5342 -0.4233 -0.1481
  754MOL0     C99455  10.509   5.662   8.835  0.8206  0.1303 -0.0117
  754MOL0     C99456  10.652   5.644   8.847 -0.2649  0.1268 -0.0591
  754MOL0     C99457  10.701   5.507   8.803 -0.3268  0.4432  0.5466
  754MOL0     C99458  10.850   5.488   8.801 -0.2482  0.1530  0.7453
  754MOL0     C99459  10.928   5.555   8.694  0.1056 -0.0917  0.3892
  754MOL0     C99460  10.976   5.613   8.598  0.6117 -0.1398 -0.4571
  754MOL0     C99461  10.338   5.646   8.522 -0.4683 -0.2761 -0.3481
  754MOL0     C99462  10.223   5.683   8.445 -0.3049 -0.0882 -0.5616
  754MOL0     H99463   9.646   5.564   8.549 -3.1925 -0.4521 -0.4882
  754MOL0     H99464   9.424   5.597   8.466  1.1245  0.3749  2.1642
  754MOL0     H99465   9.231   5.795   8.129  1.4727 -1.2730 -2.4425
  754MOL0     H99466   9.371   5.906   8.148  2.6627 -1.5836  0.7609
  754MOL0     H99467   9.305   5.950   8.379 -0.4274 -1.2590  1.0777
  754MOL0     H99468   9.174   5.833   8.373 -0.8590 -0.0992 -1.9213
  754MOL0     H99469   9.040   5.976   8.220 -0.8825 -0.7906  1.1234
  754MOL0     H99470   9.181   6.071   8.179  1.4455  1.0510  1.4272
  754MOL0     H99471   9.017   6.044   8.440  0.0509 -0.9165  0.1271
  754MOL0     H99472   9.169   6.140   8.434  1.0258 -1.1156 -2.0403
  754MOL0     H99473   9.091   6.319   8.320 -0.0713  0.4569 -0.8562
  754MOL0     H99474   8.963   6.284   8.427 -2.2170 -0.1198 -1.0672
  754MOL0     H99475   8.963   6.211   8.129  0.2316 -2.2030  1.3028
  754MOL0     H99476   8.889   6.354   8.213  1.2440  0.3967  1.5028
  754MOL0     H99477   8.825   6.067   8.285  1.3341  1.2016  4.3719
  754MOL0     H99478   8.758   6.218   8.348  1.6031  0.5901  0.4228
  754MOL0     H99479   8.732   6.155   8.052 -1.7672 -2.4167  0.0847
  754MOL0     H99480   8.671   6.298   8.146  0.9372  0.0370  1.9039
  754MOL0     H99481   8.551   5.988   7.997 -1.7253 -0.0383 -0.3189
  754MOL0     H99482   8.284   5.841   8.099 -0.4486  0.4353  1.0395
  754MOL0     H99483   8.322   5.921   7.956 -0.4476  0.3190  0.7758
  754MOL0     H99484   8.081   5.961   7.975  3.1259 -0.2291 -1.8025
  754MOL0     H99485   8.149   6.101   8.051  0.9523  0.2064 -1.1663
  754MOL0     H99486   8.082   5.856   8.214 -3.4020 -0.7595 -0.9363
  754MOL0     H99487   8.096   6.027   8.279 -1.0824  1.9741 -0.4036
  754MOL0     H99488   7.882   6.074   8.152 -1.2770 -0.4930  0.3422
  754MOL0     H99489   7.879   5.961   8.281 -1.9034 -1.4859 -1.4309
  754MOL0     H99490   7.766   5.783   7.886 -1.3219  0.1165 -2.2485
  754MOL0     H99491   7.543   5.786   7.810  0.2094  0.2672 -0.0034
  754MOL0     H99492   7.095   5.879   7.791  0.4474  0.6578 -0.1656
  754MOL0     H99493   6.853   5.845   7.757 -1.0975 -2.0338  0.1446
  754MOL0     H99494   6.612   5.882   7.752 -1.1877  0.0308 -0.0143
  754MOL0     H99495   6.666   6.019   7.852 -2.0564  1.2199  0.5558
  754MOL0     H99496   6.427   6.029   7.833  0.0621 -1.3029 -1.8541
  754MOL0     H99497   6.467   6.009   8.004 -0.1611 -2.2541  1.7122
  754MOL0     H99498   6.396   5.776   8.010  1.3811  0.8080  0.3351
  754MOL0     H99499   6.429   5.760   7.840  0.0259 -0.8334  0.2708
  754MOL0     H99500   6.227   5.955   7.937  0.3604 -2.5979  2.2092
  754MOL0     H99501   6.226   5.900   7.772 -1.3657  1.0315  1.0681
  754MOL0     H99502   6.170   5.726   8.012 -3.0149 -0.9282 -0.5659
  754MOL0     H99503   6.171   5.660   7.850  3.1018 -0.6121  0.3927
  754MOL0     H99504   5.969   5.685   7.948  1.7367  0.9895  2.1664
  754MOL0     H99505   5.971   5.784   7.793 -0.7394  4.5221 -0.1053
  754MOL0     H99506   6.025   5.918   8.071 -1.3863  1.4577  0.3140
  754MOL0     H99507   5.970   5.988   7.924  1.9357  0.8852  0.3105
  754MOL0     H99508   5.792   5.971   8.083  2.6891  1.5068 -1.0687
  754MOL0     H99509   5.791   5.787   8.067 -1.6160 -1.2137 -2.4551
  754MOL0     H99510   6.797   5.851   8.181 -2.2305  1.3148 -0.9358
  754MOL0     H99511   7.034   5.878   8.229 -2.0729 -0.7787  1.5111
  754MOL0     H99512   7.424   5.943   8.197  0.0169  1.7318  0.5259
  754MOL0     H99513   7.671   5.928   8.266 -1.0713  0.2302  0.1585
  754MOL0     H99514   9.572   5.914   8.218 -1.8604 -0.8172  0.0417
  754MOL0     H99515   9.793   5.883   8.314 -0.7866  0.8026 -0.0635
  754MOL0     H99516  10.019   5.723   8.720 -0.5263  0.8698 -0.0206
  754MOL0     H99517  10.226   5.657   8.836  2.5893 -1.7423  0.2264
  754MOL0     H99518  10.461   5.615   8.921 -2.2590  0.3345 -1.4713
  754MOL0     H99519  10.483   5.767   8.845  0.6391 -0.0733  2.1042
  754MOL0     H99520  10.705   5.718   8.786  1.2282 -1.0608 -0.2699
  754MOL0     H99521  10.682   5.654   8.952 -0.4852 -2.3913  0.3195
  754MOL0     H99522  10.669   5.495   8.699 -0.7711  0.2536  0.7017
  754MOL0     H99523  10.657   5.424   8.859  3.4437 -2.6637 -0.6591
  754MOL0     H99524  10.896   5.505   8.899 -1.5934 -1.5796  1.7330
  754MOL0     H99525  10.856   5.380   8.786 -0.2495  0.0485  1.4789
  754MOL0     H99526  11.014   5.671   8.517 -3.8043 -0.7344 -3.2549
  754MOL0     H99527  10.428   5.639   8.463 -1.1978  1.3650 -1.7276
  754MOL0     H99528  10.222   5.689   8.337 -0.7055 -0.1086 -0.5609
  755MOL0     O99529  10.432   5.366   9.047 -0.0250  0.0295 -0.1719
  755MOL0     C99530  10.354   5.335   9.137 -0.0653 -0.2803 -0.2782
  755MOL0     O99531  10.386   5.278   9.260 -1.0635  0.3997  0.3140
  755MOL0     C99532  10.519   5.254   9.279 -0.0794 -0.0146  0.0719
  755MOL0     C99533  10.620   5.343   9.252 -0.0047  0.3193  0.5861
  755MOL0     C99534  10.749   5.317   9.297 -0.6691  0.3361 -0.2749
  755MOL0     C99535  10.781   5.192   9.353  0.2077  0.1303  0.5170
  755MOL0     O99536  10.911   5.149   9.383  0.0446 -0.2851 -0.6518
  755MOL0     C99537  11.026   5.225   9.355 -0.0599  0.0972 -0.2321
  755MOL0     C99538  11.146   5.133   9.318  0.2891 -0.4052 -0.3382
  755MOL0     C99539  11.259   5.219   9.277 -0.0010 -0.3330  0.1912
  755MOL0     C99540  11.384   5.133   9.239 -0.3154  0.4909 -0.4036
  755MOL0     C99541  11.489   5.236   9.193 -0.6455  0.0252 -0.6942
  755MOL0     C99542  11.626   5.177   9.166  0.1346  0.0126  0.1777
  755MOL0     C99543  11.735   5.272   9.127  0.1002 -0.6043 -0.3399
  755MOL0     C99544  11.854   5.197   9.077 -0.6736  0.0802 -0.1595
  755MOL0     N99545  11.977   5.288   9.070 -0.3956 -0.1214 -0.3749
  755MOL0     C99546  12.049   5.320   8.955  0.4962 -0.6380 -0.0332
  755MOL0     C99547  12.165   5.387   8.991  0.4562 -0.1729 -0.2619
  755MOL0     C99548  12.283   5.450   8.918  0.1274  0.3546 -0.0132
  755MOL0     C99549  12.387   5.346   8.882 -0.0849  0.3579 -0.0064
  755MOL0     C99550  12.340   5.252   8.770 -0.0250 -1.0470  0.3756
  755MOL0     C99551  12.429   5.129   8.784  0.2373  0.3763  0.2722
  755MOL0     O99552  12.397   5.026   8.687 -0.0167  0.2912 -0.0065
  755MOL0     C99553  12.278   4.959   8.711 -0.1098  0.2266  0.0414
  755MOL0     C99554  12.263   4.861   8.609  0.1412 -0.1825 -0.1021
  755MOL0     C99555  12.146   4.779   8.606  0.3898  0.6617 -0.1776
  755MOL0     C99556  12.046   4.797   8.699  0.6666 -0.6682  0.2638
  755MOL0     C99557  11.911   4.737   8.672 -0.3518 -0.4572  1.1542
  755MOL0     O99558  11.798   4.773   8.747  0.1705 -0.4758 -0.2868
  755MOL0     C99559  11.687   4.713   8.712 -0.0150 -0.7564 -0.3232
  755MOL0     C99560  11.643   4.596   8.772 -0.1506  0.1043 -0.8404
  755MOL0     C99561  11.509   4.542   8.763 -0.7531 -0.4020  0.1425
  755MOL0     C99562  11.416   4.611   8.683 -0.1378 -0.4783 -0.5078
  755MOL0     O99563  11.294   4.551   8.669 -0.0151  0.9571 -0.1642
  755MOL0     C99564  11.182   4.642   8.666  0.5504  0.8380 -0.0754
  755MOL0     C99565  11.061   4.561   8.674 -0.1484  0.1472 -0.8034
  755MOL0     C99566  10.937   4.638   8.666 -0.2462  0.2466 -0.1785
  755MOL0     C99567  10.816   4.551   8.680  0.7993  0.1032 -0.9150
  755MOL0     C99568  10.703   4.625   8.615  0.3782 -0.0688 -0.3832
  755MOL0     C99569  10.574   4.539   8.608  0.5228 -0.4050 -0.4945
  755MOL0     C99570  10.467   4.609   8.522 -1.7242 -0.7761 -0.9988
  755MOL0     C99571  10.333   4.535   8.502 -0.6493 -1.5261  1.1452
  755MOL0    Cl99572  10.228   4.545   8.643 -0.6651  0.0561 -0.1595
  755MOL0     C99573  11.456   4.733   8.621  0.0045 -0.9326 -1.0243
  755MOL0     C99574  11.588   4.779   8.631 -0.8641 -0.0148 -0.0800
  755MOL0     O99575  11.908   4.648   8.591  0.6998 -0.0666 -1.1090
  755MOL0     C99576  12.062   4.891   8.797  0.3041 -0.1238 -0.1796
  755MOL0     C99577  12.179   4.971   8.809 -0.2983  0.5214 -0.2274
  755MOL0     N99578  12.163   5.387   9.128  0.7487 -0.6332 -0.1938
  755MOL0     N99579  12.052   5.333   9.176  0.1653  0.1866  0.1763
  755MOL0     C99580  10.674   5.097   9.379 -0.0215  0.7052 -0.6096
  755MOL0     C99581  10.544   5.126   9.341  0.1878  0.4614  0.5508
  755MOL0     C99582  10.210   5.359   9.122 -0.3220 -0.6455  0.0210
  755MOL0     C99583  10.152   5.423   9.016 -0.4725  0.1068  1.1017
  755MOL0     C99584  10.016   5.449   9.007 -0.0606  0.3876 -0.3054
  755MOL0     C99585   9.930   5.422   9.112  0.2349 -0.0854  0.8618
  755MOL0     O99586   9.802   5.467   9.104 -0.4000  0.1867  0.9806
  755MOL0     C99587   9.708   5.446   9.213  0.6318  0.0763  0.2891
  755MOL0     C99588   9.568   5.490   9.167  0.0741 -0.1118 -0.8924
  755MOL0     C99589   9.474   5.513   9.287  0.7562  0.1830  0.9263
  755MOL0     C99590   9.490   5.650   9.358  0.6100  0.0679 -0.3355
  755MOL0     C99591   9.389   5.668   9.469 -0.0737  0.2633  0.3627
  755MOL0     C99592   9.330   5.671   9.569 -0.1201  0.5265 -0.1422
  755MOL0     C99593   9.978   5.349   9.219  0.1846 -0.1842 -0.5632
  755MOL0     C99594  10.115   5.323   9.230 -1.3258 -0.5901 -0.8749
  755MOL0     H99595  10.595   5.436   9.202  0.1725 -0.0403 -0.1813
  755MOL0     H99596  10.825   5.391   9.274  0.9201 -0.6014  1.6288
  755MOL0     H99597  11.048   5.279   9.448  3.0511 -0.0842 -0.7764
  755MOL0     H99598  11.015   5.287   9.265 -0.2465 -3.2074 -2.6645
  755MOL0     H99599  11.118   5.075   9.229 -1.2189  0.2855 -0.3508
  755MOL0     H99600  11.181   5.069   9.399  0.0420 -1.4999 -1.0729
  755MOL0     H99601  11.279   5.280   9.365  0.1357 -1.9519  1.3305
  755MOL0     H99602  11.237   5.274   9.185 -2.4755 -1.5593 -0.0361
  755MOL0     H99603  11.418   5.079   9.328 -2.6903  2.0215  1.5333
  755MOL0     H99604  11.364   5.067   9.153 -1.2897  1.6284 -1.0703
  755MOL0     H99605  11.497   5.303   9.279 -1.2766  0.1751 -0.7459
  755MOL0     H99606  11.459   5.310   9.117 -1.3600  3.9417  3.0100
  755MOL0     H99607  11.617   5.096   9.094 -2.9513  0.1229  0.3183
  755MOL0     H99608  11.655   5.125   9.257 -1.4603 -3.3024 -1.0453
  755MOL0     H99609  11.702   5.356   9.065  0.9249  0.5568  0.7461
  755MOL0     H99610  11.760   5.321   9.221 -3.7649  3.1359 -0.9713
  755MOL0     H99611  11.843   5.171   8.971 -0.5567  0.3865 -0.2499
  755MOL0     H99612  11.882   5.104   9.128  1.1570 -0.2500 -1.6486
  755MOL0     H99613  12.013   5.333   8.853 -0.9623 -0.5273  0.4786
  755MOL0     H99614  12.323   5.542   8.960  2.5987 -0.8013  0.3884
  755MOL0     H99615  12.248   5.488   8.822 -3.1256 -0.4506  0.7393
  755MOL0     H99616  12.410   5.303   8.980  0.5672  0.3623 -0.1546
  755MOL0     H99617  12.482   5.381   8.841  1.4465 -1.9996  1.3537
  755MOL0     H99618  12.233   5.238   8.782 -0.0576  0.1004  1.6047
  755MOL0     H99619  12.355   5.298   8.671 -1.9634 -0.5450  0.2763
  755MOL0     H99620  12.410   5.088   8.884  0.2283  1.4877  0.7448
  755MOL0     H99621  12.535   5.154   8.773  0.1020  0.2443 -1.8073
  755MOL0     H99622  12.342   4.846   8.536  1.4541  2.9843  0.4917
  755MOL0     H99623  12.137   4.699   8.533  1.0565 -1.1034  1.5858
  755MOL0     H99624  11.710   4.543   8.839  0.1550  0.0076 -1.2161
  755MOL0     H99625  11.473   4.453   8.814  1.2867 -2.8737 -2.4389
  755MOL0     H99626  11.179   4.699   8.573 -2.7743 -0.3932 -0.8755
  755MOL0     H99627  11.195   4.710   8.751  2.5204  1.4783 -0.8359
  755MOL0     H99628  11.053   4.501   8.765  1.1225  1.2008  0.0405
  755MOL0     H99629  11.067   4.494   8.587  0.0279  1.2033 -1.6340
  755MOL0     H99630  10.941   4.690   8.570 -1.1425  2.1046  0.7351
  755MOL0     H99631  10.942   4.721   8.737  2.6286 -0.9869  1.2439
  755MOL0     H99632  10.830   4.453   8.633  1.1416  0.2960 -1.2182
  755MOL0     H99633  10.801   4.531   8.786  3.4518  0.4690 -0.4103
  755MOL0     H99634  10.731   4.647   8.512  0.6016 -0.7858 -0.4825
  755MOL0     H99635  10.690   4.721   8.665  1.6245  0.6515 -1.4100
  755MOL0     H99636  10.543   4.525   8.712  0.7963 -3.5471 -0.7197
  755MOL0     H99637  10.585   4.436   8.572  2.6370 -0.2535 -0.3535
  755MOL0     H99638  10.433   4.702   8.568  1.5176 -0.8506  2.0096
  755MOL0     H99639  10.505   4.616   8.420 -0.9081  0.1428 -0.6496
  755MOL0     H99640  10.350   4.429   8.478  0.5316 -0.5083 -3.7229
  755MOL0     H99641  10.284   4.579   8.415  0.1662  0.2855  1.5603
  755MOL0     H99642  11.397   4.795   8.553 -2.2110 -0.9697  0.7356
  755MOL0     H99643  11.609   4.877   8.590  1.2961  0.0969  1.1311
  755MOL0     H99644  11.985   4.907   8.872 -1.1766 -1.6207 -1.2905
  755MOL0     H99645  12.179   5.043   8.890  0.0434  0.4366 -0.1498
  755MOL0     H99646  10.706   5.004   9.426 -2.0163 -1.1321 -2.6426
  755MOL0     H99647  10.466   5.053   9.360  0.8613 -0.3976  0.0957
  755MOL0     H99648  10.218   5.454   8.934 -1.2867  1.6522  0.9937
  755MOL0     H99649   9.962   5.509   8.934 -2.1228  1.3138  1.8788
  755MOL0     H99650   9.743   5.500   9.301  0.6633 -0.4087  0.5772
  755MOL0     H99651   9.701   5.338   9.233 -2.5608  0.0186 -0.5174
  755MOL0     H99652   9.576   5.581   9.105 -4.4786  1.4063  0.3754
  755MOL0     H99653   9.523   5.415   9.101 -0.3039  0.6566 -1.5355
  755MOL0     H99654   9.492   5.439   9.366 -2.3481 -0.9701  0.7085
  755MOL0     H99655   9.373   5.510   9.245  1.4683  0.9231 -0.9333
  755MOL0     H99656   9.587   5.664   9.405 -1.0724  2.2080  2.8838
  755MOL0     H99657   9.475   5.733   9.288  4.1533 -1.7804 -3.6311
  755MOL0     H99658   9.278   5.658   9.662 -0.4455  3.5803  0.2123
  755MOL0     H99659   9.911   5.325   9.300  0.9490 -0.7646 -0.0899
  755MOL0     H99660  10.145   5.275   9.323 -0.1243  2.4109  0.4450
  756MOL0     O99661   2.886   1.571   4.373  1.1226 -0.3659  0.4172
  756MOL0     C99662   2.971   1.600   4.288  0.0471 -0.1482 -0.6590
  756MOL0     O99663   2.946   1.675   4.176  0.0035 -0.2670  0.0435
  756MOL0     C99664   2.816   1.704   4.153  0.5220  0.2809 -0.8367
  756MOL0     C99665   2.731   1.630   4.067 -0.0006 -0.2245  0.2861
  756MOL0     C99666   2.598   1.672   4.049  0.3849  0.1773 -0.0419
  756MOL0     C99667   2.553   1.787   4.115  0.1698  0.0773  1.2883
  756MOL0     O99668   2.425   1.846   4.099 -0.1550 -0.2783 -0.0168
  756MOL0     C99669   2.313   1.753   4.093 -0.8551  0.7339 -0.0668
  756MOL0     C99670   2.194   1.787   4.178  0.3393 -0.4009  0.0794
  756MOL0     C99671   2.099   1.666   4.181 -0.6635  0.2055  0.1087
  756MOL0     C99672   1.967   1.713   4.226 -0.3228 -0.5095 -0.6177
  756MOL0     C99673   1.888   1.603   4.285  0.5533  0.7128 -0.8883
  756MOL0     C99674   1.920   1.577   4.427 -0.4340 -0.0781  0.5762
  756MOL0     C99675   1.868   1.683   4.524  0.3196  0.6218 -0.1116
  756MOL0     C99676   1.873   1.645   4.674  0.3602  0.2477 -0.0962
  756MOL0     N99677   1.779   1.538   4.706 -0.7295 -0.3205  0.4398
  756MOL0     C99678   1.638   1.559   4.716 -0.0649 -0.4883  1.0986
  756MOL0     C99679   1.594   1.434   4.735 -0.3500 -0.3122  0.8918
  756MOL0     C99680   1.448   1.393   4.736 -0.6609 -0.2738 -0.0515
  756MOL0     C99681   1.377   1.461   4.849 -0.2317  0.2917 -0.8717
  756MOL0     C99682   1.426   1.408   4.976  0.0925 -0.2338  0.3773
  756MOL0     C99683   1.340   1.462   5.088  0.2598  0.5927  0.2226
  756MOL0     O99684   1.204   1.422   5.075 -0.8612 -0.2523 -0.1421
  756MOL0     C99685   1.119   1.462   5.177 -0.1591  0.3168  0.1590
  756MOL0     C99686   1.163   1.519   5.293  0.9374 -0.1944  0.2320
  756MOL0     C99687   1.079   1.552   5.399  0.5086  0.2711 -0.8263
  756MOL0     C99688   0.939   1.524   5.386  0.9255  0.2078  0.2547
  756MOL0     C99689   0.849   1.553   5.504  0.0597  0.6240  0.5587
  756MOL0     O99690   0.732   1.478   5.496  0.1145  0.4474  0.3991
  756MOL0     C99691   0.646   1.502   5.605  0.0589 -0.3334 -0.2382
  756MOL0     C99692   0.555   1.610   5.610 -0.8443  0.4695  0.4045
  756MOL0     C99693   0.481   1.638   5.717  0.2637  0.1326 -0.5742
  756MOL0     C99694   0.476   1.545   5.826 -0.1443  0.5136  0.1021
  756MOL0     O99695   0.393   1.575   5.931  0.2660  0.4834 -0.1425
  756MOL0     C99696   0.430   1.520   6.059  0.7609 -0.1893 -0.5104
  756MOL0     C99697   0.343   1.583   6.169  0.6869 -0.7469  0.0631
  756MOL0     C99698   0.205   1.537   6.176  0.0565  0.1703 -0.2150
  756MOL0     C99699   0.140   1.610   6.293 -0.0451  0.5203  0.3232
  756MOL0     C99700   0.003   1.550   6.323 -0.3302  0.1354  0.1036
  756MOL0     C99701  -0.049   1.626   6.450 -1.3314 -0.2152  0.6866
  756MOL0     C99702  -0.193   1.621   6.474  0.5122  0.2732  0.2069
  756MOL0     C99703  -0.278   1.701   6.380  0.2705 -0.2607  0.4468
  756MOL0    Cl99704  -0.452   1.701   6.416 -0.2947  0.4423 -0.5764
  756MOL0     C99705   0.562   1.437   5.827  0.8079 -1.1429 -0.4619
  756MOL0     C99706   0.645   1.416   5.714 -0.5192  0.4443 -0.5693
  756MOL0     O99707   0.882   1.626   5.596  0.3817 -0.3653 -0.2357
  756MOL0     C99708   0.891   1.484   5.261 -0.8262  0.4204  0.4896
  756MOL0     C99709   0.987   1.451   5.154 -0.6524 -1.6770  0.0567
  756MOL0     N99710   1.697   1.346   4.760 -0.0265 -0.0448 -0.2248
  756MOL0     N99711   1.811   1.408   4.739 -0.6679  0.7101 -0.7729
  756MOL0     C99712   2.635   1.867   4.189  0.4492  0.2785  0.5277
  756MOL0     C99713   2.765   1.826   4.207  0.4604 -0.1951  0.1642
  756MOL0     C99714   3.112   1.553   4.307 -0.2050 -0.8042  0.7615
  756MOL0     C99715   3.209   1.599   4.216 -0.3776 -0.0232 -0.9328
  756MOL0     C99716   3.344   1.562   4.228 -1.1658 -0.2127 -0.6864
  756MOL0     C99717   3.387   1.473   4.328 -0.6780 -0.5857 -0.0691
  756MOL0     O99718   3.516   1.431   4.315 -0.2498 -0.2074 -0.1518
  756MOL0     C99719   3.565   1.333   4.411  1.0917 -0.5595  0.0774
  756MOL0     C99720   3.706   1.283   4.368  0.5238 -0.2109 -0.1473
  756MOL0     C99721   3.688   1.233   4.221  0.4191 -0.0448  0.0384
  756MOL0     C99722   3.830   1.200   4.164  0.1942 -0.3986  0.3333
  756MOL0     C99723   3.825   1.138   4.031 -0.6557 -0.3620 -0.1501
  756MOL0     C99724   3.837   1.089   3.922 -0.2861 -0.4124  0.5591
  756MOL0     C99725   3.288   1.442   4.422  0.1539  0.0178 -0.3783
  756MOL0     C99726   3.155   1.475   4.415 -0.2229 -0.7331  0.2048
  756MOL0     H99727   2.761   1.541   4.014 -1.2948  0.2574 -1.3439
  756MOL0     H99728   2.525   1.630   3.981 -1.1529  2.2322  0.2632
  756MOL0     H99729   2.344   1.656   4.133  1.5785  0.6586 -1.8921
  756MOL0     H99730   2.278   1.743   3.990  0.6427  2.0384 -0.7470
  756MOL0     H99731   2.148   1.873   4.129  1.9038 -0.5013 -1.6784
  756MOL0     H99732   2.224   1.815   4.280  0.8491  0.7780 -0.3749
  756MOL0     H99733   2.146   1.600   4.254 -1.0369 -0.9358 -0.6466
  756MOL0     H99734   2.091   1.621   4.081  1.0181 -0.5437  0.2766
  756MOL0     H99735   1.971   1.798   4.294  2.1016  0.9244 -2.3437
  756MOL0     H99736   1.917   1.748   4.135  2.0109 -1.1396 -2.2298
  756MOL0     H99737   1.897   1.508   4.230  0.2296 -0.6880  1.3434
  756MOL0     H99738   1.781   1.626   4.280  0.3206 -0.3843 -1.3251
  756MOL0     H99739   2.025   1.556   4.446 -0.3685 -3.4473 -2.5547
  756MOL0     H99740   1.864   1.486   4.447 -1.6847  0.8591  1.5600
  756MOL0     H99741   1.915   1.778   4.497  0.6337 -0.0188 -1.8853
  756MOL0     H99742   1.762   1.707   4.509  0.0105  1.0803  2.2756
  756MOL0     H99743   1.846   1.731   4.736  1.3529  0.4879  0.0283
  756MOL0     H99744   1.972   1.610   4.707  0.0813  0.1267  0.6309
  756MOL0     H99745   1.578   1.646   4.692  1.0394  0.3964  1.4506
  756MOL0     H99746   1.452   1.286   4.759  0.8621  0.0909  1.6225
  756MOL0     H99747   1.394   1.411   4.643 -2.6529  2.2762  1.4731
  756MOL0     H99748   1.271   1.439   4.835 -1.1011  2.9638  0.7123
  756MOL0     H99749   1.382   1.570   4.857  0.8059  0.0862  2.3742
  756MOL0     H99750   1.418   1.299   4.977 -0.1515 -0.2369 -0.7896
  756MOL0     H99751   1.527   1.445   4.994 -0.4424  2.3059 -1.3291
  756MOL0     H99752   1.347   1.571   5.094 -1.0792  0.6216  2.2582
  756MOL0     H99753   1.383   1.433   5.184  0.5712 -0.9352 -0.3324
  756MOL0     H99754   1.266   1.547   5.314  0.3127  1.3250  1.4327
  756MOL0     H99755   1.107   1.596   5.494  0.7944  0.3437 -0.9398
  756MOL0     H99756   0.555   1.679   5.526 -0.0840  1.2552  1.0251
  756MOL0     H99757   0.423   1.729   5.722  0.0917 -0.0662  1.7883
  756MOL0     H99758   0.538   1.534   6.071  0.4128  3.4679 -0.6952
  756MOL0     H99759   0.411   1.412   6.064 -1.7260  0.2053 -0.2216
  756MOL0     H99760   0.324   1.690   6.151 -0.3960 -0.9467 -0.0144
  756MOL0     H99761   0.388   1.559   6.266 -0.7265  2.0078  1.5293
  756MOL0     H99762   0.198   1.428   6.172  0.2140  0.1960 -1.4773
  756MOL0     H99763   0.157   1.573   6.085  0.8987 -0.8676 -1.0941
  756MOL0     H99764   0.192   1.580   6.384 -2.6085 -2.9766  0.8500
  756MOL0     H99765   0.136   1.719   6.284 -2.0954  0.5533  1.1315
  756MOL0     H99766  -0.001   1.442   6.337  0.8434 -0.0584 -0.8474
  756MOL0     H99767  -0.060   1.575   6.237  0.5092 -0.9010 -0.8470
  756MOL0     H99768  -0.023   1.732   6.440 -0.1987 -0.6583 -2.0307
  756MOL0     H99769   0.015   1.592   6.532 -3.1082  0.6134  2.5134
  756MOL0     H99770  -0.233   1.519   6.475 -2.7613  1.3739 -1.7723
  756MOL0     H99771  -0.205   1.666   6.573 -3.8856 -0.3640  0.1803
  756MOL0     H99772  -0.264   1.657   6.281 -0.7813  2.0249 -0.8130
  756MOL0     H99773  -0.245   1.805   6.373  0.5647 -0.3566  0.4132
  756MOL0     H99774   0.572   1.372   5.913  3.4965 -0.3623 -0.0738
  756MOL0     H99775   0.696   1.320   5.707 -1.8072 -0.4077  1.0285
  756MOL0     H99776   0.783   1.482   5.243 -0.7767  0.3522  0.1944
  756MOL0     H99777   0.943   1.414   5.062 -2.1917  1.0983 -0.4263
  756MOL0     H99778   2.604   1.960   4.235  1.8681  0.7667  0.5444
  756MOL0     H99779   2.836   1.892   4.256  1.1553 -0.9049  0.1321
  756MOL0     H99780   3.178   1.654   4.128  3.1262  2.4273 -0.8347
  756MOL0     H99781   3.417   1.580   4.150 -1.7221 -1.4347 -1.5164
  756MOL0     H99782   3.503   1.244   4.398  1.1716 -0.6118  0.0533
  756MOL0     H99783   3.560   1.359   4.517 -2.7311  1.4647 -0.4147
  756MOL0     H99784   3.785   1.352   4.397 -1.4974  2.4637 -0.5917
  756MOL0     H99785   3.717   1.188   4.420 -1.2618 -0.5454 -0.2995
  756MOL0     H99786   3.645   1.310   4.156 -2.8210 -1.7453 -0.0580
  756MOL0     H99787   3.629   1.141   4.215 -0.6807  0.7316 -1.7584
  756MOL0     H99788   3.896   1.288   4.163 -2.5179  1.8278 -2.3851
  756MOL0     H99789   3.880   1.124   4.225  0.4424 -1.0705 -0.6850
  756MOL0     H99790   3.843   1.030   3.833 -1.8668 -2.8150  1.9211
  756MOL0     H99791   3.311   1.381   4.508 -0.7495 -0.9844 -0.8236
  756MOL0     H99792   3.081   1.443   4.488 -1.5428  0.8590 -0.3684
  757MOL0     O99793  10.239   1.660   2.818  0.2159  0.5586  0.2533
  757MOL0     C99794  10.272   1.553   2.867  0.1426  0.1516  0.4519
  757MOL0     O99795  10.178   1.469   2.931  0.2190  0.1731 -0.1697
  757MOL0     C99796  10.043   1.466   2.909 -0.9622  0.0485  0.0674
  757MOL0     C99797   9.984   1.364   2.834  0.0552 -0.8919 -0.6151
  757MOL0     C99798   9.849   1.368   2.803  1.1486 -0.1226 -0.2716
  757MOL0     C99799   9.770   1.478   2.841 -0.7287  0.2480 -0.0961
  757MOL0     O99800   9.639   1.464   2.807  0.6202  0.6131 -0.5935
  757MOL0     C99801   9.547   1.491   2.909 -0.4701 -0.4184  0.5121
  757MOL0     C99802   9.427   1.398   2.898  0.4201  0.3129  0.1491
  757MOL0     C99803   9.302   1.457   2.973  0.1024  0.0238 -0.4369
  757MOL0     C99804   9.198   1.342   2.977 -0.1095 -0.1943  0.3757
  757MOL0     C99805   9.071   1.401   3.016  1.3237  1.1408  0.0612
  757MOL0     C99806   8.957   1.302   3.020 -0.1816  0.7432  0.0839
  757MOL0     C99807   8.821   1.369   3.025  0.5566 -0.1827 -0.2121
  757MOL0     C99808   8.705   1.278   3.025 -0.8971 -0.2950 -1.1896
  757MOL0     N99809   8.592   1.367   2.999 -0.3803  0.5725 -1.5995
  757MOL0     C99810   8.542   1.401   2.882 -0.4365  0.7025  0.6159
  757MOL0     C99811   8.440   1.484   2.905 -0.4938 -0.2360 -0.8803
  757MOL0     C99812   8.336   1.543   2.816  0.1458  0.3147  0.9212
  757MOL0     C99813   8.245   1.458   2.727 -0.2781  0.0983 -0.1131
  757MOL0     C99814   8.171   1.341   2.810 -0.5632  0.1599 -0.1729
  757MOL0     C99815   8.044   1.384   2.887 -0.2216  0.7477 -0.5539
  757MOL0     O99816   7.949   1.431   2.786  0.1989 -0.1870 -0.3673
  757MOL0     C99817   7.820   1.460   2.827  0.3150  1.2776  0.5930
  757MOL0     C99818   7.730   1.490   2.728 -0.2878 -0.5723  0.3749
  757MOL0     C99819   7.596   1.519   2.762  0.5201  0.8286 -0.3766
  757MOL0     C99820   7.548   1.517   2.893 -0.0899 -0.5180 -0.4349
  757MOL0     C99821   7.415   1.571   2.931 -0.3699  0.0890 -0.4819
  757MOL0     O99822   7.342   1.636   2.838  0.4758  0.4776  0.3365
  757MOL0     C99823   7.230   1.711   2.878 -0.1308  0.3308 -0.0374
  757MOL0     C99824   7.209   1.841   2.836  0.2084  0.7370  0.2032
  757MOL0     C99825   7.084   1.903   2.850  0.0847  0.1293 -0.5139
  757MOL0     C99826   6.976   1.833   2.900  1.1395  0.1862  1.0919
  757MOL0     O99827   6.851   1.896   2.892 -0.1671 -0.3126 -0.1048
  757MOL0     C99828   6.734   1.818   2.935  0.5937  0.2124  0.6172
  757MOL0     C99829   6.607   1.913   2.931  0.0998  0.5042 -0.2380
  757MOL0     C99830   6.483   1.829   2.967 -0.0523 -0.2321 -0.4662
  757MOL0     C99831   6.353   1.910   2.937  0.5664 -0.1950 -0.0483
  757MOL0     C99832   6.333   2.056   2.996 -0.0411 -0.1547 -0.5067
  757MOL0     C99833   6.205   2.136   2.950 -0.1483 -0.1941  0.3141
  757MOL0     C99834   6.063   2.079   2.991  0.2650 -0.4619  0.4107
  757MOL0     C99835   6.028   2.073   3.136  0.5928 -0.0549 -0.0036
  757MOL0    Cl99836   6.063   2.229   3.212  0.0374  0.0334  0.0606
  757MOL0     C99837   6.990   1.700   2.922  1.1874 -0.1876  0.2276
  757MOL0     C99838   7.122   1.632   2.916  0.5477  0.0798 -0.3759
  757MOL0     O99839   7.387   1.550   3.047 -0.1685  0.3842 -0.0016
  757MOL0     C99840   7.642   1.479   2.992  0.0337 -0.0303 -0.5012
  757MOL0     C99841   7.770   1.453   2.962  0.5142  0.5251 -0.4189
  757MOL0     N99842   8.430   1.502   3.043 -0.6215  1.1549  0.6914
  757MOL0     N99843   8.520   1.423   3.100 -0.2759 -0.4147 -0.6925
  757MOL0     C99844   9.830   1.585   2.910  0.4395  0.5010 -0.3775
  757MOL0     C99845   9.965   1.577   2.932  0.6093 -0.2390 -0.4808
  757MOL0     C99846  10.414   1.521   2.871 -0.1818 -0.7132  0.4373
  757MOL0     C99847  10.459   1.411   2.942 -0.3472 -0.4950 -0.3569
  757MOL0     C99848  10.590   1.390   2.968 -0.9623 -0.2541  0.5612
  757MOL0     C99849  10.692   1.478   2.922  0.3222  0.2120  0.9517
  757MOL0     O99850  10.822   1.439   2.959  0.9720  0.4079 -0.0398
  757MOL0     C99851  10.930   1.520   2.936  0.1698  0.3692  0.4508
  757MOL0     C99852  10.913   1.666   2.995 -0.5210  0.7053 -0.2302
  757MOL0     C99853  11.041   1.749   2.955  0.8555 -0.8089 -0.1658
  757MOL0     C99854  11.162   1.710   3.039 -0.4002  0.5308  0.2174
  757MOL0     C99855  11.145   1.698   3.183  0.5517 -0.4209 -0.3586
  757MOL0     C99856  11.124   1.702   3.304  0.5982 -0.3088 -0.3241
  757MOL0     C99857  10.654   1.581   2.842 -0.1452  0.2794  0.1861
  757MOL0     C99858  10.518   1.600   2.817 -0.2661  0.2444 -0.1182
  757MOL0     H99859  10.040   1.281   2.792  3.0139  1.0886 -0.9227
  757MOL0     H99860   9.814   1.288   2.739  1.2237  0.1883 -0.7042
  757MOL0     H99861   9.523   1.598   2.906 -1.4051 -0.3910  4.1359
  757MOL0     H99862   9.589   1.480   3.009 -1.1523  0.6488  0.9244
  757MOL0     H99863   9.465   1.303   2.937  0.9698  0.5593  0.2321
  757MOL0     H99864   9.395   1.381   2.795 -1.6659  0.6652  0.7006
  757MOL0     H99865   9.255   1.546   2.930  1.3398  0.8473 -0.1470
  757MOL0     H99866   9.320   1.492   3.075 -1.5124  1.4049 -0.5682
  757MOL0     H99867   9.188   1.305   2.874 -0.5122  3.3614 -0.9897
  757MOL0     H99868   9.228   1.256   3.037 -1.6755 -1.5086 -0.6198
  757MOL0     H99869   9.046   1.478   2.943 -2.5005  0.1519  0.1164
  757MOL0     H99870   9.084   1.449   3.114  0.1431 -1.5993  1.7033
  757MOL0     H99871   8.968   1.224   3.096 -0.7615 -0.7390 -1.3024
  757MOL0     H99872   8.968   1.239   2.932  1.1707 -1.6954  1.8730
  757MOL0     H99873   8.819   1.429   3.116  1.4732 -0.8016  0.2251
  757MOL0     H99874   8.817   1.436   2.938  0.5250 -0.5595 -0.5050
  757MOL0     H99875   8.691   1.235   3.125 -0.1638  1.8279 -0.1070
  757MOL0     H99876   8.721   1.197   2.954 -0.9752 -0.8953 -0.5364
  757MOL0     H99877   8.578   1.367   2.785  0.2542  2.8662  0.0436
  757MOL0     H99878   8.382   1.622   2.756 -1.3604 -1.3482 -2.7554
  757MOL0     H99879   8.273   1.607   2.878  1.3148  1.1888  1.2355
  757MOL0     H99880   8.313   1.408   2.656 -0.0550 -0.9904  0.8371
  757MOL0     H99881   8.181   1.526   2.671 -0.8280  1.2309  1.8140
  757MOL0     H99882   8.162   1.251   2.750 -0.6878  0.4995 -0.6665
  757MOL0     H99883   8.238   1.307   2.890 -0.5780  1.5752  0.4880
  757MOL0     H99884   8.055   1.469   2.955  0.1143 -0.8583  1.5336
  757MOL0     H99885   8.006   1.300   2.947  2.1216 -0.8443 -1.1688
  757MOL0     H99886   7.755   1.477   2.624  1.4703  2.7420  0.2441
  757MOL0     H99887   7.536   1.530   2.672 -0.0458 -1.7159 -0.3997
  757MOL0     H99888   7.276   1.895   2.770 -0.8195 -2.1885 -3.5719
  757MOL0     H99889   7.064   2.002   2.810 -1.6107  0.3620  0.7514
  757MOL0     H99890   6.754   1.780   3.035  2.9763 -0.1512  0.0722
  757MOL0     H99891   6.703   1.746   2.858 -1.1342  0.8867  0.6412
  757MOL0     H99892   6.604   1.957   2.831  2.2087 -1.5932 -1.3246
  757MOL0     H99893   6.616   1.994   3.004  2.6208 -0.7012  0.8969
  757MOL0     H99894   6.486   1.805   3.074 -0.3766 -3.2550 -1.0673
  757MOL0     H99895   6.478   1.737   2.909  0.0032 -0.4972 -0.0555
  757MOL0     H99896   6.350   1.912   2.828 -0.5959  4.5522 -0.1382
  757MOL0     H99897   6.267   1.850   2.970 -1.8567  1.7214 -2.3903
  757MOL0     H99898   6.421   2.119   2.980  0.8706 -1.2650  0.0348
  757MOL0     H99899   6.329   2.043   3.104  1.7280 -0.3164 -0.4420
  757MOL0     H99900   6.204   2.145   2.841 -1.0295 -0.6788  0.2663
  757MOL0     H99901   6.215   2.242   2.973  0.6953  0.0185 -0.9700
  757MOL0     H99902   5.988   2.148   2.950  0.9608 -0.2315 -0.5061
  757MOL0     H99903   6.044   1.983   2.941  1.5615 -1.8797  2.5051
  757MOL0     H99904   6.078   1.985   3.177 -0.0204 -1.5051 -2.1515
  757MOL0     H99905   5.921   2.048   3.140  0.5499  0.2749  1.0076
  757MOL0     H99906   6.901   1.646   2.951  0.1565  1.4339  0.1662
  757MOL0     H99907   7.137   1.528   2.944 -1.0848  0.3827  1.9349
  757MOL0     H99908   7.606   1.486   3.094 -3.8462  0.9430 -1.7823
  757MOL0     H99909   7.824   1.448   3.056 -0.7131 -1.1397  0.2517
  757MOL0     H99910   9.764   1.663   2.946 -0.4497  0.1406 -1.1894
  757MOL0     H99911   9.996   1.669   2.981 -1.7153 -0.3437  1.3864
  757MOL0     H99912  10.384   1.344   2.983 -1.1174 -0.1237 -1.1411
  757MOL0     H99913  10.618   1.300   3.021 -1.1524 -1.4081 -1.2066
  757MOL0     H99914  10.951   1.526   2.829 -0.2659 -2.2391  0.1752
  757MOL0     H99915  11.016   1.472   2.985 -0.0603 -1.0223 -0.4597
  757MOL0     H99916  10.826   1.717   2.954  0.7010  3.0591 -0.0305
  757MOL0     H99917  10.908   1.659   3.104  2.4537  0.1318 -0.0476
  757MOL0     H99918  11.022   1.856   2.966 -0.7227 -1.3441  4.0384
  757MOL0     H99919  11.059   1.731   2.849 -0.2970 -1.7293 -0.2229
  757MOL0     H99920  11.209   1.623   2.991  1.7989  2.4167 -1.2741
  757MOL0     H99921  11.243   1.781   3.021  1.8505 -1.5296  1.4985
  757MOL0     H99922  11.127   1.708   3.411  0.3416 -0.7164 -0.2928
  757MOL0     H99923  10.719   1.649   2.789  1.6055  2.5225  4.7125
  757MOL0     H99924  10.502   1.685   2.752  2.0295  1.1152  0.3487
  758MOL0     O99925   5.932   3.102   4.103  0.1302 -0.3732 -0.2184
  758MOL0     C99926   5.909   3.115   3.981  0.5214 -0.2970 -0.0111
  758MOL0     O99927   5.816   3.184   3.916 -0.3919 -0.9185 -0.3155
  758MOL0     C99928   5.721   3.267   3.976  0.0250  0.5291 -0.6143
  758MOL0     C99929   5.724   3.322   4.103  0.0759  0.1427  0.2203
  758MOL0     C99930   5.625   3.406   4.150 -0.1919 -0.0396 -0.6798
  758MOL0     C99931   5.520   3.453   4.072 -0.8239 -0.6815 -0.0728
  758MOL0     O99932   5.443   3.557   4.115 -0.7319 -0.1684  0.1967
  758MOL0     C99933   5.313   3.591   4.066  0.4113 -0.6908 -0.0744
  758MOL0     C99934   5.262   3.704   4.145 -0.2629 -0.1987 -0.6936
  758MOL0     C99935   5.128   3.756   4.090 -0.5106 -0.0179  0.6839
  758MOL0     C99936   5.058   3.867   4.169 -0.0760 -0.5061  0.9726
  758MOL0     C99937   5.156   3.968   4.234 -0.6883  0.5505 -0.0871
  758MOL0     C99938   5.090   4.105   4.267  0.0387  1.1323 -0.2021
  758MOL0     C99939   5.194   4.191   4.337  1.1320 -0.2238  0.3621
  758MOL0     C99940   5.123   4.318   4.390  0.7022  0.8781 -0.8714
  758MOL0     N99941   5.069   4.411   4.292  0.4339 -0.5066 -0.0413
  758MOL0     C99942   5.142   4.470   4.192 -0.6160  0.2470  0.6137
  758MOL0     C99943   5.051   4.516   4.102  0.5717 -0.1905  0.3625
  758MOL0     C99944   5.104   4.576   3.972  0.0692  0.0362 -0.0281
  758MOL0     C99945   5.007   4.524   3.859 -0.1992  0.3744  0.2602
  758MOL0     C99946   5.009   4.611   3.737 -0.2079  0.5212  0.2852
  758MOL0     C99947   4.914   4.569   3.632  0.2421 -0.3585  0.4873
  758MOL0     O99948   4.942   4.430   3.602 -0.8619 -0.4778 -0.3686
  758MOL0     C99949   4.872   4.361   3.501 -0.0630 -0.0483  0.3821
  758MOL0     C99950   4.739   4.403   3.467 -1.3841  0.3658 -0.6162
  758MOL0     C99951   4.676   4.339   3.364 -0.1518  0.5351  0.0695
  758MOL0     C99952   4.736   4.233   3.295  0.5005 -0.1984 -0.3961
  758MOL0     C99953   4.657   4.161   3.193  0.1289 -1.3809 -0.0755
  758MOL0     O99954   4.590   4.241   3.107  0.2809 -0.4366 -1.0951
  758MOL0     C99955   4.573   4.192   2.983 -0.0737  0.3018  0.3357
  758MOL0     C99956   4.660   4.229   2.882 -0.0775  0.9999  0.3499
  758MOL0     C99957   4.635   4.172   2.756  0.9953 -0.2106  0.6068
  758MOL0     C99958   4.516   4.096   2.721 -0.6171  0.5563  0.0438
  758MOL0     O99959   4.498   4.043   2.598  0.5233  0.4128 -0.3765
  758MOL0     C99960   4.454   3.906   2.594 -1.1335  0.8960  0.5954
  758MOL0     C99961   4.482   3.849   2.455  0.9588 -0.0615  0.6895
  758MOL0     C99962   4.426   3.709   2.436  0.3211  0.2800  0.7342
  758MOL0     C99963   4.480   3.651   2.298 -0.3990 -0.3067 -0.5528
  758MOL0     C99964   4.412   3.514   2.278  0.4960  0.2537 -0.2418
  758MOL0     C99965   4.436   3.467   2.140 -0.0320  0.3270  0.4482
  758MOL0     C99966   4.352   3.344   2.113 -0.4283  0.8484 -0.7102
  758MOL0     C99967   4.201   3.377   2.091  0.4698 -0.1954 -0.3652
  758MOL0    Cl99968   4.109   3.339   2.241  0.5342 -0.1874  0.0787
  758MOL0     C99969   4.443   4.060   2.832 -0.7579 -0.7082  0.0172
  758MOL0     C99970   4.473   4.109   2.961 -0.7355  0.0926 -0.4199
  758MOL0     O99971   4.686   4.047   3.174 -0.2590 -0.5080  0.2446
  758MOL0     C99972   4.861   4.188   3.331 -0.0095  1.0732  0.1480
  758MOL0     C99973   4.931   4.247   3.435  0.4158 -0.0623 -0.5199
  758MOL0     N99974   4.925   4.495   4.156  0.3916 -0.0326  1.2343
  758MOL0     N99975   4.935   4.439   4.270  0.5405  0.2248  0.0997
  758MOL0     C99976   5.513   3.400   3.942  0.7266  0.2611 -0.5625
  758MOL0     C99977   5.610   3.309   3.897 -0.4060  0.1607 -0.6154
  758MOL0     C99978   6.020   3.070   3.897 -0.6507  0.5846 -0.0883
  758MOL0     C99979   6.097   2.963   3.929  0.4631  0.7904  0.1741
  758MOL0     C99980   6.201   2.930   3.851  0.3091  0.5338 -0.0638
  758MOL0     C99981   6.215   2.991   3.722 -1.0145  0.1118 -0.0399
  758MOL0     O99982   6.319   2.957   3.639  0.2118 -0.2415  0.2678
  758MOL0     C99983   6.393   2.834   3.650  0.3061  0.4881  0.4247
  758MOL0     C99984   6.489   2.840   3.541  0.2628  0.4445 -1.1731
  758MOL0     C99985   6.592   2.730   3.553 -0.6448  0.5474  1.1109
  758MOL0     C99986   6.689   2.743   3.435  0.8440  0.3226  1.1139
  758MOL0     C99987   6.799   2.650   3.457 -0.7492 -0.1740 -0.5108
  758MOL0     C99988   6.893   2.577   3.483 -1.0374  0.6184  0.5880
  758MOL0     C99989   6.134   3.091   3.687 -1.1683  0.0988 -0.1937
  758MOL0     C99990   6.042   3.136   3.768 -0.3616  0.1526 -0.3296
  758MOL0     H99991   5.803   3.292   4.172  0.5868 -2.0539 -1.1997
  758MOL0     H99992   5.640   3.451   4.247 -2.0890  2.5987 -1.4782
  758MOL0     H99993   5.241   3.508   4.068 -0.7122  0.2714  1.2537
  758MOL0     H99994   5.331   3.619   3.962  2.7392  0.9540  0.6933
  758MOL0     H99995   5.335   3.786   4.137 -0.3767 -0.2268 -2.2343
  758MOL0     H99996   5.258   3.676   4.251  1.8576 -0.0862 -0.5276
  758MOL0     H99997   5.058   3.672   4.094  1.0956 -1.4856 -0.3087
  758MOL0     H99998   5.140   3.788   3.986  0.0158 -0.2531  0.6663
  758MOL0     H99999   5.001   3.919   4.092 -0.5436 -2.7858 -0.3088
  758MOL0     H    0   4.992   3.830   4.248 -1.8700 -0.6317 -0.5155
  758MOL0     H    1   5.229   3.988   4.156 -0.4484  0.1414  0.0303
  758MOL0     H    2   5.195   3.925   4.327 -1.4861  1.0391  0.4901
  758MOL0     H    3   5.001   4.082   4.327 -1.0769  2.7486 -1.1571
  758MOL0     H    4   5.054   4.157   4.177  2.9707  1.2095 -1.4340
  758MOL0     H    5   5.227   4.135   4.425  0.3215  4.2988  3.9233
  758MOL0     H    6   5.285   4.215   4.281  0.9441 -1.3812 -0.4671
  758MOL0     H    7   5.187   4.380   4.455 -1.4429  2.4784 -0.1795
  758MOL0     H    8   5.033   4.294   4.447 -0.4978  1.5966 -2.3970
  758MOL0     H    9   5.250   4.468   4.199 -0.4914 -1.0920 -1.1894
  758MOL0     H   10   5.207   4.544   3.956 -0.0369  0.1287 -0.9663
  758MOL0     H   11   5.097   4.683   3.993  1.5085  0.1321  0.0529
  758MOL0     H   12   4.905   4.524   3.898 -1.1065 -0.1547 -1.9813
  758MOL0     H   13   5.029   4.420   3.837 -1.4851  0.6555 -2.9005
  758MOL0     H   14   4.983   4.710   3.775  0.4179  0.3327  1.2464
  758MOL0     H   15   5.110   4.609   3.696 -0.6350 -1.1694 -0.8152
  758MOL0     H   16   4.918   4.634   3.545 -4.2770 -1.6609 -0.9453
  758MOL0     H   17   4.812   4.580   3.669 -0.5976  0.5647 -1.9353
  758MOL0     H   18   4.681   4.464   3.534  0.6872  2.6084 -0.7292
  758MOL0     H   19   4.571   4.362   3.353  0.2518  3.2375  0.9361
  758MOL0     H   20   4.742   4.296   2.904  0.4023  0.3888  0.4215
  758MOL0     H   21   4.714   4.194   2.685  0.6833  0.3394  0.4216
  758MOL0     H   22   4.346   3.898   2.610 -0.9660 -2.9164  0.6521
  758MOL0     H   23   4.502   3.839   2.666 -1.8559  0.7911  0.9921
  758MOL0     H   24   4.590   3.852   2.440  0.7417  3.7986 -1.3664
  758MOL0     H   25   4.440   3.916   2.379  2.8571 -0.1068 -0.4444
  758MOL0     H   26   4.316   3.711   2.439  0.2043  0.3821 -1.6197
  758MOL0     H   27   4.455   3.644   2.519  1.7172 -0.0151  0.0362
  758MOL0     H   28   4.453   3.717   2.216 -2.1530  0.7411  0.7986
  758MOL0     H   29   4.588   3.635   2.305 -0.1080  1.4897 -0.5419
  758MOL0     H   30   4.307   3.540   2.296  1.6399  4.1726  2.2177
  758MOL0     H   31   4.446   3.439   2.349 -1.4598  1.5821  2.2473
  758MOL0     H   32   4.542   3.440   2.141  0.6222  2.6478  0.5229
  758MOL0     H   33   4.425   3.538   2.057  0.4756 -2.1678 -1.8853
  758MOL0     H   34   4.380   3.301   2.016  0.2262 -0.8679  0.2027
  758MOL0     H   35   4.356   3.263   2.186 -0.6307  1.6678  0.2312
  758MOL0     H   36   4.167   3.315   2.007  0.5348 -1.0639  0.2380
  758MOL0     H   37   4.186   3.476   2.047  0.8151 -1.0831 -2.6046
  758MOL0     H   38   4.351   4.002   2.826 -0.6926 -0.8318  0.2083
  758MOL0     H   39   4.408   4.081   3.043 -1.3504 -0.6545 -1.1317
  758MOL0     H   40   4.915   4.108   3.281  2.0865  1.4860  1.6176
  758MOL0     H   41   5.034   4.225   3.462 -0.0130 -1.6257 -0.1011
  758MOL0     H   42   5.440   3.442   3.873 -1.4658 -0.4387  1.2231
  758MOL0     H   43   5.607   3.263   3.799 -0.2620 -3.4579  0.9055
  758MOL0     H   44   6.066   2.905   4.015  0.8672  0.9387  0.4238
  758MOL0     H   45   6.268   2.848   3.875  0.6512  0.2625 -1.8198
  758MOL0     H   46   6.331   2.744   3.640  2.3192 -1.0347  0.9773
  758MOL0     H   47   6.454   2.831   3.740  1.0428  0.3931 -0.0683
  758MOL0     H   48   6.439   2.810   3.448 -0.2686 -2.3488 -0.0904
  758MOL0     H   49   6.527   2.942   3.537  0.5279  0.7099  3.1621
  758MOL0     H   50   6.544   2.631   3.547  0.8603 -0.1311 -0.9197
  758MOL0     H   51   6.652   2.735   3.644  0.2984  2.4822  0.4180
  758MOL0     H   52   6.646   2.711   3.339 -1.5839  0.3208  2.1484
  758MOL0     H   53   6.715   2.849   3.428 -0.6543  0.7448  1.6112
  758MOL0     H   54   6.972   2.512   3.514 -1.2569  0.1136  0.0938
  758MOL0     H   55   6.152   3.138   3.591  1.3764 -0.6759 -0.1680
  758MOL0     H   56   5.989   3.224   3.731 -1.4157  1.3607  3.5630
  759MOL0     O   57   0.202   8.696   9.752  0.5170 -0.0027 -0.4759
  759MOL0     C   58   0.318   8.683   9.791 -0.2993 -0.1616 -0.5872
  759MOL0     O   59   0.362   8.667   9.922 -0.7416 -0.1736  0.7453
  759MOL0     C   60   0.281   8.679  10.031 -0.3152  0.2054  0.2814
  759MOL0     C   61   0.140   8.643  10.031  0.3322 -0.8178 -0.7001
  759MOL0     C   62   0.054   8.672  10.143 -0.3820 -1.0472 -0.3078
  759MOL0     C   63   0.103   8.739  10.252 -0.1062 -0.4111  0.2414
  759MOL0     O   64   0.020   8.780  10.356 -0.4964  0.8666 -0.4484
  759MOL0     C   65  -0.122   8.750  10.361 -0.6465 -0.7229 -0.0119
  759MOL0     C   66  -0.198   8.807  10.486 -0.1393  0.3125  0.3131
  759MOL0     C   67  -0.351   8.744  10.489  0.0973  0.3832 -0.0193
  759MOL0     C   68  -0.408   8.748  10.625  0.5586  0.0180 -0.3306
  759MOL0     C   69  -0.559   8.772  10.631 -0.5766  0.1675  0.2249
  759MOL0     C   70  -0.604   8.897  10.565 -0.6725 -0.7894  0.0923
  759MOL0     C   71  -0.737   8.917  10.640  0.2144 -1.0081 -0.4713
  759MOL0     C   72  -0.793   9.056  10.600 -0.3729 -0.6797  0.2237
  759MOL0     N   73  -0.934   9.089  10.637  0.2161  0.3370  0.0339
  759MOL0     C   74  -1.029   8.999  10.675  0.1450 -0.4901 -0.5342
  759MOL0     C   75  -1.145   9.069  10.672 -1.8208  0.2023 -0.1397
  759MOL0     C   76  -1.275   8.993  10.681  0.3271 -0.3379 -0.1422
  759MOL0     C   77  -1.369   9.041  10.792  0.3568 -0.6378  0.2158
  759MOL0     C   78  -1.313   9.036  10.939 -0.7161  0.2911  0.3409
  759MOL0     C   79  -1.419   9.085  11.033  0.7132  0.9477  0.4100
  759MOL0     O   80  -1.464   9.219  11.009  0.6047  0.5987 -0.2661
  759MOL0     C   81  -1.597   9.257  11.033  0.7309  0.0168  0.6699
  759MOL0     C   82  -1.625   9.348  11.129  0.1658  0.4324 -0.4340
  759MOL0     C   83  -1.758   9.383  11.167  0.2317  0.1944  0.5576
  759MOL0     C   84  -1.862   9.332  11.098  1.0948 -0.9473  0.2147
  759MOL0     C   85  -1.997   9.381  11.134  0.9934  0.7874 -0.4123
  759MOL0     O   86  -2.014   9.498  11.184 -0.4591  1.1255 -0.0157
  759MOL0     C   87  -2.130   9.534  11.236 -0.5748  0.3204  0.5233
  759MOL0     C   88  -2.128   9.601  11.357 -0.1716  0.1993 -0.0996
  759MOL0     C   89  -2.244   9.662  11.410  0.2250  0.3521 -0.0125
  759MOL0     C   90  -2.362   9.654  11.343 -0.3275  0.1390 -0.0122
  759MOL0     O   91  -2.478   9.702  11.391  0.7135  0.2660 -0.3184
  759MOL0     C   92  -2.486   9.689  11.537  0.5777  0.2881 -0.2502
  759MOL0     C   93  -2.622   9.748  11.576  0.0726 -0.3584  0.7703
  759MOL0     C   94  -2.744   9.657  11.540  0.8842 -0.3799 -0.1864
  759MOL0     C   95  -2.874   9.724  11.583  0.6029  0.5706 -0.6405
  759MOL0     C   96  -3.008   9.663  11.556  0.2170 -0.4177  0.1253
  759MOL0     C   97  -3.015   9.510  11.559  0.3783 -0.0062  0.0064
  759MOL0     C   98  -3.131   9.451  11.473 -0.6372 -0.0402  0.5408
  759MOL0     C   99  -3.258   9.528  11.491 -0.0419  0.1364 -0.2930
  759MOL0    Cl  100  -3.390   9.426  11.462  0.3992 -0.0939  0.0584
  759MOL0     C  101  -2.364   9.582  11.229  0.1130  0.1815  0.6613
  759MOL0     C  102  -2.253   9.521  11.175 -0.0794 -0.0451 -0.2907
  759MOL0     O  103  -2.080   9.300  11.103  0.6778 -0.1163 -0.0644
  759MOL0     C  104  -1.838   9.241  10.988 -0.2376 -0.5745  0.1752
  759MOL0     C  105  -1.706   9.211  10.959 -0.9269 -0.5644  0.1337
  759MOL0     N  106  -1.117   9.199  10.645  0.3671 -0.3178 -0.8752
  759MOL0     N  107  -0.993   9.205  10.627 -0.1522  0.2670  1.2303
  759MOL0     C  108   0.243   8.772  10.263  0.0892  0.0864  0.1372
  759MOL0     C  109   0.329   8.744  10.149  0.0864  0.8515 -0.6011
  759MOL0     C  110   0.417   8.672   9.682 -0.3240  0.3429  0.1075
  759MOL0     C  111   0.554   8.699   9.712 -0.3383 -0.3282  0.4957
  759MOL0     C  112   0.650   8.693   9.601 -0.4097 -0.2347  0.1515
  759MOL0     C  113   0.603   8.668   9.466 -1.1224  0.9284 -0.1678
  759MOL0     O  114   0.686   8.670   9.362 -0.5041 -0.8520  0.6533
  759MOL0     C  115   0.709   8.541   9.299 -0.5135  0.1716 -0.1752
  759MOL0     C  116   0.845   8.522   9.230  0.7327  0.4162  0.4296
  759MOL0     C  117   0.958   8.510   9.337  0.8893  0.1640  0.3800
  759MOL0     C  118   0.987   8.623   9.420 -0.0038 -0.5965  0.5151
  759MOL0     C  119   1.006   8.742   9.346  0.7227  0.4403 -0.5712
  759MOL0     C  120   1.029   8.844   9.282 -0.4054  0.4610  0.2931
  759MOL0     C  121   0.466   8.639   9.444 -0.3053  0.6492  0.0458
  759MOL0     C  122   0.375   8.639   9.548 -0.3003  0.2183 -1.0177
  759MOL0     H  123   0.089   8.597   9.947 -2.9381  0.2586  0.5164
  759MOL0     H  124  -0.054   8.660  10.139 -1.3806  4.4153  1.1466
  759MOL0     H  125  -0.137   8.642  10.367 -3.2186 -0.4002  0.9054
  759MOL0     H  126  -0.165   8.796  10.271 -0.2820  0.5222  0.4317
  759MOL0     H  127  -0.208   8.916  10.477 -2.1291  0.0146 -3.2906
  759MOL0     H  128  -0.136   8.779  10.571  0.1250 -2.4721 -0.6830
  759MOL0     H  129  -0.335   8.638  10.463 -1.8676  0.1259 -0.3209
  759MOL0     H  130  -0.414   8.791  10.414  1.1883  0.5660 -0.8597
  759MOL0     H  131  -0.397   8.652  10.676  0.6389 -0.8998 -2.0115
  759MOL0     H  132  -0.351   8.816  10.689  0.7171  0.4173 -0.8886
  759MOL0     H  133  -0.586   8.760  10.736  1.7772  0.0693  0.8652
  759MOL0     H  134  -0.615   8.691  10.583 -0.8777  0.1848  0.5451
  759MOL0     H  135  -0.616   8.895  10.456 -0.2850 -0.7859  0.0505
  759MOL0     H  136  -0.529   8.972  10.589  0.1387 -1.9970  1.5344
  759MOL0     H  137  -0.809   8.836  10.626 -1.2003 -0.4380  2.7701
  759MOL0     H  138  -0.716   8.916  10.747 -1.2976 -0.1073 -0.1296
  759MOL0     H  139  -0.799   9.063  10.491 -2.9193  0.7259  0.3568
  759MOL0     H  140  -0.732   9.137  10.641 -1.4444  0.1116  0.3181
  759MOL0     H  141  -1.014   8.892  10.685  0.2024 -0.2822  2.0359
  759MOL0     H  142  -1.251   8.890  10.710  0.2454  0.2748  2.2665
  759MOL0     H  143  -1.316   8.986  10.580  0.5487 -0.3428 -0.2333
  759MOL0     H  144  -1.464   8.986  10.790  0.3065 -0.5413 -0.3740
  759MOL0     H  145  -1.396   9.144  10.770 -0.4415 -1.2395 -1.8956
  759MOL0     H  146  -1.287   8.936  10.972 -0.5270  0.0103 -0.6187
  759MOL0     H  147  -1.225   9.102  10.938  0.2477 -0.9658  0.5045
  759MOL0     H  148  -1.385   9.069  11.136  0.3528  4.9723  1.2911
  759MOL0     H  149  -1.504   9.016  11.027 -0.1189  1.6842  2.5041
  759MOL0     H  150  -1.545   9.389  11.189  1.0982 -1.9955  0.0833
  759MOL0     H  151  -1.771   9.461  11.242 -0.5690  0.6400 -0.0289
  759MOL0     H  152  -2.030   9.604  11.404  0.0301  0.2675 -0.5220
  759MOL0     H  153  -2.231   9.718  11.502 -2.1489  0.9576  0.0119
  759MOL0     H  154  -2.404   9.732  11.594  2.1776  0.2123 -2.3605
  759MOL0     H  155  -2.493   9.581  11.556 -4.5971  0.8193  2.6283
  759MOL0     H  156  -2.628   9.845  11.526 -3.5793 -2.1858 -2.9464
  759MOL0     H  157  -2.624   9.765  11.684 -0.4777  2.1020  0.4313
  759MOL0     H  158  -2.731   9.558  11.586  0.3550 -0.2608  0.2322
  759MOL0     H  159  -2.740   9.644  11.432 -2.1380  0.2555 -0.4497
  759MOL0     H  160  -2.867   9.723  11.693 -3.1369  3.3732 -0.1793
  759MOL0     H  161  -2.879   9.828  11.551 -0.5376  0.2437 -1.5472
  759MOL0     H  162  -3.028   9.693  11.453 -5.4589 -0.1812  0.9341
  759MOL0     H  163  -3.094   9.710  11.606  0.2273  1.1846 -1.2793
  759MOL0     H  164  -3.037   9.468  11.658 -2.3267  0.4488 -0.3298
  759MOL0     H  165  -2.921   9.478  11.513  1.2211  0.4171  1.3552
  759MOL0     H  166  -3.110   9.461  11.366 -0.2778  1.9761  0.7671
  759MOL0     H  167  -3.138   9.345  11.497  1.1491 -0.2477  0.2513
  759MOL0     H  168  -3.262   9.609  11.417  2.1994 -1.9609 -2.9303
  759MOL0     H  169  -3.264   9.570  11.592  0.1296 -0.0232 -0.2156
  759MOL0     H  170  -2.460   9.570  11.180  0.7916  1.1466 -1.0086
  759MOL0     H  171  -2.259   9.475  11.077 -5.7985  0.0460 -0.3308
  759MOL0     H  172  -1.911   9.186  10.930  2.2487 -1.0169 -2.8031
  759MOL0     H  173  -1.689   9.145  10.875 -0.7131  1.4347 -1.4620
  759MOL0     H  174   0.271   8.833  10.348 -0.2853  0.1148  0.2438
  759MOL0     H  175   0.430   8.782  10.146  0.3559  0.3014  0.6111
  759MOL0     H  176   0.582   8.706   9.816 -1.4049  0.6583  0.7401
  759MOL0     H  177   0.756   8.712   9.616 -0.9904  2.5219  1.5172
  759MOL0     H  178   0.631   8.516   9.226 -0.6311 -2.6197  0.7934
  759MOL0     H  179   0.705   8.463   9.376  1.1746 -0.4762 -0.7161
  759MOL0     H  180   0.830   8.426   9.179 -1.0616  1.1752 -0.5682
  759MOL0     H  181   0.872   8.599   9.157  0.3185  1.3775  1.2740
  759MOL0     H  182   1.048   8.488   9.278 -0.4010 -0.8361 -1.3083
  759MOL0     H  183   0.937   8.430   9.408  0.2675  0.4806  0.5593
  759MOL0     H  184   0.897   8.634   9.482 -0.1936  0.5308  0.0643
  759MOL0     H  185   1.072   8.607   9.486  0.6273  4.6375  1.3910
  759MOL0     H  186   1.070   8.927   9.229  0.4285 -1.2072 -1.8848
  759MOL0     H  187   0.440   8.625   9.339  0.7272 -2.3443  0.0694
  759MOL0     H  188   0.269   8.618   9.536 -0.2245 -2.2279  1.5931
  760MOL0     O  189   1.256   3.226   8.490 -0.2504 -0.1574  0.3836
  760MOL0     C  190   1.196   3.184   8.392 -0.5679 -0.5449 -0.2489
  760MOL0     O  191   1.251   3.104   8.300 -0.3702 -0.4365 -0.9842
  760MOL0     C  192   1.357   3.018   8.320 -0.0692  0.7545  0.5389
  760MOL0     C  193   1.416   2.988   8.444  0.5230  0.5096  0.1170
  760MOL0     C  194   1.517   2.892   8.451  0.1054 -0.1089  0.4279
  760MOL0     C  195   1.570   2.835   8.334 -0.2295 -0.1180  0.6666
  760MOL0     O  196   1.661   2.735   8.338  0.0996  0.3705 -0.7416
  760MOL0     C  197   1.767   2.737   8.246 -0.6887 -0.4679  0.1358
  760MOL0     C  198   1.889   2.655   8.299 -0.2832  0.2579 -0.1813
  760MOL0     C  199   1.962   2.717   8.416 -0.2106  0.1088 -0.8118
  760MOL0     C  200   1.884   2.709   8.539 -0.2632 -0.0924 -0.1811
  760MOL0     C  201   1.972   2.758   8.656  0.6433  0.0310  0.0656
  760MOL0     C  202   1.896   2.777   8.800 -0.4202 -0.4522 -0.5837
  760MOL0     C  203   1.790   2.878   8.791  0.0990 -0.0343 -0.4995
  760MOL0     C  204   1.735   2.904   8.935 -0.7911  0.4681 -0.0101
  760MOL0     N  205   1.617   2.992   8.948 -0.0892 -0.4749 -0.6879
  760MOL0     C  206   1.500   2.994   8.871 -0.1624  0.1327 -0.3615
  760MOL0     C  207   1.431   3.104   8.919  1.1391  0.4746 -0.2909
  760MOL0     C  208   1.288   3.129   8.893  0.1026  0.0171 -0.0056
  760MOL0     C  209   1.275   3.285   8.885  0.2060 -0.2016  0.1185
  760MOL0     C  210   1.141   3.338   8.838 -0.0143 -0.1898 -0.0918
  760MOL0     C  211   1.131   3.491   8.834  0.5941  0.4927  0.2066
  760MOL0     O  212   0.998   3.535   8.798  0.6078 -0.0333  0.5467
  760MOL0     C  213   0.888   3.525   8.879  0.3465 -0.1879  0.2147
  760MOL0     C  214   0.771   3.476   8.825  0.4558  0.3788  0.7078
  760MOL0     C  215   0.652   3.471   8.904 -0.1064  0.5120 -0.4506
  760MOL0     C  216   0.655   3.509   9.036 -0.8243 -0.4143  0.8226
  760MOL0     C  217   0.531   3.493   9.115 -0.8257 -0.0768  0.7132
  760MOL0     O  218   0.544   3.500   9.254 -0.1383  0.3525  0.4184
  760MOL0     C  219   0.421   3.506   9.321  0.7021  0.4368  0.2360
  760MOL0     C  220   0.382   3.407   9.414 -0.5144  0.7712  0.6317
  760MOL0     C  221   0.266   3.427   9.492  0.0850  0.1234  0.2802
  760MOL0     C  222   0.183   3.542   9.478  0.4631  1.1479 -0.6944
  760MOL0     O  223   0.057   3.534   9.542  0.4699 -0.7253  0.3728
  760MOL0     C  224  -0.031   3.640   9.551  0.4792  0.2499 -0.9059
  760MOL0     C  225  -0.095   3.605   9.684 -0.0655  0.1247  0.1131
  760MOL0     C  226  -0.210   3.696   9.728  0.0006 -0.6829 -0.8695
  760MOL0     C  227  -0.150   3.831   9.763 -0.6591  0.0620  0.3515
  760MOL0     C  228  -0.260   3.929   9.818 -0.1742  0.0063 -0.5631
  760MOL0     C  229  -0.377   3.966   9.728  0.4749 -0.1499  0.5778
  760MOL0     C  230  -0.478   4.055   9.804 -0.3819  0.4715  0.1681
  760MOL0     C  231  -0.541   4.162   9.710 -0.2411  0.5859 -1.0861
  760MOL0    Cl  232  -0.600   4.086   9.548 -0.2596 -0.1324 -0.4452
  760MOL0     C  233   0.217   3.630   9.377  0.1226  0.8305 -0.1797
  760MOL0     C  234   0.342   3.621   9.309  0.9037  0.5395 -0.2566
  760MOL0     O  235   0.427   3.477   9.052  0.2266  0.0391  0.3152
  760MOL0     C  236   0.782   3.554   9.090 -0.0881  0.3086 -0.2220
  760MOL0     C  237   0.888   3.572   9.011  0.0805  0.0052  0.0383
  760MOL0     N  238   1.500   3.171   9.023  0.4313 -0.1131 -0.0433
  760MOL0     N  239   1.616   3.103   9.030 -0.4556 -0.7528  0.8424
  760MOL0     C  240   1.524   2.877   8.207 -0.1350 -0.1050  0.1848
  760MOL0     C  241   1.416   2.967   8.201 -0.6187  0.5459 -0.3978
  760MOL0     C  242   1.068   3.244   8.347 -0.0654 -0.3118  0.1739
  760MOL0     C  243   1.018   3.344   8.427  0.4820  0.1821 -0.1765
  760MOL0     C  244   0.903   3.399   8.396  0.2176 -0.0494 -0.3419
  760MOL0     C  245   0.820   3.360   8.292 -0.1015  1.2905  0.3706
  760MOL0     O  246   0.705   3.433   8.278  0.1546 -0.2992 -0.3993
  760MOL0     C  247   0.583   3.365   8.248 -0.5686  1.1043 -0.0071
  760MOL0     C  248   0.503   3.359   8.372 -0.5706 -0.2667  0.1418
  760MOL0     C  249   0.563   3.283   8.489 -0.4168 -0.3510  0.8987
  760MOL0     C  250   0.456   3.236   8.586  0.7209 -0.0141 -0.6097
  760MOL0     C  251   0.376   3.338   8.666 -0.4311 -0.3794  0.4993
  760MOL0     C  252   0.310   3.422   8.727  0.3850 -0.1788 -0.3116
  760MOL0     C  253   0.866   3.248   8.215  0.4326  0.0186  0.5795
  760MOL0     C  254   0.989   3.196   8.240 -1.0984 -0.3853  0.2713
  760MOL0     H  255   1.375   3.020   8.539  0.0207  5.0204 -1.3464
  760MOL0     H  256   1.568   2.865   8.543  0.6565 -0.7609 -0.0544
  760MOL0     H  257   1.804   2.839   8.239  0.2834 -0.8817 -1.2300
  760MOL0     H  258   1.735   2.705   8.147  1.2242 -1.2760 -0.2624
  760MOL0     H  259   1.967   2.646   8.223  1.0252 -0.7271  1.2207
  760MOL0     H  260   1.853   2.555   8.324  0.2045  0.4436  1.4034
  760MOL0     H  261   1.988   2.821   8.393  1.1225 -0.3495 -1.5340
  760MOL0     H  262   2.063   2.678   8.435 -0.0774  1.6847  2.5358
  760MOL0     H  263   1.793   2.769   8.538 -1.0358 -1.2117  0.6285
  760MOL0     H  264   1.852   2.606   8.557 -0.8081  0.0839 -0.1416
  760MOL0     H  265   2.010   2.855   8.625 -1.5189  0.6016 -0.9534
  760MOL0     H  266   2.058   2.690   8.663  1.1048  0.2584 -2.5004
  760MOL0     H  267   1.965   2.810   8.878  0.0666 -1.3769 -0.6087
  760MOL0     H  268   1.864   2.676   8.828  1.0354 -0.5097  0.9964
  760MOL0     H  269   1.835   2.973   8.761 -1.0341  0.8812  0.5839
  760MOL0     H  270   1.706   2.846   8.728 -0.6213 -1.4190  1.0907
  760MOL0     H  271   1.810   2.955   8.996 -0.7895  1.7026 -1.0092
  760MOL0     H  272   1.722   2.815   8.999  0.1819  0.6756  0.4985
  760MOL0     H  273   1.458   2.913   8.811 -0.4440  0.2701 -0.3540
  760MOL0     H  274   1.220   3.084   8.966 -2.4460 -1.1620 -2.8835
  760MOL0     H  275   1.257   3.086   8.797 -1.0610  0.6094  0.0890
  760MOL0     H  276   1.342   3.327   8.809 -2.3395  0.1394 -2.0714
  760MOL0     H  277   1.300   3.331   8.982 -0.6160 -1.2048  0.8305
  760MOL0     H  278   1.128   3.296   8.738  3.0169  2.6573 -1.8729
  760MOL0     H  279   1.066   3.308   8.912  0.4861 -0.8260  0.1673
  760MOL0     H  280   1.215   3.529   8.777  1.1201  1.1503  1.3919
  760MOL0     H  281   1.155   3.532   8.932  0.6591 -1.6345  1.1370
  760MOL0     H  282   0.771   3.450   8.720  0.9369  1.4103  0.4454
  760MOL0     H  283   0.556   3.438   8.864 -0.2557 -1.8378  1.6079
  760MOL0     H  284   0.447   3.320   9.419 -0.9346  0.4714  1.1508
  760MOL0     H  285   0.228   3.348   9.556 -2.0849  0.8582 -0.0131
  760MOL0     H  286  -0.115   3.629   9.482  0.3040  0.7277 -0.7721
  760MOL0     H  287   0.026   3.733   9.544  1.2654 -0.2438 -1.2645
  760MOL0     H  288  -0.016   3.607   9.761 -0.8953  2.0529  0.9860
  760MOL0     H  289  -0.145   3.508   9.685 -1.5232  0.8519  0.5633
  760MOL0     H  290  -0.257   3.657   9.819  2.0218 -0.3769  0.3905
  760MOL0     H  291  -0.285   3.714   9.651 -1.5559  0.1901  0.7638
  760MOL0     H  292  -0.068   3.818   9.834 -1.2287 -3.5677  0.5550
  760MOL0     H  293  -0.104   3.877   9.676 -3.2735  2.7535  0.2397
  760MOL0     H  294  -0.211   4.023   9.844 -2.2226  0.5342  1.7311
  760MOL0     H  295  -0.301   3.878   9.906  0.0948  1.0965  0.2210
  760MOL0     H  296  -0.418   3.870   9.696  2.1668 -0.7050 -0.0539
  760MOL0     H  297  -0.344   4.022   9.639 -2.0625 -2.4510 -2.0276
  760MOL0     H  298  -0.551   3.979   9.835  0.0126 -0.6960 -1.5716
  760MOL0     H  299  -0.441   4.100   9.897  2.1967 -1.3097  0.1271
  760MOL0     H  300  -0.473   4.245   9.688  1.4913 -0.4494  0.0832
  760MOL0     H  301  -0.625   4.200   9.769 -0.7004 -2.9445  0.8033
  760MOL0     H  302   0.144   3.705   9.348 -0.4754 -0.6872 -2.9253
  760MOL0     H  303   0.368   3.709   9.251 -3.2263  3.0192  1.1394
  760MOL0     H  304   0.772   3.592   9.191 -2.8213 -0.9219  0.0534
  760MOL0     H  305   0.982   3.616   9.046  0.2985  1.1419 -1.8413
  760MOL0     H  306   1.548   2.840   8.108 -2.0817  3.0735 -1.6644
  760MOL0     H  307   1.372   2.983   8.103  2.3256  0.4128 -1.8569
  760MOL0     H  308   1.061   3.377   8.521  3.0648 -0.7595 -0.9309
  760MOL0     H  309   0.872   3.485   8.454  2.4435  1.2832 -1.0107
  760MOL0     H  310   0.595   3.263   8.209 -3.8481  0.4730  0.4043
  760MOL0     H  311   0.528   3.413   8.168 -0.2720 -1.5145 -1.9260
  760MOL0     H  312   0.493   3.463   8.406  0.6871 -0.8086  2.4039
  760MOL0     H  313   0.404   3.322   8.345 -1.0609  0.5691  0.7251
  760MOL0     H  314   0.624   3.358   8.540 -2.3352  0.0474  2.7628
  760MOL0     H  315   0.623   3.197   8.458  1.0365 -0.7321  4.3145
  760MOL0     H  316   0.391   3.163   8.536  0.8514 -1.5290  1.2801
  760MOL0     H  317   0.513   3.180   8.661 -0.3477  0.1279  0.3328
  760MOL0     H  318   0.256   3.490   8.789  3.8401  0.4608  2.2772
  760MOL0     H  319   0.812   3.206   8.131  1.3351  1.5150 -0.7869
  760MOL0     H  320   1.028   3.124   8.168 -0.9690  1.1559 -1.2570
  761MOL0     O  321   4.213   9.325   2.408  0.0549 -0.0712  0.2889
  761MOL0     C  322   4.201   9.420   2.339 -0.0961 -0.6901 -0.0699
  761MOL0     O  323   4.277   9.537   2.348  0.0752  0.8682 -0.2903
  761MOL0     C  324   4.393   9.528   2.426 -0.4014 -0.0513 -0.0067
  761MOL0     C  325   4.514   9.483   2.381  0.1605  0.7669  0.5198
  761MOL0     C  326   4.625   9.474   2.469 -1.0307 -0.6081  0.0350
  761MOL0     C  327   4.623   9.538   2.597 -0.1283 -0.2573 -0.3068
  761MOL0     O  328   4.738   9.555   2.677 -0.0971  0.4089  0.7860
  761MOL0     C  329   4.869   9.489   2.648  0.5527  0.0307 -0.2140
  761MOL0     C  330   4.981   9.540   2.748  0.0817 -0.4808  0.8615
  761MOL0     C  331   4.932   9.542   2.888  0.8355 -0.2000 -0.4417
  761MOL0     C  332   5.055   9.554   2.990 -0.7775 -0.1188 -0.2221
  761MOL0     C  333   5.063   9.694   3.057 -0.2680 -0.5827 -0.1348
  761MOL0     C  334   5.108   9.803   2.956 -0.3264 -0.4362  0.1513
  761MOL0     C  335   5.066   9.940   2.982 -0.0094 -0.2776  0.0303
  761MOL0     C  336   5.096  10.042   2.871  0.6783  0.0903 -0.0557
  761MOL0     N  337   5.032  10.002   2.747 -0.3267 -0.3812 -0.6007
  761MOL0     C  338   4.896   9.993   2.716 -0.1465  0.6443  0.4163
  761MOL0     C  339   4.883   9.915   2.607 -0.7287 -0.1567 -0.3041
  761MOL0     C  340   4.748   9.872   2.554 -1.0986  0.1609  0.4886
  761MOL0     C  341   4.734   9.892   2.402  0.6877 -0.4077  0.3385
  761MOL0     C  342   4.596   9.855   2.348 -0.2117 -0.1805  0.4683
  761MOL0     C  343   4.606   9.852   2.192  0.7621 -0.1367  0.1241
  761MOL0     O  344   4.564   9.974   2.125 -0.1829  0.1760 -0.0472
  761MOL0     C  345   4.430   9.986   2.087 -0.7805  0.4150  1.0651
  761MOL0     C  346   4.314   9.935   2.147 -0.1916  0.0561  0.8780
  761MOL0     C  347   4.191   9.929   2.089  0.7342  0.3184 -0.0687
  761MOL0     C  348   4.167   9.996   1.960 -0.2322 -0.1196 -0.1067
  761MOL0     C  349   4.037  10.000   1.900  0.6722 -0.2007  0.3293
  761MOL0     O  350   3.924   9.953   1.973 -0.3260  0.7782  0.2375
  761MOL0     C  351   3.807   9.956   1.905  0.6157 -0.1381  0.1003
  761MOL0     C  352   3.742   9.838   1.863  0.2675  0.2835  0.3927
  761MOL0     C  353   3.616   9.845   1.802  0.0024 -1.0729 -0.7569
  761MOL0     C  354   3.560   9.968   1.784  0.1067  0.4820  1.0203
  761MOL0     O  355   3.440   9.970   1.720  0.0536 -0.3435 -0.0903
  761MOL0     C  356   3.386  10.086   1.666  0.6630  0.0768 -0.7875
  761MOL0     C  357   3.263  10.035   1.576 -0.0667 -0.0841 -0.4426
  761MOL0     C  358   3.317   9.961   1.453  0.5196  0.1772  0.0522
  761MOL0     C  359   3.201   9.942   1.347 -0.1670 -1.1022  0.6442
  761MOL0     C  360   3.259   9.877   1.221 -0.1438 -0.3932 -0.4218
  761MOL0     C  361   3.180   9.900   1.092  0.4725 -0.1831 -0.2677
  761MOL0     C  362   3.251   9.831   0.971  0.6410  0.5842 -0.1165
  761MOL0     C  363   3.260   9.672   0.959  0.0286 -0.1138 -0.2955
  761MOL0    Cl  364   3.096   9.611   0.957  0.1670  0.6764 -0.4235
  761MOL0     C  365   3.622  10.085   1.813  0.0331 -0.5525  0.2331
  761MOL0     C  366   3.743  10.078   1.871 -0.0268  0.8228 -0.0402
  761MOL0     O  367   4.025  10.045   1.786  0.6407  0.2088  0.3398
  761MOL0     C  368   4.283  10.046   1.895  0.1206  0.4556 -0.6686
  761MOL0     C  369   4.413  10.029   1.955  0.7376 -0.2342 -0.4622
  761MOL0     N  370   5.009   9.873   2.576 -0.1845  0.7433 -0.1180
  761MOL0     N  371   5.091   9.915   2.656  0.5295 -0.6372  0.2241
  761MOL0     C  372   4.503   9.590   2.636  0.1756 -0.0105 -0.1362
  761MOL0     C  373   4.382   9.582   2.554  0.2807 -0.5927  0.2548
  761MOL0     C  374   4.095   9.422   2.245 -0.3267 -0.7338  0.2125
  761MOL0     C  375   4.086   9.527   2.146 -0.1687  0.2576 -0.5995
  761MOL0     C  376   3.970   9.533   2.067  0.9735  0.5205 -0.3349
  761MOL0     C  377   3.869   9.439   2.084  0.5732 -0.1370 -0.3993
  761MOL0     O  378   3.754   9.466   2.006  0.5486  0.1769  0.8039
  761MOL0     C  379   3.650   9.367   1.990 -0.2771  0.0474 -0.1893
  761MOL0     C  380   3.569   9.406   1.864 -0.2006  0.0573 -0.1556
  761MOL0     C  381   3.440   9.329   1.853  0.8351 -0.3506 -0.2308
  761MOL0     C  382   3.360   9.361   1.730  0.7154 -0.0559  0.3261
  761MOL0     C  383   3.342   9.508   1.702  0.3948 -0.5753  0.0888
  761MOL0     C  384   3.308   9.624   1.687  0.6739  0.1194  0.5898
  761MOL0     C  385   3.884   9.324   2.156  0.3704 -0.0726 -0.8823
  761MOL0     C  386   3.999   9.317   2.244 -0.3636  0.4565  0.2510
  761MOL0     H  387   4.502   9.430   2.287 -0.0537  0.6203  0.6291
  761MOL0     H  388   4.717   9.425   2.440  0.8081  2.1675  0.7264
  761MOL0     H  389   4.906   9.507   2.546  1.1929  0.7465  0.1383
  761MOL0     H  390   4.855   9.381   2.662 -0.0366 -0.1054 -1.6052
  761MOL0     H  391   5.026   9.634   2.715  0.0873 -0.6592  0.3437
  761MOL0     H  392   5.065   9.470   2.744  0.3249 -0.1578  0.2455
  761MOL0     H  393   4.891   9.441   2.900 -2.6217  1.1295  0.1736
  761MOL0     H  394   4.851   9.613   2.904  1.6244  0.8275 -0.8885
  761MOL0     H  395   5.034   9.492   3.077 -3.2706 -0.9679 -1.3283
  761MOL0     H  396   5.150   9.521   2.947 -0.5689  0.2259 -0.0312
  761MOL0     H  397   5.135   9.691   3.139  1.8604 -2.9501 -1.9469
  761MOL0     H  398   4.972   9.722   3.110 -0.4760  1.4080 -1.4294
  761MOL0     H  399   5.056   9.776   2.863 -0.0137  0.6393 -0.3493
  761MOL0     H  400   5.217   9.810   2.951 -0.4115  0.0181 -1.5237
  761MOL0     H  401   4.965   9.954   3.023  0.3475  0.9174  0.5763
  761MOL0     H  402   5.127   9.971   3.068 -0.2184 -1.1961  0.5262
  761MOL0     H  403   5.204  10.040   2.851  1.3318  0.5238  2.9356
  761MOL0     H  404   5.068  10.146   2.888 -2.5176 -0.3705 -1.6906
  761MOL0     H  405   4.817  10.022   2.785 -0.3242  0.5417  0.2572
  761MOL0     H  406   4.665   9.922   2.605  0.8950  2.2912  1.8303
  761MOL0     H  407   4.731   9.765   2.574  3.2222 -1.8718 -4.3347
  761MOL0     H  408   4.808   9.831   2.349 -2.3246 -2.4227 -1.9199
  761MOL0     H  409   4.742   9.999   2.380 -1.8109 -0.6216 -2.2446
  761MOL0     H  410   4.577   9.751   2.377  2.1596 -0.9972 -0.5704
  761MOL0     H  411   4.521   9.928   2.378  0.2063  1.4536 -2.1520
  761MOL0     H  412   4.555   9.764   2.152  2.4663 -1.5071  0.8283
  761MOL0     H  413   4.707   9.823   2.162  0.6360 -0.4790  0.0265
  761MOL0     H  414   4.310   9.880   2.240 -0.5968 -1.6007 -0.0690
  761MOL0     H  415   4.099   9.894   2.134  0.3389 -1.4122 -2.0950
  761MOL0     H  416   3.778   9.741   1.896 -2.4471 -0.3899  1.5823
  761MOL0     H  417   3.560   9.754   1.785  0.7707 -1.6537 -0.2631
  761MOL0     H  418   3.463  10.126   1.599  0.2793 -1.8949 -2.4832
  761MOL0     H  419   3.359  10.155   1.747 -0.2613  0.3430 -1.2992
  761MOL0     H  420   3.199  10.118   1.545 -1.1320 -0.5361  0.4709
  761MOL0     H  421   3.204   9.966   1.637  1.0947 -0.6524  0.0636
  761MOL0     H  422   3.350   9.862   1.483  0.1750 -0.0515 -0.3123
  761MOL0     H  423   3.404  10.017   1.416  0.1108 -0.0774 -1.3461
  761MOL0     H  424   3.117   9.888   1.392 -1.6184  1.7788  1.6273
  761MOL0     H  425   3.163  10.040   1.316  1.1418 -0.3375  1.3877
  761MOL0     H  426   3.282   9.771   1.231 -1.4907 -0.7418 -0.7589
  761MOL0     H  427   3.352   9.931   1.199  1.1317 -1.2309  2.4519
  761MOL0     H  428   3.173  10.004   1.059 -0.5186 -0.4493 -0.9294
  761MOL0     H  429   3.083   9.851   1.104  1.1306 -1.7599 -1.1044
  761MOL0     H  430   3.191   9.848   0.881  1.5726  4.6621 -0.1656
  761MOL0     H  431   3.349   9.873   0.944  1.5838 -1.2247  0.3230
  761MOL0     H  432   3.316   9.630   1.043  0.4796 -3.1904 -1.9662
  761MOL0     H  433   3.313   9.646   0.866 -1.2215  0.6790 -1.2576
  761MOL0     H  434   3.568  10.177   1.791 -3.1882 -2.3725 -0.0835
  761MOL0     H  435   3.790  10.175   1.881 -0.3261  0.8331  1.5681
  761MOL0     H  436   4.270  10.084   1.794 -3.2541 -1.0274 -0.9525
  761MOL0     H  437   4.503  10.062   1.903  1.0421 -0.4504 -0.0772
  761MOL0     H  438   4.500   9.647   2.728  2.4848 -0.9438  0.5924
  761MOL0     H  439   4.286   9.627   2.574  1.3292  0.7851  2.6341
  761MOL0     H  440   4.156   9.607   2.125 -1.8123  1.4598 -1.7829
  761MOL0     H  441   3.964   9.608   1.988  1.2210 -0.4415 -1.2991
  761MOL0     H  442   3.581   9.357   2.075 -1.4229  0.2756 -1.0685
  761MOL0     H  443   3.683   9.267   1.959 -1.3455  0.6213 -3.6157
  761MOL0     H  444   3.551   9.514   1.874 -2.6099 -0.3967  1.2258
  761MOL0     H  445   3.627   9.383   1.774 -0.8145 -0.4042 -0.4395
  761MOL0     H  446   3.384   9.350   1.945 -1.1505 -1.3964 -1.1206
  761MOL0     H  447   3.455   9.221   1.847 -1.3660 -0.7062 -0.3703
  761MOL0     H  448   3.413   9.322   1.643  0.3201  1.8180 -0.7911
  761MOL0     H  449   3.264   9.308   1.741  0.9444 -0.1156  2.6205
  761MOL0     H  450   3.290   9.728   1.669 -3.5655 -0.1350  2.2504
  761MOL0     H  451   3.827   9.231   2.155  0.9193 -0.4408  0.1734
  761MOL0     H  452   4.011   9.235   2.314 -0.6897  0.3503  0.1826
  762MOL0     O  453   2.752   6.966   0.914 -0.2650 -0.0354  0.5121
  762MOL0     C  454   2.839   7.056   0.928  0.5850 -0.3218 -0.3282
  762MOL0     O  455   2.817   7.191   0.896 -0.5670 -0.0960 -0.0963
  762MOL0     C  456   2.694   7.230   0.872 -0.1202 -0.3923  0.0187
  762MOL0     C  457   2.630   7.198   0.748 -0.0439 -0.1552  0.0607
  762MOL0     C  458   2.500   7.246   0.722 -0.0830 -0.1910 -0.0155
  762MOL0     C  459   2.434   7.313   0.821  0.6001  0.8741 -0.0645
  762MOL0     O  460   2.310   7.366   0.804  0.1250 -0.8581 -0.1730
  762MOL0     C  461   2.257   7.360   0.670 -0.5771  0.2992 -0.1966
  762MOL0     C  462   2.119   7.404   0.665 -0.4470  0.0112 -0.2213
  762MOL0     C  463   2.025   7.322   0.746 -0.1515 -0.6341  0.0047
  762MOL0     C  464   1.879   7.379   0.748 -0.7940 -0.3120  0.6987
  762MOL0     C  465   1.781   7.311   0.836  1.0474  0.0387  0.4972
  762MOL0     C  466   1.827   7.272   0.976  0.4510  0.0593 -0.2934
  762MOL0     C  467   1.715   7.207   1.054 -0.1424  0.3708  0.3282
  762MOL0     C  468   1.605   7.304   1.087  0.3524  0.1722 -0.4056
  762MOL0     N  469   1.513   7.250   1.188  0.1695  0.7752  0.0059
  762MOL0     C  470   1.464   7.124   1.181 -0.1019 -0.2368  0.2879
  762MOL0     C  471   1.414   7.099   1.304  0.1928 -0.6160  0.6513
  762MOL0     C  472   1.351   6.970   1.330 -0.3701  0.2710  0.8883
  762MOL0     C  473   1.200   6.990   1.347 -1.1834 -0.1024 -0.5997
  762MOL0     C  474   1.137   6.867   1.420 -0.9629 -0.4243  0.2902
  762MOL0     C  475   1.005   6.899   1.489  0.3889  0.2619 -0.2555
  762MOL0     O  476   0.909   6.969   1.411  0.0299 -1.1452  0.5228
  762MOL0     C  477   0.783   6.924   1.389  0.4391 -0.4107 -0.1627
  762MOL0     C  478   0.681   7.015   1.378  0.2290  0.1856 -0.1223
  762MOL0     C  479   0.551   6.978   1.365  0.4521  0.6484 -0.2345
  762MOL0     C  480   0.522   6.845   1.380  1.0187  0.0586 -0.3012
  762MOL0     C  481   0.375   6.810   1.383 -0.3967  0.5363 -0.4206
  762MOL0     O  482   0.285   6.910   1.383 -0.1474 -0.0611 -0.1066
  762MOL0     C  483   0.151   6.884   1.390  0.2856  0.5725 -0.0291
  762MOL0     C  484   0.092   6.803   1.490 -0.1029  0.4038  0.2553
  762MOL0     C  485  -0.049   6.786   1.493  0.6936 -0.2374  0.3848
  762MOL0     C  486  -0.132   6.836   1.394 -0.6663 -0.3438  1.1555
  762MOL0     O  487  -0.268   6.823   1.391  0.2789 -0.3514 -0.0880
  762MOL0     C  488  -0.333   6.706   1.452  0.6983 -0.0199 -0.8614
  762MOL0     C  489  -0.488   6.737   1.458  1.0035 -0.3490 -0.4079
  762MOL0     C  490  -0.573   6.631   1.537 -0.2815  0.6285 -0.7614
  762MOL0     C  491  -0.722   6.665   1.538 -0.1913 -0.3143  0.4065
  762MOL0     C  492  -0.797   6.568   1.633 -0.4712  0.3578 -0.5202
  762MOL0     C  493  -0.947   6.598   1.621  0.6929  0.0532 -0.2483
  762MOL0     C  494  -1.028   6.506   1.715  0.3047 -0.7818 -0.4542
  762MOL0     C  495  -1.171   6.552   1.702 -0.1371 -0.1749 -0.0628
  762MOL0    Cl  496  -1.300   6.537   1.829 -0.3088 -0.0097 -0.0756
  762MOL0     C  497  -0.070   6.918   1.295  0.4644 -0.3023 -0.7142
  762MOL0     C  498   0.065   6.942   1.303  0.0531  0.4259 -0.0557
  762MOL0     O  499   0.349   6.688   1.388  0.2383 -0.5977 -0.2312
  762MOL0     C  500   0.619   6.746   1.384  1.0008 -0.0742 -0.5746
  762MOL0     C  501   0.749   6.782   1.401 -0.2009  0.2345  0.0343
  762MOL0     N  502   1.437   7.210   1.384  0.8775 -0.3980 -0.1444
  762MOL0     N  503   1.499   7.293   1.314  0.6277 -0.6063 -0.2898
  762MOL0     C  504   2.500   7.330   0.946 -0.0157 -0.7144 -0.1523
  762MOL0     C  505   2.633   7.296   0.974  0.2321 -0.2981 -0.4459
  762MOL0     C  506   2.973   7.013   0.959  0.2751 -0.1554  0.2203
  762MOL0     C  507   3.020   6.885   0.957 -0.7667  0.3021  0.7261
  762MOL0     C  508   3.151   6.853   0.991  0.0416  0.1458  0.4050
  762MOL0     C  509   3.244   6.953   1.029 -0.5573  0.4069  0.4980
  762MOL0     O  510   3.374   6.912   1.066  0.4905 -0.3341 -0.2128
  762MOL0     C  511   3.465   7.010   1.120 -0.3726 -0.6958  0.2444
  762MOL0     C  512   3.601   6.951   1.133  0.3147 -1.3074  0.0971
  762MOL0     C  513   3.676   6.947   0.999  0.4439  1.2695  0.8145
  762MOL0     C  514   3.829   6.918   1.040 -0.2586  0.3601 -0.2954
  762MOL0     C  515   3.932   6.928   0.933  0.7480  0.5155  0.7740
  762MOL0     C  516   4.010   6.917   0.830 -0.0679 -0.3523  0.1036
  762MOL0     C  517   3.196   7.078   1.045 -0.0743 -0.3488  0.1523
  762MOL0     C  518   3.064   7.112   1.015  0.4556 -0.0511  0.0687
  762MOL0     H  519   2.687   7.159   0.665 -0.5523  1.8283 -1.2952
  762MOL0     H  520   2.463   7.235   0.620  2.1462 -0.6102 -0.8309
  762MOL0     H  521   2.244   7.257   0.636  1.5530  0.7341 -2.6054
  762MOL0     H  522   2.318   7.403   0.591 -0.5768  0.4397 -0.1202
  762MOL0     H  523   2.083   7.395   0.562 -0.4735  0.0783 -0.2179
  762MOL0     H  524   2.124   7.509   0.697  2.5323  0.5465 -2.0431
  762MOL0     H  525   2.060   7.315   0.849  0.4612  1.5920 -0.0068
  762MOL0     H  526   2.017   7.217   0.713 -2.3418 -1.1434  1.9164
  762MOL0     H  527   1.887   7.485   0.771  1.3923  0.4393 -2.7351
  762MOL0     H  528   1.838   7.362   0.647 -0.1376  2.2477 -0.0699
  762MOL0     H  529   1.742   7.223   0.785 -1.4019  2.1886 -1.6184
  762MOL0     H  530   1.693   7.376   0.836  0.4906 -0.6364 -1.8912
  762MOL0     H  531   1.860   7.360   1.031 -2.3488 -1.1960  3.9008
  762MOL0     H  532   1.905   7.196   0.970 -0.0453 -0.6720  1.8254
  762MOL0     H  533   1.670   7.123   1.000 -1.8249  0.6338  1.2683
  762MOL0     H  534   1.762   7.174   1.147 -0.3482 -1.3100 -0.1254
  762MOL0     H  535   1.556   7.317   0.990  1.5019 -1.1908 -1.2164
  762MOL0     H  536   1.652   7.397   1.119  0.8659 -0.3524  0.3897
  762MOL0     H  537   1.462   7.060   1.093  2.0876 -0.4106  0.3285
  762MOL0     H  538   1.397   6.927   1.419 -3.3995 -2.4765  1.3096
  762MOL0     H  539   1.372   6.907   1.243 -1.3977  1.3656 -0.1824
  762MOL0     H  540   1.153   7.023   1.253  0.0530  0.2218 -1.1251
  762MOL0     H  541   1.193   7.073   1.417 -1.1852  1.7646 -2.6880
  762MOL0     H  542   1.131   6.783   1.351  1.3089 -0.1141 -0.3700
  762MOL0     H  543   1.204   6.825   1.495 -0.2259 -1.1131 -0.7400
  762MOL0     H  544   1.031   6.971   1.567 -0.7289  1.6222 -1.0971
  762MOL0     H  545   0.955   6.812   1.534  1.0572 -0.8106 -1.5204
  762MOL0     H  546   0.708   7.120   1.387 -1.3274  0.4540  2.4236
  762MOL0     H  547   0.483   7.060   1.343 -1.3976 -0.7898 -0.0611
  762MOL0     H  548   0.162   6.760   1.561 -0.6762 -0.7461  0.1351
  762MOL0     H  549  -0.099   6.721   1.564 -2.4410  0.2548 -1.2049
  762MOL0     H  550  -0.293   6.681   1.550  0.3567 -2.9485 -1.3960
  762MOL0     H  551  -0.329   6.627   1.376 -0.6233 -0.7033 -0.2495
  762MOL0     H  552  -0.529   6.736   1.357 -1.6710 -3.7115  0.5217
  762MOL0     H  553  -0.504   6.835   1.504  0.2615  0.5492 -2.4664
  762MOL0     H  554  -0.540   6.624   1.641 -3.4265 -0.7140  0.2458
  762MOL0     H  555  -0.559   6.529   1.502 -0.6964  0.7904 -1.4221
  762MOL0     H  556  -0.736   6.770   1.565  1.3440  0.4395 -1.5235
  762MOL0     H  557  -0.765   6.645   1.439 -0.0336  1.1921  0.0193
  762MOL0     H  558  -0.764   6.598   1.733 -1.1266  1.4643 -0.6275
  762MOL0     H  559  -0.781   6.462   1.610  1.9155  1.0804 -2.5899
  762MOL0     H  560  -0.983   6.592   1.518 -0.2805  2.3493 -0.1064
  762MOL0     H  561  -0.961   6.697   1.665 -1.0123 -1.8963  4.1657
  762MOL0     H  562  -1.021   6.403   1.679  0.5771  0.0650 -3.0336
  762MOL0     H  563  -1.000   6.533   1.818 -2.3369  1.4118 -0.1891
  762MOL0     H  564  -1.212   6.488   1.623 -3.0136  0.6058  0.6647
  762MOL0     H  565  -1.182   6.655   1.667 -0.3825  0.0002  0.5174
  762MOL0     H  566  -0.134   6.956   1.216 -0.3194 -0.5414 -0.2079
  762MOL0     H  567   0.109   6.998   1.221 -0.4246  0.2043 -0.4732
  762MOL0     H  568   0.596   6.640   1.388  2.0131 -0.3502 -1.5409
  762MOL0     H  569   0.829   6.710   1.411  0.2042  0.7148  0.3012
  762MOL0     H  570   2.450   7.368   1.035  0.3551 -0.3440 -0.1001
  762MOL0     H  571   2.681   7.304   1.071  0.9991  1.2018 -0.9213
  762MOL0     H  572   2.957   6.808   0.915 -0.6065  0.7535 -0.3798
  762MOL0     H  573   3.186   6.750   0.990 -4.2891 -1.5466  1.0208
  762MOL0     H  574   3.426   7.041   1.218  0.7520 -0.9234  0.7817
  762MOL0     H  575   3.467   7.096   1.054 -0.0037 -0.6065  0.3698
  762MOL0     H  576   3.660   7.019   1.196 -1.1261  0.5016 -0.4085
  762MOL0     H  577   3.600   6.855   1.186 -1.4025 -1.7276 -0.6443
  762MOL0     H  578   3.681   7.031   0.929  0.8271  1.7380  1.3857
  762MOL0     H  579   3.643   6.865   0.935  2.2178  0.4480  0.8800
  762MOL0     H  580   3.861   6.993   1.113  4.3833  0.5232 -2.1576
  762MOL0     H  581   3.827   6.817   1.082 -2.4083  0.4429 -0.0753
  762MOL0     H  582   4.087   6.900   0.758  0.3475  2.4937 -0.2445
  762MOL0     H  583   3.249   7.166   1.080 -0.5745 -0.3210  0.8824
  762MOL0     H  584   3.034   7.216   1.026  1.3960  0.2972 -0.5650
  763MOL0     O  585   2.836   8.974   9.734  0.0486  0.1010 -0.3269
  763MOL0     C  586   2.867   9.095   9.728  0.3417 -0.2329 -0.1101
  763MOL0     O  587   2.783   9.203   9.717  0.1784 -0.5417 -0.4460
  763MOL0     C  588   2.650   9.176   9.713 -0.3749  0.2427 -0.4180
  763MOL0     C  589   2.572   9.261   9.788  0.3091 -0.5719  0.2581
  763MOL0     C  590   2.428   9.252   9.775 -0.4525  0.5436  0.4934
  763MOL0     C  591   2.368   9.152   9.699  0.4237 -0.3535 -0.2639
  763MOL0     O  592   2.229   9.147   9.685  0.4245  0.1929 -1.5095
  763MOL0     C  593   2.169   9.023   9.649 -0.1846 -0.2132  0.3048
  763MOL0     C  594   2.022   9.046   9.634 -0.3504  0.0703 -0.1772
  763MOL0     C  595   1.935   8.926   9.603 -0.6185  0.2800 -0.2823
  763MOL0     C  596   1.784   8.957   9.606  0.0547 -0.3699 -0.1696
  763MOL0     C  597   1.703   8.835   9.573  0.0163  0.5543  0.2406
  763MOL0     C  598   1.556   8.861   9.573 -0.6411 -0.5004  0.6089
  763MOL0     C  599   1.478   8.728   9.552  0.4137  0.0738  0.2174
  763MOL0     C  600   1.336   8.748   9.520  0.3780 -0.2629 -0.1297
  763MOL0     N  601   1.243   8.740   9.636 -0.8391  0.1251  0.0268
  763MOL0     C  602   1.239   8.638   9.722  0.6963 -0.2793  0.2016
  763MOL0     C  603   1.174   8.696   9.831 -0.3428 -0.0172 -0.5629
  763MOL0     C  604   1.136   8.619   9.955  1.0121  0.4628 -0.0674
  763MOL0     C  605   1.015   8.526   9.927 -0.4117 -0.2421 -0.3041
  763MOL0     C  606   1.007   8.423  10.040 -0.1752 -0.5296  1.2822
  763MOL0     C  607   0.884   8.343  10.049  0.5420 -0.4609  0.4622
  763MOL0     O  608   0.761   8.420  10.050 -0.1574 -0.1655 -0.1672
  763MOL0     C  609   0.647   8.359  10.085  0.5101  0.2314 -0.7752
  763MOL0     C  610   0.543   8.446  10.120 -0.7797 -0.0336  0.0363
  763MOL0     C  611   0.415   8.401  10.159 -0.0037 -0.4041 -0.4387
  763MOL0     C  612   0.383   8.266  10.152 -0.1445  0.1286  0.3084
  763MOL0     C  613   0.244   8.221  10.180 -0.0848  0.1725 -0.8808
  763MOL0     O  614   0.147   8.310  10.205 -0.2777 -0.4569  0.3588
  763MOL0     C  615   0.019   8.283  10.171 -0.5692  0.7804 -0.5349
  763MOL0     C  616  -0.072   8.221  10.256 -0.2479  0.0053  0.7126
  763MOL0     C  617  -0.206   8.218  10.215  1.0049  0.1979  0.3139
  763MOL0     C  618  -0.247   8.265  10.088  0.7640 -0.5584  0.3214
  763MOL0     O  619  -0.380   8.264  10.064 -0.0221 -0.1598  0.1634
  763MOL0     C  620  -0.430   8.327   9.943  0.6439 -0.0173  0.8558
  763MOL0     C  621  -0.581   8.338   9.957 -0.4590 -0.3655  0.4827
  763MOL0     C  622  -0.634   8.410   9.835  0.3608  0.0459  0.4922
  763MOL0     C  623  -0.778   8.439   9.833 -0.0970  0.5117  0.0777
  763MOL0     C  624  -0.865   8.323   9.892 -0.8269  0.0053 -0.0763
  763MOL0     C  625  -1.015   8.370   9.897 -0.1087  0.4464 -0.3128
  763MOL0     C  626  -1.054   8.475   9.999  0.1973 -0.9422  0.4229
  763MOL0     C  627  -1.192   8.535   9.969  0.1581  0.1635  0.9083
  763MOL0    Cl  628  -1.225   8.628  10.115  0.0310 -0.1308 -0.1943
  763MOL0     C  629  -0.156   8.317   9.995  0.4901 -0.4281 -0.4350
  763MOL0     C  630  -0.024   8.331  10.043  0.2002  0.3801 -0.4918
  763MOL0     O  631   0.228   8.095  10.183 -0.4255 -0.4184  0.2195
  763MOL0     C  632   0.486   8.173  10.116  0.3862 -0.2364  0.1321
  763MOL0     C  633   0.616   8.222  10.088 -0.2092 -0.4671 -0.1009
  763MOL0     N  634   1.142   8.827   9.809  0.0924 -0.1060  0.1662
  763MOL0     N  635   1.180   8.849   9.689 -0.4331  0.1265  0.0189
  763MOL0     C  636   2.458   9.066   9.622  0.3454  0.0835  0.8232
  763MOL0     C  637   2.595   9.080   9.626 -1.1953 -0.9658  0.4409
  763MOL0     C  638   3.008   9.131   9.719 -0.3778  0.0414 -0.3816
  763MOL0     C  639   3.058   9.260   9.690  0.4535  0.5403 -1.0282
  763MOL0     C  640   3.194   9.284   9.672 -0.2185  0.3095 -0.1500
  763MOL0     C  641   3.284   9.180   9.671 -0.3137 -0.3051 -0.3610
  763MOL0     O  642   3.416   9.217   9.640  0.1301  0.7566  0.4819
  763MOL0     C  643   3.500   9.131   9.706 -0.4270  0.1972  0.5540
  763MOL0     C  644   3.647   9.164   9.687  0.5616 -0.4709  0.6436
  763MOL0     C  645   3.667   9.305   9.742 -0.5639 -0.3568 -0.1690
  763MOL0     C  646   3.808   9.350   9.706  0.0598  0.9141  0.3129
  763MOL0     C  647   3.837   9.468   9.775  0.0682 -0.6207 -0.3448
  763MOL0     C  648   3.851   9.582   9.828 -0.0226  0.9394  0.0952
  763MOL0     C  649   3.231   9.046   9.702 -0.8920 -0.0730  0.2319
  763MOL0     C  650   3.098   9.025   9.725  0.3578 -0.1385  0.7198
  763MOL0     H  651   2.616   9.338   9.851  0.7007 -0.8776  0.3691
  763MOL0     H  652   2.353   9.319   9.817 -1.2267  1.0248 -1.5450
  763MOL0     H  653   2.184   8.942   9.720  1.0872 -0.6289 -0.4062
  763MOL0     H  654   2.210   8.992   9.553  0.2180  0.9428  0.0830
  763MOL0     H  655   2.007   9.116   9.551  0.7684  0.1168 -0.3569
  763MOL0     H  656   2.003   9.088   9.733  1.0824  3.4527 -1.1894
  763MOL0     H  657   1.963   8.843   9.670 -0.6891 -1.1250 -1.9224
  763MOL0     H  658   1.951   8.899   9.498 -2.0766  0.2382 -0.5073
  763MOL0     H  659   1.749   8.986   9.706 -1.9318 -0.8911 -0.6728
  763MOL0     H  660   1.763   9.040   9.539 -0.2497 -0.4386 -0.1623
  763MOL0     H  661   1.711   8.773   9.663 -2.0552 -1.3588 -0.7929
  763MOL0     H  662   1.741   8.790   9.481 -0.7972  0.2822  0.0266
  763MOL0     H  663   1.523   8.938   9.502 -0.3385  1.1156  2.1621
  763MOL0     H  664   1.535   8.901   9.672  0.8883 -1.5508  1.4000
  763MOL0     H  665   1.524   8.674   9.468  1.5772  0.1847  0.7543
  763MOL0     H  666   1.488   8.658   9.636 -0.9252  1.4506  1.5803
  763MOL0     H  667   1.309   8.674   9.445 -2.5067  1.2618 -0.7461
  763MOL0     H  668   1.311   8.837   9.462 -1.2006 -0.2910  0.4756
  763MOL0     H  669   1.265   8.534   9.706  0.0979 -0.1675 -1.7909
  763MOL0     H  670   1.118   8.691  10.035 -0.8222 -0.7795  0.7110
  763MOL0     H  671   1.222   8.558   9.982 -0.1496 -0.0682  2.8498
  763MOL0     H  672   1.020   8.476   9.830 -1.0119  0.5346 -0.7518
  763MOL0     H  673   0.924   8.587   9.924  0.3986  0.9846 -1.5164
  763MOL0     H  674   1.085   8.348  10.022 -2.0778 -2.6750  1.4150
  763MOL0     H  675   1.038   8.471  10.134  3.0620  1.9364 -0.8422
  763MOL0     H  676   0.879   8.285  10.142 -1.7548 -1.9225 -0.5036
  763MOL0     H  677   0.876   8.282   9.958  0.8492 -1.1449  0.8848
  763MOL0     H  678   0.557   8.553  10.120 -3.7089  0.4598 -1.9861
  763MOL0     H  679   0.334   8.471  10.179  0.9676  0.5280  0.2858
  763MOL0     H  680  -0.056   8.189  10.359 -0.4481 -3.3193 -0.1863
  763MOL0     H  681  -0.277   8.188  10.291 -1.3948  4.0474 -0.1298
  763MOL0     H  682  -0.399   8.267   9.857  2.0209 -0.6370  1.7556
  763MOL0     H  683  -0.374   8.421   9.940 -0.5222  0.8465  3.1791
  763MOL0     H  684  -0.612   8.386  10.050  0.6769  0.9323  0.2185
  763MOL0     H  685  -0.617   8.235   9.952  0.9581 -0.8321 -3.2291
  763MOL0     H  686  -0.614   8.368   9.736 -0.5027 -0.0318  0.3395
  763MOL0     H  687  -0.579   8.504   9.825 -0.5078  0.3736 -2.2331
  763MOL0     H  688  -0.799   8.534   9.884 -0.6072 -0.9437  2.7804
  763MOL0     H  689  -0.820   8.447   9.733 -0.1476 -1.1242 -0.0538
  763MOL0     H  690  -0.840   8.307   9.998 -1.4749  1.4513  0.3269
  763MOL0     H  691  -0.845   8.237   9.829 -0.5442  0.7147 -0.9746
  763MOL0     H  692  -1.074   8.280   9.914 -0.5854  0.6741 -0.7550
  763MOL0     H  693  -1.053   8.392   9.797 -2.2940 -1.7547 -0.0643
  763MOL0     H  694  -1.052   8.423  10.095 -0.2103  0.8572  1.4501
  763MOL0     H  695  -0.988   8.563  10.001 -1.1330  0.1543 -1.1341
  763MOL0     H  696  -1.264   8.453   9.957  0.8150 -0.0818 -2.3713
  763MOL0     H  697  -1.214   8.594   9.880 -1.9355 -2.3194 -0.3837
  763MOL0     H  698  -0.174   8.368   9.902  0.9168  0.6403  0.0533
  763MOL0     H  699   0.054   8.383   9.988 -0.0731 -0.9301 -2.1957
  763MOL0     H  700   0.457   8.069  10.118  0.7171 -0.3171  1.7873
  763MOL0     H  701   0.694   8.156  10.051 -0.8600 -0.3043 -1.9020
  763MOL0     H  702   2.415   8.984   9.566 -1.8723 -0.3353  2.9669
  763MOL0     H  703   2.663   9.012   9.575  0.1812 -0.2482  1.2691
  763MOL0     H  704   2.979   9.335   9.687  0.9760  1.0715 -1.6385
  763MOL0     H  705   3.236   9.383   9.659  2.4346 -0.6254  0.6299
  763MOL0     H  706   3.490   9.031   9.663  0.3298  0.4485 -0.2342
  763MOL0     H  707   3.491   9.124   9.815  1.6234 -0.0698  0.7498
  763MOL0     H  708   3.693   9.087   9.749  0.5741  0.4714  1.8433
  763MOL0     H  709   3.681   9.157   9.583  1.9214  0.3322  1.0081
  763MOL0     H  710   3.646   9.301   9.849 -1.5981 -2.6661 -0.3981
  763MOL0     H  711   3.607   9.385   9.698  0.8951  1.3878  0.8938
  763MOL0     H  712   3.882   9.274   9.734  0.9386  1.9106  0.7289
  763MOL0     H  713   3.825   9.363   9.599 -1.1774 -1.3664 -0.2292
  763MOL0     H  714   3.858   9.679   9.874  0.3092  0.5335  0.9092
  763MOL0     H  715   3.294   8.958   9.710 -0.0808  0.4615 -0.0748
  763MOL0     H  716   3.065   8.925   9.752 -0.9258  0.2562  0.6770
  764MOL0     O  717   4.517   0.334   2.635  0.1212 -0.1937  0.1133
  764MOL0     C  718   4.637   0.362   2.640  0.4285  0.3615  0.3287
  764MOL0     O  719   4.749   0.271   2.658  0.2875  0.5085  0.4497
  764MOL0     C  720   4.725   0.137   2.651  0.3895 -0.1657  0.5700
  764MOL0     C  721   4.789   0.057   2.740 -0.9967 -0.0669 -0.1889
  764MOL0     C  722   4.753  -0.078   2.750  0.2857 -0.1483 -0.0755
  764MOL0     C  723   4.661  -0.141   2.657  0.5640  0.1605 -0.4094
  764MOL0     O  724   4.656  -0.285   2.655 -0.3280 -0.3716  0.6315
  764MOL0     C  725   4.561  -0.354   2.564 -0.6582  0.1938 -0.1617
  764MOL0     C  726   4.576  -0.500   2.583 -0.0105  1.0982 -0.5219
  764MOL0     C  727   4.489  -0.580   2.481  0.1914  0.6414 -0.0554
  764MOL0     C  728   4.459  -0.712   2.542  0.1674 -0.1086  0.0618
  764MOL0     C  729   4.354  -0.788   2.459 -0.1655  0.0834  0.7374
  764MOL0     C  730   4.361  -0.938   2.482 -0.3658  0.1240 -0.6487
  764MOL0     C  731   4.307  -0.966   2.626  0.2893  0.6721 -0.0462
  764MOL0     C  732   4.290  -1.123   2.655  0.5417  0.2456 -0.0654
  764MOL0     N  733   4.181  -1.186   2.573 -0.0521  0.0524 -0.7701
  764MOL0     C  734   4.067  -1.241   2.621  0.5962  0.0102 -0.2023
  764MOL0     C  735   4.032  -1.337   2.529 -0.1162  1.0048  0.1522
  764MOL0     C  736   3.918  -1.436   2.551 -0.1935  0.8470 -0.3641
  764MOL0     C  737   3.782  -1.384   2.513 -0.0518 -0.6289  0.0128
  764MOL0     C  738   3.753  -1.359   2.361 -0.1861 -0.2058  0.4968
  764MOL0     C  739   3.751  -1.476   2.273 -0.2765 -0.3987 -0.2545
  764MOL0     O  740   3.645  -1.563   2.305  0.4677  0.5635 -0.1152
  764MOL0     C  741   3.526  -1.540   2.243 -1.0284  0.5974  0.2755
  764MOL0     C  742   3.490  -1.421   2.172 -0.9990  0.7708  0.1514
  764MOL0     C  743   3.366  -1.411   2.102  0.1716 -0.6087  0.1220
  764MOL0     C  744   3.274  -1.516   2.111  0.0693  0.6740  0.2145
  764MOL0     C  745   3.139  -1.497   2.050 -0.2250  0.0672  0.7972
  764MOL0     O  746   3.059  -1.606   2.053 -0.1266 -0.3753 -0.6478
  764MOL0     C  747   2.934  -1.628   1.998 -0.4415 -0.8684 -0.0411
  764MOL0     C  748   2.917  -1.701   1.879  0.3087  0.7553  0.5129
  764MOL0     C  749   2.784  -1.732   1.837 -0.7677 -0.7447 -0.1777
  764MOL0     C  750   2.670  -1.695   1.908  0.0479  0.7638  0.0014
  764MOL0     O  751   2.546  -1.730   1.862 -0.7749  0.9387  0.0305
  764MOL0     C  752   2.430  -1.676   1.924  0.1405 -0.7981 -0.3214
  764MOL0     C  753   2.299  -1.717   1.853 -0.5063  0.4452 -0.0122
  764MOL0     C  754   2.286  -1.872   1.878 -0.9502 -0.4717 -0.2835
  764MOL0     C  755   2.145  -1.925   1.841  0.2527  0.6010 -0.4217
  764MOL0     C  756   2.149  -2.072   1.881  0.3486 -0.3582  0.8780
  764MOL0     C  757   2.011  -2.134   1.843 -0.2678 -0.1496  0.4602
  764MOL0     C  758   1.993  -2.286   1.872  0.2824 -0.7186 -0.1853
  764MOL0     C  759   1.858  -2.347   1.850  0.2523  0.8221  0.6931
  764MOL0    Cl  760   1.843  -2.493   1.952  0.3502  0.1573  0.3361
  764MOL0     C  761   2.692  -1.624   2.032  0.0926  0.0512 -0.8594
  764MOL0     C  762   2.824  -1.587   2.075  0.1478  0.1577 -0.3675
  764MOL0     O  763   3.102  -1.378   2.027 -0.8174  0.3553 -0.3018
  764MOL0     C  764   3.313  -1.639   2.181  0.6610 -0.8601 -0.1440
  764MOL0     C  765   3.436  -1.647   2.242 -0.1639  0.5835  0.8384
  764MOL0     N  766   4.114  -1.326   2.416  0.2006 -0.6304  0.3971
  764MOL0     N  767   4.208  -1.248   2.449 -0.9540 -0.2651 -0.4935
  764MOL0     C  768   4.595  -0.061   2.565 -0.2275 -0.7102  0.5892
  764MOL0     C  769   4.634   0.075   2.557 -0.8005 -0.4370 -0.6637
  764MOL0     C  770   4.673   0.511   2.643  0.0547 -0.6065 -0.4433
  764MOL0     C  771   4.808   0.539   2.617  0.4485  0.0193  0.6261
  764MOL0     C  772   4.853   0.671   2.641 -0.7262  0.3022  0.0292
  764MOL0     C  773   4.764   0.774   2.687 -0.5909  0.1880  0.1215
  764MOL0     O  774   4.820   0.895   2.724  1.0613 -0.2304 -0.2719
  764MOL0     C  775   4.731   1.010   2.738 -0.2522 -0.7737 -0.1083
  764MOL0     C  776   4.813   1.134   2.764  0.4718 -0.5611  0.0481
  764MOL0     C  777   4.722   1.251   2.813 -0.8481  0.1003  1.0088
  764MOL0     C  778   4.820   1.356   2.878  0.7533 -0.7265  0.3152
  764MOL0     C  779   4.894   1.431   2.773  0.4510  0.2256  0.1641
  764MOL0     C  780   4.957   1.490   2.685  0.1993 -0.0084  0.2808
  764MOL0     C  781   4.632   0.748   2.709  0.5805 -0.2321 -0.4729
  764MOL0     C  782   4.578   0.612   2.683  0.4584  1.3337 -0.8448
  764MOL0     H  783   4.859   0.106   2.807 -0.0451  0.2101 -1.3647
  764MOL0     H  784   4.792  -0.138   2.831 -0.7725 -2.3590 -1.1281
  764MOL0     H  785   4.590  -0.320   2.464  1.6589  0.8062  0.6439
  764MOL0     H  786   4.456  -0.334   2.587 -1.4251 -1.4221 -1.9946
  764MOL0     H  787   4.537  -0.522   2.682  0.8484 -1.4817 -0.6818
  764MOL0     H  788   4.679  -0.536   2.571 -0.7469 -1.6147  0.5900
  764MOL0     H  789   4.541  -0.598   2.387 -0.6779  1.7532 -0.7785
  764MOL0     H  790   4.394  -0.527   2.467 -0.2208  0.0589  0.4581
  764MOL0     H  791   4.551  -0.771   2.530  0.5550  0.5159 -0.0650
  764MOL0     H  792   4.415  -0.706   2.642 -3.2285 -0.2805 -1.2727
  764MOL0     H  793   4.375  -0.766   2.354 -3.5772  1.4671  0.2211
  764MOL0     H  794   4.254  -0.754   2.489 -1.0605 -0.2850 -1.6535
  764MOL0     H  795   4.462  -0.979   2.474  0.8691  2.3563  1.8765
  764MOL0     H  796   4.294  -0.985   2.409 -1.5454  0.7166  0.0093
  764MOL0     H  797   4.376  -0.937   2.705  2.0113 -2.6270 -0.1553
  764MOL0     H  798   4.206  -0.931   2.650 -0.9174 -1.9024 -0.9071
  764MOL0     H  799   4.273  -1.127   2.763 -3.2378  1.1346 -0.5079
  764MOL0     H  800   4.382  -1.175   2.627  0.5985  1.7126 -3.0272
  764MOL0     H  801   4.022  -1.254   2.719  0.8560 -2.6305 -0.3475
  764MOL0     H  802   3.909  -1.474   2.653  2.8621 -0.0546 -0.3109
  764MOL0     H  803   3.946  -1.530   2.502  1.5627  0.4245  1.3196
  764MOL0     H  804   3.782  -1.283   2.553 -0.4912 -0.3283 -0.7288
  764MOL0     H  805   3.703  -1.447   2.554 -1.4460  0.1838 -1.3135
  764MOL0     H  806   3.658  -1.305   2.350  0.8131  1.8040  1.2468
  764MOL0     H  807   3.834  -1.299   2.320  1.4582 -1.4658  1.7530
  764MOL0     H  808   3.848  -1.519   2.295 -0.5624 -0.3827  1.0926
  764MOL0     H  809   3.750  -1.450   2.166  3.9240 -0.0243 -0.3630
  764MOL0     H  810   3.550  -1.334   2.148  2.9661 -2.0672 -1.2416
  764MOL0     H  811   3.333  -1.321   2.049 -0.1837  0.1791  1.6203
  764MOL0     H  812   3.000  -1.742   1.822 -0.9507 -1.1948 -0.0239
  764MOL0     H  813   2.771  -1.788   1.745 -2.2601 -2.1087  0.8263
  764MOL0     H  814   2.437  -1.567   1.924  1.7347 -0.7783  3.1864
  764MOL0     H  815   2.429  -1.707   2.029 -0.7141 -0.4801 -0.2229
  764MOL0     H  816   2.296  -1.700   1.745  0.7348 -1.5996 -0.4349
  764MOL0     H  817   2.219  -1.662   1.903 -0.5106 -1.7738  2.6746
  764MOL0     H  818   2.300  -1.883   1.986  2.7630 -2.2022 -0.7983
  764MOL0     H  819   2.370  -1.923   1.831  1.3321  0.9570  1.9638
  764MOL0     H  820   2.073  -1.866   1.899  2.4648  1.9703  1.1070
  764MOL0     H  821   2.127  -1.922   1.733  1.3071 -4.2060 -0.9381
  764MOL0     H  822   2.152  -2.073   1.991  2.5819 -2.0560  0.8489
  764MOL0     H  823   2.236  -2.122   1.839 -1.5994 -1.9218 -1.5639
  764MOL0     H  824   1.975  -2.108   1.744 -0.6299 -0.6383  0.4593
  764MOL0     H  825   1.938  -2.077   1.901  0.0304  2.5454 -1.6647
  764MOL0     H  826   2.063  -2.326   1.799  0.0871 -0.2445 -0.6379
  764MOL0     H  827   2.022  -2.301   1.976  2.3986 -1.8215 -0.8805
  764MOL0     H  828   1.855  -2.389   1.749  0.7485 -0.4413  1.1847
  764MOL0     H  829   1.779  -2.274   1.872  0.7255  2.0606 -1.4232
  764MOL0     H  830   2.604  -1.596   2.089 -1.5227 -3.4632 -1.3655
  764MOL0     H  831   2.840  -1.534   2.168  0.9147  0.3858 -0.6251
  764MOL0     H  832   3.242  -1.721   2.187  0.4301 -0.8603 -2.2527
  764MOL0     H  833   3.461  -1.738   2.294 -1.7504 -1.3706 -1.5719
  764MOL0     H  834   4.529  -0.107   2.493  1.9173 -2.2808 -0.4936
  764MOL0     H  835   4.591   0.139   2.480 -1.6989 -0.2645 -0.0303
  764MOL0     H  836   4.875   0.463   2.577  2.8567  0.9965  2.4990
  764MOL0     H  837   4.960   0.682   2.631 -0.5167 -1.9902 -0.9022
  764MOL0     H  838   4.671   1.002   2.829 -2.6857  3.5892 -1.0407
  764MOL0     H  839   4.673   1.026   2.646 -0.0472  3.8326  0.3460
  764MOL0     H  840   4.884   1.118   2.846  0.0061  3.0971  1.3701
  764MOL0     H  841   4.858   1.167   2.670 -3.3918  1.6413 -1.2507
  764MOL0     H  842   4.663   1.213   2.896  0.3863 -1.1648  1.3315
  764MOL0     H  843   4.656   1.287   2.733 -0.9650 -0.5470  0.8133
  764MOL0     H  844   4.764   1.426   2.940  0.0896 -0.9042 -0.0765
  764MOL0     H  845   4.901   1.315   2.939  1.4922  2.4444  1.6812
  764MOL0     H  846   4.995   1.534   2.595 -2.8766 -0.5612 -1.4086
  764MOL0     H  847   4.567   0.822   2.755  1.0939 -0.1929  0.2091
  764MOL0     H  848   4.473   0.587   2.696  1.2184 -1.4806  1.0163
  765MOL0     O  849   0.752   0.231   9.665 -0.2374 -0.0989 -0.0197
  765MOL0     C  850   0.778   0.159   9.763 -0.5444 -0.4152  0.5405
  765MOL0     O  851   0.684   0.098   9.841 -0.4509 -0.6933  0.4523
  765MOL0     C  852   0.558   0.080   9.790 -0.5563  0.1013 -0.3939
  765MOL0     C  853   0.441   0.102   9.870 -1.0184 -0.3798  0.4837
  765MOL0     C  854   0.319   0.073   9.829  0.0761  0.2584 -0.5009
  765MOL0     C  855   0.294   0.036   9.697  0.1332 -0.3987 -0.5571
  765MOL0     O  856   0.164   0.021   9.655 -0.1827  0.3033  0.7979
  765MOL0     C  857   0.132   0.087   9.530  0.8373 -0.5058  0.4723
  765MOL0     C  858  -0.019   0.098   9.518 -0.0071  0.3072  0.6565
  765MOL0     C  859  -0.059   0.204   9.413  0.3525 -0.2143  0.6888
  765MOL0     C  860   0.025   0.188   9.283  0.0195  0.6110  0.0328
  765MOL0     C  861  -0.005   0.059   9.200 -0.2620  0.0813  0.3519
  765MOL0     C  862   0.039   0.079   9.051 -0.5369 -0.1939 -0.1515
  765MOL0     C  863   0.020  -0.051   8.973 -0.0547  0.8181  0.0799
  765MOL0     C  864  -0.117  -0.057   8.913  0.0669  0.6568  0.3904
  765MOL0     N  865  -0.223  -0.114   8.997 -0.0250 -0.9329  0.1135
  765MOL0     C  866  -0.330  -0.039   9.031 -0.1842  0.7255  0.2228
  765MOL0     C  867  -0.389  -0.100   9.136  0.2440 -0.2233  0.4269
  765MOL0     C  868  -0.496  -0.037   9.217 -0.4920 -0.3536 -0.3786
  765MOL0     C  869  -0.620   0.006   9.140 -0.7511 -0.6933 -0.6244
  765MOL0     C  870  -0.715  -0.111   9.101 -0.4012  0.2502  1.0829
  765MOL0     C  871  -0.795  -0.163   9.223 -0.3911  0.3266 -0.1139
  765MOL0     O  872  -0.888  -0.063   9.277 -0.4495  0.1342 -0.3115
  765MOL0     C  873  -0.984  -0.096   9.361  0.5840  0.2130  0.6863
  765MOL0     C  874  -1.005  -0.219   9.415 -0.1287 -0.0651 -0.5742
  765MOL0     C  875  -1.097  -0.226   9.517  0.4004 -0.3715 -0.0402
  765MOL0     C  876  -1.175  -0.123   9.571  0.1233  0.1541 -0.3823
  765MOL0     C  877  -1.279  -0.144   9.671  0.3705  0.1212  0.4524
  765MOL0     O  878  -1.344  -0.031   9.707  0.1291  0.6483 -1.0244
  765MOL0     C  879  -1.454  -0.038   9.786 -0.1578  0.5709  0.0000
  765MOL0     C  880  -1.575   0.000   9.740  0.5035 -0.1693  0.2755
  765MOL0     C  881  -1.696  -0.028   9.807 -0.3498 -0.4809 -0.1321
  765MOL0     C  882  -1.690  -0.076   9.938  0.0390  0.8066 -0.1600
  765MOL0     O  883  -1.811  -0.087  10.002 -0.1321 -0.2933 -0.5360
  765MOL0     C  884  -1.829  -0.008  10.121 -0.0502  0.7266  0.5620
  765MOL0     C  885  -1.931   0.104  10.110 -0.1204  0.1845  0.4377
  765MOL0     C  886  -2.069   0.064  10.030 -0.0521 -0.0339 -0.1370
  765MOL0     C  887  -2.162  -0.037  10.101 -0.1566  0.4326 -0.8941
  765MOL0     C  888  -2.310   0.005  10.113 -0.7305  0.0089  0.8992
  765MOL0     C  889  -2.374  -0.002   9.976 -0.0938  0.4218 -0.5387
  765MOL0     C  890  -2.524   0.032  10.001 -1.3378 -0.7819  0.3665
  765MOL0     C  891  -2.612   0.034   9.877  0.3645 -0.0378  0.5217
  765MOL0    Cl  892  -2.612  -0.137   9.814 -0.5421  0.2261 -0.0767
  765MOL0     C  893  -1.571  -0.116   9.991  0.5944 -0.2597  1.0953
  765MOL0     C  894  -1.448  -0.095   9.920  0.2014 -0.3848  0.9971
  765MOL0     O  895  -1.299  -0.254   9.719 -0.0913 -0.0643  0.0516
  765MOL0     C  896  -1.158   0.002   9.514 -0.1771 -0.5425 -0.1123
  765MOL0     C  897  -1.063   0.011   9.413 -0.5438  0.6694 -0.7964
  765MOL0     N  898  -0.329  -0.219   9.163 -0.2478  0.1801  0.0200
  765MOL0     N  899  -0.228  -0.228   9.079 -0.2909 -1.3515 -0.7119
  765MOL0     C  900   0.409   0.020   9.612 -0.0278  1.2209 -0.3097
  765MOL0     C  901   0.538   0.042   9.657  0.0797 -0.8754  0.4868
  765MOL0     C  902   0.919   0.161   9.819 -0.1434  0.6242  0.4921
  765MOL0     C  903   0.957   0.079   9.933 -0.0298  0.5270 -0.6111
  765MOL0     C  904   1.093   0.068   9.964  0.2696 -0.1235 -0.2505
  765MOL0     C  905   1.187   0.148   9.911 -0.1767  0.3862  0.9338
  765MOL0     O  906   1.317   0.147   9.963  0.7264 -0.4459  0.6511
  765MOL0     C  907   1.417   0.200   9.876 -0.3042  0.5405 -0.8165
  765MOL0     C  908   1.545   0.148   9.933 -1.5329  1.0361 -0.4397
  765MOL0     C  909   1.674   0.202   9.889 -0.6539 -0.1163  0.6496
  765MOL0     C  910   1.685   0.354   9.927 -0.8842  0.3554 -0.3856
  765MOL0     C  911   1.820   0.412   9.928  0.2710  0.2982  0.1133
  765MOL0     C  912   1.927   0.467   9.923  1.0245 -1.1077 -0.2963
  765MOL0     C  913   1.144   0.225   9.806  0.0123  0.2508 -0.5135
  765MOL0     C  914   1.016   0.234   9.754 -0.2436  0.3041 -0.4856
  765MOL0     H  915   0.450   0.143   9.970 -2.0262  0.3036  0.3126
  765MOL0     H  916   0.234   0.079   9.896  0.7141 -1.0024  0.4557
  765MOL0     H  917   0.171   0.041   9.438 -0.4240  2.1378 -1.5266
  765MOL0     H  918   0.173   0.188   9.539  1.5613 -1.0261  5.2268
  765MOL0     H  919  -0.058   0.127   9.616 -0.6045 -0.8532  0.7782
  765MOL0     H  920  -0.049  -0.004   9.493 -0.6784  0.8394 -0.7598
  765MOL0     H  921  -0.037   0.306   9.446 -0.6173  0.4209 -0.5309
  765MOL0     H  922  -0.167   0.191   9.398  0.7374 -2.8983 -0.3638
  765MOL0     H  923   0.012   0.280   9.226 -1.8948  0.9552  0.9570
  765MOL0     H  924   0.132   0.177   9.303 -0.2337 -1.4969  0.5599
  765MOL0     H  925  -0.111   0.034   9.201 -0.3006 -0.0065 -1.6577
  765MOL0     H  926   0.053  -0.016   9.254  2.2069  2.2558  0.9385
  765MOL0     H  927   0.140   0.120   9.049 -0.9973  1.0777  0.9888
  765MOL0     H  928  -0.009   0.170   9.015 -1.0331  1.0548  3.2397
  765MOL0     H  929   0.082  -0.038   8.885 -0.0227  0.4863  0.0529
  765MOL0     H  930   0.049  -0.139   9.032  0.7498 -1.3382 -3.2745
  765MOL0     H  931  -0.119  -0.116   8.821 -1.1018  0.5871  0.4511
  765MOL0     H  932  -0.150   0.040   8.874  1.9788  0.0346 -3.3357
  765MOL0     H  933  -0.369   0.049   8.979 -2.1374 -0.9092 -1.2285
  765MOL0     H  934  -0.445   0.043   9.272 -1.6224 -0.3295  0.6581
  765MOL0     H  935  -0.525  -0.108   9.294 -0.1974  0.2461  0.3087
  765MOL0     H  936  -0.593   0.059   9.048 -0.9664  1.8453  0.7093
  765MOL0     H  937  -0.682   0.083   9.186 -0.8459 -0.7600 -0.6380
  765MOL0     H  938  -0.788  -0.066   9.033 -0.0965  1.3245  1.4465
  765MOL0     H  939  -0.662  -0.191   9.049  3.0104  2.5047  0.7703
  765MOL0     H  940  -0.732  -0.197   9.305  0.3549 -0.4337 -0.9716
  765MOL0     H  941  -0.842  -0.250   9.176  2.0167 -1.8119  1.1401
  765MOL0     H  942  -0.958  -0.313   9.387  1.7468  0.7066 -0.1408
  765MOL0     H  943  -1.119  -0.329   9.543  1.7803 -0.7234 -0.2031
  765MOL0     H  944  -1.584   0.057   9.648  1.5750 -1.5267 -0.7011
  765MOL0     H  945  -1.793   0.008   9.774 -0.4247  0.0805  0.6660
  765MOL0     H  946  -1.736   0.044  10.144 -0.3078  2.3131 -1.6614
  765MOL0     H  947  -1.863  -0.070  10.204  1.4646  1.3160  1.6694
  765MOL0     H  948  -1.883   0.190  10.061  1.3025  0.1974  1.7550
  765MOL0     H  949  -1.950   0.137  10.212 -2.0506 -1.1702  0.5615
  765MOL0     H  950  -2.046   0.034   9.928  1.4826 -0.8374  0.3999
  765MOL0     H  951  -2.129   0.155  10.035 -2.8548 -1.8300  0.8856
  765MOL0     H  952  -2.141  -0.138  10.067  0.8935  0.8712 -1.6204
  765MOL0     H  953  -2.141  -0.047  10.208 -1.0156  0.3997 -0.7179
  765MOL0     H  954  -2.318   0.105  10.154  1.1748  0.5827 -0.0186
  765MOL0     H  955  -2.368  -0.064  10.175 -0.2285 -3.0155 -1.7265
  765MOL0     H  956  -2.356  -0.099   9.928  2.4094 -0.0158  1.0979
  765MOL0     H  957  -2.317   0.067   9.914  0.5673  0.2331 -0.1510
  765MOL0     H  958  -2.561  -0.037  10.077 -1.5336  0.6674  1.6437
  765MOL0     H  959  -2.525   0.133  10.043 -1.3052 -0.1776 -1.0157
  765MOL0     H  960  -2.579   0.109   9.805 -0.3993  1.3553  1.5676
  765MOL0     H  961  -2.716   0.057   9.903 -0.9827 -4.8383  0.1996
  765MOL0     H  962  -1.565  -0.162  10.089  0.8850 -2.1732  0.2474
  765MOL0     H  963  -1.349  -0.118   9.959  0.1963  0.3160  1.4559
  765MOL0     H  964  -1.205   0.092   9.553 -0.2546 -1.0507  1.0093
  765MOL0     H  965  -1.029   0.111   9.390  0.0862  0.7732  0.5327
  765MOL0     H  966   0.382  -0.005   9.510 -1.0302  3.8412 -0.7458
  765MOL0     H  967   0.608   0.029   9.575 -2.8678 -0.2049 -2.4003
  765MOL0     H  968   0.889   0.024   9.997  1.4438 -1.6045 -0.7688
  765MOL0     H  969   1.133   0.015  10.050  1.4826  1.8691  0.4855
  765MOL0     H  970   1.423   0.308   9.897  3.8979  0.1559  0.9310
  765MOL0     H  971   1.418   0.179   9.769  2.1835 -2.1382 -0.3688
  765MOL0     H  972   1.551   0.165  10.041  2.6197 -0.0005 -0.3439
  765MOL0     H  973   1.542   0.042   9.908  0.0341  1.0692 -0.8443
  765MOL0     H  974   1.684   0.202   9.780  2.2061  0.5265  0.8085
  765MOL0     H  975   1.758   0.143   9.926  0.0874  0.0379 -0.7338
  765MOL0     H  976   1.627   0.423   9.864  1.0047  1.3376 -1.1419
  765MOL0     H  977   1.646   0.358  10.029  0.8599 -2.7316  0.5384
  765MOL0     H  978   2.003   0.543   9.924 -1.9951  2.1664 -1.0103
  765MOL0     H  979   1.212   0.286   9.748  1.3094 -0.5852  0.0870
  765MOL0     H  980   1.006   0.298   9.668  2.3650  0.8174 -0.4702
  766MOL0     O  981   4.560   0.764  10.840 -0.1012  0.2797  0.2485
  766MOL0     C  982   4.520   0.861  10.783  0.3414 -0.1798 -0.0636
  766MOL0     O  983   4.401   0.877  10.726 -0.0718  0.5781 -0.0377
  766MOL0     C  984   4.303   0.769  10.718 -0.1546 -0.0171  0.1801
  766MOL0     C  985   4.295   0.664  10.814  0.8319 -0.1956 -0.1497
  766MOL0     C  986   4.204   0.556  10.800 -1.2171  0.4662 -0.5931
  766MOL0     C  987   4.110   0.569  10.701  0.0647 -0.0775 -0.4359
  766MOL0     O  988   4.024   0.459  10.693  0.4423  0.1660 -0.2274
  766MOL0     C  989   3.894   0.495  10.640 -0.4420  0.3750  0.6406
  766MOL0     C  990   3.786   0.439  10.731  0.9809 -0.7109 -0.9008
  766MOL0     C  991   3.642   0.480  10.695  0.1020 -0.2878  0.2459
  766MOL0     C  992   3.537   0.370  10.754 -0.5109  0.7683  0.5354
  766MOL0     C  993   3.395   0.409  10.707  0.4947 -0.1601 -0.6066
  766MOL0     C  994   3.297   0.294  10.751  0.2503  0.2844  0.2296
  766MOL0     C  995   3.152   0.337  10.711  0.1252 -0.4651  0.0282
  766MOL0     C  996   3.119   0.274  10.572  0.3775  0.3263 -0.1350
  766MOL0     N  997   2.981   0.287  10.528  0.3072 -0.7133  0.5371
  766MOL0     C  998   2.882   0.209  10.567  0.6590  0.2848 -0.1929
  766MOL0     C  999   2.772   0.239  10.487 -0.4487 -0.3963 -0.1034
  766MOL0     C 1000   2.633   0.186  10.517  0.4404  0.1879  0.2940
  766MOL0     C 1001   2.521   0.289  10.519  0.6062  0.2774 -0.8065
  766MOL0     C 1002   2.381   0.207  10.519 -0.6322  0.2788 -0.0409
  766MOL0     C 1003   2.260   0.305  10.553 -0.1463  0.5202 -0.2730
  766MOL0     O 1004   2.146   0.225  10.587 -0.7992  0.1036  0.3217
  766MOL0     C 1005   2.031   0.283  10.620  0.0476 -0.7324 -0.0468
  766MOL0     C 1006   2.012   0.423  10.636 -0.3004  1.1249 -0.4295
  766MOL0     C 1007   1.885   0.477  10.642  0.4654  0.4246 -0.5033
  766MOL0     C 1008   1.771   0.391  10.655 -1.0007  0.2174  0.3486
  766MOL0     C 1009   1.631   0.436  10.656  0.8513 -1.3418  0.6763
  766MOL0     O 1010   1.527   0.342  10.681  0.7565 -0.5911  0.9095
  766MOL0     C 1011   1.394   0.384  10.672 -0.1576 -0.2481 -0.9419
  766MOL0     C 1012   1.333   0.454  10.565 -0.7822 -0.8123  0.1135
  766MOL0     C 1013   1.195   0.468  10.546 -0.0258  0.5311  0.1112
  766MOL0     C 1014   1.118   0.415  10.653  0.7095 -0.7753 -0.3000
  766MOL0     O 1015   0.984   0.419  10.620 -0.5322 -0.2915  0.5194
  766MOL0     C 1016   0.911   0.306  10.640 -0.3781  0.2963 -0.1904
  766MOL0     C 1017   0.773   0.364  10.666  0.1539  0.0735  0.6293
  766MOL0     C 1018   0.672   0.257  10.646 -0.0358  0.7130 -0.0201
  766MOL0     C 1019   0.528   0.291  10.674 -0.1557 -1.1807 -0.0353
  766MOL0     C 1020   0.451   0.170  10.716  0.3879  0.6563  0.0481
  766MOL0     C 1021   0.314   0.212  10.748 -0.0590  0.2468  0.7056
  766MOL0     C 1022   0.223   0.101  10.802  0.5921 -0.2488  0.0867
  766MOL0     C 1023   0.074   0.156  10.816  0.7536 -0.2621  0.0314
  766MOL0    Cl 1024   0.044   0.242  10.966  0.3232  0.1036  0.6089
  766MOL0     C 1025   1.171   0.371  10.780  0.5639 -0.5273  0.6499
  766MOL0     C 1026   1.316   0.356  10.784  0.3090  0.1558  0.0223
  766MOL0     O 1027   1.610   0.558  10.635  0.1616 -0.2709 -0.2045
  766MOL0     C 1028   1.799   0.253  10.664  0.5506  0.0189  0.3203
  766MOL0     C 1029   1.925   0.207  10.647 -0.1735  0.3435 -0.0317
  766MOL0     N 1030   2.818   0.343  10.409 -0.3400  0.1905 -1.2520
  766MOL0     N 1031   2.942   0.372  10.426  0.1523 -1.1891  0.1376
  766MOL0     C 1032   4.118   0.676  10.616  0.1058 -0.7346 -0.2520
  766MOL0     C 1033   4.211   0.780  10.620 -0.0510 -0.3062 -0.6958
  766MOL0     C 1034   4.622   0.978  10.771 -0.0410 -0.2581  0.6148
  766MOL0     C 1035   4.743   0.967  10.841 -0.1960 -0.2207  0.3244
  766MOL0     C 1036   4.852   1.058  10.834  0.5034 -0.2995 -0.3450
  766MOL0     C 1037   4.822   1.168  10.751 -0.2109 -0.6344 -0.2966
  766MOL0     O 1038   4.924   1.260  10.749 -0.1665 -0.3483 -0.1975
  766MOL0     C 1039   4.924   1.369  10.656  0.0561 -0.8552 -0.1226
  766MOL0     C 1040   5.040   1.474  10.695  0.8767 -0.5170  0.2452
  766MOL0     C 1041   5.075   1.586  10.589 -0.6461  0.3863  1.0004
  766MOL0     C 1042   4.962   1.657  10.507 -0.0744  0.0416 -0.6079
  766MOL0     C 1043   5.028   1.760  10.423  0.3097  0.3692  0.1558
  766MOL0     C 1044   5.099   1.830  10.352 -0.2599  0.3454 -0.0408
  766MOL0     C 1045   4.701   1.178  10.673  0.0571  0.0631  0.7839
  766MOL0     C 1046   4.606   1.084  10.687 -0.7734  0.5999  0.5608
  766MOL0     H 1047   4.359   0.655  10.902  2.2966 -3.0735 -1.3918
  766MOL0     H 1048   4.205   0.474  10.871  1.3664  0.5450 -0.4312
  766MOL0     H 1049   3.901   0.446  10.542  0.3396 -0.4628  1.0917
  766MOL0     H 1050   3.876   0.602  10.628  0.3166  0.7910  2.7485
  766MOL0     H 1051   3.791   0.478  10.833 -3.1390  2.8670 -1.7722
  766MOL0     H 1052   3.794   0.331  10.721  0.2210 -1.2856  3.0136
  766MOL0     H 1053   3.623   0.494  10.588 -0.8626 -0.8667  0.3308
  766MOL0     H 1054   3.616   0.577  10.738 -3.4459 -1.9995  2.4302
  766MOL0     H 1055   3.568   0.272  10.718  1.5137  1.8777 -0.9444
  766MOL0     H 1056   3.548   0.367  10.863  0.9563 -0.9487  0.3907
  766MOL0     H 1057   3.393   0.424  10.599  0.1758  0.4249 -0.5229
  766MOL0     H 1058   3.360   0.509  10.735  1.2565  1.0691 -3.6300
  766MOL0     H 1059   3.301   0.295  10.860 -4.4664 -0.0598  0.6263
  766MOL0     H 1060   3.331   0.197  10.713 -1.7980 -0.7471  0.8660
  766MOL0     H 1061   3.089   0.303  10.794  0.7084  1.1308  1.1706
  766MOL0     H 1062   3.148   0.445  10.699 -1.0291 -0.7732 -3.6249
  766MOL0     H 1063   3.139   0.167  10.576 -0.2608  0.2185  0.3653
  766MOL0     H 1064   3.178   0.328  10.498 -1.7813  1.2208 -1.2955
  766MOL0     H 1065   2.887   0.134  10.645  2.6046  0.4632 -0.0887
  766MOL0     H 1066   2.636   0.141  10.617  2.2686  0.9066  0.5886
  766MOL0     H 1067   2.622   0.108  10.441  1.6554  0.6442 -0.3804
  766MOL0     H 1068   2.534   0.339  10.423 -0.4223  1.6062 -0.2760
  766MOL0     H 1069   2.521   0.356  10.606  3.1253 -1.8161  1.0089
  766MOL0     H 1070   2.364   0.160  10.422 -2.0414 -1.2518  0.8860
  766MOL0     H 1071   2.388   0.127  10.594 -0.4517  0.3684  0.0373
  766MOL0     H 1072   2.237   0.361  10.462  3.1251 -1.3393 -2.4585
  766MOL0     H 1073   2.288   0.375  10.632 -0.9481  3.0945 -2.1571
  766MOL0     H 1074   2.098   0.490  10.635 -1.3268  2.5818  1.2079
  766MOL0     H 1075   1.882   0.585  10.651 -0.7108  0.4785 -1.3686
  766MOL0     H 1076   1.400   0.492  10.488  2.9861 -1.9595  2.5392
  766MOL0     H 1077   1.146   0.510  10.459 -2.8594 -2.3069  0.1774
  766MOL0     H 1078   0.937   0.240  10.723  0.4350  0.7358 -0.0887
  766MOL0     H 1079   0.911   0.240  10.552  0.0748  0.0436 -0.0034
  766MOL0     H 1080   0.769   0.431  10.580  1.8956 -1.4702 -0.7624
  766MOL0     H 1081   0.756   0.413  10.762 -2.0021 -1.4389  1.0872
  766MOL0     H 1082   0.684   0.173  10.714 -4.3325  0.0374  0.1773
  766MOL0     H 1083   0.682   0.239  10.538  0.0456  1.6521 -0.1787
  766MOL0     H 1084   0.535   0.362  10.757  0.6885 -1.5554  0.2333
  766MOL0     H 1085   0.483   0.332  10.583  2.4471 -3.0173 -2.3235
  766MOL0     H 1086   0.492   0.134  10.810  1.4145  2.7212  0.4650
  766MOL0     H 1087   0.438   0.096  10.636 -3.4794 -1.3391  2.2244
  766MOL0     H 1088   0.258   0.247  10.661 -2.9890 -1.5891  1.7186
  766MOL0     H 1089   0.310   0.287  10.827 -3.0233  0.2824  0.6148
  766MOL0     H 1090   0.233   0.023  10.726  1.8023 -3.1977  3.0199
  766MOL0     H 1091   0.254   0.060  10.899  3.4172  1.3688 -0.0293
  766MOL0     H 1092   0.009   0.068  10.807 -1.1557  0.9038  1.5389
  766MOL0     H 1093   0.038   0.218  10.734 -0.3916 -0.6481  0.2237
  766MOL0     H 1094   1.097   0.334  10.851  0.2068 -2.9288 -0.8636
  766MOL0     H 1095   1.379   0.319  10.864  3.9346  0.8746 -2.2843
  766MOL0     H 1096   1.719   0.179  10.670  0.0728  0.3581 -1.3480
  766MOL0     H 1097   1.945   0.101  10.645  2.5736  0.7330  1.1914
  766MOL0     H 1098   4.042   0.690  10.540 -2.0300 -1.1096  1.7090
  766MOL0     H 1099   4.199   0.872  10.564 -5.0837  0.6740  1.4496
  766MOL0     H 1100   4.770   0.898  10.920  2.2399  2.7389  2.3035
  766MOL0     H 1101   4.946   1.042  10.885  0.5724 -3.0512 -1.1705
  766MOL0     H 1102   4.834   1.429  10.668  1.9410  2.6321 -1.8741
  766MOL0     H 1103   4.926   1.324  10.556 -3.6359  2.5735 -2.0293
  766MOL0     H 1104   5.015   1.523  10.789  3.0008  0.4361  0.3630
  766MOL0     H 1105   5.130   1.413  10.708  0.1287 -1.8813 -0.7207
  766MOL0     H 1106   5.139   1.539  10.514 -0.9752  3.1488 -1.1740
  766MOL0     H 1107   5.130   1.663  10.644 -0.8691 -0.6138  2.6724
  766MOL0     H 1108   4.906   1.587  10.446 -0.1584 -2.3182  1.9819
  766MOL0     H 1109   4.895   1.701  10.581  0.5825 -0.0542  0.0559
  766MOL0     H 1110   5.146   1.905  10.291 -0.5603  0.2256 -0.4240
  766MOL0     H 1111   4.677   1.264  10.610  0.3470 -0.0745  0.4815
  766MOL0     H 1112   4.513   1.082  10.632  0.0379  0.1149 -0.8464
  767MOL0     O 1113   5.068   5.751  10.517  0.3773 -0.1870 -0.1379
  767MOL0     C 1114   5.053   5.737  10.637  0.0684  0.4167  0.0175
  767MOL0     O 1115   4.940   5.684  10.699 -0.5401  0.0519  0.0960
  767MOL0     C 1116   4.815   5.657  10.635 -0.8588  0.7997 -0.2854
  767MOL0     C 1117   4.779   5.702  10.506  0.1587  0.0595  0.0057
  767MOL0     C 1118   4.653   5.671  10.448  0.1165  0.1403 -0.1909
  767MOL0     C 1119   4.567   5.581  10.519  0.2400 -0.3550 -0.6489
  767MOL0     O 1120   4.442   5.553  10.475 -0.0042  0.4504 -0.1151
  767MOL0     C 1121   4.414   5.553  10.333 -0.4327  0.4347  0.7404
  767MOL0     C 1122   4.278   5.501  10.302  0.1580 -0.1904 -0.5924
  767MOL0     C 1123   4.164   5.590  10.346  0.3309  0.0415 -0.5616
  767MOL0     C 1124   4.025   5.550  10.290  0.1720  0.0502  0.2345
  767MOL0     C 1125   3.907   5.623  10.356  0.8127  0.4504 -0.2832
  767MOL0     C 1126   3.772   5.578  10.302 -0.1038 -0.2281 -0.2813
  767MOL0     C 1127   3.651   5.659  10.345 -0.1690  0.0047  0.5472
  767MOL0     C 1128   3.536   5.628  10.254  0.1635 -0.0960  0.0877
  767MOL0     N 1129   3.551   5.682  10.119 -0.6885 -0.3277 -0.1648
  767MOL0     C 1130   3.562   5.813  10.075  0.0998 -0.3286 -0.1641
  767MOL0     C 1131   3.557   5.803   9.939 -0.9295  0.0372  0.4906
  767MOL0     C 1132   3.568   5.915   9.835  1.0442  0.8451  0.2872
  767MOL0     C 1133   3.442   5.890   9.752 -0.3939 -0.8386  0.5177
  767MOL0     C 1134   3.455   5.979   9.626 -0.6744  0.2674 -0.1082
  767MOL0     C 1135   3.332   5.979   9.535 -0.1056  0.4857 -0.0394
  767MOL0     O 1136   3.215   6.032   9.595  0.5740  0.5580 -0.2264
  767MOL0     C 1137   3.094   6.038   9.520 -0.2088  0.1898 -0.3595
  767MOL0     C 1138   2.985   6.103   9.586 -0.5079  0.0581  0.2857
  767MOL0     C 1139   2.859   6.111   9.523  0.2568 -0.6039 -0.4672
  767MOL0     C 1140   2.835   6.056   9.398 -0.7538  0.4741 -0.8344
  767MOL0     C 1141   2.697   6.051   9.338  0.4218  0.8614  0.4977
  767MOL0     O 1142   2.677   5.962   9.233 -0.5819  0.6405  1.1085
  767MOL0     C 1143   2.549   5.967   9.183  0.5385  0.1025  0.5594
  767MOL0     C 1144   2.457   5.865   9.215 -0.3346 -0.6093 -0.2814
  767MOL0     C 1145   2.326   5.860   9.160 -0.1319  0.4155  0.0831
  767MOL0     C 1146   2.279   5.960   9.075 -0.4968 -0.1230  0.5707
  767MOL0     O 1147   2.151   5.957   9.027 -0.4188 -0.3643  0.0609
  767MOL0     C 1148   2.130   5.861   8.923  0.2045  0.1250  0.7260
  767MOL0     C 1149   1.982   5.849   8.890  0.4710  0.2926 -0.9513
  767MOL0     C 1150   1.927   5.982   8.829 -1.0160 -0.2189  0.1544
  767MOL0     C 1151   1.780   5.965   8.771 -0.2250  0.2197 -0.5962
  767MOL0     C 1152   1.768   5.977   8.621 -0.7482  0.0950 -0.1675
  767MOL0     C 1153   1.622   5.936   8.586 -0.7624  0.2733  0.3754
  767MOL0     C 1154   1.595   5.929   8.437  1.1352  0.4257 -0.0798
  767MOL0     C 1155   1.631   6.061   8.365  0.1927  0.6671 -0.0411
  767MOL0    Cl 1156   1.562   6.031   8.201 -0.3327  0.0979 -0.0465
  767MOL0     C 1157   2.367   6.067   9.048  0.1301  0.1788 -0.0849
  767MOL0     C 1158   2.507   6.068   9.097  0.1771 -0.4625  0.0019
  767MOL0     O 1159   2.613   6.131   9.387 -0.0038 -0.3907  0.2587
  767MOL0     C 1160   2.949   5.993   9.338  0.4802 -0.8220  0.7529
  767MOL0     C 1161   3.075   5.983   9.392 -0.4348 -0.3207  0.1049
  767MOL0     N 1162   3.569   5.670   9.907  0.0529 -0.2357 -0.0262
  767MOL0     N 1163   3.566   5.601  10.018  0.3122  0.2427  0.1138
  767MOL0     C 1164   4.609   5.543  10.650 -0.5275  0.1501  0.0910
  767MOL0     C 1165   4.726   5.575  10.707  0.0450 -0.0942  0.4758
  767MOL0     C 1166   5.171   5.746  10.726 -0.6495  0.4635 -0.4730
  767MOL0     C 1167   5.170   5.710  10.868 -0.1259  0.8762  1.3154
  767MOL0     C 1168   5.279   5.744  10.947 -0.0528 -0.8920  0.5160
  767MOL0     C 1169   5.403   5.792  10.889 -0.6485 -0.0900 -0.2162
  767MOL0     O 1170   5.501   5.816  10.976 -0.6158 -0.1695  0.4755
  767MOL0     C 1171   5.585   5.933  10.964  1.2635 -0.2801 -0.1694
  767MOL0     C 1172   5.667   5.946  11.082 -0.2805  0.3541  0.0642
  767MOL0     C 1173   5.765   6.062  11.086  0.9082  0.6141 -0.2173
  767MOL0     C 1174   5.848   6.067  11.220  0.1581  0.0292 -0.2597
  767MOL0     C 1175   5.967   5.981  11.234 -0.0013  0.6358 -0.8722
  767MOL0     C 1176   6.071   5.923  11.243 -0.7261 -0.8396  0.3184
  767MOL0     C 1177   5.417   5.811  10.754 -1.0783 -0.0366  0.2433
  767MOL0     C 1178   5.301   5.782  10.680  0.0233  0.3261 -0.8905
  767MOL0     H 1179   4.850   5.761  10.449 -0.9235  1.0502 -0.3485
  767MOL0     H 1180   4.618   5.693  10.348  1.3325 -0.9124 -0.8789
  767MOL0     H 1181   4.495   5.505  10.277  0.0247  3.3381 -1.3328
  767MOL0     H 1182   4.415   5.657  10.299  0.8767  0.8655  1.9544
  767MOL0     H 1183   4.264   5.395  10.323 -0.5563 -0.3713 -1.8668
  767MOL0     H 1184   4.267   5.507  10.193  2.1554  2.0462 -0.7597
  767MOL0     H 1185   4.187   5.691  10.312 -2.9760  1.2645  0.4067
  767MOL0     H 1186   4.164   5.589  10.456 -1.0934  0.8779 -0.5280
  767MOL0     H 1187   4.032   5.572  10.183  1.9620  0.8239  0.4760
  767MOL0     H 1188   4.005   5.443  10.297  0.5884  0.0152  1.0340
  767MOL0     H 1189   3.912   5.731  10.342 -1.0158  1.1084  2.9878
  767MOL0     H 1190   3.901   5.593  10.461 -2.9313  2.0492  0.1121
  767MOL0     H 1191   3.758   5.473  10.330 -1.0984 -0.4468 -1.5057
  767MOL0     H 1192   3.784   5.583  10.194 -1.5278  2.2995 -0.3886
  767MOL0     H 1193   3.614   5.641  10.446 -1.1428 -1.1949  0.0053
  767MOL0     H 1194   3.674   5.764  10.328  0.7279 -0.1412  0.8192
  767MOL0     H 1195   3.435   5.653  10.285 -0.2447  0.8988 -1.8528
  767MOL0     H 1196   3.535   5.518  10.253  0.9709 -0.1174  0.3608
  767MOL0     H 1197   3.553   5.900  10.140 -0.2461  0.5395 -1.3448
  767MOL0     H 1198   3.661   5.917   9.779  0.5500  0.7371 -0.5503
  767MOL0     H 1199   3.564   6.004   9.898  0.9579  1.3594 -0.4375
  767MOL0     H 1200   3.349   5.912   9.804 -0.1926 -2.2190  1.5020
  767MOL0     H 1201   3.453   5.790   9.710  3.4550 -0.6165  0.5674
  767MOL0     H 1202   3.461   6.085   9.649  0.2667 -0.1997  2.0108
  767MOL0     H 1203   3.531   5.933   9.561  0.6515 -3.1744  3.4626
  767MOL0     H 1204   3.312   5.883   9.486  1.7306  0.2568 -0.4080
  767MOL0     H 1205   3.359   6.048   9.454 -1.4454 -0.4602 -1.3422
  767MOL0     H 1206   3.001   6.134   9.689 -1.1129 -3.3940  1.5381
  767MOL0     H 1207   2.774   6.156   9.574 -1.0074 -0.0897 -2.8888
  767MOL0     H 1208   2.487   5.782   9.277  1.3987 -1.8119 -2.5426
  767MOL0     H 1209   2.265   5.774   9.184  0.0343 -0.5972 -2.7921
  767MOL0     H 1210   2.164   5.758   8.935  2.5075  0.4027 -2.3238
  767MOL0     H 1211   2.176   5.902   8.833 -1.1440 -1.8212 -0.9538
  767MOL0     H 1212   1.924   5.817   8.977 -0.9359 -0.2324 -2.0512
  767MOL0     H 1213   1.971   5.771   8.814 -0.7942  0.1520 -0.6432
  767MOL0     H 1214   1.989   6.015   8.745  0.3060 -0.0483  1.1609
  767MOL0     H 1215   1.920   6.067   8.897 -1.2497  0.1429 -0.3140
  767MOL0     H 1216   1.749   5.868   8.812  1.7817 -0.0039  0.5556
  767MOL0     H 1217   1.725   6.052   8.807 -0.6057 -0.2370 -0.0455
  767MOL0     H 1218   1.845   5.916   8.574  1.8384  3.0729 -0.1503
  767MOL0     H 1219   1.788   6.079   8.586 -0.4102 -0.5953 -2.0744
  767MOL0     H 1220   1.554   6.009   8.630 -1.9474 -0.1820 -0.6240
  767MOL0     H 1221   1.592   5.837   8.622 -0.0704 -0.8671 -1.9817
  767MOL0     H 1222   1.648   5.843   8.394 -0.1377  0.3213 -1.5001
  767MOL0     H 1223   1.487   5.920   8.424  0.7792  0.9251  2.1627
  767MOL0     H 1224   1.740   6.066   8.353  0.3341 -0.8637  0.3322
  767MOL0     H 1225   1.585   6.142   8.422 -1.0044 -0.2032  0.2665
  767MOL0     H 1226   2.332   6.143   8.979  1.5661  0.5913 -0.3773
  767MOL0     H 1227   2.576   6.146   9.064 -0.5477 -0.7435 -2.3362
  767MOL0     H 1228   2.947   5.949   9.239  3.7394 -0.2444  0.3220
  767MOL0     H 1229   3.154   5.925   9.347  0.9413  0.8465  0.9116
  767MOL0     H 1230   4.534   5.491  10.708 -1.3904  2.3492  1.0508
  767MOL0     H 1231   4.758   5.533  10.802 -1.5094 -3.0570 -0.1883
  767MOL0     H 1232   5.092   5.659  10.925 -0.0150 -1.9185 -0.8209
  767MOL0     H 1233   5.276   5.736  11.055  1.0844 -0.2539  0.6178
  767MOL0     H 1234   5.522   6.022  10.959  1.4494 -0.0492  1.1274
  767MOL0     H 1235   5.642   5.939  10.871  1.9789  2.0909  0.3581
  767MOL0     H 1236   5.599   5.974  11.163  0.9634 -0.6033  1.5213
  767MOL0     H 1237   5.722   5.852  11.095  3.8066  2.2642 -1.4951
  767MOL0     H 1238   5.706   6.154  11.078 -1.4632 -0.9287 -1.8338
  767MOL0     H 1239   5.839   6.042  11.009  1.8512  0.4136  0.7207
  767MOL0     H 1240   5.871   6.172  11.244 -0.5676 -0.1841  1.5365
  767MOL0     H 1241   5.776   6.037  11.297 -2.6495  1.9209 -1.9817
  767MOL0     H 1242   6.168   5.878  11.249  0.1676  0.8564 -0.6416
  767MOL0     H 1243   5.516   5.832  10.714 -0.5791 -3.6338 -0.8286
  767MOL0     H 1244   5.312   5.796  10.573 -1.8599  2.9200 -0.8346
  768MOL0     O 1245   6.652  10.700   4.509  0.8546 -0.3834  0.3978
  768MOL0     C 1246   6.658  10.737   4.624 -0.3055  0.0378 -0.1987
  768MOL0     O 1247   6.568  10.725   4.716  0.3503  0.4586 -0.0765
  768MOL0     C 1248   6.437  10.706   4.672 -0.6788  0.3135  0.8739
  768MOL0     C 1249   6.387  10.597   4.594 -0.5087  0.4537  0.3648
  768MOL0     C 1250   6.261  10.584   4.544  0.7591  0.4251 -0.1171
  768MOL0     C 1251   6.166  10.684   4.571  0.9261  0.1156  0.5064
  768MOL0     O 1252   6.034  10.661   4.549 -0.0056  0.1497  0.4450
  768MOL0     C 1253   5.959  10.783   4.520 -0.1285  0.0081  0.1735
  768MOL0     C 1254   5.813  10.755   4.487 -0.1013  0.1217  0.2363
  768MOL0     C 1255   5.729  10.724   4.601 -0.3647 -0.3727 -0.0836
  768MOL0     C 1256   5.595  10.664   4.565  0.7411 -0.2014 -0.5138
  768MOL0     C 1257   5.503  10.737   4.462 -0.1312 -1.1471 -0.7651
  768MOL0     C 1258   5.454  10.878   4.517 -0.0255  0.3612  0.4989
  768MOL0     C 1259   5.374  10.956   4.411 -0.4671  0.2801  0.1862
  768MOL0     C 1260   5.319  11.080   4.473 -0.7791  0.5595  0.4416
  768MOL0     N 1261   5.237  11.153   4.373 -0.5997  0.2969 -0.0021
  768MOL0     C 1262   5.112  11.191   4.393  1.5196 -0.1935 -0.0240
  768MOL0     C 1263   5.073  11.258   4.286 -0.1578 -0.5303  0.0011
  768MOL0     C 1264   4.941  11.330   4.257  0.1428 -0.6811 -0.2914
  768MOL0     C 1265   4.850  11.228   4.203  0.2920  0.3401  0.3911
  768MOL0     C 1266   4.726  11.201   4.290  0.0186  0.4708 -0.1431
  768MOL0     C 1267   4.643  11.322   4.312 -0.1252 -0.3130  0.0065
  768MOL0     O 1268   4.540  11.281   4.409 -0.1869 -0.3673 -0.3237
  768MOL0     C 1269   4.445  11.377   4.445 -0.3242  0.5596  0.6207
  768MOL0     C 1270   4.408  11.497   4.380  0.6343 -0.0845  0.5030
  768MOL0     C 1271   4.298  11.570   4.417  0.2839  0.1178 -0.5329
  768MOL0     C 1272   4.225  11.511   4.523  0.4504 -0.6955 -0.2160
  768MOL0     C 1273   4.097  11.581   4.557 -0.0212 -0.1883 -0.6988
  768MOL0     O 1274   4.019  11.519   4.658  0.9022 -0.3187  0.2336
  768MOL0     C 1275   3.895  11.587   4.689  0.0291  0.7923 -0.2055
  768MOL0     C 1276   3.786  11.522   4.623 -0.6831 -0.4490 -0.3045
  768MOL0     C 1277   3.661  11.580   4.628 -0.3467  0.0857 -0.2162
  768MOL0     C 1278   3.642  11.689   4.716 -0.3725 -0.0886 -0.3937
  768MOL0     O 1279   3.513  11.724   4.732 -0.7430  0.6418  0.0209
  768MOL0     C 1280   3.488  11.845   4.810  0.1068  0.1625  0.5973
  768MOL0     C 1281   3.337  11.857   4.810  0.5365 -0.2139  0.1631
  768MOL0     C 1282   3.289  11.973   4.721 -0.4801 -0.6427  0.3675
  768MOL0     C 1283   3.138  11.983   4.721 -1.3191 -0.4525  0.4147
  768MOL0     C 1284   3.076  11.904   4.600 -0.5378  0.0554  0.0708
  768MOL0     C 1285   2.931  11.928   4.593 -0.5493 -0.3427  0.7580
  768MOL0     C 1286   2.879  11.899   4.452 -0.2929 -0.3574 -0.6996
  768MOL0     C 1287   2.728  11.909   4.433  0.0285  0.0243  0.1615
  768MOL0    Cl 1288   2.684  11.858   4.265 -0.1522 -0.2079  0.0204
  768MOL0     C 1289   3.751  11.748   4.786 -0.5443 -0.1400  0.6857
  768MOL0     C 1290   3.878  11.696   4.772 -0.0377  0.1129  0.0647
  768MOL0     O 1291   4.065  11.685   4.496 -0.4981  0.0122 -0.6832
  768MOL0     C 1292   4.258  11.389   4.588 -0.0025  0.4269 -0.5470
  768MOL0     C 1293   4.371  11.320   4.550 -0.7638 -0.3226  0.2278
  768MOL0     N 1294   5.174  11.255   4.197 -0.5683 -0.4304  0.3732
  768MOL0     N 1295   5.284  11.196   4.250 -0.4889 -0.1982 -0.1734
  768MOL0     C 1296   6.212  10.797   4.644 -0.8697 -0.9844  0.4032
  768MOL0     C 1297   6.343  10.811   4.688  0.6757 -0.1492 -0.7995
  768MOL0     C 1298   6.798  10.797   4.659  0.9626 -0.2074  0.1380
  768MOL0     C 1299   6.828  10.833   4.786  0.2407  0.2670 -0.7173
  768MOL0     C 1300   6.949  10.893   4.811  0.6006  0.0902 -0.1523
  768MOL0     C 1301   7.036  10.926   4.709  0.8380 -0.4045 -0.8727
  768MOL0     O 1302   7.156  10.982   4.754 -0.2214  0.0235 -0.0124
  768MOL0     C 1303   7.275  10.995   4.672 -0.0304 -1.2369  0.7432
  768MOL0     C 1304   7.335  10.859   4.656 -0.1981  0.5573 -0.1060
  768MOL0     C 1305   7.406  10.806   4.779 -0.1944 -0.2166 -0.2669
  768MOL0     C 1306   7.320  10.717   4.872  0.2880 -0.1374  0.2165
  768MOL0     C 1307   7.412  10.670   4.969  0.0419  0.3867 -0.2715
  768MOL0     C 1308   7.488  10.629   5.050  0.3590 -0.7348  0.5669
  768MOL0     C 1309   7.011  10.884   4.580  0.2814 -0.1515 -0.4261
  768MOL0     C 1310   6.893  10.818   4.552  0.3017 -0.3919 -0.9143
  768MOL0     H 1311   6.459  10.522   4.561 -0.0281  0.4578  1.3554
  768MOL0     H 1312   6.232  10.507   4.474  2.0042  2.1958 -2.7278
  768MOL0     H 1313   6.000  10.811   4.422  0.9584 -2.8321 -0.2953
  768MOL0     H 1314   5.961  10.865   4.592 -2.9634 -0.3545  0.7837
  768MOL0     H 1315   5.811  10.665   4.424  1.5715  0.8909 -0.9924
  768MOL0     H 1316   5.768  10.836   4.429 -0.9688 -1.6754 -1.7120
  768MOL0     H 1317   5.687  10.815   4.646 -3.0565 -0.4394 -2.1795
  768MOL0     H 1318   5.783  10.665   4.676 -0.0293  0.9226  0.7241
  768MOL0     H 1319   5.611  10.562   4.530  0.3090  0.3243 -2.3965
  768MOL0     H 1320   5.541  10.656   4.659 -1.5136 -1.1947 -1.8169
  768MOL0     H 1321   5.413  10.676   4.453  0.4610 -2.4169  1.1282
  768MOL0     H 1322   5.548  10.756   4.364  3.6665 -0.4689  0.9049
  768MOL0     H 1323   5.541  10.939   4.546  1.7819 -1.3717 -0.9756
  768MOL0     H 1324   5.402  10.866   4.613  1.6216 -1.3397  1.2544
  768MOL0     H 1325   5.438  10.982   4.326 -0.0272 -0.6958  0.1957
  768MOL0     H 1326   5.293  10.905   4.359 -0.0210 -1.0927  0.7853
  768MOL0     H 1327   5.404  11.130   4.520 -0.9003  1.0232  0.1793
  768MOL0     H 1328   5.256  11.055   4.559  2.8138 -0.9529  2.8393
  768MOL0     H 1329   5.049  11.192   4.481 -0.4036  1.0725 -1.3095
  768MOL0     H 1330   4.957  11.409   4.183  0.1439  1.3289  1.7335
  768MOL0     H 1331   4.913  11.384   4.348  1.0179 -1.0438  0.2098
  768MOL0     H 1332   4.897  11.130   4.194 -2.7397 -1.2488  0.7089
  768MOL0     H 1333   4.798  11.254   4.111 -2.6930  0.5760  2.0114
  768MOL0     H 1334   4.662  11.123   4.249  1.6291 -1.3272  0.6432
  768MOL0     H 1335   4.759  11.155   4.383  1.1926 -1.1678 -1.3075
  768MOL0     H 1336   4.600  11.355   4.217  1.9110 -1.7866 -1.5213
  768MOL0     H 1337   4.707  11.403   4.349  1.3260 -0.4812 -1.9667
  768MOL0     H 1338   4.464  11.535   4.295 -1.7087  2.1939 -0.1658
  768MOL0     H 1339   4.270  11.665   4.372  0.6400 -0.8208 -2.8909
  768MOL0     H 1340   3.809  11.426   4.579  2.3031 -0.2788  0.6620
  768MOL0     H 1341   3.577  11.530   4.581 -1.0394 -1.3672  2.3867
  768MOL0     H 1342   3.533  11.938   4.773  1.1454  0.3846  2.3348
  768MOL0     H 1343   3.527  11.834   4.912  0.9411 -2.1422  0.0901
  768MOL0     H 1344   3.314  11.868   4.916  0.1830 -0.4392  0.1113
  768MOL0     H 1345   3.290  11.764   4.777  1.2770  0.5126 -3.4346
  768MOL0     H 1346   3.335  11.970   4.622  4.6310  0.6373  2.4018
  768MOL0     H 1347   3.322  12.064   4.772  0.2089 -0.1179 -0.9700
  768MOL0     H 1348   3.097  11.934   4.810 -2.9734 -1.2221 -0.7032
  768MOL0     H 1349   3.111  12.089   4.718 -1.0752 -0.4169 -0.7242
  768MOL0     H 1350   3.104  11.801   4.620  1.5305  0.5498 -0.0890
  768MOL0     H 1351   3.124  11.923   4.504  0.5688  4.8798  1.2805
  768MOL0     H 1352   2.914  12.035   4.609  1.4582  0.6755 -2.9487
  768MOL0     H 1353   2.883  11.865   4.668 -2.0789  1.5613  1.4556
  768MOL0     H 1354   2.929  11.951   4.369  1.4978 -3.7624 -1.9590
  768MOL0     H 1355   2.907  11.794   4.440  0.2655 -0.2096 -0.7589
  768MOL0     H 1356   2.707  12.015   4.453  1.3983  0.1624  0.9826
  768MOL0     H 1357   2.687  11.843   4.510  1.0292 -1.5132 -0.5865
  768MOL0     H 1358   3.727  11.820   4.863 -0.8296  0.6663 -0.1375
  768MOL0     H 1359   3.963  11.748   4.815 -0.2822  3.3551 -2.8883
  768MOL0     H 1360   4.194  11.349   4.667 -0.8026  1.7396 -0.5119
  768MOL0     H 1361   4.401  11.226   4.596 -0.4882 -0.6244 -0.5470
  768MOL0     H 1362   6.158  10.887   4.674 -2.0282 -1.6248  0.2714
  768MOL0     H 1363   6.372  10.898   4.747 -2.4876  0.4138  0.1145
  768MOL0     H 1364   6.763  10.822   4.873  1.9226  0.7813  0.6714
  768MOL0     H 1365   6.973  10.928   4.911  0.3072  0.2967 -0.1548
  768MOL0     H 1366   7.341  11.069   4.718 -2.5172  1.4316  0.3004
  768MOL0     H 1367   7.249  11.043   4.578  2.0350  1.7697  1.5718
  768MOL0     H 1368   7.263  10.788   4.614 -0.9352 -0.2014  2.2804
  768MOL0     H 1369   7.410  10.885   4.581 -1.9017 -1.1010 -2.5320
  768MOL0     H 1370   7.443  10.894   4.832  1.2107  0.1987 -1.8590
  768MOL0     H 1371   7.497  10.752   4.752 -0.8054 -2.6531  2.0861
  768MOL0     H 1372   7.237  10.765   4.924 -1.0389 -2.1823  0.1227
  768MOL0     H 1373   7.284  10.632   4.813 -0.5809  1.5652 -1.8139
  768MOL0     H 1374   7.562  10.603   5.123  1.5867  2.1345  0.5010
  768MOL0     H 1375   7.080  10.890   4.497 -1.5416  0.5847 -1.9711
  768MOL0     H 1376   6.872  10.786   4.450 -2.9626  0.9101 -0.7764
  769MOL0     O 1377   7.132   8.113   9.118 -0.1940  0.2857 -0.7662
  769MOL0     C 1378   7.055   8.025   9.159  0.0605 -0.0153  1.6214
  769MOL0     O 1379   6.928   8.037   9.196 -0.2479  0.0224 -0.1444
  769MOL0     C 1380   6.853   8.147   9.174 -0.6971 -0.4995 -0.4272
  769MOL0     C 1381   6.897   8.273   9.215  0.1011  0.1275 -0.3979
  769MOL0     C 1382   6.821   8.385   9.197 -0.2006  0.1498 -0.1693
  769MOL0     C 1383   6.691   8.377   9.135  0.5769  0.4455 -0.2915
  769MOL0     O 1384   6.624   8.496   9.098 -0.5943  0.7782  0.2024
  769MOL0     C 1385   6.508   8.490   9.016  0.7034  0.1426  0.4274
  769MOL0     C 1386   6.481   8.617   8.927 -0.0946  0.5261 -0.4177
  769MOL0     C 1387   6.369   8.590   8.822 -0.1144 -0.4982  0.2449
  769MOL0     C 1388   6.233   8.582   8.904 -0.0743  0.1497 -0.1619
  769MOL0     C 1389   6.117   8.543   8.811 -0.1365 -0.3312 -0.0954
  769MOL0     C 1390   5.982   8.567   8.878 -0.1380 -0.6436 -0.3656
  769MOL0     C 1391   5.875   8.544   8.780 -0.0761 -0.2806 -0.1291
  769MOL0     C 1392   5.739   8.542   8.855 -0.5048 -0.3604  0.8125
  769MOL0     N 1393   5.632   8.519   8.759 -0.4259  1.1341 -0.0895
  769MOL0     C 1394   5.521   8.601   8.761 -1.0486 -0.3487 -0.2861
  769MOL0     C 1395   5.447   8.567   8.654 -0.5901 -0.8417 -1.6548
  769MOL0     C 1396   5.318   8.633   8.611 -0.5984 -0.0901 -0.9321
  769MOL0     C 1397   5.201   8.542   8.604 -0.5728 -0.4726  0.3012
  769MOL0     C 1398   5.081   8.619   8.578  0.7744  0.2262 -0.7907
  769MOL0     C 1399   4.955   8.519   8.554  0.5217  0.1362 -0.2900
  769MOL0     O 1400   4.843   8.607   8.549 -0.2123 -0.3690 -0.0262
  769MOL0     C 1401   4.721   8.550   8.523 -0.7217  0.3999 -0.1234
  769MOL0     C 1402   4.696   8.417   8.480  0.1914  0.0664 -0.2178
  769MOL0     C 1403   4.565   8.383   8.448  0.2516 -0.2183  0.6489
  769MOL0     C 1404   4.454   8.470   8.457 -1.4316  0.1097 -0.0939
  769MOL0     C 1405   4.322   8.422   8.437 -0.9877 -0.4100 -0.2271
  769MOL0     O 1406   4.234   8.511   8.391  0.8053  0.1475 -0.2255
  769MOL0     C 1407   4.109   8.462   8.369  0.0206  0.1660  1.0124
  769MOL0     C 1408   4.072   8.418   8.242 -0.5135  0.3896  0.1460
  769MOL0     C 1409   3.944   8.362   8.218 -0.4923  0.0444 -0.3851
  769MOL0     C 1410   3.867   8.341   8.324  0.1726  0.0198 -0.1541
  769MOL0     O 1411   3.741   8.289   8.295 -0.2723  0.1442  0.5314
  769MOL0     C 1412   3.637   8.295   8.398  0.2862 -0.8462 -0.1088
  769MOL0     C 1413   3.517   8.226   8.337  0.2078  0.3152  0.2385
  769MOL0     C 1414   3.382   8.266   8.403 -1.3442 -0.0462  0.6129
  769MOL0     C 1415   3.271   8.189   8.338  0.1415 -0.1162  0.5002
  769MOL0     C 1416   3.135   8.201   8.413 -0.2383  0.9375  0.1558
  769MOL0     C 1417   3.061   8.097   8.333  0.7415  0.3566 -0.9321
  769MOL0     C 1418   2.915   8.047   8.381 -0.8543  0.1795  0.3772
  769MOL0     C 1419   2.890   7.910   8.325  0.3219 -0.5432 -0.4154
  769MOL0    Cl 1420   2.719   7.894   8.312  0.1338 -0.1070  0.6729
  769MOL0     C 1421   3.899   8.381   8.452 -0.6508  0.7355 -0.9180
  769MOL0     C 1422   4.026   8.437   8.474  0.8191 -0.1605  0.3083
  769MOL0     O 1423   4.302   8.309   8.465 -0.1700 -0.0710  0.8626
  769MOL0     C 1424   4.487   8.608   8.481 -0.9928 -0.7714 -0.0701
  769MOL0     C 1425   4.620   8.646   8.515  0.3939  0.0896 -0.3173
  769MOL0     N 1426   5.514   8.469   8.592 -0.5133  0.0731 -0.9196
  769MOL0     N 1427   5.628   8.438   8.652  0.9781 -0.3689  0.4510
  769MOL0     C 1428   6.639   8.250   9.108  0.3306  0.0522  0.1219
  769MOL0     C 1429   6.724   8.139   9.121  0.4547  0.8634 -0.7075
  769MOL0     C 1430   7.102   7.889   9.170 -0.5805  0.3604  0.2143
  769MOL0     C 1431   7.025   7.784   9.233 -1.0752  0.1650  0.2755
  769MOL0     C 1432   7.070   7.655   9.234 -0.1869  0.4001  0.1350
  769MOL0     C 1433   7.200   7.621   9.185  0.7959 -0.4222 -0.4739
  769MOL0     O 1434   7.242   7.492   9.213 -0.5733 -0.5706 -0.2593
  769MOL0     C 1435   7.356   7.468   9.299 -0.6942 -0.1291 -0.3330
  769MOL0     C 1436   7.362   7.318   9.320 -0.3552  0.4422 -0.5844
  769MOL0     C 1437   7.233   7.269   9.376  0.9146 -0.0216  0.1260
  769MOL0     C 1438   7.244   7.120   9.421 -0.0777  0.0772  0.1790
  769MOL0     C 1439   7.128   7.090   9.498  1.2401 -0.0661 -0.1673
  769MOL0     C 1440   7.027   7.053   9.553 -0.2387  0.6688  0.4509
  769MOL0     C 1441   7.276   7.718   9.121  0.4244 -0.4623  0.2920
  769MOL0     C 1442   7.230   7.853   9.118  0.5211  0.5099  0.0774
  769MOL0     H 1443   6.992   8.297   9.261 -0.3202 -2.1217  1.8589
  769MOL0     H 1444   6.858   8.485   9.215  0.1008 -0.0878  0.5555
  769MOL0     H 1445   6.424   8.478   9.085  1.6739  1.2927  1.8720
  769MOL0     H 1446   6.507   8.402   8.951 -1.2686 -1.3123  2.2474
  769MOL0     H 1447   6.572   8.651   8.877  0.9634 -2.6255 -0.8112
  769MOL0     H 1448   6.448   8.700   8.991 -0.9277  1.6769 -2.2605
  769MOL0     H 1449   6.380   8.494   8.770  1.3920  1.3422 -3.2088
  769MOL0     H 1450   6.361   8.670   8.747 -0.6472  1.5139  2.3391
  769MOL0     H 1451   6.248   8.504   8.980 -1.5730 -1.3823 -1.3620
  769MOL0     H 1452   6.205   8.681   8.940 -1.9485 -0.0079 -1.0628
  769MOL0     H 1453   6.124   8.435   8.796 -3.2915 -0.7252  0.6540
  769MOL0     H 1454   6.124   8.595   8.715  1.8024 -0.9589 -0.3333
  769MOL0     H 1455   5.982   8.673   8.904  1.8934 -0.8285  0.6667
  769MOL0     H 1456   5.965   8.504   8.966 -0.5666 -1.0387 -0.7284
  769MOL0     H 1457   5.874   8.620   8.701  0.7160 -1.0815 -0.9389
  769MOL0     H 1458   5.901   8.452   8.726  0.1940  0.0854 -0.6310
  769MOL0     H 1459   5.738   8.639   8.906  0.8227 -0.3475  0.8388
  769MOL0     H 1460   5.737   8.463   8.931  3.9050 -1.6403 -0.0924
  769MOL0     H 1461   5.492   8.678   8.832  0.2490  0.3077 -0.4388
  769MOL0     H 1462   5.318   8.666   8.507 -4.8678  2.9753 -0.2659
  769MOL0     H 1463   5.292   8.720   8.674 -1.2274  0.5390 -2.0226
  769MOL0     H 1464   5.192   8.490   8.699  1.6843 -0.1110  0.7744
  769MOL0     H 1465   5.211   8.466   8.525 -3.8231 -2.1823  1.3829
  769MOL0     H 1466   5.060   8.668   8.674  0.4099  0.1592 -0.8368
  769MOL0     H 1467   5.075   8.701   8.506 -2.6682  3.7562  2.9565
  769MOL0     H 1468   4.954   8.440   8.629 -1.3098  0.1086 -0.3080
  769MOL0     H 1469   4.973   8.475   8.455 -0.3639  0.5549 -0.6505
  769MOL0     H 1470   4.775   8.343   8.481  1.4357  1.3359  1.0711
  769MOL0     H 1471   4.562   8.278   8.420 -1.2330 -0.0741  0.1624
  769MOL0     H 1472   4.142   8.408   8.161  2.5611 -1.8337  2.8271
  769MOL0     H 1473   3.905   8.325   8.124 -2.6682 -1.7786  1.1323
  769MOL0     H 1474   3.626   8.404   8.404  1.1416 -0.8329  3.2574
  769MOL0     H 1475   3.668   8.254   8.494 -1.9135  1.3163  1.6528
  769MOL0     H 1476   3.527   8.118   8.342 -3.3736 -0.1477  0.3249
  769MOL0     H 1477   3.521   8.245   8.229  0.3694  0.1489  0.2145
  769MOL0     H 1478   3.365   8.372   8.381 -0.1432  0.3240  1.3555
  769MOL0     H 1479   3.391   8.260   8.512 -3.1220  0.4120  0.8095
  769MOL0     H 1480   3.258   8.229   8.237 -2.0501 -0.7798  0.4785
  769MOL0     H 1481   3.295   8.083   8.335 -1.1525 -0.4003 -1.4812
  769MOL0     H 1482   3.085   8.296   8.391 -1.3476  0.6747  1.3954
  769MOL0     H 1483   3.150   8.180   8.519  2.3331  0.4974 -0.2313
  769MOL0     H 1484   3.119   8.004   8.334  1.2545  0.5278  3.4868
  769MOL0     H 1485   3.042   8.139   8.234 -4.2812  0.7117 -0.0800
  769MOL0     H 1486   2.919   8.043   8.491  1.3152  2.2481  0.4477
  769MOL0     H 1487   2.842   8.124   8.352 -0.9496 -0.5548 -1.4128
  769MOL0     H 1488   2.925   7.828   8.388 -2.0038 -1.2625  0.0186
  769MOL0     H 1489   2.931   7.897   8.224  2.1674 -1.5670  0.4087
  769MOL0     H 1490   3.825   8.363   8.529 -0.0009  0.7607 -0.2868
  769MOL0     H 1491   4.050   8.469   8.575 -1.5622 -0.2128  0.9634
  769MOL0     H 1492   4.412   8.684   8.501 -0.3664 -0.0954 -0.2927
  769MOL0     H 1493   4.638   8.750   8.542 -0.5859  0.5436 -1.3271
  769MOL0     H 1494   6.537   8.224   9.081  0.1967 -0.0919  0.7383
  769MOL0     H 1495   6.676   8.043   9.105  0.2126  0.7477  0.5838
  769MOL0     H 1496   6.922   7.792   9.263 -1.8094 -0.1328 -1.9291
  769MOL0     H 1497   7.006   7.590   9.292  0.1278  0.2589  0.3322
  769MOL0     H 1498   7.344   7.514   9.398  1.0768  3.2726 -1.5277
  769MOL0     H 1499   7.444   7.505   9.246  0.8471 -1.5636  1.1315
  769MOL0     H 1500   7.375   7.266   9.224 -0.3388 -1.1135  0.2256
  769MOL0     H 1501   7.450   7.297   9.381 -0.9668  1.0360  0.5241
  769MOL0     H 1502   7.146   7.278   9.309  2.0394  0.1506 -1.3766
  769MOL0     H 1503   7.213   7.330   9.465  3.4782  0.8739  0.1721
  769MOL0     H 1504   7.261   7.057   9.333 -2.1370  1.1666 -1.0748
  769MOL0     H 1505   7.331   7.109   9.486  0.2105 -1.8291 -0.4621
  769MOL0     H 1506   6.942   7.010   9.601  2.1885 -2.4944  2.3488
  769MOL0     H 1507   7.369   7.686   9.075  0.1703  0.6414 -1.0857
  769MOL0     H 1508   7.304   7.918   9.073 -1.3198  2.6282 -0.0800
  770MOL0     O 1509   6.006  10.445   3.038  0.5140 -0.1940 -0.2775
  770MOL0     C 1510   6.072  10.530   2.982 -0.3374 -0.1824 -0.0500
  770MOL0     O 1511   6.083  10.538   2.851 -0.7691  0.6645  0.1923
  770MOL0     C 1512   6.014  10.451   2.766 -0.8513  0.8076 -0.2698
  770MOL0     C 1513   5.878  10.418   2.776 -0.7353 -1.2155 -0.2436
  770MOL0     C 1514   5.812  10.341   2.691  0.2382 -0.3094 -0.6151
  770MOL0     C 1515   5.878  10.266   2.594  0.2246 -0.3732  0.6065
  770MOL0     O 1516   5.811  10.169   2.522 -0.2479 -0.5261  0.1262
  770MOL0     C 1517   5.865  10.144   2.395  0.6797  0.0018 -0.5079
  770MOL0     C 1518   5.757  10.087   2.296 -0.3593 -0.3189 -0.1699
  770MOL0     C 1519   5.638  10.182   2.287 -0.5990  0.8324 -0.2198
  770MOL0     C 1520   5.544  10.108   2.194 -0.6143 -0.0905 -0.8325
  770MOL0     C 1521   5.405  10.181   2.188 -0.3629  0.5122  0.5661
  770MOL0     C 1522   5.294  10.140   2.082 -0.6122 -0.0946 -0.6415
  770MOL0     C 1523   5.223  10.010   2.125  0.3166  1.0391  0.3640
  770MOL0     C 1524   5.095   9.982   2.034 -0.1007  0.0992  0.2649
  770MOL0     N 1525   4.979  10.074   2.049 -0.2338 -0.5128 -0.6246
  770MOL0     C 1526   4.909  10.099   2.165  0.3151  0.7803  0.0703
  770MOL0     C 1527   4.825  10.193   2.133  0.7778 -0.5436  0.4146
  770MOL0     C 1528   4.735  10.242   2.249  0.1105 -0.1117  0.2261
  770MOL0     C 1529   4.667  10.373   2.222  0.4974  0.5199 -0.2693
  770MOL0     C 1530   4.561  10.356   2.109 -0.1563 -0.3459 -0.2316
  770MOL0     C 1531   4.498  10.488   2.052 -0.4900  0.1180  0.2579
  770MOL0     O 1532   4.615  10.558   1.998  0.8049 -0.1650 -0.4945
  770MOL0     C 1533   4.593  10.676   1.937  0.8278 -0.2803 -0.1688
  770MOL0     C 1534   4.706  10.757   1.914  1.1618  0.6076 -0.2064
  770MOL0     C 1535   4.695  10.879   1.844  0.4961  0.9273 -0.4469
  770MOL0     C 1536   4.575  10.923   1.794  0.6171 -0.1951  0.4949
  770MOL0     C 1537   4.558  11.046   1.717 -0.3893  0.7522 -0.3055
  770MOL0     O 1538   4.677  11.118   1.704 -0.1160 -0.2571 -0.0570
  770MOL0     C 1539   4.672  11.237   1.654  0.3819  0.0929  0.0065
  770MOL0     C 1540   4.640  11.258   1.520  0.0586 -0.8733  0.4951
  770MOL0     C 1541   4.618  11.388   1.464 -0.1831  0.6597 -0.9823
  770MOL0     C 1542   4.643  11.505   1.550 -0.3175 -0.3845 -0.6882
  770MOL0     O 1543   4.605  11.629   1.502 -0.3614  0.1825 -0.0360
  770MOL0     C 1544   4.531  11.701   1.592 -1.0444 -0.4518  0.1904
  770MOL0     C 1545   4.424  11.773   1.508  0.0692 -0.3907  0.6825
  770MOL0     C 1546   4.313  11.833   1.592  0.9610 -0.3701  0.5403
  770MOL0     C 1547   4.215  11.915   1.507 -0.1800 -0.2176 -0.7471
  770MOL0     C 1548   4.070  11.906   1.560 -1.0385 -0.3049  0.2449
  770MOL0     C 1549   4.060  11.982   1.687 -0.2343  0.3356 -0.7674
  770MOL0     C 1550   3.915  11.982   1.741 -0.5715 -0.2778  0.8249
  770MOL0     C 1551   3.893  12.085   1.853  0.0996 -0.3629 -0.4424
  770MOL0    Cl 1552   3.895  12.261   1.801 -0.3181 -0.2369 -0.0700
  770MOL0     C 1553   4.682  11.484   1.680  0.0720 -0.6034 -0.0200
  770MOL0     C 1554   4.705  11.355   1.731  0.7750  0.7565 -0.1202
  770MOL0     O 1555   4.445  11.089   1.678  0.6902  0.4741  0.4953
  770MOL0     C 1556   4.462  10.840   1.813 -0.0341  0.8012 -0.6936
  770MOL0     C 1557   4.472  10.724   1.882  0.5393  0.2636 -0.3866
  770MOL0     N 1558   4.841  10.232   2.003  0.0823  0.2375 -0.3463
  770MOL0     N 1559   4.929  10.153   1.953  0.3213  0.1105 -0.3202
  770MOL0     C 1560   6.015  10.286   2.587 -0.2834  0.1366  0.1164
  770MOL0     C 1561   6.086  10.374   2.666 -0.1294  1.2691 -0.6648
  770MOL0     C 1562   6.153  10.632   3.060  0.1265  0.6680 -0.0348
  770MOL0     C 1563   6.236  10.717   2.991 -0.8610  0.2454  0.7063
  770MOL0     C 1564   6.317  10.798   3.068 -0.5057  0.0495  0.9142
  770MOL0     C 1565   6.301  10.819   3.205  0.0841 -0.9932 -1.5718
  770MOL0     O 1566   6.376  10.913   3.261 -0.2257 -0.2716 -0.3558
  770MOL0     C 1567   6.369  10.944   3.400  0.2601  0.1180 -0.2238
  770MOL0     C 1568   6.449  11.073   3.426 -0.8538  0.2218 -0.1665
  770MOL0     C 1569   6.599  11.049   3.464 -0.7354 -0.4690 -0.6617
  770MOL0     C 1570   6.665  11.189   3.470  0.5786 -0.7309  0.0276
  770MOL0     C 1571   6.801  11.172   3.518 -0.2839 -0.4700  0.4735
  770MOL0     C 1572   6.920  11.178   3.544 -0.3798  0.0161 -0.3671
  770MOL0     C 1573   6.201  10.754   3.270  0.1504  0.3014 -0.8893
  770MOL0     C 1574   6.135  10.651   3.200 -0.6274 -0.3229  0.6138
  770MOL0     H 1575   5.826  10.475   2.853  0.2233  5.2385 -3.6333
  770MOL0     H 1576   5.707  10.330   2.715  0.7733 -1.1047  1.6744
  770MOL0     H 1577   5.953  10.079   2.406  0.9468  0.7485  2.8849
  770MOL0     H 1578   5.899  10.243   2.364  2.3689  1.1510  4.1045
  770MOL0     H 1579   5.728   9.992   2.342  1.4496  0.4488  2.9127
  770MOL0     H 1580   5.808  10.076   2.200  1.4594 -4.7820  1.0376
  770MOL0     H 1581   5.668  10.277   2.242 -1.5474  1.2399  0.0051
  770MOL0     H 1582   5.593  10.204   2.384 -0.8080 -3.0567  0.7550
  770MOL0     H 1583   5.599  10.112   2.100  1.4094 -0.7247  0.2693
  770MOL0     H 1584   5.508  10.012   2.232  1.0931 -0.4031  0.1128
  770MOL0     H 1585   5.428  10.286   2.164 -0.1142  0.6563  1.4054
  770MOL0     H 1586   5.364  10.191   2.288 -2.9162  1.0243 -0.4575
  770MOL0     H 1587   5.335  10.121   1.982 -1.2126 -1.7346 -0.6035
  770MOL0     H 1588   5.217  10.217   2.076  0.5907  1.1705 -0.5254
  770MOL0     H 1589   5.294   9.926   2.120  0.5872  1.2070  1.2217
  770MOL0     H 1590   5.192  10.001   2.229  1.8474 -2.5130  0.6772
  770MOL0     H 1591   5.056   9.879   2.038 -0.9761  0.3975 -0.3213
  770MOL0     H 1592   5.133   9.996   1.933 -1.2130  1.5850  0.0166
  770MOL0     H 1593   4.901  10.053   2.263 -1.3624  2.7289  0.9072
  770MOL0     H 1594   4.798  10.251   2.338  3.0500 -0.3514 -1.7111
  770MOL0     H 1595   4.654  10.169   2.260  0.1621 -0.1312  0.4765
  770MOL0     H 1596   4.742  10.451   2.204  2.3821 -1.4452 -1.3754
  770MOL0     H 1597   4.614  10.406   2.312  0.3323  0.6271 -0.4043
  770MOL0     H 1598   4.607  10.298   2.029 -1.1693 -1.6097  0.0650
  770MOL0     H 1599   4.482  10.290   2.146  1.3971 -3.1727 -1.6434
  770MOL0     H 1600   4.456  10.549   2.132 -1.9182  0.4878 -0.7375
  770MOL0     H 1601   4.423  10.454   1.979  1.2424  0.3464 -1.7330
  770MOL0     H 1602   4.801  10.729   1.958  1.4609 -0.0809 -1.2658
  770MOL0     H 1603   4.779  10.938   1.810 -2.1414  3.3177 -3.5000
  770MOL0     H 1604   4.609  11.177   1.454  0.7092 -0.2984 -0.5451
  770MOL0     H 1605   4.578  11.400   1.364 -0.9501 -0.4090 -0.8243
  770MOL0     H 1606   4.582  11.782   1.645  0.3207 -0.8498 -0.4560
  770MOL0     H 1607   4.479  11.630   1.658 -1.5718 -0.7889 -0.5757
  770MOL0     H 1608   4.379  11.689   1.454  0.4143 -0.5202  0.5894
  770MOL0     H 1609   4.474  11.844   1.442 -1.8029  0.9776  0.6728
  770MOL0     H 1610   4.353  11.895   1.672 -2.6754  0.4443  1.8975
  770MOL0     H 1611   4.262  11.745   1.632  1.2373  0.0433  1.8250
  770MOL0     H 1612   4.244  12.016   1.479  1.3981 -0.6168 -0.6553
  770MOL0     H 1613   4.202  11.863   1.411 -2.3327  1.0696 -1.2221
  770MOL0     H 1614   4.049  11.799   1.571 -1.6556 -0.3244 -0.9210
  770MOL0     H 1615   4.002  11.956   1.491  1.1461  1.4611 -0.7363
  770MOL0     H 1616   4.097  12.083   1.671  0.7745  0.5186  2.2897
  770MOL0     H 1617   4.125  11.939   1.763 -1.9405  1.0571  1.1968
  770MOL0     H 1618   3.846  11.997   1.658  0.7785  0.4284 -0.1999
  770MOL0     H 1619   3.899  11.880   1.777 -1.4482 -0.7753 -0.8906
  770MOL0     H 1620   3.977  12.074   1.924  0.2344 -1.8432 -0.7913
  770MOL0     H 1621   3.802  12.061   1.909  0.7871  1.4089  1.5807
  770MOL0     H 1622   4.698  11.565   1.750 -4.1284 -0.1374  0.7147
  770MOL0     H 1623   4.734  11.345   1.835  0.9033  1.1507 -0.1182
  770MOL0     H 1624   4.368  10.874   1.771 -0.2226  1.2321  0.0536
  770MOL0     H 1625   4.383  10.662   1.881 -1.1542  2.5822 -1.0979
  770MOL0     H 1626   6.083  10.233   2.521 -1.0037 -1.0099  0.2721
  770MOL0     H 1627   6.193  10.392   2.661  0.3587  0.3865  3.3421
  770MOL0     H 1628   6.245  10.709   2.883  1.2728  0.4077  0.8266
  770MOL0     H 1629   6.390  10.853   3.010 -0.0369 -0.6638  0.8090
  770MOL0     H 1630   6.427  10.867   3.452 -0.7959 -0.5873 -0.0531
  770MOL0     H 1631   6.266  10.943   3.437  1.1306  0.5911  2.4617
  770MOL0     H 1632   6.448  11.138   3.338 -0.7212 -0.1856 -0.4693
  770MOL0     H 1633   6.395  11.120   3.509 -0.7461  1.9799 -1.0351
  770MOL0     H 1634   6.647  10.991   3.385  1.0913  1.0281 -0.7399
  770MOL0     H 1635   6.607  10.989   3.555 -2.8347 -3.5166 -2.3160
  770MOL0     H 1636   6.664  11.247   3.378  0.0700  1.0647  1.1203
  770MOL0     H 1637   6.613  11.260   3.535  1.5637  0.0822 -0.0398
  770MOL0     H 1638   7.024  11.176   3.570 -0.3386 -1.4853 -0.5580
  770MOL0     H 1639   6.190  10.762   3.378  2.0800 -4.8368  0.0074
  770MOL0     H 1640   6.063  10.587   3.252 -1.5177  0.7156  0.6923
  771MOL0     O 1641  11.018   8.343  10.525 -0.8917  0.0087  0.1540
  771MOL0     C 1642  11.008   8.404  10.633 -0.5953  0.1036 -0.1192
  771MOL0     O 1643  10.905   8.387  10.721 -0.5392  0.5017 -0.5662
  771MOL0     C 1644  10.793   8.316  10.691 -0.2825  0.3431 -0.5413
  771MOL0     C 1645  10.720   8.304  10.572 -0.0625  0.4088 -0.2556
  771MOL0     C 1646  10.595   8.249  10.576  1.1114  0.6968 -0.4742
  771MOL0     C 1647  10.529   8.214  10.687  0.2235  0.4006  0.3880
  771MOL0     O 1648  10.402   8.168  10.675  0.4379 -0.6993  0.2467
  771MOL0     C 1649  10.328   8.129  10.788  0.3667 -0.0155  0.0399
  771MOL0     C 1650  10.205   8.048  10.746  1.5647  0.3896  0.2586
  771MOL0     C 1651  10.104   8.051  10.862 -0.3416  0.3920  0.5665
  771MOL0     C 1652   9.973   7.980  10.829  0.1572  0.2369  0.0842
  771MOL0     C 1653   9.886   7.970  10.951 -0.1049  0.7851 -0.6454
  771MOL0     C 1654   9.743   7.923  10.914  0.0804 -0.8480 -0.8555
  771MOL0     C 1655   9.663   7.886  11.039  0.3215 -0.0183  1.4631
  771MOL0     C 1656   9.511   7.864  10.988 -0.2866  0.7045 -0.1267
  771MOL0     N 1657   9.411   7.840  11.095 -0.2132 -0.8381  0.3851
  771MOL0     C 1658   9.337   7.938  11.167  0.3173  0.8897  0.1410
  771MOL0     C 1659   9.265   7.871  11.262  0.0038 -0.0514 -0.4497
  771MOL0     C 1660   9.163   7.936  11.353 -0.4140 -0.0563 -0.0277
  771MOL0     C 1661   9.193   7.927  11.501 -0.2085  0.0720 -0.0978
  771MOL0     C 1662   9.125   8.034  11.584 -0.9132  0.7021  0.2989
  771MOL0     C 1663   9.132   7.995  11.739  0.1009  0.0075  0.0942
  771MOL0     O 1664   9.039   7.895  11.773 -0.7708 -0.1056  0.2733
  771MOL0     C 1665   8.910   7.928  11.782  0.6757 -0.2479 -0.0651
  771MOL0     C 1666   8.827   7.823  11.757  0.8614  0.3160 -0.3756
  771MOL0     C 1667   8.692   7.842  11.752 -0.5113 -0.3657  0.0314
  771MOL0     C 1668   8.628   7.972  11.776 -0.2591  0.7932 -0.6307
  771MOL0     C 1669   8.482   7.979  11.782 -0.3255  0.2054 -0.0220
  771MOL0     O 1670   8.421   8.102  11.769  0.1430 -0.9796 -0.6597
  771MOL0     C 1671   8.284   8.096  11.775  0.5745 -0.8038 -0.4566
  771MOL0     C 1672   8.203   8.144  11.669  0.4481 -0.3082 -0.0296
  771MOL0     C 1673   8.061   8.135  11.684 -0.6254 -0.3988  0.1585
  771MOL0     C 1674   8.009   8.111  11.810  0.0743 -0.4777 -0.3680
  771MOL0     O 1675   7.881   8.133  11.847 -0.5005 -0.6513  0.2238
  771MOL0     C 1676   7.800   8.230  11.771  0.1362  0.0478  0.3304
  771MOL0     C 1677   7.670   8.260  11.850 -0.8687 -0.3025 -0.1354
  771MOL0     C 1678   7.547   8.244  11.767 -0.1891  0.8711  0.5328
  771MOL0     C 1679   7.415   8.289  11.837 -0.4805  0.3169 -0.1872
  771MOL0     C 1680   7.285   8.256  11.769  0.4456  0.7471 -0.2377
  771MOL0     C 1681   7.165   8.281  11.862 -0.3360  0.0586  0.0659
  771MOL0     C 1682   7.036   8.287  11.785 -0.7844 -0.3852  0.1405
  771MOL0     C 1683   6.914   8.301  11.869  0.1589  0.6828 -0.5630
  771MOL0    Cl 1684   6.770   8.287  11.762 -0.2909  0.0046  0.1616
  771MOL0     C 1685   8.086   8.087  11.917 -0.1967  0.3349 -0.5660
  771MOL0     C 1686   8.224   8.069  11.895 -0.7088  0.4232 -0.0365
  771MOL0     O 1687   8.423   7.873  11.779 -0.3178  0.1557  0.5573
  771MOL0     C 1688   8.718   8.074  11.809  0.1588  0.3410  0.9857
  771MOL0     C 1689   8.858   8.065  11.807  0.4193 -0.4590  0.5794
  771MOL0     N 1690   9.301   7.737  11.258  0.5354 -0.3828 -0.5437
  771MOL0     N 1691   9.391   7.722  11.162 -0.1191  1.1250  0.4774
  771MOL0     C 1692  10.609   8.220  10.809  0.2593  0.4024 -0.1179
  771MOL0     C 1693  10.738   8.273  10.813 -0.0520  1.0172 -0.0871
  771MOL0     C 1694  11.117   8.499  10.661  0.2009  0.5095 -0.3181
  771MOL0     C 1695  11.124   8.562  10.787 -0.0047 -0.1164  1.5393
  771MOL0     C 1696  11.229   8.643  10.826 -0.8044 -0.4101 -0.3406
  771MOL0     C 1697  11.336   8.679  10.746 -1.0346 -0.3791  0.4040
  771MOL0     O 1698  11.450   8.753  10.773 -0.1819 -0.5819 -0.4808
  771MOL0     C 1699  11.449   8.836  10.894  0.0315  0.4351 -0.8467
  771MOL0     C 1700  11.550   8.953  10.898 -0.1981  0.3917  0.5814
  771MOL0     C 1701  11.560   9.017  10.754 -0.3010 -0.4247  0.4037
  771MOL0     C 1702  11.629   9.157  10.754  0.0611 -0.2836 -0.5072
  771MOL0     C 1703  11.772   9.140  10.724 -0.7076  0.4109  0.0957
  771MOL0     C 1704  11.884   9.125  10.684  0.2262 -0.6190 -0.1995
  771MOL0     C 1705  11.330   8.614  10.617 -0.2018  0.2528 -0.6522
  771MOL0     C 1706  11.228   8.523  10.581  0.0255  0.0005  0.0781
  771MOL0     H 1707  10.760   8.339  10.477 -1.2020 -0.6900 -1.1693
  771MOL0     H 1708  10.535   8.239  10.486 -0.9942 -2.6064  1.1244
  771MOL0     H 1709  10.289   8.215  10.843  0.8876 -0.6864  1.4930
  771MOL0     H 1710  10.386   8.068  10.857  1.1932  3.0968  2.3078
  771MOL0     H 1711  10.228   7.948  10.708  3.3887  1.8456 -2.9141
  771MOL0     H 1712  10.157   8.096  10.661  0.5279 -2.5265 -0.9263
  771MOL0     H 1713  10.082   8.154  10.890 -1.1776  0.4745 -0.3312
  771MOL0     H 1714  10.147   7.987  10.940 -0.5890 -1.1577 -0.5171
  771MOL0     H 1715   9.929   8.036  10.746  2.1158 -0.1715 -1.2978
  771MOL0     H 1716   9.991   7.876  10.801 -1.0229  0.5907 -2.2457
  771MOL0     H 1717   9.886   8.064  11.007 -1.3410  0.3009  0.1983
  771MOL0     H 1718   9.927   7.892  11.016 -0.7584  2.8913  2.5035
  771MOL0     H 1719   9.744   7.835  10.848  2.0830 -1.0565 -0.5966
  771MOL0     H 1720   9.703   8.012  10.865 -0.3849  0.6893  2.0867
  771MOL0     H 1721   9.700   7.793  11.082  1.7468  0.0242  0.3591
  771MOL0     H 1722   9.655   7.966  11.114 -2.4932  2.1774 -0.9227
  771MOL0     H 1723   9.503   7.774  10.927 -0.0683  1.4522 -1.2973
  771MOL0     H 1724   9.477   7.952  10.932 -0.4040  1.8798  1.7044
  771MOL0     H 1725   9.331   8.044  11.147  4.0793  1.4192  1.1892
  771MOL0     H 1726   9.070   7.884  11.330 -2.3252  1.8571  2.7748
  771MOL0     H 1727   9.170   8.044  11.336  0.2766  0.0687  0.9480
  771MOL0     H 1728   9.301   7.938  11.517 -0.3898  0.6996  0.8053
  771MOL0     H 1729   9.165   7.825  11.528  0.9611  0.1034  1.3771
  771MOL0     H 1730   9.178   8.129  11.568  0.1079  0.1916  0.5837
  771MOL0     H 1731   9.020   8.045  11.556 -0.2911 -0.2989 -2.8020
  771MOL0     H 1732   9.108   8.080  11.803  1.1748 -0.2886  0.9234
  771MOL0     H 1733   9.234   7.969  11.770 -0.1863 -0.6474  0.5160
  771MOL0     H 1734   8.866   7.727  11.725  0.8361  1.3287 -3.8474
  771MOL0     H 1735   8.618   7.766  11.728 -1.0565 -0.6901  2.4471
  771MOL0     H 1736   8.247   8.171  11.573 -0.3882  2.2423  0.2336
  771MOL0     H 1737   7.992   8.169  11.608 -1.4022 -0.5498  0.7826
  771MOL0     H 1738   7.765   8.194  11.674  2.0354 -1.1479  0.0223
  771MOL0     H 1739   7.849   8.321  11.736 -3.6971  0.8171 -3.8796
  771MOL0     H 1740   7.673   8.368  11.871  1.3010  0.2003 -2.5293
  771MOL0     H 1741   7.663   8.207  11.945 -1.5605 -0.0345 -0.0273
  771MOL0     H 1742   7.534   8.140  11.736  1.4506  1.0184 -0.8466
  771MOL0     H 1743   7.557   8.299  11.673 -2.4057  1.2886  0.5128
  771MOL0     H 1744   7.412   8.227  11.927 -1.7447 -1.6272 -1.4847
  771MOL0     H 1745   7.420   8.397  11.854 -0.5334  0.3870 -0.6038
  771MOL0     H 1746   7.290   8.149  11.745  1.6205  0.4464  1.1826
  771MOL0     H 1747   7.278   8.298  11.669 -2.5881 -0.5820 -0.6859
  771MOL0     H 1748   7.169   8.382  11.904 -0.6179  0.0185  0.1892
  771MOL0     H 1749   7.161   8.207  11.943 -2.8823  1.5224  1.4147
  771MOL0     H 1750   7.036   8.365  11.708  1.3257 -0.7384 -0.2732
  771MOL0     H 1751   7.019   8.197  11.724 -0.0478  0.3207 -1.1554
  771MOL0     H 1752   6.912   8.389  11.934 -2.4552  0.0862  0.2548
  771MOL0     H 1753   6.901   8.218  11.939 -2.1693 -1.1008 -2.9326
  771MOL0     H 1754   8.046   8.082  12.018  2.3792  0.1364  0.5404
  771MOL0     H 1755   8.285   8.043  11.981 -0.0900  0.2932 -0.5033
  771MOL0     H 1756   8.686   8.178  11.817 -1.9936  0.2088 -3.2206
  771MOL0     H 1757   8.916   8.154  11.828 -0.9741  0.8651 -0.8834
  771MOL0     H 1758  10.563   8.184  10.901  1.5575 -1.4038 -0.1248
  771MOL0     H 1759  10.794   8.281  10.905 -0.2093 -2.4621  0.4438
  771MOL0     H 1760  11.039   8.548  10.852 -2.7141  1.0450 -1.5033
  771MOL0     H 1761  11.227   8.674  10.930  0.5342  0.5329 -0.5706
  771MOL0     H 1762  11.455   8.774  10.983  0.0292  1.4298 -0.1427
  771MOL0     H 1763  11.354   8.890  10.906 -0.7465 -0.4928 -2.3727
  771MOL0     H 1764  11.528   9.023  10.979  1.2474  0.7357  0.7006
  771MOL0     H 1765  11.647   8.906  10.918 -1.0736 -1.4300  0.8150
  771MOL0     H 1766  11.459   9.029  10.714 -1.1171  2.5484  3.0190
  771MOL0     H 1767  11.616   8.949  10.689  0.4242 -1.7130  2.2992
  771MOL0     H 1768  11.587   9.228  10.683  1.5358  0.4229 -0.7133
  771MOL0     H 1769  11.616   9.187  10.859 -0.7061 -3.1087  0.3194
  771MOL0     H 1770  11.987   9.104  10.664  1.1213  1.5465  1.6538
  771MOL0     H 1771  11.409   8.621  10.543 -0.1362 -2.0451 -0.8598
  771MOL0     H 1772  11.237   8.479  10.483 -2.1606  1.1034 -0.6996
  772MOL0     O 1773   6.859   0.176   5.150 -0.1421 -0.6165  0.2665
  772MOL0     C 1774   6.912   0.109   5.058  0.1453  0.3087 -0.5121
  772MOL0     O 1775   6.850   0.027   4.970 -0.3483 -0.5903  0.2576
  772MOL0     C 1776   6.713   0.006   4.983 -0.2252 -0.2026 -0.3218
  772MOL0     C 1777   6.657  -0.124   4.996 -0.7060  0.4107 -0.1601
  772MOL0     C 1778   6.519  -0.144   5.006  0.8675  0.1749 -1.0573
  772MOL0     C 1779   6.432  -0.036   4.997  0.2198 -1.2164  0.5778
  772MOL0     O 1780   6.293  -0.034   5.009 -0.3890 -0.5093  0.1640
  772MOL0     C 1781   6.223  -0.160   5.012  0.2273 -0.0569 -0.2115
  772MOL0     C 1782   6.076  -0.134   5.053 -0.6744  0.2010 -0.0081
  772MOL0     C 1783   5.979  -0.116   4.932  0.6855  0.2045 -0.5734
  772MOL0     C 1784   5.834  -0.133   4.985 -1.6565  0.6763 -0.2522
  772MOL0     C 1785   5.713  -0.128   4.881 -0.1701 -0.5380 -0.6381
  772MOL0     C 1786   5.589  -0.096   4.966 -0.3320  0.2381 -0.3037
  772MOL0     C 1787   5.464  -0.096   4.881 -0.6268 -0.4461  0.1210
  772MOL0     C 1788   5.339  -0.140   4.946 -0.1817 -0.4699  0.2782
  772MOL0     N 1789   5.215  -0.103   4.882 -0.0418  0.0644 -0.5324
  772MOL0     C 1790   5.173   0.022   4.866 -0.1242  0.2003  0.2057
  772MOL0     C 1791   5.078   0.015   4.772  1.1320 -0.1192 -0.5656
  772MOL0     C 1792   4.978   0.123   4.743 -0.5652 -0.1502  0.0508
  772MOL0     C 1793   4.847   0.090   4.810 -0.4140 -0.0684  0.8983
  772MOL0     C 1794   4.754   0.213   4.810  0.3410 -0.4511  0.0303
  772MOL0     C 1795   4.614   0.169   4.836 -0.1453  0.5043  0.3422
  772MOL0     O 1796   4.533   0.280   4.850 -0.0415  0.4313  0.0494
  772MOL0     C 1797   4.402   0.263   4.895  0.2336  0.4066  0.4755
  772MOL0     C 1798   4.346   0.132   4.924  0.0004 -0.3450  0.5784
  772MOL0     C 1799   4.217   0.123   4.972  0.1670  0.1215 -0.2870
  772MOL0     C 1800   4.137   0.242   4.991 -0.7014 -0.1666 -0.1877
  772MOL0     C 1801   3.995   0.236   5.026 -0.0180  0.3419  0.4191
  772MOL0     O 1802   3.946   0.347   5.086 -0.3794 -0.6044 -0.0782
  772MOL0     C 1803   3.804   0.351   5.104 -0.0434  0.3343  0.2910
  772MOL0     C 1804   3.703   0.312   5.012 -0.7019 -0.1025  0.0257
  772MOL0     C 1805   3.566   0.332   5.044  0.1291 -0.5797 -0.6189
  772MOL0     C 1806   3.531   0.375   5.170  0.0705  0.1882  0.4841
  772MOL0     O 1807   3.399   0.394   5.196 -0.2272  0.1611 -0.9854
  772MOL0     C 1808   3.354   0.476   5.308 -0.5797 -0.4960 -0.4029
  772MOL0     C 1809   3.202   0.473   5.314 -0.1729 -0.2395 -0.1991
  772MOL0     C 1810   3.137   0.540   5.196  0.9894  0.4250  0.1628
  772MOL0     C 1811   2.985   0.551   5.204  0.4810  0.3386 -1.2219
  772MOL0     C 1812   2.939   0.624   5.083  0.0493  0.3517  0.8815
  772MOL0     C 1813   2.789   0.627   5.065 -0.0699  0.6028  0.1095
  772MOL0     C 1814   2.754   0.625   4.923  0.3128  0.7996  0.2493
  772MOL0     C 1815   2.595   0.614   4.909  0.1410  0.3081 -0.1829
  772MOL0    Cl 1816   2.556   0.599   4.732 -0.1005  0.4575  0.1657
  772MOL0     C 1817   3.632   0.399   5.264  0.1871  0.2928 -0.1711
  772MOL0     C 1818   3.762   0.389   5.231  0.0379 -0.6697  0.4529
  772MOL0     O 1819   3.933   0.132   5.010  0.3412 -0.2867  0.7258
  772MOL0     C 1820   4.196   0.370   4.958  0.1702  0.3224 -0.2660
  772MOL0     C 1821   4.326   0.377   4.913 -0.1669 -0.1597  0.4280
  772MOL0     N 1822   5.066  -0.114   4.723  0.1231 -0.1448 -0.9189
  772MOL0     N 1823   5.156  -0.183   4.782  0.2748  0.2960 -0.6893
  772MOL0     C 1824   6.493   0.093   4.976  0.6716  0.0404  0.2857
  772MOL0     C 1825   6.629   0.113   4.968 -0.6728 -0.0201  0.9186
  772MOL0     C 1826   7.058   0.137   5.040 -0.1447 -0.2089 -0.5417
  772MOL0     C 1827   7.132   0.081   4.932  0.8758 -0.0919 -0.2177
  772MOL0     C 1828   7.268   0.103   4.921  1.0466  0.2746  0.4341
  772MOL0     C 1829   7.335   0.191   5.012 -0.3415  0.0641  0.2327
  772MOL0     O 1830   7.466   0.194   4.992 -0.5886  0.1639 -0.0549
  772MOL0     C 1831   7.559   0.233   5.095 -0.4694  0.1804 -0.5938
  772MOL0     C 1832   7.706   0.209   5.064 -0.2337 -0.3084  0.3891
  772MOL0     C 1833   7.750   0.275   4.938 -0.3492 -1.4088 -0.5011
  772MOL0     C 1834   7.865   0.216   4.858  0.1836  0.6273 -0.1859
  772MOL0     C 1835   7.995   0.259   4.901 -0.8943 -0.1013 -0.9473
  772MOL0     C 1836   8.110   0.290   4.917  0.0037  0.0795 -0.2729
  772MOL0     C 1837   7.265   0.251   5.114 -0.5462 -0.2265  0.5872
  772MOL0     C 1838   7.125   0.229   5.125  0.7816  0.1507 -0.4148
  772MOL0     H 1839   6.725  -0.208   5.003 -1.9402 -0.6724 -0.8308
  772MOL0     H 1840   6.476  -0.243   5.018  0.4465  0.4077 -0.6130
  772MOL0     H 1841   6.271  -0.237   5.073  0.3740 -1.1743 -1.6753
  772MOL0     H 1842   6.231  -0.193   4.908  0.0175  2.7648 -1.2076
  772MOL0     H 1843   6.070  -0.054   5.127 -1.3702 -0.7292  0.9633
  772MOL0     H 1844   6.033  -0.221   5.103 -1.1065  0.0276 -0.6606
  772MOL0     H 1845   6.002  -0.177   4.845 -0.6287  0.1738 -0.9317
  772MOL0     H 1846   5.986  -0.010   4.904 -1.9998  0.6195 -0.0193
  772MOL0     H 1847   5.829  -0.229   5.037  0.3340  1.0557  0.7331
  772MOL0     H 1848   5.814  -0.049   5.053  1.2731  2.5828 -1.5673
  772MOL0     H 1849   5.708  -0.224   4.830  0.3119 -0.5783 -0.6133
  772MOL0     H 1850   5.724  -0.052   4.803 -0.6502  0.7595  0.5130
  772MOL0     H 1851   5.598  -0.008   5.030  1.8973  0.5122 -0.9054
  772MOL0     H 1852   5.583  -0.183   5.032  0.3086  0.0963 -0.4258
  772MOL0     H 1853   5.452   0.011   4.862 -1.5673 -0.1870  1.9156
  772MOL0     H 1854   5.482  -0.148   4.786 -0.1926 -0.6372  0.3049
  772MOL0     H 1855   5.336  -0.083   5.039 -0.2924  0.8291 -0.4922
  772MOL0     H 1856   5.344  -0.247   4.967  0.3407 -0.3532  0.7784
  772MOL0     H 1857   5.211   0.106   4.924 -2.6573  1.9858 -0.5393
  772MOL0     H 1858   4.967   0.147   4.637 -1.7639  2.0186  0.6172
  772MOL0     H 1859   5.021   0.215   4.784 -1.1813  1.6104 -2.9139
  772MOL0     H 1860   4.849   0.054   4.913  0.2449 -3.2256 -0.1137
  772MOL0     H 1861   4.800   0.014   4.747 -0.8155  0.0872  1.0050
  772MOL0     H 1862   4.784   0.285   4.886 -0.5228 -0.0799  0.0302
  772MOL0     H 1863   4.743   0.261   4.712  0.9838  1.6195  0.9191
  772MOL0     H 1864   4.601   0.099   4.919 -2.5960 -1.9592 -1.9355
  772MOL0     H 1865   4.580   0.116   4.747 -0.2710 -0.4909  0.9666
  772MOL0     H 1866   4.400   0.040   4.907 -1.5395 -0.8706 -1.9911
  772MOL0     H 1867   4.178   0.026   5.003  0.3126  0.4097  0.8352
  772MOL0     H 1868   3.731   0.276   4.913 -1.7244 -1.2408  0.1322
  772MOL0     H 1869   3.485   0.316   4.974 -1.1941 -1.5054  1.0567
  772MOL0     H 1870   3.391   0.579   5.300 -1.2433 -0.4075 -3.6923
  772MOL0     H 1871   3.384   0.439   5.406  0.1723 -0.2288 -0.5274
  772MOL0     H 1872   3.169   0.518   5.408  0.3935 -1.3910  0.5730
  772MOL0     H 1873   3.172   0.369   5.311 -1.5607  0.1641 -0.9367
  772MOL0     H 1874   3.156   0.497   5.098  2.9711  1.5968 -0.0286
  772MOL0     H 1875   3.178   0.638   5.170  2.6766 -0.6907 -1.6507
  772MOL0     H 1876   2.941   0.451   5.213 -0.0114  0.5195 -1.5830
  772MOL0     H 1877   2.968   0.611   5.294  0.0012  2.6523 -2.7589
  772MOL0     H 1878   2.972   0.563   4.998 -0.3927  0.1432  0.8561
  772MOL0     H 1879   2.983   0.724   5.073 -2.8094  1.5064 -1.4170
  772MOL0     H 1880   2.749   0.711   5.122  1.5112 -0.7994  3.5390
  772MOL0     H 1881   2.743   0.540   5.111  1.7413 -0.5289 -0.1089
  772MOL0     H 1882   2.796   0.709   4.866  0.2553  0.8609  0.2964
  772MOL0     H 1883   2.801   0.543   4.868  2.9616 -0.8112  4.4885
  772MOL0     H 1884   2.543   0.699   4.954 -1.7980 -0.3893 -1.0085
  772MOL0     H 1885   2.569   0.521   4.959 -1.2357  0.1889 -1.0927
  772MOL0     H 1886   3.603   0.417   5.367 -2.1461 -3.7069  0.0649
  772MOL0     H 1887   3.841   0.419   5.299  1.0091 -3.4654  0.6614
  772MOL0     H 1888   4.129   0.454   4.961 -1.4505 -0.9156 -0.4373
  772MOL0     H 1889   4.372   0.474   4.901  0.6411 -0.5222  0.5232
  772MOL0     H 1890   6.428   0.178   4.958  1.6494  1.4144  2.7454
  772MOL0     H 1891   6.672   0.210   4.944  1.5238 -1.0901  0.2333
  772MOL0     H 1892   7.087   0.016   4.857  1.3649 -0.0065 -0.5920
  772MOL0     H 1893   7.331   0.055   4.846  0.1159 -0.9972  0.4362
  772MOL0     H 1894   7.544   0.176   5.188 -1.8576 -0.5215 -1.2170
  772MOL0     H 1895   7.544   0.338   5.121 -0.5201  0.0220  0.0438
  772MOL0     H 1896   7.768   0.253   5.143 -1.8846  4.0281 -0.4747
  772MOL0     H 1897   7.733   0.103   5.058  1.0957  0.0771 -1.2907
  772MOL0     H 1898   7.778   0.378   4.959 -0.3022 -1.4507 -0.3573
  772MOL0     H 1899   7.662   0.274   4.872 -2.2830  1.3901  1.8182
  772MOL0     H 1900   7.844   0.109   4.847 -1.8771  0.9909 -0.1173
  772MOL0     H 1901   7.867   0.249   4.753 -2.3135 -1.1623 -0.9107
  772MOL0     H 1902   8.211   0.326   4.913 -0.7707  2.2951 -1.1898
  772MOL0     H 1903   7.320   0.311   5.185  0.9059 -1.5598  0.6286
  772MOL0     H 1904   7.073   0.281   5.205 -0.3045 -0.1945 -0.8748
  773MOL0     O 1905   1.136   5.939   0.504 -0.7758 -0.3960  0.3565
  773MOL0     C 1906   1.212   6.020   0.561  1.1712 -0.0527 -0.2221
  773MOL0     O 1907   1.181   6.134   0.630 -0.6078 -0.4233 -0.2902
  773MOL0     C 1908   1.056   6.188   0.629 -0.5078  0.3425 -0.2240
  773MOL0     C 1909   0.939   6.140   0.572  1.1628  0.3861 -0.2295
  773MOL0     C 1910   0.822   6.216   0.582  0.5975  0.0130 -0.1052
  773MOL0     C 1911   0.813   6.339   0.648 -0.1986 -0.8994  0.0453
  773MOL0     O 1912   0.708   6.428   0.642  1.0743 -0.0669  1.0421
  773MOL0     C 1913   0.579   6.377   0.633  0.2186 -0.3643  0.9290
  773MOL0     C 1914   0.477   6.477   0.699  0.2479 -0.0528  0.4697
  773MOL0     C 1915   0.424   6.572   0.590 -0.0912 -0.7814  0.0458
  773MOL0     C 1916   0.315   6.670   0.650 -0.7525 -0.3483 -0.0282
  773MOL0     C 1917   0.277   6.776   0.552 -0.3557  0.1066  1.1533
  773MOL0     C 1918   0.150   6.848   0.612  0.1737 -0.4742 -0.2006
  773MOL0     C 1919   0.110   6.958   0.513 -0.2116  1.1433  0.3422
  773MOL0     C 1920  -0.028   7.022   0.539  1.0082 -0.2938  0.6418
  773MOL0     N 1921  -0.049   7.070   0.674 -0.5708 -0.3558 -0.0057
  773MOL0     C 1922  -0.056   7.197   0.707  0.6158 -0.3607  0.2646
  773MOL0     C 1923  -0.082   7.205   0.837  0.6399 -0.6554  0.4454
  773MOL0     C 1924  -0.108   7.337   0.919 -0.7524  0.0012  0.4681
  773MOL0     C 1925  -0.224   7.324   1.013 -0.0147  0.2774 -1.0351
  773MOL0     C 1926  -0.180   7.254   1.143 -0.5630 -0.2770  0.8009
  773MOL0     C 1927  -0.286   7.243   1.256  0.7036  0.6991  0.1342
  773MOL0     O 1928  -0.413   7.228   1.199  0.1292 -1.0296 -0.2100
  773MOL0     C 1929  -0.526   7.179   1.278 -0.6278 -0.1211  0.4956
  773MOL0     C 1930  -0.645   7.156   1.201 -0.3615 -0.3982 -0.3005
  773MOL0     C 1931  -0.764   7.134   1.263  1.1159  0.0691  0.2617
  773MOL0     C 1932  -0.769   7.104   1.403  0.1176  0.1105  0.4242
  773MOL0     C 1933  -0.898   7.066   1.465  0.0463 -0.0649  0.8306
  773MOL0     O 1934  -0.891   7.025   1.596 -0.7659 -0.7788  0.9428
  773MOL0     C 1935  -1.000   6.987   1.680 -0.5359 -0.4963 -0.3353
  773MOL0     C 1936  -0.974   6.930   1.800  0.6665 -0.1960 -0.2912
  773MOL0     C 1937  -1.075   6.910   1.895 -0.1553 -0.5369 -0.2104
  773MOL0     C 1938  -1.210   6.920   1.863  0.1950 -1.0616  0.1249
  773MOL0     O 1939  -1.306   6.899   1.960  0.4118  0.8424 -0.3237
  773MOL0     C 1940  -1.442   6.886   1.921  0.0066 -0.2385  0.0553
  773MOL0     C 1941  -1.531   6.825   2.040  0.1517 -0.6325 -0.0443
  773MOL0     C 1942  -1.687   6.865   2.016  0.1382  0.3443  0.6626
  773MOL0     C 1943  -1.777   6.787   2.111  0.2362 -0.9693  0.4946
  773MOL0     C 1944  -1.925   6.837   2.096  0.6771 -0.7539 -0.6901
  773MOL0     C 1945  -2.013   6.762   2.191  0.0772 -0.2647  0.1858
  773MOL0     C 1946  -2.166   6.800   2.168  0.1299  0.3329 -0.0666
  773MOL0     C 1947  -2.252   6.810   2.294  0.1144 -0.6415 -0.5248
  773MOL0    Cl 1948  -2.410   6.902   2.270 -0.1997  0.0017  0.1747
  773MOL0     C 1949  -1.238   6.961   1.737 -0.3081 -0.4474 -0.1412
  773MOL0     C 1950  -1.143   6.999   1.648 -0.0824  0.2893  0.2415
  773MOL0     O 1951  -1.000   7.069   1.396  0.1203  0.6220 -0.2516
  773MOL0     C 1952  -0.646   7.104   1.474  0.4746  0.3612 -0.9987
  773MOL0     C 1953  -0.523   7.146   1.410 -0.1540  0.2185  0.9485
  773MOL0     N 1954  -0.102   7.086   0.881 -0.6410  0.7110  0.3728
  773MOL0     N 1955  -0.078   7.000   0.787 -0.7535 -0.3482  0.6084
  773MOL0     C 1956   0.936   6.386   0.699  0.5814  0.3674 -0.1133
  773MOL0     C 1957   1.049   6.313   0.682 -0.1154 -1.2238 -0.7009
  773MOL0     C 1958   1.356   5.994   0.550 -0.7326 -0.7184  1.0131
  773MOL0     C 1959   1.449   6.088   0.600 -0.1986  0.0084 -0.3967
  773MOL0     C 1960   1.586   6.063   0.586  0.4460  0.6547  0.1146
  773MOL0     C 1961   1.631   5.945   0.523  0.0597 -0.3838 -0.1542
  773MOL0     O 1962   1.763   5.899   0.521  0.7197 -0.1614 -0.7175
  773MOL0     C 1963   1.865   5.990   0.546 -0.4050 -0.3969 -0.4690
  773MOL0     C 1964   1.994   5.903   0.536  0.6492  0.5602  0.5890
  773MOL0     C 1965   2.117   5.976   0.582  0.4469  0.1794 -0.5665
  773MOL0     C 1966   2.231   5.878   0.611 -0.3460  0.2333 -0.1731
  773MOL0     C 1967   2.364   5.938   0.580  1.2150 -1.0171 -0.3491
  773MOL0     C 1968   2.476   5.974   0.548 -0.3124 -0.4828 -0.0278
  773MOL0     C 1969   1.541   5.854   0.476  0.0987  0.1742  0.5104
  773MOL0     C 1970   1.408   5.879   0.492  0.5540 -0.2026  0.3237
  773MOL0     H 1971   0.928   6.051   0.510  0.6216  1.0119 -1.0626
  773MOL0     H 1972   0.740   6.159   0.539  0.8840  0.2201 -0.9371
  773MOL0     H 1973   0.570   6.276   0.676  0.0722 -0.5715  0.4245
  773MOL0     H 1974   0.544   6.359   0.531 -2.2412  0.3786  1.5845
  773MOL0     H 1975   0.524   6.525   0.786  0.4337 -1.5346  1.2236
  773MOL0     H 1976   0.400   6.409   0.738 -1.4587  1.7837  0.4371
  773MOL0     H 1977   0.385   6.518   0.503 -1.1930 -1.9864  1.2656
  773MOL0     H 1978   0.511   6.629   0.554  0.9745 -1.9019  0.7659
  773MOL0     H 1979   0.226   6.609   0.669  1.6308 -3.2620  2.9469
  773MOL0     H 1980   0.348   6.713   0.745 -0.1520 -0.7235 -0.0680
  773MOL0     H 1981   0.265   6.738   0.450  5.5490  1.5264 -0.4237
  773MOL0     H 1982   0.353   6.854   0.551  1.1560 -1.2493 -2.1515
  773MOL0     H 1983   0.178   6.887   0.710 -0.7819  0.4653 -0.2811
  773MOL0     H 1984   0.074   6.770   0.615  2.9922 -3.5299 -1.5076
  773MOL0     H 1985   0.190   7.033   0.520  0.9668 -0.2140  2.6358
  773MOL0     H 1986   0.111   6.917   0.412  1.0571 -1.4931  1.3336
  773MOL0     H 1987  -0.101   6.941   0.532  0.4802  0.0314  2.0760
  773MOL0     H 1988  -0.052   7.101   0.468  2.9192 -0.2063  0.0264
  773MOL0     H 1989  -0.047   7.281   0.639 -0.4150 -0.7894 -0.4155
  773MOL0     H 1990  -0.120   7.424   0.853 -1.1084  0.7986  1.5576
  773MOL0     H 1991  -0.017   7.359   0.975 -0.0028  2.3340 -1.4661
  773MOL0     H 1992  -0.309   7.276   0.964 -1.9089  1.9780  0.3989
  773MOL0     H 1993  -0.259   7.424   1.040 -1.3960 -0.1056 -1.3372
  773MOL0     H 1994  -0.156   7.152   1.112 -1.3878  0.0899 -1.1799
  773MOL0     H 1995  -0.096   7.306   1.190  1.9230 -2.1225 -1.2972
  773MOL0     H 1996  -0.286   7.323   1.330 -2.3144 -1.1020  2.2891
  773MOL0     H 1997  -0.254   7.158   1.317  0.8469  0.9491  0.4098
  773MOL0     H 1998  -0.656   7.192   1.099 -0.5034 -0.5054 -0.3236
  773MOL0     H 1999  -0.861   7.133   1.214  0.5461 -1.7797  1.3192
  773MOL0     H 2000  -0.872   6.936   1.836  0.8589  1.7357 -1.0620
  773MOL0     H 2001  -1.031   6.889   1.992  0.9838  3.9959  0.4698
  773MOL0     H 2002  -1.460   6.814   1.841 -2.3593 -0.9222  1.1026
  773MOL0     H 2003  -1.471   6.984   1.883  0.1582 -0.1406  0.1903
  773MOL0     H 2004  -1.497   6.854   2.140 -0.4445 -0.4073  0.1018
  773MOL0     H 2005  -1.532   6.715   2.039  0.2443 -0.6447  0.6793
  773MOL0     H 2006  -1.720   6.850   1.913 -3.2407  2.2432  1.3257
  773MOL0     H 2007  -1.698   6.974   2.022  2.0984  0.6693 -0.7875
  773MOL0     H 2008  -1.784   6.683   2.076 -1.2927  0.1984 -3.1388
  773MOL0     H 2009  -1.736   6.799   2.212 -1.2615  0.5313  0.9578
  773MOL0     H 2010  -1.963   6.826   1.994 -0.9337  0.3639 -0.2505
  773MOL0     H 2011  -1.940   6.944   2.114 -2.0436 -1.1618 -0.0915
  773MOL0     H 2012  -1.977   6.784   2.292  0.7278  0.5548 -0.2116
  773MOL0     H 2013  -1.996   6.656   2.169  1.7701 -0.0725  0.4595
  773MOL0     H 2014  -2.161   6.900   2.126 -0.2456 -0.1431 -1.2988
  773MOL0     H 2015  -2.219   6.732   2.099  1.0809 -4.8823  3.7170
  773MOL0     H 2016  -2.197   6.871   2.366 -0.6971  1.1450 -1.3566
  773MOL0     H 2017  -2.260   6.705   2.326  0.0952 -0.4007  0.2852
  773MOL0     H 2018  -1.343   6.962   1.711 -0.9752 -0.8357  2.3086
  773MOL0     H 2019  -1.181   7.020   1.549  1.1181 -0.4847 -0.4171
  773MOL0     H 2020  -0.643   7.073   1.578 -0.7509  0.9100 -0.7806
  773MOL0     H 2021  -0.430   7.152   1.465 -0.5187  0.4667  1.5445
  773MOL0     H 2022   0.942   6.483   0.747 -1.0811  0.0901  0.7503
  773MOL0     H 2023   1.144   6.351   0.720 -0.3534 -1.2517 -0.0684
  773MOL0     H 2024   1.417   6.177   0.653  1.0317  1.0632 -1.3671
  773MOL0     H 2025   1.656   6.133   0.632  1.5571 -1.9469  2.7348
  773MOL0     H 2026   1.864   6.027   0.649  2.5369 -1.7308  0.1526
  773MOL0     H 2027   1.857   6.070   0.472 -0.4060  0.9905  0.9958
  773MOL0     H 2028   1.976   5.811   0.591 -0.9511 -1.1515 -2.4850
  773MOL0     H 2029   1.999   5.868   0.432  2.7456  1.1650  0.4418
  773MOL0     H 2030   2.098   6.019   0.680 -0.3136  0.5557 -0.8725
  773MOL0     H 2031   2.147   6.057   0.515 -0.4285 -0.8209 -2.2372
  773MOL0     H 2032   2.235   5.842   0.714 -1.2946 -1.5855 -0.7347
  773MOL0     H 2033   2.229   5.781   0.560 -0.3698 -1.4161  2.7357
  773MOL0     H 2034   2.567   6.019   0.515 -1.1683 -0.7204 -2.9863
  773MOL0     H 2035   1.584   5.767   0.427  1.5029  0.1914  1.6809
  773MOL0     H 2036   1.333   5.806   0.462  0.6514  0.7016 -2.4298
  774MOL0     O 2037   0.858   0.294   6.088 -0.1368 -0.1824  0.5281
  774MOL0     C 2038   0.866   0.397   6.154  0.5481  0.2599 -1.0455
  774MOL0     O 2039   0.765   0.435   6.244  0.1389 -0.2956 -0.0349
  774MOL0     C 2040   0.659   0.350   6.266 -0.2102 -1.1671  0.0071
  774MOL0     C 2041   0.684   0.231   6.327 -0.3481 -0.0828  0.8980
  774MOL0     C 2042   0.581   0.144   6.374  0.4443 -0.7486  0.8824
  774MOL0     C 2043   0.446   0.197   6.365 -0.2185 -0.7487  0.5543
  774MOL0     O 2044   0.346   0.123   6.421  0.1137 -0.2869  0.3513
  774MOL0     C 2045   0.256   0.081   6.322  0.0914  0.3157 -0.2481
  774MOL0     C 2046   0.160  -0.016   6.395 -0.2108 -0.1242  0.0130
  774MOL0     C 2047   0.036  -0.059   6.317  0.1576 -0.5256 -0.6743
  774MOL0     C 2048   0.070  -0.131   6.194  0.0091 -0.3013 -0.7010
  774MOL0     C 2049  -0.052  -0.183   6.123  0.1752 -0.5374 -0.1291
  774MOL0     C 2050  -0.004  -0.234   5.988  0.8657  0.0658 -0.2545
  774MOL0     C 2051  -0.110  -0.312   5.906  0.2992  0.2712  0.3674
  774MOL0     C 2052  -0.061  -0.364   5.771 -0.1168 -0.6058 -0.2019
  774MOL0     N 2053  -0.046  -0.250   5.678  0.2512 -0.2346  0.4822
  774MOL0     C 2054   0.074  -0.187   5.649 -0.2252 -0.5788  0.1751
  774MOL0     C 2055   0.039  -0.082   5.565  0.6387  0.3694 -0.5960
  774MOL0     C 2056   0.137   0.023   5.517  0.0822  0.2591  0.5285
  774MOL0     C 2057   0.240  -0.040   5.419  0.0362  0.9953  0.4447
  774MOL0     C 2058   0.335   0.060   5.364 -0.6165 -1.0478  0.5248
  774MOL0     C 2059   0.426  -0.007   5.266  0.9848  0.4117  0.0224
  774MOL0     O 2060   0.505   0.099   5.215 -0.2238 -0.0475  0.0829
  774MOL0     C 2061   0.620   0.066   5.142 -0.3365 -0.1050 -0.0940
  774MOL0     C 2062   0.706   0.166   5.113  0.3161  0.0387 -0.2088
  774MOL0     C 2063   0.820   0.148   5.030  0.4576  0.6453 -1.1088
  774MOL0     C 2064   0.851   0.021   4.977 -0.8450  0.1438 -0.2583
  774MOL0     C 2065   0.963  -0.008   4.891 -0.1239  0.1826  0.0731
  774MOL0     O 2066   1.038   0.103   4.860  0.6395  0.1435 -0.2270
  774MOL0     C 2067   1.160   0.075   4.808 -0.8872  0.1400 -0.3778
  774MOL0     C 2068   1.189   0.061   4.671  0.4408  0.0702  0.0985
  774MOL0     C 2069   1.316   0.054   4.629 -1.1163  0.1222  1.1177
  774MOL0     C 2070   1.427   0.042   4.714 -0.3880  0.1902 -0.6615
  774MOL0     O 2071   1.557   0.009   4.678 -0.2439  0.1655  0.2807
  774MOL0     C 2072   1.562  -0.095   4.582 -0.3405 -0.1589 -0.0842
  774MOL0     C 2073   1.707  -0.136   4.585 -0.0827  0.3030  1.0157
  774MOL0     C 2074   1.801  -0.024   4.526 -0.0156 -0.9861 -0.0311
  774MOL0     C 2075   1.928  -0.090   4.468 -0.7091  0.0152 -0.0955
  774MOL0     C 2076   2.036   0.013   4.430  0.1641 -0.3019 -0.1039
  774MOL0     C 2077   2.082   0.097   4.547 -0.6644  0.7379  0.5688
  774MOL0     C 2078   2.185   0.195   4.491  0.1167 -0.3300 -0.9519
  774MOL0     C 2079   2.236   0.275   4.609 -0.0884 -0.1068  0.2704
  774MOL0    Cl 2080   2.111   0.379   4.694 -0.1938 -0.1191  0.1436
  774MOL0     C 2081   1.399   0.044   4.857 -0.2820 -0.4656  0.6412
  774MOL0     C 2082   1.267   0.073   4.898  0.0879 -0.5288 -0.7543
  774MOL0     O 2083   0.994  -0.123   4.857  0.5651  0.0963  0.3416
  774MOL0     C 2084   0.764  -0.083   5.011  0.1421 -0.1803  0.6106
  774MOL0     C 2085   0.655  -0.062   5.101  0.0716  0.4668 -0.0033
  774MOL0     N 2086  -0.097  -0.082   5.559  0.4011 -0.3390 -0.0205
  774MOL0     N 2087  -0.154  -0.180   5.616 -1.2774 -0.5297  0.3247
  774MOL0     C 2088   0.419   0.315   6.298 -0.0174 -0.1776 -0.5628
  774MOL0     C 2089   0.529   0.396   6.252  0.3791 -1.1797 -0.4059
  774MOL0     C 2090   0.979   0.487   6.147  0.3980 -0.0239  0.4861
  774MOL0     C 2091   1.097   0.443   6.080  0.6124  0.0322 -0.1067
  774MOL0     C 2092   1.203   0.529   6.073  1.1115  0.3660 -0.2772
  774MOL0     C 2093   1.198   0.665   6.107  0.2181  0.3873 -0.6057
  774MOL0     O 2094   1.293   0.759   6.074 -0.0253  0.1447  0.1432
  774MOL0     C 2095   1.410   0.712   6.008  0.5644  0.0170  0.1421
  774MOL0     C 2096   1.521   0.821   6.028 -0.1633  0.4592 -0.0145
  774MOL0     C 2097   1.473   0.956   5.969  0.2632  0.1194 -0.2031
  774MOL0     C 2098   1.470   1.073   6.063 -0.4142 -0.0567  0.7166
  774MOL0     C 2099   1.342   1.082   6.131 -0.2699 -0.4437  0.0724
  774MOL0     C 2100   1.233   1.071   6.185  0.1770 -0.6305 -0.1955
  774MOL0     C 2101   1.081   0.705   6.169  1.2990  0.0808  0.0909
  774MOL0     C 2102   0.974   0.619   6.188 -0.0223  0.2926  0.3663
  774MOL0     H 2103   0.782   0.186   6.316 -1.8125 -2.9810 -1.6843
  774MOL0     H 2104   0.602   0.046   6.415  3.4947 -0.2065  0.8698
  774MOL0     H 2105   0.312   0.031   6.243  0.9358  2.2000 -0.9097
  774MOL0     H 2106   0.205   0.159   6.265  0.0726  0.2900 -0.2672
  774MOL0     H 2107   0.134   0.026   6.493 -2.6807  1.2650 -1.1700
  774MOL0     H 2108   0.224  -0.104   6.407  3.5513  2.3106 -0.5694
  774MOL0     H 2109  -0.026   0.027   6.290  1.4039  0.2194 -1.2891
  774MOL0     H 2110  -0.025  -0.124   6.380  1.0828  1.3859  2.4107
  774MOL0     H 2111   0.131  -0.064   6.133  1.3301 -0.8129  0.0181
  774MOL0     H 2112   0.129  -0.222   6.210  0.7957  0.1614 -0.9188
  774MOL0     H 2113  -0.127  -0.105   6.105  0.3553 -0.6140 -1.2999
  774MOL0     H 2114  -0.091  -0.268   6.180 -0.1416 -0.4022 -0.1392
  774MOL0     H 2115   0.077  -0.303   6.015  1.0543  0.6351  0.7176
  774MOL0     H 2116   0.035  -0.155   5.923  0.4360 -0.2764 -0.9338
  774MOL0     H 2117  -0.119  -0.408   5.957  4.7745 -0.5991 -0.0202
  774MOL0     H 2118  -0.199  -0.253   5.885  0.2713 -0.6399 -2.5487
  774MOL0     H 2119  -0.150  -0.422   5.746 -2.2837  1.1347  2.9233
  774MOL0     H 2120   0.028  -0.428   5.771  1.1675  1.0539  2.3375
  774MOL0     H 2121   0.176  -0.202   5.682  0.6156  1.9617 -0.9648
  774MOL0     H 2122   0.192   0.055   5.606  3.1699  1.4578 -1.6544
  774MOL0     H 2123   0.086   0.108   5.470  1.0179  0.7175  0.3321
  774MOL0     H 2124   0.193  -0.089   5.334  1.5257 -0.7744  0.5989
  774MOL0     H 2125   0.292  -0.118   5.474 -0.5401  0.5206  0.3299
  774MOL0     H 2126   0.282   0.136   5.305  0.3154 -1.3631 -0.7674
  774MOL0     H 2127   0.395   0.097   5.448  0.4322 -3.8274  1.1011
  774MOL0     H 2128   0.378  -0.071   5.191  0.1264  0.1765  0.7485
  774MOL0     H 2129   0.476  -0.082   5.328 -0.3505  0.7846  1.6556
  774MOL0     H 2130   0.693   0.270   5.143  0.9179 -0.4442  1.8659
  774MOL0     H 2131   0.877   0.239   5.022  0.2039  1.2893  2.5447
  774MOL0     H 2132   1.103   0.081   4.608 -0.3228  3.6575  2.0168
  774MOL0     H 2133   1.331   0.048   4.521  0.0334  0.7105  1.2333
  774MOL0     H 2134   1.525  -0.050   4.490  0.6282  0.5530 -0.1431
  774MOL0     H 2135   1.507  -0.188   4.601  0.1674 -0.6554 -0.9669
  774MOL0     H 2136   1.720  -0.225   4.523  4.1675 -0.9012  3.2458
  774MOL0     H 2137   1.739  -0.164   4.686 -1.0448 -0.1648  1.2025
  774MOL0     H 2138   1.816   0.057   4.599 -2.3932  1.4455 -2.0420
  774MOL0     H 2139   1.752   0.030   4.445 -1.3924 -1.6047  0.3633
  774MOL0     H 2140   1.966  -0.165   4.538 -1.5627 -1.4775 -1.1520
  774MOL0     H 2141   1.902  -0.149   4.379  0.3713 -1.7849  0.7238
  774MOL0     H 2142   1.980   0.088   4.373 -3.3049  2.1491  5.5820
  774MOL0     H 2143   2.110  -0.041   4.371 -0.8440 -1.3730 -0.4243
  774MOL0     H 2144   2.127   0.030   4.620 -0.6807  0.1036  0.0014
  774MOL0     H 2145   1.996   0.149   4.591 -0.1412  1.4498  0.7792
  774MOL0     H 2146   2.273   0.148   4.446  0.8246  1.1767 -1.1942
  774MOL0     H 2147   2.145   0.260   4.413  0.8013  1.9043  0.4710
  774MOL0     H 2148   2.319   0.340   4.578 -0.8001  0.8989  0.4353
  774MOL0     H 2149   2.281   0.210   4.684  0.6726 -1.4856 -1.2986
  774MOL0     H 2150   1.476   0.017   4.929  0.7182  0.9720  0.1463
  774MOL0     H 2151   1.247   0.087   5.004 -0.9119  0.2341 -1.0188
  774MOL0     H 2152   0.773  -0.189   4.986 -1.3213 -0.3657  0.7523
  774MOL0     H 2153   0.593  -0.147   5.129 -0.0643  0.0534 -1.4823
  774MOL0     H 2154   0.322   0.362   6.283  0.1569  1.0395  1.6086
  774MOL0     H 2155   0.507   0.489   6.201  0.8005 -0.9879 -0.2422
  774MOL0     H 2156   1.098   0.345   6.036 -1.2004  0.1929 -0.5640
  774MOL0     H 2157   1.290   0.485   6.026  0.0254 -0.6877 -1.3755
  774MOL0     H 2158   1.386   0.702   5.902  1.7627 -1.5821 -0.0156
  774MOL0     H 2159   1.453   0.625   6.059  4.1576  0.9984 -0.8597
  774MOL0     H 2160   1.532   0.831   6.136 -0.4184  0.7736 -0.0168
  774MOL0     H 2161   1.624   0.796   5.999 -0.3685  0.4483 -0.7607
  774MOL0     H 2162   1.387   0.944   5.903 -0.7861  3.2077  0.4583
  774MOL0     H 2163   1.551   0.987   5.898  0.3992 -2.4514 -1.2894
  774MOL0     H 2164   1.549   1.077   6.138  3.1580  0.6333 -2.7584
  774MOL0     H 2165   1.477   1.163   6.000 -1.0051  0.3058  1.1612
  774MOL0     H 2166   1.143   1.057   6.240 -1.0895 -0.9824 -2.2396
  774MOL0     H 2167   1.075   0.807   6.205  0.5078 -0.3571  1.2697
  774MOL0     H 2168   0.887   0.661   6.238 -1.5005 -1.7885 -0.3419
  775MOL0     O 2169   1.983   1.635   7.421 -0.4120 -0.4160 -0.3427
  775MOL0     C 2170   1.922   1.627   7.528 -0.0048 -0.2983  1.0917
  775MOL0     O 2171   1.795   1.584   7.553  0.1671  0.5096 -0.6544
  775MOL0     C 2172   1.720   1.568   7.442  0.7967  0.1691 -0.4838
  775MOL0     C 2173   1.597   1.650   7.429  0.4582 -0.1376 -0.2846
  775MOL0     C 2174   1.519   1.640   7.321 -0.0218  0.1166  0.4073
  775MOL0     C 2175   1.544   1.549   7.219 -0.0919 -0.5656  0.5824
  775MOL0     O 2176   1.443   1.541   7.124  0.1367 -0.5552  0.2730
  775MOL0     C 2177   1.492   1.524   6.992 -0.1630 -0.7399  0.5703
  775MOL0     C 2178   1.399   1.615   6.901  0.3687 -1.1320 -0.5087
  775MOL0     C 2179   1.246   1.588   6.909  0.1419 -0.3632 -0.3711
  775MOL0     C 2180   1.179   1.661   6.792 -0.2336  0.8760 -0.4942
  775MOL0     C 2181   1.029   1.686   6.810 -0.7622  0.4968 -0.2340
  775MOL0     C 2182   1.008   1.784   6.919  0.3820 -0.7316 -0.4898
  775MOL0     C 2183   0.867   1.852   6.906  0.0753  0.1528  0.3646
  775MOL0     C 2184   0.756   1.746   6.924 -0.0044 -0.1121  0.2689
  775MOL0     N 2185   0.628   1.818   6.941  0.1674 -0.3855 -0.3502
  775MOL0     C 2186   0.595   1.924   6.859 -0.3045  1.0021 -0.1083
  775MOL0     C 2187   0.505   1.994   6.933 -0.1165 -0.0177 -0.2307
  775MOL0     C 2188   0.432   2.116   6.884  1.2476 -0.7300  0.8116
  775MOL0     C 2189   0.290   2.143   6.942 -0.2773  0.4245 -1.1715
  775MOL0     C 2190   0.290   2.225   7.072  0.2541  0.4267  0.5638
  775MOL0     C 2191   0.162   2.264   7.147 -0.6335 -1.1363  0.4197
  775MOL0     O 2192   0.126   2.391   7.090  0.1046 -0.0432 -0.2803
  775MOL0     C 2193   0.025   2.442   7.167 -0.0072 -0.0088 -1.3822
  775MOL0     C 2194   0.062   2.542   7.257  0.2065 -0.1973  0.2490
  775MOL0     C 2195  -0.041   2.612   7.335 -0.2350 -0.5344  0.0080
  775MOL0     C 2196  -0.174   2.561   7.337 -0.2582 -0.6578  0.0684
  775MOL0     C 2197  -0.277   2.625   7.423  0.1083 -0.5436 -0.6872
  775MOL0     O 2198  -0.395   2.562   7.428  1.1298 -0.4382  0.6400
  775MOL0     C 2199  -0.496   2.612   7.502 -0.1194  0.3514 -0.7070
  775MOL0     C 2200  -0.478   2.618   7.642  0.1422  0.2073  0.2937
  775MOL0     C 2201  -0.573   2.670   7.731 -0.0095 -0.4981  0.0747
  775MOL0     C 2202  -0.698   2.703   7.675 -0.7684  0.2091  0.0003
  775MOL0     O 2203  -0.783   2.753   7.772  0.2799  0.3800  0.2032
  775MOL0     C 2204  -0.910   2.813   7.738  0.5018 -0.2377 -0.1615
  775MOL0     C 2205  -1.013   2.697   7.707 -0.1103 -0.5577  0.3559
  775MOL0     C 2206  -1.149   2.754   7.688 -0.2174 -0.5474  0.2171
  775MOL0     C 2207  -1.253   2.656   7.652  1.0772  0.7479  0.3691
  775MOL0     C 2208  -1.392   2.702   7.691  0.6103  0.0304 -0.4430
  775MOL0     C 2209  -1.512   2.618   7.628  0.4709  0.7870 -0.4738
  775MOL0     C 2210  -1.636   2.650   7.696  0.2496  0.2997 -0.4235
  775MOL0     C 2211  -1.737   2.546   7.659  0.7013  0.8453 -0.5899
  775MOL0    Cl 2212  -1.891   2.578   7.738  0.6024 -0.0873 -0.0481
  775MOL0     C 2213  -0.721   2.689   7.533 -0.0613  0.0193  0.0727
  775MOL0     C 2214  -0.618   2.650   7.449  0.0939 -0.4989 -0.2113
  775MOL0     O 2215  -0.256   2.738   7.474  0.5062  0.4092 -0.0841
  775MOL0     C 2216  -0.200   2.456   7.246 -0.4967  0.2138 -0.5045
  775MOL0     C 2217  -0.106   2.400   7.158  0.0292  0.1281 -0.4400
  775MOL0     N 2218   0.494   1.940   7.063  0.6742 -0.0085  0.7320
  775MOL0     N 2219   0.566   1.835   7.057 -0.0358  0.1950  0.2289
  775MOL0     C 2220   1.664   1.465   7.226  0.5540 -0.2728  0.3628
  775MOL0     C 2221   1.748   1.477   7.339 -0.1124 -0.0245 -0.1314
  775MOL0     C 2222   2.004   1.648   7.651 -0.4207 -0.0103  0.0680
  775MOL0     C 2223   2.132   1.596   7.659 -0.3374  0.0683 -0.1669
  775MOL0     C 2224   2.208   1.615   7.781  0.2330  0.2856 -0.4094
  775MOL0     C 2225   2.148   1.679   7.898 -0.0860  0.2016  0.3550
  775MOL0     O 2226   2.224   1.672   8.008  0.5867 -0.1510 -0.3517
  775MOL0     C 2227   2.174   1.707   8.141  0.0813 -0.1998 -0.1874
  775MOL0     C 2228   2.297   1.686   8.235  0.1144  0.2337  0.1887
  775MOL0     C 2229   2.269   1.669   8.383  0.1904 -0.1161 -1.0794
  775MOL0     C 2230   2.172   1.770   8.438 -0.0219 -0.7854 -0.3784
  775MOL0     C 2231   2.031   1.747   8.416  1.0333 -0.1677 -1.1590
  775MOL0     C 2232   1.914   1.744   8.402  0.4618 -0.7850  1.1238
  775MOL0     C 2233   2.023   1.732   7.883  0.8611 -0.9819  0.0742
  775MOL0     C 2234   1.946   1.713   7.766 -0.0158  0.0062  0.3969
  775MOL0     H 2235   1.584   1.734   7.497 -4.2320  0.6648 -1.8144
  775MOL0     H 2236   1.426   1.693   7.305  0.0761 -0.2486 -1.6744
  775MOL0     H 2237   1.481   1.419   6.962  1.9893 -0.6553 -0.7305
  775MOL0     H 2238   1.598   1.550   6.989 -0.7440  2.2249  2.0443
  775MOL0     H 2239   1.440   1.602   6.800  0.8489  1.3419 -0.7082
  775MOL0     H 2240   1.420   1.719   6.926  0.5520 -1.2994  0.0499
  775MOL0     H 2241   1.212   1.625   7.006 -1.1198 -2.9867  0.3008
  775MOL0     H 2242   1.207   1.485   6.907 -0.7041 -0.0465 -2.0773
  775MOL0     H 2243   1.237   1.754   6.798  0.6409  0.2777  0.9183
  775MOL0     H 2244   1.187   1.600   6.702 -2.3005 -0.9114  0.4478
  775MOL0     H 2245   0.975   1.592   6.826  0.1507  0.0940  0.5522
  775MOL0     H 2246   0.978   1.733   6.725  1.1442 -2.2979 -3.1557
  775MOL0     H 2247   1.084   1.862   6.915 -1.8623  1.8090  2.1554
  775MOL0     H 2248   1.009   1.742   7.020 -2.6958  0.0241 -0.0349
  775MOL0     H 2249   0.854   1.923   6.988 -1.1489  0.8313 -0.3795
  775MOL0     H 2250   0.865   1.909   6.813  0.1929  0.6719  0.6758
  775MOL0     H 2251   0.767   1.691   7.018  0.8257 -0.1735  0.1440
  775MOL0     H 2252   0.748   1.678   6.839 -0.9813  0.9401 -0.5137
  775MOL0     H 2253   0.629   1.949   6.759 -1.6029 -1.0865 -1.1440
  775MOL0     H 2254   0.419   2.108   6.775 -0.0225  0.7713  0.8213
  775MOL0     H 2255   0.493   2.203   6.907  1.7172 -1.1278  1.0885
  775MOL0     H 2256   0.246   2.049   6.978  0.0163  1.6153  2.7281
  775MOL0     H 2257   0.233   2.200   6.868  2.2748  2.2512 -1.8857
  775MOL0     H 2258   0.344   2.167   7.148 -1.2077 -0.5806  0.8767
  775MOL0     H 2259   0.342   2.319   7.051  0.3685  0.9259  2.8431
  775MOL0     H 2260   0.187   2.278   7.252  2.1882  2.1655 -0.5124
  775MOL0     H 2261   0.083   2.188   7.144  0.6881 -2.6022  0.9121
  775MOL0     H 2262   0.164   2.576   7.252 -0.1625  0.7534 -1.3689
  775MOL0     H 2263  -0.005   2.692   7.398 -1.2912  1.4657 -1.7828
  775MOL0     H 2264  -0.394   2.577   7.696 -0.9661 -0.7018  1.3999
  775MOL0     H 2265  -0.552   2.669   7.837 -1.6839  2.8083  0.5418
  775MOL0     H 2266  -0.905   2.876   7.649  1.9811  0.1500  0.1670
  775MOL0     H 2267  -0.935   2.878   7.822  0.1369 -0.3437 -0.1881
  775MOL0     H 2268  -1.011   2.619   7.784 -3.1458 -0.9827  0.1310
  775MOL0     H 2269  -0.987   2.644   7.615 -4.8504  0.9731 -2.1717
  775MOL0     H 2270  -1.154   2.840   7.620  0.2437  0.1649  1.0564
  775MOL0     H 2271  -1.177   2.798   7.785 -1.4655  1.2562 -0.8986
  775MOL0     H 2272  -1.248   2.643   7.543  1.0803  1.2410  0.3076
  775MOL0     H 2273  -1.245   2.559   7.701 -0.8867  1.0214  1.3581
  775MOL0     H 2274  -1.409   2.809   7.674 -0.5457 -0.4767 -3.0510
  775MOL0     H 2275  -1.390   2.686   7.799  0.6901 -3.7800 -0.8693
  775MOL0     H 2276  -1.481   2.515   7.644  0.1464  0.5704 -1.2152
  775MOL0     H 2277  -1.501   2.643   7.522 -1.0819  3.4308 -0.1007
  775MOL0     H 2278  -1.622   2.654   7.804 -0.8102 -1.3993 -0.1890
  775MOL0     H 2279  -1.672   2.750   7.669  0.7023  0.3394 -0.8854
  775MOL0     H 2280  -1.697   2.451   7.695  0.5391  1.1697  0.4807
  775MOL0     H 2281  -1.751   2.541   7.550  0.2121 -1.6275 -0.4753
  775MOL0     H 2282  -0.817   2.717   7.490  0.0851  0.1631 -0.1654
  775MOL0     H 2283  -0.641   2.632   7.345 -1.9018  1.2213 -0.1490
  775MOL0     H 2284  -0.301   2.422   7.224 -0.5238 -0.3801  0.4949
  775MOL0     H 2285  -0.138   2.323   7.089  1.3157  0.3898 -1.3801
  775MOL0     H 2286   1.674   1.393   7.145  1.0139  1.2574 -0.9941
  775MOL0     H 2287   1.830   1.407   7.337  1.6376  1.8746  1.0644
  775MOL0     H 2288   2.172   1.539   7.576 -0.7884 -0.3278 -0.1145
  775MOL0     H 2289   2.301   1.561   7.793  0.3449  0.3459 -0.9566
  775MOL0     H 2290   2.092   1.640   8.169 -0.1245 -0.2622 -0.9161
  775MOL0     H 2291   2.128   1.806   8.144 -2.9160 -1.5026  1.0995
  775MOL0     H 2292   2.354   1.596   8.210 -0.5431  0.2735 -1.5319
  775MOL0     H 2293   2.364   1.768   8.207  0.2049  0.3193  0.6444
  775MOL0     H 2294   2.364   1.672   8.439  0.9826  1.6243 -2.4284
  775MOL0     H 2295   2.224   1.572   8.405  3.1673 -1.3746  0.0874
  775MOL0     H 2296   2.187   1.749   8.545  2.0826 -1.7451 -0.8111
  775MOL0     H 2297   2.203   1.873   8.417 -1.5047 -0.3472 -0.5278
  775MOL0     H 2298   1.809   1.734   8.383  0.6266 -1.8028  0.6802
  775MOL0     H 2299   1.987   1.806   7.954  1.4015 -0.3414 -0.3037
  775MOL0     H 2300   1.847   1.755   7.768 -0.7223 -1.5616 -0.2517
  776MOL0     O 2301  10.231   3.224   0.350  0.8607  0.5474 -0.5112
  776MOL0     C 2302  10.252   3.178   0.238 -0.2162  0.2204 -0.0211
  776MOL0     O 2303  10.157   3.117   0.150  0.4070  0.4431 -0.6413
  776MOL0     C 2304  10.036   3.084   0.196 -0.0938  0.5501 -0.1235
  776MOL0     C 2305   9.945   3.067   0.098 -0.4029  0.1050 -0.3965
  776MOL0     C 2306   9.812   3.026   0.132 -0.0393 -0.1236  0.6577
  776MOL0     C 2307   9.766   3.011   0.263  0.1070 -0.3987  0.7599
  776MOL0     O 2308   9.631   3.009   0.285 -0.3720 -0.2568  0.0021
  776MOL0     C 2309   9.582   2.968   0.412  0.0713 -0.1477 -0.0929
  776MOL0     C 2310   9.627   2.822   0.457  0.4368 -0.5030 -0.5690
  776MOL0     C 2311   9.552   2.776   0.580  0.8341  0.0160  0.5443
  776MOL0     C 2312   9.586   2.632   0.600  0.8100 -0.0823 -0.3912
  776MOL0     C 2313   9.514   2.586   0.721 -0.1204 -0.2365 -0.4056
  776MOL0     C 2314   9.508   2.435   0.736 -0.4259 -0.4358  0.0807
  776MOL0     C 2315   9.439   2.389   0.868  0.3733 -0.0994  0.5122
  776MOL0     C 2316   9.463   2.242   0.900 -0.1502  1.0808  0.3967
  776MOL0     N 2317   9.417   2.198   1.039  0.1540  0.0946  0.2669
  776MOL0     C 2318   9.292   2.211   1.093  0.4464  0.1101 -1.0268
  776MOL0     C 2319   9.302   2.140   1.209 -0.4965 -0.2560 -0.8816
  776MOL0     C 2320   9.192   2.117   1.305  0.0521  0.2562 -0.2152
  776MOL0     C 2321   9.238   2.170   1.442 -0.2521 -0.2273 -0.5133
  776MOL0     C 2322   9.140   2.141   1.556 -0.1018  0.0298  0.1193
  776MOL0     C 2323   8.997   2.168   1.525 -0.5442 -0.0605  0.1886
  776MOL0     O 2324   8.924   2.054   1.472 -0.6953  0.3254 -0.7397
  776MOL0     C 2325   8.798   2.060   1.439 -0.0076 -0.8897  1.0727
  776MOL0     C 2326   8.730   1.934   1.438 -0.2528 -0.1493  0.3897
  776MOL0     C 2327   8.585   1.937   1.429  0.4459  0.8503 -0.2478
  776MOL0     C 2328   8.514   2.063   1.404 -0.3410  0.2051 -0.0911
  776MOL0     C 2329   8.373   2.065   1.395  0.0887  0.1991  0.7998
  776MOL0     O 2330   8.303   1.944   1.408 -0.0033  0.1825 -0.4095
  776MOL0     C 2331   8.173   1.945   1.418  0.9251 -0.3789 -0.5848
  776MOL0     C 2332   8.101   1.897   1.304  0.0084 -0.3478  0.1970
  776MOL0     C 2333   7.964   1.895   1.319 -0.1965  0.6268  0.5453
  776MOL0     C 2334   7.892   1.935   1.434 -0.2003  0.9198  0.6757
  776MOL0     O 2335   7.759   1.948   1.450  0.0752  0.5320 -0.4161
  776MOL0     C 2336   7.695   1.826   1.419 -1.0628 -0.1868  0.3725
  776MOL0     C 2337   7.614   1.843   1.290 -0.3443  0.0831 -0.5552
  776MOL0     C 2338   7.500   1.946   1.309  0.1245  0.6455 -0.5946
  776MOL0     C 2339   7.415   1.968   1.189  0.2362 -0.1556  0.0142
  776MOL0     C 2340   7.309   2.074   1.217  0.7020 -0.2519 -0.8565
  776MOL0     C 2341   7.223   2.090   1.099 -0.6821 -0.0410 -0.0150
  776MOL0     C 2342   7.119   2.204   1.105 -0.2946 -0.4273  0.3899
  776MOL0     C 2343   7.038   2.195   1.227  0.3539 -0.0098 -0.3396
  776MOL0    Cl 2344   6.970   2.028   1.239 -0.2046 -0.5120 -0.6438
  776MOL0     C 2345   7.972   1.981   1.544 -0.0627  0.0301 -1.3907
  776MOL0     C 2346   8.110   1.993   1.534  0.4146  0.8705 -0.0173
  776MOL0     O 2347   8.323   2.171   1.366 -0.1621  0.1747  0.1951
  776MOL0     C 2348   8.593   2.182   1.392 -0.2567 -0.5164 -0.1809
  776MOL0     C 2349   8.730   2.187   1.421 -0.7912  0.3294  0.2620
  776MOL0     N 2350   9.426   2.086   1.222 -0.6519 -0.3350  0.1251
  776MOL0     N 2351   9.497   2.132   1.121  0.0905 -0.2415  0.2642
  776MOL0     C 2352   9.856   3.042   0.368 -0.6840  1.0544  0.0217
  776MOL0     C 2353   9.991   3.068   0.329 -0.7097  0.3946 -0.1487
  776MOL0     C 2354  10.389   3.187   0.191 -0.4046 -0.5782  0.0678
  776MOL0     C 2355  10.495   3.253   0.257  1.2096  0.5128  0.3000
  776MOL0     C 2356  10.619   3.283   0.208  1.0862  0.3960 -0.2810
  776MOL0     C 2357  10.651   3.241   0.083 -0.0803 -0.2585 -0.3540
  776MOL0     O 2358  10.773   3.272   0.028 -0.2721 -0.6563  0.1862
  776MOL0     C 2359  10.826   3.203  -0.085  0.5557 -0.2477 -0.0983
  776MOL0     C 2360  10.954   3.270  -0.144 -0.1405  0.2497 -0.4812
  776MOL0     C 2361  11.080   3.264  -0.059 -0.1912 -0.6136 -0.3562
  776MOL0     C 2362  11.203   3.335  -0.105  0.3364 -0.4245  0.4349
  776MOL0     C 2363  11.247   3.288  -0.233 -0.0052 -0.5650 -0.5196
  776MOL0     C 2364  11.301   3.240  -0.331  0.6547  0.2254  0.5083
  776MOL0     C 2365  10.561   3.161   0.013 -0.0919 -0.5075 -0.2786
  776MOL0     C 2366  10.431   3.133   0.063  0.2792  0.3100  0.2005
  776MOL0     H 2367   9.976   3.089  -0.004 -0.7988 -0.2831 -0.6041
  776MOL0     H 2368   9.744   3.023   0.047 -0.5376  2.0275  0.9364
  776MOL0     H 2369   9.473   2.982   0.422  0.1961  0.0943  1.1269
  776MOL0     H 2370   9.627   3.032   0.488  2.6356  0.0070 -1.6505
  776MOL0     H 2371   9.734   2.816   0.476  0.5082  0.3671 -0.6313
  776MOL0     H 2372   9.603   2.759   0.370  1.2215 -0.3435 -0.9063
  776MOL0     H 2373   9.445   2.797   0.573  0.9578  0.5184  0.1124
  776MOL0     H 2374   9.593   2.831   0.665  1.6061  0.3357 -0.0211
  776MOL0     H 2375   9.556   2.579   0.509  2.8391  0.5551 -1.4947
  776MOL0     H 2376   9.693   2.617   0.612  0.8014  0.7506  0.8022
  776MOL0     H 2377   9.410   2.619   0.709 -0.2451 -0.1134  0.8854
  776MOL0     H 2378   9.572   2.625   0.805  3.6412  1.0723 -3.3369
  776MOL0     H 2379   9.612   2.402   0.731 -0.0073  0.8580  0.0803
  776MOL0     H 2380   9.462   2.396   0.645  2.1307  0.1397 -1.5510
  776MOL0     H 2381   9.473   2.441   0.958  0.9530  0.3272  0.0602
  776MOL0     H 2382   9.331   2.404   0.865  0.5712  2.4888  2.2525
  776MOL0     H 2383   9.571   2.221   0.902 -0.0427  1.3711  3.9742
  776MOL0     H 2384   9.411   2.183   0.823  0.4174  0.8105  0.2103
  776MOL0     H 2385   9.199   2.251   1.054  1.0126  2.4573 -0.1681
  776MOL0     H 2386   9.165   2.011   1.307  0.1852  0.2241 -0.0931
  776MOL0     H 2387   9.109   2.179   1.268  1.5233  1.8111 -1.0590
  776MOL0     H 2388   9.266   2.275   1.442  3.8824 -1.1722 -0.4273
  776MOL0     H 2389   9.333   2.123   1.469  0.2159  1.3934  0.8053
  776MOL0     H 2390   9.166   2.041   1.590  2.0554  0.5750  0.2128
  776MOL0     H 2391   9.180   2.209   1.632  0.3373 -1.8694  1.6727
  776MOL0     H 2392   8.988   2.255   1.458  2.5729  1.4370  1.5351
  776MOL0     H 2393   8.944   2.204   1.614 -2.0702  3.5781 -1.9505
  776MOL0     H 2394   8.781   1.843   1.470  2.2331  0.3874 -1.7030
  776MOL0     H 2395   8.529   1.849   1.458  0.1615  1.6078  1.6804
  776MOL0     H 2396   8.158   1.881   1.214 -3.0819 -1.7726 -1.6792
  776MOL0     H 2397   7.912   1.859   1.231  0.4602 -1.3998  0.9391
  776MOL0     H 2398   7.633   1.794   1.503 -0.3101 -3.2656 -0.1360
  776MOL0     H 2399   7.767   1.745   1.406 -1.0539 -0.1167 -0.0039
  776MOL0     H 2400   7.567   1.748   1.265  1.4389 -1.0790  0.3042
  776MOL0     H 2401   7.683   1.883   1.215 -1.0413  0.1045 -1.1951
  776MOL0     H 2402   7.543   2.046   1.324 -0.3009  0.6263  0.9421
  776MOL0     H 2403   7.433   1.915   1.390 -0.6246  1.6485 -0.8083
  776MOL0     H 2404   7.476   2.004   1.106 -1.4755  1.1507 -0.7476
  776MOL0     H 2405   7.363   1.875   1.164  0.2997  0.2336 -1.7018
  776MOL0     H 2406   7.366   2.165   1.237  0.0412 -0.4342  2.2288
  776MOL0     H 2407   7.255   2.044   1.307  2.5062  1.5358  0.9288
  776MOL0     H 2408   7.169   1.996   1.082 -0.4828 -0.2653  0.5884
  776MOL0     H 2409   7.286   2.111   1.012 -0.9862 -0.1536 -0.2640
  776MOL0     H 2410   7.165   2.304   1.111  1.6326 -1.2132 -0.3632
  776MOL0     H 2411   7.059   2.194   1.015 -1.0232  1.3259  0.6465
  776MOL0     H 2412   6.953   2.265   1.222  0.6428  0.3589 -0.0844
  776MOL0     H 2413   7.103   2.214   1.313 -1.2764  0.1494  0.9081
  776MOL0     H 2414   7.928   2.022   1.634  2.7946  0.4592 -0.0772
  776MOL0     H 2415   8.156   2.036   1.622  0.6887 -0.8698  0.7409
  776MOL0     H 2416   8.550   2.276   1.360  2.3324  1.0518  0.6916
  776MOL0     H 2417   8.783   2.281   1.423 -1.0869  0.4993  2.6076
  776MOL0     H 2418   9.835   3.022   0.472  1.1771 -0.5045  0.1436
  776MOL0     H 2419  10.047   3.075   0.421 -0.9534  1.5146 -0.0640
  776MOL0     H 2420  10.468   3.288   0.356  0.2611 -0.9389  0.5924
  776MOL0     H 2421  10.697   3.331   0.265  0.2290  1.6881 -0.1500
  776MOL0     H 2422  10.755   3.190  -0.167 -0.3377  0.5760  0.5093
  776MOL0     H 2423  10.849   3.101  -0.053 -1.7775 -0.8046  0.0552
  776MOL0     H 2424  10.977   3.226  -0.241  0.9622  0.5596 -0.3664
  776MOL0     H 2425  10.936   3.376  -0.165  0.2821  0.3153 -0.5087
  776MOL0     H 2426  11.115   3.162  -0.044  0.8055  0.1211  3.6382
  776MOL0     H 2427  11.054   3.301   0.041 -1.8333  0.0781 -0.9915
  776MOL0     H 2428  11.186   3.442  -0.120 -0.5481 -0.7669 -1.2412
  776MOL0     H 2429  11.278   3.334  -0.025  1.9146  1.2749 -0.9366
  776MOL0     H 2430  11.341   3.201  -0.423 -1.0849 -0.6922  0.0967
  776MOL0     H 2431  10.575   3.129  -0.090 -2.9686  2.4185 -1.7747
  776MOL0     H 2432  10.356   3.080   0.005  0.2045 -1.6763  1.9802
  777MOL0     O 2433   4.853   3.442  10.096 -0.4358  0.2494 -0.4768
  777MOL0     C 2434   4.884   3.511   9.998 -0.5565  1.0014  0.2556
  777MOL0     O 2435   4.800   3.588   9.915  0.0014 -0.0795  0.4354
  777MOL0     C 2436   4.669   3.604   9.948  0.1534 -0.2006 -0.2860
  777MOL0     C 2437   4.614   3.630  10.077  0.1047 -0.0194  0.2364
  777MOL0     C 2438   4.472   3.647  10.092 -0.7049 -0.2045  0.4711
  777MOL0     C 2439   4.387   3.644   9.981  0.5058  0.5045  1.0077
  777MOL0     O 2440   4.253   3.672   9.998  0.3236  0.5098  0.3142
  777MOL0     C 2441   4.147   3.643   9.897 -0.6664 -0.2700 -0.2456
  777MOL0     C 2442   4.040   3.742   9.923 -0.3717  0.2890 -0.0809
  777MOL0     C 2443   3.920   3.751   9.821 -0.5262  0.3324  0.0397
  777MOL0     C 2444   3.846   3.876   9.859  0.2743  0.0266 -0.4734
  777MOL0     C 2445   3.726   3.906   9.769 -0.7456  1.0475  0.6423
  777MOL0     C 2446   3.645   4.013   9.828 -0.5491  0.1399 -0.3731
  777MOL0     C 2447   3.580   4.093   9.715  0.0011 -0.2070 -0.3776
  777MOL0     C 2448   3.500   4.021   9.610  0.7040  0.1847  0.1574
  777MOL0     N 2449   3.361   3.982   9.662  0.0964 -0.1344  0.1107
  777MOL0     C 2450   3.253   4.064   9.652  0.2832  0.1906  0.3946
  777MOL0     C 2451   3.157   3.989   9.700  0.2455  0.3962  0.6227
  777MOL0     C 2452   3.019   4.034   9.733  0.2357  0.0081 -0.3064
  777MOL0     C 2453   2.918   3.951   9.655 -0.1036 -0.5595  0.3885
  777MOL0     C 2454   2.776   3.992   9.695  0.0021  0.9971  0.9729
  777MOL0     C 2455   2.708   3.868   9.758 -0.0347  0.0882  0.7796
  777MOL0     O 2456   2.584   3.912   9.824 -0.2688  0.4136  0.0497
  777MOL0     C 2457   2.471   3.928   9.743  0.5977 -0.3758  0.0481
  777MOL0     C 2458   2.465   3.904   9.605 -0.5032  0.1408 -0.3306
  777MOL0     C 2459   2.346   3.937   9.539  0.2188  0.3054 -0.7278
  777MOL0     C 2460   2.228   3.969   9.604  0.8495  0.0419  0.0672
  777MOL0     C 2461   2.097   3.998   9.535 -0.6307 -0.3804  0.0911
  777MOL0     O 2462   1.986   4.008   9.614  0.1364 -0.2825  0.1691
  777MOL0     C 2463   1.859   4.044   9.572  0.4656  0.4375 -0.0074
  777MOL0     C 2464   1.786   4.123   9.659 -0.9948  0.7070  0.1978
  777MOL0     C 2465   1.658   4.163   9.623  0.1421 -1.1392 -0.0465
  777MOL0     C 2466   1.597   4.130   9.495  0.0532 -0.0060 -0.7406
  777MOL0     O 2467   1.476   4.184   9.466 -0.3310 -0.0710  0.1338
  777MOL0     C 2468   1.410   4.122   9.352  0.9615 -0.1177 -0.0788
  777MOL0     C 2469   1.269   4.188   9.332 -0.2690  0.1483 -0.0561
  777MOL0     C 2470   1.191   4.151   9.451 -0.0413  0.6038 -0.3521
  777MOL0     C 2471   1.050   4.220   9.443  0.4697 -0.5929  0.3618
  777MOL0     C 2472   0.964   4.231   9.566  0.1999  0.0568 -0.1446
  777MOL0     C 2473   0.989   4.122   9.666  0.4348  0.6060  0.4059
  777MOL0     C 2474   0.892   4.133   9.784  0.4216 -0.0165 -0.7951
  777MOL0     C 2475   0.757   4.067   9.752  0.4994  0.2884 -0.3005
  777MOL0    Cl 2476   0.641   4.091   9.868 -0.0609  0.4339 -0.3379
  777MOL0     C 2477   1.669   4.045   9.415 -0.7968  0.1635 -0.0018
  777MOL0     C 2478   1.798   4.004   9.456 -0.4894  0.1214  0.9152
  777MOL0     O 2479   2.104   4.012   9.412 -0.3902 -0.0703 -0.3373
  777MOL0     C 2480   2.226   3.969   9.743 -0.7662 -0.5902  0.2352
  777MOL0     C 2481   2.349   3.951   9.806 -0.0607  0.8261 -0.0940
  777MOL0     N 2482   3.209   3.865   9.736  0.0298  0.6552 -0.2795
  777MOL0     N 2483   3.335   3.862   9.710 -0.5454  0.5652 -0.0442
  777MOL0     C 2484   4.440   3.610   9.851 -0.1629  0.5474 -0.4736
  777MOL0     C 2485   4.582   3.590   9.838  0.3127  0.3860  0.7857
  777MOL0     C 2486   5.023   3.491   9.947  0.5298 -0.3122 -0.2349
  777MOL0     C 2487   5.060   3.567   9.836  0.0444  0.7826  0.2480
  777MOL0     C 2488   5.204   3.556   9.797  0.2196 -1.2641  0.1056
  777MOL0     C 2489   5.298   3.485   9.876 -1.0155 -0.2958  0.6980
  777MOL0     O 2490   5.437   3.495   9.856 -0.3130 -0.0782 -0.0842
  777MOL0     C 2491   5.488   3.564   9.735 -0.9288  0.2938 -0.3673
  777MOL0     C 2492   5.646   3.549   9.743  0.3878 -0.6483  0.6628
  777MOL0     C 2493   5.687   3.400   9.734  0.8277 -0.7276 -0.3927
  777MOL0     C 2494   5.842   3.401   9.712 -0.2245 -0.2482  0.3765
  777MOL0     C 2495   5.879   3.417   9.574 -0.7131  0.1969 -0.4341
  777MOL0     C 2496   5.923   3.419   9.461  0.5374  0.0227  0.0627
  777MOL0     C 2497   5.246   3.408   9.977  0.5219  0.5863 -0.0014
  777MOL0     C 2498   5.114   3.410  10.010  0.1287  0.7950  0.7958
  777MOL0     H 2499   4.685   3.636  10.159  0.7851 -0.2411 -0.3197
  777MOL0     H 2500   4.415   3.664  10.183 -2.0948  1.2031 -0.5953
  777MOL0     H 2501   4.101   3.544   9.896 -2.1580  0.3911 -0.1227
  777MOL0     H 2502   4.191   3.648   9.797 -0.4140 -1.3864 -0.1956
  777MOL0     H 2503   4.082   3.842   9.920  1.4129 -0.4105  0.4674
  777MOL0     H 2504   4.012   3.725  10.028  2.3920  0.8348  0.8256
  777MOL0     H 2505   3.844   3.673   9.822 -1.4447  1.2076 -0.4265
  777MOL0     H 2506   3.959   3.754   9.719  0.1396  3.5149  0.3082
  777MOL0     H 2507   3.807   3.846   9.957 -1.4378  0.6868 -0.9219
  777MOL0     H 2508   3.911   3.964   9.854 -1.9641  1.7494 -1.5936
  777MOL0     H 2509   3.661   3.818   9.757  1.6585 -1.0197  1.7709
  777MOL0     H 2510   3.765   3.936   9.672 -1.5575  0.5783  0.1534
  777MOL0     H 2511   3.707   4.084   9.883 -1.6350  1.4158 -0.7638
  777MOL0     H 2512   3.573   3.980   9.903  1.1760  3.7770  3.2743
  777MOL0     H 2513   3.514   4.171   9.753  0.5952  2.8608 -4.7580
  777MOL0     H 2514   3.659   4.147   9.661 -0.6429  1.4504  0.2929
  777MOL0     H 2515   3.556   3.940   9.562 -0.3088  0.3088 -1.3003
  777MOL0     H 2516   3.481   4.096   9.533 -3.2350 -0.0281  0.7148
  777MOL0     H 2517   3.256   4.166   9.615 -0.9529 -0.4278 -1.5553
  777MOL0     H 2518   3.002   4.137   9.701  0.6267  0.2940  0.3873
  777MOL0     H 2519   2.991   4.025   9.838 -1.9482 -0.4801 -0.8871
  777MOL0     H 2520   2.945   3.846   9.660  1.4689 -0.1574  0.8275
  777MOL0     H 2521   2.940   3.986   9.554  0.5002  1.3147  1.1127
  777MOL0     H 2522   2.789   4.060   9.780 -0.7005  1.8288  0.4422
  777MOL0     H 2523   2.709   4.034   9.619 -1.7793 -0.4572  1.6917
  777MOL0     H 2524   2.776   3.827   9.833  1.1724  0.2810 -0.1745
  777MOL0     H 2525   2.690   3.799   9.675  1.0270 -0.9401  1.3767
  777MOL0     H 2526   2.553   3.887   9.545 -0.9708  0.2064 -1.0479
  777MOL0     H 2527   2.350   3.926   9.431  0.9465 -1.2129 -0.5845
  777MOL0     H 2528   1.836   4.157   9.749  1.9044 -0.4649 -0.8588
  777MOL0     H 2529   1.595   4.228   9.682  0.7733  0.5937 -1.1890
  777MOL0     H 2530   1.393   4.014   9.352 -0.4057  0.0814 -0.3212
  777MOL0     H 2531   1.461   4.147   9.258 -0.9142 -1.0874 -1.4093
  777MOL0     H 2532   1.213   4.166   9.241 -2.3253 -0.4792  1.2936
  777MOL0     H 2533   1.281   4.296   9.325 -1.5196  0.1964 -2.5002
  777MOL0     H 2534   1.238   4.178   9.546  0.5032 -3.5918  0.7924
  777MOL0     H 2535   1.186   4.042   9.455 -0.1729  0.6407  2.7804
  777MOL0     H 2536   1.051   4.316   9.391 -2.7261 -0.9758 -0.6276
  777MOL0     H 2537   1.001   4.149   9.376  1.0253 -0.2526 -0.4113
  777MOL0     H 2538   0.859   4.232   9.536 -0.2999  0.6630  1.5083
  777MOL0     H 2539   0.994   4.324   9.615 -0.2725  0.1049  0.0543
  777MOL0     H 2540   1.092   4.132   9.702  0.2954 -0.9527  1.3287
  777MOL0     H 2541   0.972   4.033   9.604 -0.3127  0.8329  0.2739
  777MOL0     H 2542   0.938   4.083   9.870 -1.2827  2.0508  1.4553
  777MOL0     H 2543   0.880   4.237   9.817 -0.6243 -0.7466  1.2724
  777MOL0     H 2544   0.778   3.959   9.749  1.9226  0.5527 -1.4366
  777MOL0     H 2545   0.723   4.110   9.658  0.8107  1.5380  0.1455
  777MOL0     H 2546   1.621   4.013   9.323 -1.1081 -1.3632  0.6749
  777MOL0     H 2547   1.854   3.938   9.390 -0.9841  1.8297 -1.3638
  777MOL0     H 2548   2.135   3.990   9.797 -0.7402 -0.7575  0.3423
  777MOL0     H 2549   2.349   3.993   9.906 -1.5300 -0.0798  0.3150
  777MOL0     H 2550   4.383   3.618   9.759 -2.1990  1.4686  0.7923
  777MOL0     H 2551   4.628   3.555   9.746  2.9890 -1.6153  2.7376
  777MOL0     H 2552   4.996   3.643   9.794 -1.2075  0.2337  1.1033
  777MOL0     H 2553   5.237   3.617   9.714  1.6065 -3.9932 -1.4772
  777MOL0     H 2554   5.476   3.673   9.736  2.7880  0.8560 -0.0076
  777MOL0     H 2555   5.461   3.513   9.643  0.2901 -0.5711 -0.2779
  777MOL0     H 2556   5.680   3.613   9.661 -3.7395  1.6815  0.5274
  777MOL0     H 2557   5.679   3.598   9.835 -2.2859  0.5042  1.0846
  777MOL0     H 2558   5.635   3.352   9.650  0.8823 -0.3456 -0.6489
  777MOL0     H 2559   5.669   3.339   9.822 -0.2098  0.8365  0.5381
  777MOL0     H 2560   5.883   3.484   9.771  1.2731 -0.3721 -0.4450
  777MOL0     H 2561   5.900   3.314   9.743  1.9936  0.7577 -0.7208
  777MOL0     H 2562   5.955   3.447   9.362  0.9151  1.7596  0.6409
  777MOL0     H 2563   5.313   3.348  10.038 -1.0018 -1.1371  0.0644
  777MOL0     H 2564   5.075   3.360  10.098 -3.3359 -0.1079 -1.0875
  778MOL0     O 2565   7.644   1.837   0.132  0.2470 -0.3774 -0.0045
  778MOL0     C 2566   7.668   1.909   0.036  0.1675 -1.1879 -0.2167
  778MOL0     O 2567   7.584   1.959  -0.053 -0.1201  0.0442  0.3955
  778MOL0     C 2568   7.453   1.936  -0.042  0.0314  0.3242  0.6003
  778MOL0     C 2569   7.391   1.928  -0.166  0.4859 -0.0523 -0.1855
  778MOL0     C 2570   7.253   1.902  -0.175  0.1704 -0.4854 -0.3761
  778MOL0     C 2571   7.184   1.894  -0.055 -0.1061 -0.9836 -0.1796
  778MOL0     O 2572   7.046   1.892  -0.050 -0.4566  0.3197 -0.0451
  778MOL0     C 2573   6.964   1.810  -0.139  0.6354 -0.3123  0.5884
  778MOL0     C 2574   6.862   1.889  -0.228 -0.2566  0.1405 -0.4651
  778MOL0     C 2575   6.773   1.792  -0.295 -0.1818  0.4402 -0.0148
  778MOL0     C 2576   6.688   1.876  -0.385 -0.9388  0.4396  0.1388
  778MOL0     C 2577   6.584   1.796  -0.469 -0.5652  0.0820 -1.0800
  778MOL0     C 2578   6.493   1.888  -0.551  0.9133  0.6967 -0.1109
  778MOL0     C 2579   6.380   1.827  -0.639  0.3635 -0.0116  0.6869
  778MOL0     C 2580   6.431   1.726  -0.744  0.0142  0.4315  0.0713
  778MOL0     N 2581   6.324   1.690  -0.846 -0.0490  0.6575 -0.4470
  778MOL0     C 2582   6.194   1.665  -0.820 -0.9673 -0.3863 -0.4891
  778MOL0     C 2583   6.128   1.652  -0.937 -1.1030  0.4316  0.6615
  778MOL0     C 2584   5.975   1.631  -0.945  0.4212  0.0692  0.3947
  778MOL0     C 2585   5.912   1.707  -1.057 -0.3666 -0.4435 -0.7205
  778MOL0     C 2586   5.818   1.622  -1.137 -0.7328  0.3835 -0.2728
  778MOL0     C 2587   5.682   1.618  -1.076  0.0720  0.6551 -1.2078
  778MOL0     O 2588   5.593   1.552  -1.168  0.2046 -0.0818 -0.0819
  778MOL0     C 2589   5.465   1.524  -1.127  0.3479 -0.2318  0.5413
  778MOL0     C 2590   5.399   1.577  -1.014 -0.1661 -0.8540 -0.0763
  778MOL0     C 2591   5.262   1.545  -0.980 -0.2195 -0.4303 -0.3405
  778MOL0     C 2592   5.192   1.453  -1.054 -0.9971  0.0078 -0.0959
  778MOL0     C 2593   5.058   1.404  -1.020 -0.0701  0.2807  0.0485
  778MOL0     O 2594   5.000   1.312  -1.104  0.7819  0.1372  0.0980
  778MOL0     C 2595   4.879   1.252  -1.070  0.2706 -0.1121  0.4798
  778MOL0     C 2596   4.759   1.325  -1.038  0.1334 -0.4608 -0.5660
  778MOL0     C 2597   4.645   1.261  -1.002 -0.1888 -1.0847  0.1948
  778MOL0     C 2598   4.631   1.124  -0.994  0.5823  0.4286  0.2000
  778MOL0     O 2599   4.512   1.074  -0.959 -0.3550 -0.0305 -0.5669
  778MOL0     C 2600   4.498   0.936  -0.924 -0.4534 -0.3320 -0.1390
  778MOL0     C 2601   4.342   0.906  -0.934 -0.7596  0.0845 -0.1228
  778MOL0     C 2602   4.305   0.757  -0.927  0.7014  0.4204 -0.3445
  778MOL0     C 2603   4.152   0.748  -0.943 -0.4804  0.8395  0.4428
  778MOL0     C 2604   4.104   0.607  -0.997 -0.2614  0.1321  0.0519
  778MOL0     C 2605   3.945   0.607  -0.999  0.0949 -0.5374 -0.6260
  778MOL0     C 2606   3.899   0.465  -1.026 -0.2534  0.5874 -0.0834
  778MOL0     C 2607   3.746   0.462  -1.066  0.5350 -0.4864 -0.1365
  778MOL0    Cl 2608   3.646   0.592  -0.985 -0.0939 -0.3073  0.3894
  778MOL0     C 2609   4.748   1.052  -1.019 -0.3535  0.5627  0.0254
  778MOL0     C 2610   4.868   1.118  -1.055  0.0278  1.2684 -0.7443
  778MOL0     O 2611   5.010   1.447  -0.917 -0.1704 -0.1001 -0.2490
  778MOL0     C 2612   5.257   1.398  -1.170  0.6170  0.3862  0.6680
  778MOL0     C 2613   5.386   1.434  -1.209 -0.5790 -0.8848  0.0633
  778MOL0     N 2614   6.226   1.666  -1.038  0.2345 -0.2060 -0.4926
  778MOL0     N 2615   6.341   1.690  -0.979  0.1300 -0.3508  0.0478
  778MOL0     C 2616   7.241   1.921   0.070  0.0705 -0.0552  0.7840
  778MOL0     C 2617   7.375   1.943   0.075  0.1759 -0.3173 -0.3212
  778MOL0     C 2618   7.803   1.964   0.029 -0.8134 -0.4623  0.3457
  778MOL0     C 2619   7.900   1.951   0.131  1.0433 -0.6131 -0.5179
  778MOL0     C 2620   8.031   2.011   0.115  0.5085 -0.1007  0.3558
  778MOL0     C 2621   8.060   2.088  -0.001 -0.0088  0.8862  0.1741
  778MOL0     O 2622   8.177   2.158  -0.022  0.3326  0.4215  0.4186
  778MOL0     C 2623   8.277   2.168   0.082  0.5489 -0.2661  0.3564
  778MOL0     C 2624   8.415   2.128   0.013 -0.0516 -0.0035 -0.5238
  778MOL0     C 2625   8.452   2.246  -0.080 -0.2674 -0.1688  0.3842
  778MOL0     C 2626   8.599   2.265  -0.119  1.1388  0.4364  0.1377
  778MOL0     C 2627   8.620   2.385  -0.201 -0.4513  0.0623 -0.4221
  778MOL0     C 2628   8.614   2.481  -0.274  0.8587 -0.5993 -0.9409
  778MOL0     C 2629   7.962   2.098  -0.099  0.3019 -0.0268 -0.4949
  778MOL0     C 2630   7.840   2.046  -0.079 -0.2056  0.1820  0.1513
  778MOL0     H 2631   7.459   1.946  -0.249  1.6091 -0.2780  0.6538
  778MOL0     H 2632   7.193   1.894  -0.266 -2.2356  0.4661  1.0311
  778MOL0     H 2633   6.920   1.737  -0.071  1.4142  0.2719  1.7555
  778MOL0     H 2634   7.027   1.758  -0.212 -0.1851  2.2909 -2.2016
  778MOL0     H 2635   6.917   1.944  -0.306 -0.6553  0.1705 -0.7265
  778MOL0     H 2636   6.816   1.959  -0.158  0.0394  1.6999 -1.7556
  778MOL0     H 2637   6.713   1.727  -0.230  1.7599  0.6739  2.1682
  778MOL0     H 2638   6.832   1.716  -0.348  1.0246 -0.4772  2.4642
  778MOL0     H 2639   6.631   1.947  -0.325 -0.7012  1.9026 -1.2975
  778MOL0     H 2640   6.747   1.931  -0.459 -2.1432  0.2235 -1.0234
  778MOL0     H 2641   6.520   1.746  -0.396  0.6420  1.2335  0.8538
  778MOL0     H 2642   6.635   1.725  -0.534  0.4787 -2.1606  1.9596
  778MOL0     H 2643   6.559   1.938  -0.621 -0.4938  0.8491 -1.3849
  778MOL0     H 2644   6.446   1.960  -0.484  0.0218  1.7981 -1.8614
  778MOL0     H 2645   6.308   1.776  -0.575  2.0003 -3.9332 -0.3200
  778MOL0     H 2646   6.336   1.911  -0.694  1.9887  0.4661  0.0397
  778MOL0     H 2647   6.458   1.635  -0.689 -0.1475  0.9925  1.1105
  778MOL0     H 2648   6.529   1.757  -0.782  1.3360  0.9509  3.4518
  778MOL0     H 2649   6.156   1.658  -0.718 -1.2434 -0.9153 -0.6265
  778MOL0     H 2650   5.927   1.669  -0.854 -1.6683  2.5550 -1.6291
  778MOL0     H 2651   5.956   1.525  -0.964  0.3653 -0.7186  4.0456
  778MOL0     H 2652   5.982   1.748  -1.129  0.3013 -0.1210  0.0961
  778MOL0     H 2653   5.858   1.793  -1.015  0.7105  0.2712 -0.7699
  778MOL0     H 2654   5.803   1.667  -1.236  1.5826 -1.0302 -1.3651
  778MOL0     H 2655   5.851   1.520  -1.157 -0.8330  0.0097  1.3618
  778MOL0     H 2656   5.633   1.715  -1.065  1.3483  1.3609 -1.6184
  778MOL0     H 2657   5.685   1.569  -0.978  3.0941  0.1696 -1.4514
  778MOL0     H 2658   5.439   1.658  -0.954  0.0906 -1.0684  0.0416
  778MOL0     H 2659   5.218   1.586  -0.889  0.7680 -2.2680  1.0436
  778MOL0     H 2660   4.764   1.434  -1.032  2.8871 -0.4878 -1.1386
  778MOL0     H 2661   4.574   1.344  -1.001  3.9894  3.0031 -2.0547
  778MOL0     H 2662   4.545   0.929  -0.825  0.1720  2.2972 -0.1717
  778MOL0     H 2663   4.544   0.870  -0.998 -1.2486  0.4760 -1.3881
  778MOL0     H 2664   4.299   0.941  -1.028  0.4613 -0.9113 -1.1011
  778MOL0     H 2665   4.299   0.951  -0.844  1.0831 -0.5146  1.1352
  778MOL0     H 2666   4.335   0.708  -0.834  1.0324  0.4317 -0.4448
  778MOL0     H 2667   4.356   0.703  -1.007  1.1194 -1.2958  1.0100
  778MOL0     H 2668   4.112   0.771  -0.843 -0.0945  0.9538  0.5723
  778MOL0     H 2669   4.108   0.826  -1.006 -3.0791 -1.4318 -0.7365
  778MOL0     H 2670   4.133   0.533  -0.923  1.2885  3.6076  3.2896
  778MOL0     H 2671   4.144   0.580  -1.095  1.3060 -0.7218  0.8999
  778MOL0     H 2672   3.908   0.681  -1.070 -1.3905 -0.4291  0.2203
  778MOL0     H 2673   3.902   0.637  -0.903 -0.3564  1.4788 -1.3991
  778MOL0     H 2674   3.968   0.413  -1.092  3.6100  0.8052  3.3728
  778MOL0     H 2675   3.897   0.412  -0.931 -0.1569 -0.4783 -0.6669
  778MOL0     H 2676   3.704   0.365  -1.038 -0.3882 -0.2071 -0.5144
  778MOL0     H 2677   3.739   0.483  -1.173  1.3467  1.9425  0.2346
  778MOL0     H 2678   4.757   0.945  -1.003  0.3520  0.6727  0.3992
  778MOL0     H 2679   4.948   1.050  -1.083  0.2342  1.2336 -0.0924
  778MOL0     H 2680   5.206   1.330  -1.238  0.9465 -0.3484  1.1473
  778MOL0     H 2681   5.423   1.395  -1.304  1.4358  0.5821  0.1836
  778MOL0     H 2682   7.174   1.931   0.154  1.8209  2.4821  2.0005
  778MOL0     H 2683   7.414   1.974   0.172  3.4016  0.1141 -1.6338
  778MOL0     H 2684   7.880   1.901   0.225 -3.9515  1.2932 -0.2605
  778MOL0     H 2685   8.098   2.012   0.200 -2.3441  1.8378  2.7674
  778MOL0     H 2686   8.276   2.097   0.165  0.2192 -2.2042 -1.2457
  778MOL0     H 2687   8.284   2.274   0.108 -0.5700 -0.2878  0.7979
  778MOL0     H 2688   8.492   2.119   0.091  1.1050 -2.5149 -1.8279
  778MOL0     H 2689   8.409   2.030  -0.035 -2.7081  0.2024 -0.7817
  778MOL0     H 2690   8.434   2.339  -0.025  2.3428 -0.1706  1.4336
  778MOL0     H 2691   8.394   2.246  -0.173 -1.0554  2.2616  0.7978
  778MOL0     H 2692   8.656   2.271  -0.026  1.8698 -2.9952  0.0333
  778MOL0     H 2693   8.636   2.175  -0.170 -3.2036  0.3365 -3.4602
  778MOL0     H 2694   8.607   2.563  -0.342 -0.8217  2.1010  2.1561
  778MOL0     H 2695   7.976   2.162  -0.186  1.9344  0.9267  0.4261
  778MOL0     H 2696   7.769   2.076  -0.156  0.3905  2.5252  0.4237
  779MOL0     O 2697   1.958   4.906   6.040 -0.3114  0.0962  0.5818
  779MOL0     C 2698   1.967   4.789   6.004 -0.9699  0.3141  0.5272
  779MOL0     O 2699   1.874   4.691   6.010  0.2756  0.2326 -0.3747
  779MOL0     C 2700   1.748   4.734   6.034 -0.2605 -0.1213 -0.1996
  779MOL0     C 2701   1.693   4.725   6.162 -0.0827  0.1060 -0.3633
  779MOL0     C 2702   1.562   4.778   6.176  0.0646  0.0587 -0.7351
  779MOL0     C 2703   1.493   4.841   6.072  0.4011  0.2764  0.4410
  779MOL0     O 2704   1.368   4.891   6.076  0.1714 -0.4498 -0.2091
  779MOL0     C 2705   1.293   4.901   6.201 -0.4117  0.2028  0.4505
  779MOL0     C 2706   1.174   4.982   6.168  0.2300  0.4330  0.1634
  779MOL0     C 2707   1.068   4.972   6.279 -0.5375  0.8783  0.5731
  779MOL0     C 2708   0.937   5.032   6.245  0.1854  0.5943 -0.3262
  779MOL0     C 2709   0.943   5.182   6.212 -0.0954  0.2663  0.0663
  779MOL0     C 2710   0.811   5.256   6.220 -0.3577  0.2549  0.8570
  779MOL0     C 2711   0.825   5.412   6.200 -0.0831 -0.4809 -0.0344
  779MOL0     C 2712   0.684   5.482   6.180  0.0295 -0.5558 -0.1859
  779MOL0     N 2713   0.710   5.611   6.115 -0.0423 -0.0399 -0.0928
  779MOL0     C 2714   0.756   5.720   6.181 -0.5892 -0.4445 -0.1192
  779MOL0     C 2715   0.782   5.817   6.088  0.2540  0.0632  1.3649
  779MOL0     C 2716   0.836   5.958   6.123 -0.5539 -0.1208  0.7380
  779MOL0     C 2717   0.715   6.049   6.147 -0.5899 -0.0624  1.0229
  779MOL0     C 2718   0.636   6.080   6.013 -0.5952  0.7476  0.1869
  779MOL0     C 2719   0.569   6.222   6.022 -0.2851  0.2225  0.2205
  779MOL0     O 2720   0.530   6.251   5.884  0.2921  0.1227 -0.0807
  779MOL0     C 2721   0.399   6.214   5.841 -0.1267  0.1757  0.1562
  779MOL0     C 2722   0.295   6.154   5.916  0.5870  0.9503 -0.3125
  779MOL0     C 2723   0.177   6.120   5.849  0.5533  0.2842  1.1363
  779MOL0     C 2724   0.153   6.141   5.717  0.2715 -0.3463  0.7911
  779MOL0     C 2725   0.025   6.102   5.647 -0.6579 -0.3934 -0.3660
  779MOL0     O 2726  -0.077   6.056   5.729 -0.7915 -0.5806  0.9160
  779MOL0     C 2727  -0.204   6.060   5.681 -0.4362  0.0050 -0.4811
  779MOL0     C 2728  -0.286   5.950   5.698  0.4433  0.0032  0.7788
  779MOL0     C 2729  -0.423   5.958   5.662  0.3346 -0.7037  0.2892
  779MOL0     C 2730  -0.473   6.078   5.613 -0.4375  0.4853 -0.0266
  779MOL0     O 2731  -0.606   6.085   5.587  0.4837  0.3890 -0.4972
  779MOL0     C 2732  -0.697   6.057   5.686 -0.5737 -1.1727 -0.8029
  779MOL0     C 2733  -0.720   6.171   5.793 -0.2848 -0.1616 -0.7794
  779MOL0     C 2734  -0.619   6.185   5.909 -0.2078  1.0533 -0.0691
  779MOL0     C 2735  -0.596   6.332   5.948 -0.0501 -0.0119 -0.4983
  779MOL0     C 2736  -0.480   6.347   6.051 -0.5411 -0.9447  0.7413
  779MOL0     C 2737  -0.524   6.345   6.199  0.3637 -1.0256  0.8360
  779MOL0     C 2738  -0.408   6.293   6.279 -0.4471  0.2503 -0.2190
  779MOL0     C 2739  -0.287   6.377   6.324  0.5610  0.8986  0.5950
  779MOL0    Cl 2740  -0.357   6.490   6.431  0.3436  0.2506  0.1942
  779MOL0     C 2741  -0.387   6.184   5.585  0.6577  0.8209 -0.2258
  779MOL0     C 2742  -0.259   6.180   5.638 -0.7080 -0.4657  1.0863
  779MOL0     O 2743   0.022   6.119   5.529  0.0264 -0.1377  0.3610
  779MOL0     C 2744   0.264   6.201   5.644 -0.3094 -0.2599  0.5015
  779MOL0     C 2745   0.379   6.234   5.706  0.0732  0.3168 -0.6546
  779MOL0     N 2746   0.757   5.760   5.963  0.2080 -0.0628 -0.0093
  779MOL0     N 2747   0.712   5.639   5.979 -0.5631  0.2888  0.0901
  779MOL0     C 2748   1.556   4.841   5.954 -0.5096 -0.4274 -0.1457
  779MOL0     C 2749   1.684   4.800   5.932 -0.7000  0.0296  0.2890
  779MOL0     C 2750   2.102   4.744   5.980 -0.1567 -1.0058  0.3762
  779MOL0     C 2751   2.142   4.674   5.865 -0.2044  1.1419 -0.2320
  779MOL0     C 2752   2.277   4.626   5.846 -0.5556 -0.6273 -0.2729
  779MOL0     C 2753   2.374   4.648   5.943  0.0127 -0.5482  0.4546
  779MOL0     O 2754   2.505   4.626   5.918  0.2627  0.1270  0.1692
  779MOL0     C 2755   2.542   4.484   5.914  0.0843 -0.4506 -0.1232
  779MOL0     C 2756   2.686   4.481   5.937  0.3004 -0.5335 -0.0071
  779MOL0     C 2757   2.758   4.353   5.919  0.5291  0.7850  0.5164
  779MOL0     C 2758   2.901   4.342   5.980 -0.6340 -0.2894  0.4933
  779MOL0     C 2759   2.998   4.400   5.883 -0.5266 -0.1636  0.0964
  779MOL0     C 2760   3.091   4.451   5.824  0.7727 -0.1695  0.7890
  779MOL0     C 2761   2.336   4.715   6.062 -0.4893  0.7710  0.0493
  779MOL0     C 2762   2.204   4.770   6.076 -0.7376 -0.4353 -0.0702
  779MOL0     H 2763   1.734   4.695   6.257 -0.5822  3.3009  1.0040
  779MOL0     H 2764   1.520   4.773   6.276 -1.4813  0.5950 -1.3226
  779MOL0     H 2765   1.351   4.953   6.277  0.8019 -0.1637 -0.1865
  779MOL0     H 2766   1.271   4.799   6.235 -0.5353 -0.0770 -0.4291
  779MOL0     H 2767   1.134   4.958   6.069 -0.3761 -0.3733  0.5864
  779MOL0     H 2768   1.196   5.089   6.173  1.0023  0.2255  2.2792
  779MOL0     H 2769   1.108   5.005   6.375 -1.6807 -0.3736  1.5237
  779MOL0     H 2770   1.059   4.863   6.283 -0.8065  0.7084 -2.3038
  779MOL0     H 2771   0.895   4.981   6.158  2.1018  0.3744 -1.1687
  779MOL0     H 2772   0.867   5.017   6.328 -1.4041  2.0593 -1.3217
  779MOL0     H 2773   0.990   5.183   6.114 -3.2917  0.7878 -1.5952
  779MOL0     H 2774   1.016   5.215   6.287  0.4154  1.7571 -1.0374
  779MOL0     H 2775   0.771   5.241   6.321 -0.1945 -1.0171  0.7485
  779MOL0     H 2776   0.749   5.212   6.142  0.6943  1.2796 -0.6174
  779MOL0     H 2777   0.871   5.448   6.292 -0.0745 -3.3479  1.1954
  779MOL0     H 2778   0.897   5.426   6.118  1.3190 -1.0126  1.0613
  779MOL0     H 2779   0.634   5.500   6.276 -0.7856 -0.2506 -0.6565
  779MOL0     H 2780   0.617   5.418   6.122  0.3209 -1.8142  0.7930
  779MOL0     H 2781   0.759   5.741   6.288  1.1749 -1.0021 -0.0225
  779MOL0     H 2782   0.907   5.998   6.050  0.1014 -0.1962  1.3237
  779MOL0     H 2783   0.894   5.955   6.215 -0.3332  2.1307  0.7434
  779MOL0     H 2784   0.759   6.144   6.180 -2.1091  1.1110 -0.1595
  779MOL0     H 2785   0.659   6.011   6.232  0.4452  0.2649  1.8707
  779MOL0     H 2786   0.707   6.063   5.932 -1.6952  0.7026 -0.7893
  779MOL0     H 2787   0.565   5.996   6.009 -0.7169  0.6640  2.6146
  779MOL0     H 2788   0.629   6.302   6.066 -0.8045  0.5759  0.2928
  779MOL0     H 2789   0.476   6.215   6.080 -1.7324  1.4966 -1.7838
  779MOL0     H 2790   0.304   6.138   6.023 -0.1678 -1.2497 -0.5186
  779MOL0     H 2791   0.092   6.078   5.903 -0.3462  1.5184  0.7302
  779MOL0     H 2792  -0.237   5.867   5.749  1.7380  0.1560 -0.1695
  779MOL0     H 2793  -0.475   5.867   5.693 -0.1994 -0.0094  1.4964
  779MOL0     H 2794  -0.679   5.961   5.736  1.7400 -0.5446 -0.2675
  779MOL0     H 2795  -0.791   6.030   5.638 -0.3115  1.3056 -2.8965
  779MOL0     H 2796  -0.818   6.165   5.842 -1.0439  3.7284 -1.4807
  779MOL0     H 2797  -0.715   6.267   5.742 -0.5063  1.4258  1.9983
  779MOL0     H 2798  -0.520   6.146   5.882 -0.2944  1.7435 -1.4074
  779MOL0     H 2799  -0.654   6.135   6.001 -0.0300 -0.9820 -1.0455
  779MOL0     H 2800  -0.575   6.389   5.857 -2.3738 -1.9212 -2.3844
  779MOL0     H 2801  -0.693   6.364   5.989 -0.4127 -0.4466 -0.9954
  779MOL0     H 2802  -0.450   6.452   6.043  1.6640 -1.6133 -0.9663
  779MOL0     H 2803  -0.394   6.283   6.029  0.1192 -0.3050  1.3863
  779MOL0     H 2804  -0.600   6.266   6.199 -1.7676  0.8477 -1.6430
  779MOL0     H 2805  -0.554   6.445   6.229  3.2907  0.4387 -0.6968
  779MOL0     H 2806  -0.446   6.247   6.371 -2.1923  0.0671 -0.9894
  779MOL0     H 2807  -0.366   6.206   6.228  0.3738  0.0596  0.7542
  779MOL0     H 2808  -0.251   6.413   6.227 -0.9288 -2.0153 -1.1925
  779MOL0     H 2809  -0.206   6.316   6.365  0.2659 -0.3041 -0.5273
  779MOL0     H 2810  -0.440   6.262   5.530 -2.6950  0.3253  1.9780
  779MOL0     H 2811  -0.200   6.271   5.637  0.0666 -0.9416  1.7740
  779MOL0     H 2812   0.256   6.221   5.537 -0.3150 -0.9201  0.3732
  779MOL0     H 2813   0.456   6.286   5.649 -0.9023  1.4162 -1.0179
  779MOL0     H 2814   1.502   4.895   5.877 -1.7302  1.5302  1.9429
  779MOL0     H 2815   1.731   4.815   5.835  3.8042 -0.4470  2.1371
  779MOL0     H 2816   2.082   4.645   5.779  0.3611  2.7660 -1.2186
  779MOL0     H 2817   2.292   4.567   5.756 -1.8191  0.5541 -1.3156
  779MOL0     H 2818   2.521   4.439   5.817  0.2178  0.9239 -0.8171
  779MOL0     H 2819   2.491   4.433   5.996 -0.3735 -0.7256 -0.5754
  779MOL0     H 2820   2.736   4.561   5.881  1.1242 -0.4361  0.8525
  779MOL0     H 2821   2.699   4.501   6.044  1.1211 -1.9973  0.1896
  779MOL0     H 2822   2.755   4.319   5.815 -0.4778 -0.1810  0.8456
  779MOL0     H 2823   2.700   4.278   5.973  2.0301 -0.3395  0.6653
  779MOL0     H 2824   2.921   4.407   6.066 -1.3017 -0.7735  1.0179
  779MOL0     H 2825   2.931   4.238   5.997 -3.3795 -1.8422 -2.9735
  779MOL0     H 2826   3.172   4.495   5.769  0.3077 -0.2417  0.0338
  779MOL0     H 2827   2.408   4.725   6.143  0.6764 -1.1320 -0.6845
  779MOL0     H 2828   2.188   4.828   6.167  1.2491  0.7014 -0.4046
  780MOL0     O 2829   5.006   4.167   6.626 -0.0386 -0.1271 -0.5435
  780MOL0     C 2830   5.053   4.179   6.519 -0.2972 -0.9984  0.5055
  780MOL0     O 2831   4.990   4.197   6.402  0.6256  0.7315  0.4929
  780MOL0     C 2832   4.854   4.191   6.419  0.6177 -0.9882  0.7035
  780MOL0     C 2833   4.781   4.310   6.425 -0.0716  0.7755 -0.1506
  780MOL0     C 2834   4.641   4.299   6.435 -0.3613 -0.2389 -0.2434
  780MOL0     C 2835   4.573   4.177   6.430 -0.0834  0.4407  0.3050
  780MOL0     O 2836   4.435   4.174   6.437  0.2953  0.6577 -0.3078
  780MOL0     C 2837   4.378   4.046   6.411  0.0061 -0.0616 -0.3772
  780MOL0     C 2838   4.223   4.060   6.416 -0.4074  0.1197 -0.6242
  780MOL0     C 2839   4.159   3.938   6.367  0.9900 -0.2733  0.0653
  780MOL0     C 2840   4.012   3.966   6.393 -0.2589 -0.0670  1.0742
  780MOL0     C 2841   3.926   3.838   6.371 -0.5006  0.4138  0.1910
  780MOL0     C 2842   3.782   3.873   6.423  0.5730  0.0286  0.6336
  780MOL0     C 2843   3.692   3.756   6.374 -0.3224 -0.0837  0.4282
  780MOL0     C 2844   3.539   3.766   6.398  0.0822 -0.1277  0.5024
  780MOL0     N 2845   3.467   3.852   6.304  0.1404 -0.3229  0.1907
  780MOL0     C 2846   3.467   3.987   6.319 -0.7118 -0.1132  0.6655
  780MOL0     C 2847   3.422   4.034   6.199 -0.0597  0.0400 -1.2150
  780MOL0     C 2848   3.419   4.183   6.180  0.2979  0.1964  0.6307
  780MOL0     C 2849   3.278   4.233   6.162 -0.7087 -0.1993 -0.4251
  780MOL0     C 2850   3.216   4.255   6.307  0.0790  0.2323  0.3587
  780MOL0     C 2851   3.101   4.362   6.314 -0.8322 -0.4157  0.4019
  780MOL0     O 2852   3.058   4.362   6.454  0.1216 -0.4463  0.3281
  780MOL0     C 2853   2.952   4.444   6.482 -0.0618  0.0565  0.5303
  780MOL0     C 2854   2.869   4.501   6.383 -0.2714  0.1252  0.5060
  780MOL0     C 2855   2.756   4.574   6.422 -1.5095  0.3257 -0.9995
  780MOL0     C 2856   2.722   4.593   6.553 -0.2851  0.2752 -1.0864
  780MOL0     C 2857   2.600   4.668   6.586  0.1273  0.4693 -0.4256
  780MOL0     O 2858   2.588   4.711   6.716  0.0266 -0.0279 -0.2598
  780MOL0     C 2859   2.526   4.832   6.735 -0.0467  0.2511  0.8314
  780MOL0     C 2860   2.413   4.837   6.810  0.1105 -0.4039  0.2379
  780MOL0     C 2861   2.340   4.953   6.824  0.2465 -0.2040 -0.1206
  780MOL0     C 2862   2.384   5.070   6.775  1.0914  0.4852 -0.2663
  780MOL0     O 2863   2.326   5.196   6.784 -0.1403  0.7062 -0.4128
  780MOL0     C 2864   2.223   5.214   6.882 -0.3073 -0.2416  0.3200
  780MOL0     C 2865   2.183   5.362   6.890 -0.1085 -0.3905 -0.1947
  780MOL0     C 2866   2.152   5.422   6.747 -0.0184  0.0198  0.0929
  780MOL0     C 2867   2.045   5.342   6.666 -0.3873  0.8349 -0.3860
  780MOL0     C 2868   1.902   5.325   6.746 -0.0627 -0.2443 -0.3669
  780MOL0     C 2869   1.834   5.459   6.794 -1.1432  0.1439 -0.2141
  780MOL0     C 2870   1.686   5.460   6.797  0.3861  0.3340 -0.1441
  780MOL0     C 2871   1.629   5.347   6.878  0.3865  0.0939 -0.5609
  780MOL0    Cl 2872   1.448   5.367   6.868 -0.3089  0.0066  0.2536
  780MOL0     C 2873   2.512   5.074   6.715 -0.8052  0.2270  0.5362
  780MOL0     C 2874   2.579   4.949   6.690  0.0947  0.1199  0.2353
  780MOL0     O 2875   2.525   4.699   6.496  0.7421 -0.3397 -0.1483
  780MOL0     C 2876   2.812   4.534   6.650  0.6207  0.1593  0.3389
  780MOL0     C 2877   2.929   4.462   6.608  0.7977 -0.3685 -0.1457
  780MOL0     N 2878   3.388   3.928   6.123 -0.9735  0.1928  0.5215
  780MOL0     N 2879   3.411   3.819   6.189  0.1110 -0.3979 -0.0043
  780MOL0     C 2880   4.655   4.062   6.429  0.3572 -0.6743 -0.7481
  780MOL0     C 2881   4.790   4.073   6.432 -0.4142 -0.2331 -0.0684
  780MOL0     C 2882   5.194   4.159   6.507 -0.5573  0.3303  0.4303
  780MOL0     C 2883   5.265   4.189   6.380 -0.1117  0.4189 -0.3061
  780MOL0     C 2884   5.403   4.179   6.372 -0.8379 -0.4155 -0.4761
  780MOL0     C 2885   5.467   4.111   6.480  0.7299  0.4209  0.1744
  780MOL0     O 2886   5.595   4.073   6.480 -0.0620 -0.3402  0.0183
  780MOL0     C 2887   5.673   4.093   6.362 -0.1838 -0.3174 -0.3398
  780MOL0     C 2888   5.807   4.015   6.370  0.8794  0.3883  0.0772
  780MOL0     C 2889   5.895   4.061   6.489  0.1379  0.4144  0.1875
  780MOL0     C 2890   6.011   3.964   6.507 -0.1890  0.1093  0.2505
  780MOL0     C 2891   5.962   3.834   6.556 -0.4018  0.2226 -0.2420
  780MOL0     C 2892   5.925   3.726   6.595  0.5239 -0.3941  0.2396
  780MOL0     C 2893   5.399   4.081   6.597 -0.4197 -0.1784 -0.0091
  780MOL0     C 2894   5.266   4.112   6.608  0.0547  0.2859  0.2735
  780MOL0     H 2895   4.836   4.404   6.420 -0.1571  1.1894  3.7219
  780MOL0     H 2896   4.581   4.389   6.448 -2.7080 -1.6483 -0.7592
  780MOL0     H 2897   4.414   3.976   6.487  2.6937  2.5724  0.9754
  780MOL0     H 2898   4.420   4.018   6.313  0.1131 -0.2968 -0.2664
  780MOL0     H 2899   4.187   4.147   6.361 -0.2032  0.9257  0.4680
  780MOL0     H 2900   4.208   4.077   6.523  2.5093  3.8208 -0.5640
  780MOL0     H 2901   4.183   3.858   6.437  1.6847 -1.8748 -1.9002
  780MOL0     H 2902   4.193   3.915   6.265  2.0016 -2.2661  0.8031
  780MOL0     H 2903   3.997   4.006   6.494 -2.2258  3.2382 -0.3443
  780MOL0     H 2904   3.977   4.048   6.330 -2.6482 -1.7655  0.0755
  780MOL0     H 2905   3.971   3.758   6.431  1.7878  2.1068  0.8488
  780MOL0     H 2906   3.927   3.807   6.266 -0.0655 -0.1421  0.3531
  780MOL0     H 2907   3.748   3.967   6.380  0.6913 -0.2134  0.0063
  780MOL0     H 2908   3.792   3.889   6.531  1.2493 -0.3115  0.6291
  780MOL0     H 2909   3.718   3.732   6.271 -0.1082 -0.0852  0.4822
  780MOL0     H 2910   3.716   3.675   6.445 -2.4040  0.0049  1.3188
  780MOL0     H 2911   3.515   3.795   6.501  1.3325 -1.3928  1.1778
  780MOL0     H 2912   3.507   3.663   6.377  1.1767 -0.1248 -1.3304
  780MOL0     H 2913   3.495   4.045   6.407 -0.0055  1.2044 -0.3992
  780MOL0     H 2914   3.472   4.207   6.087 -0.5521 -0.4420 -0.0415
  780MOL0     H 2915   3.475   4.231   6.260  1.1174  0.4138 -0.0622
  780MOL0     H 2916   3.231   4.166   6.089 -1.2970  0.6494 -0.8420
  780MOL0     H 2917   3.280   4.324   6.101 -0.9740 -1.9842 -3.2782
  780MOL0     H 2918   3.177   4.160   6.346 -0.2281 -0.0128 -0.5173
  780MOL0     H 2919   3.296   4.266   6.381 -0.0174 -0.6184  0.6079
  780MOL0     H 2920   3.021   4.343   6.242  0.0366 -0.2305 -0.6411
  780MOL0     H 2921   3.142   4.463   6.299 -0.7418 -0.2704  1.5227
  780MOL0     H 2922   2.899   4.503   6.279  1.4831  1.9913  0.9789
  780MOL0     H 2923   2.705   4.630   6.344  0.8143  1.7979 -1.5754
  780MOL0     H 2924   2.377   4.747   6.860  0.3588 -0.4191  0.3912
  780MOL0     H 2925   2.262   4.960   6.899  1.1943  0.2089  0.8492
  780MOL0     H 2926   2.259   5.184   6.981  1.4973  1.3878  0.2243
  780MOL0     H 2927   2.139   5.157   6.842  1.8925 -1.4056 -3.0668
  780MOL0     H 2928   2.272   5.412   6.928  0.4334 -0.1412 -1.7063
  780MOL0     H 2929   2.094   5.381   6.950  0.4603 -0.5218  0.7079
  780MOL0     H 2930   2.236   5.432   6.678 -0.7074  1.0568 -0.6303
  780MOL0     H 2931   2.127   5.526   6.770  1.7423  0.2389  1.1141
  780MOL0     H 2932   2.023   5.390   6.571  1.7178  2.2584 -0.2249
  780MOL0     H 2933   2.090   5.245   6.643  2.0010  1.0299  2.7675
  780MOL0     H 2934   1.902   5.247   6.822 -1.2668 -0.0645 -0.1696
  780MOL0     H 2935   1.837   5.280   6.670  1.0053 -3.1611  0.2942
  780MOL0     H 2936   1.864   5.536   6.722 -1.3631 -1.6653 -2.3679
  780MOL0     H 2937   1.878   5.489   6.889 -0.6629  0.4226 -0.5210
  780MOL0     H 2938   1.643   5.550   6.842  0.6433  0.8138 -0.8384
  780MOL0     H 2939   1.649   5.457   6.695 -1.5238 -0.1971  0.5229
  780MOL0     H 2940   1.666   5.346   6.981 -0.7330 -0.2708 -0.1473
  780MOL0     H 2941   1.659   5.250   6.837  1.9949 -0.5139  1.8437
  780MOL0     H 2942   2.554   5.164   6.670 -0.6180  0.2353  0.7279
  780MOL0     H 2943   2.677   4.950   6.642  0.4310 -0.9160  0.8568
  780MOL0     H 2944   2.790   4.544   6.756  1.2646 -1.0821  0.6127
  780MOL0     H 2945   2.999   4.416   6.677  2.4919  0.8323 -0.9830
  780MOL0     H 2946   4.618   3.962   6.449 -0.5685  0.4492  4.6534
  780MOL0     H 2947   4.851   3.985   6.446  0.9153  0.5073 -0.9370
  780MOL0     H 2948   5.209   4.227   6.295 -1.6361  0.6459  0.7466
  780MOL0     H 2949   5.452   4.218   6.284 -2.4659 -1.6483 -2.0052
  780MOL0     H 2950   5.705   4.198   6.356 -0.7979 -0.0813  0.3307
  780MOL0     H 2951   5.627   4.057   6.270  0.3367  1.7215 -1.4682
  780MOL0     H 2952   5.777   3.910   6.379 -2.4679  1.2312 -0.1655
  780MOL0     H 2953   5.868   4.013   6.279 -0.6346 -0.2376 -0.9689
  780MOL0     H 2954   5.834   4.083   6.577  0.9550  0.2928  0.7907
  780MOL0     H 2955   5.936   4.161   6.469  0.0871  0.2663 -0.7209
  780MOL0     H 2956   6.063   3.954   6.411 -2.5146  1.8060 -1.2809
  780MOL0     H 2957   6.079   4.005   6.582  0.5149  0.6831 -0.6667
  780MOL0     H 2958   5.876   3.633   6.617  0.7225 -0.1299  1.8677
  780MOL0     H 2959   5.454   4.025   6.672 -0.4864  0.1866  0.3117
  780MOL0     H 2960   5.212   4.062   6.688 -0.3981 -1.0055 -0.7888
  781MOL0     O 2961   6.717   7.465   8.056  0.1550 -0.0234 -0.2077
  781MOL0     C 2962   6.766   7.360   8.096  0.2807 -0.2992  0.1272
  781MOL0     O 2963   6.691   7.258   8.155  0.8635  0.4003  0.5955
  781MOL0     C 2964   6.555   7.283   8.190  0.7353  0.4224 -0.4849
  781MOL0     C 2965   6.462   7.334   8.098 -1.0216 -0.0393  0.3400
  781MOL0     C 2966   6.329   7.360   8.136  0.3336  0.7196  0.0927
  781MOL0     C 2967   6.284   7.328   8.263  0.1101 -0.2415 -0.1079
  781MOL0     O 2968   6.157   7.333   8.306  0.6419 -0.1753  0.2226
  781MOL0     C 2969   6.050   7.318   8.206  0.0177  0.2431 -0.7641
  781MOL0     C 2970   5.915   7.304   8.283 -0.3093  0.3712 -0.1444
  781MOL0     C 2971   5.800   7.344   8.207  0.3665  0.1853  0.8976
  781MOL0     C 2972   5.681   7.373   8.294 -1.1532  0.3774  0.1188
  781MOL0     C 2973   5.543   7.381   8.218 -0.5274  0.6559  0.3457
  781MOL0     C 2974   5.429   7.410   8.315 -0.1310  0.0092 -0.0965
  781MOL0     C 2975   5.305   7.429   8.226  0.7977  0.1600 -1.2116
  781MOL0     C 2976   5.177   7.438   8.307  0.2993 -0.0796  0.3865
  781MOL0     N 2977   5.062   7.459   8.217  0.1136 -1.1809  0.1023
  781MOL0     C 2978   5.013   7.371   8.131  0.4541  0.1674 -0.3127
  781MOL0     C 2979   4.926   7.435   8.050  0.3213 -0.1368  0.8402
  781MOL0     C 2980   4.868   7.395   7.927  0.6020  2.0105  0.2401
  781MOL0     C 2981   4.797   7.254   7.940  0.4236  0.1573  0.5008
  781MOL0     C 2982   4.750   7.199   7.806  0.2730 -0.4860 -0.1102
  781MOL0     C 2983   4.860   7.130   7.726 -0.5855 -1.0619  0.1281
  781MOL0     O 2984   4.910   7.030   7.809 -0.4614  0.0304  0.5562
  781MOL0     C 2985   5.047   7.013   7.814  0.3203  0.7682  0.1232
  781MOL0     C 2986   5.103   7.001   7.939  0.0154  1.3421 -0.0988
  781MOL0     C 2987   5.243   6.982   7.958 -0.3999  0.1219 -0.7338
  781MOL0     C 2988   5.333   6.983   7.848  0.2172  0.7101 -0.5516
  781MOL0     C 2989   5.472   6.948   7.867  0.1006  0.5466  0.2172
  781MOL0     O 2990   5.528   6.985   7.989  0.5937 -0.4609 -0.3974
  781MOL0     C 2991   5.662   6.953   8.009  0.3090 -0.5074  0.0398
  781MOL0     C 2992   5.698   6.834   8.075  0.1162  0.6594  0.6399
  781MOL0     C 2993   5.834   6.793   8.087 -0.0910 -0.2454  0.7150
  781MOL0     C 2994   5.928   6.885   8.052 -0.0894 -0.8117  0.3971
  781MOL0     O 2995   6.056   6.866   8.096  0.8829  0.2971  0.4039
  781MOL0     C 2996   6.133   6.778   8.007 -0.3577 -0.4905 -0.2822
  781MOL0     C 2997   6.280   6.760   8.035 -0.1716 -0.4394  0.4315
  781MOL0     C 2998   6.350   6.894   7.987  0.9248 -0.1092 -0.3881
  781MOL0     C 2999   6.496   6.913   8.019  0.0455 -0.7990 -0.2265
  781MOL0     C 3000   6.589   6.856   7.918  0.1415 -0.2490  0.2415
  781MOL0     C 3001   6.735   6.840   7.981 -0.5735 -0.5837 -0.0307
  781MOL0     C 3002   6.837   6.762   7.888 -0.7269 -0.7990 -0.3432
  781MOL0     C 3003   6.972   6.729   7.954 -0.2613  0.1962 -0.4737
  781MOL0    Cl 3004   7.072   6.877   7.952  0.1266  0.1092  0.5148
  781MOL0     C 3005   5.901   6.999   7.977  0.2932  0.4744 -0.1192
  781MOL0     C 3006   5.768   7.039   7.956  0.0159  0.8999 -0.4155
  781MOL0     O 3007   5.537   6.897   7.776  0.3605 -0.4361  0.4580
  781MOL0     C 3008   5.277   7.007   7.724 -0.0604  0.1465  0.0157
  781MOL0     C 3009   5.141   7.020   7.709  0.0210 -0.3355 -0.4953
  781MOL0     N 3010   4.924   7.568   8.094  0.3565  0.2895 -0.4127
  781MOL0     N 3011   5.000   7.584   8.201 -0.3938  0.2181 -0.3360
  781MOL0     C 3012   6.372   7.277   8.358 -0.8391 -0.3995  0.3369
  781MOL0     C 3013   6.502   7.253   8.320  0.3231  0.1139 -0.4846
  781MOL0     C 3014   6.909   7.331   8.065  1.0276 -0.2771 -0.3123
  781MOL0     C 3015   6.979   7.230   8.132  0.6042  0.6169  0.3673
  781MOL0     C 3016   7.115   7.212   8.115 -0.5861 -0.5044 -0.4130
  781MOL0     C 3017   7.194   7.312   8.049  0.1014 -0.8384 -0.3974
  781MOL0     O 3018   7.326   7.330   8.064 -0.5075 -0.3907  0.1148
  781MOL0     C 3019   7.402   7.206   8.078 -0.1898  0.7969  0.5058
  781MOL0     C 3020   7.556   7.229   8.065  0.5183  0.1796  0.8005
  781MOL0     C 3021   7.632   7.097   8.026  0.2978  0.0728  0.4676
  781MOL0     C 3022   7.754   7.147   7.946 -0.1990  0.6071  0.2513
  781MOL0     C 3023   7.857   7.037   7.950  0.3952  0.4391  0.3895
  781MOL0     C 3024   7.949   6.951   7.941 -0.5960  0.2480 -0.2632
  781MOL0     C 3025   7.132   7.405   7.975 -0.8720 -0.2264 -0.6935
  781MOL0     C 3026   6.985   7.413   7.982  0.8697  0.3219 -0.0219
  781MOL0     H 3027   6.476   7.365   7.995 -2.0573 -1.0351 -0.1251
  781MOL0     H 3028   6.272   7.399   8.052  0.5150  0.2390 -0.2589
  781MOL0     H 3029   6.068   7.232   8.140  1.7157  0.2589 -0.3630
  781MOL0     H 3030   6.042   7.406   8.142 -0.9105  0.2663 -0.6312
  781MOL0     H 3031   5.920   7.366   8.372 -1.6873  0.3902 -0.0622
  781MOL0     H 3032   5.901   7.198   8.309  0.5154  0.3210  0.1101
  781MOL0     H 3033   5.771   7.261   8.141  0.2374  2.2074 -1.7651
  781MOL0     H 3034   5.815   7.434   8.146 -1.0703  0.6087  1.1084
  781MOL0     H 3035   5.684   7.298   8.373 -1.0092  1.7517  1.4863
  781MOL0     H 3036   5.697   7.473   8.336  1.7348  0.5143 -1.0841
  781MOL0     H 3037   5.521   7.293   8.157 -0.1539 -0.0588  1.2016
  781MOL0     H 3038   5.554   7.469   8.155  0.7951  1.3233  1.4338
  781MOL0     H 3039   5.441   7.505   8.367  0.1044  0.1119 -0.3428
  781MOL0     H 3040   5.420   7.323   8.382 -1.8911 -0.8278 -1.3185
  781MOL0     H 3041   5.322   7.511   8.155  1.1646 -0.2335 -1.5803
  781MOL0     H 3042   5.295   7.333   8.173  0.5539 -0.6958  0.3409
  781MOL0     H 3043   5.187   7.525   8.373  4.3412 -0.2221  0.1797
  781MOL0     H 3044   5.166   7.344   8.362  0.3570 -0.9825 -1.0806
  781MOL0     H 3045   5.042   7.269   8.108 -2.4338 -0.0235 -4.1176
  781MOL0     H 3046   4.953   7.387   7.859 -0.3802  0.0668 -0.8268
  781MOL0     H 3047   4.803   7.475   7.890 -0.1415  1.7281  0.8849
  781MOL0     H 3048   4.709   7.253   8.004  1.3190  0.9188  1.7854
  781MOL0     H 3049   4.871   7.186   7.984  1.4206  1.5009  0.9956
  781MOL0     H 3050   4.666   7.129   7.813  2.1279 -3.4130 -3.6409
  781MOL0     H 3051   4.735   7.286   7.742  0.7811 -1.4768 -1.6154
  781MOL0     H 3052   4.937   7.205   7.708 -0.2373 -1.4119  0.1387
  781MOL0     H 3053   4.830   7.103   7.625 -4.2791  2.5648 -0.0179
  781MOL0     H 3054   5.035   6.984   8.022 -0.3226 -1.7801 -0.8909
  781MOL0     H 3055   5.265   6.958   8.062 -0.4060 -1.1704 -1.0226
  781MOL0     H 3056   5.626   6.758   8.102  0.3691 -1.2116 -3.1894
  781MOL0     H 3057   5.853   6.693   8.125  0.5270 -1.2805 -2.0441
  781MOL0     H 3058   6.134   6.821   7.907  1.0706  1.2066  0.4137
  781MOL0     H 3059   6.116   6.670   8.016  2.5906 -0.8705  2.7980
  781MOL0     H 3060   6.315   6.680   7.969  0.4501  0.8160 -0.8283
  781MOL0     H 3061   6.296   6.732   8.139  2.7523  1.7399  0.6994
  781MOL0     H 3062   6.290   6.970   8.039  0.9942  1.0082 -1.8903
  781MOL0     H 3063   6.327   6.906   7.881 -0.9879 -1.2598 -0.1608
  781MOL0     H 3064   6.520   7.017   8.045  0.8641 -1.1189  0.3528
  781MOL0     H 3065   6.527   6.858   8.109  1.8361  1.4736  0.6418
  781MOL0     H 3066   6.591   6.923   7.832 -2.4670 -1.1069 -0.5738
  781MOL0     H 3067   6.555   6.760   7.880 -0.6031 -0.7664  2.0821
  781MOL0     H 3068   6.724   6.796   8.080 -4.1616  1.1777  0.5394
  781MOL0     H 3069   6.773   6.940   8.002 -2.1805  0.0004  0.2463
  781MOL0     H 3070   6.785   6.667   7.872  0.6962 -1.7874  0.5627
  781MOL0     H 3071   6.865   6.816   7.798 -0.2120  2.3718  1.5397
  781MOL0     H 3072   7.029   6.648   7.907 -1.5482 -2.5612  2.4533
  781MOL0     H 3073   6.957   6.702   8.058 -0.5463 -0.8926 -0.7905
  781MOL0     H 3074   5.988   7.049   7.937  0.3552 -0.8071 -1.6819
  781MOL0     H 3075   5.741   7.127   7.899 -0.7551  1.9914  1.5394
  781MOL0     H 3076   5.347   6.995   7.642  1.9949 -2.2809  1.9555
  781MOL0     H 3077   5.110   7.041   7.607  2.0861  0.8853 -0.9342
  781MOL0     H 3078   6.327   7.245   8.451 -2.4246  0.8460  0.0511
  781MOL0     H 3079   6.567   7.209   8.395  0.8936  1.0146 -0.4409
  781MOL0     H 3080   6.925   7.176   8.209  1.2814  1.2431  1.2995
  781MOL0     H 3081   7.167   7.134   8.170 -0.2075 -0.4838 -0.7417
  781MOL0     H 3082   7.379   7.132   8.000 -0.5643  0.0913  1.2625
  781MOL0     H 3083   7.388   7.162   8.177  0.6844 -3.1459 -0.9011
  781MOL0     H 3084   7.578   7.296   7.982  0.9411  0.8105  1.4164
  781MOL0     H 3085   7.587   7.275   8.159  1.1570  2.1868 -0.3164
  781MOL0     H 3086   7.578   7.020   7.969 -0.3635  0.5893  0.3821
  781MOL0     H 3087   7.664   7.060   8.124  3.4924  1.7093  0.1601
  781MOL0     H 3088   7.732   7.155   7.839  0.9274 -0.6678 -0.1043
  781MOL0     H 3089   7.794   7.243   7.980  1.9923  0.2677 -1.1073
  781MOL0     H 3090   8.027   6.887   7.905 -0.6432  0.9350 -1.6397
  781MOL0     H 3091   7.187   7.479   7.917  0.1299 -0.9925 -0.7492
  781MOL0     H 3092   6.946   7.501   7.931 -1.2225  0.2447  1.3282
  782MOL0     O 3093   0.900   7.169  10.425 -0.3551 -0.1016  0.3515
  782MOL0     C 3094   0.851   7.162  10.315  0.1770  0.0740 -0.1313
  782MOL0     O 3095   0.919   7.156  10.197 -0.2806 -0.2193  0.4169
  782MOL0     C 3096   1.052   7.175  10.199  0.7197  0.6194  0.0403
  782MOL0     C 3097   1.136   7.252  10.291 -0.3627  0.1140  0.1390
  782MOL0     C 3098   1.274   7.238  10.276  0.1165 -0.3745  0.3045
  782MOL0     C 3099   1.335   7.161  10.177  0.0719  0.7339 -0.2269
  782MOL0     O 3100   1.467   7.157  10.153 -0.4940  0.2956  0.7463
  782MOL0     C 3101   1.530   7.289  10.171  0.7549  0.8364  0.6436
  782MOL0     C 3102   1.668   7.295  10.109  0.6865 -0.6697 -0.3507
  782MOL0     C 3103   1.717   7.156  10.056 -0.2835  0.4552  0.1588
  782MOL0     C 3104   1.856   7.160   9.986  1.0075  0.3978  0.2961
  782MOL0     C 3105   1.884   7.020   9.916 -0.1341 -0.7993 -1.0066
  782MOL0     C 3106   2.017   7.027   9.845 -0.4628  0.2929  0.0439
  782MOL0     C 3107   2.139   7.047   9.932  0.3812 -0.2205 -0.1570
  782MOL0     C 3108   2.270   7.014   9.855  0.2088 -0.9177  0.0056
  782MOL0     N 3109   2.385   7.034   9.948 -0.4559 -0.5707  0.4970
  782MOL0     C 3110   2.452   7.151   9.947  0.1962  0.0772  0.8932
  782MOL0     C 3111   2.574   7.131   9.997 -0.1448 -0.6233  0.2302
  782MOL0     C 3112   2.663   7.245  10.039 -0.5871 -0.1751 -0.3369
  782MOL0     C 3113   2.644   7.288  10.189  0.2438  0.4376  0.1842
  782MOL0     C 3114   2.528   7.386  10.210  0.7857 -0.1987 -0.2714
  782MOL0     C 3115   2.486   7.411  10.355 -0.3891 -0.5382  0.3548
  782MOL0     O 3116   2.341   7.422  10.360  0.0762 -0.5836  0.3649
  782MOL0     C 3117   2.262   7.314  10.372 -0.0207  0.1953 -0.2668
  782MOL0     C 3118   2.292   7.182  10.330 -0.3729 -0.0626 -0.0362
  782MOL0     C 3119   2.186   7.090  10.332  0.1127 -0.6023 -1.0802
  782MOL0     C 3120   2.059   7.121  10.380  0.7112  0.3837 -0.9192
  782MOL0     C 3121   1.949   7.014  10.388  0.6637  0.7595 -0.0095
  782MOL0     O 3122   1.828   7.062  10.410  0.1326 -0.0465 -0.0697
  782MOL0     C 3123   1.711   6.983  10.394 -0.4124  0.1983  0.0125
  782MOL0     C 3124   1.706   6.857  10.320  0.2559 -0.4497  0.3923
  782MOL0     C 3125   1.588   6.790  10.312  0.6133 -0.1183  0.2396
  782MOL0     C 3126   1.469   6.838  10.380 -0.0975  0.6070  0.1162
  782MOL0     O 3127   1.359   6.766  10.357  0.3114 -0.4678  0.0688
  782MOL0     C 3128   1.236   6.803  10.426  0.3273  0.2233 -0.0657
  782MOL0     C 3129   1.138   6.676  10.416 -0.4180  0.6679 -0.3183
  782MOL0     C 3130   1.001   6.695  10.486 -0.2564 -0.5587  0.2856
  782MOL0     C 3131   0.939   6.841  10.487 -0.9680  1.2257  0.1685
  782MOL0     C 3132   0.810   6.849  10.570  0.2689 -0.1051 -0.8669
  782MOL0     C 3133   0.701   6.761  10.501 -0.4015 -0.7396  0.0874
  782MOL0     C 3134   0.559   6.787  10.542  0.1644 -0.4296  0.1828
  782MOL0     C 3135   0.540   6.763  10.682 -0.7652  0.2293  0.0499
  782MOL0    Cl 3136   0.375   6.801  10.734  0.2470  0.9465 -0.5346
  782MOL0     C 3137   1.470   6.963  10.451  0.1040  0.1290 -0.1221
  782MOL0     C 3138   1.589   7.028  10.453  0.0223  0.4098  0.1143
  782MOL0     O 3139   1.977   6.898  10.369  0.2794 -0.4005 -0.0189
  782MOL0     C 3140   2.032   7.255  10.411  0.1954  0.0861 -1.0515
  782MOL0     C 3141   2.128   7.351  10.409  0.0120 -0.1264 -0.7839
  782MOL0     N 3142   2.579   7.000  10.033  0.1582 -0.7428  0.3172
  782MOL0     N 3143   2.469   6.942  10.002 -0.3329  0.5982 -0.0934
  782MOL0     C 3144   1.257   7.086  10.093 -0.3217 -0.2438  0.0155
  782MOL0     C 3145   1.114   7.097  10.105  0.1893  0.2094 -0.2186
  782MOL0     C 3146   0.702   7.169  10.306  0.0565  0.1521  0.7705
  782MOL0     C 3147   0.634   7.137  10.187 -0.0777  0.4313  0.8120
  782MOL0     C 3148   0.497   7.143  10.177  0.2446  0.1504  0.5433
  782MOL0     C 3149   0.428   7.182  10.289 -0.6654 -0.0723 -0.6461
  782MOL0     O 3150   0.291   7.170  10.270  0.5543  0.5900 -0.0807
  782MOL0     C 3151   0.208   7.220  10.379  0.6833 -0.0862  0.2874
  782MOL0     C 3152   0.076   7.264  10.318  0.0166  0.2933  0.4443
  782MOL0     C 3153  -0.008   7.361  10.396 -0.9276 -0.6265 -0.6425
  782MOL0     C 3154  -0.139   7.382  10.330 -0.3092 -0.3951 -0.9349
  782MOL0     C 3155  -0.221   7.459  10.415  0.0184  0.2525 -0.5089
  782MOL0     C 3156  -0.283   7.539  10.490  0.4940  0.3509 -0.0092
  782MOL0     C 3157   0.494   7.210  10.409 -0.1188  0.4602 -0.1798
  782MOL0     C 3158   0.633   7.207  10.419  0.1958  0.4515 -0.4246
  782MOL0     H 3159   1.107   7.323  10.367  1.7108  1.1050  0.0963
  782MOL0     H 3160   1.321   7.305  10.347 -1.2292 -0.2519  1.1159
  782MOL0     H 3161   1.535   7.316  10.277  0.7348 -2.2577  1.5170
  782MOL0     H 3162   1.460   7.355  10.119 -0.7269 -0.3696  1.0444
  782MOL0     H 3163   1.731   7.340  10.185 -0.4751  2.4785 -1.1092
  782MOL0     H 3164   1.669   7.368  10.028 -1.6435  1.1969  1.1767
  782MOL0     H 3165   1.645   7.113   9.986  0.4908 -0.1614 -0.2834
  782MOL0     H 3166   1.715   7.085  10.139 -1.5372 -1.8541 -1.7222
  782MOL0     H 3167   1.849   7.241   9.913 -1.2070 -0.9854 -1.1427
  782MOL0     H 3168   1.927   7.192  10.063 -1.9970  2.3719  2.4645
  782MOL0     H 3169   1.799   7.023   9.847 -0.1301  1.5190 -0.9919
  782MOL0     H 3170   1.894   6.934   9.983  1.4343 -1.8770 -2.5529
  782MOL0     H 3171   2.009   7.124   9.794 -1.7462  1.3467  2.1467
  782MOL0     H 3172   2.024   6.942   9.776  0.2771  1.8289 -1.8882
  782MOL0     H 3173   2.153   7.148   9.972  3.1098 -0.1108 -1.1126
  782MOL0     H 3174   2.125   6.972  10.011  4.0679  0.7024  1.5954
  782MOL0     H 3175   2.279   7.081   9.769  2.5615  1.3229  1.8115
  782MOL0     H 3176   2.272   6.913   9.813  0.5267 -0.4778 -1.0778
  782MOL0     H 3177   2.412   7.251   9.933 -2.3478 -0.7432  1.7311
  782MOL0     H 3178   2.647   7.337   9.981  1.0096  0.2848 -0.1052
  782MOL0     H 3179   2.768   7.216  10.027 -0.8140 -1.0530 -0.2505
  782MOL0     H 3180   2.727   7.349  10.226 -0.7323  0.7327  2.0255
  782MOL0     H 3181   2.628   7.200  10.252  1.5531 -1.0760 -1.5063
  782MOL0     H 3182   2.548   7.482  10.162 -0.7428  1.1279  1.5982
  782MOL0     H 3183   2.446   7.341  10.154 -1.6272  3.4727 -0.0415
  782MOL0     H 3184   2.536   7.503  10.385  0.1197 -0.2148 -1.3514
  782MOL0     H 3185   2.511   7.326  10.419  1.4788 -1.7815 -1.8613
  782MOL0     H 3186   2.389   7.160  10.286  0.6173 -1.0367  2.4047
  782MOL0     H 3187   2.201   6.993  10.286 -3.2196 -2.5481  1.4659
  782MOL0     H 3188   1.797   6.817  10.277  1.2321  3.0548 -1.1356
  782MOL0     H 3189   1.583   6.702  10.248  0.6407  0.8168 -1.0896
  782MOL0     H 3190   1.188   6.890  10.380  2.0800  1.3850  0.1928
  782MOL0     H 3191   1.246   6.819  10.534  2.4302  3.6871 -0.6129
  782MOL0     H 3192   1.188   6.591  10.463  2.6859  1.3305 -2.1411
  782MOL0     H 3193   1.127   6.663  10.308  1.2730  1.5906 -0.6489
  782MOL0     H 3194   1.015   6.662  10.589  0.3617  0.8895  0.6855
  782MOL0     H 3195   0.925   6.636  10.434  1.5059 -2.4667 -0.2596
  782MOL0     H 3196   1.015   6.911  10.521 -1.3019  0.9138  1.6265
  782MOL0     H 3197   0.926   6.865  10.381  3.3895  0.0816 -0.8401
  782MOL0     H 3198   0.773   6.952  10.572 -1.5420 -0.7301  0.3541
  782MOL0     H 3199   0.829   6.828  10.675 -0.4484 -1.0200 -0.9073
  782MOL0     H 3200   0.724   6.657  10.524  0.7421 -0.2141  1.4962
  782MOL0     H 3201   0.710   6.765  10.392 -1.2199 -2.3449 -0.0654
  782MOL0     H 3202   0.531   6.891  10.523 -1.1065 -0.5569  1.1657
  782MOL0     H 3203   0.487   6.723  10.489 -0.0128  0.0790 -0.2007
  782MOL0     H 3204   0.610   6.833  10.728  1.2314 -3.0907  2.5374
  782MOL0     H 3205   0.569   6.664  10.719  0.3773  0.5136 -0.0468
  782MOL0     H 3206   1.382   7.010  10.494 -0.1248  1.4952 -1.9552
  782MOL0     H 3207   1.577   7.123  10.504  0.7815  0.5123  0.1129
  782MOL0     H 3208   1.932   7.284  10.441  0.1673  1.9121 -2.6783
  782MOL0     H 3209   2.099   7.454  10.425  0.8905  0.2701 -1.6930
  782MOL0     H 3210   1.313   7.029  10.019 -1.3256 -1.0270 -0.1617
  782MOL0     H 3211   1.043   7.042  10.044 -1.1753  0.3458  1.2011
  782MOL0     H 3212   0.677   7.122  10.088 -1.2259 -0.2591  0.3871
  782MOL0     H 3213   0.455   7.114  10.081 -2.6979  5.0348  0.0395
  782MOL0     H 3214   0.249   7.309  10.428 -1.4958  2.5660 -2.3085
  782MOL0     H 3215   0.194   7.140  10.451 -3.2035 -0.0807 -0.2169
  782MOL0     H 3216   0.092   7.308  10.219 -0.0368  1.3333  0.8950
  782MOL0     H 3217   0.016   7.172  10.315 -1.0262  0.9378 -2.5747
  782MOL0     H 3218   0.051   7.452  10.406 -0.0944 -1.4008  2.9181
  782MOL0     H 3219  -0.020   7.323  10.498  3.2763 -0.7028  0.0140
  782MOL0     H 3220  -0.123   7.415  10.226  0.7175 -2.7339 -1.5816
  782MOL0     H 3221  -0.196   7.291  10.316  0.4377 -1.0222 -0.0233
  782MOL0     H 3222  -0.344   7.605  10.549 -1.0173 -0.5437 -0.5000
  782MOL0     H 3223   0.438   7.223  10.501  0.3685  0.4040  0.1281
  782MOL0     H 3224   0.684   7.222  10.513 -0.1015  2.8887 -0.5773
  783MOL0     O 3225   4.321   6.444   2.274 -0.2444  0.1023  0.1032
  783MOL0     C 3226   4.264   6.370   2.356  0.0812 -0.3712 -0.0234
  783MOL0     O 3227   4.125   6.343   2.356 -1.0751 -0.2903  0.0499
  783MOL0     C 3228   4.020   6.401   2.292 -0.3874  0.1212  0.1056
  783MOL0     C 3229   4.005   6.539   2.290 -0.0462 -0.5291 -0.4452
  783MOL0     C 3230   3.893   6.596   2.227 -0.2038 -0.1184 -0.3462
  783MOL0     C 3231   3.803   6.520   2.156 -0.2218  0.2862  0.1411
  783MOL0     O 3232   3.695   6.581   2.092  0.3566 -0.2960 -0.0817
  783MOL0     C 3233   3.612   6.501   2.007  0.6394  0.0109 -0.2563
  783MOL0     C 3234   3.486   6.453   2.093  1.0171 -0.1248 -1.2312
  783MOL0     C 3235   3.408   6.359   2.007 -0.0227  0.0570 -0.7138
  783MOL0     C 3236   3.283   6.303   2.067  0.3889  0.2978 -0.1209
  783MOL0     C 3237   3.192   6.229   1.963  0.2214  0.2989  0.4856
  783MOL0     C 3238   3.070   6.306   1.912 -0.0083 -1.2091 -0.3491
  783MOL0     C 3239   3.115   6.435   1.832  0.1525 -0.1151 -0.2691
  783MOL0     C 3240   2.999   6.527   1.810 -0.2290 -0.3500 -0.1402
  783MOL0     N 3241   2.877   6.468   1.766 -0.0838  0.8237  0.2967
  783MOL0     C 3242   2.874   6.403   1.645  0.5370  0.2758 -0.4526
  783MOL0     C 3243   2.744   6.401   1.606 -0.7011  0.7608 -0.0898
  783MOL0     C 3244   2.689   6.352   1.470  0.0287  0.1163 -0.0827
  783MOL0     C 3245   2.721   6.217   1.427 -0.5709 -0.2135 -0.0537
  783MOL0     C 3246   2.681   6.106   1.519 -0.0226 -0.1662  0.8250
  783MOL0     C 3247   2.535   6.099   1.569  0.3093  0.2069 -0.0878
  783MOL0     O 3248   2.445   6.085   1.462  0.2055  0.8727  0.4331
  783MOL0     C 3249   2.317   6.046   1.485  0.6115  1.4927  1.0898
  783MOL0     C 3250   2.247   6.033   1.605  0.2232  0.0616  0.1824
  783MOL0     C 3251   2.103   5.999   1.609 -0.5977  0.4130 -0.0490
  783MOL0     C 3252   2.045   5.936   1.496  1.1688 -0.6393 -0.4443
  783MOL0     C 3253   1.908   5.869   1.514  0.5433  0.0504  0.4688
  783MOL0     O 3254   1.866   5.812   1.404 -0.4096 -0.8131  0.4684
  783MOL0     C 3255   1.737   5.765   1.399  0.3816  0.2829  0.4554
  783MOL0     C 3256   1.633   5.849   1.368  0.2147 -0.0977 -0.3687
  783MOL0     C 3257   1.508   5.802   1.352 -0.2905  0.2755 -0.3666
  783MOL0     C 3258   1.473   5.669   1.373  0.5370  0.4996  0.5422
  783MOL0     O 3259   1.344   5.614   1.361 -0.4160  0.7918 -0.1278
  783MOL0     C 3260   1.244   5.697   1.309  0.4864  0.1905  0.1291
  783MOL0     C 3261   1.105   5.633   1.268  0.3288  0.1410 -0.9173
  783MOL0     C 3262   0.997   5.731   1.220  0.2682  0.4990 -0.2777
  783MOL0     C 3263   0.865   5.663   1.233  1.1862 -0.0929  0.6855
  783MOL0     C 3264   0.755   5.742   1.155 -0.5875  0.0054 -0.4005
  783MOL0     C 3265   0.616   5.674   1.158 -0.5298  0.8181  0.6430
  783MOL0     C 3266   0.513   5.718   1.064  0.0447 -0.9402  0.0805
  783MOL0     C 3267   0.372   5.649   1.079  0.6793  0.7436  0.7541
  783MOL0    Cl 3268   0.265   5.732   0.965 -0.1607 -0.1982 -0.2053
  783MOL0     C 3269   1.581   5.583   1.401 -0.2938 -0.6925 -0.1833
  783MOL0     C 3270   1.710   5.630   1.420  0.0180 -0.4757  0.4785
  783MOL0     O 3271   1.845   5.884   1.621  0.0785  0.2779  0.6035
  783MOL0     C 3272   2.122   5.940   1.376  0.6180  0.0892  0.2940
  783MOL0     C 3273   2.246   5.996   1.371  0.0202 -0.5209  0.9847
  783MOL0     N 3274   2.671   6.474   1.702  0.1120 -0.3674  0.1060
  783MOL0     N 3275   2.751   6.506   1.798  0.2065  0.5764 -0.6078
  783MOL0     C 3276   3.812   6.382   2.168  0.3543  0.6913  0.1679
  783MOL0     C 3277   3.921   6.324   2.227 -0.4773 -0.7154 -0.0456
  783MOL0     C 3278   4.342   6.303   2.461 -0.7526 -0.8146 -0.1791
  783MOL0     C 3279   4.304   6.187   2.528 -0.0552  0.0215 -0.8666
  783MOL0     C 3280   4.385   6.126   2.619 -0.0066 -0.2797  0.5269
  783MOL0     C 3281   4.515   6.173   2.651 -1.0801 -0.5544 -0.3903
  783MOL0     O 3282   4.605   6.116   2.736 -0.0718 -0.0069  0.7277
  783MOL0     C 3283   4.567   5.991   2.805 -0.4655 -1.3232 -0.1333
  783MOL0     C 3284   4.669   5.975   2.922 -0.5296 -0.8802  0.4634
  783MOL0     C 3285   4.648   5.843   2.979  0.5077 -0.3373 -0.7188
  783MOL0     C 3286   4.759   5.810   3.080  0.1302 -0.5039 -0.4191
  783MOL0     C 3287   4.772   5.666   3.079 -0.9435 -0.0887  0.2476
  783MOL0     C 3288   4.798   5.549   3.083  0.5500  0.5721  0.4951
  783MOL0     C 3289   4.561   6.272   2.562  0.0667 -0.1872 -0.0623
  783MOL0     C 3290   4.472   6.346   2.484 -0.0179 -0.6577 -0.3596
  783MOL0     H 3291   4.071   6.605   2.345  0.5386 -0.7163 -0.9144
  783MOL0     H 3292   3.880   6.703   2.242  3.9737  0.2104  2.7345
  783MOL0     H 3293   3.667   6.419   1.959  0.3306 -0.0930 -0.4349
  783MOL0     H 3294   3.577   6.558   1.920  0.5346  1.6451  0.8187
  783MOL0     H 3295   3.421   6.538   2.119  0.5401 -0.5345 -1.0635
  783MOL0     H 3296   3.510   6.409   2.190 -1.7246  1.7597  0.4260
  783MOL0     H 3297   3.470   6.272   1.982 -0.6770 -0.2586 -1.2565
  783MOL0     H 3298   3.393   6.430   1.925  0.2090  2.6649  1.3408
  783MOL0     H 3299   3.322   6.240   2.147  0.0127  0.8973  0.5405
  783MOL0     H 3300   3.228   6.378   2.125 -0.2076  0.2439 -0.6064
  783MOL0     H 3301   3.149   6.145   2.017 -0.9306  0.3070 -0.3818
  783MOL0     H 3302   3.258   6.190   1.886 -0.9700  0.9724 -0.9408
  783MOL0     H 3303   3.013   6.345   1.997  1.5408  1.9462 -0.5989
  783MOL0     H 3304   3.019   6.237   1.844  0.9516 -0.0155 -2.3558
  783MOL0     H 3305   3.199   6.493   1.872 -0.9226  0.7926  0.7275
  783MOL0     H 3306   3.148   6.402   1.733  1.8804 -1.0825  0.5824
  783MOL0     H 3307   3.019   6.595   1.727  3.0086  0.5263  1.2153
  783MOL0     H 3308   2.983   6.592   1.896  2.0878 -1.2713  1.0715
  783MOL0     H 3309   2.962   6.375   1.588 -0.3648  0.7748 -2.1694
  783MOL0     H 3310   2.733   6.432   1.410 -0.1730  1.8793  1.9779
  783MOL0     H 3311   2.580   6.357   1.477 -0.1678 -3.6391  3.6826
  783MOL0     H 3312   2.830   6.218   1.422 -0.5274  2.5189 -0.1008
  783MOL0     H 3313   2.675   6.199   1.330  0.3777  1.5595 -0.8877
  783MOL0     H 3314   2.705   6.010   1.474 -1.9065 -1.9987  3.4396
  783MOL0     H 3315   2.751   6.119   1.602  0.6334  2.3544 -0.0326
  783MOL0     H 3316   2.509   6.191   1.620 -0.9212  0.6619 -1.4802
  783MOL0     H 3317   2.529   6.020   1.644  2.5271 -1.6516 -1.7034
  783MOL0     H 3318   2.295   6.035   1.702 -0.7797 -1.8979  0.7728
  783MOL0     H 3319   2.050   6.016   1.702  3.1920  3.2167  1.8971
  783MOL0     H 3320   1.660   5.954   1.367 -0.3988  0.0624 -0.5156
  783MOL0     H 3321   1.427   5.873   1.335 -0.5802 -0.3664 -1.7397
  783MOL0     H 3322   1.295   5.735   1.221  1.2010  0.3192  0.5928
  783MOL0     H 3323   1.221   5.768   1.389  0.9747  0.5613 -0.0577
  783MOL0     H 3324   1.068   5.590   1.362 -2.6524  1.1576 -1.5256
  783MOL0     H 3325   1.122   5.554   1.194 -1.9811  1.2441 -2.7654
  783MOL0     H 3326   1.005   5.754   1.114 -0.8165  1.3665 -0.1961
  783MOL0     H 3327   0.998   5.813   1.293  1.2819 -1.5849  2.1915
  783MOL0     H 3328   0.875   5.562   1.191  1.5598  0.2729 -0.1283
  783MOL0     H 3329   0.841   5.661   1.340  1.5424  1.8051  0.8348
  783MOL0     H 3330   0.785   5.754   1.051 -3.2837 -2.0457 -1.5466
  783MOL0     H 3331   0.756   5.842   1.198  1.9213  0.1506 -0.6497
  783MOL0     H 3332   0.578   5.677   1.260 -0.8522 -1.1116  0.6086
  783MOL0     H 3333   0.631   5.569   1.129 -1.4265  0.6200  0.8799
  783MOL0     H 3334   0.504   5.824   1.091  0.8249 -1.4134  2.5242
  783MOL0     H 3335   0.552   5.702   0.964 -2.1969 -3.4680 -0.4911
  783MOL0     H 3336   0.316   5.671   1.170 -1.1168  1.5684 -0.5035
  783MOL0     H 3337   0.366   5.541   1.063  0.3893  0.4806  2.4464
  783MOL0     H 3338   1.552   5.480   1.420 -1.2363  0.0855  3.3775
  783MOL0     H 3339   1.804   5.585   1.451  1.7568  1.6006 -1.5109
  783MOL0     H 3340   2.081   5.894   1.286 -2.4911  2.3837  0.3574
  783MOL0     H 3341   2.298   6.013   1.278 -0.0940  2.4402  1.3738
  783MOL0     H 3342   3.738   6.312   2.130  2.4846 -2.1850  1.0095
  783MOL0     H 3343   3.910   6.216   2.235 -0.7623 -1.2979 -5.1055
  783MOL0     H 3344   4.210   6.134   2.515 -0.1760 -0.0400  0.1684
  783MOL0     H 3345   4.344   6.035   2.661 -0.5658 -0.2875 -0.0193
  783MOL0     H 3346   4.571   5.905   2.738 -1.0596 -2.8086  1.6419
  783MOL0     H 3347   4.468   6.005   2.850 -0.1525 -0.1340  0.2147
  783MOL0     H 3348   4.768   5.969   2.876 -1.1213 -3.3915 -0.6238
  783MOL0     H 3349   4.650   6.055   2.995  0.1033  0.2721 -0.5886
  783MOL0     H 3350   4.645   5.775   2.893 -1.8364  0.2652 -1.1682
  783MOL0     H 3351   4.553   5.841   3.032  0.0833 -1.0738 -1.4979
  783MOL0     H 3352   4.858   5.850   3.056  1.4442 -3.5924 -0.6078
  783MOL0     H 3353   4.733   5.849   3.179 -0.8184 -0.1286 -0.8016
  783MOL0     H 3354   4.806   5.443   3.096  0.7208  0.4958 -0.1903
  783MOL0     H 3355   4.669   6.284   2.568  0.0549 -0.0650 -0.0847
  783MOL0     H 3356   4.520   6.427   2.430  2.0109 -0.4890  1.5369
  784MOL0     O 3357   6.617   6.131   6.035 -0.4915 -1.2417  0.1927
  784MOL0     C 3358   6.715   6.174   6.090 -0.1754  0.8228 -0.1272
  784MOL0     O 3359   6.713   6.227   6.218 -0.2537 -0.5878  0.0732
  784MOL0     C 3360   6.591   6.243   6.274  0.2588  0.0131  0.1554
  784MOL0     C 3361   6.493   6.332   6.217  0.3334 -1.1138 -0.6674
  784MOL0     C 3362   6.367   6.336   6.276 -0.5004  0.5592 -0.0547
  784MOL0     C 3363   6.334   6.269   6.395 -0.6352  0.0217  0.3540
  784MOL0     O 3364   6.212   6.271   6.462  1.1434  0.5675  0.0695
  784MOL0     C 3365   6.096   6.340   6.412 -0.1704  0.2278  0.3427
  784MOL0     C 3366   5.980   6.324   6.502  0.4977  0.2780  0.6849
  784MOL0     C 3367   5.852   6.382   6.450  0.0308  0.0768  0.5855
  784MOL0     C 3368   5.739   6.372   6.552  0.3743 -0.9507  0.5735
  784MOL0     C 3369   5.614   6.435   6.493 -0.6472 -0.4811  0.0958
  784MOL0     C 3370   5.493   6.393   6.574  0.0276 -0.3059 -0.0087
  784MOL0     C 3371   5.367   6.464   6.544 -0.5446 -0.0822 -0.1927
  784MOL0     C 3372   5.249   6.416   6.641  0.4888 -0.4673 -0.2966
  784MOL0     N 3373   5.118   6.468   6.604  0.6943 -0.3571  0.8720
  784MOL0     C 3374   5.076   6.604   6.607 -0.7523  0.2879  0.5308
  784MOL0     C 3375   4.956   6.602   6.554  0.2254  0.5807 -0.5623
  784MOL0     C 3376   4.864   6.722   6.551  0.1275 -0.0915 -0.4197
  784MOL0     C 3377   4.794   6.738   6.685  0.1381 -0.0916 -1.8112
  784MOL0     C 3378   4.699   6.622   6.710  0.1236 -0.5820 -0.5442
  784MOL0     C 3379   4.619   6.640   6.834  0.0546 -0.3687  0.3057
  784MOL0     O 3380   4.492   6.578   6.836  0.0366 -0.4364  0.8283
  784MOL0     C 3381   4.396   6.615   6.741 -1.1618 -0.5883 -0.8258
  784MOL0     C 3382   4.377   6.751   6.703  0.2438  0.8162 -0.5079
  784MOL0     C 3383   4.270   6.793   6.631  0.2960 -0.5694 -0.4828
  784MOL0     C 3384   4.181   6.703   6.577  0.3635  0.3683  0.1375
  784MOL0     C 3385   4.064   6.737   6.495 -0.0872  0.7958 -0.2611
  784MOL0     O 3386   4.031   6.635   6.410 -0.4743 -0.3120 -0.6742
  784MOL0     C 3387   3.909   6.631   6.337  0.2632  0.2113 -0.5382
  784MOL0     C 3388   3.787   6.682   6.375  0.4710  0.2159 -0.5616
  784MOL0     C 3389   3.681   6.681   6.280 -0.0073 -0.6434 -0.0633
  784MOL0     C 3390   3.688   6.610   6.158  0.1407 -1.0116  0.0009
  784MOL0     O 3391   3.591   6.622   6.064 -0.0414  0.0466 -0.0289
  784MOL0     C 3392   3.550   6.518   5.972  0.6473 -0.0259  0.4792
  784MOL0     C 3393   3.466   6.581   5.867  0.5127 -0.5008 -0.2595
  784MOL0     C 3394   3.330   6.612   5.921 -0.1844  0.7277 -0.2917
  784MOL0     C 3395   3.251   6.659   5.799  0.4210 -0.8497 -0.0203
  784MOL0     C 3396   3.102   6.675   5.829 -0.3586 -0.3141  0.1860
  784MOL0     C 3397   3.058   6.800   5.761 -0.2565 -0.0659 -0.0824
  784MOL0     C 3398   2.910   6.811   5.793 -0.6819  0.2115  0.1278
  784MOL0     C 3399   2.842   6.919   5.709  0.6190  0.0261 -0.1692
  784MOL0    Cl 3400   2.673   6.927   5.769  0.3946 -0.1121 -0.1872
  784MOL0     C 3401   3.803   6.536   6.132  0.1217 -0.1114 -0.3630
  784MOL0     C 3402   3.917   6.553   6.224  0.5754 -0.2366 -0.7375
  784MOL0     O 3403   4.032   6.856   6.476  0.1428 -0.0359 -0.0551
  784MOL0     C 3404   4.197   6.570   6.621  0.3758 -0.3438 -0.0493
  784MOL0     C 3405   4.293   6.525   6.709 -0.4006  0.2234  0.4082
  784MOL0     N 3406   4.920   6.474   6.527  0.7562  0.0007 -0.1520
  784MOL0     N 3407   5.010   6.394   6.562  0.7359 -0.5010 -0.4553
  784MOL0     C 3408   6.444   6.199   6.458  0.2995 -0.0901 -0.0417
  784MOL0     C 3409   6.567   6.189   6.399 -0.3250 -0.0796  1.0042
  784MOL0     C 3410   6.839   6.160   6.021  0.0148 -0.1199 -0.4806
  784MOL0     C 3411   6.956   6.205   6.082  0.4459  0.4644 -0.5684
  784MOL0     C 3412   7.081   6.208   6.012  0.6294  0.0001  0.8826
  784MOL0     C 3413   7.093   6.148   5.885  0.6084  0.8289  0.1308
  784MOL0     O 3414   7.209   6.149   5.811 -0.1568 -0.1065 -1.1166
  784MOL0     C 3415   7.231   6.034   5.721  0.4364 -0.6373 -0.2242
  784MOL0     C 3416   7.222   6.076   5.577  0.5332  0.0855  0.2352
  784MOL0     C 3417   7.332   6.176   5.533  0.4794  0.7862 -0.1975
  784MOL0     C 3418   7.470   6.110   5.511 -0.0566 -0.4772  0.7797
  784MOL0     C 3419   7.481   6.060   5.382 -0.1553 -0.3063  0.0013
  784MOL0     C 3420   7.454   6.030   5.269 -0.6624  0.1023 -0.0836
  784MOL0     C 3421   6.975   6.112   5.819 -0.0118  0.0317  0.1778
  784MOL0     C 3422   6.851   6.108   5.888  0.1255 -0.2943 -0.3216
  784MOL0     H 3423   6.511   6.391   6.127 -1.0699 -0.0043 -0.2763
  784MOL0     H 3424   6.285   6.387   6.226 -1.3914 -1.5817 -0.8729
  784MOL0     H 3425   6.074   6.306   6.310 -1.8989  0.0654  0.7477
  784MOL0     H 3426   6.127   6.445   6.403 -2.1048  0.7346 -1.2906
  784MOL0     H 3427   6.006   6.385   6.589 -1.3848  0.8424  0.9010
  784MOL0     H 3428   5.965   6.221   6.534 -2.3173  0.2686 -0.3322
  784MOL0     H 3429   5.820   6.335   6.356  0.6190  4.2610 -1.9458
  784MOL0     H 3430   5.871   6.484   6.417 -1.4746 -0.0958 -1.0309
  784MOL0     H 3431   5.718   6.267   6.575 -1.4099 -1.2248 -1.9087
  784MOL0     H 3432   5.761   6.422   6.647 -2.1458  2.7298 -0.5756
  784MOL0     H 3433   5.618   6.391   6.393  1.1140  1.1861 -0.6357
  784MOL0     H 3434   5.619   6.545   6.495 -1.3893 -0.4411  0.1502
  784MOL0     H 3435   5.516   6.418   6.678 -0.3939 -0.3712  0.1003
  784MOL0     H 3436   5.470   6.286   6.573 -1.2625 -0.0508 -0.7678
  784MOL0     H 3437   5.372   6.574   6.547  2.2992 -0.1612  1.7621
  784MOL0     H 3438   5.321   6.439   6.448  1.1740  3.1383 -2.0219
  784MOL0     H 3439   5.269   6.458   6.740 -0.0411 -1.4273  0.2270
  784MOL0     H 3440   5.255   6.308   6.651 -0.8982 -0.4785  0.6909
  784MOL0     H 3441   5.136   6.686   6.646  0.9569 -2.6530  4.9269
  784MOL0     H 3442   4.801   6.707   6.463  0.3806 -0.4175 -0.5467
  784MOL0     H 3443   4.920   6.814   6.532 -1.6567  1.6251  1.9840
  784MOL0     H 3444   4.739   6.832   6.679 -1.1549 -0.7668 -1.0217
  784MOL0     H 3445   4.865   6.751   6.767 -3.6211  3.2078  1.3124
  784MOL0     H 3446   4.645   6.632   6.616  1.5929  2.8664 -1.1649
  784MOL0     H 3447   4.752   6.527   6.720 -0.6744 -1.0641 -0.8242
  784MOL0     H 3448   4.618   6.746   6.863  2.6191  0.3890 -1.9655
  784MOL0     H 3449   4.669   6.594   6.919 -1.9390  0.3094  1.9580
  784MOL0     H 3450   4.447   6.833   6.714  1.7393 -0.3546 -0.9567
  784MOL0     H 3451   4.262   6.899   6.612 -0.3264  0.2489  3.4027
  784MOL0     H 3452   3.783   6.733   6.471  1.9651  2.9720 -1.8306
  784MOL0     H 3453   3.595   6.741   6.308  1.3585  0.7167  1.3520
  784MOL0     H 3454   3.492   6.443   6.026  1.0937  1.2354  2.8613
  784MOL0     H 3455   3.634   6.464   5.927 -0.5313 -2.9654  1.5314
  784MOL0     H 3456   3.456   6.520   5.777 -0.7206  0.3181 -0.6986
  784MOL0     H 3457   3.513   6.677   5.843  0.0014 -0.0943  0.3378
  784MOL0     H 3458   3.337   6.683   6.003  0.3761 -2.3303  2.5226
  784MOL0     H 3459   3.277   6.523   5.956  0.6216  0.0788 -0.6797
  784MOL0     H 3460   3.291   6.752   5.757 -2.4807  0.2785 -0.5363
  784MOL0     H 3461   3.265   6.587   5.718  0.7576  0.9911 -1.7004
  784MOL0     H 3462   3.074   6.691   5.933  1.9166  0.5586  0.7266
  784MOL0     H 3463   3.048   6.591   5.784  0.6924  0.6203 -3.1729
  784MOL0     H 3464   3.082   6.810   5.655 -0.0880  0.9618  0.0417
  784MOL0     H 3465   3.100   6.888   5.812 -1.9986 -0.1643  1.6880
  784MOL0     H 3466   2.857   6.723   5.755 -2.3436  0.6488  1.2989
  784MOL0     H 3467   2.898   6.840   5.898 -1.1403  1.8131 -0.3294
  784MOL0     H 3468   2.849   6.905   5.601  2.5785  1.0086 -0.2258
  784MOL0     H 3469   2.894   7.014   5.723  1.8664 -0.5743 -0.5477
  784MOL0     H 3470   3.812   6.468   6.048  0.9060 -0.7819  0.2508
  784MOL0     H 3471   4.005   6.492   6.208 -0.4671 -1.6876 -1.1880
  784MOL0     H 3472   4.135   6.495   6.573 -0.2390 -0.0402  0.2584
  784MOL0     H 3473   4.294   6.425   6.751  2.1745 -0.8592 -1.8883
  784MOL0     H 3474   6.415   6.156   6.553 -0.8938 -2.6258 -1.4508
  784MOL0     H 3475   6.651   6.127   6.431  1.7145  2.1791  0.2659
  784MOL0     H 3476   6.956   6.244   6.184  0.7712  3.6375 -1.6509
  784MOL0     H 3477   7.168   6.251   6.061 -0.5441  1.0856  2.1097
  784MOL0     H 3478   7.165   5.950   5.745  0.4264 -1.0293 -1.5200
  784MOL0     H 3479   7.330   5.990   5.731  0.6169 -1.0547 -2.9690
  784MOL0     H 3480   7.230   5.989   5.511 -3.7464 -1.9915  2.0047
  784MOL0     H 3481   7.125   6.121   5.551 -0.0872 -0.4587  1.5063
  784MOL0     H 3482   7.337   6.261   5.602 -0.0482  0.8838 -0.2782
  784MOL0     H 3483   7.310   6.220   5.436  3.7952  1.4289 -0.7577
  784MOL0     H 3484   7.529   6.201   5.519 -1.9108  1.0321 -1.3881
  784MOL0     H 3485   7.497   6.028   5.579 -1.7926 -2.3669 -0.6896
  784MOL0     H 3486   7.422   6.006   5.170 -2.7153 -0.2851  0.6304
  784MOL0     H 3487   6.967   6.073   5.718 -0.4220 -1.7150  0.8351
  784MOL0     H 3488   6.762   6.079   5.834 -2.0147  0.1292  2.7488
  785MOL0     O 3489   4.787   4.479   0.043 -0.1168 -0.3006  0.5381
  785MOL0     C 3490   4.850   4.583   0.007 -0.1422  0.4869  0.0807
  785MOL0     O 3491   4.800   4.677  -0.065 -0.1777  0.3562  0.0282
  785MOL0     C 3492   4.678   4.674  -0.126 -0.0967 -0.1582 -0.2815
  785MOL0     C 3493   4.604   4.791  -0.114  0.0949 -0.2600  0.0375
  785MOL0     C 3494   4.483   4.813  -0.188  0.3324 -0.8032  0.7063
  785MOL0     C 3495   4.433   4.724  -0.274 -0.2023  0.6943  0.2479
  785MOL0     O 3496   4.326   4.770  -0.352 -0.3630  0.7833 -0.3173
  785MOL0     C 3497   4.295   4.694  -0.470  0.3270  0.0870 -0.2710
  785MOL0     C 3498   4.164   4.750  -0.529  0.3056 -0.7226 -0.3362
  785MOL0     C 3499   4.033   4.714  -0.452 -0.2529  0.5926 -0.4217
  785MOL0     C 3500   3.901   4.790  -0.502 -0.8624 -0.9801  0.1851
  785MOL0     C 3501   3.802   4.797  -0.383  0.2249  0.2397 -0.3071
  785MOL0     C 3502   3.765   4.661  -0.311  0.6500 -0.2712 -0.7284
  785MOL0     C 3503   3.683   4.698  -0.186  0.2144  0.2765  0.1327
  785MOL0     C 3504   3.702   4.597  -0.072 -0.4358  0.6682 -0.3161
  785MOL0     N 3505   3.640   4.469  -0.111 -0.5355 -0.1331  0.2077
  785MOL0     C 3506   3.513   4.441  -0.156 -0.4974 -0.7694 -0.2013
  785MOL0     C 3507   3.522   4.322  -0.214  0.6587  0.2104 -0.1881
  785MOL0     C 3508   3.419   4.227  -0.253  0.1040 -0.1449 -0.0732
  785MOL0     C 3509   3.296   4.221  -0.164  0.1070 -0.2091 -0.1684
  785MOL0     C 3510   3.334   4.180  -0.023 -0.4393  0.4466 -0.1667
  785MOL0     C 3511   3.210   4.190   0.071 -0.1367  0.3851  0.8343
  785MOL0     O 3512   3.094   4.126   0.003 -0.2663 -0.2841 -0.2747
  785MOL0     C 3513   2.969   4.155   0.048 -0.6356 -0.5849 -0.5660
  785MOL0     C 3514   2.860   4.128  -0.031  0.4602 -0.0079 -0.1904
  785MOL0     C 3515   2.724   4.144   0.011  0.1112  0.9281 -0.4145
  785MOL0     C 3516   2.700   4.209   0.133 -0.0395 -0.6847  0.0299
  785MOL0     C 3517   2.560   4.229   0.176  0.1245 -0.3909  0.0568
  785MOL0     O 3518   2.469   4.221   0.077 -0.5944 -0.0406 -0.5315
  785MOL0     C 3519   2.341   4.237   0.103  0.1183  0.2502  0.0928
  785MOL0     C 3520   2.252   4.318   0.031  0.0543  1.0371  0.2503
  785MOL0     C 3521   2.110   4.295   0.043 -0.7792 -0.1513  0.6427
  785MOL0     C 3522   2.056   4.203   0.134 -0.3924  0.0232 -0.0896
  785MOL0     O 3523   1.921   4.193   0.155  0.4696  0.1811 -0.1099
  785MOL0     C 3524   1.871   4.117   0.267 -1.0194 -0.6910  0.0133
  785MOL0     C 3525   1.725   4.145   0.268  0.2269  0.1245  0.5729
  785MOL0     C 3526   1.649   4.088   0.388  0.0200  0.0726 -0.0624
  785MOL0     C 3527   1.501   4.097   0.369  0.0887 -0.7792 -0.5237
  785MOL0     C 3528   1.426   4.000   0.466 -0.0908 -0.9775 -0.2373
  785MOL0     C 3529   1.460   3.992   0.615  0.2275 -0.0930 -0.7827
  785MOL0     C 3530   1.429   4.120   0.688  0.1672 -1.0230  0.2922
  785MOL0     C 3531   1.476   4.114   0.838 -0.0500  0.0051  0.0669
  785MOL0    Cl 3532   1.398   3.986   0.948  0.2102  0.1171 -0.2438
  785MOL0     C 3533   2.150   4.132   0.213  0.4061 -0.0337 -0.3264
  785MOL0     C 3534   2.284   4.144   0.188 -0.3242 -0.4287 -1.1507
  785MOL0     O 3535   2.547   4.296   0.282 -0.0922  0.7576  0.6749
  785MOL0     C 3536   2.812   4.244   0.208  0.3542 -0.3898  1.0506
  785MOL0     C 3537   2.944   4.220   0.167 -1.0546  0.3950  0.0914
  785MOL0     N 3538   3.645   4.273  -0.194 -0.4826  1.0737 -0.1708
  785MOL0     N 3539   3.720   4.360  -0.134  0.3394 -0.1744 -0.5859
  785MOL0     C 3540   4.507   4.604  -0.285  0.3634  0.3810  0.1735
  785MOL0     C 3541   4.629   4.578  -0.220 -0.9030 -0.1020 -0.1648
  785MOL0     C 3542   4.989   4.590   0.045  0.4358 -0.5875  0.2105
  785MOL0     C 3543   5.054   4.718   0.039 -0.1179  0.3332  0.1326
  785MOL0     C 3544   5.189   4.735   0.077  0.4552  0.4460 -0.0079
  785MOL0     C 3545   5.258   4.626   0.137 -0.0100 -0.7449 -0.2558
  785MOL0     O 3546   5.391   4.650   0.171  0.2764 -0.6433 -0.0338
  785MOL0     C 3547   5.473   4.548   0.224  0.0671 -0.8047 -0.0680
  785MOL0     C 3548   5.432   4.501   0.366  0.4460 -1.2864 -0.1614
  785MOL0     C 3549   5.455   4.611   0.468 -0.2018 -0.4565 -0.5300
  785MOL0     C 3550   5.603   4.663   0.479  0.7831  0.2592  0.6686
  785MOL0     C 3551   5.646   4.705   0.614  0.2049  0.2293 -0.8384
  785MOL0     C 3552   5.661   4.743   0.730  0.1310  0.0933  0.1667
  785MOL0     C 3553   5.198   4.498   0.133 -0.0483  0.0996 -0.1684
  785MOL0     C 3554   5.062   4.475   0.096 -0.1942 -0.0093  0.5809
  785MOL0     H 3555   4.630   4.869  -0.043 -0.5093  0.4388 -0.5034
  785MOL0     H 3556   4.428   4.906  -0.176  1.3450  0.8885 -4.9199
  785MOL0     H 3557   4.274   4.592  -0.437  0.7973 -0.1424 -0.6676
  785MOL0     H 3558   4.377   4.695  -0.543 -1.9100 -0.5565 -2.9399
  785MOL0     H 3559   4.167   4.723  -0.635  0.5380 -2.5183  0.1090
  785MOL0     H 3560   4.178   4.858  -0.537  0.4619 -0.6337  0.9219
  785MOL0     H 3561   4.055   4.739  -0.348 -1.7436  3.4804 -0.6741
  785MOL0     H 3562   4.013   4.607  -0.458  1.2902  0.2678 -0.2202
  785MOL0     H 3563   3.927   4.890  -0.538  0.5625 -1.5476 -0.4590
  785MOL0     H 3564   3.843   4.737  -0.578 -4.4448  1.3555  1.0732
  785MOL0     H 3565   3.714   4.846  -0.426  0.5065 -0.2115 -1.4499
  785MOL0     H 3566   3.847   4.867  -0.312 -0.1203  0.4067 -0.2481
  785MOL0     H 3567   3.856   4.626  -0.261  0.0332  0.1693  0.7363
  785MOL0     H 3568   3.710   4.593  -0.376 -3.3418  1.1716  0.8453
  785MOL0     H 3569   3.725   4.792  -0.148  0.9961 -1.2193  3.4183
  785MOL0     H 3570   3.576   4.709  -0.204  0.3729  0.6601 -0.6047
  785MOL0     H 3571   3.641   4.634   0.012 -1.9500 -2.7927  0.2753
  785MOL0     H 3572   3.806   4.590  -0.039  0.0746 -0.1774 -2.0215
  785MOL0     H 3573   3.423   4.500  -0.137  0.7542  1.3278 -0.3815
  785MOL0     H 3574   3.464   4.127  -0.251  0.8805  0.2074  0.3123
  785MOL0     H 3575   3.385   4.254  -0.353 -1.5034 -1.7358 -0.0227
  785MOL0     H 3576   3.229   4.150  -0.213  2.3955  0.8690 -5.5811
  785MOL0     H 3577   3.238   4.313  -0.163 -2.2470 -1.6080  0.2064
  785MOL0     H 3578   3.373   4.078  -0.018  2.9635  1.6461  1.0313
  785MOL0     H 3579   3.416   4.240   0.019  1.2033 -2.2072  0.6521
  785MOL0     H 3580   3.190   4.293   0.105 -0.7052  0.0646  1.4944
  785MOL0     H 3581   3.227   4.122   0.155 -1.6679 -1.4669 -0.2805
  785MOL0     H 3582   2.873   4.088  -0.131 -0.6907 -0.4976 -0.1673
  785MOL0     H 3583   2.636   4.108  -0.041 -3.1523  4.5643  2.0301
  785MOL0     H 3584   2.290   4.393  -0.039  3.6933 -0.5284  0.3183
  785MOL0     H 3585   2.051   4.350  -0.030  0.7882 -1.1147 -1.4466
  785MOL0     H 3586   1.902   4.155   0.365 -2.7874 -2.1241  1.1829
  785MOL0     H 3587   1.885   4.010   0.249  1.4957 -0.4573  0.1756
  785MOL0     H 3588   1.680   4.098   0.180 -0.2556  0.4574  0.6338
  785MOL0     H 3589   1.702   4.252   0.264 -0.4869 -0.0319  0.3200
  785MOL0     H 3590   1.680   4.131   0.484 -0.1313  1.1725 -0.4961
  785MOL0     H 3591   1.664   3.980   0.400  0.5180  0.2718  1.3733
  785MOL0     H 3592   1.463   4.199   0.384 -1.2463 -1.3541  0.2486
  785MOL0     H 3593   1.472   4.072   0.267  0.4742 -0.6216 -0.6700
  785MOL0     H 3594   1.435   3.897   0.431 -1.9307 -1.5003  0.6791
  785MOL0     H 3595   1.320   4.029   0.469 -0.1732 -1.3565  2.3361
  785MOL0     H 3596   1.565   3.963   0.617  0.0497 -0.7271 -0.3894
  785MOL0     H 3597   1.405   3.916   0.671  2.2146 -0.2068  1.1443
  785MOL0     H 3598   1.483   4.200   0.636 -0.1656  1.2936  3.1958
  785MOL0     H 3599   1.321   4.138   0.683  0.0643 -1.8795 -0.8475
  785MOL0     H 3600   1.463   4.215   0.878 -0.7851 -1.0955  2.8136
  785MOL0     H 3601   1.582   4.090   0.833  0.0837  0.6074 -0.0559
  785MOL0     H 3602   2.110   4.056   0.280 -1.8730  0.0557 -1.4858
  785MOL0     H 3603   2.344   4.065   0.233  1.7550  1.9277  0.5054
  785MOL0     H 3604   2.783   4.284   0.305 -0.3718 -2.8866  1.9371
  785MOL0     H 3605   3.008   4.254   0.248 -2.0155  1.1947  0.5353
  785MOL0     H 3606   4.472   4.527  -0.353  0.8744 -1.3069  1.7421
  785MOL0     H 3607   4.699   4.501  -0.251  2.5221  2.6719  0.1116
  785MOL0     H 3608   5.004   4.806  -0.000  0.1871  0.8321  0.8290
  785MOL0     H 3609   5.228   4.836   0.071  0.0485  0.6214  0.2482
  785MOL0     H 3610   5.578   4.576   0.214  0.1354 -1.0881 -0.1363
  785MOL0     H 3611   5.470   4.465   0.153 -0.1523 -0.6267 -0.2697
  785MOL0     H 3612   5.326   4.474   0.364 -0.2081  1.0156 -1.7624
  785MOL0     H 3613   5.497   4.419   0.398 -1.3701 -1.8914  2.1939
  785MOL0     H 3614   5.429   4.573   0.567 -1.0059 -1.7653 -1.2253
  785MOL0     H 3615   5.389   4.694   0.441  0.2907 -0.6637 -2.5275
  785MOL0     H 3616   5.673   4.588   0.439  1.2135 -0.1505  2.1325
  785MOL0     H 3617   5.618   4.743   0.405 -1.5801  1.2316  1.1566
  785MOL0     H 3618   5.673   4.759   0.836  4.0436 -1.4750  0.1244
  785MOL0     H 3619   5.249   4.408   0.164 -1.2222  0.1759  2.2306
  785MOL0     H 3620   5.007   4.382   0.105 -0.9700  0.4693  0.8876
  786MOL0     O 3621   8.356   7.655   9.737  0.5760  0.2428 -1.3856
  786MOL0     C 3622   8.417   7.734   9.804 -0.0300 -0.0580  0.2406
  786MOL0     O 3623   8.397   7.768   9.930  0.2627  0.0955  0.1974
  786MOL0     C 3624   8.273   7.732   9.990  0.5710 -0.3683 -0.2108
  786MOL0     C 3625   8.258   7.672  10.115  0.1882  0.1123  1.1080
  786MOL0     C 3626   8.135   7.648  10.178  0.2992 -0.4265  0.5128
  786MOL0     C 3627   8.014   7.657  10.109  0.4035 -0.1542 -0.0836
  786MOL0     O 3628   7.901   7.618  10.182  0.0061  0.3271  0.4127
  786MOL0     C 3629   7.784   7.583  10.098  0.1851  0.3640 -0.6780
  786MOL0     C 3630   7.684   7.514  10.189 -0.0320 -0.1981 -0.5154
  786MOL0     C 3631   7.717   7.365  10.219  0.7456  0.0815 -0.4952
  786MOL0     C 3632   7.634   7.305  10.334 -0.1888  0.0281 -0.3831
  786MOL0     C 3633   7.483   7.310  10.310 -0.0122 -0.3400 -0.6080
  786MOL0     C 3634   7.416   7.191  10.375  0.7700 -0.5222  0.5243
  786MOL0     C 3635   7.266   7.206  10.347  0.3256 -0.2189  0.9841
  786MOL0     C 3636   7.202   7.070  10.362  0.5194 -0.2077 -0.7124
  786MOL0     N 3637   7.061   7.085  10.382 -0.7293 -0.3245 -0.6074
  786MOL0     C 3638   6.998   7.083  10.507 -0.4476 -0.3733  1.1013
  786MOL0     C 3639   6.863   7.079  10.487  0.2618 -0.4917  0.2314
  786MOL0     C 3640   6.766   7.069  10.593  0.2790  0.5913  0.6943
  786MOL0     C 3641   6.754   7.194  10.680  0.5397 -0.2257 -0.1864
  786MOL0     C 3642   6.714   7.323  10.598  0.3344  0.3636 -0.6518
  786MOL0     C 3643   6.602   7.308  10.498 -0.0840 -0.2465 -0.1863
  786MOL0     O 3644   6.489   7.251  10.568 -0.0978 -0.0532  0.4363
  786MOL0     C 3645   6.368   7.254  10.499 -0.1990 -0.6568 -0.3507
  786MOL0     C 3646   6.342   7.327  10.378  0.3592  0.6133 -0.4227
  786MOL0     C 3647   6.220   7.317  10.312  0.0963 -0.3010 -0.2212
  786MOL0     C 3648   6.106   7.264  10.373 -0.7606 -0.2319 -0.5970
  786MOL0     C 3649   5.971   7.269  10.308 -0.4922  0.3587 -0.4430
  786MOL0     O 3650   5.940   7.308  10.182 -0.2756 -1.2801 -0.3854
  786MOL0     C 3651   5.817   7.302  10.124  0.1908  0.0892 -0.1675
  786MOL0     C 3652   5.715   7.388  10.173  0.0095  0.6602 -0.1317
  786MOL0     C 3653   5.589   7.390  10.112  0.0508 -0.5570 -0.3958
  786MOL0     C 3654   5.565   7.314   9.996  0.0809 -0.5893 -0.0604
  786MOL0     O 3655   5.453   7.297   9.928  0.2978  0.0038  0.1196
  786MOL0     C 3656   5.342   7.368   9.986  0.6068 -1.0019  0.2784
  786MOL0     C 3657   5.215   7.313   9.919 -0.3719 -0.6782 -0.2018
  786MOL0     C 3658   5.088   7.368   9.968 -0.2918  0.6228  0.6521
  786MOL0     C 3659   4.973   7.301   9.901  0.0182 -0.0690 -0.2895
  786MOL0     C 3660   4.843   7.375   9.915 -0.2203  0.4506  0.5815
  786MOL0     C 3661   4.723   7.299   9.853  0.0410  0.1624 -0.3110
  786MOL0     C 3662   4.585   7.367   9.876  0.0591  0.0579 -1.1131
  786MOL0     C 3663   4.480   7.269   9.826  0.2361 -0.6538 -0.5532
  786MOL0    Cl 3664   4.322   7.342   9.845 -0.3554  0.3039 -0.2712
  786MOL0     C 3665   5.665   7.230   9.955  0.1822  0.2171 -0.3933
  786MOL0     C 3666   5.793   7.225  10.006  0.1069 -0.0088  0.0238
  786MOL0     O 3667   5.887   7.232  10.390  0.1465  0.0057 -0.1017
  786MOL0     C 3668   6.128   7.202  10.502  0.2294  0.4642  1.3676
  786MOL0     C 3669   6.250   7.202  10.561 -0.1805 -0.0295  0.6897
  786MOL0     N 3670   6.843   7.101  10.353 -0.3540  0.3863 -0.1358
  786MOL0     N 3671   6.959   7.095  10.289  0.2807  0.0463  1.0023
  786MOL0     C 3672   8.023   7.720   9.978  0.9384 -0.4072 -0.6006
  786MOL0     C 3673   8.149   7.762   9.928  0.1111 -0.0195 -0.5095
  786MOL0     C 3674   8.551   7.783   9.753  0.2324  0.9545  0.2615
  786MOL0     C 3675   8.606   7.898   9.808 -0.2839 -0.8616  0.0606
  786MOL0     C 3676   8.728   7.945   9.763 -0.1638 -0.4809 -0.0936
  786MOL0     C 3677   8.803   7.872   9.671  0.4137  0.4643  0.9166
  786MOL0     O 3678   8.917   7.935   9.635 -0.3481  0.5143 -0.1667
  786MOL0     C 3679   9.013   7.874   9.548 -0.4195 -0.0973 -0.5324
  786MOL0     C 3680   9.161   7.914   9.565 -0.1591  0.2196 -0.0293
  786MOL0     C 3681   9.253   7.837   9.474 -0.9228  0.4820 -0.7491
  786MOL0     C 3682   9.397   7.848   9.522 -0.0461 -0.6056 -0.3826
  786MOL0     C 3683   9.457   7.979   9.487 -0.1569 -0.3600 -0.0199
  786MOL0     C 3684   9.522   8.082   9.465 -0.7734  1.3907 -0.2393
  786MOL0     C 3685   8.745   7.755   9.614 -0.2544  0.1195  0.1034
  786MOL0     C 3686   8.616   7.715   9.648 -0.2727  0.0007  0.4745
  786MOL0     H 3687   8.356   7.652  10.159  1.0134  0.0009 -0.6983
  786MOL0     H 3688   8.128   7.607  10.278 -2.3089  2.4711  1.6764
  786MOL0     H 3689   7.802   7.518  10.012 -3.1338 -1.3471 -0.2364
  786MOL0     H 3690   7.745   7.683  10.076 -0.9303  0.6642  2.2881
  786MOL0     H 3691   7.586   7.509  10.142 -0.1179 -0.0731 -0.3511
  786MOL0     H 3692   7.683   7.573  10.281 -2.5879 -0.3810 -0.3593
  786MOL0     H 3693   7.817   7.373  10.263  0.9661 -1.6744 -0.6257
  786MOL0     H 3694   7.707   7.303  10.129 -3.2072 -0.0610 -0.1329
  786MOL0     H 3695   7.659   7.198  10.338  0.9657  0.0028 -4.0218
  786MOL0     H 3696   7.661   7.347  10.430 -2.6874 -2.4637  1.5990
  786MOL0     H 3697   7.465   7.304  10.202 -3.4241 -1.2606 -0.1320
  786MOL0     H 3698   7.440   7.402  10.350  0.4533  0.0758 -1.0571
  786MOL0     H 3699   7.428   7.189  10.484  2.9372  2.4606  0.4531
  786MOL0     H 3700   7.453   7.103  10.321  0.8093 -0.1968  0.0119
  786MOL0     H 3701   7.227   7.265  10.430 -0.6247 -1.9963  1.8565
  786MOL0     H 3702   7.247   7.248  10.248  1.7854  0.7915  1.0898
  786MOL0     H 3703   7.245   7.009  10.442  1.1397  2.3155  1.0132
  786MOL0     H 3704   7.221   7.007  10.275  0.7888  1.4849 -1.9355
  786MOL0     H 3705   7.045   7.082  10.605  3.0720  1.7098 -0.3733
  786MOL0     H 3706   6.798   6.981  10.651 -3.3328 -0.5564  1.1891
  786MOL0     H 3707   6.668   7.036  10.559 -0.3001  0.1435  2.6498
  786MOL0     H 3708   6.844   7.217  10.736  0.6416 -0.1571 -0.3770
  786MOL0     H 3709   6.672   7.175  10.749 -0.5040  3.3082 -0.2510
  786MOL0     H 3710   6.676   7.394  10.673 -4.1296 -2.0426 -0.2739
  786MOL0     H 3711   6.804   7.364  10.551  0.5033  0.3666 -0.3323
  786MOL0     H 3712   6.628   7.227  10.430  0.3768  0.4455 -0.8563
  786MOL0     H 3713   6.583   7.403  10.447  1.2028  0.7974  1.2176
  786MOL0     H 3714   6.417   7.394  10.338  1.5712  1.1587  2.5370
  786MOL0     H 3715   6.205   7.375  10.222 -4.2272 -1.2301 -0.3474
  786MOL0     H 3716   5.737   7.455  10.255  0.1867  3.2092 -2.1189
  786MOL0     H 3717   5.509   7.456  10.142  0.2272 -0.2344 -0.6329
  786MOL0     H 3718   5.341   7.476   9.967 -1.5822 -0.9951  0.1667
  786MOL0     H 3719   5.324   7.357  10.094 -0.3355  0.2582  0.2744
  786MOL0     H 3720   5.209   7.207   9.946 -1.1768 -1.0849 -1.8569
  786MOL0     H 3721   5.233   7.317   9.811  2.6066  0.3025  0.2356
  786MOL0     H 3722   5.076   7.473   9.939 -2.9022  0.2806  0.2356
  786MOL0     H 3723   5.081   7.355  10.076 -1.7688  0.4571  0.5603
  786MOL0     H 3724   4.978   7.279   9.794 -1.5536 -2.3423  0.0421
  786MOL0     H 3725   4.959   7.204   9.951 -1.4486  0.1819 -0.1703
  786MOL0     H 3726   4.839   7.473   9.865 -0.1264  0.0235 -0.2851
  786MOL0     H 3727   4.828   7.404  10.019 -0.7371 -1.9326  1.2235
  786MOL0     H 3728   4.724   7.206   9.910 -0.2096 -0.0377 -0.6292
  786MOL0     H 3729   4.734   7.285   9.745 -2.4012  3.6690 -1.2032
  786MOL0     H 3730   4.575   7.382   9.984  1.1854 -1.6940 -0.7248
  786MOL0     H 3731   4.570   7.458   9.816  0.4730  0.5501 -0.4908
  786MOL0     H 3732   4.496   7.182   9.891 -3.0697 -1.3764 -0.5233
  786MOL0     H 3733   4.496   7.250   9.719 -0.0712  3.0922 -1.3905
  786MOL0     H 3734   5.645   7.155   9.879  0.0341 -1.6297  1.3756
  786MOL0     H 3735   5.864   7.151   9.971 -1.4140 -0.2166 -2.8924
  786MOL0     H 3736   6.049   7.161  10.564  0.3388 -2.5165 -0.2253
  786MOL0     H 3737   6.245   7.166  10.663 -0.0290  1.0049  1.0745
  786MOL0     H 3738   7.939   7.729   9.910 -1.3619 -0.8839  1.9970
  786MOL0     H 3739   8.157   7.812   9.832 -0.8434  0.7913 -0.1900
  786MOL0     H 3740   8.549   7.950   9.884 -0.4851 -0.4968 -0.3350
  786MOL0     H 3741   8.766   8.033   9.812  0.4041 -0.0537 -1.2589
  786MOL0     H 3742   8.977   7.891   9.446 -0.0421  2.0928 -0.3588
  786MOL0     H 3743   9.021   7.766   9.565 -2.3636 -0.2677 -0.5797
  786MOL0     H 3744   9.164   8.020   9.537  2.1918  0.1447 -0.3333
  786MOL0     H 3745   9.194   7.900   9.668  2.4814 -2.3012 -1.0694
  786MOL0     H 3746   9.253   7.871   9.370  2.7986  1.3566 -0.6351
  786MOL0     H 3747   9.228   7.732   9.487  0.2744  0.3633  1.0647
  786MOL0     H 3748   9.397   7.830   9.630  1.1299  1.5633  0.0384
  786MOL0     H 3749   9.459   7.771   9.474  0.2575  0.9924 -2.7037
  786MOL0     H 3750   9.572   8.167   9.422 -0.0900  0.5182 -1.1882
  786MOL0     H 3751   8.796   7.697   9.538  0.4056  0.6251  0.1551
  786MOL0     H 3752   8.584   7.622   9.602  1.5119 -0.2441 -0.3507
  787MOL0     O 3753   6.177   2.050   0.537 -0.2302 -0.6679  0.0650
  787MOL0     C 3754   6.146   2.054   0.655 -0.1082  0.0136  0.9149
  787MOL0     O 3755   6.013   2.069   0.706 -0.5292 -0.4444  0.1148
  787MOL0     C 3756   5.892   2.065   0.633 -0.1857  0.4545  0.2342
  787MOL0     C 3757   5.783   2.065   0.715 -0.2296 -0.0357 -0.4816
  787MOL0     C 3758   5.656   2.053   0.665  0.2142  0.4582 -0.0539
  787MOL0     C 3759   5.635   2.046   0.524  0.7435 -0.6103 -0.1681
  787MOL0     O 3760   5.504   2.028   0.485  0.6891  0.8735 -0.7490
  787MOL0     C 3761   5.477   2.068   0.353 -0.4928  0.0478  0.4125
  787MOL0     C 3762   5.333   2.072   0.309  0.3903  0.6741  0.1412
  787MOL0     C 3763   5.272   1.939   0.317  0.0125  0.3822 -0.4936
  787MOL0     C 3764   5.321   1.821   0.228 -0.1920 -0.5238 -1.1253
  787MOL0     C 3765   5.222   1.702   0.237 -0.7466 -0.1374 -0.3426
  787MOL0     C 3766   5.251   1.597   0.135 -0.1349 -0.3386  0.2180
  787MOL0     C 3767   5.168   1.471   0.145 -0.0571  0.4935  0.7789
  787MOL0     C 3768   5.207   1.359   0.039  0.7795  0.3329 -0.3806
  787MOL0     N 3769   5.110   1.252   0.046 -0.1450  0.4295 -0.1008
  787MOL0     C 3770   5.113   1.152   0.138 -0.0824  0.2209 -0.3171
  787MOL0     C 3771   5.023   1.056   0.108  0.7693 -0.2501  0.3308
  787MOL0     C 3772   5.004   0.928   0.188 -0.3149  0.1695 -0.0249
  787MOL0     C 3773   5.045   0.810   0.100 -0.7976 -0.0004  0.3308
  787MOL0     C 3774   5.020   0.666   0.143  0.0866 -0.1678 -0.0947
  787MOL0     C 3775   4.883   0.637   0.201  0.0040 -1.1308  0.0391
  787MOL0     O 3776   4.791   0.650   0.087  0.0285  0.3158 -0.1269
  787MOL0     C 3777   4.653   0.660   0.117 -0.4436 -0.3126  0.6652
  787MOL0     C 3778   4.563   0.700   0.016  0.2651 -0.0044  0.1172
  787MOL0     C 3779   4.429   0.678   0.029  0.4786  0.1973  0.0228
  787MOL0     C 3780   4.374   0.639   0.151  0.9492  0.4563  0.3964
  787MOL0     C 3781   4.231   0.594   0.166  0.1364 -0.1123 -0.3009
  787MOL0     O 3782   4.146   0.643   0.067  0.0994  0.5488  0.7137
  787MOL0     C 3783   4.016   0.616   0.078  0.6071  0.5155  0.4347
  787MOL0     C 3784   3.932   0.666   0.175 -0.6322 -0.4858 -0.2067
  787MOL0     C 3785   3.790   0.637   0.170 -0.3492  0.4408  0.4345
  787MOL0     C 3786   3.737   0.544   0.078 -0.1483 -0.2398 -0.5788
  787MOL0     O 3787   3.605   0.500   0.079 -0.1304 -0.9988  0.5039
  787MOL0     C 3788   3.534   0.504   0.203 -0.5349  0.2886  0.0075
  787MOL0     C 3789   3.394   0.439   0.195  0.7575  0.1286 -0.6190
  787MOL0     C 3790   3.300   0.471   0.075  0.0436 -1.1306  0.3922
  787MOL0     C 3791   3.187   0.378   0.065 -0.0363  0.3881 -0.1206
  787MOL0     C 3792   3.109   0.431  -0.057  0.0237 -0.1934 -0.4040
  787MOL0     C 3793   3.005   0.321  -0.070  0.3494  0.2412  0.6328
  787MOL0     C 3794   2.894   0.370  -0.171 -0.0702  0.2996 -0.3001
  787MOL0     C 3795   2.813   0.248  -0.209  0.1837  0.5032  0.3113
  787MOL0    Cl 3796   2.709   0.291  -0.348 -0.0180 -0.0528  0.6147
  787MOL0     C 3797   3.821   0.498  -0.020 -0.7431 -0.2667  0.5194
  787MOL0     C 3798   3.955   0.539  -0.026 -0.3700 -0.6990  0.3863
  787MOL0     O 3799   4.205   0.517   0.260 -0.3130  0.9608 -0.4476
  787MOL0     C 3800   4.461   0.603   0.256  0.9054 -0.3627  0.1338
  787MOL0     C 3801   4.599   0.607   0.238 -0.2408 -0.9843  0.2054
  787MOL0     N 3802   4.968   1.097  -0.013 -0.1038 -0.3512 -0.1315
  787MOL0     N 3803   5.026   1.205  -0.056  0.2220 -0.2542 -1.2715
  787MOL0     C 3804   5.746   2.049   0.438 -0.1382 -0.9666  0.5906
  787MOL0     C 3805   5.872   2.056   0.491  0.2590  0.3889 -0.3864
  787MOL0     C 3806   6.259   2.045   0.755 -0.6885 -0.0500  0.5197
  787MOL0     C 3807   6.389   2.017   0.721 -0.0640 -0.4426  0.4581
  787MOL0     C 3808   6.497   2.026   0.811 -0.5937  0.2717  0.2572
  787MOL0     C 3809   6.463   2.053   0.945 -0.0457  0.3383  0.8684
  787MOL0     O 3810   6.555   2.070   1.044  0.1405  0.6239  0.4728
  787MOL0     C 3811   6.693   2.083   1.017  0.1202  0.5255  0.0567
  787MOL0     C 3812   6.718   2.227   0.981 -0.1908 -0.3510 -0.0364
  787MOL0     C 3813   6.650   2.338   1.058  0.2637 -0.1886  0.7743
  787MOL0     C 3814   6.671   2.478   0.994  0.2346  0.6121 -0.2729
  787MOL0     C 3815   6.815   2.509   1.011 -0.5640  0.2852  0.1238
  787MOL0     C 3816   6.927   2.553   1.020  0.1752  0.5752  0.0629
  787MOL0     C 3817   6.332   2.077   0.981  0.5692  0.0252  0.2373
  787MOL0     C 3818   6.224   2.068   0.891  0.1307  0.8257  0.3231
  787MOL0     H 3819   5.792   2.063   0.824 -1.0320 -0.8909 -0.4138
  787MOL0     H 3820   5.565   2.056   0.724  0.4727  2.2002  0.3191
  787MOL0     H 3821   5.522   2.000   0.281  1.1486  2.0643 -0.5799
  787MOL0     H 3822   5.508   2.173   0.348 -1.7599  0.5296  1.8568
  787MOL0     H 3823   5.326   2.109   0.206 -1.4989 -1.4719 -0.5999
  787MOL0     H 3824   5.274   2.139   0.373 -0.4032  0.5169 -0.4015
  787MOL0     H 3825   5.164   1.947   0.301  0.2391  3.2966 -1.1729
  787MOL0     H 3826   5.279   1.897   0.418 -0.1430 -2.7595 -1.6822
  787MOL0     H 3827   5.328   1.857   0.125 -1.1493  0.8694 -0.7303
  787MOL0     H 3828   5.420   1.785   0.258  1.0326  2.1778 -1.6657
  787MOL0     H 3829   5.124   1.740   0.209 -1.5055 -2.0221 -0.4215
  787MOL0     H 3830   5.209   1.662   0.338  0.4803  1.5648  0.5351
  787MOL0     H 3831   5.354   1.566   0.155 -0.0359  0.2824  0.6777
  787MOL0     H 3832   5.241   1.639   0.035 -0.2893 -1.3468 -0.2057
  787MOL0     H 3833   5.185   1.422   0.241 -0.4447 -2.4833 -0.5614
  787MOL0     H 3834   5.060   1.483   0.136 -0.0667  0.5581  0.9718
  787MOL0     H 3835   5.311   1.328   0.053  1.0562  0.4555 -1.9619
  787MOL0     H 3836   5.190   1.403  -0.060 -0.4289 -2.0920 -1.3480
  787MOL0     H 3837   5.175   1.151   0.227 -3.1314  2.3467  2.0652
  787MOL0     H 3838   4.898   0.921   0.213 -0.8569 -4.6895 -2.4991
  787MOL0     H 3839   5.064   0.948   0.277 -1.4414  0.5606  0.6578
  787MOL0     H 3840   5.153   0.815   0.081 -1.0823 -0.7310 -1.7442
  787MOL0     H 3841   4.994   0.836   0.006 -0.5678 -0.3192  0.1177
  787MOL0     H 3842   5.035   0.588   0.068 -3.8420 -3.5320  2.2444
  787MOL0     H 3843   5.094   0.643   0.221 -0.4476  0.8077  0.7187
  787MOL0     H 3844   4.847   0.709   0.275 -2.5141  0.8353 -2.8707
  787MOL0     H 3845   4.885   0.536   0.245  1.4988 -1.6830 -1.2183
  787MOL0     H 3846   4.592   0.741  -0.081 -0.5616  0.6640  0.1507
  787MOL0     H 3847   4.370   0.704  -0.058 -0.8273 -2.5681 -0.0260
  787MOL0     H 3848   3.961   0.736   0.253  1.3353 -1.6280  0.1410
  787MOL0     H 3849   3.716   0.683   0.235 -1.3642  3.0567 -2.3150
  787MOL0     H 3850   3.519   0.609   0.229 -1.8498  0.1866 -0.2680
  787MOL0     H 3851   3.583   0.460   0.291 -1.0724  0.8933  0.6279
  787MOL0     H 3852   3.335   0.461   0.285  0.2791 -0.4359 -0.7858
  787MOL0     H 3853   3.409   0.331   0.202 -4.4391 -0.8083  0.6259
  787MOL0     H 3854   3.362   0.464  -0.015 -0.2959 -1.3483  0.1756
  787MOL0     H 3855   3.255   0.571   0.076  0.1566 -0.9780 -2.3374
  787MOL0     H 3856   3.221   0.276   0.042 -1.9065 -0.3091  0.0308
  787MOL0     H 3857   3.121   0.384   0.152  1.1315  1.0388  0.7456
  787MOL0     H 3858   3.175   0.436  -0.144 -2.2474  4.9741 -2.2175
  787MOL0     H 3859   3.077   0.529  -0.020  0.9219 -1.1211  3.2523
  787MOL0     H 3860   2.967   0.300   0.030  1.0058  0.1802  0.8759
  787MOL0     H 3861   3.051   0.240  -0.127 -3.0887  1.4091 -4.4169
  787MOL0     H 3862   2.826   0.447  -0.134 -0.1052 -0.2304  0.7977
  787MOL0     H 3863   2.922   0.402  -0.272 -1.7379  0.1280 -0.8653
  787MOL0     H 3864   2.753   0.219  -0.123  0.1554  2.2961  0.9435
  787MOL0     H 3865   2.875   0.167  -0.247 -0.7978  0.4424 -1.2613
  787MOL0     H 3866   3.782   0.439  -0.103  0.0946 -0.0374 -0.0504
  787MOL0     H 3867   4.015   0.518  -0.114 -0.5993 -0.8849  0.2755
  787MOL0     H 3868   4.418   0.565   0.348 -1.5250  0.9343 -0.3897
  787MOL0     H 3869   4.660   0.556   0.312 -0.2679 -1.5176 -0.1280
  787MOL0     H 3870   5.749   2.016   0.335 -0.8071 -0.0914  0.2743
  787MOL0     H 3871   5.955   2.037   0.424 -1.7707 -4.0555 -2.0757
  787MOL0     H 3872   6.410   1.987   0.619  0.2416 -0.6578  0.5850
  787MOL0     H 3873   6.601   2.024   0.780 -0.0845 -0.1174  1.8856
  787MOL0     H 3874   6.728   2.014   0.939  1.3435 -0.6638  1.6020
  787MOL0     H 3875   6.753   2.051   1.103  0.2009 -0.3706 -0.3159
  787MOL0     H 3876   6.825   2.242   0.997 -0.5244 -0.3334  2.6027
  787MOL0     H 3877   6.702   2.245   0.875  1.5163  3.2413  0.1746
  787MOL0     H 3878   6.671   2.342   1.165 -1.4866  0.5672  1.1312
  787MOL0     H 3879   6.542   2.321   1.048  0.3692  0.1620 -1.6045
  787MOL0     H 3880   6.646   2.477   0.887  1.3382 -0.4066 -0.5370
  787MOL0     H 3881   6.610   2.553   1.045 -1.4582 -1.0986  0.3426
  787MOL0     H 3882   7.020   2.606   1.034  0.4465  0.5951 -1.5146
  787MOL0     H 3883   6.328   2.117   1.082  1.0581  2.3402 -0.5841
  787MOL0     H 3884   6.121   2.093   0.915 -0.2925 -1.1170  0.7669
  788MOL0     O 3885   6.288   5.526   9.483  0.6718  0.1284  0.0682
  788MOL0     C 3886   6.327   5.447   9.393 -0.1540  0.0653 -0.1149
  788MOL0     O 3887   6.265   5.325   9.355 -0.4583 -0.4844 -0.3931
  788MOL0     C 3888   6.136   5.298   9.407 -0.7464  1.0336 -0.0328
  788MOL0     C 3889   6.123   5.255   9.539 -0.4140 -0.1481 -0.8445
  788MOL0     C 3890   6.001   5.245   9.601 -0.3947  0.2883  1.0153
  788MOL0     C 3891   5.885   5.271   9.531 -0.2940  0.2035  0.0058
  788MOL0     O 3892   5.754   5.266   9.577 -0.0667  0.2977  0.2568
  788MOL0     C 3893   5.729   5.196   9.703  0.8611 -0.4168  0.2194
  788MOL0     C 3894   5.580   5.210   9.736 -0.3038  0.4565  1.3990
  788MOL0     C 3895   5.484   5.138   9.638 -0.3293 -0.0910  0.1727
  788MOL0     C 3896   5.354   5.124   9.705  0.2146  0.9393 -0.6130
  788MOL0     C 3897   5.261   5.075   9.601 -0.0577  0.4185  0.0180
  788MOL0     C 3898   5.124   5.044   9.670 -0.4037 -0.2757  0.6356
  788MOL0     C 3899   5.015   5.040   9.567  0.0470 -0.1149  0.7675
  788MOL0     C 3900   4.885   5.028   9.637  0.7100  1.1969 -0.7342
  788MOL0     N 3901   4.780   5.014   9.541  0.2031  0.6353 -0.0693
  788MOL0     C 3902   4.732   4.900   9.480  0.1372  0.0755 -0.0613
  788MOL0     C 3903   4.608   4.932   9.431  0.5273 -0.6151 -0.1672
  788MOL0     C 3904   4.529   4.852   9.345  1.2218 -0.0184  0.0563
  788MOL0     C 3905   4.378   4.883   9.350  0.7419  0.3702  0.9884
  788MOL0     C 3906   4.304   4.836   9.226 -0.3043 -0.1208  0.4172
  788MOL0     C 3907   4.291   4.681   9.228  0.3576 -0.1875  0.1301
  788MOL0     O 3908   4.204   4.641   9.120 -0.6103  0.5719  0.1329
  788MOL0     C 3909   4.071   4.671   9.135  0.7570  0.0303  0.0956
  788MOL0     C 3910   3.995   4.626   9.022 -0.7530  1.0487 -0.8372
  788MOL0     C 3911   3.855   4.625   9.026 -1.0286 -1.2885 -0.0452
  788MOL0     C 3912   3.783   4.669   9.135 -0.2778 -0.4393 -0.0438
  788MOL0     C 3913   3.635   4.662   9.150  0.0103 -0.1262  0.1804
  788MOL0     O 3914   3.568   4.741   9.245  0.2600  0.2960 -0.1147
  788MOL0     C 3915   3.435   4.766   9.234  0.5007 -0.5535 -0.3035
  788MOL0     C 3916   3.392   4.879   9.301 -0.5985  0.2692  0.4796
  788MOL0     C 3917   3.258   4.920   9.309  0.1473  0.0563  0.3770
  788MOL0     C 3918   3.159   4.854   9.241 -0.2742 -0.1642  0.9727
  788MOL0     O 3919   3.025   4.893   9.257 -1.1125  0.3412  0.0770
  788MOL0     C 3920   2.916   4.821   9.202 -0.3311  0.5706 -0.2258
  788MOL0     C 3921   2.782   4.890   9.226  0.2855  0.0709 -0.5159
  788MOL0     C 3922   2.664   4.818   9.168  0.5563  0.4884 -0.1237
  788MOL0     C 3923   2.535   4.886   9.225  0.3855 -0.1125  0.2853
  788MOL0     C 3924   2.407   4.834   9.155 -0.4777 -0.5159 -0.3298
  788MOL0     C 3925   2.284   4.920   9.190 -0.0112  0.0105 -0.1140
  788MOL0     C 3926   2.155   4.868   9.149  0.5049  0.0644  0.6608
  788MOL0     C 3927   2.143   4.820   9.003  0.2979  0.3471 -0.1906
  788MOL0    Cl 3928   1.979   4.771   8.980  0.0883  0.0816  0.5021
  788MOL0     C 3929   3.198   4.741   9.159  0.3879  0.9065 -0.0463
  788MOL0     C 3930   3.329   4.702   9.159 -0.7503  0.0799 -0.5754
  788MOL0     O 3931   3.585   4.599   9.061 -0.3333  0.5699  0.0595
  788MOL0     C 3932   3.858   4.705   9.250 -0.2601  0.3690  0.1065
  788MOL0     C 3933   4.004   4.710   9.246 -0.4686  0.9216 -0.7471
  788MOL0     N 3934   4.581   5.057   9.479  0.2675 -0.0641 -0.3728
  788MOL0     N 3935   4.678   5.110   9.548 -0.7416  0.1034  0.2378
  788MOL0     C 3936   5.902   5.318   9.396  1.0381  0.0899 -0.7621
  788MOL0     C 3937   6.026   5.320   9.330  0.4172 -0.1638  0.6862
  788MOL0     C 3938   6.457   5.486   9.321 -0.1817 -0.4218 -0.3348
  788MOL0     C 3939   6.508   5.405   9.218  0.1868 -0.9789 -0.2887
  788MOL0     C 3940   6.636   5.434   9.162 -0.0333 -0.5116  0.1523
  788MOL0     C 3941   6.707   5.550   9.183 -0.3993  0.1053  0.2392
  788MOL0     O 3942   6.834   5.565   9.130 -0.3869  0.1259 -0.1567
  788MOL0     C 3943   6.919   5.669   9.165 -0.1862  0.4425  0.0491
  788MOL0     C 3944   7.070   5.656   9.108  0.4342 -0.5414 -0.2413
  788MOL0     C 3945   7.062   5.676   8.953  0.2852  0.3508 -0.6976
  788MOL0     C 3946   7.199   5.708   8.897 -0.6353  0.4339  0.2203
  788MOL0     C 3947   7.249   5.841   8.942  0.3300 -0.4328  0.8806
  788MOL0     C 3948   7.290   5.954   8.961  0.1220 -0.3658  0.1144
  788MOL0     C 3949   6.656   5.634   9.279  0.4656  0.2436  0.2500
  788MOL0     C 3950   6.533   5.600   9.350 -0.5631 -0.1107 -0.0714
  788MOL0     H 3951   6.205   5.241   9.608 -0.6954 -1.1335 -0.7031
  788MOL0     H 3952   6.000   5.223   9.708  0.3403 -2.1691  0.5948
  788MOL0     H 3953   5.786   5.253   9.777 -2.9385  2.3712  1.3177
  788MOL0     H 3954   5.758   5.091   9.704 -1.0656 -1.0859 -2.5366
  788MOL0     H 3955   5.548   5.314   9.725 -0.5758  0.2860  0.5373
  788MOL0     H 3956   5.570   5.171   9.838 -0.4970  0.7931  1.5119
  788MOL0     H 3957   5.525   5.040   9.613 -0.0277  0.0848 -0.0395
  788MOL0     H 3958   5.468   5.201   9.550  0.5806  1.1327  0.8473
  788MOL0     H 3959   5.348   5.050   9.785 -2.5042  0.6617 -0.9922
  788MOL0     H 3960   5.327   5.223   9.741  0.2512  1.0590 -0.9042
  788MOL0     H 3961   5.308   5.000   9.536 -1.9189  0.2695 -1.2324
  788MOL0     H 3962   5.256   5.157   9.529  0.9499  1.8108  1.4767
  788MOL0     H 3963   5.105   5.118   9.748 -0.3060  0.4520 -0.0165
  788MOL0     H 3964   5.131   4.945   9.716 -1.1391 -2.6735 -3.8457
  788MOL0     H 3965   5.017   5.126   9.500  0.1991 -0.3706  0.4402
  788MOL0     H 3966   5.040   4.960   9.497 -2.1863  0.0235 -0.2498
  788MOL0     H 3967   4.865   5.119   9.696 -0.0682 -0.1098  1.1011
  788MOL0     H 3968   4.880   4.944   9.707  4.2083  0.9723 -0.5866
  788MOL0     H 3969   4.779   4.804   9.468  1.0103  0.5847 -0.8171
  788MOL0     H 3970   4.548   4.748   9.374 -1.1985 -0.7378 -0.7558
  788MOL0     H 3971   4.564   4.877   9.244  1.2729 -1.0816 -0.2029
  788MOL0     H 3972   4.375   4.992   9.356  1.2902  0.8657 -3.5321
  788MOL0     H 3973   4.327   4.838   9.436 -1.8040 -1.5619 -1.3366
  788MOL0     H 3974   4.207   4.885   9.229  0.7826  2.1249  2.2424
  788MOL0     H 3975   4.358   4.861   9.134 -1.7092  0.6215 -0.2243
  788MOL0     H 3976   4.249   4.647   9.323 -0.9334  0.7932 -0.0553
  788MOL0     H 3977   4.389   4.633   9.216  0.5511  0.6491 -2.0897
  788MOL0     H 3978   4.045   4.584   8.936 -1.1875  0.3109 -0.7355
  788MOL0     H 3979   3.797   4.578   8.947  1.0792 -0.2891 -2.3173
  788MOL0     H 3980   3.475   4.930   9.350 -0.8375 -0.0097  1.1810
  788MOL0     H 3981   3.226   5.003   9.372  0.4437  2.7532 -2.7558
  788MOL0     H 3982   2.918   4.725   9.256 -2.2880  0.9126  0.5194
  788MOL0     H 3983   2.946   4.804   9.098  1.2321 -1.4621  0.4636
  788MOL0     H 3984   2.775   4.984   9.171  0.3480  2.5516  3.3281
  788MOL0     H 3985   2.758   4.908   9.332 -0.9839 -2.9839 -0.1953
  788MOL0     H 3986   2.685   4.712   9.189  1.7945  0.7201 -0.1055
  788MOL0     H 3987   2.656   4.838   9.061 -3.9873  0.9794  0.1413
  788MOL0     H 3988   2.529   4.875   9.333  1.4851 -0.6611  0.2989
  788MOL0     H 3989   2.547   4.993   9.203  1.0732  0.1682  1.8720
  788MOL0     H 3990   2.379   4.731   9.176  0.4953 -1.0683 -1.6372
  788MOL0     H 3991   2.424   4.839   9.047  3.6565 -0.5903  0.1634
  788MOL0     H 3992   2.294   5.018   9.144  3.0370 -0.4932 -0.7990
  788MOL0     H 3993   2.281   4.942   9.298  3.5000 -2.4083  0.6651
  788MOL0     H 3994   2.141   4.776   9.208  0.6625  0.3972  1.2254
  788MOL0     H 3995   2.076   4.942   9.163  0.9506  0.5842  0.4247
  788MOL0     H 3996   2.216   4.739   8.996  0.7381  0.7297 -0.0682
  788MOL0     H 3997   2.161   4.902   8.933  2.5916  0.8847  0.9515
  788MOL0     H 3998   3.128   4.682   9.100  0.9059  1.1507 -0.9321
  788MOL0     H 3999   3.354   4.614   9.101 -1.4713 -0.5467  0.0417
  788MOL0     H 4000   3.806   4.726   9.342  1.9395 -0.5878  1.6605
  788MOL0     H 4001   4.051   4.729   9.342 -1.2843 -0.3919 -0.0584
  788MOL0     H 4002   5.814   5.349   9.340 -1.7208 -1.6211  2.2512
  788MOL0     H 4003   6.035   5.361   9.230  0.5227 -1.4848  0.1241
  788MOL0     H 4004   6.460   5.316   9.177 -0.1676 -0.9479  0.0549
  788MOL0     H 4005   6.684   5.372   9.087  1.7174  1.8850 -0.8686
  788MOL0     H 4006   6.922   5.686   9.273 -1.1354 -2.2104  0.5656
  788MOL0     H 4007   6.875   5.764   9.133 -0.1986  0.3569 -0.1921
  788MOL0     H 4008   7.127   5.738   9.153 -0.8652  0.8808 -1.1000
  788MOL0     H 4009   7.128   5.569   9.142  2.1267  0.5233 -0.2928
  788MOL0     H 4010   6.990   5.752   8.920  0.8828  0.7931 -0.9861
  788MOL0     H 4011   7.025   5.579   8.919  1.8902 -0.3568 -0.4842
  788MOL0     H 4012   7.263   5.624   8.926 -2.2310 -0.4956  1.1776
  788MOL0     H 4013   7.193   5.714   8.787  1.1277 -0.7423  0.0100
  788MOL0     H 4014   7.334   6.052   8.962  0.3456 -0.4590 -0.3225
  788MOL0     H 4015   6.717   5.713   9.321  4.1503 -1.6810 -1.0324
  788MOL0     H 4016   6.511   5.662   9.436  3.5835 -2.9450  3.4866
  789MOL0     O 4017   5.390  10.652   8.632  0.4634 -0.4029  0.2223
  789MOL0     C 4018   5.399  10.765   8.577  0.2212  0.5035  1.1363
  789MOL0     O 4019   5.294  10.826   8.502 -0.5533 -0.7391 -0.6431
  789MOL0     C 4020   5.181  10.749   8.486 -0.5266  0.3776  0.0699
  789MOL0     C 4021   5.184  10.628   8.424  0.1191  0.1110  0.1538
  789MOL0     C 4022   5.064  10.559   8.384 -0.4265 -0.7707  0.4544
  789MOL0     C 4023   4.943  10.613   8.412  0.3362 -0.6003 -0.3840
  789MOL0     O 4024   4.836  10.542   8.368  0.8290  0.4591 -0.2282
  789MOL0     C 4025   4.698  10.582   8.394  0.3393 -0.3295 -1.0035
  789MOL0     C 4026   4.596  10.476   8.347  0.0046 -0.4328  0.1449
  789MOL0     C 4027   4.444  10.510   8.367  0.5451 -0.5386 -0.2304
  789MOL0     C 4028   4.354  10.409   8.298 -0.0765  0.1390 -0.1431
  789MOL0     C 4029   4.207  10.447   8.308  0.0915  0.5815 -0.6119
  789MOL0     C 4030   4.155  10.402   8.452  0.2774  0.9468 -0.6801
  789MOL0     C 4031   4.002  10.370   8.458  0.3697  0.0336  0.6715
  789MOL0     C 4032   3.952  10.336   8.597 -0.2704 -0.5342  0.3705
  789MOL0     N 4033   3.806  10.317   8.602 -0.3056 -0.7734  0.1527
  789MOL0     C 4034   3.736  10.247   8.689 -0.0262  0.1676 -1.2125
  789MOL0     C 4035   3.602  10.276   8.661 -0.4186 -0.0313 -0.5179
  789MOL0     C 4036   3.490  10.212   8.727 -0.4099  0.5277  0.8293
  789MOL0     C 4037   3.454  10.086   8.646 -0.2226 -0.1055  0.1089
  789MOL0     C 4038   3.324  10.019   8.689 -0.2865  0.1762  0.0424
  789MOL0     C 4039   3.305   9.892   8.618  0.4446  0.6626  0.0900
  789MOL0     O 4040   3.206   9.807   8.676  0.5704  0.2286 -0.1048
  789MOL0     C 4041   3.079   9.831   8.644  0.5245  0.2385 -0.0604
  789MOL0     C 4042   2.998   9.719   8.669  0.0399 -0.7549 -0.1721
  789MOL0     C 4043   2.861   9.735   8.636 -0.4211  0.2092 -0.3112
  789MOL0     C 4044   2.802   9.849   8.581 -0.5778 -1.2416  0.5052
  789MOL0     C 4045   2.656   9.854   8.552  0.9057  0.5894  0.0878
  789MOL0     O 4046   2.573   9.758   8.617 -0.4366 -0.0200  0.1743
  789MOL0     C 4047   2.444   9.746   8.576 -0.6451 -0.2899 -0.0597
  789MOL0     C 4048   2.412   9.681   8.452 -0.9419  0.8691 -0.3793
  789MOL0     C 4049   2.286   9.689   8.402  1.1745  0.6253  0.6121
  789MOL0     C 4050   2.177   9.745   8.478 -0.4059  0.5516  0.6301
  789MOL0     O 4051   2.052   9.712   8.423 -0.1520 -0.0666 -0.1329
  789MOL0     C 4052   1.947   9.727   8.516 -0.0232  1.0665 -0.0999
  789MOL0     C 4053   1.818   9.721   8.432 -0.3040 -0.4096 -0.1758
  789MOL0     C 4054   1.694   9.758   8.512  0.1463 -0.4743  0.0856
  789MOL0     C 4055   1.571   9.734   8.430  0.7670  0.2354  0.1427
  789MOL0     C 4056   1.450   9.798   8.488  0.1107 -0.5439 -0.4066
  789MOL0     C 4057   1.321   9.763   8.418  0.0571 -0.4738 -0.3879
  789MOL0     C 4058   1.199   9.832   8.484  0.2269 -0.1387  0.1418
  789MOL0     C 4059   1.068   9.798   8.417  0.1884 -0.4264 -0.0878
  789MOL0    Cl 4060   0.939   9.853   8.523  0.0442 -0.4013 -0.1320
  789MOL0     C 4061   2.213   9.813   8.589  0.9311  0.4779  0.0818
  789MOL0     C 4062   2.338   9.810   8.642 -0.2444 -1.0572 -0.0920
  789MOL0     O 4063   2.616   9.935   8.472 -0.1712 -0.3727  0.1810
  789MOL0     C 4064   2.886   9.958   8.546 -0.3157 -0.9264  0.1882
  789MOL0     C 4065   3.023   9.945   8.574 -0.4125  0.0043 -0.0932
  789MOL0     N 4066   3.600  10.377   8.567 -0.8518 -0.0184  0.1115
  789MOL0     N 4067   3.721  10.400   8.538  0.5726 -0.2546  0.0092
  789MOL0     C 4068   4.940  10.740   8.473 -0.1329 -0.6202  0.2319
  789MOL0     C 4069   5.056  10.810   8.500 -1.1196  0.7681 -0.6626
  789MOL0     C 4070   5.524  10.840   8.586  0.3729 -0.3012 -0.1547
  789MOL0     C 4071   5.620  10.799   8.676  1.2440 -0.7334 -0.0230
  789MOL0     C 4072   5.740  10.869   8.686 -0.4079  0.3798 -0.2103
  789MOL0     C 4073   5.776  10.972   8.596  0.4137 -0.5040  0.7722
  789MOL0     O 4074   5.897  11.038   8.584  0.6488  0.0458  0.1880
  789MOL0     C 4075   6.002  10.984   8.655 -0.5425  0.4671 -0.7180
  789MOL0     C 4076   6.140  11.046   8.616 -0.6292 -0.1533  0.1051
  789MOL0     C 4077   6.238  11.007   8.724 -0.1252  0.0450 -0.2826
  789MOL0     C 4078   6.370  11.082   8.691 -0.3837  0.1215 -0.1182
  789MOL0     C 4079   6.471  11.049   8.788  0.3034  0.5918 -0.5725
  789MOL0     C 4080   6.575  11.036   8.854  0.3964 -0.6661 -0.0222
  789MOL0     C 4081   5.676  11.004   8.498 -0.4274  0.7483  0.3891
  789MOL0     C 4082   5.546  10.948   8.496 -0.9933 -0.4580 -0.3009
  789MOL0     H 4083   5.278  10.586   8.389  0.0261 -0.5935  0.7301
  789MOL0     H 4084   5.078  10.463   8.335 -1.4559 -0.5029 -0.4214
  789MOL0     H 4085   4.683  10.677   8.342  0.6889 -0.6154 -1.6434
  789MOL0     H 4086   4.674  10.598   8.500  1.9435  1.0870 -0.8080
  789MOL0     H 4087   4.627  10.380   8.391  0.1520 -0.9299 -0.9984
  789MOL0     H 4088   4.617  10.457   8.241  3.0745  0.6379  0.4533
  789MOL0     H 4089   4.416  10.612   8.340  1.1628 -0.9722 -2.7850
  789MOL0     H 4090   4.429  10.504   8.475  3.7990  0.1122  0.3366
  789MOL0     H 4091   4.381  10.406   8.192  1.7523  3.9667  0.0254
  789MOL0     H 4092   4.374  10.313   8.347  0.0984  0.2344 -0.0255
  789MOL0     H 4093   4.150  10.384   8.239 -0.9064  0.0041  0.7008
  789MOL0     H 4094   4.189  10.555   8.300 -0.9530  0.4982  0.3584
  789MOL0     H 4095   4.179  10.472   8.533  0.1494  0.7327 -0.4545
  789MOL0     H 4096   4.205  10.308   8.480 -3.2340 -0.9703 -0.2906
  789MOL0     H 4097   3.942  10.448   8.410  1.9890  1.8456  1.4300
  789MOL0     H 4098   3.997  10.278   8.399 -1.8667  1.0369 -0.8076
  789MOL0     H 4099   3.983  10.423   8.657 -1.0132  0.8312 -1.1599
  789MOL0     H 4100   4.013  10.252   8.632  1.8300  0.1808 -1.3337
  789MOL0     H 4101   3.780  10.178   8.760 -0.4101 -1.6421 -2.6337
  789MOL0     H 4102   3.403  10.278   8.721  1.3362  2.8294 -0.8598
  789MOL0     H 4103   3.507  10.185   8.832  1.3285 -2.3639 -0.0827
  789MOL0     H 4104   3.537  10.019   8.668  2.6164  3.3685  0.9898
  789MOL0     H 4105   3.452  10.105   8.539  0.6836  1.1009  0.2818
  789MOL0     H 4106   3.325  10.005   8.797  0.1029 -2.3023 -0.2161
  789MOL0     H 4107   3.245  10.091   8.662  1.0789  1.4888 -0.6074
  789MOL0     H 4108   3.389   9.822   8.618 -0.7552 -0.8304 -0.4440
  789MOL0     H 4109   3.293   9.902   8.509  1.4706 -1.5551 -0.2810
  789MOL0     H 4110   3.033   9.623   8.703 -0.7162 -1.6785 -1.8455
  789MOL0     H 4111   2.797   9.651   8.660 -0.1956  0.5903  1.7640
  789MOL0     H 4112   2.495   9.641   8.395  0.4571 -1.5122  2.9711
  789MOL0     H 4113   2.257   9.646   8.307  2.3838 -0.1859  0.5888
  789MOL0     H 4114   1.947   9.820   8.574  2.7800  1.6491 -0.8844
  789MOL0     H 4115   1.952   9.650   8.593  1.4293  0.4702 -0.7654
  789MOL0     H 4116   1.815   9.623   8.383  1.1688 -1.0412  0.9324
  789MOL0     H 4117   1.822   9.800   8.355 -0.8551 -0.4899 -0.2874
  789MOL0     H 4118   1.693   9.867   8.526 -0.0855 -0.4261 -0.2658
  789MOL0     H 4119   1.688   9.701   8.604  2.5328 -0.8464  0.0769
  789MOL0     H 4120   1.586   9.775   8.330  0.4421 -1.5968 -0.7066
  789MOL0     H 4121   1.560   9.625   8.422  2.6245  0.1107 -1.3857
  789MOL0     H 4122   1.465   9.905   8.473 -1.8622  0.3172  2.7036
  789MOL0     H 4123   1.423   9.779   8.592  0.3337  3.6114  0.5655
  789MOL0     H 4124   1.309   9.654   8.412  0.7491 -0.4861 -1.9054
  789MOL0     H 4125   1.315   9.810   8.320  0.4768  3.1410  1.1661
  789MOL0     H 4126   1.194   9.801   8.588 -0.4252 -1.5692 -0.3005
  789MOL0     H 4127   1.215   9.940   8.491 -0.5942 -0.0214  0.2752
  789MOL0     H 4128   1.063   9.689   8.413 -0.8242 -0.3792 -0.3116
  789MOL0     H 4129   1.058   9.838   8.315  1.4271  2.7986  0.9326
  789MOL0     H 4130   2.136   9.866   8.645 -0.6561 -1.5065 -0.1372
  789MOL0     H 4131   2.355   9.866   8.733 -2.0014 -2.1130  0.9476
  789MOL0     H 4132   2.837  10.041   8.496 -1.5015 -1.1844  0.8814
  789MOL0     H 4133   3.091  10.016   8.529 -2.6836  2.9233  0.7646
  789MOL0     H 4134   4.840  10.782   8.486 -0.8187 -1.2483 -2.4383
  789MOL0     H 4135   5.043  10.911   8.538 -0.1141  0.8514 -0.5300
  789MOL0     H 4136   5.591  10.715   8.737  3.8100 -0.4080  1.8060
  789MOL0     H 4137   5.812  10.836   8.760  1.6265  1.0939 -1.7899
  789MOL0     H 4138   6.025  10.878   8.641  1.8915  1.1122 -2.2327
  789MOL0     H 4139   5.981  11.006   8.760  0.7391  1.4245 -0.6295
  789MOL0     H 4140   6.170  10.997   8.523  0.9187 -0.7566  0.8757
  789MOL0     H 4141   6.138  11.155   8.605 -1.6612 -0.1068  0.6701
  789MOL0     H 4142   6.251  10.899   8.712 -0.0245  0.0357 -0.0913
  789MOL0     H 4143   6.188  11.033   8.818  1.5798  2.2683  0.1060
  789MOL0     H 4144   6.398  11.059   8.588 -2.4726  1.8159 -1.1264
  789MOL0     H 4145   6.365  11.191   8.695  1.5643  0.2222  0.3962
  789MOL0     H 4146   6.667  11.027   8.910  0.1229 -0.8842  0.4004
  789MOL0     H 4147   5.693  11.078   8.420 -1.8369 -0.4484 -1.1207
  789MOL0     H 4148   5.462  10.981   8.435  0.9646  0.2653 -2.7653
  790MOL0     O 4149   0.067   0.982   8.140  0.5145  0.1679  0.2838
  790MOL0     C 4150   0.160   1.041   8.086  0.5351 -0.7575 -1.0103
  790MOL0     O 4151   0.161   1.182   8.081 -0.6704  0.2111  0.1864
  790MOL0     C 4152   0.039   1.245   8.101 -0.6851 -0.3554 -0.1595
  790MOL0     C 4153   0.020   1.339   8.204  0.0394  0.0720  0.3884
  790MOL0     C 4154  -0.108   1.392   8.237 -0.2950  0.3207 -0.3683
  790MOL0     C 4155  -0.218   1.352   8.161  0.4369  0.3706 -0.1926
  790MOL0     O 4156  -0.336   1.395   8.219  0.2562  0.1238  0.0786
  790MOL0     C 4157  -0.458   1.356   8.149  0.2857  1.0996  0.0090
  790MOL0     C 4158  -0.578   1.428   8.199  0.1630 -0.5581  0.3703
  790MOL0     C 4159  -0.610   1.403   8.346  0.1001 -0.0419 -1.3267
  790MOL0     C 4160  -0.738   1.481   8.392  0.6675 -0.0291  0.0455
  790MOL0     C 4161  -0.778   1.459   8.545 -0.3343 -0.7596  0.0934
  790MOL0     C 4162  -0.917   1.523   8.579  0.3293 -0.1177  0.4425
  790MOL0     C 4163  -0.913   1.681   8.544 -0.0280  0.3618  0.2086
  790MOL0     C 4164  -1.028   1.755   8.621 -0.7484 -0.9052 -1.2094
  790MOL0     N 4165  -1.149   1.682   8.633 -0.7050 -0.4995 -0.0732
  790MOL0     C 4166  -1.184   1.602   8.743 -0.7817 -0.5008  0.9139
  790MOL0     C 4167  -1.296   1.534   8.702  0.2385 -1.0663  0.8864
  790MOL0     C 4168  -1.387   1.462   8.788 -0.1513  0.5261 -0.6872
  790MOL0     C 4169  -1.526   1.433   8.726  0.1905  0.1919  0.6786
  790MOL0     C 4170  -1.609   1.344   8.821  0.0148 -0.1678  0.3367
  790MOL0     C 4171  -1.753   1.324   8.776 -0.0350  0.1297  0.1989
  790MOL0     O 4172  -1.835   1.277   8.886 -0.5483 -0.8629 -0.2865
  790MOL0     C 4173  -1.950   1.217   8.854  1.0499 -0.5762  0.1323
  790MOL0     C 4174  -2.013   1.171   8.972 -0.5057 -0.1498  0.1463
  790MOL0     C 4175  -2.137   1.100   8.966 -0.4887 -1.0903  0.4521
  790MOL0     C 4176  -2.199   1.084   8.839 -0.3021 -0.2611 -0.5091
  790MOL0     C 4177  -2.338   1.032   8.839  0.5524  0.2977 -0.9920
  790MOL0     O 4178  -2.428   1.078   8.745 -0.0786  0.9722 -0.0062
  790MOL0     C 4179  -2.562   1.063   8.749  1.6037  0.1608 -0.0372
  790MOL0     C 4180  -2.634   1.153   8.668 -0.0507  0.3208  0.1309
  790MOL0     C 4181  -2.775   1.154   8.667  0.0693  0.2704 -0.3967
  790MOL0     C 4182  -2.846   1.061   8.741  0.3945  0.5147  0.9384
  790MOL0     O 4183  -2.986   1.063   8.737 -0.5925 -0.2340  0.2787
  790MOL0     C 4184  -3.063   0.978   8.823  0.4331 -0.1148 -1.3834
  790MOL0     C 4185  -3.219   1.008   8.799 -0.2219  0.7525  0.5993
  790MOL0     C 4186  -3.312   0.917   8.865  0.2738  0.2648 -0.7821
  790MOL0     C 4187  -3.451   0.967   8.834  0.2142  1.0132  0.5773
  790MOL0     C 4188  -3.555   0.899   8.927 -1.1125 -0.2796 -0.3585
  790MOL0     C 4189  -3.690   0.961   8.899 -0.5099  0.6919  0.8783
  790MOL0     C 4190  -3.799   0.885   8.974  0.6431  0.1563 -0.7175
  790MOL0     C 4191  -3.927   0.962   9.015 -0.5513  0.1961 -0.1236
  790MOL0    Cl 4192  -4.055   0.836   9.018 -0.1173 -0.1928 -0.2500
  790MOL0     C 4193  -2.782   0.968   8.814 -0.3201 -0.4194 -0.0084
  790MOL0     C 4194  -2.642   0.972   8.821 -0.2604  0.9691  0.2532
  790MOL0     O 4195  -2.365   0.961   8.941 -0.3180  0.4684  0.0969
  790MOL0     C 4196  -2.138   1.130   8.725  0.5657  0.0433 -0.2270
  790MOL0     C 4197  -2.013   1.187   8.734 -0.0192 -0.0515  0.6307
  790MOL0     N 4198  -1.316   1.560   8.564 -0.9192  0.0165 -0.5210
  790MOL0     N 4199  -1.226   1.648   8.525 -0.0890 -0.2791  0.3726
  790MOL0     C 4200  -0.200   1.264   8.056 -0.6015 -0.0960 -0.1639
  790MOL0     C 4201  -0.072   1.216   8.027 -0.1761  1.1447 -0.1684
  790MOL0     C 4202   0.275   0.954   8.052  0.4493 -0.6517  0.4969
  790MOL0     C 4203   0.251   0.819   8.001 -0.2184 -0.2791 -0.8744
  790MOL0     C 4204   0.359   0.748   7.954  0.1265  0.5871 -0.4321
  790MOL0     C 4205   0.486   0.801   7.939  0.4349 -0.4883  0.4633
  790MOL0     O 4206   0.585   0.721   7.900  0.4923  0.1002  0.6723
  790MOL0     C 4207   0.714   0.781   7.880  0.3024  0.8079  0.3842
  790MOL0     C 4208   0.798   0.659   7.836 -0.4927 -0.3919 -0.6259
  790MOL0     C 4209   0.768   0.602   7.696  0.5046 -0.4436  0.1915
  790MOL0     C 4210   0.830   0.460   7.672 -0.0134  0.7078  0.6741
  790MOL0     C 4211   0.971   0.446   7.707 -0.1201  0.5016  0.2499
  790MOL0     C 4212   1.079   0.410   7.742 -0.2886 -0.3940 -0.1274
  790MOL0     C 4213   0.503   0.938   7.970  0.5349  1.0722 -0.8186
  790MOL0     C 4214   0.401   1.014   8.038 -0.5073  0.1886 -0.0847
  790MOL0     H 4215   0.103   1.358   8.272 -2.5997  0.2802  3.8287
  790MOL0     H 4216  -0.135   1.441   8.330 -2.4182  2.5198 -2.0373
  790MOL0     H 4217  -0.466   1.251   8.178  0.2299  1.2830  0.6888
  790MOL0     H 4218  -0.449   1.370   8.041  1.3846  2.4511  0.2493
  790MOL0     H 4219  -0.660   1.398   8.133  0.1722 -1.3909  0.7311
  790MOL0     H 4220  -0.564   1.533   8.171  3.5631 -1.6113 -2.6954
  790MOL0     H 4221  -0.524   1.437   8.405 -1.3175  2.3252 -0.4680
  790MOL0     H 4222  -0.625   1.296   8.364 -1.1453  0.5230  1.4149
  790MOL0     H 4223  -0.723   1.588   8.377  2.0128 -0.1622  0.3043
  790MOL0     H 4224  -0.832   1.456   8.343 -0.2561  1.8140  0.7933
  790MOL0     H 4225  -0.697   1.507   8.600  2.2655 -0.9862 -3.1632
  790MOL0     H 4226  -0.771   1.356   8.578  1.4111 -0.3285  1.2056
  790MOL0     H 4227  -0.945   1.506   8.684 -1.7414 -0.7543 -0.1726
  790MOL0     H 4228  -0.994   1.479   8.515 -0.8206  2.4292 -0.0083
  790MOL0     H 4229  -0.821   1.726   8.583  0.0783  0.0066  0.3614
  790MOL0     H 4230  -0.928   1.703   8.437 -0.9607 -1.3155 -0.0286
  790MOL0     H 4231  -1.055   1.850   8.575  1.4040  0.3800  0.0343
  790MOL0     H 4232  -0.993   1.778   8.722  0.9935 -0.6643 -1.8260
  790MOL0     H 4233  -1.137   1.597   8.840  1.7263 -0.4322 -0.2248
  790MOL0     H 4234  -1.397   1.514   8.883 -0.8508 -0.6215 -0.1163
  790MOL0     H 4235  -1.342   1.365   8.810 -0.9816  0.4228  0.6382
  790MOL0     H 4236  -1.506   1.372   8.638 -2.1938  0.0410  0.1752
  790MOL0     H 4237  -1.568   1.529   8.695  1.4092  1.1495  1.8800
  790MOL0     H 4238  -1.570   1.243   8.838 -0.1926 -0.6855 -1.9255
  790MOL0     H 4239  -1.606   1.396   8.917 -0.3623 -0.0495  0.2852
  790MOL0     H 4240  -1.748   1.271   8.681  0.2170  0.5449 -0.0238
  790MOL0     H 4241  -1.799   1.419   8.747 -0.2933  0.7055  2.2790
  790MOL0     H 4242  -1.962   1.205   9.062 -2.1356  3.2719 -0.0780
  790MOL0     H 4243  -2.178   1.085   9.065  0.9879  0.4740  1.3550
  790MOL0     H 4244  -2.574   1.228   8.616  1.6180 -1.4306 -0.5797
  790MOL0     H 4245  -2.838   1.228   8.618 -0.1685 -0.2974 -0.9553
  790MOL0     H 4246  -3.047   0.993   8.931  0.8666  0.2148 -1.4931
  790MOL0     H 4247  -3.055   0.870   8.813 -0.6479 -0.5147  1.2668
  790MOL0     H 4248  -3.231   1.009   8.691 -0.7504 -0.0074  0.6441
  790MOL0     H 4249  -3.237   1.111   8.830  3.8655  1.6711  0.5838
  790MOL0     H 4250  -3.296   0.911   8.973 -4.1402 -3.1977 -0.0189
  790MOL0     H 4251  -3.293   0.814   8.833 -0.1177 -0.6076  1.5402
  790MOL0     H 4252  -3.449   1.075   8.846  0.6886  1.0071  0.5668
  790MOL0     H 4253  -3.487   0.945   8.733 -3.8429 -0.7220  2.1665
  790MOL0     H 4254  -3.535   0.925   9.031 -0.9598 -2.2641  0.1420
  790MOL0     H 4255  -3.548   0.790   8.922 -1.1915 -0.4103  1.6838
  790MOL0     H 4256  -3.693   0.958   8.790  4.6188  0.1118  0.5284
  790MOL0     H 4257  -3.679   1.066   8.928 -1.5875  1.1487 -0.2917
  790MOL0     H 4258  -3.824   0.795   8.916 -2.5469  0.0830  0.6125
  790MOL0     H 4259  -3.762   0.841   9.067 -2.2142 -1.4493 -0.2465
  790MOL0     H 4260  -3.950   1.043   8.944 -2.7231  1.4999  1.9225
  790MOL0     H 4261  -3.917   1.007   9.114 -2.3241 -0.9294  0.6190
  790MOL0     H 4262  -2.830   0.897   8.881 -2.0111 -0.0407 -0.7656
  790MOL0     H 4263  -2.599   0.882   8.866 -1.8260 -0.0429 -0.2012
  790MOL0     H 4264  -2.179   1.101   8.629 -0.7999 -1.5641  0.7897
  790MOL0     H 4265  -1.966   1.233   8.647  1.2095  0.2840  1.4426
  790MOL0     H 4266  -0.287   1.235   7.997  0.1524 -0.7331 -1.0080
  790MOL0     H 4267  -0.058   1.146   7.945 -1.4258  0.8735 -0.1801
  790MOL0     H 4268   0.156   0.768   8.014  0.4447 -1.4087 -0.3165
  790MOL0     H 4269   0.338   0.644   7.934  0.7984  0.5123 -0.7996
  790MOL0     H 4270   0.759   0.816   7.973  1.3298 -4.3661  2.2079
  790MOL0     H 4271   0.696   0.862   7.809 -0.5975  0.9193  0.7195
  790MOL0     H 4272   0.899   0.699   7.837 -0.8767  0.5846  0.4361
  790MOL0     H 4273   0.785   0.579   7.910 -1.5252  0.2225 -0.1182
  790MOL0     H 4274   0.809   0.658   7.611  0.2034 -4.0688 -2.6163
  790MOL0     H 4275   0.660   0.587   7.688  0.4814 -1.1086  1.4142
  790MOL0     H 4276   0.762   0.392   7.724 -0.7846 -0.1193 -1.2953
  790MOL0     H 4277   0.821   0.440   7.565 -1.2749 -2.1742  1.2267
  790MOL0     H 4278   1.174   0.370   7.771 -0.7104 -2.5156 -1.4610
  790MOL0     H 4279   0.595   0.994   7.958  1.0650  1.5792  3.8282
  790MOL0     H 4280   0.414   1.118   8.067  1.0927 -0.1398  0.4870
  791MOL0     O 4281   5.789   9.844   2.720 -0.9187 -0.5834  0.5540
  791MOL0     C 4282   5.853   9.770   2.794 -0.7108  0.7268 -0.2813
  791MOL0     O 4283   5.827   9.634   2.809 -0.3691 -0.2816  0.2474
  791MOL0     C 4284   5.727   9.579   2.734  0.6809  0.5022 -0.0610
  791MOL0     C 4285   5.741   9.555   2.599  0.1790  0.6780 -0.8428
  791MOL0     C 4286   5.645   9.473   2.533  0.2990  0.0459  0.4942
  791MOL0     C 4287   5.526   9.434   2.598  0.0731 -0.3423 -1.1675
  791MOL0     O 4288   5.429   9.362   2.535 -0.2345  0.1271  0.7150
  791MOL0     C 4289   5.420   9.334   2.391 -0.4728 -0.2728 -0.0780
  791MOL0     C 4290   5.306   9.235   2.360  0.1045  1.0621 -0.0362
  791MOL0     C 4291   5.196   9.230   2.461 -1.0433  0.4848 -0.2788
  791MOL0     C 4292   5.083   9.134   2.444 -0.4547  0.1453 -0.5870
  791MOL0     C 4293   4.981   9.176   2.335  0.1277  0.0301 -0.5763
  791MOL0     C 4294   4.858   9.088   2.339  0.4171 -0.1438  0.2284
  791MOL0     C 4295   4.772   9.136   2.217  0.1214  0.1184 -0.3965
  791MOL0     C 4296   4.636   9.071   2.209  0.4782  0.4174 -0.6127
  791MOL0     N 4297   4.557   9.113   2.091  0.0700  0.0031 -0.3644
  791MOL0     C 4298   4.441   9.183   2.096  0.3187  0.4461 -0.6091
  791MOL0     C 4299   4.392   9.189   1.969 -0.2207 -0.2826 -0.0010
  791MOL0     C 4300   4.276   9.261   1.929  0.1415  0.6801  0.6054
  791MOL0     C 4301   4.154   9.167   1.923  0.0246  0.0029  0.1867
  791MOL0     C 4302   4.177   9.055   1.814  0.9846  0.0858 -0.2196
  791MOL0     C 4303   4.181   9.123   1.670 -0.1014  0.6017  0.4870
  791MOL0     O 4304   4.057   9.175   1.637  0.2624 -0.0168  0.7532
  791MOL0     C 4305   4.030   9.209   1.511 -0.9023  0.4257  0.3103
  791MOL0     C 4306   3.902   9.198   1.457 -1.0722  0.3984 -0.0130
  791MOL0     C 4307   3.872   9.242   1.332 -0.0368  0.2722  0.1386
  791MOL0     C 4308   3.962   9.326   1.265 -0.5212  0.3595  0.4341
  791MOL0     C 4309   3.927   9.402   1.149  0.2370 -0.3623 -0.2893
  791MOL0     O 4310   3.789   9.423   1.140 -0.4047 -0.3345  0.3680
  791MOL0     C 4311   3.736   9.488   1.026  0.0864 -0.1847 -0.5452
  791MOL0     C 4312   3.695   9.618   1.046  0.2887 -0.5346 -0.2459
  791MOL0     C 4313   3.655   9.696   0.928 -0.4922 -0.0045 -0.1671
  791MOL0     C 4314   3.636   9.633   0.808 -0.1918  0.6413 -0.0841
  791MOL0     O 4315   3.582   9.715   0.712  0.3127  0.8708 -0.0185
  791MOL0     C 4316   3.536   9.652   0.590 -0.3101  0.5271 -0.1081
  791MOL0     C 4317   3.474   9.757   0.497  0.3594  0.0914 -0.0595
  791MOL0     C 4318   3.348   9.823   0.559 -0.4928  0.2745  0.2623
  791MOL0     C 4319   3.226   9.747   0.504  0.2870 -0.1381 -0.0822
  791MOL0     C 4320   3.100   9.812   0.561  0.0462 -0.4536  0.3870
  791MOL0     C 4321   2.968   9.747   0.516 -0.0947 -0.0941  1.0352
  791MOL0     C 4322   2.855   9.844   0.562 -0.5822 -0.4660 -0.2030
  791MOL0     C 4323   2.830   9.939   0.448 -0.3463  0.7702  1.0397
  791MOL0    Cl 4324   2.698   9.877   0.341  0.0494 -0.5270  0.2438
  791MOL0     C 4325   3.667   9.494   0.799 -0.2992  1.0383  0.0913
  791MOL0     C 4326   3.710   9.421   0.906  0.0723  0.7597 -0.3223
  791MOL0     O 4327   4.017   9.425   1.063  0.1913 -0.4469  0.8087
  791MOL0     C 4328   4.093   9.333   1.316  0.1833  0.4776 -0.5842
  791MOL0     C 4329   4.123   9.277   1.436 -0.3021 -0.1963  0.8614
  791MOL0     N 4330   4.482   9.120   1.888 -0.0691 -1.0830 -0.3248
  791MOL0     N 4331   4.575   9.064   1.962 -0.2481 -0.6341 -0.3278
  791MOL0     C 4332   5.509   9.464   2.736  0.2678 -0.0752  0.5924
  791MOL0     C 4333   5.604   9.536   2.803 -1.0116  0.3091  0.0650
  791MOL0     C 4334   5.959   9.838   2.871  0.5832 -0.4459 -0.9153
  791MOL0     C 4335   6.020   9.768   2.980  0.7479  0.2793  0.3547
  791MOL0     C 4336   6.120   9.830   3.057  0.2625  0.7480 -0.3751
  791MOL0     C 4337   6.161   9.962   3.028 -1.0545  0.6034  0.8367
  791MOL0     O 4338   6.259  10.017   3.109  0.7741 -0.1492 -0.2950
  791MOL0     C 4339   6.311  10.152   3.090 -0.8545  0.3279  0.4115
  791MOL0     C 4340   6.385  10.213   3.205 -0.1234  0.2180 -0.2444
  791MOL0     C 4341   6.384  10.372   3.203  0.0114 -0.0460  0.5545
  791MOL0     C 4342   6.461  10.442   3.083 -1.0935 -0.5500  0.1198
  791MOL0     C 4343   6.601  10.409   3.085  0.8464 -0.4547  0.4845
  791MOL0     C 4344   6.717  10.394   3.081 -0.6446  0.7803 -0.5723
  791MOL0     C 4345   6.105  10.029   2.921 -0.0295 -0.7201  0.9645
  791MOL0     C 4346   6.006   9.965   2.843 -0.6169  0.5401  0.1378
  791MOL0     H 4347   5.830   9.595   2.551  0.4676  1.5510  0.3699
  791MOL0     H 4348   5.666   9.456   2.428  0.8259  3.2175 -0.0137
  791MOL0     H 4349   5.519   9.294   2.368 -0.7303 -0.7635 -0.3408
  791MOL0     H 4350   5.413   9.425   2.331 -0.6562  0.9293  1.6940
  791MOL0     H 4351   5.350   9.135   2.354 -2.4000 -0.3537  2.6723
  791MOL0     H 4352   5.255   9.261   2.267  1.3819 -2.2030 -1.8055
  791MOL0     H 4353   5.155   9.331   2.461 -0.1606  0.8829 -2.0792
  791MOL0     H 4354   5.234   9.208   2.562 -2.6477 -0.4385  0.1503
  791MOL0     H 4355   5.125   9.038   2.413  0.6245  1.3368 -3.0651
  791MOL0     H 4356   5.041   9.121   2.544  2.2225 -1.1337  0.4931
  791MOL0     H 4357   5.028   9.157   2.238 -0.3271 -4.0144 -0.1763
  791MOL0     H 4358   4.963   9.282   2.353  0.3069 -0.2852  1.6734
  791MOL0     H 4359   4.814   9.107   2.437  0.8370 -0.3764  0.4652
  791MOL0     H 4360   4.893   8.984   2.330 -0.8088 -0.6490  0.9940
  791MOL0     H 4361   4.751   9.244   2.223  0.5520  0.1283  1.9774
  791MOL0     H 4362   4.832   9.122   2.127  1.3276 -1.1963  0.5637
  791MOL0     H 4363   4.577   9.108   2.294  0.6919  1.8795 -1.0645
  791MOL0     H 4364   4.630   8.964   2.230 -1.2029  1.2188  4.2169
  791MOL0     H 4365   4.395   9.220   2.187  0.4019  0.6115 -0.6336
  791MOL0     H 4366   4.289   9.318   1.836  0.3154  2.2762  1.5774
  791MOL0     H 4367   4.252   9.336   2.004 -0.5951 -0.0710  1.1361
  791MOL0     H 4368   4.064   9.224   1.897  0.6025  0.3225 -1.1976
  791MOL0     H 4369   4.131   9.132   2.025  1.5300  1.3330  1.0136
  791MOL0     H 4370   4.266   9.001   1.849 -1.3462 -2.5594  2.1001
  791MOL0     H 4371   4.094   8.984   1.816 -0.5717  1.6144 -3.4673
  791MOL0     H 4372   4.215   9.054   1.592  0.8936 -0.1608  1.5636
  791MOL0     H 4373   4.253   9.205   1.669  3.0086 -1.9349  1.2596
  791MOL0     H 4374   3.838   9.144   1.526  2.2848  0.5776  3.6337
  791MOL0     H 4375   3.771   9.229   1.296  0.8624  0.6652 -2.8052
  791MOL0     H 4376   3.691   9.659   1.147  1.6476  1.0051 -0.7615
  791MOL0     H 4377   3.628   9.800   0.940  0.4982  0.2645 -0.1491
  791MOL0     H 4378   3.478   9.563   0.617 -3.2688  2.0361 -0.9841
  791MOL0     H 4379   3.624   9.620   0.533  0.4495  0.9817  0.7878
  791MOL0     H 4380   3.458   9.704   0.403  1.1696  0.1287 -0.2268
  791MOL0     H 4381   3.551   9.834   0.488  0.0778  0.4141  0.2945
  791MOL0     H 4382   3.341   9.929   0.532 -0.0353  0.1205 -0.5150
  791MOL0     H 4383   3.348   9.818   0.668 -0.9029 -2.1122  0.2051
  791MOL0     H 4384   3.211   9.731   0.397  1.5210 -1.0005 -0.1457
  791MOL0     H 4385   3.232   9.650   0.553 -0.3595 -0.6475 -0.9676
  791MOL0     H 4386   3.099   9.921   0.552 -1.2121 -0.5812 -1.9311
  791MOL0     H 4387   3.111   9.797   0.668 -1.5740  2.6557  1.0937
  791MOL0     H 4388   2.956   9.652   0.569 -0.0901  0.1730  1.5150
  791MOL0     H 4389   2.974   9.719   0.410  2.3317  1.0290  0.8015
  791MOL0     H 4390   2.770   9.778   0.580 -0.7018 -0.1247  0.5114
  791MOL0     H 4391   2.873   9.898   0.655  1.3938  0.9425 -1.3030
  791MOL0     H 4392   2.915   9.938   0.379 -0.8004  1.1887  0.4598
  791MOL0     H 4393   2.810  10.041   0.481  1.0878  0.8580  1.7168
  791MOL0     H 4394   3.660   9.450   0.701  4.1144 -2.3800  1.0040
  791MOL0     H 4395   3.729   9.316   0.887  1.8116  0.8976  0.4433
  791MOL0     H 4396   4.173   9.396   1.279  0.4748  0.0999 -0.6022
  791MOL0     H 4397   4.226   9.276   1.470  0.7966 -2.1313 -2.1833
  791MOL0     H 4398   5.418   9.436   2.787  0.5942 -0.9612  0.7056
  791MOL0     H 4399   5.588   9.561   2.907 -0.2985  3.0923 -0.4046
  791MOL0     H 4400   5.982   9.670   3.010  0.7308  0.6354  1.5788
  791MOL0     H 4401   6.145   9.758   3.135 -2.4380 -0.2557 -0.3150
  791MOL0     H 4402   6.234  10.224   3.064  0.0760  1.0138 -0.5071
  791MOL0     H 4403   6.378  10.149   3.004 -1.7239  1.2653 -0.3232
  791MOL0     H 4404   6.330  10.192   3.297 -3.3551  2.0009 -1.6200
  791MOL0     H 4405   6.489  10.180   3.211 -0.5371 -0.9894  3.8710
  791MOL0     H 4406   6.434  10.411   3.293  0.7879  0.7272 -0.1899
  791MOL0     H 4407   6.279  10.402   3.206 -0.1075  0.0387 -2.0927
  791MOL0     H 4408   6.415  10.400   2.993 -0.6528 -1.7799  0.4508
  791MOL0     H 4409   6.455  10.550   3.098 -0.6415 -0.5191  0.0897
  791MOL0     H 4410   6.822  10.380   3.071 -0.7709 -1.7713  0.7228
  791MOL0     H 4411   6.140  10.129   2.898 -3.1534 -0.2283 -2.6050
  791MOL0     H 4412   5.962  10.014   2.757  0.9158  0.7618 -0.5493
  792MOL0     O 4413   4.652   7.763   2.403 -0.6477 -0.0459 -0.0247
  792MOL0     C 4414   4.597   7.719   2.504 -0.5954  0.3215 -0.2826
  792MOL0     O 4415   4.463   7.714   2.534  0.4415  0.3174 -0.2201
  792MOL0     C 4416   4.357   7.761   2.448 -1.0546  0.2474 -0.8072
  792MOL0     C 4417   4.374   7.866   2.356  0.1901 -0.0711  0.1606
  792MOL0     C 4418   4.281   7.899   2.257  0.0171 -0.1424  0.3353
  792MOL0     C 4419   4.157   7.835   2.265  0.2739  0.1732 -0.2835
  792MOL0     O 4420   4.056   7.865   2.183 -0.0814  0.0921  0.3398
  792MOL0     C 4421   4.018   8.000   2.181 -0.0544 -0.0339  0.1449
  792MOL0     C 4422   3.876   8.008   2.122 -0.0385  0.5269 -0.0261
  792MOL0     C 4423   3.766   8.010   2.230  0.4558  0.4908 -0.1122
  792MOL0     C 4424   3.634   7.973   2.158  0.3759 -0.3871  0.1859
  792MOL0     C 4425   3.520   7.997   2.256  0.7337 -0.5823 -0.5779
  792MOL0     C 4426   3.387   7.964   2.192 -0.3157 -0.2232 -0.0009
  792MOL0     C 4427   3.271   7.955   2.291  0.1906 -0.0101 -0.2574
  792MOL0     C 4428   3.135   7.933   2.217  0.0418  0.6679  0.9532
  792MOL0     N 4429   3.019   7.936   2.310 -0.4832 -0.4864  0.2422
  792MOL0     C 4430   3.016   8.003   2.429  0.2387 -0.3344  0.0159
  792MOL0     C 4431   2.889   8.016   2.463 -0.2426  0.0510  0.3876
  792MOL0     C 4432   2.831   8.095   2.579 -0.0331  0.2305  0.3727
  792MOL0     C 4433   2.682   8.057   2.608 -0.3165  0.4659  0.3583
  792MOL0     C 4434   2.594   8.129   2.511 -0.2862 -0.1607  0.4772
  792MOL0     C 4435   2.459   8.082   2.509  0.3639  0.4268  0.7214
  792MOL0     O 4436   2.410   8.057   2.638  0.3129  0.5681 -0.0409
  792MOL0     C 4437   2.275   8.036   2.664  0.5577 -0.6038  0.7768
  792MOL0     C 4438   2.258   8.005   2.794  0.8150  0.1331  0.1788
  792MOL0     C 4439   2.126   7.962   2.838  0.3498 -1.3364 -0.6928
  792MOL0     C 4440   2.016   7.979   2.746 -0.2826  0.1467 -0.7305
  792MOL0     C 4441   1.878   7.954   2.792 -0.7414 -1.3377 -0.3872
  792MOL0     O 4442   1.858   7.857   2.894 -0.1775  0.4971  0.8658
  792MOL0     C 4443   1.724   7.808   2.911 -0.6894  0.1925  0.4074
  792MOL0     C 4444   1.660   7.738   2.804 -0.2098 -0.3042  0.2836
  792MOL0     C 4445   1.535   7.684   2.808 -0.2765 -0.1824 -0.1107
  792MOL0     C 4446   1.458   7.704   2.917 -0.2016 -0.2394  0.0300
  792MOL0     O 4447   1.325   7.656   2.934  0.3765  0.4292 -0.0300
  792MOL0     C 4448   1.251   7.647   2.810 -0.4319 -0.5323  0.3242
  792MOL0     C 4449   1.097   7.670   2.840  0.1422 -0.1766 -0.5362
  792MOL0     C 4450   1.046   7.567   2.935 -0.8147 -0.1147  0.3448
  792MOL0     C 4451   0.899   7.591   2.967 -0.5924  0.5613 -0.7115
  792MOL0     C 4452   0.828   7.485   3.053 -0.3115 -0.8009  0.0873
  792MOL0     C 4453   0.678   7.524   3.083  0.8036  0.5531  0.2827
  792MOL0     C 4454   0.602   7.421   3.171 -0.3147  0.7082  0.7327
  792MOL0     C 4455   0.458   7.468   3.179  0.2566 -0.7273 -0.2357
  792MOL0    Cl 4456   0.350   7.387   3.296  0.0530 -0.0804  0.3831
  792MOL0     C 4457   1.521   7.765   3.033 -0.0531  0.7501 -0.3050
  792MOL0     C 4458   1.656   7.818   3.030 -0.1002  1.1519  0.3394
  792MOL0     O 4459   1.790   8.006   2.729  0.2436 -0.3264 -0.3096
  792MOL0     C 4460   2.036   8.024   2.616  0.1983  0.1383 -0.3741
  792MOL0     C 4461   2.169   8.049   2.574  0.0471  0.4029 -0.0549
  792MOL0     N 4462   2.810   7.947   2.365 -0.0530  0.3752 -1.0412
  792MOL0     N 4463   2.893   7.896   2.273  0.4930  1.0462  0.5267
  792MOL0     C 4464   4.137   7.736   2.362 -0.1831  0.3480  0.2210
  792MOL0     C 4465   4.234   7.704   2.453  0.2644  0.3920 -0.2802
  792MOL0     C 4466   4.690   7.673   2.613 -0.1562  0.3432 -0.2834
  792MOL0     C 4467   4.831   7.670   2.588 -0.1449  0.7377 -0.1429
  792MOL0     C 4468   4.922   7.638   2.686  0.7815 -0.5965 -0.0628
  792MOL0     C 4469   4.873   7.613   2.813  1.1162  0.4879  0.3465
  792MOL0     O 4470   4.956   7.598   2.920 -0.3667  0.4294  0.0550
  792MOL0     C 4471   5.091   7.558   2.888 -0.1378 -0.1711 -0.5050
  792MOL0     C 4472   5.171   7.510   3.011 -0.0224 -0.3017  0.2702
  792MOL0     C 4473   5.087   7.405   3.085  1.1276 -0.4929  0.5374
  792MOL0     C 4474   5.179   7.311   3.175 -0.1370  0.2935  0.3868
  792MOL0     C 4475   5.233   7.389   3.292  0.6200 -0.4200 -0.1025
  792MOL0     C 4476   5.271   7.454   3.390 -0.4084 -0.0867 -0.0242
  792MOL0     C 4477   4.736   7.598   2.832  0.3465 -0.5062 -0.1716
  792MOL0     C 4478   4.640   7.634   2.738  0.1423 -0.0182 -0.0586
  792MOL0     H 4479   4.466   7.924   2.350 -0.3950  0.7750 -1.1652
  792MOL0     H 4480   4.307   7.967   2.176  0.4749 -1.5744 -0.7602
  792MOL0     H 4481   4.092   8.046   2.114  1.3129  1.4313  2.5005
  792MOL0     H 4482   4.028   8.055   2.275  1.9876 -0.9886  0.5377
  792MOL0     H 4483   3.862   7.922   2.056 -3.1436  0.9632 -0.0919
  792MOL0     H 4484   3.858   8.093   2.056 -0.1877 -1.7187 -3.0749
  792MOL0     H 4485   3.766   8.107   2.281 -0.3029  0.3466  0.1763
  792MOL0     H 4486   3.779   7.937   2.310 -2.7881  1.0564  1.0505
  792MOL0     H 4487   3.625   8.027   2.064 -2.9430 -1.4086 -0.2248
  792MOL0     H 4488   3.636   7.869   2.126  2.5265 -0.0796 -0.8304
  792MOL0     H 4489   3.536   8.096   2.300  2.3635 -0.9360 -0.3022
  792MOL0     H 4490   3.541   7.927   2.337  1.5605  1.4417  1.0607
  792MOL0     H 4491   3.396   7.863   2.150  0.8880  0.2278 -0.8807
  792MOL0     H 4492   3.367   8.035   2.111  0.4004 -0.6006 -0.5177
  792MOL0     H 4493   3.275   7.874   2.365 -0.9202  0.1099 -0.0386
  792MOL0     H 4494   3.270   8.048   2.349  0.8811 -0.4862  0.5385
  792MOL0     H 4495   3.125   7.832   2.177  2.2849 -0.6855  3.4278
  792MOL0     H 4496   3.116   8.006   2.138 -1.9633  0.5778  1.2926
  792MOL0     H 4497   3.094   8.059   2.479 -0.3217 -0.0552  0.6043
  792MOL0     H 4498   2.835   8.203   2.565 -1.3303  0.4232  1.2770
  792MOL0     H 4499   2.895   8.074   2.666 -0.1142  0.7122  0.5505
  792MOL0     H 4500   2.649   8.080   2.709  0.2283 -1.2583  0.9574
  792MOL0     H 4501   2.676   7.949   2.592  1.4775  0.2346  0.9668
  792MOL0     H 4502   2.597   8.236   2.532 -0.2822  0.1955 -1.2102
  792MOL0     H 4503   2.632   8.115   2.409  2.8981 -0.6455  1.6095
  792MOL0     H 4504   2.449   7.986   2.458  2.7969 -0.6100  2.0043
  792MOL0     H 4505   2.407   8.166   2.462  1.2820  0.8140  0.3566
  792MOL0     H 4506   2.337   7.997   2.868 -1.2901  0.7907  2.6207
  792MOL0     H 4507   2.111   7.931   2.941  0.1845  3.3609  0.9488
  792MOL0     H 4508   1.723   7.733   2.715 -1.8643 -1.1328 -0.8839
  792MOL0     H 4509   1.496   7.626   2.726 -0.4448 -1.2000  0.6707
  792MOL0     H 4510   1.267   7.556   2.752  3.4132  0.0802  0.2053
  792MOL0     H 4511   1.279   7.732   2.747  1.3195 -0.2374  1.4435
  792MOL0     H 4512   1.041   7.662   2.746 -1.6085  0.8005  0.3679
  792MOL0     H 4513   1.085   7.771   2.879  1.0880  0.9046 -2.8420
  792MOL0     H 4514   1.104   7.566   3.028  0.6678  2.0459 -0.4652
  792MOL0     H 4515   1.059   7.473   2.881  1.3227  1.1700 -1.5722
  792MOL0     H 4516   0.884   7.685   3.021  0.8544 -0.5029  1.7434
  792MOL0     H 4517   0.840   7.588   2.875 -1.2876  0.6209 -0.2768
  792MOL0     H 4518   0.884   7.483   3.147 -0.9452  2.9802  0.6911
  792MOL0     H 4519   0.828   7.394   2.993  2.0308 -0.0041 -1.2463
  792MOL0     H 4520   0.628   7.514   2.986  1.2109  0.3204  0.0954
  792MOL0     H 4521   0.671   7.627   3.119 -0.2327  0.1688  1.2397
  792MOL0     H 4522   0.619   7.318   3.139 -2.3706  0.2777  0.8311
  792MOL0     H 4523   0.652   7.422   3.268  2.2866 -1.6769 -0.4402
  792MOL0     H 4524   0.405   7.449   3.086 -2.9550  0.3673  1.1934
  792MOL0     H 4525   0.447   7.576   3.196 -0.0468 -0.2724 -2.9804
  792MOL0     H 4526   1.459   7.794   3.117  1.1170 -0.3162  0.9566
  792MOL0     H 4527   1.701   7.850   3.124  1.3958 -3.6715  1.5177
  792MOL0     H 4528   1.955   8.023   2.543 -0.4567 -0.5043  0.3456
  792MOL0     H 4529   2.197   8.089   2.477  1.4145  3.0370  1.3211
  792MOL0     H 4530   4.039   7.690   2.356 -0.1935  0.5548 -1.6409
  792MOL0     H 4531   4.193   7.633   2.524  1.4796 -0.2377 -0.1843
  792MOL0     H 4532   4.873   7.688   2.490  1.6808  3.0137  0.9461
  792MOL0     H 4533   5.026   7.631   2.656  2.1841  2.2454  3.3547
  792MOL0     H 4534   5.145   7.638   2.837 -0.7805  1.6297  1.5035
  792MOL0     H 4535   5.091   7.469   2.825 -1.8965 -0.9561  0.5328
  792MOL0     H 4536   5.264   7.469   2.970  0.3000 -1.5143  2.1106
  792MOL0     H 4537   5.192   7.591   3.081  0.7834 -0.5230  0.2942
  792MOL0     H 4538   5.032   7.347   3.010  2.3286 -0.3753 -0.4651
  792MOL0     H 4539   5.001   7.453   3.133 -1.5167 -1.6978 -2.6340
  792MOL0     H 4540   5.134   7.221   3.217  2.0593 -1.4132 -0.6926
  792MOL0     H 4541   5.267   7.275   3.121  0.0524 -1.6477  1.8586
  792MOL0     H 4542   5.311   7.494   3.481 -2.1053  0.3909  0.5473
  792MOL0     H 4543   4.708   7.553   2.927  0.4645 -4.2638 -1.7811
  792MOL0     H 4544   4.534   7.627   2.760 -0.4145 -4.3382 -2.9766
  793MOL0     O 4545  10.640   0.674  10.189  0.3462 -0.4647  0.0494
  793MOL0     C 4546  10.631   0.765  10.268  0.1965  0.7371  0.3174
  793MOL0     O 4547  10.716   0.875  10.273 -0.0145  0.7942  0.3717
  793MOL0     C 4548  10.817   0.895  10.181  0.0703 -0.1144  0.1414
  793MOL0     C 4549  10.946   0.838  10.192  0.4100 -0.5435 -0.9212
  793MOL0     C 4550  11.047   0.868  10.097  0.4906 -0.4002  0.2606
  793MOL0     C 4551  11.012   0.948   9.983  0.0162 -0.0992  0.1231
  793MOL0     O 4552  11.105   0.962   9.878  0.3422 -0.5865 -0.0187
  793MOL0     C 4553  11.238   0.903   9.897  0.0117  0.2433  0.0633
  793MOL0     C 4554  11.338   0.949   9.789  0.0449 -0.5389  0.3021
  793MOL0     C 4555  11.326   1.104   9.784 -0.6991 -0.4532 -0.0927
  793MOL0     C 4556  11.425   1.160   9.670 -0.2960  0.1698 -0.0013
  793MOL0     C 4557  11.574   1.148   9.708 -0.2380 -0.7316 -0.2900
  793MOL0     C 4558  11.677   1.224   9.616  0.3488  0.0854 -0.7505
  793MOL0     C 4559  11.718   1.352   9.674 -0.0516  0.2653  0.2516
  793MOL0     C 4560  11.837   1.319   9.765 -0.6275 -0.1510 -0.1879
  793MOL0     N 4561  11.884   1.435   9.838 -0.2045 -0.6630  0.8566
  793MOL0     C 4562  11.904   1.559   9.788 -0.6541 -0.9580  0.1309
  793MOL0     C 4563  11.955   1.636   9.882 -0.2488  0.7830  0.1371
  793MOL0     C 4564  11.970   1.784   9.865 -0.4741 -0.3526  0.6549
  793MOL0     C 4565  11.834   1.849   9.829 -1.1012 -0.2432  0.3856
  793MOL0     C 4566  11.858   1.997   9.803  0.0284  0.0271  0.7366
  793MOL0     C 4567  11.718   2.065   9.790 -0.2495  0.7367  0.0719
  793MOL0     O 4568  11.654   2.035   9.913 -0.7576 -0.2477  0.5323
  793MOL0     C 4569  11.521   2.058   9.932 -0.0671  0.5494  0.2967
  793MOL0     C 4570  11.467   2.011  10.054  0.4685 -0.0991 -0.6051
  793MOL0     C 4571  11.333   2.042  10.090 -0.0618 -0.3624 -0.1114
  793MOL0     C 4572  11.252   2.111   9.995  0.0667 -0.4262 -0.4920
  793MOL0     C 4573  11.106   2.143  10.030  0.0295 -0.0327 -0.5065
  793MOL0     O 4574  11.033   2.218   9.943  0.6981  0.0537  0.2786
  793MOL0     C 4575  10.904   2.266   9.981 -0.1150  0.3074 -0.1229
  793MOL0     C 4576  10.798   2.220   9.907 -0.3479  0.4549 -0.2565
  793MOL0     C 4577  10.672   2.262   9.938  0.9383  0.1757  0.4273
  793MOL0     C 4578  10.643   2.350  10.039 -0.1498 -0.2612  0.3206
  793MOL0     O 4579  10.512   2.378  10.052 -0.2243  0.0241 -0.6095
  793MOL0     C 4580  10.471   2.432  10.173 -0.0241  0.3687 -0.0049
  793MOL0     C 4581  10.318   2.418  10.168 -0.2595 -0.6850 -0.3369
  793MOL0     C 4582  10.272   2.451  10.311  0.6133 -0.3765 -0.8947
  793MOL0     C 4583  10.115   2.443  10.335  0.0748  0.1074  0.2578
  793MOL0     C 4584  10.052   2.307  10.333  0.0718  0.1180  0.1540
  793MOL0     C 4585  10.105   2.223  10.457  0.1558  0.2704  0.2851
  793MOL0     C 4586   9.994   2.128  10.506 -0.5178 -0.1204 -0.1584
  793MOL0     C 4587  10.044   2.050  10.622 -0.3448  0.1406 -0.4434
  793MOL0    Cl 4588  10.054   2.140  10.773  0.5894  0.2099 -0.0497
  793MOL0     C 4589  10.756   2.408  10.102  0.0345  0.6094  0.8116
  793MOL0     C 4590  10.879   2.359  10.078 -0.1455  0.1476  0.3946
  793MOL0     O 4591  11.062   2.097  10.137  0.5051 -0.3470  0.5067
  793MOL0     C 4592  11.306   2.142   9.874 -0.9777  0.3670  0.6849
  793MOL0     C 4593  11.442   2.120   9.840  0.4139 -0.2437  0.2958
  793MOL0     N 4594  11.990   1.551   9.992 -0.3518  0.0386  0.8861
  793MOL0     N 4595  11.940   1.436   9.961  0.5111 -0.3857  0.1482
  793MOL0     C 4596  10.880   1.005   9.973 -0.5958  0.7149  0.4661
  793MOL0     C 4597  10.788   0.983  10.071  1.0699 -0.6464  0.5715
  793MOL0     C 4598  10.509   0.776  10.354 -0.1800 -0.4968 -0.2226
  793MOL0     C 4599  10.409   0.676  10.350  0.3467  0.1794  0.0775
  793MOL0     C 4600  10.295   0.685  10.435 -0.1994  0.2375 -0.5337
  793MOL0     C 4601  10.289   0.786  10.530  0.4192  0.7312 -0.6456
  793MOL0     O 4602  10.182   0.774  10.612 -0.3280 -0.5861  0.0499
  793MOL0     C 4603  10.086   0.882  10.598 -0.1158  0.5719 -0.0655
  793MOL0     C 4604   9.963   0.837  10.687 -0.2738 -0.6740 -0.2496
  793MOL0     C 4605   9.867   0.954  10.708 -0.6768 -0.6391  0.5994
  793MOL0     C 4606   9.744   0.906  10.785  0.2594 -0.1448  0.1808
  793MOL0     C 4607   9.636   1.011  10.805 -0.0964  1.0554 -0.0357
  793MOL0     C 4608   9.550   1.099  10.814  0.5638  0.3495 -0.3006
  793MOL0     C 4609  10.383   0.892  10.540  0.5033  0.2259  0.6404
  793MOL0     C 4610  10.487   0.895  10.438 -0.2145 -0.6270  0.0019
  793MOL0     H 4611  10.961   0.761  10.267  0.3730  2.5919  2.5874
  793MOL0     H 4612  11.139   0.815  10.119  0.1087 -0.4113  1.9453
  793MOL0     H 4613  11.236   0.794   9.889  0.3583  0.1926  0.6258
  793MOL0     H 4614  11.275   0.926   9.997 -0.9291 -0.9804  0.7183
  793MOL0     H 4615  11.316   0.900   9.694 -0.8508  1.5344 -0.6298
  793MOL0     H 4616  11.440   0.932   9.825 -1.4106 -1.9545  4.4044
  793MOL0     H 4617  11.365   1.146   9.878  0.1435 -1.3262 -0.0403
  793MOL0     H 4618  11.228   1.150   9.768  1.6758  4.2277 -4.1265
  793MOL0     H 4619  11.404   1.101   9.580 -2.8965 -1.6753  1.6497
  793MOL0     H 4620  11.412   1.268   9.658  2.7689  1.2847  4.3472
  793MOL0     H 4621  11.598   1.042   9.711 -0.2537 -0.7086  1.2302
  793MOL0     H 4622  11.576   1.192   9.808 -2.9585  1.9384 -1.2531
  793MOL0     H 4623  11.627   1.232   9.519 -1.4851  1.9693  0.2754
  793MOL0     H 4624  11.759   1.157   9.589 -1.4256 -1.9920 -1.3233
  793MOL0     H 4625  11.756   1.413   9.591  0.9526 -1.4976 -0.6384
  793MOL0     H 4626  11.630   1.404   9.712 -1.6005  1.4113 -4.2109
  793MOL0     H 4627  11.918   1.271   9.710  2.3629  0.5816  3.2316
  793MOL0     H 4628  11.814   1.249   9.846 -1.1585 -1.2577 -1.2595
  793MOL0     H 4629  11.886   1.590   9.686  2.5028  0.8925  0.0136
  793MOL0     H 4630  12.038   1.800   9.781 -3.5320 -1.4205 -2.2171
  793MOL0     H 4631  12.023   1.824   9.953 -1.1293 -0.9760  1.3445
  793MOL0     H 4632  11.756   1.812   9.897  0.2828 -2.5052  0.8407
  793MOL0     H 4633  11.811   1.814   9.728  0.2424  1.6818 -0.6314
  793MOL0     H 4634  11.899   2.050   9.889 -2.2271  1.9953  0.7095
  793MOL0     H 4635  11.908   2.001   9.706 -4.1664 -3.0969 -1.9402
  793MOL0     H 4636  11.666   2.018   9.707 -2.7021  0.0916  1.8569
  793MOL0     H 4637  11.730   2.173   9.774 -0.5420  1.3932  3.3784
  793MOL0     H 4638  11.530   1.962  10.128 -0.6234  0.0582  0.4581
  793MOL0     H 4639  11.298   2.015  10.189 -0.0227 -3.0860 -0.7659
  793MOL0     H 4640  10.829   2.160   9.823 -0.5103 -0.0908  0.0686
  793MOL0     H 4641  10.581   2.221   9.894  0.8264 -1.9773  2.4764
  793MOL0     H 4642  10.496   2.538  10.184 -0.6258  0.5495 -0.3383
  793MOL0     H 4643  10.509   2.370  10.255  0.1269  0.1413 -0.2472
  793MOL0     H 4644  10.295   2.318  10.131  0.0467 -0.7980 -0.2302
  793MOL0     H 4645  10.263   2.485  10.103  1.3432 -0.6059 -1.6750
  793MOL0     H 4646  10.298   2.555  10.331  0.9723 -0.2696 -1.8805
  793MOL0     H 4647  10.323   2.380  10.377  0.7998 -0.1088 -0.7499
  793MOL0     H 4648  10.096   2.498  10.428  0.2032  0.2627  0.1925
  793MOL0     H 4649  10.062   2.496  10.256  0.2152 -0.6879 -0.3881
  793MOL0     H 4650  10.068   2.236  10.251  0.4424 -0.0919  0.4006
  793MOL0     H 4651   9.945   2.328  10.329  0.6793  3.8470 -0.2052
  793MOL0     H 4652  10.119   2.294  10.539 -3.8009  0.4097  1.0444
  793MOL0     H 4653  10.196   2.168  10.430 -1.7445 -3.0712  0.0927
  793MOL0     H 4654   9.911   2.185  10.549  0.0972  2.3269 -2.0066
  793MOL0     H 4655   9.962   2.065  10.423 -0.1025 -0.7702  0.1574
  793MOL0     H 4656  10.140   2.003  10.598 -0.8394 -0.2570 -1.7194
  793MOL0     H 4657   9.980   1.962  10.635  2.3530 -2.0478 -0.8728
  793MOL0     H 4658  10.751   2.489  10.175 -0.2908  1.5315 -0.2005
  793MOL0     H 4659  10.966   2.396  10.132  1.9106 -0.9606 -1.9897
  793MOL0     H 4660  11.238   2.186   9.802  0.4516  2.3589  0.4501
  793MOL0     H 4661  11.471   2.145   9.739  1.8926 -1.4267  0.4032
  793MOL0     H 4662  10.867   1.079   9.894  0.4549  0.0033 -0.4001
  793MOL0     H 4663  10.692   1.032  10.062  1.7713  0.3144 -3.5884
  793MOL0     H 4664  10.427   0.587  10.291  1.8216 -1.3384  2.6209
  793MOL0     H 4665  10.218   0.609  10.431  0.5274 -0.6462  1.2630
  793MOL0     H 4666  10.050   0.880  10.495 -2.0053 -0.0927  0.5763
  793MOL0     H 4667  10.108   0.982  10.637 -0.1462  0.6919 -0.3567
  793MOL0     H 4668   9.906   0.753  10.645 -1.9826  0.4655 -0.2885
  793MOL0     H 4669  10.003   0.802  10.782 -0.0832  0.3326  0.0510
  793MOL0     H 4670   9.842   0.995  10.610 -0.6775  1.0846  1.2809
  793MOL0     H 4671   9.913   1.032  10.769  1.6396  0.8983 -2.8005
  793MOL0     H 4672   9.696   0.828  10.726 -2.2057 -0.4669  2.4163
  793MOL0     H 4673   9.769   0.866  10.884 -2.5686 -0.7706  0.7276
  793MOL0     H 4674   9.474   1.172  10.834  0.0923 -0.3687  0.5712
  793MOL0     H 4675  10.385   0.970  10.614 -1.4993  0.0606  0.8972
  793MOL0     H 4676  10.562   0.973  10.447 -0.3334 -0.2992 -1.5830
  794MOL0     O 4677   8.500   8.030   2.895  0.1981  0.1153  0.3557
  794MOL0     C 4678   8.539   8.118   2.977 -0.8611  0.2368 -0.2143
  794MOL0     O 4679   8.454   8.196   3.047 -0.1560  0.4642  0.3653
  794MOL0     C 4680   8.318   8.166   3.022  0.0239 -0.5299 -0.1692
  794MOL0     C 4681   8.253   8.231   2.921  0.3495 -0.1375 -0.0039
  794MOL0     C 4682   8.118   8.226   2.904 -0.4284 -0.1712  0.5675
  794MOL0     C 4683   8.036   8.142   2.982 -0.6276  0.7484 -0.2786
  794MOL0     O 4684   7.903   8.136   2.961 -0.5030  0.0043  0.0018
  794MOL0     C 4685   7.808   8.140   3.068  0.2194  0.0434  0.5263
  794MOL0     C 4686   7.664   8.140   3.007  0.2136 -0.1038 -0.3197
  794MOL0     C 4687   7.614   8.021   2.926  0.4430 -0.0087  0.1558
  794MOL0     C 4688   7.466   8.036   2.884 -0.2485 -0.0633  0.1257
  794MOL0     C 4689   7.406   7.915   2.817  0.0036  0.4317  0.8082
  794MOL0     C 4690   7.438   7.894   2.668  0.1329 -0.2380 -0.2850
  794MOL0     C 4691   7.458   8.023   2.578 -0.2742 -0.0958  0.5963
  794MOL0     C 4692   7.482   7.987   2.431 -0.0816 -0.1236  0.5537
  794MOL0     N 4693   7.530   8.109   2.355 -0.5849 -0.3466  0.1829
  794MOL0     C 4694   7.663   8.144   2.343 -0.0747  1.2544  0.0911
  794MOL0     C 4695   7.657   8.257   2.271  0.4681 -0.1992  1.1458
  794MOL0     C 4696   7.770   8.330   2.213 -0.0438 -0.3825 -0.4215
  794MOL0     C 4697   7.795   8.474   2.264 -0.0035  0.1166  0.4839
  794MOL0     C 4698   7.935   8.530   2.223  0.4008 -0.1783 -0.3392
  794MOL0     C 4699   7.967   8.485   2.075  0.5531  0.2744 -0.3892
  794MOL0     O 4700   8.079   8.557   2.026 -0.3172 -0.1106 -0.1233
  794MOL0     C 4701   8.202   8.495   2.041 -0.3267  0.6543  0.4726
  794MOL0     C 4702   8.313   8.574   2.022 -0.2822  0.6870 -0.1272
  794MOL0     C 4703   8.444   8.524   2.048  0.0629  0.0611 -0.0192
  794MOL0     C 4704   8.461   8.389   2.078  0.2687  0.1900  0.0447
  794MOL0     C 4705   8.596   8.331   2.118  0.6574 -1.7709 -0.2998
  794MOL0     O 4706   8.697   8.419   2.113 -0.2133 -0.1920 -0.9188
  794MOL0     C 4707   8.823   8.360   2.109  0.6836 -0.4917  0.8654
  794MOL0     C 4708   8.888   8.327   2.227  0.3085  0.3169 -0.7031
  794MOL0     C 4709   9.014   8.260   2.224 -0.3723 -0.1490  0.2561
  794MOL0     C 4710   9.075   8.231   2.104 -0.3630 -1.0869 -0.1431
  794MOL0     O 4711   9.199   8.166   2.083 -0.0919 -0.3167 -0.5936
  794MOL0     C 4712   9.267   8.091   2.193  0.5704  0.2343 -0.3623
  794MOL0     C 4713   9.413   8.050   2.143  0.0803 -0.4748 -0.3513
  794MOL0     C 4714   9.493   8.177   2.094  0.8688  0.7717  0.6700
  794MOL0     C 4715   9.637   8.122   2.057  0.3122 -0.0745  0.2944
  794MOL0     C 4716   9.737   8.248   2.060 -0.2167 -0.1658 -0.2639
  794MOL0     C 4717   9.875   8.199   2.017 -0.5396  0.8582  0.7852
  794MOL0     C 4718   9.989   8.294   2.032 -0.0461  0.2048 -0.6960
  794MOL0     C 4719  10.115   8.221   1.989 -0.1701 -0.0174  0.7483
  794MOL0    Cl 4720  10.262   8.337   1.964  0.0952  0.0903 -0.1427
  794MOL0     C 4721   9.009   8.275   1.991  0.1402 -0.2228  0.3686
  794MOL0     C 4722   8.891   8.341   1.987  0.9755  0.2222 -1.0418
  794MOL0     O 4723   8.601   8.214   2.147 -0.1978  0.5793  0.4961
  794MOL0     C 4724   8.349   8.311   2.091  0.3271  0.2700  0.8003
  794MOL0     C 4725   8.223   8.362   2.064  0.0406  0.3492  0.7330
  794MOL0     N 4726   7.524   8.299   2.252 -0.3456  0.0579  0.3301
  794MOL0     N 4727   7.445   8.210   2.296 -0.2695  0.1630  0.6411
  794MOL0     C 4728   8.095   8.065   3.087 -0.3242  0.0860 -0.2879
  794MOL0     C 4729   8.238   8.081   3.110  0.8945 -0.1614  1.0997
  794MOL0     C 4730   8.684   8.128   3.011  0.2930  0.9693 -0.4613
  794MOL0     C 4731   8.768   8.040   2.949 -0.4138 -0.6869 -0.3791
  794MOL0     C 4732   8.906   8.031   2.987  0.1546  0.2447 -0.6636
  794MOL0     C 4733   8.956   8.127   3.073 -0.0401 -0.0868 -1.0840
  794MOL0     O 4734   9.088   8.139   3.113 -0.5197  0.0451 -0.1528
  794MOL0     C 4735   9.154   8.009   3.151  0.0166 -0.8444  0.4026
  794MOL0     C 4736   9.272   7.980   3.070  0.4740 -0.0473  0.6013
  794MOL0     C 4737   9.349   8.100   3.016  0.9766 -0.2809  0.4176
  794MOL0     C 4738   9.488   8.060   2.983  0.3849  0.3634  0.5322
  794MOL0     C 4739   9.562   8.178   2.930 -1.2517  0.5658  0.0408
  794MOL0     C 4740   9.613   8.279   2.879 -0.4271  0.1240  0.1130
  794MOL0     C 4741   8.874   8.229   3.118  0.0802  0.9530 -0.1191
  794MOL0     C 4742   8.737   8.221   3.093  0.7277  0.6784  0.1706
  794MOL0     H 4743   8.312   8.297   2.858  0.1727 -2.0881 -2.3930
  794MOL0     H 4744   8.067   8.278   2.823 -0.9955 -1.0625  0.3331
  794MOL0     H 4745   7.818   8.232   3.126 -1.2037  0.7394 -0.2798
  794MOL0     H 4746   7.818   8.056   3.138 -1.4224 -1.9756 -1.5085
  794MOL0     H 4747   7.661   8.229   2.944  0.9573  0.1501 -0.0140
  794MOL0     H 4748   7.588   8.146   3.086 -1.1495  0.6836 -1.6450
  794MOL0     H 4749   7.617   7.932   2.990  1.4241 -0.2876 -0.2554
  794MOL0     H 4750   7.680   8.001   2.841  0.3873 -0.9808  0.3233
  794MOL0     H 4751   7.407   8.058   2.974 -1.6587 -0.4065 -0.6929
  794MOL0     H 4752   7.465   8.125   2.821  0.7896 -0.2680 -0.2001
  794MOL0     H 4753   7.298   7.926   2.819  0.0347  1.4727 -1.0527
  794MOL0     H 4754   7.425   7.820   2.868  0.4495 -0.1761 -0.4577
  794MOL0     H 4755   7.364   7.823   2.632  0.1968 -1.0127  1.0462
  794MOL0     H 4756   7.530   7.836   2.656 -0.0098 -0.0977 -2.4994
  794MOL0     H 4757   7.374   8.094   2.578 -0.8091 -0.7120 -0.0497
  794MOL0     H 4758   7.541   8.081   2.618  1.0280 -0.6485 -1.1825
  794MOL0     H 4759   7.393   7.948   2.380  0.5558 -0.9618  0.0547
  794MOL0     H 4760   7.562   7.914   2.421  2.3916  2.4450  0.3480
  794MOL0     H 4761   7.748   8.079   2.358 -1.2039 -0.6433 -1.2830
  794MOL0     H 4762   7.748   8.330   2.106 -2.0756 -1.6467 -0.0722
  794MOL0     H 4763   7.864   8.277   2.232  0.3367  0.9686  1.9098
  794MOL0     H 4764   7.789   8.457   2.372  1.6421 -0.5283  0.5100
  794MOL0     H 4765   7.715   8.539   2.229  0.5634  0.4406 -0.2414
  794MOL0     H 4766   7.942   8.637   2.241 -0.3713  0.0344 -1.2117
  794MOL0     H 4767   8.009   8.477   2.284 -0.2348  0.2264  0.8189
  794MOL0     H 4768   7.877   8.496   2.015  0.7692  0.3320 -0.7048
  794MOL0     H 4769   7.991   8.379   2.092  1.8777  0.6580  0.3192
  794MOL0     H 4770   8.307   8.676   1.986  3.7239  0.4417 -2.1121
  794MOL0     H 4771   8.523   8.599   2.046  0.1109  0.1240  2.1892
  794MOL0     H 4772   8.832   8.340   2.319 -0.4367 -1.4572 -0.8674
  794MOL0     H 4773   9.060   8.222   2.315 -1.4023 -0.8354  0.5071
  794MOL0     H 4774   9.211   8.009   2.238  3.4472  0.2166  3.7388
  794MOL0     H 4775   9.291   8.159   2.276 -0.1466  0.8974 -0.6801
  794MOL0     H 4776   9.398   7.978   2.063  2.3835  1.3161 -2.5589
  794MOL0     H 4777   9.458   7.998   2.228 -1.3490  1.0249  1.4093
  794MOL0     H 4778   9.501   8.239   2.184 -1.4502  0.7211  0.9822
  794MOL0     H 4779   9.447   8.234   2.013 -2.1905 -2.5473 -0.1836
  794MOL0     H 4780   9.663   8.037   2.122  0.7986 -0.4863 -0.4201
  794MOL0     H 4781   9.627   8.086   1.954 -0.2297  0.2280  0.2387
  794MOL0     H 4782   9.750   8.302   2.154  1.4116 -0.7792 -0.1008
  794MOL0     H 4783   9.698   8.315   1.982 -0.5413  0.5684  0.5178
  794MOL0     H 4784   9.872   8.148   1.920 -0.7442  2.2215  0.0626
  794MOL0     H 4785   9.893   8.112   2.082  0.7868  1.2096  0.9100
  794MOL0     H 4786   9.973   8.384   1.971 -1.9225  0.2459 -0.1852
  794MOL0     H 4787   9.999   8.327   2.136  0.9379 -1.3573 -0.2664
  794MOL0     H 4788  10.093   8.168   1.895 -0.7806  1.1426  0.2133
  794MOL0     H 4789  10.148   8.149   2.064 -0.6182  0.5546  1.4985
  794MOL0     H 4790   9.059   8.251   1.898  0.0789 -1.5198  0.6462
  794MOL0     H 4791   8.847   8.377   1.895  2.0783  2.1717 -0.8697
  794MOL0     H 4792   8.351   8.204   2.107 -2.5493 -0.2536 -1.4848
  794MOL0     H 4793   8.155   8.279   2.049  0.1647  0.4495 -0.4457
  794MOL0     H 4794   8.045   8.004   3.162  0.3049 -0.0189  0.0557
  794MOL0     H 4795   8.292   8.037   3.194  2.4668 -1.1634 -0.3758
  794MOL0     H 4796   8.756   7.960   2.876  2.1971  0.2717 -2.0301
  794MOL0     H 4797   8.967   7.959   2.934  0.8661  0.9384 -0.8039
  794MOL0     H 4798   9.092   7.920   3.141  1.2055 -1.5426 -1.0737
  794MOL0     H 4799   9.187   8.009   3.256 -0.6839 -0.3769  0.6279
  794MOL0     H 4800   9.329   7.902   3.121  0.1542  0.3944  1.6687
  794MOL0     H 4801   9.243   7.930   2.977  0.0933  2.8715 -0.9653
  794MOL0     H 4802   9.355   8.197   3.066  1.3315  1.1104 -2.1159
  794MOL0     H 4803   9.291   8.122   2.926 -0.9155 -0.6908  1.5001
  794MOL0     H 4804   9.531   8.027   3.078  1.5892 -0.0952 -0.1454
  794MOL0     H 4805   9.493   7.981   2.907  3.1299 -2.0030  2.9559
  794MOL0     H 4806   9.649   8.366   2.828 -2.3122 -1.3925 -4.4111
  794MOL0     H 4807   8.914   8.305   3.183  2.5981  1.6011 -2.2495
  794MOL0     H 4808   8.668   8.289   3.142  1.5405  2.2312 -0.7686
  795MOL0     O 4809   0.233   7.606   5.964 -0.3916 -0.5267  0.0925
  795MOL0     C 4810   0.264   7.680   5.874 -0.2057  0.9507 -0.0771
  795MOL0     O 4811   0.179   7.748   5.791 -0.5534 -1.2391  1.1480
  795MOL0     C 4812   0.047   7.731   5.815  0.0019 -0.5901  0.1885
  795MOL0     C 4813  -0.023   7.814   5.902 -0.5918  0.9479 -0.9421
  795MOL0     C 4814  -0.157   7.795   5.929 -0.5180 -0.5793 -1.0807
  795MOL0     C 4815  -0.223   7.687   5.868 -0.3135  0.5843  0.3155
  795MOL0     O 4816  -0.356   7.667   5.898 -0.2504  0.0359 -0.7041
  795MOL0     C 4817  -0.442   7.751   5.818  0.4480 -0.6851  1.0015
  795MOL0     C 4818  -0.510   7.857   5.904 -0.2879  0.0028  0.2276
  795MOL0     C 4819  -0.639   7.907   5.832 -0.6135 -0.1401  0.3679
  795MOL0     C 4820  -0.694   8.040   5.890  0.7026  0.3911  0.1555
  795MOL0     C 4821  -0.837   8.052   5.831  0.2591 -0.9052  0.3155
  795MOL0     C 4822  -0.905   8.187   5.874  0.2410 -0.1761  0.0246
  795MOL0     C 4823  -1.056   8.204   5.843  0.3527 -0.0130  0.0607
  795MOL0     C 4824  -1.133   8.109   5.942 -0.8522 -0.1769  0.6478
  795MOL0     N 4825  -1.274   8.102   5.920 -0.0257 -0.6356 -0.0324
  795MOL0     C 4826  -1.347   7.989   5.923  0.1335 -0.2521  0.4629
  795MOL0     C 4827  -1.471   8.020   5.886  0.1305  0.5220  0.4907
  795MOL0     C 4828  -1.585   7.919   5.883  0.1616  0.1202  0.3097
  795MOL0     C 4829  -1.718   7.993   5.883 -0.7381  0.0993 -0.6283
  795MOL0     C 4830  -1.833   7.898   5.915  0.3349 -0.3076  0.3353
  795MOL0     C 4831  -1.958   7.970   5.952  0.1347 -0.3943 -0.5087
  795MOL0     O 4832  -2.012   8.070   5.862  0.1941 -0.3118 -0.2593
  795MOL0     C 4833  -2.145   8.078   5.847  1.2810  0.1044 -0.3174
  795MOL0     C 4834  -2.242   8.083   5.946 -0.5265 -0.0869  0.3143
  795MOL0     C 4835  -2.369   8.131   5.931  0.1365  0.5017 -0.3704
  795MOL0     C 4836  -2.419   8.174   5.807  0.7450 -0.3297 -0.5527
  795MOL0     C 4837  -2.559   8.219   5.786 -0.1536 -0.0047 -0.0621
  795MOL0     O 4838  -2.647   8.212   5.893  0.1404 -0.4109 -1.1397
  795MOL0     C 4839  -2.781   8.226   5.859 -0.6790 -0.3202  0.1558
  795MOL0     C 4840  -2.865   8.145   5.788 -0.6662 -0.7322  0.3903
  795MOL0     C 4841  -2.985   8.192   5.752  1.0597  0.1819  0.0069
  795MOL0     C 4842  -3.036   8.319   5.785 -0.1922 -0.6631 -0.2859
  795MOL0     O 4843  -3.165   8.355   5.751 -0.1289 -0.1646  0.0995
  795MOL0     C 4844  -3.171   8.424   5.620 -0.9133  0.4847 -0.1262
  795MOL0     C 4845  -3.282   8.528   5.617  0.4418  0.2973 -0.6101
  795MOL0     C 4846  -3.280   8.622   5.745 -0.4828 -0.4234  0.4269
  795MOL0     C 4847  -3.180   8.735   5.722  0.2004  0.0252 -0.3908
  795MOL0     C 4848  -3.185   8.835   5.830  0.9005 -0.0097  0.1523
  795MOL0     C 4849  -3.085   8.951   5.800  0.1581  0.4148  0.0636
  795MOL0     C 4850  -3.097   9.033   5.673 -0.3715 -0.8893 -0.1477
  795MOL0     C 4851  -3.019   9.173   5.688  0.0476 -0.1819 -0.5635
  795MOL0    Cl 4852  -3.095   9.284   5.803  0.4197  0.2949 -0.1791
  795MOL0     C 4853  -2.950   8.403   5.852  0.0012 -0.2904 -0.3741
  795MOL0     C 4854  -2.830   8.360   5.891  0.4383 -0.2727 -0.0763
  795MOL0     O 4855  -2.586   8.269   5.680  0.6365 -0.5172  0.0812
  795MOL0     C 4856  -2.319   8.171   5.699  0.1727 -0.4003  0.5152
  795MOL0     C 4857  -2.193   8.119   5.721 -0.5421  0.4688  0.0444
  795MOL0     N 4858  -1.468   8.156   5.843  0.1350  0.3223  0.2368
  795MOL0     N 4859  -1.355   8.205   5.869 -0.4202  0.6134 -0.6971
  795MOL0     C 4860  -0.156   7.598   5.783  0.0251 -0.2160 -0.0275
  795MOL0     C 4861  -0.023   7.627   5.757 -0.0622 -0.2733  0.4436
  795MOL0     C 4862   0.413   7.699   5.860 -0.2907 -0.3607 -1.1832
  795MOL0     C 4863   0.463   7.771   5.748  0.8042 -0.2211  0.3862
  795MOL0     C 4864   0.599   7.788   5.729 -0.1811  0.9167 -0.4166
  795MOL0     C 4865   0.691   7.726   5.816  0.2508  0.4171 -0.2925
  795MOL0     O 4866   0.819   7.756   5.814  0.4753 -0.2670 -0.3248
  795MOL0     C 4867   0.879   7.818   5.702  0.4937  0.2782  0.2255
  795MOL0     C 4868   1.035   7.851   5.713 -0.1331  0.3216 -0.2805
  795MOL0     C 4869   1.123   7.738   5.766 -0.0728 -0.2300  0.1431
  795MOL0     C 4870   1.255   7.797   5.816  0.4995  0.0960  0.7800
  795MOL0     C 4871   1.338   7.697   5.891  0.1385  0.4687 -0.0415
  795MOL0     C 4872   1.404   7.621   5.960  0.4746 -0.1430 -0.5448
  795MOL0     C 4873   0.646   7.651   5.924  0.5160 -0.0913 -0.8441
  795MOL0     C 4874   0.510   7.636   5.940 -0.0134 -0.4696  0.8520
  795MOL0     H 4875   0.034   7.898   5.940  0.3673 -1.6572  4.3324
  795MOL0     H 4876  -0.210   7.860   5.998 -0.2618 -0.9605 -0.5188
  795MOL0     H 4877  -0.523   7.683   5.789 -1.6481  2.3725 -1.0609
  795MOL0     H 4878  -0.413   7.799   5.724 -1.1356  0.8545  1.2530
  795MOL0     H 4879  -0.435   7.936   5.915  1.8959 -1.8631 -0.4754
  795MOL0     H 4880  -0.526   7.818   6.005 -0.5652  1.4787  0.7782
  795MOL0     H 4881  -0.713   7.827   5.841 -1.4071  0.7214  1.6643
  795MOL0     H 4882  -0.620   7.923   5.726  0.3567  1.0132  0.6934
  795MOL0     H 4883  -0.701   8.029   5.998 -1.2886 -0.5866 -0.0251
  795MOL0     H 4884  -0.637   8.132   5.876  1.1560 -0.0147 -0.7730
  795MOL0     H 4885  -0.902   7.975   5.874  0.0812 -1.4852 -0.9483
  795MOL0     H 4886  -0.844   8.039   5.723  1.9864 -0.3491  0.1151
  795MOL0     H 4887  -0.836   8.253   5.821  1.3858 -1.2867  0.0792
  795MOL0     H 4888  -0.890   8.193   5.983 -0.9774 -1.6764  0.2983
  795MOL0     H 4889  -1.091   8.307   5.852 -0.6904 -0.1955 -1.4500
  795MOL0     H 4890  -1.078   8.164   5.743 -0.4704 -0.1748  0.2991
  795MOL0     H 4891  -1.100   8.139   6.042  0.6331 -1.6929  0.6691
  795MOL0     H 4892  -1.085   8.011   5.932  1.2366  0.6036  2.2199
  795MOL0     H 4893  -1.308   7.891   5.949  1.0409  0.0279  0.2060
  795MOL0     H 4894  -1.573   7.863   5.977  2.1098 -1.5281 -0.8318
  795MOL0     H 4895  -1.584   7.856   5.794 -1.2665 -0.5256  0.7080
  795MOL0     H 4896  -1.736   8.034   5.783  0.4832 -0.4789 -1.1051
  795MOL0     H 4897  -1.713   8.069   5.962  1.1369  1.3052 -1.8459
  795MOL0     H 4898  -1.832   7.833   5.827  0.2554  0.0848  0.0428
  795MOL0     H 4899  -1.800   7.839   6.001  0.7962 -0.1485  0.2732
  795MOL0     H 4900  -1.936   8.029   6.041 -0.9354  2.5656 -2.0790
  795MOL0     H 4901  -2.033   7.894   5.976 -1.4471  1.8542  2.2606
  795MOL0     H 4902  -2.200   8.072   6.045 -1.4669  1.4566  0.9235
  795MOL0     H 4903  -2.423   8.140   6.024 -0.1936  1.3668 -0.6388
  795MOL0     H 4904  -2.821   8.051   5.757  0.5759  0.4919 -1.8432
  795MOL0     H 4905  -3.048   8.124   5.695  2.0509 -0.7115 -0.0492
  795MOL0     H 4906  -3.205   8.351   5.546  1.1785 -1.5163  0.7362
  795MOL0     H 4907  -3.072   8.466   5.600 -0.5071 -0.3632  0.0536
  795MOL0     H 4908  -3.374   8.469   5.630  1.7343 -1.2808  2.4561
  795MOL0     H 4909  -3.282   8.590   5.527 -1.4504 -0.8978 -1.4955
  795MOL0     H 4910  -3.254   8.560   5.831 -0.0149 -2.0432 -0.8387
  795MOL0     H 4911  -3.378   8.667   5.762  0.0241 -0.0893  2.9076
  795MOL0     H 4912  -3.080   8.692   5.709 -0.0443 -0.6972  0.0688
  795MOL0     H 4913  -3.200   8.786   5.628 -2.5526 -0.6045 -0.2185
  795MOL0     H 4914  -3.162   8.790   5.927  0.8869 -1.1549 -0.3561
  795MOL0     H 4915  -3.284   8.875   5.851  1.0281  0.8152 -0.7607
  795MOL0     H 4916  -2.988   8.902   5.795  0.7878  1.7544 -1.9094
  795MOL0     H 4917  -3.089   9.025   5.881 -1.7017  0.8789 -0.4076
  795MOL0     H 4918  -3.065   8.971   5.589 -0.2690 -2.5908  1.0863
  795MOL0     H 4919  -3.204   9.054   5.663 -0.7775 -3.3030 -2.1112
  795MOL0     H 4920  -3.019   9.222   5.591  0.0408  0.4464 -0.2522
  795MOL0     H 4921  -2.917   9.149   5.719 -0.9780 -2.4335  1.3729
  795MOL0     H 4922  -2.972   8.504   5.883  3.8179 -0.1761  2.6746
  795MOL0     H 4923  -2.777   8.437   5.947  0.3893 -1.2693  1.4038
  795MOL0     H 4924  -2.355   8.206   5.603 -0.3899  2.0710  1.5485
  795MOL0     H 4925  -2.118   8.123   5.643  0.7670 -2.0015  1.0844
  795MOL0     H 4926  -0.212   7.517   5.739 -2.0246  0.3407  1.3862
  795MOL0     H 4927   0.049   7.571   5.698  0.4097 -1.2010  1.8652
  795MOL0     H 4928   0.400   7.829   5.681  1.6585 -1.0678 -1.2063
  795MOL0     H 4929   0.635   7.842   5.642 -0.3480 -0.5682 -1.4382
  795MOL0     H 4930   0.824   7.898   5.653 -1.9212 -0.4500  1.5523
  795MOL0     H 4931   0.887   7.741   5.625 -1.0241 -0.8086  1.0965
  795MOL0     H 4932   1.063   7.874   5.610  3.5725 -2.9645 -0.2349
  795MOL0     H 4933   1.051   7.935   5.781 -1.0945 -0.5978  1.1374
  795MOL0     H 4934   1.148   7.662   5.691  1.1396 -1.9925  2.2228
  795MOL0     H 4935   1.069   7.681   5.842 -0.4901  0.5762  0.4619
  795MOL0     H 4936   1.312   7.831   5.729 -0.8141 -0.1875 -0.2240
  795MOL0     H 4937   1.234   7.884   5.878 -0.2157 -0.3523  1.1763
  795MOL0     H 4938   1.456   7.559   6.030  0.1985  0.1200 -0.1008
  795MOL0     H 4939   0.710   7.599   5.995  1.2267 -0.3298 -1.6523
  795MOL0     H 4940   0.473   7.582   6.026 -3.9894  2.7227  1.4652
  796MOL0     O 4941   2.754   5.954   0.280 -0.2153 -0.4601  1.3115
  796MOL0     C 4942   2.790   5.997   0.171 -0.3338  0.1737  0.2830
  796MOL0     O 4943   2.715   6.063   0.078 -0.2697 -0.0856  0.0963
  796MOL0     C 4944   2.579   6.070   0.090 -0.9753 -0.0532 -0.0045
  796MOL0     C 4945   2.502   5.975   0.026 -0.2842 -0.0056  0.1760
  796MOL0     C 4946   2.360   5.986   0.034  0.4486 -0.3820  0.1403
  796MOL0     C 4947   2.305   6.086   0.117  0.1002  0.3714  0.7270
  796MOL0     O 4948   2.173   6.117   0.130  0.8379  0.8937 -0.8404
  796MOL0     C 4949   2.070   6.045   0.057 -0.1276 -0.0525 -0.0811
  796MOL0     C 4950   1.947   6.109   0.117  0.0682  0.4768 -0.2388
  796MOL0     C 4951   1.818   6.046   0.049  0.9646  0.5561 -0.0039
  796MOL0     C 4952   1.698   6.030   0.152  0.3428  0.1125 -0.7601
  796MOL0     C 4953   1.583   5.936   0.109 -0.3932 -0.8800 -0.1784
  796MOL0     C 4954   1.470   6.014   0.039 -0.1757  0.6905 -0.3286
  796MOL0     C 4955   1.345   5.924   0.013  0.2544 -0.0565 -0.7957
  796MOL0     C 4956   1.226   5.982  -0.072 -0.2002 -0.9840 -0.4726
  796MOL0     N 4957   1.197   6.118  -0.047 -1.1594  0.4744 -0.1488
  796MOL0     C 4958   1.175   6.163   0.080 -0.6205 -0.5882  0.0174
  796MOL0     C 4959   1.170   6.298   0.065 -0.0903 -0.5642  0.1957
  796MOL0     C 4960   1.144   6.406   0.160  0.9123  0.2717 -0.3529
  796MOL0     C 4961   1.057   6.368   0.276 -0.9045  0.5383  0.1394
  796MOL0     C 4962   1.002   6.491   0.351 -0.6711 -0.1822  0.5866
  796MOL0     C 4963   0.856   6.507   0.346  0.0394 -0.0757 -0.1143
  796MOL0     O 4964   0.807   6.530   0.210 -0.0828  0.6283  0.0989
  796MOL0     C 4965   0.674   6.540   0.181 -0.5642 -0.7393 -0.2917
  796MOL0     C 4966   0.637   6.586   0.054  0.2924  0.3043 -0.5071
  796MOL0     C 4967   0.502   6.615   0.028 -0.3538 -0.2313  0.6328
  796MOL0     C 4968   0.402   6.595   0.120  1.0857  0.0244  0.0911
  796MOL0     C 4969   0.262   6.637   0.085  0.7222  0.3550 -0.5030
  796MOL0     O 4970   0.180   6.652   0.197  0.0102  0.7043  0.1064
  796MOL0     C 4971   0.045   6.658   0.179 -0.6418 -0.9602 -0.3353
  796MOL0     C 4972  -0.008   6.784   0.200 -0.0234 -0.1514  0.6270
  796MOL0     C 4973  -0.143   6.810   0.187  0.2596  0.9768 -0.2662
  796MOL0     C 4974  -0.228   6.707   0.149 -0.3270 -0.1488  0.2930
  796MOL0     O 4975  -0.362   6.743   0.139 -0.1058 -0.1931  0.4391
  796MOL0     C 4976  -0.445   6.682   0.037  0.0926  0.1796  0.3585
  796MOL0     C 4977  -0.570   6.623   0.101  0.2228 -0.4791 -0.5307
  796MOL0     C 4978  -0.673   6.726   0.152  0.3947  0.1668 -0.9832
  796MOL0     C 4979  -0.766   6.662   0.256 -1.0061  0.2531  0.2785
  796MOL0     C 4980  -0.853   6.771   0.314 -0.6154  0.3865 -0.3049
  796MOL0     C 4981  -0.920   6.720   0.436  0.3206  0.4147  0.0249
  796MOL0     C 4982  -1.023   6.820   0.494 -0.4011  0.2628  0.5860
  796MOL0     C 4983  -1.091   6.780   0.620 -0.1086 -0.3869  0.1165
  796MOL0    Cl 4984  -0.971   6.794   0.741  0.1988  0.0534 -0.3591
  796MOL0     C 4985  -0.177   6.576   0.117  0.6348  0.2681 -0.1558
  796MOL0     C 4986  -0.033   6.550   0.140  0.4047  0.2997 -0.4632
  796MOL0     O 4987   0.222   6.630  -0.028 -0.0601  0.0148 -0.2029
  796MOL0     C 4988   0.442   6.520   0.233  0.3969  0.8264 -0.6222
  796MOL0     C 4989   0.576   6.513   0.272  0.3080 -0.0228 -0.7040
  796MOL0     N 4990   1.161   6.326  -0.069  0.2740 -0.3948 -0.1695
  796MOL0     N 4991   1.184   6.218  -0.136  0.3021  0.3841  0.0353
  796MOL0     C 4992   2.389   6.176   0.181 -0.4764 -0.2854  0.2727
  796MOL0     C 4993   2.529   6.176   0.168 -0.0758  0.1243 -0.7985
  796MOL0     C 4994   2.927   5.971   0.145  0.2102  0.2803 -0.2830
  796MOL0     C 4995   2.975   5.980   0.015 -0.5882  0.4025  0.3501
  796MOL0     C 4996   3.116   5.951  -0.013 -0.1971 -0.1743 -0.4925
  796MOL0     C 4997   3.203   5.926   0.091 -0.2652 -0.1174  0.5411
  796MOL0     O 4998   3.329   5.920   0.045 -0.4853 -0.3213  0.8277
  796MOL0     C 4999   3.427   5.897   0.147  0.4709 -0.0465 -0.1122
  796MOL0     C 5000   3.563   5.854   0.094  1.1148  0.4902 -0.1303
  796MOL0     C 5001   3.620   5.972   0.015  1.2571 -1.4810  0.4230
  796MOL0     C 5002   3.762   5.948  -0.024  0.3854  0.0549  0.8606
  796MOL0     C 5003   3.850   5.948   0.092 -0.3732  0.2522 -0.0321
  796MOL0     C 5004   3.918   5.945   0.189  0.6624  0.6038 -0.2223
  796MOL0     C 5005   3.153   5.923   0.219 -0.0519 -0.1691 -0.0838
  796MOL0     C 5006   3.015   5.938   0.247  0.3283  0.0833 -0.7279
  796MOL0     H 5007   2.555   5.897  -0.027 -0.8513 -0.2450 -0.0471
  796MOL0     H 5008   2.298   5.915  -0.019  1.0382  0.5167 -1.8496
  796MOL0     H 5009   2.082   5.939   0.082  0.2955  0.0336  0.0919
  796MOL0     H 5010   2.080   6.052  -0.051  1.4079  2.9036  0.1234
  796MOL0     H 5011   1.943   6.218   0.117  1.9851  0.6102 -1.8334
  796MOL0     H 5012   1.951   6.099   0.226  2.2142  1.4944 -0.1769
  796MOL0     H 5013   1.839   5.945   0.011  0.9534  1.0235 -1.2657
  796MOL0     H 5014   1.779   6.105  -0.034  0.3215  0.4361  0.2080
  796MOL0     H 5015   1.732   5.986   0.246 -2.3203  0.6910  0.5577
  796MOL0     H 5016   1.654   6.127   0.177 -1.1817 -1.3813  3.1026
  796MOL0     H 5017   1.540   5.870   0.185 -1.7991 -1.3446 -1.3249
  796MOL0     H 5018   1.625   5.865   0.036  0.7279 -1.4014  0.9454
  796MOL0     H 5019   1.502   6.051  -0.059  1.8168 -3.9301 -1.7199
  796MOL0     H 5020   1.440   6.101   0.098 -0.3648  0.1084  0.4609
  796MOL0     H 5021   1.367   5.829  -0.036  0.2977 -0.6107  0.2782
  796MOL0     H 5022   1.313   5.889   0.111 -1.5075 -0.4815 -1.4704
  796MOL0     H 5023   1.138   5.928  -0.036  0.9907 -1.2795  2.3327
  796MOL0     H 5024   1.239   5.958  -0.178 -2.8190 -1.1966 -0.8047
  796MOL0     H 5025   1.184   6.108   0.173  0.6117 -1.8900 -0.8379
  796MOL0     H 5026   1.079   6.472   0.102 -0.0165 -2.2013 -2.3256
  796MOL0     H 5027   1.241   6.446   0.192  0.5387  0.6398  0.3153
  796MOL0     H 5028   1.118   6.299   0.335 -0.8895 -2.6271 -3.2478
  796MOL0     H 5029   0.967   6.311   0.249 -1.5699 -0.4048  3.7117
  796MOL0     H 5030   1.036   6.488   0.455 -2.4589 -0.7784  1.1883
  796MOL0     H 5031   1.048   6.584   0.316 -0.5898 -0.5459 -0.3182
  796MOL0     H 5032   0.831   6.591   0.411 -1.3300 -1.0709  0.6908
  796MOL0     H 5033   0.806   6.422   0.393 -3.3476  2.0272  0.3904
  796MOL0     H 5034   0.718   6.595  -0.018  0.4735 -0.0859 -0.3537
  796MOL0     H 5035   0.469   6.669  -0.060 -2.0640 -0.7861  0.8943
  796MOL0     H 5036   0.061   6.867   0.213  0.0337 -0.1905  0.5800
  796MOL0     H 5037  -0.183   6.909   0.208  0.9498  1.6382 -1.9439
  796MOL0     H 5038  -0.398   6.607  -0.027  0.2281  0.9984 -0.5242
  796MOL0     H 5039  -0.482   6.755  -0.036 -0.2974  1.4488  1.7774
  796MOL0     H 5040  -0.540   6.555   0.180 -0.7295 -0.1588  0.1300
  796MOL0     H 5041  -0.626   6.555   0.035 -0.1176 -1.1235  0.4090
  796MOL0     H 5042  -0.726   6.776   0.070 -1.1492  1.3198  0.6640
  796MOL0     H 5043  -0.623   6.807   0.207  1.2056 -1.6275  1.0536
  796MOL0     H 5044  -0.820   6.578   0.211  1.2622 -0.2363 -1.7763
  796MOL0     H 5045  -0.699   6.620   0.331  2.0489  1.5916 -1.4760
  796MOL0     H 5046  -0.921   6.821   0.244 -0.9936  2.2710  1.3444
  796MOL0     H 5047  -0.793   6.853   0.354 -0.6084  0.4535 -0.4529
  796MOL0     H 5048  -0.845   6.704   0.513  0.6449  0.3410 -0.3064
  796MOL0     H 5049  -0.973   6.629   0.406 -0.4240  1.1359 -0.9527
  796MOL0     H 5050  -0.964   6.910   0.515  0.3408 -0.5795  2.2842
  796MOL0     H 5051  -1.094   6.846   0.415  2.4389  1.2092 -1.8583
  796MOL0     H 5052  -1.132   6.679   0.627 -1.2387  0.1540  2.2987
  796MOL0     H 5053  -1.177   6.842   0.645 -3.1678 -3.8655 -0.8752
  796MOL0     H 5054  -0.246   6.504   0.073  1.3782 -0.2620 -0.4682
  796MOL0     H 5055   0.002   6.452   0.111 -2.1215 -0.7218 -0.3658
  796MOL0     H 5056   0.365   6.502   0.307  0.0791  0.1408 -1.1021
  796MOL0     H 5057   0.602   6.469   0.368 -1.2456 -2.8712 -1.4735
  796MOL0     H 5058   2.343   6.253   0.242  0.5096  2.0618 -1.7945
  796MOL0     H 5059   2.577   6.262   0.213 -0.7125 -0.9019  2.0165
  796MOL0     H 5060   2.908   5.985  -0.070 -1.7068 -0.9440  1.1169
  796MOL0     H 5061   3.156   5.953  -0.114  2.8181 -1.6997  0.5502
  796MOL0     H 5062   3.399   5.811   0.209 -1.0999 -0.7567 -1.7013
  796MOL0     H 5063   3.427   5.990   0.205 -2.5642 -0.0988  0.1438
  796MOL0     H 5064   3.628   5.828   0.177 -0.5830 -1.6910  0.5951
  796MOL0     H 5065   3.547   5.763   0.036  0.0937  0.1763  0.6155
  796MOL0     H 5066   3.614   6.068   0.068  1.2052 -2.2565  1.8873
  796MOL0     H 5067   3.558   5.986  -0.074  1.3233 -0.9960  0.4507
  796MOL0     H 5068   3.762   5.855  -0.082 -1.0809 -0.2999  1.3834
  796MOL0     H 5069   3.806   6.024  -0.089  1.8780 -1.6637 -0.2394
  796MOL0     H 5070   3.956   5.943   0.289  2.3214 -3.3884 -0.7413
  796MOL0     H 5071   3.222   5.897   0.299  2.1959  0.6053 -1.6687
  796MOL0     H 5072   2.982   5.898   0.342  0.9447  0.4900 -0.3278
  797MOL0     O 5073   6.865   8.387   6.449  0.1492 -0.5623  1.0329
  797MOL0     C 5074   6.945   8.436   6.530 -0.6214 -0.2885  0.7588
  797MOL0     O 5075   6.953   8.407   6.673 -0.2592 -0.4190  0.8604
  797MOL0     C 5076   6.870   8.311   6.727 -0.0963 -0.7397 -0.0713
  797MOL0     C 5077   6.789   8.349   6.837 -0.5757  0.3563  0.2260
  797MOL0     C 5078   6.707   8.257   6.897  0.4183  0.7706  0.2637
  797MOL0     C 5079   6.688   8.128   6.849 -0.6308  0.1086  0.6584
  797MOL0     O 5080   6.592   8.041   6.902 -0.8053 -0.7427  0.0933
  797MOL0     C 5081   6.622   7.901   6.912 -0.0817  0.7677  0.8914
  797MOL0     C 5082   6.542   7.829   7.016 -0.2995 -0.3928  0.2247
  797MOL0     C 5083   6.390   7.823   6.996 -0.6659  0.3105 -0.1989
  797MOL0     C 5084   6.352   7.744   6.865  0.6318 -0.5916 -1.3566
  797MOL0     C 5085   6.207   7.692   6.866 -0.2102 -0.2051 -0.3578
  797MOL0     C 5086   6.117   7.804   6.821  0.7358 -0.7092 -0.4525
  797MOL0     C 5087   5.975   7.764   6.792  0.1534 -1.4454  0.0869
  797MOL0     C 5088   5.889   7.749   6.915 -0.3524 -0.4764  0.1412
  797MOL0     N 5089   5.745   7.757   6.883  0.3012  0.0252  0.3294
  797MOL0     C 5090   5.688   7.833   6.777  0.0292  0.2001 -0.0920
  797MOL0     C 5091   5.557   7.823   6.793 -0.5804 -0.1918 -1.1738
  797MOL0     C 5092   5.462   7.867   6.687 -0.7891 -0.3114 -0.6580
  797MOL0     C 5093   5.323   7.875   6.753 -0.5838 -0.2841  0.5447
  797MOL0     C 5094   5.227   7.937   6.657 -0.2718 -0.2295 -1.1935
  797MOL0     C 5095   5.091   7.977   6.725  0.5181 -0.0843  0.5281
  797MOL0     O 5096   5.013   8.020   6.611  0.2634 -0.4558  0.6592
  797MOL0     C 5097   4.915   7.936   6.564  0.2549 -0.2767 -0.3434
  797MOL0     C 5098   4.825   7.994   6.476 -0.1448  0.1911  0.0283
  797MOL0     C 5099   4.707   7.931   6.447 -0.6508  0.2042  0.1146
  797MOL0     C 5100   4.680   7.802   6.480 -0.1008 -0.4669 -0.5263
  797MOL0     C 5101   4.565   7.723   6.438  0.4608 -0.1454 -0.0271
  797MOL0     O 5102   4.469   7.795   6.366 -0.1388  0.1559 -0.2905
  797MOL0     C 5103   4.351   7.723   6.323 -0.6806  0.1033 -0.1253
  797MOL0     C 5104   4.333   7.655   6.206 -1.0772  0.4344 -0.2185
  797MOL0     C 5105   4.211   7.600   6.171  0.6318  0.1076  0.6194
  797MOL0     C 5106   4.096   7.619   6.245 -0.2728  0.0628  0.2076
  797MOL0     O 5107   3.971   7.566   6.195 -0.1177  0.4349  0.5265
  797MOL0     C 5108   3.854   7.584   6.266  0.7065  0.4164  0.9420
  797MOL0     C 5109   3.749   7.512   6.183  0.1601  0.2799  0.0752
  797MOL0     C 5110   3.602   7.552   6.226 -0.0765 -0.6225 -0.1240
  797MOL0     C 5111   3.509   7.482   6.129  0.1174 -0.0269  0.0101
  797MOL0     C 5112   3.355   7.515   6.155 -0.0659 -0.1674  1.0619
  797MOL0     C 5113   3.306   7.461   6.285 -0.2905  0.4802 -0.1540
  797MOL0     C 5114   3.165   7.499   6.312 -0.4538  0.3273 -0.8078
  797MOL0     C 5115   3.145   7.646   6.359 -0.1707 -0.2728  0.1946
  797MOL0    Cl 5116   2.972   7.680   6.381 -0.2908 -0.2994  0.2067
  797MOL0     C 5117   4.114   7.686   6.363  1.1001 -0.7853 -0.3564
  797MOL0     C 5118   4.237   7.733   6.406 -0.2763 -0.2036 -0.6576
  797MOL0     O 5119   4.545   7.617   6.492 -0.8363  0.2864 -0.9436
  797MOL0     C 5120   4.784   7.729   6.552  0.3746  0.3924  0.5402
  797MOL0     C 5121   4.897   7.799   6.594  1.3816 -0.1423 -0.1946
  797MOL0     N 5122   5.536   7.750   6.917 -0.2737 -0.2568  0.3133
  797MOL0     N 5123   5.648   7.710   6.966 -0.1213  0.3411 -0.7974
  797MOL0     C 5124   6.766   8.097   6.731 -0.2124 -0.5041 -0.0283
  797MOL0     C 5125   6.851   8.182   6.671  0.1229 -0.4195  0.7297
  797MOL0     C 5126   7.061   8.510   6.473  0.4789  0.2917 -0.3543
  797MOL0     C 5127   7.107   8.497   6.338  1.1298 -0.3794 -0.2166
  797MOL0     C 5128   7.236   8.541   6.306 -0.5799 -0.3625 -0.3207
  797MOL0     C 5129   7.314   8.624   6.394  0.2442 -0.5708 -0.2726
  797MOL0     O 5130   7.434   8.670   6.344 -0.5386 -0.3189 -0.0722
  797MOL0     C 5131   7.510   8.765   6.419  0.1171 -0.6593 -0.1615
  797MOL0     C 5132   7.652   8.769   6.373 -0.1011  0.2805 -0.3274
  797MOL0     C 5133   7.660   8.801   6.223  0.0382  0.8738  0.3020
  797MOL0     C 5134   7.808   8.799   6.171  1.3847 -0.1043  0.5714
  797MOL0     C 5135   7.872   8.933   6.185  0.7811  0.2057 -0.2622
  797MOL0     C 5136   7.921   9.041   6.202  0.3996  0.2126 -0.7494
  797MOL0     C 5137   7.256   8.645   6.522 -0.2937 -0.1452 -0.9596
  797MOL0     C 5138   7.136   8.587   6.564  0.5890  0.9808 -0.0169
  797MOL0     H 5139   6.796   8.452   6.869  2.0176 -0.2489  1.9767
  797MOL0     H 5140   6.652   8.290   6.984  1.6043  2.4809  0.4126
  797MOL0     H 5141   6.728   7.880   6.925 -0.1262 -0.8485 -0.8133
  797MOL0     H 5142   6.609   7.849   6.816  1.2121  1.0058  0.5787
  797MOL0     H 5143   6.569   7.888   7.104  0.0653  0.8724 -0.7235
  797MOL0     H 5144   6.585   7.729   7.030 -0.3513 -0.4184  0.2030
  797MOL0     H 5145   6.350   7.925   6.997  0.3172  0.7126  0.8372
  797MOL0     H 5146   6.353   7.772   7.085 -0.3136 -0.3077 -0.3949
  797MOL0     H 5147   6.370   7.818   6.786  1.2887  3.5631  2.2837
  797MOL0     H 5148   6.410   7.651   6.859  1.3506 -0.0874 -2.6353
  797MOL0     H 5149   6.189   7.666   6.971 -0.8640  1.7418  0.0510
  797MOL0     H 5150   6.204   7.603   6.803  1.5264 -1.2078  0.8888
  797MOL0     H 5151   6.154   7.835   6.723  0.1957 -3.6266 -1.6778
  797MOL0     H 5152   6.124   7.885   6.894 -0.8562 -0.0719 -0.9674
  797MOL0     H 5153   5.946   7.843   6.722  0.9159  0.9842  2.3839
  797MOL0     H 5154   5.973   7.674   6.730 -0.1899  0.5603 -3.0376
  797MOL0     H 5155   5.907   7.829   6.988 -1.4067 -2.5151  2.8062
  797MOL0     H 5156   5.909   7.655   6.967 -0.5437  0.6899  2.4772
  797MOL0     H 5157   5.738   7.877   6.691 -1.2734  2.1283  0.0712
  797MOL0     H 5158   5.462   7.801   6.600  1.8284  0.7619 -1.5443
  797MOL0     H 5159   5.495   7.967   6.657 -3.4889  1.9339  2.9954
  797MOL0     H 5160   5.337   7.940   6.840  1.2033  2.3737 -1.5353
  797MOL0     H 5161   5.285   7.777   6.784  1.1757 -1.4049 -0.6500
  797MOL0     H 5162   5.264   8.027   6.607 -4.4737  1.8568 -0.9803
  797MOL0     H 5163   5.217   7.865   6.576  0.4876 -0.6626 -0.9120
  797MOL0     H 5164   5.099   8.057   6.799  2.0377  2.1725 -1.8662
  797MOL0     H 5165   5.052   7.892   6.781 -0.0655  0.3554  0.8046
  797MOL0     H 5166   4.843   8.098   6.452 -1.1735 -0.1593 -2.6107
  797MOL0     H 5167   4.636   7.996   6.398  2.0568  2.5535 -0.9911
  797MOL0     H 5168   4.414   7.637   6.137 -1.6721  0.6679 -0.9897
  797MOL0     H 5169   4.203   7.543   6.079  2.0649  1.2076 -0.2328
  797MOL0     H 5170   3.825   7.690   6.269  1.4270  0.6492  0.0887
  797MOL0     H 5171   3.865   7.541   6.366  1.8740  0.4181  0.8306
  797MOL0     H 5172   3.755   7.403   6.184 -0.7444  0.2235  1.3086
  797MOL0     H 5173   3.757   7.558   6.084  0.4685  1.1939  0.5066
  797MOL0     H 5174   3.590   7.660   6.219 -0.5823 -0.6967 -0.3685
  797MOL0     H 5175   3.587   7.521   6.330 -1.4159  0.8156  0.1462
  797MOL0     H 5176   3.528   7.520   6.028 -2.2688  2.0668  0.2490
  797MOL0     H 5177   3.507   7.373   6.139  2.6084  0.0939  3.1193
  797MOL0     H 5178   3.294   7.464   6.079 -0.6947 -0.7349  1.9304
  797MOL0     H 5179   3.335   7.623   6.148 -0.7782 -0.2548  1.5684
  797MOL0     H 5180   3.373   7.498   6.364  0.1357 -1.5993  0.5368
  797MOL0     H 5181   3.303   7.352   6.277 -0.1573  0.4876 -0.3094
  797MOL0     H 5182   3.120   7.481   6.214  0.9953 -2.2579 -1.1010
  797MOL0     H 5183   3.123   7.436   6.391 -0.8029  0.7399 -0.6585
  797MOL0     H 5184   3.210   7.705   6.292  0.4604 -2.3328 -1.1174
  797MOL0     H 5185   3.192   7.661   6.457 -2.9066  2.0687  1.2754
  797MOL0     H 5186   4.026   7.705   6.423 -1.0255  2.3240 -4.0410
  797MOL0     H 5187   4.259   7.763   6.508 -0.6134 -0.2265 -0.5762
  797MOL0     H 5188   4.775   7.625   6.579  0.1604  0.8247  2.2577
  797MOL0     H 5189   4.972   7.744   6.649  0.8068  0.4245  1.1946
  797MOL0     H 5190   6.744   7.995   6.700 -1.2152 -1.7226  4.0646
  797MOL0     H 5191   6.904   8.150   6.582  3.1737  0.7177  1.9922
  797MOL0     H 5192   7.046   8.434   6.273  0.3449  0.3426 -0.1949
  797MOL0     H 5193   7.278   8.519   6.208  1.2667  1.1851  0.0430
  797MOL0     H 5194   7.519   8.743   6.526  2.9718  1.6173  0.2193
  797MOL0     H 5195   7.463   8.864   6.413  1.3535 -0.0047  0.4035
  797MOL0     H 5196   7.714   8.842   6.426  0.5305 -0.3043 -0.2443
  797MOL0     H 5197   7.696   8.669   6.388  0.9722  0.1759 -3.4342
  797MOL0     H 5198   7.610   8.896   6.202 -0.6180  0.4168 -0.2610
  797MOL0     H 5199   7.597   8.722   6.180 -0.1254 -0.7776  3.2459
  797MOL0     H 5200   7.865   8.720   6.222 -1.2219 -1.3840  1.7114
  797MOL0     H 5201   7.812   8.784   6.063  0.2386  1.8393  0.2230
  797MOL0     H 5202   7.949   9.138   6.240 -3.0056  1.4961 -1.1496
  797MOL0     H 5203   7.305   8.708   6.596  2.1470 -1.1228 -1.6212
  797MOL0     H 5204   7.107   8.599   6.668  1.6885  0.8523  0.3111
  798MOL0     O 5205   5.577  10.105   6.608  0.7580  0.2494  0.1512
  798MOL0     C 5206   5.664  10.185   6.569  0.8455  0.4189  0.8137
  798MOL0     O 5207   5.653  10.288   6.490 -0.3258  0.0301  0.7549
  798MOL0     C 5208   5.531  10.317   6.445 -0.7607 -0.6796  0.1117
  798MOL0     C 5209   5.475  10.247   6.337  0.8284 -0.2157  0.5943
  798MOL0     C 5210   5.340  10.270   6.292 -0.1582  0.2364 -0.6621
  798MOL0     C 5211   5.255  10.360   6.356  0.0527 -0.0115 -0.2808
  798MOL0     O 5212   5.132  10.389   6.303  0.3041  0.1932 -0.0021
  798MOL0     C 5213   5.024  10.397   6.403 -0.0497  0.4384  0.5227
  798MOL0     C 5214   4.908  10.466   6.325 -0.0846  0.2549  0.0159
  798MOL0     C 5215   4.793  10.515   6.422 -1.1394 -0.6088 -0.2789
  798MOL0     C 5216   4.731  10.650   6.377 -0.0722  0.3105 -0.6166
  798MOL0     C 5217   4.597  10.685   6.434 -0.0491 -0.2564  0.3610
  798MOL0     C 5218   4.486  10.591   6.388 -0.4778  0.5794 -0.2837
  798MOL0     C 5219   4.351  10.631   6.449  0.7492 -0.1272 -0.6171
  798MOL0     C 5220   4.241  10.540   6.388  0.6175 -0.6482  0.4306
  798MOL0     N 5221   4.109  10.594   6.429 -0.4009  0.7275  0.3048
  798MOL0     C 5222   4.069  10.619   6.560 -0.1055 -0.1204 -0.0702
  798MOL0     C 5223   3.948  10.675   6.554  0.0503 -0.3364  0.1542
  798MOL0     C 5224   3.857  10.707   6.673 -0.9707  0.7185  0.3367
  798MOL0     C 5225   3.734  10.616   6.682 -0.3610 -0.5343  0.7600
  798MOL0     C 5226   3.627  10.645   6.792  0.2111 -0.5432  0.4650
  798MOL0     C 5227   3.505  10.562   6.768 -0.7188 -0.1899 -0.2791
  798MOL0     O 5228   3.422  10.585   6.891 -0.8294 -0.6658  0.2367
  798MOL0     C 5229   3.304  10.522   6.905 -0.2743  0.2891  0.0668
  798MOL0     C 5230   3.225  10.554   7.018 -0.8454 -0.2972  0.3498
  798MOL0     C 5231   3.093  10.507   7.022 -0.1718 -1.3123  1.4245
  798MOL0     C 5232   3.030  10.455   6.908 -0.1678  0.2705 -0.3318
  798MOL0     C 5233   2.884  10.423   6.915 -0.7357 -0.0200  0.5313
  798MOL0     O 5234   2.836  10.438   7.035 -0.4626 -0.4057  0.0099
  798MOL0     C 5235   2.703  10.409   7.068 -0.8134 -0.7048 -0.6555
  798MOL0     C 5236   2.619  10.504   7.138 -0.0039  0.0797 -0.0470
  798MOL0     C 5237   2.484  10.480   7.158  0.4469 -0.5058 -0.1375
  798MOL0     C 5238   2.417  10.367   7.108  0.3878 -0.4327 -0.1800
  798MOL0     O 5239   2.285  10.352   7.131 -0.3334  0.3427 -0.0436
  798MOL0     C 5240   2.204  10.331   7.017 -0.0951 -0.1958  0.5824
  798MOL0     C 5241   2.072  10.417   7.022 -0.1799  0.6370 -0.3086
  798MOL0     C 5242   1.966  10.372   6.927  0.0672 -0.3138 -0.5023
  798MOL0     C 5243   1.993  10.404   6.782  0.5420 -0.9749  0.9833
  798MOL0     C 5244   1.911  10.319   6.681  0.0744 -0.3769 -1.0232
  798MOL0     C 5245   1.764  10.360   6.668 -0.2540 -0.4568  0.2002
  798MOL0     C 5246   1.688  10.261   6.584  0.0877  1.0133 -0.1968
  798MOL0     C 5247   1.544  10.291   6.560  0.1361 -0.8869 -0.2417
  798MOL0    Cl 5248   1.474  10.161   6.457 -0.0537  0.2814 -0.1966
  798MOL0     C 5249   2.500  10.272   7.045  0.2004  0.2974 -0.2828
  798MOL0     C 5250   2.642  10.288   7.026 -0.1428 -0.7510 -0.0147
  798MOL0     O 5251   2.823  10.387   6.810 -0.3148 -0.5420 -0.2702
  798MOL0     C 5252   3.112  10.416   6.804  1.0833  0.1934  0.1738
  798MOL0     C 5253   3.248  10.445   6.805  0.2868  0.6439  0.0313
  798MOL0     N 5254   3.913  10.673   6.416 -0.3043  0.6478 -0.7553
  798MOL0     N 5255   4.013  10.627   6.345  0.6451 -0.1028 -0.2858
  798MOL0     C 5256   5.310  10.439   6.465 -0.9819 -0.3112  1.0825
  798MOL0     C 5257   5.452  10.419   6.500 -0.6651 -0.1507 -0.0832
  798MOL0     C 5258   5.794  10.155   6.624 -0.1889 -1.4781 -0.2132
  798MOL0     C 5259   5.915  10.190   6.557 -0.2833  0.8348 -0.6934
  798MOL0     C 5260   6.037  10.172   6.627 -0.3430 -0.9149  0.7016
  798MOL0     C 5261   6.044  10.114   6.751 -0.0113 -0.1150 -0.6981
  798MOL0     O 5262   6.155  10.093   6.822  0.5332  1.2737  0.4235
  798MOL0     C 5263   6.276  10.134   6.762  0.0150  0.6997  0.1692
  798MOL0     C 5264   6.390  10.095   6.856  0.4030 -0.0861 -0.5714
  798MOL0     C 5265   6.532  10.125   6.797  0.4645  0.6548  0.1012
  798MOL0     C 5266   6.570  10.279   6.807  0.1716 -0.4324 -0.3514
  798MOL0     C 5267   6.710  10.305   6.784  0.3967  0.4175  0.8416
  798MOL0     C 5268   6.823  10.341   6.765  0.1377  0.4732  0.1249
  798MOL0     C 5269   5.921  10.077   6.813 -0.2555  0.5022 -0.3337
  798MOL0     C 5270   5.804  10.104   6.756 -0.0998  0.3498  0.2101
  798MOL0     H 5271   5.531  10.164   6.293  1.4567  1.0894 -1.1712
  798MOL0     H 5272   5.298  10.220   6.205 -1.0216  0.5347 -0.4291
  798MOL0     H 5273   5.058  10.456   6.489 -0.1519  0.9372  0.2238
  798MOL0     H 5274   5.004  10.295   6.438 -0.0925  0.0793 -0.5203
  798MOL0     H 5275   4.867  10.401   6.247  0.3913 -1.3354  1.0473
  798MOL0     H 5276   4.958  10.547   6.271  0.8802 -1.1510 -1.2640
  798MOL0     H 5277   4.838  10.532   6.520  0.1698 -3.0070 -0.3993
  798MOL0     H 5278   4.719  10.435   6.434 -1.0392 -0.6848 -0.1675
  798MOL0     H 5279   4.804  10.729   6.399  2.4368 -1.8480 -0.7165
  798MOL0     H 5280   4.734  10.652   6.268 -1.0033 -1.8367 -0.7384
  798MOL0     H 5281   4.565  10.787   6.408 -1.0875 -0.1079  2.0626
  798MOL0     H 5282   4.607  10.677   6.543  1.2731 -0.0777  0.2643
  798MOL0     H 5283   4.507  10.487   6.415  0.2505  0.1006 -2.5259
  798MOL0     H 5284   4.479  10.593   6.279  0.2282 -0.6663 -0.3740
  798MOL0     H 5285   4.350  10.618   6.558 -2.0232 -0.7742 -0.6490
  798MOL0     H 5286   4.323  10.735   6.432 -0.3452  0.0188  1.6637
  798MOL0     H 5287   4.253  10.434   6.413  0.7281 -0.4456  1.2690
  798MOL0     H 5288   4.247  10.550   6.280  1.0227  0.0967  0.5116
  798MOL0     H 5289   4.116  10.599   6.656 -1.3644 -1.2580  0.3324
  798MOL0     H 5290   3.819  10.807   6.653 -0.2123  0.5998 -2.0230
  798MOL0     H 5291   3.909  10.691   6.768 -0.4109 -1.7793 -0.3109
  798MOL0     H 5292   3.755  10.509   6.692  2.0828  0.0192  2.6532
  798MOL0     H 5293   3.695  10.628   6.580  2.0211 -0.3573 -0.2003
  798MOL0     H 5294   3.674  10.631   6.890 -0.4753 -1.3725  0.6843
  798MOL0     H 5295   3.599  10.751   6.791  1.3251 -0.2134 -2.2427
  798MOL0     H 5296   3.519  10.454   6.755  0.0719  0.0041 -1.0895
  798MOL0     H 5297   3.451  10.586   6.676 -0.1691  0.4279 -0.4426
  798MOL0     H 5298   3.266  10.622   7.091  0.3668 -1.6289  0.9593
  798MOL0     H 5299   3.033  10.530   7.110  0.4458  0.4482  1.4143
  798MOL0     H 5300   2.662  10.602   7.157 -0.6875  0.7478 -1.7289
  798MOL0     H 5301   2.430  10.563   7.202  3.0999  1.0318  0.4025
  798MOL0     H 5302   2.166  10.228   7.024 -1.4006  0.3086  1.2949
  798MOL0     H 5303   2.249  10.352   6.920  1.8586  1.7672  1.8423
  798MOL0     H 5304   2.112  10.516   6.996  0.2491  0.2825 -1.0441
  798MOL0     H 5305   2.023  10.407   7.119 -0.8400 -1.8092 -0.8485
  798MOL0     H 5306   1.869  10.411   6.959 -0.3998  0.9339 -3.1893
  798MOL0     H 5307   1.953  10.264   6.943 -0.5779 -0.0735  0.7678
  798MOL0     H 5308   1.982  10.510   6.759  0.7602 -1.2872 -0.6735
  798MOL0     H 5309   2.095  10.375   6.755  0.7952  1.7631 -1.5281
  798MOL0     H 5310   1.926  10.215   6.712 -0.2456  0.0365  0.6385
  798MOL0     H 5311   1.956  10.329   6.582  0.8814 -0.9607 -0.7273
  798MOL0     H 5312   1.768  10.461   6.628  4.3649 -1.1197 -1.6229
  798MOL0     H 5313   1.730  10.359   6.772 -0.0613 -0.1012  0.2647
  798MOL0     H 5314   1.744  10.251   6.490  1.3732  2.1380  0.4083
  798MOL0     H 5315   1.693  10.170   6.644 -2.1626  1.9253  1.5332
  798MOL0     H 5316   1.535  10.387   6.509 -0.7725 -1.0994 -0.4958
  798MOL0     H 5317   1.488  10.289   6.654 -0.4729 -0.1379 -0.5765
  798MOL0     H 5318   2.455  10.180   7.012 -2.3264  1.6572 -0.8910
  798MOL0     H 5319   2.700  10.215   6.971 -1.9186 -1.2376 -1.3436
  798MOL0     H 5320   3.072  10.357   6.721  1.0448  3.4190 -2.2709
  798MOL0     H 5321   3.301  10.409   6.718  1.0994 -0.5054  0.9702
  798MOL0     H 5322   5.278  10.529   6.517  0.6365  1.6618 -1.1177
  798MOL0     H 5323   5.480  10.484   6.582  1.2647 -0.3211 -0.5430
  798MOL0     H 5324   5.919  10.226   6.454  3.2713  0.0953 -0.9539
  798MOL0     H 5325   6.132  10.200   6.581 -0.1487 -0.3737  1.4118
  798MOL0     H 5326   6.269  10.240   6.735 -0.4216 -0.1606 -3.6431
  798MOL0     H 5327   6.292  10.075   6.672  1.9445 -1.0317  1.5652
  798MOL0     H 5328   6.381  10.149   6.951 -0.4103  1.2529 -1.3620
  798MOL0     H 5329   6.384   9.986   6.860 -3.6524 -0.0699 -1.3411
  798MOL0     H 5330   6.525  10.083   6.697  0.3829 -1.1669  0.8384
  798MOL0     H 5331   6.605  10.070   6.858  0.7168  2.8891  1.9604
  798MOL0     H 5332   6.509  10.333   6.734  0.5098  0.8662  0.3120
  798MOL0     H 5333   6.544  10.307   6.910 -2.1818 -0.7564 -0.7944
  798MOL0     H 5334   6.905  10.404   6.737 -1.3946  1.4775 -2.4507
  798MOL0     H 5335   5.923  10.033   6.912 -1.5577  2.8621  0.8420
  798MOL0     H 5336   5.717  10.082   6.818  0.1784  0.6580  0.7179
  799MOL0     O 5337   2.162   4.043   2.985 -0.5238  0.2520  0.4554
  799MOL0     C 5338   2.196   4.107   3.084 -0.3268  0.2350  0.0946
  799MOL0     O 5339   2.107   4.154   3.184  0.3260  0.0980  0.2938
  799MOL0     C 5340   1.974   4.122   3.175  0.4986 -0.5195 -0.2307
  799MOL0     C 5341   1.899   4.130   3.057  0.2425 -0.6477  0.0559
  799MOL0     C 5342   1.756   4.106   3.049 -0.4103  0.2212  0.2612
  799MOL0     C 5343   1.684   4.086   3.165 -0.1580 -0.5863 -0.3304
  799MOL0     O 5344   1.545   4.094   3.159  0.0417  0.7205 -0.2405
  799MOL0     C 5345   1.465   4.104   3.285 -0.1582  0.2816  0.1454
  799MOL0     C 5346   1.314   4.131   3.238 -0.3613  0.5810 -0.0997
  799MOL0     C 5347   1.219   4.133   3.357 -0.4865 -0.1568 -0.8267
  799MOL0     C 5348   1.074   4.166   3.316  0.5857 -0.0281  0.1716
  799MOL0     C 5349   0.986   4.165   3.433  0.6532  0.1105  0.5653
  799MOL0     C 5350   0.836   4.177   3.388 -0.1581 -0.4701 -0.5860
  799MOL0     C 5351   0.782   4.043   3.347 -0.0551 -0.3899 -0.4171
  799MOL0     C 5352   0.661   4.054   3.261  0.0707 -0.1722  0.4424
  799MOL0     N 5353   0.607   3.920   3.244  0.2208 -0.5650  0.4350
  799MOL0     C 5354   0.657   3.833   3.150 -0.6077 -0.1373  0.0555
  799MOL0     C 5355   0.619   3.707   3.194 -0.0608 -0.4455  1.0690
  799MOL0     C 5356   0.647   3.569   3.139 -0.3460 -0.0262 -0.4871
  799MOL0     C 5357   0.596   3.541   2.997 -0.3915  0.1765 -0.2938
  799MOL0     C 5358   0.450   3.580   2.996 -0.3217 -0.0266  0.9777
  799MOL0     C 5359   0.367   3.527   2.876 -0.6650 -0.1777 -0.3065
  799MOL0     O 5360   0.255   3.610   2.833  0.3530  0.2533 -0.3003
  799MOL0     C 5361   0.129   3.578   2.887 -1.0591 -0.3486  0.4366
  799MOL0     C 5362   0.110   3.511   3.007  0.6669 -0.1033 -0.3089
  799MOL0     C 5363  -0.018   3.522   3.059 -0.2023 -0.5283  0.0378
  799MOL0     C 5364  -0.127   3.562   2.979  0.1865  0.3919 -0.4121
  799MOL0     C 5365  -0.261   3.558   3.026 -1.2411  0.1479  0.3143
  799MOL0     O 5366  -0.286   3.551   3.159  0.3681  0.0916 -0.1309
  799MOL0     C 5367  -0.413   3.526   3.206  0.2778 -0.1126  0.0765
  799MOL0     C 5368  -0.455   3.596   3.318  0.4727 -1.0029 -0.7576
  799MOL0     C 5369  -0.577   3.575   3.377  0.0274 -0.3629 -0.1089
  799MOL0     C 5370  -0.667   3.479   3.332 -0.0079  0.1951  1.3648
  799MOL0     O 5371  -0.784   3.454   3.398 -0.3583  0.3899  0.3129
  799MOL0     C 5372  -0.827   3.321   3.404  1.6099  0.1096 -0.3755
  799MOL0     C 5373  -0.928   3.313   3.517 -0.5990 -0.5452  0.5769
  799MOL0     C 5374  -1.058   3.388   3.477  0.2578 -0.2066  0.1988
  799MOL0     C 5375  -1.187   3.336   3.549 -0.7583  0.3981 -0.9653
  799MOL0     C 5376  -1.313   3.421   3.532  0.3750  0.4410 -0.3088
  799MOL0     C 5377  -1.426   3.334   3.586  0.0868 -0.3475 -0.3243
  799MOL0     C 5378  -1.567   3.383   3.554 -0.3113  0.4144 -0.2207
  799MOL0     C 5379  -1.659   3.272   3.559  0.1758 -0.1898  0.2480
  799MOL0    Cl 5380  -1.830   3.329   3.533  0.4874  0.3366  0.1968
  799MOL0     C 5381  -0.624   3.404   3.220  0.6874  0.0222 -0.5528
  799MOL0     C 5382  -0.503   3.432   3.154 -0.5839 -0.1674 -0.3053
  799MOL0     O 5383  -0.348   3.562   2.938  0.6517 -0.1569  0.3168
  799MOL0     C 5384  -0.102   3.607   2.848  0.0837  0.0417 -0.2445
  799MOL0     C 5385   0.026   3.625   2.803 -0.5171 -0.3692 -0.0963
  799MOL0     N 5386   0.553   3.722   3.309  0.0116 -0.0221 -0.3846
  799MOL0     N 5387   0.543   3.846   3.340 -0.3342  0.2011 -0.7746
  799MOL0     C 5388   1.762   4.077   3.289  0.3514  0.8590  0.8918
  799MOL0     C 5389   1.902   4.090   3.287 -0.3212  0.3188 -0.2366
  799MOL0     C 5390   2.341   4.130   3.097 -0.4727 -0.6886  0.5220
  799MOL0     C 5391   2.429   4.098   2.989  0.0380  0.2605  0.3341
  799MOL0     C 5392   2.569   4.111   3.002  0.9992  0.0617  0.1526
  799MOL0     C 5393   2.624   4.162   3.128 -0.1992 -0.1807  0.0156
  799MOL0     O 5394   2.759   4.182   3.151  1.1209  0.1652 -0.0732
  799MOL0     C 5395   2.841   4.202   3.034 -0.3621  0.4239 -1.5903
  799MOL0     C 5396   2.995   4.229   3.075  0.8628  0.2546 -0.1514
  799MOL0     C 5397   3.010   4.345   3.170 -0.1454 -0.2105  0.7773
  799MOL0     C 5398   3.160   4.368   3.212  0.7156  1.0708 -0.2763
  799MOL0     C 5399   3.177   4.476   3.308 -0.1775 -0.6040  0.3134
  799MOL0     C 5400   3.181   4.580   3.371  0.3330 -1.1431  0.7624
  799MOL0     C 5401   2.534   4.195   3.232 -0.0828 -0.2333  0.4332
  799MOL0     C 5402   2.396   4.181   3.217 -0.0727 -0.0199  0.3031
  799MOL0     H 5403   1.958   4.151   2.969  0.9461 -2.1344  0.1393
  799MOL0     H 5404   1.706   4.106   2.953 -1.1251 -0.1572  0.6284
  799MOL0     H 5405   1.502   4.179   3.356  2.4142 -1.4192  0.7371
  799MOL0     H 5406   1.465   4.009   3.340  0.8511  0.7163  0.9157
  799MOL0     H 5407   1.280   4.050   3.174 -0.2713  0.3516  0.1439
  799MOL0     H 5408   1.315   4.224   3.180  1.3377 -0.4189 -1.7853
  799MOL0     H 5409   1.257   4.203   3.433  1.3747 -2.5050  0.5518
  799MOL0     H 5410   1.224   4.033   3.401  2.3402 -0.6516 -2.0542
  799MOL0     H 5411   1.068   4.263   3.265  0.9235  0.1817  0.5184
  799MOL0     H 5412   1.046   4.084   3.249  0.0363  1.7605 -1.8969
  799MOL0     H 5413   1.008   4.256   3.490 -1.8358  1.1674 -0.0424
  799MOL0     H 5414   1.011   4.074   3.489  1.5697  0.6181  1.0236
  799MOL0     H 5415   0.823   4.256   3.314 -1.3951 -0.2502 -0.1594
  799MOL0     H 5416   0.792   4.213   3.481  0.6195  1.9534 -1.0862
  799MOL0     H 5417   0.851   3.983   3.288  2.1175 -0.8801  2.4262
  799MOL0     H 5418   0.759   3.990   3.440 -2.0611 -1.0631 -1.2552
  799MOL0     H 5419   0.693   4.106   3.170  1.2106 -0.3007  0.7546
  799MOL0     H 5420   0.589   4.117   3.314 -1.3027  0.7325 -2.3236
  799MOL0     H 5421   0.725   3.846   3.066  0.2730 -1.6011  0.4975
  799MOL0     H 5422   0.605   3.499   3.212 -2.1546  3.3944  2.0793
  799MOL0     H 5423   0.755   3.559   3.142 -0.5341 -2.1696  0.8937
  799MOL0     H 5424   0.614   3.439   2.963  3.3843  0.6196 -0.0821
  799MOL0     H 5425   0.649   3.604   2.925 -0.4465  0.7526  0.1644
  799MOL0     H 5426   0.396   3.554   3.087 -1.6643  4.0664  1.5571
  799MOL0     H 5427   0.445   3.689   2.984  2.4920  0.0594 -0.2610
  799MOL0     H 5428   0.333   3.426   2.903  0.4980 -0.3647  0.5577
  799MOL0     H 5429   0.435   3.527   2.790 -0.5048  1.7558 -0.2239
  799MOL0     H 5430   0.197   3.479   3.063  1.1855  0.4373 -0.7783
  799MOL0     H 5431  -0.029   3.487   3.161 -2.9621 -0.0522 -0.0315
  799MOL0     H 5432  -0.399   3.678   3.361 -0.0998 -0.5781 -0.8113
  799MOL0     H 5433  -0.627   3.629   3.456  1.4700 -0.1045  0.6732
  799MOL0     H 5434  -0.740   3.255   3.415  1.7012  0.3808  0.6587
  799MOL0     H 5435  -0.883   3.295   3.314  1.7675  1.1603 -0.7903
  799MOL0     H 5436  -0.877   3.355   3.604  0.4232  0.9031 -0.6775
  799MOL0     H 5437  -0.944   3.207   3.537  2.3082 -0.9506  1.0519
  799MOL0     H 5438  -1.074   3.386   3.369 -1.3216  0.2056  0.3915
  799MOL0     H 5439  -1.056   3.489   3.520 -1.9807 -0.2200  0.4464
  799MOL0     H 5440  -1.211   3.239   3.505 -3.0444  1.5725 -2.4628
  799MOL0     H 5441  -1.159   3.328   3.655  2.1311  0.4937 -1.6404
  799MOL0     H 5442  -1.320   3.445   3.426  0.0260 -1.2117 -0.6870
  799MOL0     H 5443  -1.309   3.515   3.589 -0.9366  1.6220 -2.0530
  799MOL0     H 5444  -1.415   3.318   3.694 -0.3779  3.0648  0.3633
  799MOL0     H 5445  -1.416   3.232   3.548 -2.8950 -0.1770 -1.8549
  799MOL0     H 5446  -1.596   3.449   3.636  1.4627  1.0026 -0.0023
  799MOL0     H 5447  -1.568   3.438   3.459 -0.6624  0.7598 -0.0197
  799MOL0     H 5448  -1.653   3.227   3.659  0.0403  1.5730  1.0795
  799MOL0     H 5449  -1.627   3.193   3.489  0.2012 -0.3914  0.4845
  799MOL0     H 5450  -0.684   3.322   3.183 -1.8868  1.6414 -0.2214
  799MOL0     H 5451  -0.481   3.365   3.072 -1.8763 -0.7192 -0.2211
  799MOL0     H 5452  -0.185   3.616   2.779 -1.4543 -3.1769  0.9919
  799MOL0     H 5453   0.052   3.665   2.706  5.2116 -3.4481 -0.2268
  799MOL0     H 5454   1.706   4.070   3.382  0.3677  0.0361  0.8514
  799MOL0     H 5455   1.966   4.100   3.375  1.2283 -1.3305 -1.0946
  799MOL0     H 5456   2.395   4.046   2.900 -0.7331 -3.7067  2.6965
  799MOL0     H 5457   2.628   4.082   2.916  2.1462 -0.3932  1.0673
  799MOL0     H 5458   2.817   4.292   2.977 -0.5262  1.1207 -0.4352
  799MOL0     H 5459   2.839   4.120   2.961 -1.9001 -0.9466 -0.1086
  799MOL0     H 5460   3.028   4.137   3.123 -1.4460 -0.9027 -0.6308
  799MOL0     H 5461   3.058   4.234   2.986 -4.2319  0.7364 -4.1650
  799MOL0     H 5462   2.941   4.337   3.254  2.4163 -1.9451  2.8631
  799MOL0     H 5463   2.974   4.430   3.111  1.5492 -1.4429 -2.3122
  799MOL0     H 5464   3.192   4.275   3.260 -2.1546  0.1892  0.1388
  799MOL0     H 5465   3.221   4.374   3.122  1.1623  0.7201  0.0028
  799MOL0     H 5466   3.176   4.684   3.395 -1.6487 -1.0732  0.1800
  799MOL0     H 5467   2.568   4.223   3.331 -1.8826  2.4749  0.3889
  799MOL0     H 5468   2.335   4.211   3.302 -2.2719 -0.2246 -1.1210
  800MOL0     O 5469   0.392   9.687   3.241  0.0762  0.3606 -0.2138
  800MOL0     C 5470   0.471   9.682   3.144  0.3745 -0.0259 -0.3158
  800MOL0     O 5471   0.439   9.634   3.024 -0.2387  0.2071  0.0772
  800MOL0     C 5472   0.308   9.634   2.987  0.5315 -0.8775  0.1755
  800MOL0     C 5473   0.190   9.600   3.056 -0.2230  0.5454  0.5406
  800MOL0     C 5474   0.066   9.610   2.995 -0.0996 -0.1927  0.2364
  800MOL0     C 5475   0.057   9.645   2.859  0.6184 -0.7857 -0.4287
  800MOL0     O 5476  -0.061   9.647   2.785  0.0793  0.4445  0.1331
  800MOL0     C 5477  -0.188   9.620   2.854  0.0305  0.1577  0.4308
  800MOL0     C 5478  -0.244   9.740   2.946 -0.0284 -0.4142  0.0404
  800MOL0     C 5479  -0.383   9.713   2.999  0.6536  0.2229 -0.5869
  800MOL0     C 5480  -0.480   9.714   2.893  0.4548 -0.8712  1.1650
  800MOL0     C 5481  -0.621   9.701   2.934  0.2527 -0.6249 -0.5428
  800MOL0     C 5482  -0.711   9.793   2.845 -0.8011 -0.4470 -0.0174
  800MOL0     C 5483  -0.864   9.775   2.870 -0.3616 -0.3301 -0.8570
  800MOL0     C 5484  -0.940   9.898   2.801  0.1209 -0.3173  0.0990
  800MOL0     N 5485  -1.085   9.877   2.797 -0.2584 -0.5709 -1.3426
  800MOL0     C 5486  -1.179   9.926   2.879  0.5880 -0.0078  0.4380
  800MOL0     C 5487  -1.292   9.893   2.811  0.4151 -0.6790 -0.2255
  800MOL0     C 5488  -1.433   9.918   2.861  0.0920 -0.1220  0.1293
  800MOL0     C 5489  -1.538   9.881   2.762 -1.0827 -0.7033  0.2391
  800MOL0     C 5490  -1.665   9.847   2.831  0.5731  0.2016  0.0383
  800MOL0     C 5491  -1.729   9.940   2.929  0.0137 -0.3152  0.3412
  800MOL0     O 5492  -1.865   9.888   2.947  0.7346  0.1959  0.3985
  800MOL0     C 5493  -1.942   9.969   3.028  1.3134 -0.1557  0.5856
  800MOL0     C 5494  -2.068   9.917   3.051  0.2181 -0.1141  0.4825
  800MOL0     C 5495  -2.166   9.991   3.110  0.0893 -0.3050 -0.0368
  800MOL0     C 5496  -2.135  10.123   3.164 -1.1519  0.6889 -0.2763
  800MOL0     C 5497  -2.243  10.204   3.237 -0.4139  0.6431 -0.2602
  800MOL0     O 5498  -2.329  10.125   3.319  0.3224 -0.3563 -0.1597
  800MOL0     C 5499  -2.453  10.174   3.351  0.4658 -0.0290 -0.2492
  800MOL0     C 5500  -2.450  10.282   3.439 -0.2031  0.0525 -0.0150
  800MOL0     C 5501  -2.570  10.339   3.483  0.1194  0.1210  0.3445
  800MOL0     C 5502  -2.692  10.295   3.430 -0.1855  0.3329  0.7064
  800MOL0     O 5503  -2.813  10.340   3.468 -0.0814 -0.2082 -0.4686
  800MOL0     C 5504  -2.827  10.479   3.503 -1.2163  0.6924 -0.0814
  800MOL0     C 5505  -2.966  10.518   3.451 -0.0482  0.4840  0.4585
  800MOL0     C 5506  -2.984  10.652   3.520  0.4046 -0.6370 -0.7519
  800MOL0     C 5507  -3.122  10.688   3.511  0.3871 -0.3957 -0.0702
  800MOL0     C 5508  -3.126  10.836   3.558 -0.5580 -0.3122  0.3132
  800MOL0     C 5509  -3.247  10.909   3.518  0.0020 -0.0267 -0.1471
  800MOL0     C 5510  -3.256  11.037   3.594  0.5866 -0.6212  0.2692
  800MOL0     C 5511  -3.402  11.094   3.573  0.2102  0.4285  0.3415
  800MOL0    Cl 5512  -3.416  11.248   3.671 -0.1374  0.0632 -0.3054
  800MOL0     C 5513  -2.691  10.199   3.335  0.6215 -0.2780  0.5216
  800MOL0     C 5514  -2.574  10.142   3.292  0.6675 -0.9374 -0.2836
  800MOL0     O 5515  -2.256  10.328   3.214 -0.1393  0.9340  0.1259
  800MOL0     C 5516  -2.008  10.174   3.146 -0.4447  0.1811  0.2457
  800MOL0     C 5517  -1.914  10.101   3.077  0.2086  0.4970  0.0104
  800MOL0     N 5518  -1.260   9.842   2.692 -0.6107 -0.1042  0.6988
  800MOL0     N 5519  -1.134   9.835   2.679  0.4589  1.0416  0.4370
  800MOL0     C 5520   0.174   9.691   2.790  0.0770  0.4533 -0.0698
  800MOL0     C 5521   0.301   9.678   2.854  0.6496 -0.0227 -0.4299
  800MOL0     C 5522   0.620   9.715   3.177 -0.2730 -0.2092  0.0012
  800MOL0     C 5523   0.710   9.716   3.070  0.1036 -0.5968  0.3526
  800MOL0     C 5524   0.843   9.734   3.088  0.3383 -0.3567  0.6801
  800MOL0     C 5525   0.894   9.767   3.213  0.0196 -0.3000 -0.3522
  800MOL0     O 5526   1.024   9.790   3.246 -0.4485  0.8413 -0.0278
  800MOL0     C 5527   1.137   9.738   3.165 -0.0479  0.4397 -0.6183
  800MOL0     C 5528   1.209   9.855   3.100  0.1352 -0.3265  0.0296
  800MOL0     C 5529   1.297   9.943   3.194  0.6080 -0.0722 -0.9325
  800MOL0     C 5530   1.360  10.074   3.131  0.1076  0.0026 -0.1151
  800MOL0     C 5531   1.424  10.042   3.007 -0.0746  0.3435  0.9835
  800MOL0     C 5532   1.472  10.035   2.898  0.6674 -0.4122  0.5557
  800MOL0     C 5533   0.807   9.784   3.321 -0.0356  0.0174  0.6455
  800MOL0     C 5534   0.670   9.761   3.298 -0.1467 -0.2666 -0.6570
  800MOL0     H 5535   0.190   9.543   3.148 -3.8001  1.0003  0.9792
  800MOL0     H 5536  -0.014   9.580   3.062  0.1103  3.2501  2.2160
  800MOL0     H 5537  -0.176   9.534   2.920 -1.6436 -0.6069 -0.2077
  800MOL0     H 5538  -0.258   9.592   2.775  1.2114  3.4577 -2.0586
  800MOL0     H 5539  -0.254   9.834   2.891  0.2682 -1.1996 -1.4073
  800MOL0     H 5540  -0.167   9.754   3.022  2.2295 -0.4952 -2.0889
  800MOL0     H 5541  -0.414   9.789   3.071  0.2566  0.4248 -0.9642
  800MOL0     H 5542  -0.386   9.613   3.041 -0.3003  1.4027  2.4232
  800MOL0     H 5543  -0.471   9.807   2.837  2.0214 -0.8270  1.4449
  800MOL0     H 5544  -0.465   9.644   2.811  0.8514  0.8401 -0.2793
  800MOL0     H 5545  -0.631   9.753   3.030  0.1662  0.1196 -0.9538
  800MOL0     H 5546  -0.653   9.596   2.938  1.8758 -1.2484 -2.4687
  800MOL0     H 5547  -0.701   9.760   2.741  0.5846 -0.7540  0.2008
  800MOL0     H 5548  -0.686   9.898   2.860 -1.8749  0.1452 -1.9579
  800MOL0     H 5549  -0.892   9.679   2.825 -0.0149 -1.8344  1.8938
  800MOL0     H 5550  -0.894   9.767   2.975  0.1739  1.9797 -0.4834
  800MOL0     H 5551  -0.898   9.908   2.701  0.5247 -1.0346  0.1887
  800MOL0     H 5552  -0.916   9.985   2.862  1.6979  0.1282 -1.1094
  800MOL0     H 5553  -1.166   9.970   2.977 -1.0259  0.7847  0.3241
  800MOL0     H 5554  -1.446  10.023   2.889  1.5189 -0.4630  2.3941
  800MOL0     H 5555  -1.444   9.870   2.959  1.3429  1.3514  1.0405
  800MOL0     H 5556  -1.510   9.789   2.709  1.0897 -0.3394  0.6591
  800MOL0     H 5557  -1.548   9.964   2.691  0.4666 -0.6045  0.0924
  800MOL0     H 5558  -1.740   9.824   2.755  0.8460 -2.1550  0.4091
  800MOL0     H 5559  -1.649   9.751   2.880 -0.1188  1.3916  2.8031
  800MOL0     H 5560  -1.736  10.043   2.894 -1.5953 -1.0690 -1.8548
  800MOL0     H 5561  -1.675   9.947   3.024  2.6953  0.7706 -1.1705
  800MOL0     H 5562  -2.096   9.816   3.023  0.3349 -0.8918  2.9035
  800MOL0     H 5563  -2.263   9.945   3.126 -0.0354 -0.4477 -1.1271
  800MOL0     H 5564  -2.351  10.311   3.473  0.2035 -1.1003 -0.1767
  800MOL0     H 5565  -2.564  10.419   3.556 -0.2764  0.7026 -0.2469
  800MOL0     H 5566  -2.749  10.535   3.450 -0.1709 -1.3643 -0.8314
  800MOL0     H 5567  -2.813  10.495   3.610  2.4607 -0.5343 -0.2163
  800MOL0     H 5568  -3.037  10.447   3.495  0.6445  0.0368  0.8802
  800MOL0     H 5569  -2.991  10.511   3.345 -4.6653  0.9577  1.3008
  800MOL0     H 5570  -2.915  10.723   3.473 -1.2389  1.1387 -0.5970
  800MOL0     H 5571  -2.957  10.653   3.626 -2.3949  4.5581  0.2263
  800MOL0     H 5572  -3.160  10.672   3.410  0.3078 -0.7705  0.0164
  800MOL0     H 5573  -3.190  10.641   3.583 -0.4539 -0.9944 -1.2258
  800MOL0     H 5574  -3.036  10.888   3.523  0.2208 -0.9920  1.2197
  800MOL0     H 5575  -3.126  10.836   3.667 -4.4139 -0.5893  0.4416
  800MOL0     H 5576  -3.330  10.846   3.553  0.1968 -0.8507 -1.1513
  800MOL0     H 5577  -3.256  10.928   3.411 -1.5431  2.6170  0.3499
  800MOL0     H 5578  -3.249  11.021   3.702 -1.8175 -0.7539  0.4688
  800MOL0     H 5579  -3.184  11.112   3.561  1.2265 -2.0821 -1.8391
  800MOL0     H 5580  -3.480  11.021   3.596  0.6203  0.2085  1.0551
  800MOL0     H 5581  -3.421  11.114   3.467  0.6757 -0.7134  0.0324
  800MOL0     H 5582  -2.783  10.181   3.280  0.9645 -0.5205  0.0209
  800MOL0     H 5583  -2.593  10.080   3.205  1.7563  0.4839 -1.5843
  800MOL0     H 5584  -1.987  10.272   3.189 -0.6499  0.5627 -0.5094
  800MOL0     H 5585  -1.816  10.144   3.064  0.8984 -0.6834  1.0753
  800MOL0     H 5586   0.177   9.723   2.686 -1.8542  0.3057 -0.2118
  800MOL0     H 5587   0.387   9.704   2.793 -0.3456  0.8831 -1.4860
  800MOL0     H 5588   0.672   9.681   2.975 -0.5045 -1.1153  0.7778
  800MOL0     H 5589   0.903   9.744   2.999 -2.2341  2.2942 -0.9481
  800MOL0     H 5590   1.101   9.665   3.092  4.1262 -2.4881 -0.1682
  800MOL0     H 5591   1.213   9.690   3.229  1.8333  2.4999 -1.1844
  800MOL0     H 5592   1.257   9.820   3.009 -3.6956 -1.3350 -1.7921
  800MOL0     H 5593   1.130   9.917   3.057 -1.4892 -2.2977  0.0373
  800MOL0     H 5594   1.383   9.882   3.220  1.9091  0.0544 -4.3756
  800MOL0     H 5595   1.233   9.973   3.277  0.0924 -0.1110 -1.3096
  800MOL0     H 5596   1.284  10.153   3.125  1.2751  1.0750 -2.6698
  800MOL0     H 5597   1.438  10.110   3.199  2.3558 -1.1779 -1.9385
  800MOL0     H 5598   1.512  10.019   2.800  0.0592 -1.5368  0.4763
  800MOL0     H 5599   0.835   9.822   3.418 -2.6270 -0.6410  1.7105
  800MOL0     H 5600   0.599   9.768   3.381  0.6507  0.2881 -0.0104
  801MOL0     O 5601   3.440  10.212   6.589 -0.2020  0.4503  0.3010
  801MOL0     C 5602   3.492  10.119   6.521 -0.1808  0.3165 -0.2890
  801MOL0     O 5603   3.419  10.017   6.471 -0.0508 -0.7460  0.3888
  801MOL0     C 5604   3.294  10.009   6.531  0.4099 -0.2823 -0.2801
  801MOL0     C 5605   3.281   9.937   6.646 -0.9675 -0.2975 -0.1260
  801MOL0     C 5606   3.156   9.931   6.708  0.4703  1.2334  0.0411
  801MOL0     C 5607   3.046   9.993   6.653  0.5704  0.5181 -0.2424
  801MOL0     O 5608   2.922   9.974   6.722  0.1104  0.5600 -0.5562
  801MOL0     C 5609   2.804  10.023   6.664 -0.3250 -0.3503  0.0471
  801MOL0     C 5610   2.691   9.984   6.757  0.3417  0.4474 -0.3529
  801MOL0     C 5611   2.557   9.989   6.679 -0.7111  0.2506  0.1241
  801MOL0     C 5612   2.518  10.135   6.657 -0.0973  0.6628  0.0865
  801MOL0     C 5613   2.374  10.161   6.660  0.5272  0.8723 -0.2110
  801MOL0     C 5614   2.299  10.114   6.532  0.0902 -0.6411 -0.5447
  801MOL0     C 5615   2.169  10.194   6.510  0.5522  0.4859  0.2272
  801MOL0     C 5616   2.103  10.165   6.376 -0.1895 -0.3074  0.1231
  801MOL0     N 5617   2.026  10.042   6.369  0.4898  0.1580  0.1678
  801MOL0     C 5618   2.056   9.924   6.320 -0.3874  0.1962  0.6822
  801MOL0     C 5619   1.937   9.856   6.321  0.0210  0.0302  0.0251
  801MOL0     C 5620   1.909   9.721   6.269 -0.4130  0.7484  0.5343
  801MOL0     C 5621   1.920   9.616   6.376 -0.4661 -0.2876 -0.1236
  801MOL0     C 5622   1.797   9.583   6.457 -0.4570  0.3907 -0.0520
  801MOL0     C 5623   1.682   9.536   6.378 -0.1315  0.5766  0.1614
  801MOL0     O 5624   1.572   9.519   6.468  0.2824 -0.1033  0.5680
  801MOL0     C 5625   1.465   9.613   6.474  0.1512 -0.0297  0.8459
  801MOL0     C 5626   1.355   9.576   6.556  0.0986  0.4722 -0.1058
  801MOL0     C 5627   1.229   9.634   6.548 -0.0038 -0.9081  0.1669
  801MOL0     C 5628   1.215   9.750   6.467 -0.8193 -0.2552 -0.0140
  801MOL0     C 5629   1.080   9.801   6.441  0.3716 -0.3268 -0.7067
  801MOL0     O 5630   0.979   9.734   6.499  0.4551 -0.0558 -0.2111
  801MOL0     C 5631   0.842   9.751   6.457 -0.1017  0.3996  0.5860
  801MOL0     C 5632   0.759   9.650   6.501 -0.5340 -1.0763  0.3450
  801MOL0     C 5633   0.624   9.650   6.485 -0.4603  0.1840  1.0113
  801MOL0     C 5634   0.563   9.750   6.408 -0.7367 -0.1191 -0.5064
  801MOL0     O 5635   0.428   9.759   6.383  0.1851  0.2321 -0.1819
  801MOL0     C 5636   0.364   9.870   6.305  0.1057  0.1437 -0.1635
  801MOL0     C 5637   0.232   9.811   6.231 -0.3153  0.2148  0.2394
  801MOL0     C 5638   0.119   9.779   6.326  1.2245 -0.5458 -0.7894
  801MOL0     C 5639  -0.002   9.698   6.263 -0.1799 -0.3471 -1.0424
  801MOL0     C 5640  -0.121   9.700   6.362  0.1810  0.1213 -0.8890
  801MOL0     C 5641  -0.244   9.647   6.297 -0.0725 -0.1590 -0.2518
  801MOL0     C 5642  -0.369   9.671   6.379  0.4504 -0.3641  0.6008
  801MOL0     C 5643  -0.498   9.657   6.291 -0.7540 -0.6159 -0.0668
  801MOL0    Cl 5644  -0.490   9.511   6.192 -0.3809  0.1239  0.1081
  801MOL0     C 5645   0.643   9.856   6.366 -0.3009 -0.0862  0.9884
  801MOL0     C 5646   0.779   9.858   6.394 -0.9155  0.0255  0.2116
  801MOL0     O 5647   1.067   9.893   6.358  0.0320  0.2492 -0.1653
  801MOL0     C 5648   1.335   9.806   6.403  0.6825  0.1391 -0.2147
  801MOL0     C 5649   1.458   9.738   6.407 -0.1479  0.1935  0.3358
  801MOL0     N 5650   1.840   9.939   6.375  0.9375 -0.4164  0.6974
  801MOL0     N 5651   1.901  10.050   6.405  0.6192 -0.7159 -0.1741
  801MOL0     C 5652   3.061  10.063   6.535 -0.8696  0.1670  0.3584
  801MOL0     C 5653   3.187  10.066   6.471 -1.1058 -0.3810  0.0564
  801MOL0     C 5654   3.624  10.147   6.459 -0.0183  0.1836 -0.2782
  801MOL0     C 5655   3.668  10.083   6.347  0.8632  0.1364  0.0682
  801MOL0     C 5656   3.792  10.107   6.288  0.6404  0.6393  1.0068
  801MOL0     C 5657   3.872  10.211   6.347 -0.5838 -0.0980  0.1543
  801MOL0     O 5658   3.999  10.244   6.299 -0.3809 -0.5531  0.5698
  801MOL0     C 5659   4.045  10.185   6.180 -0.1534  0.2562 -0.3110
  801MOL0     C 5660   4.194  10.230   6.160  0.0219  0.4685  0.1673
  801MOL0     C 5661   4.287  10.160   6.254  0.7569 -0.9572  0.1348
  801MOL0     C 5662   4.425  10.214   6.214 -0.3360 -0.2795  0.3051
  801MOL0     C 5663   4.547  10.163   6.298  0.4931 -0.1665 -1.4231
  801MOL0     C 5664   4.655  10.125   6.350 -0.4323 -0.1598  0.4223
  801MOL0     C 5665   3.831  10.277   6.467  0.6697  0.0884  0.9731
  801MOL0     C 5666   3.703  10.244   6.519 -0.1823  0.4968 -0.4170
  801MOL0     H 5667   3.372   9.897   6.688 -0.3991  0.2816 -0.7662
  801MOL0     H 5668   3.144   9.871   6.798 -1.5385  1.8780  0.2536
  801MOL0     H 5669   2.799   9.978   6.565  0.6029 -0.4553  0.0403
  801MOL0     H 5670   2.802  10.131   6.648  0.7388 -0.2252  0.6744
  801MOL0     H 5671   2.701  10.046   6.846  0.7609 -0.2482  0.0979
  801MOL0     H 5672   2.715   9.881   6.787  0.4210 -0.0591 -1.9995
  801MOL0     H 5673   2.483   9.936   6.741 -1.9181 -0.8023 -2.0879
  801MOL0     H 5674   2.565   9.932   6.586 -2.1021 -2.7523  1.7091
  801MOL0     H 5675   2.577  10.199   6.722 -1.6800  0.3079  1.9586
  801MOL0     H 5676   2.561  10.170   6.563 -0.7945  2.4556  0.3969
  801MOL0     H 5677   2.368  10.269   6.675 -2.3509  0.8363 -0.4823
  801MOL0     H 5678   2.322  10.109   6.740 -2.4657  2.5647 -0.9103
  801MOL0     H 5679   2.278  10.006   6.538 -1.8091 -0.3350 -1.0657
  801MOL0     H 5680   2.360  10.117   6.442  0.6793  0.7990 -0.1183
  801MOL0     H 5681   2.093  10.175   6.586  0.0840 -2.2303 -0.8256
  801MOL0     H 5682   2.192  10.301   6.504  1.2693  0.3654  0.7338
  801MOL0     H 5683   2.177  10.160   6.295 -1.9162  4.4647 -2.1222
  801MOL0     H 5684   2.035  10.250   6.366 -2.0966 -1.4987  2.0324
  801MOL0     H 5685   2.156   9.901   6.284 -0.1208 -0.8525  2.0216
  801MOL0     H 5686   1.992   9.708   6.199 -2.2642  0.9108 -1.8103
  801MOL0     H 5687   1.811   9.712   6.222  0.7054 -1.0749 -1.6652
  801MOL0     H 5688   1.990   9.645   6.455 -2.2079  2.1996  0.6311
  801MOL0     H 5689   1.950   9.521   6.330 -2.5302 -0.8310 -0.4685
  801MOL0     H 5690   1.828   9.503   6.525  2.3310 -0.6834 -2.3632
  801MOL0     H 5691   1.776   9.668   6.522  2.8156  0.4649  1.0757
  801MOL0     H 5692   1.711   9.441   6.332 -2.4505 -0.2676  0.3071
  801MOL0     H 5693   1.655   9.598   6.292 -1.6240  0.5780  0.5979
  801MOL0     H 5694   1.370   9.494   6.625 -1.7105 -1.2722 -1.6733
  801MOL0     H 5695   1.140   9.590   6.593 -1.9851  1.2550 -1.3851
  801MOL0     H 5696   0.800   9.572   6.565  1.0861 -1.3909 -1.0086
  801MOL0     H 5697   0.560   9.580   6.538  0.4340  0.7434  2.9024
  801MOL0     H 5698   0.428   9.899   6.221 -0.7048  2.6717  0.0372
  801MOL0     H 5699   0.329   9.957   6.361 -1.8227  1.1304 -2.6917
  801MOL0     H 5700   0.266   9.724   6.174 -1.8700  0.6644 -1.4756
  801MOL0     H 5701   0.201   9.887   6.158  0.9258 -0.5320 -1.1025
  801MOL0     H 5702   0.079   9.870   6.373  1.9247 -0.1961 -0.8618
  801MOL0     H 5703   0.160   9.719   6.408 -0.8929 -0.6215  0.2872
  801MOL0     H 5704  -0.034   9.741   6.167  0.0534  3.6190  0.4424
  801MOL0     H 5705   0.030   9.595   6.249 -0.3818 -0.8192  1.4669
  801MOL0     H 5706  -0.130   9.805   6.391  2.7697  0.4323 -0.9861
  801MOL0     H 5707  -0.098   9.650   6.456 -0.0044 -0.9554 -1.4004
  801MOL0     H 5708  -0.240   9.540   6.273 -0.3693 -0.0128 -0.9800
  801MOL0     H 5709  -0.251   9.702   6.203  2.1066  0.3577 -0.1776
  801MOL0     H 5710  -0.381   9.598   6.458  0.2077 -1.3657 -0.3363
  801MOL0     H 5711  -0.374   9.775   6.413  0.8759 -0.1092 -0.0767
  801MOL0     H 5712  -0.508   9.747   6.230 -1.5982 -1.3073 -0.9812
  801MOL0     H 5713  -0.587   9.635   6.352 -0.1116 -1.3631  0.6343
  801MOL0     H 5714   0.612   9.941   6.306  2.4183 -2.3391 -4.1724
  801MOL0     H 5715   0.839   9.943   6.367 -0.5873 -0.6460 -1.2941
  801MOL0     H 5716   1.316   9.897   6.346 -1.9748  0.3092  0.7759
  801MOL0     H 5717   1.534   9.775   6.339 -0.0078 -0.5874  0.0519
  801MOL0     H 5718   2.975  10.110   6.489 -0.2172 -0.2471 -1.3649
  801MOL0     H 5719   3.203  10.114   6.375 -0.1774 -3.7219 -1.5968
  801MOL0     H 5720   3.597  10.015   6.301  0.7835  0.3145 -0.0753
  801MOL0     H 5721   3.827  10.053   6.201 -0.4506  0.0312  0.9253
  801MOL0     H 5722   3.991  10.222   6.092 -0.3954  0.5535 -0.0377
  801MOL0     H 5723   4.034  10.076   6.177  2.9989 -0.1370 -0.7809
  801MOL0     H 5724   4.237  10.222   6.059  0.5575  1.4933  0.3077
  801MOL0     H 5725   4.194  10.336   6.184  1.0108  0.1292  1.7788
  801MOL0     H 5726   4.279  10.051   6.251  1.4294 -1.0867  1.9948
  801MOL0     H 5727   4.261  10.192   6.355 -1.5753  0.6659 -0.8832
  801MOL0     H 5728   4.447  10.177   6.114  0.9230  0.2762  0.3603
  801MOL0     H 5729   4.424  10.323   6.212 -2.3306 -0.2781  0.0427
  801MOL0     H 5730   4.745  10.086   6.392  1.2181  1.4822 -1.3767
  801MOL0     H 5731   3.899  10.352   6.509  0.5580  1.5796 -1.3542
  801MOL0     H 5732   3.680  10.292   6.614  1.4157 -1.2952  0.9583
  802MOL0     O 5733   9.517   5.349   2.986  0.7386  0.3034 -0.0872
  802MOL0     C 5734   9.535   5.375   2.868  0.6077  1.0122  1.6100
  802MOL0     O 5735   9.461   5.454   2.782 -0.2251 -0.4184 -0.3818
  802MOL0     C 5736   9.342   5.513   2.824  0.1763 -0.2725 -0.2286
  802MOL0     C 5737   9.222   5.446   2.827  0.0894  1.0054  0.2075
  802MOL0     C 5738   9.099   5.510   2.835 -0.1948 -0.5218 -0.1193
  802MOL0     C 5739   9.104   5.651   2.854 -0.7790 -0.7433  0.2417
  802MOL0     O 5740   8.986   5.720   2.848 -0.1482 -0.3668  0.9966
  802MOL0     C 5741   8.966   5.831   2.943  0.2454 -0.4498  0.0676
  802MOL0     C 5742   8.831   5.892   2.929  0.2149 -0.4479  0.4190
  802MOL0     C 5743   8.721   5.820   2.999  0.3714  0.1691  0.6498
  802MOL0     C 5744   8.752   5.817   3.148 -0.0236 -0.5145  0.4944
  802MOL0     C 5745   8.632   5.849   3.233  0.6227 -0.9602 -0.6464
  802MOL0     C 5746   8.521   5.747   3.213 -0.4281 -0.1723  0.1794
  802MOL0     C 5747   8.415   5.775   3.320  0.1523 -0.2796  0.6746
  802MOL0     C 5748   8.335   5.908   3.292 -0.4509  0.8665  0.6161
  802MOL0     N 5749   8.197   5.892   3.340  0.3136  0.0525 -0.9926
  802MOL0     C 5750   8.088   5.846   3.265 -0.3339  0.1278 -0.8277
  802MOL0     C 5751   7.993   5.819   3.357  1.1936 -0.0173  0.4924
  802MOL0     C 5752   7.850   5.779   3.330 -0.5717  0.1801  0.5916
  802MOL0     C 5753   7.748   5.882   3.363  0.1945  0.3715  0.2837
  802MOL0     C 5754   7.609   5.833   3.318 -0.0064  0.1503  0.3946
  802MOL0     C 5755   7.495   5.935   3.334  0.0671 -0.0147  0.4253
  802MOL0     O 5756   7.375   5.879   3.299 -0.5709 -0.0815  0.5438
  802MOL0     C 5757   7.275   5.973   3.262  0.4382  1.1077 -0.7717
  802MOL0     C 5758   7.246   6.083   3.337  0.3534  0.0593 -0.7223
  802MOL0     C 5759   7.146   6.171   3.298 -0.4327 -0.2722 -0.2025
  802MOL0     C 5760   7.063   6.137   3.183  0.9013  0.1977  0.4583
  802MOL0     C 5761   6.940   6.211   3.138 -0.4196 -0.0121 -0.0213
  802MOL0     O 5762   6.872   6.256   3.251 -0.2273 -0.0983  0.0947
  802MOL0     C 5763   6.747   6.316   3.240 -0.5417  0.2274  0.2575
  802MOL0     C 5764   6.654   6.292   3.140  0.3374 -0.2343  0.3210
  802MOL0     C 5765   6.534   6.364   3.142 -0.0278  0.2499 -0.6612
  802MOL0     C 5766   6.492   6.440   3.251  0.1121 -0.3604  0.0031
  802MOL0     O 5767   6.372   6.496   3.243 -0.1822 -0.4475  0.6809
  802MOL0     C 5768   6.326   6.569   3.362  0.0403 -0.3184  0.2022
  802MOL0     C 5769   6.185   6.631   3.335  0.0603  0.0939  0.5462
  802MOL0     C 5770   6.151   6.735   3.448  1.2338  1.0790  0.5543
  802MOL0     C 5771   6.003   6.769   3.443 -0.1346  0.0576 -0.2637
  802MOL0     C 5772   5.954   6.848   3.570  0.5426  0.3595 -0.4252
  802MOL0     C 5773   6.016   6.987   3.586 -0.1432 -0.4404 -0.0608
  802MOL0     C 5774   5.983   7.034   3.721  0.9661 -0.5791  0.2842
  802MOL0     C 5775   6.058   7.158   3.766  0.4539  0.5445  0.1875
  802MOL0    Cl 5776   6.056   7.294   3.645 -0.3521 -0.3207  0.2819
  802MOL0     C 5777   6.585   6.459   3.350 -0.3305 -0.2459 -0.3154
  802MOL0     C 5778   6.711   6.396   3.345 -0.1801 -0.2056  0.3377
  802MOL0     O 5779   6.909   6.227   3.017 -0.0112  1.1059  0.6829
  802MOL0     C 5780   7.102   6.033   3.105 -0.0997  0.3743  0.1786
  802MOL0     C 5781   7.207   5.950   3.145 -0.9257 -0.3731 -0.2767
  802MOL0     N 5782   8.035   5.863   3.485 -0.0573 -0.2352  0.1885
  802MOL0     N 5783   8.151   5.909   3.467  0.2623 -0.8740 -0.6372
  802MOL0     C 5784   9.226   5.722   2.854  0.5708  1.0697  0.3869
  802MOL0     C 5785   9.348   5.653   2.826 -0.0217 -0.8149  0.1088
  802MOL0     C 5786   9.663   5.316   2.803 -0.2509  0.0367 -0.0638
  802MOL0     C 5787   9.768   5.286   2.893  0.1076  0.5199 -0.0990
  802MOL0     C 5788   9.886   5.226   2.840  0.0232  0.5942  0.1960
  802MOL0     C 5789   9.897   5.192   2.706  0.3785 -0.3222  0.5981
  802MOL0     O 5790  10.000   5.130   2.643  0.3613  0.0533 -0.3828
  802MOL0     C 5791  10.118   5.133   2.706 -0.3866  0.5796  0.1984
  802MOL0     C 5792  10.221   5.085   2.604  0.5871 -0.4049  0.0553
  802MOL0     C 5793  10.192   4.955   2.541 -0.0182 -0.1847  0.1354
  802MOL0     C 5794  10.322   4.863   2.516 -0.6601 -0.0714 -0.1167
  802MOL0     C 5795  10.386   4.799   2.636  0.3047  0.4303 -0.0665
  802MOL0     C 5796  10.446   4.741   2.723  0.8041 -0.0123  0.7180
  802MOL0     C 5797   9.790   5.221   2.617  0.3807  0.2712 -0.3078
  802MOL0     C 5798   9.678   5.280   2.664  0.0023 -0.0639  0.1333
  802MOL0     H 5799   9.224   5.338   2.819 -2.1317  0.9803 -1.0200
  802MOL0     H 5800   9.008   5.452   2.840 -1.9559  1.6681 -3.0945
  802MOL0     H 5801   9.040   5.909   2.922  1.8448 -1.7527  0.6056
  802MOL0     H 5802   8.981   5.787   3.042 -1.3623  1.8560  1.4436
  802MOL0     H 5803   8.798   5.909   2.826  0.9319 -0.5851  0.1644
  802MOL0     H 5804   8.839   5.987   2.983  0.1972  0.3558 -0.9661
  802MOL0     H 5805   8.705   5.718   2.965 -2.0905  1.8121 -4.0592
  802MOL0     H 5806   8.624   5.862   2.970 -1.1222 -3.4223 -0.0052
  802MOL0     H 5807   8.789   5.717   3.173 -1.3296 -1.1584 -0.0851
  802MOL0     H 5808   8.834   5.886   3.173 -0.0438 -0.1067 -0.4943
  802MOL0     H 5809   8.595   5.947   3.202  4.0869 -0.0531 -2.4035
  802MOL0     H 5810   8.658   5.852   3.339 -1.8934 -0.5584  0.0223
  802MOL0     H 5811   8.563   5.648   3.236  0.3885  0.3129  0.8423
  802MOL0     H 5812   8.488   5.755   3.109  0.1029 -1.0396 -0.0657
  802MOL0     H 5813   8.355   5.684   3.311 -1.1920  0.7759 -2.5332
  802MOL0     H 5814   8.456   5.771   3.422  1.2311  0.0694  0.2705
  802MOL0     H 5815   8.325   5.922   3.184 -1.4626  0.4847  0.6467
  802MOL0     H 5816   8.386   5.995   3.334  0.6530  0.3344  0.4079
  802MOL0     H 5817   8.088   5.839   3.156  1.4184 -0.0928 -0.8477
  802MOL0     H 5818   7.830   5.691   3.392  0.0305  1.0662  2.1197
  802MOL0     H 5819   7.837   5.741   3.229  0.3828 -2.7074  1.4570
  802MOL0     H 5820   7.779   5.970   3.306  0.5482 -0.0310 -0.1600
  802MOL0     H 5821   7.758   5.895   3.471  1.5897  1.7935  0.0225
  802MOL0     H 5822   7.621   5.800   3.215  3.2690  2.0931  0.0295
  802MOL0     H 5823   7.594   5.741   3.374  0.7866 -1.2752 -1.6398
  802MOL0     H 5824   7.497   6.026   3.273 -2.4262 -0.5219 -0.5490
  802MOL0     H 5825   7.498   5.965   3.439  1.9423  1.3606  0.0361
  802MOL0     H 5826   7.290   6.092   3.436  1.1090 -0.2607 -1.0209
  802MOL0     H 5827   7.128   6.259   3.358  1.8380  0.7561 -0.9022
  802MOL0     H 5828   6.671   6.229   3.053 -0.7190  0.6931 -0.5928
  802MOL0     H 5829   6.463   6.356   3.059 -0.8879 -0.2507  0.1050
  802MOL0     H 5830   6.397   6.650   3.381 -1.0128  0.2668  1.8970
  802MOL0     H 5831   6.334   6.506   3.451  1.5811 -0.3734  0.0655
  802MOL0     H 5832   6.111   6.551   3.322 -1.0010  0.9578  1.1207
  802MOL0     H 5833   6.190   6.671   3.233 -0.0954 -1.7713 -0.2311
  802MOL0     H 5834   6.201   6.831   3.430 -0.8246  1.8778 -1.2883
  802MOL0     H 5835   6.171   6.692   3.547  1.4220 -0.0997  0.0155
  802MOL0     H 5836   5.965   6.822   3.354  0.4111 -0.5267 -0.8531
  802MOL0     H 5837   5.955   6.671   3.440  1.1581 -0.5836 -0.3088
  802MOL0     H 5838   5.978   6.794   3.662 -0.6182  2.9923  1.5503
  802MOL0     H 5839   5.845   6.852   3.563  0.4776  0.4928  0.5361
  802MOL0     H 5840   5.969   7.050   3.510 -1.7688 -2.8461 -1.1757
  802MOL0     H 5841   6.125   6.984   3.578  0.0394  0.9344  1.4000
  802MOL0     H 5842   5.875   7.047   3.718  0.8082 -1.9415 -1.6258
  802MOL0     H 5843   6.013   6.955   3.790 -2.4231 -2.1078  0.1702
  802MOL0     H 5844   6.161   7.123   3.781  0.3327 -0.3240 -0.8748
  802MOL0     H 5845   6.006   7.188   3.857  2.3454  0.8997  1.2156
  802MOL0     H 5846   6.556   6.500   3.447 -1.1182 -0.9964 -0.2181
  802MOL0     H 5847   6.786   6.408   3.423  0.6775 -0.6588 -0.3940
  802MOL0     H 5848   7.045   6.015   3.014 -0.8302  0.2412  0.6499
  802MOL0     H 5849   7.238   5.865   3.085  0.9386  1.8095 -2.6516
  802MOL0     H 5850   9.228   5.831   2.862  1.6213  1.3382 -2.3381
  802MOL0     H 5851   9.439   5.708   2.804  0.7663 -2.1935 -0.1739
  802MOL0     H 5852   9.749   5.303   2.998 -4.1381  2.1019 -0.9216
  802MOL0     H 5853   9.961   5.217   2.918 -0.8414 -0.2137  0.9661
  802MOL0     H 5854  10.127   5.074   2.798 -0.6458  3.4990  2.2111
  802MOL0     H 5855  10.148   5.234   2.732 -3.6800  1.4631  1.0035
  802MOL0     H 5856  10.234   5.153   2.519  0.4949 -2.4036 -1.6344
  802MOL0     H 5857  10.319   5.084   2.653 -0.2068  3.9817  2.2584
  802MOL0     H 5858  10.145   4.977   2.445 -0.5304  0.1121  0.4564
  802MOL0     H 5859  10.116   4.899   2.596  1.9615 -2.8535  0.3586
  802MOL0     H 5860  10.289   4.773   2.464  1.6046 -2.5898  2.5047
  802MOL0     H 5861  10.398   4.912   2.454 -0.1588 -0.3658  0.2584
  802MOL0     H 5862  10.498   4.693   2.803 -0.6613 -1.3561  0.9130
  802MOL0     H 5863   9.793   5.186   2.514  1.9779 -1.2067  0.1891
  802MOL0     H 5864   9.596   5.280   2.594  1.1605 -0.9527 -1.2887
  803MOL0     O 5865   7.863   1.051  10.068  0.1957 -0.4673 -0.1829
  803MOL0     C 5866   7.833   1.161  10.115 -0.8884 -0.3138  0.4847
  803MOL0     O 5867   7.717   1.229  10.097 -0.3842 -0.5883 -0.4873
  803MOL0     C 5868   7.614   1.172  10.025 -0.3316 -0.0299  0.7497
  803MOL0     C 5869   7.576   1.245   9.913  0.2818 -0.0502 -0.7781
  803MOL0     C 5870   7.454   1.212   9.854 -0.1926  0.7298 -0.4166
  803MOL0     C 5871   7.371   1.103   9.902  0.2673 -0.4128  1.0156
  803MOL0     O 5872   7.251   1.059   9.843 -0.3722 -0.2140 -0.2817
  803MOL0     C 5873   7.225   1.102   9.705  0.5206  0.3758 -0.2738
  803MOL0     C 5874   7.088   1.042   9.660  0.0510  0.2624 -0.5518
  803MOL0     C 5875   7.068   1.024   9.505  0.0399  0.4276 -0.2519
  803MOL0     C 5876   7.077   1.167   9.452 -0.1087 -0.2939 -0.5331
  803MOL0     C 5877   7.062   1.168   9.300  0.7985  0.1078  0.1126
  803MOL0     C 5878   6.956   1.082   9.231 -0.4308 -0.2885  0.1173
  803MOL0     C 5879   6.808   1.121   9.253  0.6699 -0.9867  0.2267
  803MOL0     C 5880   6.774   1.272   9.222  1.1721 -0.1014 -0.8660
  803MOL0     N 5881   6.629   1.296   9.215 -0.6244 -0.1632 -0.4312
  803MOL0     C 5882   6.569   1.311   9.093  0.3444 -0.0445 -0.8652
  803MOL0     C 5883   6.439   1.329   9.109  0.1594 -0.1104 -0.4177
  803MOL0     C 5884   6.328   1.336   8.998 -0.0406 -0.2377 -0.0951
  803MOL0     C 5885   6.185   1.331   9.053 -0.3210 -0.0786  0.0019
  803MOL0     C 5886   6.080   1.369   8.948 -0.1073 -0.0588  0.4721
  803MOL0     C 5887   6.041   1.262   8.858  0.0218 -0.2897 -1.0194
  803MOL0     O 5888   5.928   1.309   8.775 -0.1564  0.4341 -0.4407
  803MOL0     C 5889   5.799   1.304   8.824  0.4521  0.6298 -0.0036
  803MOL0     C 5890   5.760   1.271   8.955 -0.4809 -0.2617  0.0626
  803MOL0     C 5891   5.627   1.265   8.982  0.2866 -0.3314  0.5326
  803MOL0     C 5892   5.526   1.295   8.885  0.9455 -0.1040 -0.0848
  803MOL0     C 5893   5.382   1.288   8.920 -0.6658 -0.2992  0.6574
  803MOL0     O 5894   5.355   1.246   9.046 -0.0884  0.1611 -0.3181
  803MOL0     C 5895   5.228   1.245   9.099 -0.3891  0.1921 -0.7449
  803MOL0     C 5896   5.221   1.226   9.237  0.1349  0.8944 -0.3485
  803MOL0     C 5897   5.112   1.210   9.326 -0.0971 -0.6503  0.5058
  803MOL0     C 5898   4.990   1.208   9.259  0.0159  0.5795 -0.3009
  803MOL0     O 5899   4.884   1.166   9.331 -0.4772  0.2383 -0.3104
  803MOL0     C 5900   4.744   1.178   9.267 -0.1017 -0.4323  0.1195
  803MOL0     C 5901   4.639   1.176   9.371 -0.2596  0.7392  1.1748
  803MOL0     C 5902   4.502   1.237   9.327 -0.2365 -0.6464 -0.0859
  803MOL0     C 5903   4.410   1.204   9.441  0.7121  0.1159  0.2373
  803MOL0     C 5904   4.266   1.250   9.386 -0.1189  0.0442  0.1650
  803MOL0     C 5905   4.165   1.259   9.499  0.8663  0.2347 -0.0695
  803MOL0     C 5906   4.135   1.118   9.570  0.0030  0.0226  0.4368
  803MOL0     C 5907   4.079   1.015   9.473  0.1931 -0.4740  0.4299
  803MOL0    Cl 5908   3.920   1.076   9.391  0.0237  0.0506 -0.0768
  803MOL0     C 5909   4.980   1.234   9.120 -0.3280 -0.2077  0.5372
  803MOL0     C 5910   5.100   1.244   9.036 -0.8000 -0.1598 -0.9730
  803MOL0     O 5911   5.294   1.319   8.840 -0.3745 -0.3548  0.1873
  803MOL0     C 5912   5.567   1.325   8.755  0.2376  0.4250  0.5359
  803MOL0     C 5913   5.703   1.320   8.723 -0.4369  1.0143 -0.1294
  803MOL0     N 5914   6.416   1.323   9.244  1.3321 -0.2394 -0.6540
  803MOL0     N 5915   6.529   1.312   9.308 -0.4239  0.2474  0.2265
  803MOL0     C 5916   7.425   1.031  10.006  0.5565 -0.1799  0.0882
  803MOL0     C 5917   7.542   1.062  10.074 -0.0286 -0.5960  0.6720
  803MOL0     C 5918   7.940   1.215  10.203  0.3447 -1.0483  0.2565
  803MOL0     C 5919   7.932   1.349  10.253 -0.3877  0.5625  0.5228
  803MOL0     C 5920   8.037   1.413  10.326  0.1100  0.4851  0.5626
  803MOL0     C 5921   8.157   1.339  10.354  0.7128 -0.2583  0.5356
  803MOL0     O 5922   8.261   1.404  10.411  0.2605  0.0514  0.0440
  803MOL0     C 5923   8.387   1.335  10.430  0.3230  0.3012  0.0618
  803MOL0     C 5924   8.489   1.416  10.506 -0.4570 -0.0331 -0.2509
  803MOL0     C 5925   8.567   1.506  10.407 -0.4917 -1.0202  0.3227
  803MOL0     C 5926   8.663   1.607  10.472 -0.8467 -0.0313  0.1233
  803MOL0     C 5927   8.597   1.717  10.541  0.6949 -0.2751 -0.1962
  803MOL0     C 5928   8.547   1.811  10.607 -0.3318  0.1498 -0.3085
  803MOL0     C 5929   8.159   1.203  10.318 -0.2222  0.2459 -0.2841
  803MOL0     C 5930   8.059   1.145  10.242  0.9664  0.3754  0.2302
  803MOL0     H 5931   7.634   1.334   9.894  1.3696 -1.0031 -2.1740
  803MOL0     H 5932   7.419   1.263   9.764 -1.2419 -3.0047 -2.3129
  803MOL0     H 5933   7.310   1.087   9.638 -1.2721  0.2125 -2.6524
  803MOL0     H 5934   7.206   1.210   9.699  1.3188  0.4830 -1.0943
  803MOL0     H 5935   7.006   1.102   9.700  0.1242 -0.1234  0.2019
  803MOL0     H 5936   7.082   0.942   9.704  3.3460  0.2240  0.0239
  803MOL0     H 5937   6.965   0.991   9.492  0.2163  1.0381 -4.4972
  803MOL0     H 5938   7.143   0.953   9.469  2.4136  2.5149  0.2352
  803MOL0     H 5939   6.998   1.225   9.500 -1.4720 -2.8852  0.5558
  803MOL0     H 5940   7.172   1.216   9.473 -0.7418  0.4960  0.5206
  803MOL0     H 5941   7.161   1.151   9.255  0.0709  2.9287 -2.9092
  803MOL0     H 5942   7.044   1.270   9.265 -3.5233  0.8874  3.7898
  803MOL0     H 5943   6.969   0.982   9.275  1.2971 -0.4512 -0.6740
  803MOL0     H 5944   6.983   1.090   9.125 -1.2700  3.0799  0.0411
  803MOL0     H 5945   6.754   1.064   9.177 -0.7347 -1.1615  1.3170
  803MOL0     H 5946   6.773   1.089   9.351  4.3381 -3.3774  0.9601
  803MOL0     H 5947   6.825   1.300   9.129  0.6729 -0.8649 -1.3776
  803MOL0     H 5948   6.808   1.337   9.303  3.1273  0.4061 -2.0229
  803MOL0     H 5949   6.614   1.293   8.996 -1.6147 -1.8111 -1.5068
  803MOL0     H 5950   6.334   1.247   8.936 -2.4157 -2.5494  2.6980
  803MOL0     H 5951   6.335   1.427   8.938 -3.6191  0.5974  0.5333
  803MOL0     H 5952   6.189   1.404   9.135 -0.4200  0.6080 -0.5883
  803MOL0     H 5953   6.164   1.232   9.095  0.9935  0.8118  3.0541
  803MOL0     H 5954   5.991   1.402   9.003 -0.9079  0.6693 -1.1866
  803MOL0     H 5955   6.098   1.461   8.892 -0.7916  0.1549  0.5874
  803MOL0     H 5956   6.016   1.177   8.922  1.0951  0.8630  1.0416
  803MOL0     H 5957   6.123   1.232   8.791 -0.5036 -1.3703 -1.1864
  803MOL0     H 5958   5.827   1.248   9.037 -0.3638 -0.5889 -0.1270
  803MOL0     H 5959   5.589   1.248   9.082  0.8510  1.2130  1.0372
  803MOL0     H 5960   5.317   1.218   9.288 -0.1238  0.9375  0.1495
  803MOL0     H 5961   5.128   1.190   9.431  0.1792  0.5005  0.6965
  803MOL0     H 5962   4.721   1.101   9.193 -1.5164 -0.3925  0.4846
  803MOL0     H 5963   4.740   1.279   9.226 -0.3425  0.0612  1.3032
  803MOL0     H 5964   4.673   1.224   9.464 -2.9283  1.3252  1.9395
  803MOL0     H 5965   4.618   1.070   9.386  1.4496  0.5269  2.3975
  803MOL0     H 5966   4.461   1.184   9.240  0.2967 -0.7676 -0.2667
  803MOL0     H 5967   4.508   1.345   9.314  1.3976 -0.4998  1.4845
  803MOL0     H 5968   4.403   1.098   9.465 -3.4597  0.4274  1.1041
  803MOL0     H 5969   4.450   1.252   9.531 -0.7774 -0.6315  1.3344
  803MOL0     H 5970   4.234   1.188   9.302  0.9956 -2.6515  1.5923
  803MOL0     H 5971   4.287   1.353   9.353 -2.8239  0.6615  0.1636
  803MOL0     H 5972   4.074   1.291   9.449  0.5248 -3.1694 -1.9288
  803MOL0     H 5973   4.202   1.325   9.578 -2.8564  1.3723  0.8993
  803MOL0     H 5974   4.223   1.079   9.622 -0.4239 -1.1736  0.2921
  803MOL0     H 5975   4.062   1.137   9.649  1.7220  3.7644  1.3319
  803MOL0     H 5976   4.045   0.929   9.533 -2.0640  0.1585  0.1422
  803MOL0     H 5977   4.158   0.985   9.403  1.9573  3.2026  0.6187
  803MOL0     H 5978   4.881   1.226   9.077  0.3463 -1.3645 -0.8940
  803MOL0     H 5979   5.085   1.253   8.929 -3.0165  0.0243 -0.6975
  803MOL0     H 5980   5.489   1.334   8.679  0.5288 -2.8863 -0.3234
  803MOL0     H 5981   5.739   1.325   8.621  0.9168 -2.3773  0.0172
  803MOL0     H 5982   7.364   0.950  10.043 -0.6145 -0.2641 -1.9022
  803MOL0     H 5983   7.571   0.997  10.156  1.4933 -2.1528 -1.0211
  803MOL0     H 5984   7.842   1.408  10.241 -0.3790  0.4858  0.0394
  803MOL0     H 5985   8.022   1.518  10.351  0.6773  2.4242 -5.4779
  803MOL0     H 5986   8.445   1.302  10.343  2.8506 -2.9825  2.7192
  803MOL0     H 5987   8.362   1.249  10.493 -1.8846 -0.3931 -1.6703
  803MOL0     H 5988   8.441   1.473  10.586 -1.8859  0.4279 -1.4048
  803MOL0     H 5989   8.576   1.365  10.549 -0.1149  0.6598 -0.1004
  803MOL0     H 5990   8.492   1.551  10.342  0.8260  1.0483  0.1264
  803MOL0     H 5991   8.623   1.441  10.339 -0.1607 -2.1646  1.6398
  803MOL0     H 5992   8.730   1.556  10.542 -2.3772 -1.4687  0.5824
  803MOL0     H 5993   8.718   1.653  10.389 -0.8113 -1.4981 -0.6906
  803MOL0     H 5994   8.527   1.890  10.676  0.1480  1.6981 -1.8405
  803MOL0     H 5995   8.236   1.139  10.360  0.6161  2.3031  1.5350
  803MOL0     H 5996   8.066   1.043  10.205  2.7206  0.9994 -1.3252
  804MOL0     O 5997   9.451   5.357   0.721 -0.8575  0.2868  0.1217
  804MOL0     C 5998   9.484   5.274   0.802  0.2495  0.2442  0.6178
  804MOL0     O 5999   9.403   5.213   0.901 -0.0503 -0.0030  0.6544
  804MOL0     C 6000   9.266   5.239   0.889  1.0143  0.4844 -0.0624
  804MOL0     C 6001   9.181   5.135   0.911  0.8195 -0.1877  0.1374
  804MOL0     C 6002   9.037   5.153   0.882 -1.0534 -0.3094  0.5821
  804MOL0     C 6003   8.988   5.283   0.871  0.8145 -0.8435 -0.6520
  804MOL0     O 6004   8.848   5.289   0.855 -0.2070  0.5418  0.0140
  804MOL0     C 6005   8.778   5.420   0.852  0.2543  0.5583 -0.2013
  804MOL0     C 6006   8.630   5.386   0.836  0.3476  0.3176 -0.0419
  804MOL0     C 6007   8.600   5.277   0.724 -0.3974 -0.6465  0.8091
  804MOL0     C 6008   8.449   5.272   0.709  0.4179  0.3740  0.2583
  804MOL0     C 6009   8.354   5.238   0.837  0.1080 -0.7154  1.0098
  804MOL0     C 6010   8.360   5.091   0.872  0.1238 -0.2253 -0.0755
  804MOL0     C 6011   8.257   5.054   0.980  0.4347 -0.2652  0.3251
  804MOL0     C 6012   8.253   4.908   1.009 -0.1435 -0.6455 -0.6017
  804MOL0     N 6013   8.144   4.876   1.096  0.1523 -0.7718  0.4095
  804MOL0     C 6014   8.132   4.895   1.233 -0.2100 -0.1420  0.2746
  804MOL0     C 6015   7.999   4.889   1.261 -0.3488 -0.6313 -0.2875
  804MOL0     C 6016   7.944   4.892   1.403 -0.0759 -1.1593  0.2710
  804MOL0     C 6017   7.801   4.938   1.404 -1.2178 -1.3071  0.2542
  804MOL0     C 6018   7.765   4.940   1.547  0.9424 -0.3333 -0.4914
  804MOL0     C 6019   7.632   5.008   1.574  0.0406 -0.5561  0.4770
  804MOL0     O 6020   7.608   4.979   1.713 -0.2081  0.6684  1.2461
  804MOL0     C 6021   7.482   4.991   1.763 -1.0929  0.8544  0.1211
  804MOL0     C 6022   7.463   4.945   1.894  0.5328 -0.3928 -0.0253
  804MOL0     C 6023   7.342   4.948   1.952 -0.1049 -0.5553 -0.4235
  804MOL0     C 6024   7.229   4.995   1.886 -0.1631 -0.0928 -0.6433
  804MOL0     C 6025   7.098   4.994   1.943  0.1170 -0.6678 -0.1403
  804MOL0     O 6026   7.077   4.986   2.077 -0.0023  0.7512  0.2113
  804MOL0     C 6027   6.948   4.977   2.119  0.4484 -0.0115  0.0114
  804MOL0     C 6028   6.882   5.101   2.151 -1.1283 -0.0190  1.3386
  804MOL0     C 6029   6.744   5.094   2.192 -0.1114  0.5965 -0.0625
  804MOL0     C 6030   6.677   4.969   2.184 -0.1337  0.0133  0.6946
  804MOL0     O 6031   6.545   4.969   2.227  0.1463  0.4858 -0.9418
  804MOL0     C 6032   6.489   4.843   2.264 -0.2260  0.0417  0.3149
  804MOL0     C 6033   6.342   4.872   2.329 -0.2848  1.0245 -0.4059
  804MOL0     C 6034   6.273   4.750   2.399  0.3885 -0.5363 -0.7884
  804MOL0     C 6035   6.363   4.674   2.496 -0.0317 -0.5939 -0.1742
  804MOL0     C 6036   6.416   4.767   2.610  0.4848  0.5573 -0.3680
  804MOL0     C 6037   6.487   4.677   2.718 -0.1070  0.5727 -0.6499
  804MOL0     C 6038   6.554   4.750   2.832 -0.0290  1.1635  0.0219
  804MOL0     C 6039   6.622   4.655   2.927 -0.3037 -0.1378 -0.5447
  804MOL0    Cl 6040   6.508   4.533   3.000 -0.3154  0.3377  0.5141
  804MOL0     C 6041   6.737   4.853   2.128  0.4387  0.1920 -0.8971
  804MOL0     C 6042   6.873   4.862   2.101  0.2541 -0.1582 -0.6630
  804MOL0     O 6043   7.011   4.978   1.859  0.8521  0.4716 -0.1289
  804MOL0     C 6044   7.249   5.026   1.747  1.2134  0.3189  0.3213
  804MOL0     C 6045   7.376   5.039   1.696  0.3340 -0.3113 -0.0435
  804MOL0     N 6046   7.934   4.864   1.146 -0.2335 -0.1400  0.2205
  804MOL0     N 6047   8.019   4.848   1.053 -0.4398  0.3651  0.2013
  804MOL0     C 6048   9.071   5.391   0.872 -0.0149 -0.2059  0.7656
  804MOL0     C 6049   9.207   5.368   0.868 -0.9454  0.3658  0.5774
  804MOL0     C 6050   9.634   5.242   0.797  0.3498 -0.1612  0.1827
  804MOL0     C 6051   9.689   5.172   0.904 -0.5287  0.2497  0.5729
  804MOL0     C 6052   9.828   5.147   0.905  0.0528 -0.1312 -0.2396
  804MOL0     C 6053   9.924   5.189   0.807  0.1901  0.2892  0.0875
  804MOL0     O 6054  10.046   5.141   0.817  0.3505 -0.9321 -0.5036
  804MOL0     C 6055  10.135   5.136   0.708 -0.9162  0.6539  0.3131
  804MOL0     C 6056  10.161   4.984   0.681  0.1410  0.3421  0.1892
  804MOL0     C 6057  10.028   4.919   0.641  0.1389 -0.1959  0.8564
  804MOL0     C 6058  10.037   4.797   0.556 -0.1633  0.3423  0.5918
  804MOL0     C 6059  10.071   4.674   0.627  0.5874  0.9087  0.0797
  804MOL0     C 6060  10.090   4.575   0.695  0.5970 -0.5759  0.4315
  804MOL0     C 6061   9.867   5.272   0.706 -0.8009  0.0548  0.0769
  804MOL0     C 6062   9.724   5.290   0.694  0.6778  0.1240 -0.3205
  804MOL0     H 6063   9.215   5.035   0.932  2.7790  0.3060 -0.5288
  804MOL0     H 6064   8.974   5.064   0.880 -0.3177 -0.8653  1.1997
  804MOL0     H 6065   8.814   5.480   0.768 -0.3872 -1.9661 -2.4196
  804MOL0     H 6066   8.792   5.477   0.944 -5.0579 -0.4042  1.5363
  804MOL0     H 6067   8.588   5.482   0.804  3.3764  1.7917  0.0719
  804MOL0     H 6068   8.585   5.354   0.930 -2.3049  1.8513 -0.6711
  804MOL0     H 6069   8.633   5.178   0.755 -0.8255 -0.3277  2.3518
  804MOL0     H 6070   8.641   5.309   0.628  2.0635  2.2383  2.6189
  804MOL0     H 6071   8.417   5.372   0.679  1.7997 -0.0491 -3.0757
  804MOL0     H 6072   8.427   5.212   0.621  1.2665 -0.2488  0.4529
  804MOL0     H 6073   8.251   5.271   0.820  1.6092  4.8669  0.9919
  804MOL0     H 6074   8.379   5.296   0.926 -0.0573 -0.4547  0.8867
  804MOL0     H 6075   8.461   5.068   0.908  0.3481  1.9977  0.9257
  804MOL0     H 6076   8.342   5.030   0.783 -2.9785  1.8570 -1.0193
  804MOL0     H 6077   8.271   5.116   1.069  1.1256  1.3770 -0.8754
  804MOL0     H 6078   8.159   5.096   0.956 -0.3669 -1.2626  1.7072
  804MOL0     H 6079   8.343   4.883   1.067 -2.2637 -2.8429  2.0355
  804MOL0     H 6080   8.254   4.842   0.922 -2.0484 -2.0048  0.3322
  804MOL0     H 6081   8.223   4.911   1.290 -0.2019  1.1610 -0.0810
  804MOL0     H 6082   8.000   4.959   1.468 -2.1776 -1.0971  2.1715
  804MOL0     H 6083   7.944   4.790   1.443 -0.7065 -1.5116 -0.6034
  804MOL0     H 6084   7.740   4.868   1.346 -2.3881 -0.6250  0.6263
  804MOL0     H 6085   7.799   5.032   1.348 -0.0032 -1.8274 -0.7052
  804MOL0     H 6086   7.763   4.839   1.589  2.2200  0.3364  1.3535
  804MOL0     H 6087   7.845   4.984   1.608  1.7934 -2.3057 -0.1056
  804MOL0     H 6088   7.546   4.965   1.520 -2.1279 -1.8369  4.5355
  804MOL0     H 6089   7.645   5.114   1.550 -0.3217 -0.8065 -0.9788
  804MOL0     H 6090   7.550   4.901   1.941  1.3382  1.2834  0.1405
  804MOL0     H 6091   7.332   4.917   2.055 -0.4004  2.1909  0.4339
  804MOL0     H 6092   6.947   5.188   2.147  0.3668 -1.1456 -0.3222
  804MOL0     H 6093   6.690   5.185   2.218 -0.9258  0.9531 -2.7423
  804MOL0     H 6094   6.545   4.787   2.340  0.2078 -2.6183 -1.8154
  804MOL0     H 6095   6.488   4.790   2.169  2.0560  1.2747 -0.4508
  804MOL0     H 6096   6.270   4.900   2.252  0.6621 -0.4611 -1.8839
  804MOL0     H 6097   6.349   4.942   2.413  0.2448 -1.3073  1.5860
  804MOL0     H 6098   6.240   4.698   2.309  0.4942 -1.9784 -0.0129
  804MOL0     H 6099   6.182   4.773   2.455  1.7879 -0.5253  1.5892
  804MOL0     H 6100   6.308   4.594   2.545  0.3833 -1.4328 -1.0518
  804MOL0     H 6101   6.445   4.620   2.447 -0.9713 -0.8596 -1.4964
  804MOL0     H 6102   6.346   4.827   2.669  1.2190 -0.1731  1.3111
  804MOL0     H 6103   6.493   4.832   2.567  0.6586 -0.9897 -2.5760
  804MOL0     H 6104   6.562   4.622   2.660 -0.3304  0.9404 -1.2963
  804MOL0     H 6105   6.413   4.610   2.762  0.1210  0.4341 -0.4766
  804MOL0     H 6106   6.626   4.828   2.808 -0.4408  1.5574  0.0569
  804MOL0     H 6107   6.470   4.794   2.886  1.9295  2.3946  2.2896
  804MOL0     H 6108   6.676   4.722   2.995  2.6072  0.4883 -3.2444
  804MOL0     H 6109   6.705   4.605   2.876  0.9299  2.1465 -0.9138
  804MOL0     H 6110   6.689   4.764   2.089  0.8670 -0.5664  0.2274
  804MOL0     H 6111   6.927   4.775   2.064 -2.4370 -1.9113 -0.7283
  804MOL0     H 6112   7.163   5.052   1.686  1.6514  0.4410 -0.2561
  804MOL0     H 6113   7.387   5.086   1.598 -0.3718  2.1098  0.9538
  804MOL0     H 6114   9.035   5.492   0.851 -1.4293 -0.5404  1.4483
  804MOL0     H 6115   9.277   5.450   0.854 -1.8781  0.9867 -0.5347
  804MOL0     H 6116   9.630   5.112   0.972 -0.4982  0.0353  0.4125
  804MOL0     H 6117   9.853   5.081   0.987 -2.1553 -1.2257 -0.3671
  804MOL0     H 6118  10.226   5.191   0.733 -0.9102  0.2703  1.1942
  804MOL0     H 6119  10.086   5.179   0.621 -0.4340  0.3596 -0.1052
  804MOL0     H 6120  10.227   4.971   0.595  0.4600  1.6029  0.2211
  804MOL0     H 6121  10.213   4.943   0.768  0.8973  1.4148  0.2681
  804MOL0     H 6122   9.970   4.993   0.585  0.3338  1.0610  2.2443
  804MOL0     H 6123   9.961   4.899   0.725 -2.6619 -1.4251 -1.5018
  804MOL0     H 6124   9.933   4.784   0.523 -0.3486  0.0338  1.2943
  804MOL0     H 6125  10.101   4.815   0.469 -0.5529  2.1391  0.6459
  804MOL0     H 6126  10.114   4.492   0.759  1.2667 -2.5212 -2.1323
  804MOL0     H 6127   9.928   5.315   0.628 -1.5986  1.0638 -0.0191
  804MOL0     H 6128   9.680   5.332   0.604 -1.1985 -1.1886 -0.0856
  805MOL0     O 6129   6.107   5.346   6.559 -0.3689  0.7030 -0.3388
  805MOL0     C 6130   6.092   5.422   6.461  0.3355 -0.4105 -0.1745
  805MOL0     O 6131   5.984   5.492   6.426  0.0299 -0.2821  0.1908
  805MOL0     C 6132   5.876   5.489   6.510 -0.3401  0.5233  0.0270
  805MOL0     C 6133   5.881   5.538   6.648 -0.2191 -0.0089  0.9022
  805MOL0     C 6134   5.768   5.535   6.735 -0.1640 -0.2743 -0.1237
  805MOL0     C 6135   5.652   5.482   6.688  0.6576 -0.3295 -0.2620
  805MOL0     O 6136   5.545   5.480   6.779  0.1620 -0.3966  0.5563
  805MOL0     C 6137   5.438   5.570   6.736 -0.7142 -0.1363 -0.2072
  805MOL0     C 6138   5.302   5.498   6.736 -1.0717  0.8409 -0.3454
  805MOL0     C 6139   5.190   5.603   6.751  0.5231 -0.3385  0.8902
  805MOL0     C 6140   5.044   5.549   6.731  0.3913  0.0764  0.8191
  805MOL0     C 6141   4.945   5.658   6.752  0.4620 -0.1888 -0.2170
  805MOL0     C 6142   4.807   5.589   6.756  0.0479  0.2217  0.0907
  805MOL0     C 6143   4.698   5.704   6.778  0.1625 -0.1560 -0.3172
  805MOL0     C 6144   4.555   5.641   6.811  0.1915  0.2446  0.3655
  805MOL0     N 6145   4.478   5.604   6.684 -0.0831  0.7407 -0.6718
  805MOL0     C 6146   4.341   5.618   6.682  0.0438  0.1142 -0.1877
  805MOL0     C 6147   4.297   5.541   6.580  0.2628 -0.0591  0.3345
  805MOL0     C 6148   4.158   5.547   6.525 -0.3639 -0.5824 -0.0682
  805MOL0     C 6149   4.037   5.522   6.620  0.3060 -0.0672  0.2967
  805MOL0     C 6150   3.994   5.651   6.697  0.1910 -0.1299 -0.1696
  805MOL0     C 6151   3.881   5.618   6.797 -0.5756  0.0644 -0.0153
  805MOL0     O 6152   3.786   5.531   6.735 -0.2065  0.3296  0.1182
  805MOL0     C 6153   3.693   5.577   6.649  0.7422 -0.3543  0.4092
  805MOL0     C 6154   3.680   5.705   6.600  0.0227  0.4296  0.7944
  805MOL0     C 6155   3.582   5.729   6.501  0.3378  0.2590 -0.1436
  805MOL0     C 6156   3.483   5.635   6.468  0.7773  0.0268 -0.7291
  805MOL0     C 6157   3.375   5.666   6.368 -0.3009 -0.4830  0.5450
  805MOL0     O 6158   3.369   5.790   6.317 -0.0926 -0.3825 -0.2256
  805MOL0     C 6159   3.256   5.835   6.257  0.0074 -0.7740 -0.9431
  805MOL0     C 6160   3.279   5.918   6.150  0.1119 -1.2381 -0.2358
  805MOL0     C 6161   3.172   5.973   6.082 -0.3185 -0.7180  0.4286
  805MOL0     C 6162   3.043   5.945   6.109  0.2659 -0.3313  0.3370
  805MOL0     O 6163   2.950   6.010   6.037  0.5284  0.0576  0.2334
  805MOL0     C 6164   2.834   6.031   6.118  0.2152  0.7012  0.1710
  805MOL0     C 6165   2.751   6.147   6.072  0.4190  0.2448  0.0302
  805MOL0     C 6166   2.630   6.175   6.178  0.3205  0.2792  0.4618
  805MOL0     C 6167   2.504   6.207   6.099 -0.1443 -0.3667 -0.3040
  805MOL0     C 6168   2.389   6.218   6.200  0.0745  0.2854  0.4461
  805MOL0     C 6169   2.267   6.265   6.122 -0.3507 -0.3402  0.6729
  805MOL0     C 6170   2.141   6.245   6.204  0.7826  0.2040 -0.2449
  805MOL0     C 6171   2.013   6.310   6.148  0.3747 -0.3426  0.6494
  805MOL0    Cl 6172   1.877   6.197   6.143 -0.0675 -0.0429 -0.2714
  805MOL0     C 6173   3.025   5.867   6.219 -0.6590  0.8020 -0.6205
  805MOL0     C 6174   3.128   5.810   6.294  0.2221  0.0491  0.4624
  805MOL0     O 6175   3.303   5.578   6.332  0.3709  0.8981  0.1295
  805MOL0     C 6176   3.489   5.507   6.522 -0.3701  0.3432  0.1004
  805MOL0     C 6177   3.594   5.481   6.615 -0.1639 -0.1191 -0.3814
  805MOL0     N 6178   4.399   5.461   6.537 -1.0081 -0.1915  0.1222
  805MOL0     N 6179   4.507   5.504   6.592  0.1460 -0.2803 -0.4164
  805MOL0     C 6180   5.653   5.413   6.563 -0.0056 -0.1317 -0.5568
  805MOL0     C 6181   5.756   5.427   6.472 -0.3361  0.7543  0.1702
  805MOL0     C 6182   6.215   5.439   6.369 -0.2836  0.2733 -0.4296
  805MOL0     C 6183   6.339   5.399   6.414  1.2017 -0.6358 -0.7762
  805MOL0     C 6184   6.452   5.427   6.348 -0.1712  0.0105 -0.1768
  805MOL0     C 6185   6.444   5.487   6.226 -0.1162  0.3704  0.0591
  805MOL0     O 6186   6.570   5.511   6.185 -0.2172 -0.9666  0.4811
  805MOL0     C 6187   6.601   5.598   6.075 -0.0400  0.6539  0.2965
  805MOL0     C 6188   6.749   5.576   6.038  0.8746  0.1234 -0.5608
  805MOL0     C 6189   6.775   5.443   5.966  0.3976 -0.0813  0.2655
  805MOL0     C 6190   6.932   5.434   5.951 -0.4794  0.2440  0.6017
  805MOL0     C 6191   7.011   5.555   5.928 -0.3812 -1.1538 -0.4701
  805MOL0     C 6192   7.077   5.665   5.920 -0.0670  0.4620  0.0025
  805MOL0     C 6193   6.324   5.508   6.161  0.0182 -0.1152 -0.3610
  805MOL0     C 6194   6.209   5.490   6.237 -0.2834  0.4300 -0.4505
  805MOL0     H 6195   5.978   5.556   6.693 -0.2066  0.0173  0.8651
  805MOL0     H 6196   5.779   5.549   6.842  0.6799 -1.8770  0.0334
  805MOL0     H 6197   5.455   5.608   6.635 -1.6290 -2.7387 -1.4213
  805MOL0     H 6198   5.424   5.658   6.800 -0.7433  1.4912 -2.3024
  805MOL0     H 6199   5.302   5.431   6.823 -0.6758  0.9108 -0.2887
  805MOL0     H 6200   5.294   5.440   6.644  1.4718  0.4308 -0.3907
  805MOL0     H 6201   5.200   5.687   6.681  3.7883 -0.0256  1.5894
  805MOL0     H 6202   5.190   5.652   6.849 -2.7174 -1.0374  1.3299
  805MOL0     H 6203   5.043   5.517   6.627  0.7728  1.7319  0.2825
  805MOL0     H 6204   5.019   5.459   6.789  1.4333 -2.2630 -2.1029
  805MOL0     H 6205   4.942   5.726   6.667  0.4637  2.2396  1.6394
  805MOL0     H 6206   4.964   5.718   6.842 -1.1580 -0.5534  0.4043
  805MOL0     H 6207   4.814   5.517   6.839  2.4940  1.7266  1.3192
  805MOL0     H 6208   4.786   5.539   6.661  1.8956  0.6917 -0.6014
  805MOL0     H 6209   4.719   5.770   6.863 -1.2890 -0.3915  0.2495
  805MOL0     H 6210   4.679   5.762   6.688 -1.9866  1.6096  1.1726
  805MOL0     H 6211   4.499   5.715   6.869 -0.9320 -2.8628  3.6135
  805MOL0     H 6212   4.556   5.551   6.874  2.0762 -1.0325 -1.3385
  805MOL0     H 6213   4.274   5.677   6.744 -2.1716 -2.2881 -0.1506
  805MOL0     H 6214   4.158   5.463   6.455 -2.3117 -2.0530  1.5861
  805MOL0     H 6215   4.140   5.644   6.477 -2.2103 -0.6418  0.4460
  805MOL0     H 6216   4.057   5.434   6.682 -0.2132 -0.3909  0.0097
  805MOL0     H 6217   3.960   5.477   6.556  0.1835  2.3437 -1.3844
  805MOL0     H 6218   4.079   5.685   6.757  0.0969  1.8620 -1.0837
  805MOL0     H 6219   3.965   5.729   6.626  1.1810  0.4296  0.0272
  805MOL0     H 6220   3.839   5.709   6.840 -1.5053 -0.1566 -0.4201
  805MOL0     H 6221   3.909   5.569   6.891 -1.3165 -0.4777 -0.0679
  805MOL0     H 6222   3.754   5.784   6.615 -0.2011  0.8806 -0.3809
  805MOL0     H 6223   3.569   5.832   6.471 -1.1551 -0.0613 -0.6743
  805MOL0     H 6224   3.379   5.936   6.113  0.2856  0.1221  0.7947
  805MOL0     H 6225   3.192   6.039   5.998 -0.9232 -2.1893 -0.9206
  805MOL0     H 6226   2.858   6.043   6.224  0.4672  1.1006  0.0712
  805MOL0     H 6227   2.767   5.945   6.110 -1.2501  1.8196 -0.0375
  805MOL0     H 6228   2.722   6.131   5.968 -0.1010  0.9210  0.0711
  805MOL0     H 6229   2.818   6.232   6.058  1.1975 -0.0098  1.9385
  805MOL0     H 6230   2.665   6.259   6.239  4.0257 -0.3924 -0.5261
  805MOL0     H 6231   2.612   6.096   6.251 -1.2653 -0.4871 -0.6900
  805MOL0     H 6232   2.525   6.297   6.041 -1.5376 -1.7163 -3.1661
  805MOL0     H 6233   2.469   6.133   6.025  3.4336 -0.9471 -1.5974
  805MOL0     H 6234   2.428   6.279   6.282  2.8161  0.4841 -0.8910
  805MOL0     H 6235   2.368   6.116   6.233 -0.2518 -1.0273 -3.2987
  805MOL0     H 6236   2.256   6.205   6.031  1.5572 -0.4009  0.4511
  805MOL0     H 6237   2.282   6.371   6.099  1.3955 -0.8883 -1.0209
  805MOL0     H 6238   2.115   6.141   6.225 -4.4193  1.5962  2.0477
  805MOL0     H 6239   2.147   6.287   6.305 -4.0449 -0.8106  0.7006
  805MOL0     H 6240   2.015   6.355   6.048 -3.4438  1.9765  1.3875
  805MOL0     H 6241   1.987   6.393   6.215  1.3571 -0.1754  0.8433
  805MOL0     H 6242   2.921   5.850   6.243 -0.5582  0.4122 -0.4603
  805MOL0     H 6243   3.118   5.745   6.381  0.4057  0.9270  1.1548
  805MOL0     H 6244   3.429   5.426   6.482  0.1213  0.9651 -1.9938
  805MOL0     H 6245   3.614   5.382   6.655 -0.4762 -0.6909 -1.5962
  805MOL0     H 6246   5.569   5.356   6.525  1.4628 -1.7968 -1.4659
  805MOL0     H 6247   5.746   5.379   6.375 -1.9693  1.2899  0.0587
  805MOL0     H 6248   6.350   5.356   6.513 -2.6283 -1.0758 -0.4280
  805MOL0     H 6249   6.547   5.410   6.398  1.1122  3.6127 -1.0980
  805MOL0     H 6250   6.588   5.704   6.098  3.5210  1.4972 -0.9049
  805MOL0     H 6251   6.529   5.571   5.998  0.3579  2.7879 -0.8976
  805MOL0     H 6252   6.770   5.658   5.968 -0.8387  1.2991  0.2243
  805MOL0     H 6253   6.809   5.592   6.128  0.4369  1.5445 -0.4948
  805MOL0     H 6254   6.724   5.440   5.869 -0.7938 -0.7485  0.8834
  805MOL0     H 6255   6.717   5.369   6.022 -1.2783  0.1530 -1.0605
  805MOL0     H 6256   6.982   5.384   6.034  1.0591 -0.5786 -0.7514
  805MOL0     H 6257   6.957   5.361   5.872 -0.2264 -3.0618  3.4957
  805MOL0     H 6258   7.126   5.758   5.901  1.4232 -0.2671  0.0451
  805MOL0     H 6259   6.315   5.544   6.059  0.2196  0.4171 -0.1916
  805MOL0     H 6260   6.110   5.501   6.193 -1.6924  0.7848  2.5088
  806MOL0     O 6261  10.792   7.865   1.645  0.1654  0.0466 -0.2043
  806MOL0     C 6262  10.807   7.831   1.768 -0.3516 -0.6626  0.9153
  806MOL0     O 6263  10.893   7.740   1.806 -0.2475 -0.5013 -0.3813
  806MOL0     C 6264  10.959   7.656   1.715  0.3957  0.4067 -0.2545
  806MOL0     C 6265  11.095   7.644   1.718 -0.1194  0.7889  0.3356
  806MOL0     C 6266  11.161   7.534   1.651 -0.0559 -1.1902 -0.2240
  806MOL0     C 6267  11.089   7.455   1.571 -0.3176 -0.2076  0.3870
  806MOL0     O 6268  11.157   7.357   1.505  0.1644  0.2306 -0.1065
  806MOL0     C 6269  11.209   7.251   1.591  0.2801 -0.1525  0.1875
  806MOL0     C 6270  11.117   7.125   1.601  0.5170  0.6022 -0.0313
  806MOL0     C 6271  11.051   7.115   1.742 -0.0022  0.4298 -0.3089
  806MOL0     C 6272  10.940   7.005   1.744  0.1698 -0.1762  0.2878
  806MOL0     C 6273  10.828   7.035   1.842  0.2952 -0.0704 -0.3908
  806MOL0     C 6274  10.744   6.905   1.870 -0.4278 -0.6346  0.9273
  806MOL0     C 6275  10.602   6.938   1.915  0.3227  0.2559 -0.6171
  806MOL0     C 6276  10.602   7.036   2.031  0.4967 -0.0699 -0.6502
  806MOL0     N 6277  10.469   7.066   2.079 -0.1943 -0.2361  0.3035
  806MOL0     C 6278  10.425   7.044   2.205 -0.1576 -0.6078 -0.1715
  806MOL0     C 6279  10.308   7.116   2.214 -1.0607 -0.5627 -0.1718
  806MOL0     C 6280  10.209   7.142   2.324  0.0194  0.7587  0.7175
  806MOL0     C 6281  10.144   7.007   2.356  0.2357  0.0140 -0.1661
  806MOL0     C 6282  10.032   7.007   2.471 -0.3607 -0.0825  0.0962
  806MOL0     C 6283   9.894   7.068   2.419 -0.3953 -0.1685 -0.5234
  806MOL0     O 6284   9.807   7.035   2.526  0.5678  0.0728 -0.5539
  806MOL0     C 6285   9.677   7.075   2.511 -0.2658 -0.0541  0.1246
  806MOL0     C 6286   9.602   7.077   2.629 -0.7672  0.4654  0.8986
  806MOL0     C 6287   9.463   7.088   2.624 -0.5903 -0.0364 -0.5512
  806MOL0     C 6288   9.394   7.112   2.498 -0.2380  0.9935 -0.1470
  806MOL0     C 6289   9.250   7.132   2.482  1.0263  0.0807  0.3794
  806MOL0     O 6290   9.174   7.163   2.590  0.2487 -0.4198  0.1020
  806MOL0     C 6291   9.041   7.177   2.587  0.4813  0.7750 -0.0553
  806MOL0     C 6292   8.958   7.133   2.483  0.4638  0.0136 -0.1726
  806MOL0     C 6293   8.822   7.146   2.495  1.0675  1.2821  0.5183
  806MOL0     C 6294   8.764   7.202   2.608 -0.5998  0.0803  0.2189
  806MOL0     O 6295   8.628   7.226   2.609  0.0567  0.2339  0.3193
  806MOL0     C 6296   8.569   7.263   2.734 -1.2680  0.5623 -0.1410
  806MOL0     C 6297   8.426   7.284   2.710  0.1114 -0.1276  0.0818
  806MOL0     C 6298   8.347   7.173   2.652  0.1854 -0.2135  0.0102
  806MOL0     C 6299   8.202   7.225   2.634  0.1320  1.1473  0.1344
  806MOL0     C 6300   8.121   7.118   2.554 -0.3699 -0.4062 -0.1757
  806MOL0     C 6301   7.969   7.137   2.540 -0.3358  0.8561 -0.1309
  806MOL0     C 6302   7.877   7.013   2.528  0.2551  0.5095  0.3218
  806MOL0     C 6303   7.740   7.035   2.472  0.1766  1.0224  0.0626
  806MOL0    Cl 6304   7.675   7.201   2.521  0.2857  0.1018 -0.1033
  806MOL0     C 6305   8.852   7.254   2.710  0.0268 -0.2149  0.3392
  806MOL0     C 6306   8.991   7.233   2.697  0.1220 -0.6791 -0.8392
  806MOL0     O 6307   9.206   7.117   2.367  0.6448  0.0247 -0.2587
  806MOL0     C 6308   9.475   7.113   2.380 -0.3065  1.0042 -0.6607
  806MOL0     C 6309   9.611   7.084   2.381  0.2228 -0.0323  0.1881
  806MOL0     N 6310  10.277   7.153   2.083  0.5000 -0.6046 -0.0680
  806MOL0     N 6311  10.374   7.134   2.006 -0.0681 -0.2217 -0.7990
  806MOL0     C 6312  10.952   7.465   1.566 -0.3468  0.7323  0.4531
  806MOL0     C 6313  10.886   7.566   1.634  0.9472  0.3615  0.3725
  806MOL0     C 6314  10.738   7.912   1.867  0.8610  0.0991 -0.4526
  806MOL0     C 6315  10.636   7.999   1.830  0.1098 -0.4477  0.7807
  806MOL0     C 6316  10.569   8.075   1.927  0.2002 -0.8466 -0.4325
  806MOL0     C 6317  10.591   8.064   2.061 -0.5683  0.1468  0.2081
  806MOL0     O 6318  10.537   8.147   2.154  0.1854  1.0162  0.6209
  806MOL0     C 6319  10.403   8.103   2.193 -0.1857 -0.3092  0.4459
  806MOL0     C 6320  10.413   7.992   2.303 -0.4548 -0.6728  0.2234
  806MOL0     C 6321  10.285   7.977   2.382  0.3465  0.7214 -0.8235
  806MOL0     C 6322  10.300   7.876   2.503  0.0442 -0.3211 -0.2999
  806MOL0     C 6323  10.167   7.841   2.543  0.6042 -0.0121  0.2762
  806MOL0     C 6324  10.050   7.802   2.568 -0.0490  0.1138 -0.5279
  806MOL0     C 6325  10.679   7.962   2.098  0.5931  0.5774  0.5485
  806MOL0     C 6326  10.751   7.892   2.002 -0.4951  1.0247  0.4004
  806MOL0     H 6327  11.151   7.714   1.778 -0.2272  2.9093 -1.8753
  806MOL0     H 6328  11.268   7.517   1.665 -0.3755 -4.3365 -0.9180
  806MOL0     H 6329  11.234   7.286   1.691 -2.4070 -1.8343  1.5502
  806MOL0     H 6330  11.303   7.216   1.547  0.0040 -1.4278  0.5539
  806MOL0     H 6331  11.178   7.034   1.602 -2.2489 -1.4385 -0.8735
  806MOL0     H 6332  11.045   7.125   1.518 -0.2939 -2.7064  0.5256
  806MOL0     H 6333  11.002   7.208   1.775 -0.1074 -0.3034  1.7437
  806MOL0     H 6334  11.129   7.090   1.814 -0.5638 -1.8323 -0.4224
  806MOL0     H 6335  10.901   6.996   1.642  2.2966  1.3437 -0.7304
  806MOL0     H 6336  10.987   6.909   1.769  0.0683 -0.4350 -0.4916
  806MOL0     H 6337  10.764   7.111   1.797  0.2731 -1.0663 -2.1597
  806MOL0     H 6338  10.865   7.078   1.935  2.1559  2.9847 -2.3448
  806MOL0     H 6339  10.798   6.851   1.949  2.2600  1.2584  0.5280
  806MOL0     H 6340  10.738   6.848   1.777  3.3886  0.8479 -0.4124
  806MOL0     H 6341  10.543   6.984   1.836  1.1480  0.9034 -0.8738
  806MOL0     H 6342  10.548   6.849   1.947 -1.1312  1.3604  0.1296
  806MOL0     H 6343  10.637   7.137   2.006 -2.9005  0.4863 -4.2000
  806MOL0     H 6344  10.664   7.001   2.114 -0.3998  1.1619  0.5984
  806MOL0     H 6345  10.475   6.997   2.289 -1.5756 -2.0250 -0.0718
  806MOL0     H 6346  10.146   7.224   2.288  1.1612  1.2489 -0.2603
  806MOL0     H 6347  10.267   7.172   2.412  1.2421 -0.5096  0.3905
  806MOL0     H 6348  10.212   6.928   2.389 -1.6924 -1.4848  0.3942
  806MOL0     H 6349  10.100   6.969   2.264  2.6954 -2.3412 -0.4936
  806MOL0     H 6350  10.010   6.904   2.500 -0.0191 -0.1817  0.0022
  806MOL0     H 6351  10.076   7.059   2.557  1.7709 -1.0076 -0.3905
  806MOL0     H 6352   9.858   7.031   2.322  0.1564  1.2687 -1.3039
  806MOL0     H 6353   9.895   7.177   2.411 -0.7305  0.0928  2.1005
  806MOL0     H 6354   9.647   7.058   2.725 -2.3469  0.1972  1.6106
  806MOL0     H 6355   9.407   7.099   2.716  2.8331  0.6715  1.6316
  806MOL0     H 6356   8.991   7.081   2.393 -0.3247 -0.9549  0.0928
  806MOL0     H 6357   8.750   7.112   2.421  1.3156  0.1029  0.7949
  806MOL0     H 6358   8.610   7.358   2.772 -0.5015  0.2788 -0.2282
  806MOL0     H 6359   8.598   7.185   2.804  1.9429 -0.2872 -2.1577
  806MOL0     H 6360   8.412   7.372   2.646  3.3771  0.1181 -0.4531
  806MOL0     H 6361   8.377   7.302   2.806 -0.3673  0.2475 -0.2259
  806MOL0     H 6362   8.348   7.083   2.714  2.9604 -3.6868 -4.4523
  806MOL0     H 6363   8.391   7.137   2.559 -2.4710  0.8025 -1.7611
  806MOL0     H 6364   8.169   7.253   2.734  2.2308  2.3320  0.5526
  806MOL0     H 6365   8.202   7.319   2.578  0.5010 -1.2128 -4.2830
  806MOL0     H 6366   8.149   7.024   2.604  0.3411  0.0832  0.3619
  806MOL0     H 6367   8.170   7.119   2.457 -1.6383  1.2469 -0.8394
  806MOL0     H 6368   7.963   7.183   2.441  0.1294 -0.7576 -0.9378
  806MOL0     H 6369   7.927   7.190   2.625  0.0123 -0.9615  1.2316
  806MOL0     H 6370   7.925   6.944   2.457 -0.9647 -0.7380  0.6744
  806MOL0     H 6371   7.853   6.971   2.627 -1.6311  2.8951  0.9597
  806MOL0     H 6372   7.682   6.948   2.506  1.2340  0.3756  0.2783
  806MOL0     H 6373   7.752   7.014   2.365 -0.4287  0.3738  0.1109
  806MOL0     H 6374   8.816   7.320   2.788 -1.0256  1.0660 -1.1380
  806MOL0     H 6375   9.065   7.269   2.768  1.5054  0.1562 -2.6557
  806MOL0     H 6376   9.428   7.128   2.283 -0.6676  0.9830 -0.4881
  806MOL0     H 6377   9.649   7.066   2.281 -1.4398 -2.2408 -0.1193
  806MOL0     H 6378  10.894   7.394   1.507  0.5636  1.0775 -0.9062
  806MOL0     H 6379  10.779   7.579   1.626  1.0654  0.9662 -0.4393
  806MOL0     H 6380  10.614   8.013   1.725  2.5482 -0.1133  0.2582
  806MOL0     H 6381  10.495   8.149   1.898 -1.5847 -2.1226  0.6423
  806MOL0     H 6382  10.347   8.064   2.108 -1.5003  1.5613  0.4027
  806MOL0     H 6383  10.346   8.186   2.236  0.7765 -0.7313  2.6837
  806MOL0     H 6384  10.452   7.899   2.260  0.4325  1.3510 -3.8778
  806MOL0     H 6385  10.485   8.041   2.370 -2.8204  0.4341  2.0963
  806MOL0     H 6386  10.219   7.944   2.301  0.6049 -1.6321 -0.1401
  806MOL0     H 6387  10.248   8.071   2.424 -1.8136 -1.0504  1.5101
  806MOL0     H 6388  10.352   7.784   2.472 -0.9842 -0.6892 -0.9597
  806MOL0     H 6389  10.350   7.910   2.594  0.6837 -0.5532 -0.5566
  806MOL0     H 6390   9.955   7.760   2.591  0.7636 -0.8508  1.2705
  806MOL0     H 6391  10.683   7.936   2.203  0.6305  1.9759  0.9226
  806MOL0     H 6392  10.822   7.819   2.039 -1.2538 -1.2873 -2.2953
  807MOL0     O 6393   9.672   4.726  10.105  0.0240  0.6573  0.5737
  807MOL0     C 6394   9.693   4.716   9.978  0.9743 -0.3467 -0.0180
  807MOL0     O 6395   9.645   4.810   9.883  0.0941 -0.0323  1.1187
  807MOL0     C 6396   9.577   4.917   9.932  0.5918  0.0776  0.0289
  807MOL0     C 6397   9.639   5.043   9.923  0.4476 -0.2405 -0.6221
  807MOL0     C 6398   9.578   5.151   9.993 -0.2035  0.6053 -0.2292
  807MOL0     C 6399   9.445   5.149  10.031 -0.1518  0.1698  0.2218
  807MOL0     O 6400   9.386   5.265  10.098  0.4298  0.3748 -0.0332
  807MOL0     C 6401   9.242   5.260  10.118  0.6059 -0.0181 -0.1855
  807MOL0     C 6402   9.198   5.398  10.163 -0.4335  0.1680  0.3874
  807MOL0     C 6403   9.183   5.479  10.029  0.6299 -0.7457  0.3148
  807MOL0     C 6404   9.149   5.630  10.058 -0.3180  0.0550  0.8892
  807MOL0     C 6405   9.175   5.705   9.923  0.0411 -0.3930  0.1108
  807MOL0     C 6406   9.142   5.848   9.932  0.4800 -0.1469  0.3070
  807MOL0     C 6407   9.156   5.919   9.800 -0.1875 -0.0932 -0.5914
  807MOL0     C 6408   9.181   6.073   9.809 -0.0803  0.2283 -0.5194
  807MOL0     N 6409   9.068   6.127   9.882 -0.5921  0.4192  0.0151
  807MOL0     C 6410   8.936   6.154   9.842  0.0605 -0.6217  0.2983
  807MOL0     C 6411   8.890   6.213   9.965 -0.4749 -0.1124  1.2020
  807MOL0     C 6412   8.748   6.248   9.989  0.4747  0.0041 -0.3468
  807MOL0     C 6413   8.734   6.397   9.959  0.4967  0.1924 -0.1587
  807MOL0     C 6414   8.589   6.445   9.999 -0.4559  0.3204  1.2555
  807MOL0     C 6415   8.487   6.389   9.901  0.1208  0.0362  0.0291
  807MOL0     O 6416   8.361   6.428   9.948  0.7248 -0.0273  0.4706
  807MOL0     C 6417   8.242   6.393   9.881 -0.3852  0.6476 -0.4177
  807MOL0     C 6418   8.235   6.310   9.769  0.0718  0.1152 -0.6590
  807MOL0     C 6419   8.112   6.290   9.708  0.3449  0.3291  0.2584
  807MOL0     C 6420   7.991   6.345   9.767 -0.4203  0.3462 -0.0390
  807MOL0     C 6421   7.854   6.322   9.713 -0.4866 -0.3270 -0.3534
  807MOL0     O 6422   7.744   6.373   9.774  0.6918 -0.6516 -0.4607
  807MOL0     C 6423   7.623   6.357   9.718  0.2089  0.2295  0.2951
  807MOL0     C 6424   7.553   6.237   9.700 -0.2261 -0.3145 -0.2680
  807MOL0     C 6425   7.418   6.242   9.662  0.1386  0.0860 -0.1723
  807MOL0     C 6426   7.354   6.368   9.624  0.1090  0.4644 -0.4992
  807MOL0     O 6427   7.226   6.380   9.588 -0.0831  0.3894 -0.3355
  807MOL0     C 6428   7.123   6.279   9.583  0.3935  0.0891  0.2066
  807MOL0     C 6429   6.989   6.333   9.518 -0.2002  0.3566 -0.3179
  807MOL0     C 6430   6.882   6.228   9.563 -0.5398 -0.0212  0.1089
  807MOL0     C 6431   6.736   6.252   9.513  0.8376 -0.3497 -0.1212
  807MOL0     C 6432   6.640   6.140   9.541  0.3589  1.1098 -0.0534
  807MOL0     C 6433   6.610   6.117   9.688  0.5341 -0.1148  0.5127
  807MOL0     C 6434   6.529   5.990   9.718 -0.2903  0.4338  0.2234
  807MOL0     C 6435   6.381   5.993   9.669  0.4828  0.3418 -0.0289
  807MOL0    Cl 6436   6.303   6.110   9.759 -0.5805 -0.1392 -0.1330
  807MOL0     C 6437   7.427   6.480   9.637 -0.2463 -0.3698  0.4412
  807MOL0     C 6438   7.557   6.478   9.689 -1.0076 -0.2947  0.1090
  807MOL0     O 6439   7.849   6.250   9.619  0.1263 -0.1563 -0.2637
  807MOL0     C 6440   8.002   6.417   9.883 -0.2923  0.3734  0.7697
  807MOL0     C 6441   8.130   6.444   9.936  0.3752 -0.9055 -0.4224
  807MOL0     N 6442   8.991   6.232  10.049  0.1972 -0.4819 -0.7537
  807MOL0     N 6443   9.092   6.175  10.006 -0.3576  0.6951 -0.3290
  807MOL0     C 6444   9.378   5.027  10.020 -0.3407  0.2957 -0.1693
  807MOL0     C 6445   9.451   4.906   9.979 -0.6108 -0.4038 -0.2464
  807MOL0     C 6446   9.741   4.588   9.933 -0.4812  0.0668 -0.2035
  807MOL0     C 6447   9.702   4.548   9.805 -0.1237  0.2945  0.7892
  807MOL0     C 6448   9.757   4.433   9.749  0.3334  0.2289  0.4756
  807MOL0     C 6449   9.852   4.350   9.810  0.9940  0.2614 -0.4091
  807MOL0     O 6450   9.903   4.233   9.760  0.2180  0.4756 -0.6060
  807MOL0     C 6451   9.862   4.181   9.638 -0.8296  0.3642 -0.2889
  807MOL0     C 6452   9.731   4.098   9.615 -0.4428  0.7259 -0.1153
  807MOL0     C 6453   9.711   3.990   9.717 -0.6033  0.0480  0.1941
  807MOL0     C 6454   9.573   3.937   9.744  0.6589  0.1581 -0.7012
  807MOL0     C 6455   9.504   3.872   9.633  0.4697  0.3169 -0.0543
  807MOL0     C 6456   9.439   3.805   9.560 -0.0601  0.6719  1.1061
  807MOL0     C 6457   9.893   4.397   9.933  0.4973  0.3803  0.1898
  807MOL0     C 6458   9.845   4.517   9.993  0.0961 -0.2082 -0.8492
  807MOL0     H 6459   9.738   5.051   9.879 -0.4251  0.6030 -2.5334
  807MOL0     H 6460   9.623   5.248  10.009 -0.5386  0.7311 -0.0352
  807MOL0     H 6461   9.217   5.186  10.195 -1.5984  0.2177 -0.6075
  807MOL0     H 6462   9.200   5.219  10.026  1.7891 -1.0592 -0.2843
  807MOL0     H 6463   9.265   5.429  10.244 -0.5994 -0.4030  0.7478
  807MOL0     H 6464   9.100   5.404  10.211  0.9986  0.6167  3.4945
  807MOL0     H 6465   9.106   5.441   9.962  0.9544  0.2340 -0.6466
  807MOL0     H 6466   9.270   5.474   9.963  0.5485 -2.0886  0.2958
  807MOL0     H 6467   9.047   5.631  10.098 -0.1189  2.2423  1.4257
  807MOL0     H 6468   9.222   5.656  10.135  0.2576 -0.1447  0.4206
  807MOL0     H 6469   9.131   5.664   9.831  2.7737 -0.0621 -1.4536
  807MOL0     H 6470   9.281   5.703   9.896 -0.3402  1.2036 -1.7275
  807MOL0     H 6471   9.214   5.890  10.003 -0.4997  1.0926  0.6132
  807MOL0     H 6472   9.042   5.853   9.977  0.5571  0.2953  0.4364
  807MOL0     H 6473   9.242   5.871   9.752  1.1276  0.3404  1.2183
  807MOL0     H 6474   9.062   5.897   9.749 -1.3061 -2.5430  2.2249
  807MOL0     H 6475   9.191   6.132   9.718  0.0952  0.7855 -0.1433
  807MOL0     H 6476   9.271   6.100   9.866  0.0949 -0.8526 -0.2559
  807MOL0     H 6477   8.872   6.129   9.757  0.3683 -2.3725  0.5370
  807MOL0     H 6478   8.727   6.226  10.094  0.8923 -0.8099 -0.4259
  807MOL0     H 6479   8.685   6.183   9.927  2.2514 -1.8347 -0.3182
  807MOL0     H 6480   8.757   6.409   9.852 -1.7953 -2.0279 -1.0070
  807MOL0     H 6481   8.807   6.449  10.021 -0.0640  2.3329 -1.1982
  807MOL0     H 6482   8.568   6.423  10.104 -1.3606 -2.5731  0.5741
  807MOL0     H 6483   8.580   6.554   9.993 -2.1991  0.1637  0.2537
  807MOL0     H 6484   8.502   6.281   9.913 -1.0142 -0.0717  0.6595
  807MOL0     H 6485   8.509   6.430   9.802  0.8559  2.2865  1.0463
  807MOL0     H 6486   8.324   6.278   9.715 -0.7330 -0.2711 -1.8057
  807MOL0     H 6487   8.087   6.234   9.618  0.4636 -0.2065  0.5516
  807MOL0     H 6488   7.599   6.140   9.717 -0.1802 -0.2182  0.1581
  807MOL0     H 6489   7.364   6.150   9.646 -0.1343  0.4481 -1.4793
  807MOL0     H 6490   7.097   6.250   9.686 -2.4977 -1.7937 -0.9315
  807MOL0     H 6491   7.158   6.194   9.524 -1.6694 -0.3904 -0.4121
  807MOL0     H 6492   6.994   6.336   9.408 -3.6774  0.3970 -0.5819
  807MOL0     H 6493   6.962   6.426   9.568  0.6471 -0.4784  1.8034
  807MOL0     H 6494   6.882   6.215   9.672 -0.5743 -0.2104  0.0868
  807MOL0     H 6495   6.913   6.133   9.518  2.0052  0.4337  0.7911
  807MOL0     H 6496   6.705   6.347   9.558  0.8192 -1.1709  1.6746
  807MOL0     H 6497   6.731   6.255   9.404  1.7211 -0.7725 -0.1775
  807MOL0     H 6498   6.679   6.049   9.494  1.8094  0.4053  2.3187
  807MOL0     H 6499   6.545   6.165   9.495  0.5717  1.5564 -0.2575
  807MOL0     H 6500   6.557   6.207   9.722 -0.4769 -0.9043  1.0662
  807MOL0     H 6501   6.699   6.116   9.750 -0.4663 -0.7527  2.0081
  807MOL0     H 6502   6.578   5.905   9.670 -0.1830 -0.1749  1.3874
  807MOL0     H 6503   6.538   5.958   9.822 -2.1704 -1.3490 -0.0850
  807MOL0     H 6504   6.326   5.899   9.683 -0.8325  1.1406  0.3073
  807MOL0     H 6505   6.377   6.025   9.565  0.5368 -0.4999 -0.2989
  807MOL0     H 6506   7.378   6.567   9.594  1.8777  0.3531 -0.6459
  807MOL0     H 6507   7.620   6.565   9.704  1.9366 -2.1019 -0.9412
  807MOL0     H 6508   7.918   6.464   9.934 -0.9867 -2.3908  2.3519
  807MOL0     H 6509   8.128   6.514  10.019 -1.8571 -0.3830 -0.8451
  807MOL0     H 6510   9.274   5.020  10.053 -0.0577  2.1731  1.2633
  807MOL0     H 6511   9.399   4.812   9.965  2.9720 -2.1628 -3.6589
  807MOL0     H 6512   9.622   4.603   9.756 -0.5521 -1.3354 -0.4484
  807MOL0     H 6513   9.734   4.422   9.643  2.0148  1.7375 -0.1028
  807MOL0     H 6514   9.942   4.111   9.613 -0.2929  0.9934 -0.3503
  807MOL0     H 6515   9.856   4.259   9.562 -1.9431 -0.1851 -0.7888
  807MOL0     H 6516   9.645   4.165   9.605 -0.4169  0.8181  0.2858
  807MOL0     H 6517   9.760   4.049   9.521  1.8879  0.0059  0.9233
  807MOL0     H 6518   9.747   4.028   9.813 -0.2334 -0.4899  0.2773
  807MOL0     H 6519   9.778   3.904   9.707 -1.0335 -0.2392 -0.2412
  807MOL0     H 6520   9.587   3.861   9.821  1.6314 -2.4027 -3.2386
  807MOL0     H 6521   9.513   4.022   9.779 -0.9789 -0.9245 -0.8144
  807MOL0     H 6522   9.411   3.732   9.487  1.7828 -0.6956  1.6860
  807MOL0     H 6523   9.971   4.342   9.984  0.8248  2.5745  2.2877
  807MOL0     H 6524   9.880   4.555  10.088 -0.0289 -0.4827 -0.6917
  808MOL0     O 6525   2.688   4.985   8.530 -0.3263 -0.0542  0.5498
  808MOL0     C 6526   2.707   5.010   8.647 -0.4505  0.2090 -0.6197
  808MOL0     O 6527   2.617   5.035   8.745 -0.3976  0.1690 -0.0872
  808MOL0     C 6528   2.490   5.007   8.707 -0.4456 -0.1575  0.3240
  808MOL0     C 6529   2.432   4.884   8.744  0.1723  0.1645 -0.0504
  808MOL0     C 6530   2.307   4.849   8.694  0.8291  0.8604 -1.0833
  808MOL0     C 6531   2.234   4.933   8.610 -0.0771  0.4788  0.3552
  808MOL0     O 6532   2.110   4.894   8.569  0.7106 -0.1832  0.2424
  808MOL0     C 6533   2.026   4.814   8.655 -0.8319  0.1430 -0.0593
  808MOL0     C 6534   1.908   4.781   8.575 -0.1326  0.7526  0.9508
  808MOL0     C 6535   1.804   4.712   8.663 -0.4841 -0.3511  1.3547
  808MOL0     C 6536   1.691   4.628   8.586  0.5662 -0.3853 -0.2107
  808MOL0     C 6537   1.608   4.703   8.464 -0.3425 -0.0708 -0.1128
  808MOL0     C 6538   1.530   4.596   8.393 -0.4470 -0.8857  1.0618
  808MOL0     C 6539   1.428   4.653   8.304  0.1129 -0.3795 -0.7232
  808MOL0     C 6540   1.321   4.559   8.251  0.0799  0.0910  0.1434
  808MOL0     N 6541   1.252   4.491   8.364  0.4102 -0.4135  0.1237
  808MOL0     C 6542   1.238   4.358   8.379 -0.5598 -0.0964 -0.2243
  808MOL0     C 6543   1.153   4.359   8.482  0.3180 -0.5502 -0.0512
  808MOL0     C 6544   1.093   4.231   8.532 -0.2765  0.8118 -0.1006
  808MOL0     C 6545   0.942   4.244   8.501 -0.1681 -0.2796  0.0269
  808MOL0     C 6546   0.859   4.284   8.625  0.3170  0.5446  0.3957
  808MOL0     C 6547   0.718   4.318   8.589 -0.1138  0.6390  0.8261
  808MOL0     O 6548   0.650   4.212   8.516 -0.4939  0.3027  0.7047
  808MOL0     C 6549   0.516   4.227   8.484 -0.4059  0.0366  0.4788
  808MOL0     C 6550   0.455   4.123   8.414 -0.1920  0.1428 -0.4629
  808MOL0     C 6551   0.325   4.132   8.354  1.1055  0.5080 -0.1256
  808MOL0     C 6552   0.248   4.243   8.385  0.3948 -0.8802  0.4027
  808MOL0     C 6553   0.117   4.256   8.320 -0.7612  0.6037  0.0520
  808MOL0     O 6554   0.045   4.367   8.348 -1.3046 -0.4301 -0.0904
  808MOL0     C 6555  -0.086   4.383   8.308  0.2220 -0.3336  0.7269
  808MOL0     C 6556  -0.121   4.513   8.282  0.0772 -0.7860 -0.2665
  808MOL0     C 6557  -0.253   4.562   8.268  0.2879 -0.7005 -0.9598
  808MOL0     C 6558  -0.360   4.466   8.270 -0.0527 -0.3451 -0.3197
  808MOL0     O 6559  -0.494   4.509   8.275  0.1274  0.7613  0.4249
  808MOL0     C 6560  -0.561   4.523   8.153  0.4526 -0.5968  0.2486
  808MOL0     C 6561  -0.701   4.575   8.170 -0.6246 -0.4068  0.2069
  808MOL0     C 6562  -0.788   4.580   8.044  1.0630  1.0883 -0.0361
  808MOL0     C 6563  -0.937   4.586   8.074  0.0913 -0.4607 -0.6639
  808MOL0     C 6564  -1.010   4.598   7.939 -0.2504  0.5954 -0.2231
  808MOL0     C 6565  -1.163   4.578   7.970  0.0973 -1.3441  0.3317
  808MOL0     C 6566  -1.253   4.616   7.849  0.1153 -0.5985  0.1128
  808MOL0     C 6567  -1.401   4.590   7.869  0.1060  0.8130 -0.3855
  808MOL0    Cl 6568  -1.463   4.682   8.009  0.0760 -0.1549 -0.2602
  808MOL0     C 6569  -0.325   4.329   8.281  0.0281  0.0500 -0.4696
  808MOL0     C 6570  -0.191   4.290   8.302 -0.5382  0.9135  0.4804
  808MOL0     O 6571   0.088   4.158   8.258  0.6999  0.2048  0.8757
  808MOL0     C 6572   0.304   4.346   8.459 -0.3268 -0.3581  0.0477
  808MOL0     C 6573   0.437   4.341   8.509  0.1792 -0.1672  0.3846
  808MOL0     N 6574   1.137   4.481   8.546  0.2258 -0.2198  0.3741
  808MOL0     N 6575   1.207   4.555   8.476  0.4082 -0.0853 -0.1599
  808MOL0     C 6576   2.283   5.059   8.581 -0.2508  0.7561 -0.3003
  808MOL0     C 6577   2.410   5.094   8.634 -1.0249 -0.5191 -0.8961
  808MOL0     C 6578   2.846   5.008   8.689  0.0350  0.1683 -0.0064
  808MOL0     C 6579   2.949   5.059   8.605  0.0737 -0.0300  0.7163
  808MOL0     C 6580   3.081   5.061   8.638  0.1031  0.1707 -0.6401
  808MOL0     C 6581   3.122   5.020   8.765  0.2161 -0.1989 -0.2900
  808MOL0     O 6582   3.256   5.025   8.784 -0.0955  0.4630  0.2486
  808MOL0     C 6583   3.309   4.978   8.913  0.2207  0.1990  0.2450
  808MOL0     C 6584   3.460   4.966   8.907 -0.1704  0.3337  0.4357
  808MOL0     C 6585   3.496   4.877   8.792 -0.1048  0.5086 -0.4137
  808MOL0     C 6586   3.647   4.882   8.793  0.2030 -0.0671 -0.1103
  808MOL0     C 6587   3.703   4.778   8.700 -0.9366  0.1555  0.1569
  808MOL0     C 6588   3.761   4.690   8.637 -0.4637 -0.5152 -0.4955
  808MOL0     C 6589   3.018   4.977   8.853 -0.6260  0.0091 -0.5675
  808MOL0     C 6590   2.883   4.973   8.818  0.3508  0.2764 -0.4628
  808MOL0     H 6591   2.482   4.827   8.822  0.4765  1.4501  0.7239
  808MOL0     H 6592   2.284   4.748   8.725  2.7083  0.4533 -0.8581
  808MOL0     H 6593   2.012   4.864   8.752  2.0793 -2.1298  1.7350
  808MOL0     H 6594   2.082   4.721   8.674  1.2958  0.7546 -2.7196
  808MOL0     H 6595   1.951   4.715   8.499  3.7226 -0.4394  3.8249
  808MOL0     H 6596   1.863   4.866   8.523 -3.1912 -2.6021 -2.5610
  808MOL0     H 6597   1.765   4.800   8.715  1.3150  0.8355  0.7953
  808MOL0     H 6598   1.854   4.647   8.735 -0.9257 -1.2903  0.8463
  808MOL0     H 6599   1.729   4.533   8.548 -1.8929 -1.1195 -0.9983
  808MOL0     H 6600   1.617   4.596   8.660  1.8114 -2.2675  0.2777
  808MOL0     H 6601   1.671   4.753   8.390  1.0477  2.5928  2.6354
  808MOL0     H 6602   1.543   4.780   8.505 -1.9393 -1.0087 -0.8004
  808MOL0     H 6603   1.493   4.525   8.468 -3.0164 -0.5333  0.2383
  808MOL0     H 6604   1.598   4.540   8.328 -0.3550  1.4798 -1.0343
  808MOL0     H 6605   1.372   4.727   8.362  0.8059 -1.0336  0.8395
  808MOL0     H 6606   1.484   4.706   8.226  1.3221 -0.8349 -0.1937
  808MOL0     H 6607   1.367   4.484   8.186  0.2382 -0.9356  1.3995
  808MOL0     H 6608   1.244   4.615   8.198 -0.8530 -0.4207  0.9256
  808MOL0     H 6609   1.273   4.282   8.310  0.5864  1.3446 -1.3154
  808MOL0     H 6610   1.120   4.217   8.638 -0.0019  0.0780 -0.2570
  808MOL0     H 6611   1.138   4.140   8.490  0.6643  1.1041  0.2345
  808MOL0     H 6612   0.903   4.155   8.451 -3.2520  0.6138  0.6222
  808MOL0     H 6613   0.916   4.329   8.437 -1.1252 -1.2516 -0.9064
  808MOL0     H 6614   0.866   4.203   8.698  1.0054 -1.0529 -1.3729
  808MOL0     H 6615   0.905   4.372   8.671  0.3039  0.1049  1.2726
  808MOL0     H 6616   0.723   4.414   8.537 -0.1762  0.8978  1.2890
  808MOL0     H 6617   0.659   4.337   8.679  1.1824 -1.3006  2.1604
  808MOL0     H 6618   0.512   4.033   8.394 -1.9700 -1.3732  0.8427
  808MOL0     H 6619   0.294   4.052   8.288  0.6208 -0.7339  1.5390
  808MOL0     H 6620  -0.038   4.581   8.296  0.8386 -1.2933 -2.0507
  808MOL0     H 6621  -0.266   4.669   8.275  1.9540 -0.5621  0.8917
  808MOL0     H 6622  -0.560   4.430   8.096  1.0819 -0.6399  0.3291
  808MOL0     H 6623  -0.513   4.601   8.093  0.8560 -0.2128  1.0476
  808MOL0     H 6624  -0.707   4.678   8.207 -0.4768  0.6771 -2.5716
  808MOL0     H 6625  -0.749   4.507   8.242 -1.2458 -0.0455  0.1362
  808MOL0     H 6626  -0.768   4.495   7.977  0.6681 -0.4762  1.7563
  808MOL0     H 6627  -0.760   4.664   7.980 -1.3782  1.6467 -0.5002
  808MOL0     H 6628  -0.972   4.500   8.133  0.8301 -2.3403 -2.7955
  808MOL0     H 6629  -0.949   4.682   8.125  1.8954 -0.5959  0.0986
  808MOL0     H 6630  -0.966   4.531   7.864 -0.1787  2.5786 -2.0653
  808MOL0     H 6631  -1.007   4.702   7.904 -3.8747  0.1012 -2.5435
  808MOL0     H 6632  -1.193   4.647   8.049 -2.2087  0.8371 -2.2066
  808MOL0     H 6633  -1.184   4.479   8.012 -3.5752 -1.1423 -0.6528
  808MOL0     H 6634  -1.237   4.722   7.828 -0.0717 -0.5842  0.0419
  808MOL0     H 6635  -1.216   4.559   7.763  3.4469 -1.3618  1.8856
  808MOL0     H 6636  -1.434   4.486   7.883  1.4885  0.2853 -0.9328
  808MOL0     H 6637  -1.450   4.621   7.776 -1.4799 -2.7432 -0.9308
  808MOL0     H 6638  -0.399   4.250   8.270 -0.1755  0.0524  0.7017
  808MOL0     H 6639  -0.162   4.188   8.326 -2.6668  0.0619 -0.3383
  808MOL0     H 6640   0.238   4.428   8.484  1.3088  1.6592 -1.8566
  808MOL0     H 6641   0.474   4.426   8.566  1.1960 -0.4947  0.2235
  808MOL0     H 6642   2.231   5.124   8.511 -2.6671  0.8771  1.4885
  808MOL0     H 6643   2.443   5.196   8.613 -0.9045 -0.2385  0.5677
  808MOL0     H 6644   2.923   5.101   8.509  0.6835 -0.4685  0.3512
  808MOL0     H 6645   3.160   5.103   8.576 -0.6728 -0.8563 -2.3870
  808MOL0     H 6646   3.274   4.880   8.947  3.9383 -0.9094  1.3483
  808MOL0     H 6647   3.285   5.060   8.981 -1.5667  0.7196 -0.9320
  808MOL0     H 6648   3.506   5.063   8.890  0.6472 -0.2537 -0.8368
  808MOL0     H 6649   3.500   4.930   9.003  0.1116 -0.2094  0.1170
  808MOL0     H 6650   3.459   4.922   8.700  0.6029  1.9903  0.0009
  808MOL0     H 6651   3.456   4.776   8.808 -2.7537  1.6189  0.4190
  808MOL0     H 6652   3.692   4.981   8.777  0.7454 -0.4555 -1.0902
  808MOL0     H 6653   3.682   4.852   8.892  0.9292  0.4621 -0.1958
  808MOL0     H 6654   3.807   4.619   8.572 -2.5967 -0.6933 -1.9213
  808MOL0     H 6655   3.047   4.952   8.954 -0.3371 -0.3500 -0.7334
  808MOL0     H 6656   2.815   4.950   8.900 -1.7526  3.1782 -1.2276
  809MOL0     O 6657   8.103   5.077   8.327  0.0052 -0.3354 -0.0215
  809MOL0     C 6658   8.150   5.134   8.230 -0.6055  0.5327 -1.0035
  809MOL0     O 6659   8.151   5.087   8.105 -0.1353 -0.5670 -0.5201
  809MOL0     C 6660   8.118   4.956   8.081  1.0043 -0.0179 -0.6910
  809MOL0     C 6661   8.217   4.864   8.055 -0.7440  0.5765 -0.1352
  809MOL0     C 6662   8.187   4.729   8.023  0.7126  0.0537 -0.0728
  809MOL0     C 6663   8.052   4.680   8.024  0.2743 -1.0950  0.0192
  809MOL0     O 6664   8.037   4.549   7.986 -0.1752 -0.4238 -0.3316
  809MOL0     C 6665   7.907   4.488   8.007 -0.2003  0.4429 -0.2079
  809MOL0     C 6666   7.905   4.353   7.933  0.3768 -0.5179 -0.1165
  809MOL0     C 6667   7.777   4.278   7.941  0.2053  0.3500  0.8510
  809MOL0     C 6668   7.755   4.221   8.078  0.1988  0.5502 -1.0826
  809MOL0     C 6669   7.656   4.104   8.075  0.6500  0.8460 -0.6350
  809MOL0     C 6670   7.608   4.050   8.212 -0.2554 -0.7837  0.0948
  809MOL0     C 6671   7.483   4.130   8.267 -0.4814 -1.0256 -0.7117
  809MOL0     C 6672   7.467   4.087   8.416  0.3561  0.1876  0.4870
  809MOL0     N 6673   7.403   3.958   8.436  0.6283  0.3579 -1.2798
  809MOL0     C 6674   7.267   3.940   8.422 -0.4299  0.3034  0.0389
  809MOL0     C 6675   7.258   3.805   8.406  0.4248  0.1056  0.7297
  809MOL0     C 6676   7.125   3.724   8.394  1.1849  0.0057 -0.7086
  809MOL0     C 6677   7.082   3.699   8.248 -0.4773 -0.2047  0.4885
  809MOL0     C 6678   7.041   3.830   8.167 -0.0342  0.2537 -0.2846
  809MOL0     C 6679   7.012   3.790   8.023 -0.7283 -0.2582  0.4020
  809MOL0     O 6680   7.125   3.727   7.956 -0.3193  0.6751 -0.2624
  809MOL0     C 6681   7.229   3.795   7.901  0.1133  0.6467 -0.1835
  809MOL0     C 6682   7.233   3.935   7.902  0.0455  0.6946 -0.3254
  809MOL0     C 6683   7.343   3.997   7.851 -0.0400 -0.2829  0.1086
  809MOL0     C 6684   7.448   3.926   7.795 -0.1280 -0.3154  0.1105
  809MOL0     C 6685   7.566   3.988   7.723  0.2450  1.1639 -0.8970
  809MOL0     O 6686   7.547   4.121   7.693  0.5668  0.5651 -0.2666
  809MOL0     C 6687   7.635   4.188   7.604  0.4420  0.9057 -0.6652
  809MOL0     C 6688   7.776   4.166   7.594  0.5759  0.6983 -0.8713
  809MOL0     C 6689   7.846   4.227   7.496 -0.1408  0.5031 -0.3646
  809MOL0     C 6690   7.785   4.310   7.401  0.0914 -0.4144  0.1654
  809MOL0     O 6691   7.848   4.358   7.284 -0.1733 -0.4538  0.0722
  809MOL0     C 6692   7.991   4.341   7.275  0.5583  0.0850 -0.4435
  809MOL0     C 6693   8.044   4.431   7.161 -0.4695  0.1013  0.8521
  809MOL0     C 6694   8.174   4.378   7.103 -0.0303  0.3076 -0.2353
  809MOL0     C 6695   8.223   4.431   6.967  0.1990  0.2363 -0.2269
  809MOL0     C 6696   8.241   4.582   6.949 -0.6867 -0.5841  0.2699
  809MOL0     C 6697   8.336   4.665   7.033  0.0221  0.3291 -0.3065
  809MOL0     C 6698   8.482   4.607   7.032  0.5872  0.1720  0.7797
  809MOL0     C 6699   8.589   4.681   7.101 -0.9019 -0.3670 -0.1083
  809MOL0    Cl 6700   8.631   4.824   6.993  0.0030 -0.1283 -0.1342
  809MOL0     C 6701   7.655   4.334   7.414  0.6139  0.0706 -0.0985
  809MOL0     C 6702   7.573   4.288   7.525 -0.8638  0.1138 -0.7888
  809MOL0     O 6703   7.664   3.922   7.694 -0.0804  0.4041  0.3256
  809MOL0     C 6704   7.437   3.791   7.798 -0.6357  0.8360 -0.2578
  809MOL0     C 6705   7.330   3.722   7.849  0.0315 -0.2369  0.2282
  809MOL0     N 6706   7.376   3.742   8.410 -0.4372 -0.4418 -0.3562
  809MOL0     N 6707   7.461   3.835   8.428  0.0804  0.9811 -0.0367
  809MOL0     C 6708   7.952   4.781   8.055 -0.1557 -0.5392 -0.0667
  809MOL0     C 6709   7.986   4.921   8.085  0.2288  0.2234  1.1919
  809MOL0     C 6710   8.200   5.265   8.263  0.0865  0.3206 -0.3454
  809MOL0     C 6711   8.205   5.318   8.395 -0.2866 -0.6928  0.0165
  809MOL0     C 6712   8.279   5.434   8.418  0.2746  0.7708  0.1088
  809MOL0     C 6713   8.346   5.498   8.314  0.3821  0.5401  0.4228
  809MOL0     O 6714   8.424   5.611   8.349  0.0458  0.4595  0.3086
  809MOL0     C 6715   8.503   5.677   8.249 -0.6860 -0.6753  0.7856
  809MOL0     C 6716   8.636   5.620   8.206  0.8714 -0.7260  0.7250
  809MOL0     C 6717   8.723   5.730   8.140  0.4657  0.2115 -0.1911
  809MOL0     C 6718   8.853   5.662   8.105 -0.0972 -0.3069  0.2931
  809MOL0     C 6719   8.919   5.622   8.223 -0.2227  0.2096  0.0617
  809MOL0     C 6720   8.959   5.586   8.331  0.2287 -0.3815  0.8151
  809MOL0     C 6721   8.337   5.455   8.186  0.0528  0.0260 -0.1591
  809MOL0     C 6722   8.261   5.341   8.156 -0.1682  0.3002  0.0615
  809MOL0     H 6723   8.319   4.899   8.064 -0.2337 -0.2321 -2.0595
  809MOL0     H 6724   8.262   4.651   8.026  1.2665  0.4606 -1.9649
  809MOL0     H 6725   7.826   4.550   7.968 -0.9044 -0.6078 -0.4565
  809MOL0     H 6726   7.891   4.460   8.111  2.4090  0.2279  0.2176
  809MOL0     H 6727   7.979   4.284   7.974 -0.5634 -1.6155 -0.2114
  809MOL0     H 6728   7.932   4.376   7.829  0.4552 -1.7645 -0.3888
  809MOL0     H 6729   7.783   4.195   7.870  0.0790 -0.4529  1.7583
  809MOL0     H 6730   7.698   4.349   7.916 -0.5401 -0.6672  0.2521
  809MOL0     H 6731   7.850   4.186   8.120 -0.9963  1.1241  2.4825
  809MOL0     H 6732   7.723   4.306   8.140 -1.8214  0.2045 -1.5689
  809MOL0     H 6733   7.714   4.025   8.027  0.0907  0.5315 -0.7982
  809MOL0     H 6734   7.565   4.117   8.015  1.4180 -1.1732 -2.3377
  809MOL0     H 6735   7.687   4.058   8.286 -0.5183 -0.3328  0.3328
  809MOL0     H 6736   7.576   3.950   8.182  1.3165 -1.0367 -0.8233
  809MOL0     H 6737   7.493   4.239   8.269 -1.4345 -0.9123  1.8872
  809MOL0     H 6738   7.387   4.118   8.216 -1.2432 -0.7965  0.6182
  809MOL0     H 6739   7.399   4.159   8.461 -2.7527 -1.5770 -1.0885
  809MOL0     H 6740   7.562   4.091   8.471  0.1040  1.8378  0.8574
  809MOL0     H 6741   7.188   4.010   8.449  1.2523  2.2458  0.1865
  809MOL0     H 6742   7.054   3.783   8.453  0.8607  0.5256 -1.6114
  809MOL0     H 6743   7.132   3.628   8.447 -1.6354 -0.2206 -0.5915
  809MOL0     H 6744   6.999   3.628   8.243 -2.1303  1.5292  1.4978
  809MOL0     H 6745   7.166   3.655   8.194 -1.7866  0.5600 -2.3810
  809MOL0     H 6746   6.952   3.872   8.214  0.3545 -0.3425  1.0330
  809MOL0     H 6747   7.125   3.901   8.175  1.1172 -1.0868 -0.1116
  809MOL0     H 6748   6.974   3.878   7.971 -0.2375  0.6831  1.5821
  809MOL0     H 6749   6.927   3.721   8.018 -0.6898 -0.2135 -1.1730
  809MOL0     H 6750   7.159   3.983   7.965  2.2426  3.2589  0.4538
  809MOL0     H 6751   7.356   4.105   7.849 -0.1518 -0.2737 -0.0544
  809MOL0     H 6752   7.822   4.093   7.660  0.5941  1.7486  0.3177
  809MOL0     H 6753   7.953   4.210   7.491 -0.2846 -0.9135  0.7790
  809MOL0     H 6754   8.024   4.238   7.263  2.2822  0.5706 -0.2164
  809MOL0     H 6755   8.034   4.375   7.370 -2.1776  1.0026  0.5582
  809MOL0     H 6756   8.061   4.534   7.194  0.8994  0.1652 -0.0221
  809MOL0     H 6757   7.974   4.429   7.077  0.4383 -2.8224  0.0465
  809MOL0     H 6758   8.162   4.271   7.084  1.0639  0.0986  0.1837
  809MOL0     H 6759   8.257   4.396   7.172 -0.4745  1.5213 -0.0005
  809MOL0     H 6760   8.316   4.376   6.952 -0.2026  0.1856 -3.1423
  809MOL0     H 6761   8.148   4.405   6.892 -0.4482  1.0583  0.1160
  809MOL0     H 6762   8.144   4.633   6.953 -0.2731  0.1313  2.0006
  809MOL0     H 6763   8.268   4.600   6.844 -0.7799  1.3024  0.5217
  809MOL0     H 6764   8.309   4.655   7.139 -4.5203  2.2635 -1.0694
  809MOL0     H 6765   8.332   4.770   7.006  0.7908  0.6950  0.8942
  809MOL0     H 6766   8.473   4.509   7.079  1.8750 -0.8431 -0.9844
  809MOL0     H 6767   8.515   4.586   6.930 -2.5331 -3.9213  0.3456
  809MOL0     H 6768   8.676   4.617   7.115 -0.2386  0.2470 -1.2692
  809MOL0     H 6769   8.560   4.712   7.202 -1.4111 -1.9019  0.2506
  809MOL0     H 6770   7.620   4.388   7.327 -0.0317 -1.2384 -0.6742
  809MOL0     H 6771   7.467   4.301   7.544 -0.8421 -1.7792  0.9589
  809MOL0     H 6772   7.510   3.723   7.756  0.9826  1.3332  1.5638
  809MOL0     H 6773   7.322   3.614   7.844  0.8020 -0.2453 -1.4709
  809MOL0     H 6774   7.844   4.771   8.059 -0.3274  1.1561  0.0589
  809MOL0     H 6775   7.912   4.996   8.110  2.1491  2.6967 -0.1117
  809MOL0     H 6776   8.157   5.260   8.473 -0.2673  1.1603  1.4721
  809MOL0     H 6777   8.266   5.481   8.515 -3.1971  2.9258 -1.1983
  809MOL0     H 6778   8.526   5.778   8.287  1.8365 -0.6686 -0.5423
  809MOL0     H 6779   8.446   5.695   8.158  1.3218 -0.5526 -0.5291
  809MOL0     H 6780   8.683   5.585   8.298 -2.4167 -2.3405  1.9652
  809MOL0     H 6781   8.631   5.529   8.145  1.5412 -0.9287  0.9697
  809MOL0     H 6782   8.749   5.822   8.194 -0.1634 -0.1288  0.7317
  809MOL0     H 6783   8.674   5.757   8.046 -2.7957  0.3383  1.3955
  809MOL0     H 6784   8.824   5.578   8.041 -0.6935  1.9077 -2.5275
  809MOL0     H 6785   8.927   5.718   8.047 -0.8628  0.1652 -0.2313
  809MOL0     H 6786   8.985   5.559   8.431 -0.2141 -0.5821  0.8798
  809MOL0     H 6787   8.374   5.496   8.092 -0.7554 -1.1842 -1.0508
  809MOL0     H 6788   8.242   5.307   8.054 -0.8414  1.6031 -0.2703
  810MOL0     O 6789   4.728   7.649   7.530 -0.4990 -0.2978  0.2024
  810MOL0     C 6790   4.747   7.683   7.645  0.6609 -0.4953  0.4217
  810MOL0     O 6791   4.652   7.678   7.748 -0.1848  0.4217 -0.6805
  810MOL0     C 6792   4.531   7.614   7.730  0.2676  1.1431 -0.1399
  810MOL0     C 6793   4.479   7.539   7.839 -0.7947 -0.6484 -0.6692
  810MOL0     C 6794   4.358   7.472   7.827 -0.1382  0.0683  0.7257
  810MOL0     C 6795   4.272   7.501   7.712  0.3106 -0.2573 -0.2795
  810MOL0     O 6796   4.152   7.434   7.710  1.8169  0.1441 -0.0085
  810MOL0     C 6797   4.070   7.465   7.593 -0.5642 -0.6333  0.3615
  810MOL0     C 6798   3.952   7.384   7.577 -0.3349  0.4805  0.5093
  810MOL0     C 6799   3.877   7.394   7.445 -0.9367  0.2268 -0.2210
  810MOL0     C 6800   3.741   7.329   7.446  0.9887  0.0728 -0.3634
  810MOL0     C 6801   3.647   7.416   7.528  0.0541 -0.2699  0.4425
  810MOL0     C 6802   3.514   7.343   7.542  0.3722  0.0140 -0.1870
  810MOL0     C 6803   3.416   7.424   7.623  0.6369  0.4503  0.1391
  810MOL0     C 6804   3.293   7.349   7.648  0.1770  0.6212  1.0068
  810MOL0     N 6805   3.217   7.398   7.761  0.5298 -0.4799  0.2228
  810MOL0     C 6806   3.133   7.510   7.769 -0.2265 -0.0933  0.7654
  810MOL0     C 6807   3.106   7.522   7.905  0.0081 -0.2950  0.1525
  810MOL0     C 6808   3.006   7.622   7.968  0.0568  0.9781  0.4825
  810MOL0     C 6809   2.945   7.573   8.098 -0.2204  0.1368 -0.2180
  810MOL0     C 6810   2.830   7.462   8.085  0.5020  0.5648 -0.0417
  810MOL0     C 6811   2.702   7.503   8.031  0.8344 -0.3415  0.0719
  810MOL0     O 6812   2.631   7.588   8.115  0.0742  0.7613  0.1037
  810MOL0     C 6813   2.508   7.622   8.078 -0.3684 -0.1862  0.8067
  810MOL0     C 6814   2.441   7.571   7.961 -0.3089 -0.0244 -0.3346
  810MOL0     C 6815   2.311   7.618   7.932 -1.1249  0.9782 -0.4858
  810MOL0     C 6816   2.241   7.703   8.013  0.6651  0.7840  0.7612
  810MOL0     C 6817   2.097   7.734   7.987 -0.4172 -0.3094 -0.0932
  810MOL0     O 6818   2.047   7.698   7.859 -0.4453 -0.1323  0.3881
  810MOL0     C 6819   1.922   7.741   7.837 -0.8474 -1.1086 -0.0873
  810MOL0     C 6820   1.883   7.877   7.823 -0.5273 -0.4375 -0.3486
  810MOL0     C 6821   1.745   7.905   7.829  0.0474  0.3170  0.4309
  810MOL0     C 6822   1.647   7.810   7.838 -0.4281  0.3596 -0.0148
  810MOL0     O 6823   1.520   7.842   7.849 -0.8569  0.3176  0.4252
  810MOL0     C 6824   1.437   7.751   7.771 -0.0955 -0.1601 -0.1616
  810MOL0     C 6825   1.334   7.861   7.720  0.2622  0.4531 -0.5569
  810MOL0     C 6826   1.241   7.800   7.620  0.4361  0.0101  0.3500
  810MOL0     C 6827   1.119   7.902   7.608  0.0108  0.5077  0.4484
  810MOL0     C 6828   1.018   7.838   7.512 -0.0601 -0.1183 -0.2892
  810MOL0     C 6829   0.942   7.708   7.551  0.7909  0.2737  0.4317
  810MOL0     C 6830   0.912   7.682   7.705  0.5069 -1.2171  0.1881
  810MOL0     C 6831   0.832   7.551   7.717  0.0806  0.5660  0.2008
  810MOL0    Cl 6832   0.918   7.414   7.641 -0.0944  0.1091  0.5323
  810MOL0     C 6833   1.691   7.680   7.847  0.5845  0.2962  0.0500
  810MOL0     C 6834   1.828   7.652   7.852  0.6343 -0.6620  0.0859
  810MOL0     O 6835   2.035   7.792   8.078 -0.1786  0.5772  0.3741
  810MOL0     C 6836   2.300   7.734   8.135  0.6943 -0.2727 -0.1994
  810MOL0     C 6837   2.428   7.700   8.162  0.1768 -0.2749 -0.7988
  810MOL0     N 6838   3.172   7.419   7.968  0.1576 -0.0953  0.3018
  810MOL0     N 6839   3.231   7.343   7.886 -0.1364 -0.2493  0.3365
  810MOL0     C 6840   4.320   7.588   7.616  0.0361  0.4038  0.3504
  810MOL0     C 6841   4.451   7.634   7.617 -0.4846 -0.5922  0.0920
  810MOL0     C 6842   4.884   7.736   7.679  0.5364 -0.2628  0.7832
  810MOL0     C 6843   4.922   7.757   7.816  0.7263 -0.3334  0.6089
  810MOL0     C 6844   5.046   7.807   7.839  0.3143  0.1921 -0.3701
  810MOL0     C 6845   5.146   7.829   7.742  0.0949 -0.3456 -0.2815
  810MOL0     O 6846   5.266   7.878   7.781  0.1913  0.5059  0.7142
  810MOL0     C 6847   5.365   7.890   7.673 -0.1662 -0.0304  0.1089
  810MOL0     C 6848   5.479   7.960   7.740  0.5685  1.5082 -0.2378
  810MOL0     C 6849   5.536   7.890   7.861 -0.0694 -0.1673 -0.1280
  810MOL0     C 6850   5.667   7.942   7.918  0.2321  0.1391  0.5599
  810MOL0     C 6851   5.785   7.898   7.834  0.2122  0.4081 -1.1383
  810MOL0     C 6852   5.884   7.857   7.786  0.7086  0.4058  0.6504
  810MOL0     C 6853   5.096   7.823   7.606 -0.3383 -0.1776  0.2789
  810MOL0     C 6854   4.972   7.776   7.572  0.5408  0.0305  0.0984
  810MOL0     H 6855   4.528   7.498   7.927 -3.2772 -2.8164 -0.1882
  810MOL0     H 6856   4.312   7.411   7.905 -2.4617  0.3052 -0.3827
  810MOL0     H 6857   4.137   7.467   7.507 -1.5561  1.9049 -0.4416
  810MOL0     H 6858   4.044   7.571   7.601  2.4365  0.4157 -1.8323
  810MOL0     H 6859   3.891   7.406   7.665 -0.9677  1.0368 -0.0577
  810MOL0     H 6860   3.985   7.279   7.578 -0.5261  0.4147  0.0977
  810MOL0     H 6861   3.937   7.347   7.367  0.6631 -1.2039  1.7571
  810MOL0     H 6862   3.862   7.501   7.428 -2.1365  0.4079  1.7324
  810MOL0     H 6863   3.700   7.302   7.348  2.1159 -2.7782 -0.1509
  810MOL0     H 6864   3.761   7.234   7.497  2.0384  1.1444  1.3392
  810MOL0     H 6865   3.632   7.507   7.468 -0.7305 -0.4986  0.2714
  810MOL0     H 6866   3.685   7.439   7.628 -0.4084 -1.7193  0.9718
  810MOL0     H 6867   3.530   7.251   7.600  1.2498  0.0837 -0.3013
  810MOL0     H 6868   3.472   7.327   7.442  2.3310  3.7966 -1.8238
  810MOL0     H 6869   3.472   7.441   7.716 -0.0755  2.8148  0.1935
  810MOL0     H 6870   3.409   7.521   7.575  0.4939 -0.3651 -1.5625
  810MOL0     H 6871   3.322   7.248   7.679  0.6184  0.0868 -1.0119
  810MOL0     H 6872   3.233   7.349   7.557  1.4619 -1.8453  0.0816
  810MOL0     H 6873   3.093   7.578   7.694 -2.7620 -1.6275  0.5873
  810MOL0     H 6874   2.923   7.644   7.900  1.8751 -0.9763 -2.6020
  810MOL0     H 6875   3.062   7.713   7.990  0.3068  0.5458  1.7771
  810MOL0     H 6876   2.898   7.652   8.157  1.2702 -0.5565  2.0000
  810MOL0     H 6877   3.025   7.535   8.163  1.6691  2.8713 -0.7645
  810MOL0     H 6878   2.859   7.376   8.025  0.6511 -1.1417  2.3248
  810MOL0     H 6879   2.807   7.417   8.182 -2.8160 -0.0603 -0.9660
  810MOL0     H 6880   2.640   7.414   8.018 -1.0504  1.0528 -0.9063
  810MOL0     H 6881   2.719   7.564   7.942 -1.1194 -0.8870 -0.7113
  810MOL0     H 6882   2.493   7.509   7.889 -1.2148 -2.1668  0.7843
  810MOL0     H 6883   2.269   7.580   7.840 -1.3327  1.6217 -0.6671
  810MOL0     H 6884   1.947   7.964   7.828 -1.4738  0.2120  3.1673
  810MOL0     H 6885   1.722   8.011   7.820 -2.4143 -0.3111 -2.4484
  810MOL0     H 6886   1.387   7.677   7.834  0.8975 -1.8900 -1.3409
  810MOL0     H 6887   1.498   7.723   7.685  2.5758  1.2038  1.1567
  810MOL0     H 6888   1.389   7.941   7.670  1.2872  0.8327  1.0917
  810MOL0     H 6889   1.274   7.890   7.807 -2.0774 -0.5840 -1.7326
  810MOL0     H 6890   1.207   7.700   7.648  3.4960 -1.2573 -0.0159
  810MOL0     H 6891   1.295   7.790   7.525  1.9819  0.2140  1.1810
  810MOL0     H 6892   1.072   7.931   7.702  0.1366  1.4703  0.2318
  810MOL0     H 6893   1.157   7.989   7.553  3.2287 -1.7646 -1.2311
  810MOL0     H 6894   1.068   7.815   7.417  2.3833  0.5749  0.7722
  810MOL0     H 6895   0.944   7.918   7.504 -1.0981 -0.9182  0.8107
  810MOL0     H 6896   1.001   7.620   7.520 -0.9303 -1.8612  2.7781
  810MOL0     H 6897   0.845   7.711   7.501 -0.9696  0.2991  3.5869
  810MOL0     H 6898   1.005   7.672   7.761  0.8594 -1.8749 -0.4909
  810MOL0     H 6899   0.861   7.765   7.755  2.5387  0.6041 -0.5718
  810MOL0     H 6900   0.730   7.561   7.679 -0.3318 -0.4412  1.0146
  810MOL0     H 6901   0.803   7.524   7.819 -2.1985 -0.1350 -0.5922
  810MOL0     H 6902   1.627   7.592   7.851  1.5334 -0.4269 -0.3669
  810MOL0     H 6903   1.848   7.546   7.862  1.3431 -0.4831  0.6029
  810MOL0     H 6904   2.253   7.799   8.208 -2.5133 -0.8234 -1.5892
  810MOL0     H 6905   2.476   7.737   8.252  0.3743 -2.2376 -0.0376
  810MOL0     H 6906   4.265   7.631   7.532 -0.5764  1.0918  1.0825
  810MOL0     H 6907   4.490   7.695   7.536  1.0709 -1.1752  0.3808
  810MOL0     H 6908   4.858   7.712   7.891 -1.2073 -2.3822 -2.0809
  810MOL0     H 6909   5.069   7.823   7.944  0.0303 -2.1478  0.1206
  810MOL0     H 6910   5.326   7.953   7.592  2.2834  2.0779  0.4286
  810MOL0     H 6911   5.398   7.795   7.631  2.0041  1.6781 -2.4093
  810MOL0     H 6912   5.566   7.956   7.673 -0.4006 -0.7007 -1.4481
  810MOL0     H 6913   5.455   8.066   7.757 -1.0176  1.0233  0.7016
  810MOL0     H 6914   5.550   7.783   7.843 -1.1884 -0.2607 -0.4999
  810MOL0     H 6915   5.456   7.897   7.935  0.6793  1.4210  0.5851
  810MOL0     H 6916   5.666   8.050   7.936  3.1518  0.3478 -0.0185
  810MOL0     H 6917   5.675   7.888   8.013  0.0211  0.1450  0.5808
  810MOL0     H 6918   5.975   7.821   7.743 -0.5756  0.0631 -2.0199
  810MOL0     H 6919   5.153   7.836   7.515 -2.1222 -4.0366 -1.6253
  810MOL0     H 6920   4.949   7.759   7.467  2.9653 -0.3499 -0.4333
  811MOL0     O 6921   5.011   2.213   3.268 -0.1210  0.3380  0.2867
  811MOL0     C 6922   5.017   2.182   3.393 -0.1021  0.2956  0.5686
  811MOL0     O 6923   4.971   2.255   3.492 -0.1530  0.0799 -0.7555
  811MOL0     C 6924   4.928   2.389   3.490  0.1467  0.3833  0.5451
  811MOL0     C 6925   4.891   2.435   3.618  0.2185 -0.0675 -0.0917
  811MOL0     C 6926   4.851   2.568   3.630 -0.4344 -0.1997 -0.2965
  811MOL0     C 6927   4.843   2.651   3.521 -0.4799 -0.8102  0.4135
  811MOL0     O 6928   4.798   2.780   3.521 -0.6166  0.3147  0.2413
  811MOL0     C 6929   4.705   2.819   3.625 -0.8661 -0.3468 -0.5972
  811MOL0     C 6930   4.659   2.963   3.603  0.1920 -0.1607 -0.3240
  811MOL0     C 6931   4.523   2.989   3.678  0.0894  0.1685  0.1725
  811MOL0     C 6932   4.475   3.134   3.679 -0.7370 -0.0422  0.3171
  811MOL0     C 6933   4.357   3.156   3.777  0.5033  0.0842  0.0586
  811MOL0     C 6934   4.318   3.307   3.752  0.6445  0.1981  0.4355
  811MOL0     C 6935   4.242   3.367   3.871  0.4391 -0.4942 -0.6942
  811MOL0     C 6936   4.114   3.285   3.917  0.3431 -0.1557  0.0951
  811MOL0     N 6937   4.001   3.288   3.814 -0.4971  0.3447 -0.1419
  811MOL0     C 6938   3.950   3.168   3.767  1.0905 -1.3337 -0.4940
  811MOL0     C 6939   3.853   3.199   3.686 -0.0618  0.7365 -1.0228
  811MOL0     C 6940   3.746   3.103   3.636  0.9271  0.4603 -0.1797
  811MOL0     C 6941   3.657   3.070   3.757  0.4611 -0.4357 -0.2852
  811MOL0     C 6942   3.588   3.188   3.835  0.0851 -0.1218 -0.8957
  811MOL0     C 6943   3.516   3.123   3.951 -0.6879  0.3618  0.1269
  811MOL0     O 6944   3.394   3.063   3.909  0.2213  0.2879 -0.6857
  811MOL0     C 6945   3.335   2.973   3.991  0.0647 -0.6009 -0.4569
  811MOL0     C 6946   3.223   2.911   3.931 -0.6595 -0.4033 -0.4023
  811MOL0     C 6947   3.139   2.828   4.004 -0.0470  0.3660  0.4095
  811MOL0     C 6948   3.177   2.798   4.138  0.5512  0.1221  0.2261
  811MOL0     C 6949   3.083   2.731   4.230 -0.6374  0.0362 -0.4993
  811MOL0     O 6950   3.120   2.733   4.369  0.4744  0.0702  0.2874
  811MOL0     C 6951   3.023   2.680   4.453 -0.1127 -0.5518  0.4599
  811MOL0     C 6952   2.941   2.768   4.518 -0.3752  0.0014  0.2517
  811MOL0     C 6953   2.832   2.719   4.594  0.1241  0.7811  0.8652
  811MOL0     C 6954   2.807   2.586   4.600 -0.2563  0.0257  0.0481
  811MOL0     O 6955   2.699   2.533   4.674 -0.5065 -0.0190 -0.0440
  811MOL0     C 6956   2.580   2.609   4.690  0.5158 -0.3630  0.0497
  811MOL0     C 6957   2.474   2.532   4.773 -0.6736 -0.6630 -0.4529
  811MOL0     C 6958   2.401   2.628   4.866  0.4612  0.0647  0.3438
  811MOL0     C 6959   2.281   2.568   4.931 -0.4301  0.1221 -0.9055
  811MOL0     C 6960   2.168   2.556   4.844  0.3713  0.7563  0.4889
  811MOL0     C 6961   2.059   2.475   4.919 -0.4022  0.7564  0.7588
  811MOL0     C 6962   1.969   2.388   4.824 -0.3559 -0.5426 -1.1238
  811MOL0     C 6963   1.861   2.316   4.901 -0.9841 -0.3172  0.1991
  811MOL0    Cl 6964   1.734   2.435   4.961 -0.0785  0.3372  0.2432
  811MOL0     C 6965   2.896   2.494   4.539  0.1149 -0.4409 -1.0230
  811MOL0     C 6966   3.010   2.548   4.476  0.8153  0.3466  0.3168
  811MOL0     O 6967   2.992   2.666   4.185  0.1839 -0.6571 -0.6344
  811MOL0     C 6968   3.293   2.853   4.198  0.2786 -1.0659 -0.3368
  811MOL0     C 6969   3.372   2.945   4.126  0.5483  0.0833  0.4498
  811MOL0     N 6970   3.856   3.334   3.659 -0.5045 -0.8238 -0.4005
  811MOL0     N 6971   3.945   3.385   3.740  0.0946  0.1714 -0.0887
  811MOL0     C 6972   4.875   2.600   3.390 -0.5324  0.3952 -0.1944
  811MOL0     C 6973   4.922   2.464   3.375 -0.0760 -0.0966  0.0888
  811MOL0     C 6974   5.083   2.049   3.421  0.2625  0.9520 -0.0742
  811MOL0     C 6975   5.108   2.009   3.554 -0.5199  0.3763 -0.4408
  811MOL0     C 6976   5.152   1.878   3.589  0.4879  0.5519  0.3789
  811MOL0     C 6977   5.189   1.781   3.487  0.5097  0.0630 -0.1063
  811MOL0     O 6978   5.257   1.667   3.521  0.5148 -0.5621  0.7305
  811MOL0     C 6979   5.389   1.653   3.478 -0.6025  0.3248  0.2387
  811MOL0     C 6980   5.482   1.755   3.547 -0.8916 -0.1013  0.0810
  811MOL0     C 6981   5.630   1.712   3.543  0.1101  0.4340  0.4425
  811MOL0     C 6982   5.706   1.793   3.655 -0.1572 -0.5105  0.4051
  811MOL0     C 6983   5.846   1.743   3.687 -0.0767 -0.2502 -0.3659
  811MOL0     C 6984   5.957   1.701   3.716 -0.1159 -0.0814 -0.1477
  811MOL0     C 6985   5.168   1.824   3.356 -0.5134 -0.1852  0.4994
  811MOL0     C 6986   5.115   1.948   3.327  0.7270 -0.0981  0.2840
  811MOL0     H 6987   4.899   2.363   3.699  1.6147  1.3851  1.1400
  811MOL0     H 6988   4.828   2.608   3.729  1.3500  2.3629 -0.8242
  811MOL0     H 6989   4.753   2.831   3.722 -0.5303  0.7149 -0.8692
  811MOL0     H 6990   4.625   2.746   3.634  1.0042 -2.3407  0.6248
  811MOL0     H 6991   4.648   2.959   3.494  2.7996 -1.9946 -0.6049
  811MOL0     H 6992   4.727   3.046   3.626 -0.4434 -0.0855  1.4919
  811MOL0     H 6993   4.543   2.952   3.779  0.6256 -2.1503 -0.7112
  811MOL0     H 6994   4.443   2.925   3.639  1.3976 -0.6895 -1.2112
  811MOL0     H 6995   4.561   3.199   3.695  0.0731 -0.6726 -1.3008
  811MOL0     H 6996   4.453   3.161   3.575 -0.6203  1.7629  0.7211
  811MOL0     H 6997   4.402   3.143   3.876  0.2004 -1.7373 -0.0179
  811MOL0     H 6998   4.275   3.085   3.765  1.1660 -1.1250  2.1569
  811MOL0     H 6999   4.258   3.311   3.661 -1.4060  0.2118  1.7321
  811MOL0     H 7000   4.413   3.362   3.741  1.5469 -1.2997  0.5084
  811MOL0     H 7001   4.316   3.372   3.952 -1.5771 -0.3224  1.2413
  811MOL0     H 7002   4.212   3.466   3.836  2.1775 -0.6231 -2.7644
  811MOL0     H 7003   4.082   3.326   4.014  1.1563 -0.8553  0.6786
  811MOL0     H 7004   4.150   3.183   3.935 -1.1817 -0.5887  0.9797
  811MOL0     H 7005   3.963   3.066   3.802 -1.0127 -1.3518  0.4235
  811MOL0     H 7006   3.788   3.013   3.590  0.1623  0.6272 -1.2543
  811MOL0     H 7007   3.693   3.163   3.561  0.3850  2.8349  1.9374
  811MOL0     H 7008   3.726   3.028   3.831 -0.4101 -0.9493  0.2520
  811MOL0     H 7009   3.577   3.001   3.726  1.0416 -0.5564 -1.5749
  811MOL0     H 7010   3.664   3.255   3.875 -1.0324  0.8558 -0.3123
  811MOL0     H 7011   3.521   3.250   3.774 -0.7330 -0.8577 -0.7589
  811MOL0     H 7012   3.497   3.187   4.038 -2.1505 -2.2677  1.8749
  811MOL0     H 7013   3.586   3.050   3.991 -1.0318  2.0293  4.3430
  811MOL0     H 7014   3.208   2.928   3.824  0.7171 -2.9114 -1.0698
  811MOL0     H 7015   3.058   2.781   3.949  0.5640  1.4461 -1.5210
  811MOL0     H 7016   2.946   2.876   4.511 -1.4362 -0.0419 -2.1598
  811MOL0     H 7017   2.749   2.779   4.632 -2.0573 -1.5172  0.0216
  811MOL0     H 7018   2.540   2.641   4.594 -1.9667 -0.0662  1.0858
  811MOL0     H 7019   2.595   2.704   4.743 -1.5965  0.6154 -0.9933
  811MOL0     H 7020   2.526   2.461   4.838  1.1274  0.7796 -0.2304
  811MOL0     H 7021   2.409   2.471   4.709 -2.0616 -2.0518  2.1236
  811MOL0     H 7022   2.363   2.710   4.805 -1.6681 -0.7003  0.5703
  811MOL0     H 7023   2.472   2.672   4.937 -2.1226  3.1873  1.2624
  811MOL0     H 7024   2.321   2.470   4.961 -0.8358 -0.1216 -1.1501
  811MOL0     H 7025   2.257   2.629   5.019  2.7764  0.2885 -0.0108
  811MOL0     H 7026   2.200   2.508   4.751  0.6748  0.1876  0.8817
  811MOL0     H 7027   2.125   2.654   4.822  2.0954  1.6801  1.0325
  811MOL0     H 7028   1.992   2.540   4.975 -0.5902  2.5716 -1.4448
  811MOL0     H 7029   2.111   2.406   4.987  1.0153 -0.2228 -1.2096
  811MOL0     H 7030   1.925   2.459   4.754  1.1118  2.6044  0.9133
  811MOL0     H 7031   2.027   2.318   4.763  0.0744 -2.2566  1.1225
  811MOL0     H 7032   1.904   2.265   4.988 -1.7289  2.3536  2.2749
  811MOL0     H 7033   1.815   2.235   4.843 -3.1736 -0.2420  1.6790
  811MOL0     H 7034   2.877   2.388   4.554 -1.6906  0.1023  1.1384
  811MOL0     H 7035   3.065   2.474   4.419 -2.0005  0.3059 -2.6403
  811MOL0     H 7036   3.323   2.833   4.300  0.6074 -1.0040 -0.4212
  811MOL0     H 7037   3.444   3.003   4.184 -0.3871 -0.1250  1.8532
  811MOL0     H 7038   4.860   2.655   3.297  0.9209 -0.8498 -1.2145
  811MOL0     H 7039   4.945   2.432   3.274 -1.6900  0.8379 -0.6267
  811MOL0     H 7040   5.076   2.080   3.629  1.4834  3.0330 -1.9116
  811MOL0     H 7041   5.155   1.848   3.694  0.2649 -1.8347 -0.2274
  811MOL0     H 7042   5.402   1.661   3.370  1.3030  0.4795  0.4581
  811MOL0     H 7043   5.413   1.551   3.510 -0.4911 -0.4615 -2.1330
  811MOL0     H 7044   5.477   1.848   3.490 -1.3269 -1.0960 -1.6096
  811MOL0     H 7045   5.452   1.765   3.651  0.3446  0.4498  0.4000
  811MOL0     H 7046   5.680   1.728   3.447 -2.4499 -0.2316 -1.1200
  811MOL0     H 7047   5.620   1.607   3.570 -1.1969  1.3554  4.1203
  811MOL0     H 7048   5.700   1.898   3.625 -0.6343  0.0573  2.3526
  811MOL0     H 7049   5.652   1.792   3.749  0.9252  1.2683  1.0966
  811MOL0     H 7050   6.056   1.668   3.737 -0.0939 -0.6923 -1.1774
  811MOL0     H 7051   5.191   1.750   3.280 -2.0586 -2.0028  1.7138
  811MOL0     H 7052   5.094   1.979   3.225 -0.2230 -1.2027  0.1269
  812MOL0     O 7053   9.590   9.108   2.646  0.8017 -0.0314 -0.6362
  812MOL0     C 7054   9.578   9.106   2.524  0.0794 -0.2055  0.2351
  812MOL0     O 7055   9.457   9.114   2.447  0.3630 -0.5771 -0.4363
  812MOL0     C 7056   9.347   9.113   2.529 -0.0617  0.1583  0.7219
  812MOL0     C 7057   9.259   9.216   2.529  0.0165  0.1259 -0.3638
  812MOL0     C 7058   9.142   9.204   2.609 -0.1278  0.4962  0.6824
  812MOL0     C 7059   9.114   9.090   2.683 -0.0599  0.1499 -0.1391
  812MOL0     O 7060   8.982   9.087   2.731 -0.1123  0.5659 -0.3207
  812MOL0     C 7061   8.928   8.971   2.795  0.2417 -0.2012  0.6369
  812MOL0     C 7062   8.769   8.982   2.804  0.2600  0.1225 -0.5062
  812MOL0     C 7063   8.713   9.034   2.675 -0.1485 -0.5611  1.4019
  812MOL0     C 7064   8.558   9.040   2.663 -0.1862  1.1080  0.8350
  812MOL0     C 7065   8.502   9.173   2.620  0.3509 -0.0399  0.3343
  812MOL0     C 7066   8.477   9.272   2.738 -0.7092  0.6981 -0.2493
  812MOL0     C 7067   8.373   9.371   2.702 -0.3573 -0.0945 -0.4802
  812MOL0     C 7068   8.229   9.331   2.718 -0.4470  0.1908 -0.6707
  812MOL0     N 7069   8.135   9.436   2.693 -1.3579 -0.6529  0.6250
  812MOL0     C 7070   8.094   9.528   2.788 -0.3289 -0.0466  0.5134
  812MOL0     C 7071   8.045   9.643   2.723  0.2586  0.3036 -0.8992
  812MOL0     C 7072   8.008   9.770   2.787  0.2464 -0.2470  0.4413
  812MOL0     C 7073   7.857   9.812   2.798  0.1140 -0.1590  0.1354
  812MOL0     C 7074   7.766   9.714   2.877 -0.9577  0.1512 -0.3356
  812MOL0     C 7075   7.624   9.734   2.849  1.0822  0.3009  0.6964
  812MOL0     O 7076   7.591   9.853   2.916  0.0333  0.3565 -0.0493
  812MOL0     C 7077   7.476   9.908   2.881  0.4797 -0.1534  0.0022
  812MOL0     C 7078   7.456  10.037   2.930 -0.5311  0.8473 -0.4572
  812MOL0     C 7079   7.356  10.107   2.878  0.2979 -0.0477  0.1684
  812MOL0     C 7080   7.264  10.060   2.778  0.0418  0.6527 -0.2866
  812MOL0     C 7081   7.169  10.144   2.712  0.4954 -0.3111  0.9859
  812MOL0     O 7082   7.089  10.074   2.617 -0.8501  0.3356  0.2568
  812MOL0     C 7083   6.997  10.143   2.541  1.6538 -0.8193  0.0446
  812MOL0     C 7084   6.902  10.251   2.587 -0.6525 -0.1823  0.1875
  812MOL0     C 7085   6.794  10.279   2.505  0.1429 -0.1801 -0.2626
  812MOL0     C 7086   6.767  10.221   2.373  0.0583  0.1118 -0.5047
  812MOL0     O 7087   6.650  10.245   2.302 -0.2624 -0.1394 -0.3567
  812MOL0     C 7088   6.651  10.217   2.162  0.4573 -0.0514  0.3796
  812MOL0     C 7089   6.509  10.258   2.103 -0.4308 -0.6425  0.1897
  812MOL0     C 7090   6.510  10.255   1.955  0.1518  1.3167  0.3282
  812MOL0     C 7091   6.372  10.267   1.895  0.9905  0.3026 -0.5549
  812MOL0     C 7092   6.374  10.339   1.753  0.1685 -0.2640 -0.0986
  812MOL0     C 7093   6.230  10.362   1.707  0.8536  0.0834  0.5623
  812MOL0     C 7094   6.214  10.401   1.554  0.2086 -0.1547 -0.1285
  812MOL0     C 7095   6.177  10.285   1.465  0.1255  0.7105 -0.0896
  812MOL0    Cl 7096   6.268  10.137   1.518  0.0934  0.1939  0.0328
  812MOL0     C 7097   6.861  10.129   2.333 -0.0300  0.9525 -0.0424
  812MOL0     C 7098   6.961  10.087   2.419  0.9055  0.6111  0.7116
  812MOL0     O 7099   7.161  10.266   2.736 -0.2698 -0.3917 -0.2069
  812MOL0     C 7100   7.285   9.932   2.736 -0.2569  0.2590  0.1562
  812MOL0     C 7101   7.387   9.856   2.784 -0.0540  0.5366  1.1175
  812MOL0     N 7102   8.054   9.606   2.587 -0.7950 -0.3471  0.7187
  812MOL0     N 7103   8.109   9.489   2.570 -0.2522  0.0958 -0.1267
  812MOL0     C 7104   9.209   8.990   2.686 -0.0758 -0.2247 -0.9917
  812MOL0     C 7105   9.322   9.003   2.610  0.1303 -0.6981 -0.6184
  812MOL0     C 7106   9.701   9.103   2.444 -0.1894 -0.1248  0.0501
  812MOL0     C 7107   9.825   9.058   2.505  0.0289 -0.1980 -0.5083
  812MOL0     C 7108   9.940   9.066   2.426 -0.0655  0.1495 -0.9211
  812MOL0     C 7109   9.932   9.119   2.296 -0.8268  0.1437 -0.1280
  812MOL0     O 7110  10.044   9.125   2.223 -0.6444  0.0704  0.3582
  812MOL0     C 7111  10.169   9.068   2.274 -0.0935 -0.0538  0.9326
  812MOL0     C 7112  10.279   9.080   2.163 -0.2634  0.0054 -0.0452
  812MOL0     C 7113  10.418   9.077   2.229 -0.2264  0.0938  0.1134
  812MOL0     C 7114  10.530   9.068   2.137 -0.5733 -0.2431  0.5102
  812MOL0     C 7115  10.655   9.106   2.200 -0.2637  0.6705 -0.1407
  812MOL0     C 7116  10.761   9.149   2.254  0.6201  0.2402 -1.0708
  812MOL0     C 7117   9.820   9.170   2.241 -0.5528 -0.1267 -0.0237
  812MOL0     C 7118   9.700   9.156   2.319  0.0646  0.1948  1.0191
  812MOL0     H 7119   9.279   9.312   2.483  0.2941 -0.6830 -1.9809
  812MOL0     H 7120   9.068   9.282   2.596 -0.5980 -0.2290 -1.3655
  812MOL0     H 7121   8.968   8.960   2.896 -0.6558  1.7353  1.2428
  812MOL0     H 7122   8.961   8.880   2.743  0.4364 -0.8417  1.8366
  812MOL0     H 7123   8.762   9.061   2.879  1.1775 -1.7878  1.7181
  812MOL0     H 7124   8.719   8.891   2.838 -0.0204 -0.3970 -2.1832
  812MOL0     H 7125   8.754   8.972   2.595 -3.6441  1.4704 -2.3298
  812MOL0     H 7126   8.756   9.132   2.653  1.9527 -1.6883  0.1566
  812MOL0     H 7127   8.535   8.966   2.586  2.4875  1.2038 -0.1334
  812MOL0     H 7128   8.506   9.008   2.754 -0.9499 -2.9139 -0.8088
  812MOL0     H 7129   8.405   9.152   2.573  0.4953 -0.6976  0.3195
  812MOL0     H 7130   8.567   9.216   2.544  1.1214 -1.9302 -0.1458
  812MOL0     H 7131   8.569   9.329   2.754 -0.9319  2.3542 -3.8763
  812MOL0     H 7132   8.457   9.222   2.833 -1.4244  0.8266 -0.3266
  812MOL0     H 7133   8.381   9.456   2.770 -0.9896  0.1270 -0.6794
  812MOL0     H 7134   8.393   9.414   2.603 -0.3818  3.5414  0.9753
  812MOL0     H 7135   8.220   9.297   2.822  0.4189 -2.9284 -1.5102
  812MOL0     H 7136   8.208   9.246   2.652 -2.2791 -1.1748  1.5100
  812MOL0     H 7137   8.090   9.523   2.897 -1.7374 -3.9906  0.4224
  812MOL0     H 7138   8.062   9.848   2.733  1.5604 -1.9599 -0.8125
  812MOL0     H 7139   8.046   9.781   2.890  0.2990  0.9583  0.3144
  812MOL0     H 7140   7.811   9.834   2.701 -1.8670 -1.9001  0.5942
  812MOL0     H 7141   7.852   9.903   2.858  2.8251  1.0215 -1.2561
  812MOL0     H 7142   7.797   9.610   2.861 -0.8558  0.5927 -3.6067
  812MOL0     H 7143   7.777   9.729   2.985 -2.4475 -1.7535  0.1387
  812MOL0     H 7144   7.560   9.651   2.879 -1.3319  1.4882 -0.8303
  812MOL0     H 7145   7.611   9.751   2.741 -4.5676  1.0302  1.1624
  812MOL0     H 7146   7.530  10.080   2.996 -1.0007 -0.2016  0.7905
  812MOL0     H 7147   7.350  10.211   2.910 -1.5691 -0.4933  1.4630
  812MOL0     H 7148   6.906  10.289   2.688 -0.9894 -0.6193  0.3667
  812MOL0     H 7149   6.716  10.348   2.534 -0.6242 -1.0270 -0.2450
  812MOL0     H 7150   6.673  10.113   2.137  1.1612  0.5617 -1.8317
  812MOL0     H 7151   6.728  10.276   2.110  2.3451 -1.9869  0.8294
  812MOL0     H 7152   6.488  10.363   2.127  0.2705 -1.0662  3.0647
  812MOL0     H 7153   6.436  10.190   2.147 -1.7015  0.1365 -0.6648
  812MOL0     H 7154   6.544  10.158   1.916  1.7757  2.8977 -2.4899
  812MOL0     H 7155   6.580  10.332   1.923  0.4010 -0.3467 -3.8439
  812MOL0     H 7156   6.324  10.169   1.893  3.4212 -0.9574 -0.5558
  812MOL0     H 7157   6.308  10.333   1.954 -0.3986  2.1590 -3.8652
  812MOL0     H 7158   6.430  10.276   1.684  0.8120  0.8935 -0.6440
  812MOL0     H 7159   6.426  10.435   1.759  1.2578 -0.9143  1.6139
  812MOL0     H 7160   6.193  10.449   1.762  0.2138  0.4843 -0.4805
  812MOL0     H 7161   6.167  10.275   1.730  3.4043 -1.6859  1.2045
  812MOL0     H 7162   6.138  10.479   1.542  0.1727 -0.1795 -0.0657
  812MOL0     H 7163   6.305  10.447   1.514  0.2691 -2.1968 -2.6417
  812MOL0     H 7164   6.199  10.318   1.364 -0.3481  0.4220 -0.2923
  812MOL0     H 7165   6.069  10.273   1.472 -0.2470  3.0010 -1.3447
  812MOL0     H 7166   6.862  10.066   2.245  0.2804 -2.6790  2.3150
  812MOL0     H 7167   7.021  10.002   2.387  1.1698  1.0393  0.0374
  812MOL0     H 7168   7.214   9.877   2.675 -1.8401 -1.9320  3.6501
  812MOL0     H 7169   7.387   9.755   2.743  0.6563  1.4039 -1.1655
  812MOL0     H 7170   9.190   8.903   2.749  2.2501  0.7884  1.2645
  812MOL0     H 7171   9.398   8.926   2.605  1.7978  0.9437 -1.4479
  812MOL0     H 7172   9.827   9.023   2.608 -1.8271 -1.9363 -0.9959
  812MOL0     H 7173  10.032   9.026   2.467  0.1511  1.3780 -0.1493
  812MOL0     H 7174  10.163   8.964   2.307  3.4341 -0.6041  0.2625
  812MOL0     H 7175  10.193   9.127   2.363  2.3412  2.3424 -1.1058
  812MOL0     H 7176  10.269   8.992   2.099 -1.5001  1.0234 -1.3065
  812MOL0     H 7177  10.265   9.180   2.121 -0.6267  0.2940  0.7452
  812MOL0     H 7178  10.442   9.000   2.303 -1.5360  0.0512  0.5329
  812MOL0     H 7179  10.424   9.168   2.289  0.3567  0.6456 -0.7600
  812MOL0     H 7180  10.533   8.964   2.101  1.9253  0.3689 -1.3755
  812MOL0     H 7181  10.508   9.147   2.065 -0.2514  0.4859  1.1930
  812MOL0     H 7182  10.843   9.192   2.307  0.2042  0.4089 -0.5560
  812MOL0     H 7183   9.814   9.205   2.139 -1.0976  2.6202  0.8525
  812MOL0     H 7184   9.611   9.196   2.272  1.8778  2.4074 -0.8276
  813MOL0     O 7185   4.669   6.229   0.392  0.0203  0.3509  1.4090
  813MOL0     C 7186   4.743   6.130   0.379  0.1943 -0.1579 -0.1702
  813MOL0     O 7187   4.720   6.029   0.298 -0.2666 -0.4186 -0.9016
  813MOL0     C 7188   4.614   6.037   0.213  0.4506 -0.0085  0.6343
  813MOL0     C 7189   4.623   6.134   0.111  0.1149  0.3554  0.3831
  813MOL0     C 7190   4.513   6.167   0.036 -0.8014  0.0153 -0.0743
  813MOL0     C 7191   4.394   6.092   0.047 -1.3103  0.0341 -0.0954
  813MOL0     O 7192   4.282   6.108  -0.035 -0.4599  0.6411 -0.7267
  813MOL0     C 7193   4.314   6.133  -0.174 -0.3405  0.5498 -0.5902
  813MOL0     C 7194   4.182   6.113  -0.250 -0.1475  0.5788  0.5243
  813MOL0     C 7195   4.063   6.214  -0.208  0.6847 -0.6758  0.0943
  813MOL0     C 7196   3.938   6.197  -0.297  0.2396  0.3297 -0.0815
  813MOL0     C 7197   3.948   6.221  -0.448  0.0471 -0.2963 -0.0124
  813MOL0     C 7198   3.995   6.369  -0.475  0.1548 -0.0138 -0.4701
  813MOL0     C 7199   4.058   6.372  -0.616  0.5786 -0.0252 -0.1744
  813MOL0     C 7200   3.969   6.340  -0.737 -0.9098 -0.3633  0.1515
  813MOL0     N 7201   3.869   6.447  -0.746  0.5886  0.0865  0.3114
  813MOL0     C 7202   3.747   6.438  -0.686 -0.2623 -0.5613  0.1141
  813MOL0     C 7203   3.670   6.533  -0.752 -1.3673 -0.6065 -0.5770
  813MOL0     C 7204   3.517   6.542  -0.748  0.8190 -0.3364  1.1982
  813MOL0     C 7205   3.475   6.584  -0.609  1.0329 -1.0509 -0.0350
  813MOL0     C 7206   3.385   6.717  -0.612 -0.2238 -0.7322 -0.2194
  813MOL0     C 7207   3.245   6.698  -0.661  0.5694 -0.2789  0.4170
  813MOL0     O 7208   3.171   6.637  -0.555  0.1242  0.3133  0.4511
  813MOL0     C 7209   3.038   6.646  -0.558 -0.2399  0.5495  0.2474
  813MOL0     C 7210   2.964   6.581  -0.457 -0.0684 -0.2801 -0.0744
  813MOL0     C 7211   2.819   6.571  -0.458 -0.5835  0.0048 -0.2312
  813MOL0     C 7212   2.743   6.624  -0.558 -0.5616 -0.6985  0.0526
  813MOL0     C 7213   2.594   6.601  -0.573 -0.1990  0.1637 -0.0831
  813MOL0     O 7214   2.541   6.636  -0.699 -0.3232 -0.0138  0.6628
  813MOL0     C 7215   2.423   6.570  -0.734 -1.1368 -0.2601  0.3803
  813MOL0     C 7216   2.320   6.657  -0.773  0.9266  0.0083  1.3435
  813MOL0     C 7217   2.200   6.597  -0.815 -0.3918 -0.4748  0.3521
  813MOL0     C 7218   2.187   6.452  -0.813  0.0834 -0.1355  0.1167
  813MOL0     O 7219   2.076   6.382  -0.852  0.5870 -0.8121 -0.0153
  813MOL0     C 7220   1.954   6.452  -0.878  0.3247 -0.0292 -0.2279
  813MOL0     C 7221   1.838   6.359  -0.875  0.8168  0.0613 -0.6814
  813MOL0     C 7222   1.713   6.444  -0.925 -0.1395 -0.2795 -0.5563
  813MOL0     C 7223   1.581   6.361  -0.924 -0.1921  0.7469 -0.2258
  813MOL0     C 7224   1.482   6.418  -1.021  0.3871  0.0358  0.0771
  813MOL0     C 7225   1.351   6.341  -1.040 -0.5269  0.5884  0.0071
  813MOL0     C 7226   1.269   6.421  -1.149 -0.1120 -0.2407  0.0037
  813MOL0     C 7227   1.149   6.337  -1.202  0.7138 -1.1537  0.2103
  813MOL0    Cl 7228   1.031   6.309  -1.057 -0.5786  0.2002 -0.1746
  813MOL0     C 7229   2.292   6.371  -0.778  0.1172  0.8408  0.1713
  813MOL0     C 7230   2.415   6.431  -0.738 -0.1303 -0.8238 -0.6454
  813MOL0     O 7231   2.529   6.535  -0.487  0.1274  0.3689  0.4167
  813MOL0     C 7232   2.815   6.692  -0.659 -0.6825  0.1745  0.2982
  813MOL0     C 7233   2.956   6.713  -0.651  0.0557  0.3472  0.2287
  813MOL0     N 7234   3.759   6.597  -0.844  0.4595  0.2582  0.2819
  813MOL0     N 7235   3.864   6.536  -0.849  0.5162  0.5470 -0.1128
  813MOL0     C 7236   4.386   5.999   0.150  0.0730 -0.1907  0.6891
  813MOL0     C 7237   4.498   5.967   0.227  0.1476  0.5761 -0.2164
  813MOL0     C 7238   4.865   6.121   0.464  0.4244  0.9899  0.2098
  813MOL0     C 7239   4.912   5.997   0.510 -0.1047  0.1155 -0.5217
  813MOL0     C 7240   5.017   5.986   0.595 -0.1907  0.7807  0.5667
  813MOL0     C 7241   5.092   6.095   0.643  0.1124  0.0990  1.0009
  813MOL0     O 7242   5.201   6.068   0.716  0.0520  0.0252  0.0327
  813MOL0     C 7243   5.278   6.173   0.764 -0.2541 -1.0175 -1.1640
  813MOL0     C 7244   5.372   6.121   0.874  0.2719  0.6511  1.5137
  813MOL0     C 7245   5.460   6.000   0.825 -0.9549 -0.4940  0.4322
  813MOL0     C 7246   5.569   5.969   0.923 -0.4918  0.0013 -0.2405
  813MOL0     C 7247   5.529   5.946   1.059  0.4312 -0.7258 -0.0018
  813MOL0     C 7248   5.498   5.943   1.177  0.5467 -0.8015 -0.5403
  813MOL0     C 7249   5.041   6.217   0.595  0.0218  0.0555 -0.9297
  813MOL0     C 7250   4.932   6.232   0.512 -0.4851 -0.0550 -0.7181
  813MOL0     H 7251   4.721   6.179   0.096 -0.5585  0.6537 -4.9959
  813MOL0     H 7252   4.513   6.239  -0.045 -0.1970 -0.5215 -0.5635
  813MOL0     H 7253   4.388   6.056  -0.199  1.0532  1.3632  0.8562
  813MOL0     H 7254   4.353   6.232  -0.195 -0.0406  0.5862  0.1141
  813MOL0     H 7255   4.146   6.011  -0.233 -0.5599  0.9435  1.9894
  813MOL0     H 7256   4.190   6.122  -0.359  0.3036  2.0276  0.6521
  813MOL0     H 7257   4.102   6.315  -0.214 -1.6565  0.1852 -3.5969
  813MOL0     H 7258   4.038   6.190  -0.104 -1.8071  0.7075 -0.1211
  813MOL0     H 7259   3.906   6.094  -0.281 -0.3983  0.4563 -0.5161
  813MOL0     H 7260   3.864   6.268  -0.260 -1.4041 -1.0604 -0.5938
  813MOL0     H 7261   3.847   6.214  -0.488  0.6953 -0.2094 -1.7491
  813MOL0     H 7262   4.004   6.149  -0.508 -2.7510  0.3555 -3.7570
  813MOL0     H 7263   4.084   6.385  -0.414 -0.8708 -0.6714  1.2799
  813MOL0     H 7264   3.920   6.439  -0.436  2.7648  0.8946  3.6088
  813MOL0     H 7265   4.102   6.469  -0.641  0.0264  0.5971  1.1999
  813MOL0     H 7266   4.130   6.289  -0.619 -1.3946 -1.7895 -1.7903
  813MOL0     H 7267   3.914   6.246  -0.740  2.9468 -2.8364 -0.9508
  813MOL0     H 7268   4.023   6.339  -0.832 -1.5160  1.2310 -0.2359
  813MOL0     H 7269   3.719   6.365  -0.610  1.9223 -0.8673  0.6988
  813MOL0     H 7270   3.470   6.443  -0.749 -1.9932  0.7480 -3.3824
  813MOL0     H 7271   3.465   6.593  -0.830  3.2667  0.2513 -0.1107
  813MOL0     H 7272   3.564   6.615  -0.554  0.1922  1.1426  0.1843
  813MOL0     H 7273   3.422   6.514  -0.544  0.2175  0.4538  0.9708
  813MOL0     H 7274   3.386   6.762  -0.513  1.9085 -1.1828  0.0245
  813MOL0     H 7275   3.438   6.784  -0.680 -2.6017  1.8960  0.3403
  813MOL0     H 7276   3.232   6.652  -0.759 -0.8687 -0.4832  0.6690
  813MOL0     H 7277   3.203   6.799  -0.669  2.5887  0.5579 -0.1522
  813MOL0     H 7278   3.008   6.525  -0.375 -2.0397 -0.4353  0.9402
  813MOL0     H 7279   2.780   6.509  -0.378  2.7908 -1.2298  0.6060
  813MOL0     H 7280   2.343   6.763  -0.776 -0.4287  0.3213  1.3492
  813MOL0     H 7281   2.116   6.656  -0.849 -0.5941 -0.3162  1.0949
  813MOL0     H 7282   1.966   6.510  -0.970 -0.8316 -0.4796 -0.6734
  813MOL0     H 7283   1.938   6.527  -0.799 -0.1674  1.5381 -1.7661
  813MOL0     H 7284   1.818   6.316  -0.776 -2.5995  0.8916 -0.8713
  813MOL0     H 7285   1.848   6.279  -0.949 -1.0196  0.3612 -1.3115
  813MOL0     H 7286   1.735   6.481  -1.025  0.9350  1.8480  0.4110
  813MOL0     H 7287   1.709   6.536  -0.865  3.3445 -1.0761  1.1738
  813MOL0     H 7288   1.610   6.259  -0.950  1.6059  1.5110 -1.4106
  813MOL0     H 7289   1.535   6.347  -0.825  1.6067 -2.0402  0.3513
  813MOL0     H 7290   1.520   6.434  -1.122 -2.6333 -1.0703 -1.3567
  813MOL0     H 7291   1.446   6.513  -0.981 -1.9449 -1.2221  1.2380
  813MOL0     H 7292   1.294   6.338  -0.947 -0.2704 -1.3946  0.1303
  813MOL0     H 7293   1.370   6.240  -1.077 -0.4867  0.9324 -0.9516
  813MOL0     H 7294   1.229   6.516  -1.115 -2.6569 -1.2548  0.0895
  813MOL0     H 7295   1.338   6.440  -1.232  0.9277 -0.7062  0.7446
  813MOL0     H 7296   1.178   6.242  -1.248 -1.3345 -1.8060  0.1501
  813MOL0     H 7297   1.090   6.397  -1.272 -0.4498 -1.8691  0.5439
  813MOL0     H 7298   2.282   6.264  -0.789 -0.3226  1.0452 -1.8548
  813MOL0     H 7299   2.492   6.367  -0.697 -0.0442 -1.5134 -1.8499
  813MOL0     H 7300   2.766   6.737  -0.745  0.2359  0.0255 -0.3093
  813MOL0     H 7301   3.007   6.754  -0.738  1.6777 -2.2515 -0.1654
  813MOL0     H 7302   4.291   5.947   0.148 -0.4139  0.7028 -0.8456
  813MOL0     H 7303   4.510   5.892   0.305 -0.2824  2.7675  2.0886
  813MOL0     H 7304   4.849   5.911   0.490  0.2079  0.4956 -3.5586
  813MOL0     H 7305   5.029   5.879   0.608 -2.5146  0.1534 -1.6284
  813MOL0     H 7306   5.206   6.240   0.810  2.0999  0.2634  0.9322
  813MOL0     H 7307   5.325   6.228   0.682 -0.4553  0.3323 -0.3981
  813MOL0     H 7308   5.426   6.211   0.905  0.0661  1.4195 -0.2436
  813MOL0     H 7309   5.315   6.088   0.962  0.6936 -2.5859  0.6775
  813MOL0     H 7310   5.506   6.034   0.731 -3.0525  2.5641  0.3762
  813MOL0     H 7311   5.388   5.918   0.811 -2.4411  0.1720  3.4011
  813MOL0     H 7312   5.616   5.878   0.884 -0.0085  0.8763 -1.7414
  813MOL0     H 7313   5.629   6.060   0.925 -3.1495  1.8530  0.8367
  813MOL0     H 7314   5.477   5.950   1.281  0.0645  0.0085 -0.6820
  813MOL0     H 7315   5.096   6.305   0.627 -0.5841  0.3044 -0.5470
  813MOL0     H 7316   4.903   6.335   0.495  2.9741  1.2612  0.5404
  814MOL0     O 7317   0.066   7.799   3.269 -0.3581 -0.4328  0.4705
  814MOL0     C 7318   0.079   7.710   3.182  0.5075 -0.1987  0.2045
  814MOL0     O 7319  -0.008   7.605   3.164 -0.1621  0.0324  0.4597
  814MOL0     C 7320  -0.108   7.574   3.247 -0.2507 -0.0003 -0.7290
  814MOL0     C 7321  -0.228   7.526   3.193 -0.0361  0.2640 -0.3588
  814MOL0     C 7322  -0.332   7.487   3.273  1.1799  0.4633  0.0085
  814MOL0     C 7323  -0.331   7.488   3.410  0.7113 -0.3125 -0.3315
  814MOL0     O 7324  -0.441   7.457   3.486  0.4446 -0.7121  0.0915
  814MOL0     C 7325  -0.419   7.356   3.578  1.1600  0.2134 -1.0467
  814MOL0     C 7326  -0.548   7.292   3.634 -1.1382 -0.2803 -0.8429
  814MOL0     C 7327  -0.629   7.378   3.725  0.4764 -0.3483 -0.0647
  814MOL0     C 7328  -0.772   7.319   3.746 -0.4864  0.3848 -0.1098
  814MOL0     C 7329  -0.860   7.422   3.824 -0.4871  0.1922  0.8365
  814MOL0     C 7330  -1.005   7.371   3.848 -0.1134  0.6349  0.8157
  814MOL0     C 7331  -1.088   7.489   3.885  0.6199  0.4865 -0.5007
  814MOL0     C 7332  -1.231   7.433   3.935 -1.0771 -0.2206  0.3298
  814MOL0     N 7333  -1.297   7.536   4.023 -0.4334  0.4051  0.5209
  814MOL0     C 7334  -1.400   7.519   4.109 -0.0326  0.0779  0.2496
  814MOL0     C 7335  -1.439   7.646   4.141  0.5334  0.2432  1.2860
  814MOL0     C 7336  -1.554   7.679   4.221 -0.3467 -0.3562 -0.5769
  814MOL0     C 7337  -1.650   7.764   4.138 -0.3172  0.0883  0.3782
  814MOL0     C 7338  -1.784   7.806   4.197 -1.4088  0.3060 -0.4773
  814MOL0     C 7339  -1.767   7.886   4.326 -0.4207 -0.0344 -0.0593
  814MOL0     O 7340  -1.856   8.002   4.330 -0.2404  0.8405  0.5747
  814MOL0     C 7341  -1.990   7.960   4.325  0.0751 -0.2050  0.0583
  814MOL0     C 7342  -2.040   7.860   4.405  0.2338 -0.6413  0.1526
  814MOL0     C 7343  -2.181   7.835   4.417  0.0314  0.2233  1.1421
  814MOL0     C 7344  -2.262   7.918   4.336  0.1043 -0.1704  0.5243
  814MOL0     C 7345  -2.413   7.895   4.342 -0.1945 -0.2801  0.4992
  814MOL0     O 7346  -2.500   8.001   4.320 -0.1690 -0.0978  0.1583
  814MOL0     C 7347  -2.635   7.987   4.295 -0.7349  0.4303 -0.0965
  814MOL0     C 7348  -2.709   8.068   4.368  0.4118  0.1907  0.2339
  814MOL0     C 7349  -2.851   8.063   4.359  0.9257 -0.3063 -0.5775
  814MOL0     C 7350  -2.919   7.969   4.274  0.6237 -1.0025 -0.5718
  814MOL0     O 7351  -3.056   7.954   4.260 -0.4907  0.4571  0.6075
  814MOL0     C 7352  -3.150   8.062   4.282 -0.3740 -0.1525  0.2725
  814MOL0     C 7353  -3.292   8.015   4.259  0.5708 -0.8093 -0.1393
  814MOL0     C 7354  -3.395   8.130   4.236 -0.8664  0.5217  0.1965
  814MOL0     C 7355  -3.526   8.069   4.204  0.3229  0.3692 -0.7635
  814MOL0     C 7356  -3.642   8.178   4.191 -0.3809  0.5238  0.0187
  814MOL0     C 7357  -3.760   8.124   4.115  0.3191  1.4758 -0.0686
  814MOL0     C 7358  -3.874   8.228   4.095 -0.9015  0.1717 -1.0691
  814MOL0     C 7359  -3.923   8.284   4.225 -0.5160  0.9020  0.7694
  814MOL0    Cl 7360  -3.964   8.152   4.334 -0.2528 -0.1936 -0.0584
  814MOL0     C 7361  -2.837   7.892   4.201  0.4476  0.2832 -0.7368
  814MOL0     C 7362  -2.699   7.896   4.204 -0.0259 -0.2719  0.0485
  814MOL0     O 7363  -2.447   7.778   4.367  0.2817  0.2486  0.5946
  814MOL0     C 7364  -2.211   8.017   4.250 -0.3110 -0.4958 -0.6143
  814MOL0     C 7365  -2.073   8.032   4.245  0.0910  0.1521 -0.1548
  814MOL0     N 7366  -1.355   7.736   4.073  0.3125  0.2895 -0.2346
  814MOL0     N 7367  -1.282   7.668   3.996  0.5736 -0.7414 -0.6071
  814MOL0     C 7368  -0.213   7.542   3.469 -0.5609  0.0240  0.1026
  814MOL0     C 7369  -0.103   7.584   3.387 -0.5396 -0.1588 -0.2817
  814MOL0     C 7370   0.195   7.729   3.096  0.5863  0.3065  0.3813
  814MOL0     C 7371   0.219   7.646   2.988 -0.3763  0.8276 -0.8088
  814MOL0     C 7372   0.325   7.664   2.896 -0.2380 -0.0693 -0.4298
  814MOL0     C 7373   0.418   7.762   2.912  0.2765 -0.6696  0.0197
  814MOL0     O 7374   0.520   7.773   2.817  0.2848  0.2093  0.5640
  814MOL0     C 7375   0.636   7.857   2.854  0.2438  0.9783 -0.3609
  814MOL0     C 7376   0.739   7.868   2.743  0.0291 -0.5640  0.6108
  814MOL0     C 7377   0.858   7.952   2.795 -0.3268  0.3582 -0.5989
  814MOL0     C 7378   0.828   8.103   2.769  0.0706  0.2073 -0.1219
  814MOL0     C 7379   0.932   8.170   2.849  0.9414 -1.0826 -0.6345
  814MOL0     C 7380   1.037   8.198   2.904  0.0814 -0.1050 -0.3107
  814MOL0     C 7381   0.386   7.855   3.007 -0.5324  0.4190 -0.4907
  814MOL0     C 7382   0.279   7.839   3.096 -0.5708  0.2304 -0.0310
  814MOL0     H 7383  -0.251   7.532   3.087 -2.4744 -1.3294  0.0126
  814MOL0     H 7384  -0.419   7.448   3.222  0.5137  0.1694  1.3176
  814MOL0     H 7385  -0.350   7.380   3.659 -0.8030 -4.3995  2.4898
  814MOL0     H 7386  -0.361   7.270   3.544  2.5470 -0.0634  1.6888
  814MOL0     H 7387  -0.516   7.207   3.696 -2.0638  0.1919  0.3319
  814MOL0     H 7388  -0.604   7.258   3.546  0.3606 -1.9502 -1.2072
  814MOL0     H 7389  -0.635   7.477   3.679 -0.0838 -1.2981 -2.1258
  814MOL0     H 7390  -0.582   7.378   3.824  0.4243 -0.0947 -0.0392
  814MOL0     H 7391  -0.823   7.299   3.651 -0.4933  1.0183 -0.2435
  814MOL0     H 7392  -0.755   7.224   3.798  1.2436  0.3825 -0.6229
  814MOL0     H 7393  -0.862   7.517   3.769  2.3582 -0.0623  0.1446
  814MOL0     H 7394  -0.808   7.445   3.918  5.1500  1.0052 -2.0622
  814MOL0     H 7395  -1.012   7.292   3.922  0.0890 -1.2545 -1.0753
  814MOL0     H 7396  -1.034   7.329   3.751 -2.1982  0.3846  1.5155
  814MOL0     H 7397  -1.043   7.539   3.971  0.2861  1.9416 -1.1411
  814MOL0     H 7398  -1.096   7.564   3.806 -0.5322  1.5480  0.5893
  814MOL0     H 7399  -1.219   7.337   3.986  0.2757  0.9872  2.4161
  814MOL0     H 7400  -1.291   7.412   3.846  1.3422 -0.4913 -1.3302
  814MOL0     H 7401  -1.443   7.423   4.135 -1.9230  1.2108  1.5163
  814MOL0     H 7402  -1.525   7.744   4.304  0.7167  3.2107 -3.4963
  814MOL0     H 7403  -1.588   7.588   4.273  0.1016  0.5613  1.4395
  814MOL0     H 7404  -1.687   7.707   4.052  1.1182  1.4254 -1.1671
  814MOL0     H 7405  -1.607   7.860   4.108 -0.4162  0.9546  2.7910
  814MOL0     H 7406  -1.820   7.877   4.122 -0.9944  0.0806 -0.8866
  814MOL0     H 7407  -1.856   7.724   4.204  0.3435 -1.2863 -0.3777
  814MOL0     H 7408  -1.666   7.926   4.332  0.1197 -1.4879  1.0200
  814MOL0     H 7409  -1.765   7.814   4.409  3.6603  0.5554  0.5572
  814MOL0     H 7410  -1.974   7.791   4.458 -0.3255 -0.5531  0.9862
  814MOL0     H 7411  -2.211   7.763   4.492 -1.9615  2.1728  2.3426
  814MOL0     H 7412  -2.651   8.137   4.428  3.8056 -1.4277 -0.9771
  814MOL0     H 7413  -2.908   8.135   4.417  1.7501 -0.3097  0.2612
  814MOL0     H 7414  -3.122   8.147   4.218  0.4212  0.5621  1.5161
  814MOL0     H 7415  -3.143   8.103   4.384 -1.2798  1.7087 -0.3603
  814MOL0     H 7416  -3.310   7.956   4.349 -0.5864 -2.2451 -1.2555
  814MOL0     H 7417  -3.296   7.949   4.172 -2.2439  1.0827 -1.5671
  814MOL0     H 7418  -3.359   8.188   4.150  1.4983  0.8052  1.3148
  814MOL0     H 7419  -3.397   8.195   4.323 -0.1461  2.1252 -0.9414
  814MOL0     H 7420  -3.516   8.021   4.106 -1.9389  2.8548 -2.3592
  814MOL0     H 7421  -3.571   7.999   4.275  0.3323  1.9165  0.8253
  814MOL0     H 7422  -3.598   8.267   4.146  1.5626 -0.3159  0.1623
  814MOL0     H 7423  -3.687   8.195   4.289 -2.2384 -0.2322 -0.6440
  814MOL0     H 7424  -3.789   8.035   4.171 -0.3048  0.4525 -1.9355
  814MOL0     H 7425  -3.736   8.086   4.016 -0.7641  1.8291 -0.4888
  814MOL0     H 7426  -3.837   8.318   4.045  0.2711  0.1787 -0.2346
  814MOL0     H 7427  -3.956   8.174   4.048 -2.6101 -0.5960  2.4599
  814MOL0     H 7428  -4.013   8.347   4.219 -0.6569  0.9719  2.8919
  814MOL0     H 7429  -3.841   8.344   4.264  3.1410 -1.6918 -2.1972
  814MOL0     H 7430  -2.882   7.817   4.138  0.2120 -2.3292  2.2696
  814MOL0     H 7431  -2.641   7.831   4.138  1.4189  2.2679 -1.3268
  814MOL0     H 7432  -2.264   8.080   4.179 -1.6074 -1.5794 -0.6432
  814MOL0     H 7433  -2.024   8.102   4.179  0.4929 -0.0827 -0.1129
  814MOL0     H 7434  -0.220   7.558   3.577 -1.2488  1.8398 -0.1726
  814MOL0     H 7435  -0.019   7.628   3.442 -1.7235  1.7903  0.0792
  814MOL0     H 7436   0.152   7.560   2.990  0.0677  0.4795  1.5416
  814MOL0     H 7437   0.344   7.588   2.821  0.5281 -1.2804  0.9367
  814MOL0     H 7438   0.690   7.823   2.942  1.0399  1.2411 -0.7445
  814MOL0     H 7439   0.600   7.956   2.885 -0.6340  0.3687  0.6647
  814MOL0     H 7440   0.764   7.764   2.722  0.7450 -0.6723  1.8725
  814MOL0     H 7441   0.699   7.908   2.650  0.7919 -1.1609  0.0162
  814MOL0     H 7442   0.952   7.936   2.740  0.9428  1.7259  1.0697
  814MOL0     H 7443   0.889   7.934   2.898 -0.6084  1.1533 -0.3737
  814MOL0     H 7444   0.840   8.143   2.668 -1.9205  1.9046  0.2234
  814MOL0     H 7445   0.727   8.127   2.807  0.3445 -0.8830  1.3971
  814MOL0     H 7446   1.131   8.232   2.943  0.0684 -1.1352  0.6590
  814MOL0     H 7447   0.443   7.943   3.033  0.3408 -0.5203  0.9652
  814MOL0     H 7448   0.261   7.918   3.168 -2.7205 -0.5673  0.3898
  815MOL0     O 7449   0.930   4.559   2.883  0.1674  0.1738  0.1012
  815MOL0     C 7450   1.016   4.522   2.965 -1.1215  0.8820 -0.0845
  815MOL0     O 7451   1.009   4.535   3.101  0.7001 -0.0134  0.1810
  815MOL0     C 7452   0.911   4.623   3.153 -0.0120  0.2002  1.0811
  815MOL0     C 7453   0.809   4.574   3.233  0.6220  0.3849 -0.5670
  815MOL0     C 7454   0.706   4.662   3.272 -0.1887  0.2705  0.1895
  815MOL0     C 7455   0.723   4.798   3.237  0.6023  0.1172 -0.0823
  815MOL0     O 7456   0.631   4.893   3.287  0.1884  0.2228  0.3425
  815MOL0     C 7457   0.620   5.015   3.207 -0.3230  0.1870  0.3676
  815MOL0     C 7458   0.480   5.065   3.213  0.6411 -0.7695  0.4817
  815MOL0     C 7459   0.436   5.093   3.358 -0.1903 -1.3937  0.1641
  815MOL0     C 7460   0.515   5.207   3.434 -0.7109 -0.3051 -0.2671
  815MOL0     C 7461   0.441   5.270   3.555  0.6756 -0.1294  0.7332
  815MOL0     C 7462   0.407   5.168   3.669  0.0062 -0.3822 -0.1965
  815MOL0     C 7463   0.379   5.235   3.802 -0.0703  0.1478 -0.3780
  815MOL0     C 7464   0.241   5.302   3.807  0.5383  0.9108  0.0737
  815MOL0     N 7465   0.123   5.214   3.762  0.0311 -0.6661  0.1297
  815MOL0     C 7466   0.035   5.147   3.847  0.0538 -0.2841 -0.0332
  815MOL0     C 7467  -0.043   5.086   3.756  0.3325 -0.5169 -1.0346
  815MOL0     C 7468  -0.147   4.995   3.801 -1.1150  0.4110  0.2898
  815MOL0     C 7469  -0.274   5.069   3.857 -0.0360 -0.6437  0.2633
  815MOL0     C 7470  -0.341   5.142   3.733  0.0689 -0.0326 -0.1223
  815MOL0     C 7471  -0.477   5.191   3.779 -0.5334  0.1874 -0.1684
  815MOL0     O 7472  -0.544   5.243   3.669  0.0588  0.0839  0.0165
  815MOL0     C 7473  -0.680   5.224   3.668  0.1172 -0.4529  0.1585
  815MOL0     C 7474  -0.738   5.108   3.611 -0.2728 -0.0820 -0.0295
  815MOL0     C 7475  -0.877   5.085   3.606 -0.0829 -0.0045  0.1822
  815MOL0     C 7476  -0.955   5.178   3.671 -0.2636 -0.0329 -0.4995
  815MOL0     C 7477  -1.098   5.157   3.668  0.6142 -0.2155 -0.0341
  815MOL0     O 7478  -1.162   5.253   3.741  0.1710 -0.2614  0.3116
  815MOL0     C 7479  -1.305   5.244   3.751 -0.1470  0.6811 -0.7067
  815MOL0     C 7480  -1.370   5.172   3.852 -0.0727 -0.6789 -0.0948
  815MOL0     C 7481  -1.507   5.142   3.850 -0.6523  0.1770 -0.5372
  815MOL0     C 7482  -1.586   5.193   3.749 -0.6924  0.3620  0.1012
  815MOL0     O 7483  -1.723   5.188   3.747  0.5427  0.0891  0.4807
  815MOL0     C 7484  -1.803   5.181   3.863  0.1931 -0.5295 -0.3985
  815MOL0     C 7485  -1.948   5.159   3.817  0.5415  0.5481  0.3647
  815MOL0     C 7486  -1.990   5.272   3.724 -0.1189 -0.0216  0.0923
  815MOL0     C 7487  -2.137   5.252   3.675  0.7370 -0.2318 -0.0865
  815MOL0     C 7488  -2.248   5.279   3.787 -1.2769  0.6143 -0.0613
  815MOL0     C 7489  -2.296   5.425   3.783 -0.6404  1.2345 -0.1317
  815MOL0     C 7490  -2.381   5.455   3.663 -0.4082 -0.1430 -0.7038
  815MOL0     C 7491  -2.523   5.385   3.662 -0.2431  0.3564  0.4410
  815MOL0    Cl 7492  -2.610   5.409   3.507  0.1896  0.0438  0.1663
  815MOL0     C 7493  -1.521   5.271   3.648 -0.1727 -0.6885 -0.0348
  815MOL0     C 7494  -1.384   5.294   3.652 -0.1445  0.1436 -0.1355
  815MOL0     O 7495  -1.147   5.059   3.611 -0.5921  0.2192  0.2710
  815MOL0     C 7496  -0.900   5.287   3.746  0.2451  0.1110  0.7187
  815MOL0     C 7497  -0.760   5.307   3.746  0.5442 -0.3670 -0.3336
  815MOL0     N 7498  -0.020   5.130   3.628 -0.6435 -0.6610 -0.2612
  815MOL0     N 7499   0.078   5.220   3.635 -0.4370 -0.1351 -0.4355
  815MOL0     C 7500   0.829   4.842   3.162 -0.0415  0.2773 -0.0035
  815MOL0     C 7501   0.929   4.753   3.125  0.1978 -0.5547  0.6845
  815MOL0     C 7502   1.142   4.461   2.916 -0.3123  0.3044  0.4293
  815MOL0     C 7503   1.176   4.470   2.778 -0.4375 -0.3385 -0.4624
  815MOL0     C 7504   1.306   4.447   2.733 -0.2146  0.7202  1.0435
  815MOL0     C 7505   1.404   4.419   2.822 -0.1562  0.0282 -0.9017
  815MOL0     O 7506   1.526   4.409   2.761  0.2729  0.1081 -0.2152
  815MOL0     C 7507   1.642   4.397   2.846  0.6544  0.6222 -0.2356
  815MOL0     C 7508   1.770   4.441   2.773 -0.4879  0.7476  0.6124
  815MOL0     C 7509   1.889   4.460   2.865 -0.1675 -0.5287  0.8767
  815MOL0     C 7510   2.024   4.481   2.787  0.2712 -0.5369 -0.1526
  815MOL0     C 7511   2.031   4.623   2.747 -0.0912 -0.0304 -0.4804
  815MOL0     C 7512   2.066   4.738   2.710 -1.0611 -0.7997 -0.3572
  815MOL0     C 7513   1.369   4.386   2.952  0.0732 -0.0924  0.2490
  815MOL0     C 7514   1.244   4.416   2.995 -0.7317  1.0626 -0.6627
  815MOL0     H 7515   0.813   4.468   3.258 -1.6279  0.5941  0.9787
  815MOL0     H 7516   0.618   4.628   3.325  1.0498 -0.9142  1.5788
  815MOL0     H 7517   0.646   4.996   3.103 -4.0685  3.3239 -1.3865
  815MOL0     H 7518   0.688   5.091   3.245 -0.2550 -0.6706  2.0490
  815MOL0     H 7519   0.411   4.993   3.170  0.9696 -2.0499  1.9868
  815MOL0     H 7520   0.469   5.159   3.158  2.0982  1.0118  2.9925
  815MOL0     H 7521   0.440   5.006   3.423 -1.4320 -0.1989  1.9306
  815MOL0     H 7522   0.341   5.145   3.339  1.6168  2.0438 -0.2588
  815MOL0     H 7523   0.614   5.167   3.458 -1.6716 -0.9112  3.2468
  815MOL0     H 7524   0.533   5.289   3.364  1.0943  0.5018  1.0514
  815MOL0     H 7525   0.350   5.313   3.513  2.2483  0.5489 -2.2237
  815MOL0     H 7526   0.509   5.352   3.579  1.3099  1.0234 -4.0030
  815MOL0     H 7527   0.499   5.112   3.689  1.5320  1.2505 -2.1693
  815MOL0     H 7528   0.326   5.107   3.628 -1.7289  1.4105  0.3971
  815MOL0     H 7529   0.377   5.158   3.879  0.5761 -0.6629 -1.1437
  815MOL0     H 7530   0.461   5.301   3.833 -1.5118  0.3041  3.6859
  815MOL0     H 7531   0.240   5.395   3.749  1.7037  0.2477 -1.0608
  815MOL0     H 7532   0.219   5.327   3.911 -0.1437  0.6027  0.0075
  815MOL0     H 7533   0.040   5.141   3.955 -1.1596  1.5283  0.1743
  815MOL0     H 7534  -0.112   4.935   3.885 -1.4895 -0.0014  0.1551
  815MOL0     H 7535  -0.176   4.934   3.715 -1.7879  0.4745  0.4615
  815MOL0     H 7536  -0.244   5.138   3.936  4.3552 -2.2140  0.2823
  815MOL0     H 7537  -0.348   4.992   3.881 -0.2918 -0.6181 -0.4083
  815MOL0     H 7538  -0.281   5.225   3.695 -1.4948  2.6160  2.7164
  815MOL0     H 7539  -0.356   5.067   3.655  1.6652  0.2014 -0.6731
  815MOL0     H 7540  -0.470   5.268   3.856  0.9335  0.0270 -0.1195
  815MOL0     H 7541  -0.523   5.101   3.822 -0.0174 -0.5566 -1.1457
  815MOL0     H 7542  -0.686   5.029   3.557 -2.5527 -2.1096  0.5744
  815MOL0     H 7543  -0.910   4.997   3.552  0.1479 -1.2640  1.9980
  815MOL0     H 7544  -1.310   5.136   3.935 -0.5625 -1.3427 -0.0197
  815MOL0     H 7545  -1.541   5.084   3.935  0.5720  1.1789  0.6881
  815MOL0     H 7546  -1.813   5.269   3.928 -1.5858 -1.4280  0.6145
  815MOL0     H 7547  -1.764   5.102   3.927 -1.1894 -2.1110 -1.4290
  815MOL0     H 7548  -2.003   5.145   3.910  0.6444  0.3322  0.3949
  815MOL0     H 7549  -1.951   5.070   3.752 -1.7826  0.1466  0.9194
  815MOL0     H 7550  -1.923   5.269   3.638 -0.7007  0.4898 -0.3920
  815MOL0     H 7551  -1.981   5.370   3.773  1.9622 -0.7066  1.1792
  815MOL0     H 7552  -2.157   5.323   3.594  2.1441  1.1544  0.7132
  815MOL0     H 7553  -2.155   5.152   3.634  0.5037 -1.8182  3.4902
  815MOL0     H 7554  -2.205   5.251   3.883  1.1375  0.4711 -1.1138
  815MOL0     H 7555  -2.336   5.215   3.780 -0.0412 -0.9635 -2.5230
  815MOL0     H 7556  -2.208   5.490   3.780  1.2513 -1.1715 -0.4227
  815MOL0     H 7557  -2.355   5.447   3.872  0.1620 -1.8478  1.3078
  815MOL0     H 7558  -2.395   5.563   3.677  0.0212 -0.2042  0.2495
  815MOL0     H 7559  -2.326   5.448   3.569 -1.3896 -1.5905 -1.2150
  815MOL0     H 7560  -2.575   5.420   3.752 -0.9306  1.1158 -0.2312
  815MOL0     H 7561  -2.517   5.277   3.674 -4.0611  0.0622  0.8273
  815MOL0     H 7562  -1.579   5.299   3.561  1.4044  1.5861 -0.4357
  815MOL0     H 7563  -1.346   5.361   3.575  0.4388  1.1195  0.9716
  815MOL0     H 7564  -0.970   5.354   3.793 -0.3047 -1.7258  2.6776
  815MOL0     H 7565  -0.717   5.395   3.793  0.5139 -0.3872 -0.2685
  815MOL0     H 7566   0.849   4.942   3.126 -0.6690  0.3165 -0.2578
  815MOL0     H 7567   1.016   4.797   3.078  1.2585 -1.0795  2.0850
  815MOL0     H 7568   1.094   4.506   2.716 -1.6309 -0.7211  0.8402
  815MOL0     H 7569   1.324   4.476   2.630 -5.0300  0.2608 -0.1489
  815MOL0     H 7570   1.651   4.294   2.880 -0.1563  0.8803  0.7937
  815MOL0     H 7571   1.629   4.454   2.938  0.7353  0.5598 -0.1856
  815MOL0     H 7572   1.796   4.374   2.691 -0.8088 -1.3606  2.1467
  815MOL0     H 7573   1.751   4.537   2.723  4.0131  0.8311 -1.4684
  815MOL0     H 7574   1.906   4.380   2.938  1.0405  1.7188  3.2229
  815MOL0     H 7575   1.867   4.547   2.927 -2.0859 -0.7420  0.5587
  815MOL0     H 7576   2.111   4.446   2.842  0.3670 -3.8237 -2.0883
  815MOL0     H 7577   2.017   4.428   2.691 -1.3517 -0.5954 -0.0278
  815MOL0     H 7578   2.083   4.839   2.680  0.4777 -0.1898  2.2441
  815MOL0     H 7579   1.446   4.354   3.020 -1.6965  0.7852  2.8264
  815MOL0     H 7580   1.230   4.412   3.102 -0.2824 -2.3055 -0.6205
  816MOL0     O 7581  10.398   6.825   7.660  0.2034 -0.1420  0.1413
  816MOL0     C 7582  10.447   6.897   7.574 -0.0175  0.4183 -0.6284
  816MOL0     O 7583  10.383   6.992   7.500 -0.4420  0.4446  0.5133
  816MOL0     C 7584  10.245   7.006   7.490 -0.3496 -0.8749 -0.2897
  816MOL0     C 7585  10.156   6.902   7.499  0.5465  0.4884 -0.5825
  816MOL0     C 7586  10.021   6.928   7.493  0.0942 -0.0240  0.3461
  816MOL0     C 7587   9.973   7.054   7.477  0.4376 -0.2350  0.3327
  816MOL0     O 7588   9.843   7.071   7.487  0.4087  1.0706  0.2325
  816MOL0     C 7589   9.786   7.126   7.605 -0.0511  0.2402  0.6198
  816MOL0     C 7590   9.739   7.004   7.687  0.8534 -0.0249 -0.0071
  816MOL0     C 7591   9.580   7.006   7.724 -0.4463 -0.4250 -0.8291
  816MOL0     C 7592   9.560   7.113   7.832 -0.3457  0.2538  0.6706
  816MOL0     C 7593   9.424   7.156   7.875  0.6133  0.1301 -0.1658
  816MOL0     C 7594   9.318   7.048   7.880 -0.3069 -0.4697 -0.8018
  816MOL0     C 7595   9.191   7.114   7.920  1.1698 -0.6018  0.5327
  816MOL0     C 7596   9.090   7.002   7.935  0.0164 -0.5637 -0.5790
  816MOL0     N 7597   8.995   7.018   8.049 -0.2360  0.3326  0.4363
  816MOL0     C 7598   9.024   7.012   8.185 -0.0135 -0.4526 -0.5444
  816MOL0     C 7599   8.899   7.026   8.239 -0.2009  0.3430 -0.9332
  816MOL0     C 7600   8.874   7.022   8.392 -0.1645 -0.6554 -0.0625
  816MOL0     C 7601   8.728   7.054   8.419 -0.0714 -0.1181 -0.8202
  816MOL0     C 7602   8.707   7.101   8.558 -0.7532  0.2523  0.3795
  816MOL0     C 7603   8.567   7.136   8.596 -1.1459 -0.0478 -0.2385
  816MOL0     O 7604   8.496   7.020   8.626  0.6768  0.8639 -0.0283
  816MOL0     C 7605   8.367   7.045   8.668 -0.3905 -0.0475 -0.2671
  816MOL0     C 7606   8.312   6.944   8.744  0.9342 -0.8652  0.1772
  816MOL0     C 7607   8.189   6.958   8.801  0.2039  0.2266 -0.1819
  816MOL0     C 7608   8.115   7.071   8.785  0.8440  0.3960  0.3644
  816MOL0     C 7609   7.973   7.080   8.840 -0.4829  0.6982  0.0239
  816MOL0     O 7610   7.881   7.153   8.775 -0.0401  0.3149 -0.6723
  816MOL0     C 7611   7.749   7.148   8.811  0.3128  1.0135 -0.0276
  816MOL0     C 7612   7.651   7.134   8.704  0.8765 -0.4690  0.5210
  816MOL0     C 7613   7.509   7.137   8.742 -0.6426  0.5312  0.5871
  816MOL0     C 7614   7.471   7.140   8.875 -0.4423 -1.0057  0.0456
  816MOL0     O 7615   7.338   7.147   8.908  0.4965  0.2814 -0.3310
  816MOL0     C 7616   7.298   7.281   8.925  0.0405 -0.5488  0.0032
  816MOL0     C 7617   7.160   7.273   8.982  0.0998 -0.3930 -0.6994
  816MOL0     C 7618   7.063   7.184   8.890 -1.1669  0.0921 -0.4848
  816MOL0     C 7619   6.915   7.180   8.935 -0.1431 -0.3293 -0.6654
  816MOL0     C 7620   6.898   7.111   9.073  0.3770 -0.1542  0.0984
  816MOL0     C 7621   6.762   7.140   9.144 -0.1879 -0.0745 -0.0390
  816MOL0     C 7622   6.725   7.053   9.270  0.1730  0.3235  0.9075
  816MOL0     C 7623   6.580   7.083   9.308 -0.2438  0.5393  0.5232
  816MOL0    Cl 7624   6.496   6.955   9.400  0.0167 -0.0396  0.1457
  816MOL0     C 7625   7.569   7.154   8.971  0.4811  1.8220  0.4888
  816MOL0     C 7626   7.706   7.159   8.946  0.4799 -0.6642  0.2047
  816MOL0     O 7627   7.954   7.002   8.937 -0.0922 -0.5250  0.1593
  816MOL0     C 7628   8.155   7.171   8.688 -0.4127  0.4892 -0.5499
  816MOL0     C 7629   8.286   7.160   8.641 -0.0150  0.6036 -0.1438
  816MOL0     N 7630   8.803   7.039   8.139  0.8233 -0.0137  0.2751
  816MOL0     N 7631   8.862   7.019   8.035  0.1652  0.2787  0.2101
  816MOL0     C 7632  10.060   7.155   7.461  0.6133  0.1040 -0.3277
  816MOL0     C 7633  10.198   7.137   7.463 -0.0495 -0.1536  0.6604
  816MOL0     C 7634  10.595   6.882   7.559 -1.1166 -0.1348  0.8855
  816MOL0     C 7635  10.655   6.921   7.438 -0.0068 -0.0114  0.7110
  816MOL0     C 7636  10.789   6.887   7.424 -0.2488 -0.9594 -0.2038
  816MOL0     C 7637  10.862   6.834   7.522  0.7180  0.4903 -0.0625
  816MOL0     O 7638  11.000   6.831   7.505  0.5498  0.1570 -0.8542
  816MOL0     C 7639  11.085   6.801   7.617  0.2159 -0.0879  0.6139
  816MOL0     C 7640  11.237   6.837   7.589  0.1925  0.0353  0.2534
  816MOL0     C 7641  11.291   6.778   7.454  0.2993  0.0695  0.2727
  816MOL0     C 7642  11.412   6.845   7.403  0.2420 -0.1172 -0.1169
  816MOL0     C 7643  11.382   6.922   7.283 -0.5481  0.5962  0.2456
  816MOL0     C 7644  11.352   6.973   7.183 -0.3553 -0.7062 -0.2131
  816MOL0     C 7645  10.804   6.802   7.647 -0.9946 -0.0953  1.1995
  816MOL0     C 7646  10.670   6.826   7.663 -0.2932  0.3382  0.0952
  816MOL0     H 7647  10.191   6.800   7.512 -1.1073 -0.1508 -0.8227
  816MOL0     H 7648   9.952   6.845   7.507  0.0738 -0.1747 -0.6418
  816MOL0     H 7649   9.696   7.187   7.591 -0.1935  0.4782  2.3601
  816MOL0     H 7650   9.860   7.177   7.668 -0.0752  0.2736  0.6204
  816MOL0     H 7651   9.788   7.002   7.784 -3.6502 -0.2280  2.5607
  816MOL0     H 7652   9.767   6.914   7.631 -2.4040 -0.2102 -1.6403
  816MOL0     H 7653   9.551   6.907   7.763  0.4464 -1.1891 -2.0441
  816MOL0     H 7654   9.515   7.027   7.639 -0.1893  0.2635 -0.8619
  816MOL0     H 7655   9.619   7.072   7.915 -0.6940 -1.0005  0.3226
  816MOL0     H 7656   9.612   7.206   7.805  1.8309 -0.6205  1.5445
  816MOL0     H 7657   9.400   7.236   7.805  1.1579  0.1656 -0.3110
  816MOL0     H 7658   9.428   7.206   7.972  0.4593  0.2524 -0.2215
  816MOL0     H 7659   9.353   6.976   7.955 -2.7765  0.4091  1.3346
  816MOL0     H 7660   9.309   6.993   7.785 -0.6504  1.0846 -1.6914
  816MOL0     H 7661   9.203   7.178   8.009  3.4843  1.3576 -1.0441
  816MOL0     H 7662   9.164   7.170   7.830  4.0737 -1.9466 -1.3251
  816MOL0     H 7663   9.147   6.910   7.949  1.6584  0.5114  0.0990
  816MOL0     H 7664   9.026   6.993   7.846 -1.3593 -1.8812  0.4883
  816MOL0     H 7665   9.116   7.006   8.242  0.0586 -0.8599 -0.6997
  816MOL0     H 7666   8.938   7.100   8.433 -1.6912 -0.0780  1.3465
  816MOL0     H 7667   8.904   6.925   8.432 -0.8373 -0.9978 -0.3656
  816MOL0     H 7668   8.654   6.979   8.388  1.7434 -1.0742 -3.1849
  816MOL0     H 7669   8.700   7.137   8.353  1.9166  1.6636  0.4369
  816MOL0     H 7670   8.742   7.026   8.630  1.2761  1.4930  0.7648
  816MOL0     H 7671   8.767   7.191   8.577 -1.1264  0.5702  0.0701
  816MOL0     H 7672   8.529   7.178   8.502  4.9299  1.0220 -2.6970
  816MOL0     H 7673   8.562   7.207   8.679 -2.5578  0.9306 -1.1139
  816MOL0     H 7674   8.357   6.846   8.758  1.4868 -0.6998 -0.4227
  816MOL0     H 7675   8.144   6.875   8.854  1.5917 -0.5168 -0.1159
  816MOL0     H 7676   7.682   7.139   8.599 -1.3674  3.2609 -0.1693
  816MOL0     H 7677   7.437   7.145   8.662  2.9514  2.7309 -2.8018
  816MOL0     H 7678   7.284   7.333   8.829 -0.5683  0.4946  0.6393
  816MOL0     H 7679   7.358   7.329   9.003 -1.7939  0.4356  0.8655
  816MOL0     H 7680   7.112   7.372   8.991  1.3182  0.0994  0.8434
  816MOL0     H 7681   7.159   7.243   9.087 -0.2819  3.5387  0.6214
  816MOL0     H 7682   7.100   7.081   8.892  0.7209  0.7146 -1.1178
  816MOL0     H 7683   7.075   7.220   8.787  3.5876  2.4310  0.6289
  816MOL0     H 7684   6.873   7.280   8.951  2.2108  0.3526  2.0778
  816MOL0     H 7685   6.857   7.118   8.866  0.0040 -2.6857  1.2029
  816MOL0     H 7686   6.979   7.148   9.136  2.1005 -0.4312 -1.8739
  816MOL0     H 7687   6.914   7.005   9.054 -1.5891 -0.3947 -0.4427
  816MOL0     H 7688   6.683   7.136   9.069 -0.9977  2.3004  0.6232
  816MOL0     H 7689   6.765   7.243   9.180  0.6639 -0.9709  2.7017
  816MOL0     H 7690   6.730   6.946   9.249  0.7228 -0.0790  2.8802
  816MOL0     H 7691   6.775   7.070   9.366  0.3835  0.4681  0.7707
  816MOL0     H 7692   6.514   7.095   9.221  0.8284  0.5027 -0.3208
  816MOL0     H 7693   6.585   7.176   9.365  0.6752 -0.4667  2.1396
  816MOL0     H 7694   7.530   7.158   9.072 -2.0086 -0.7951 -0.2316
  816MOL0     H 7695   7.770   7.176   9.032 -0.5325 -0.7092  0.9867
  816MOL0     H 7696   8.090   7.255   8.668  0.2123  1.0820 -0.1333
  816MOL0     H 7697   8.334   7.247   8.597  0.2187  0.5404 -0.0159
  816MOL0     H 7698  10.023   7.255   7.438  0.2007 -0.5096 -2.5361
  816MOL0     H 7699  10.263   7.222   7.446 -0.1895 -0.3944 -1.2601
  816MOL0     H 7700  10.611   6.963   7.348  0.1475 -1.0919  0.1106
  816MOL0     H 7701  10.835   6.906   7.327  0.5803 -0.0994  0.3378
  816MOL0     H 7702  11.065   6.697   7.643 -1.7667  0.1519  0.2316
  816MOL0     H 7703  11.048   6.861   7.700 -0.6457  0.1190  0.1014
  816MOL0     H 7704  11.259   6.943   7.599  1.0547 -0.1117  0.0156
  816MOL0     H 7705  11.302   6.785   7.661 -0.5366 -1.6775 -0.2620
  816MOL0     H 7706  11.210   6.787   7.381 -0.3262 -0.4155  0.8983
  816MOL0     H 7707  11.318   6.673   7.470 -0.6447 -0.2075  0.0842
  816MOL0     H 7708  11.454   6.916   7.475  0.7416 -2.4246  2.0076
  816MOL0     H 7709  11.492   6.773   7.384 -0.7032 -0.9428 -1.0853
  816MOL0     H 7710  11.320   7.028   7.097  2.7079  3.2839  0.8574
  816MOL0     H 7711  10.866   6.761   7.726  0.8320  1.4772  0.6397
  816MOL0     H 7712  10.625   6.799   7.758 -0.6363 -0.1640 -0.2088
  817MOL0     O 7713   3.703   6.007   2.204 -0.1558 -0.5232 -0.2563
  817MOL0     C 7714   3.589   6.006   2.256  0.7159 -0.9174  0.0371
  817MOL0     O 7715   3.559   6.062   2.381 -0.7686  0.0171  0.0481
  817MOL0     C 7716   3.666   6.111   2.449 -0.5311  0.7737  0.6034
  817MOL0     C 7717   3.758   6.032   2.514 -0.6991  0.6173  0.3867
  817MOL0     C 7718   3.867   6.086   2.572 -1.1860 -0.5670  0.4671
  817MOL0     C 7719   3.874   6.216   2.608  0.0137  0.4686  0.1062
  817MOL0     O 7720   3.983   6.264   2.671  0.2630 -0.0114 -0.8997
  817MOL0     C 7721   3.984   6.405   2.700  0.6949  0.6765 -0.3464
  817MOL0     C 7722   4.126   6.422   2.761 -0.4469 -0.7974  0.4415
  817MOL0     C 7723   4.159   6.566   2.749 -0.2602 -0.1198 -0.2856
  817MOL0     C 7724   4.316   6.590   2.778  0.4965 -0.4377 -0.7157
  817MOL0     C 7725   4.365   6.742   2.754 -0.1371  0.5072  0.3186
  817MOL0     C 7726   4.386   6.765   2.602 -0.0530  0.2478 -0.8333
  817MOL0     C 7727   4.438   6.909   2.585 -0.2850 -0.3604 -0.0176
  817MOL0     C 7728   4.463   6.957   2.447 -1.0687  0.1373 -0.3236
  817MOL0     N 7729   4.355   6.936   2.355 -0.0704  0.8319  0.1733
  817MOL0     C 7730   4.351   6.869   2.229  0.1350  0.6434 -0.0387
  817MOL0     C 7731   4.226   6.876   2.182  0.0850 -0.1457 -0.0399
  817MOL0     C 7732   4.157   6.820   2.062 -0.1183  0.0649  0.1108
  817MOL0     C 7733   4.169   6.922   1.952  0.2852 -0.3467  0.1416
  817MOL0     C 7734   4.087   7.056   1.963  0.4180 -0.3216 -0.6557
  817MOL0     C 7735   3.947   7.043   2.009 -0.5377 -0.7757  0.2777
  817MOL0     O 7736   3.868   6.961   1.916 -0.3695 -0.3129  0.0799
  817MOL0     C 7737   3.729   6.947   1.945 -1.3104 -0.0311  0.9194
  817MOL0     C 7738   3.651   6.885   1.853  0.0160 -0.0109  0.6451
  817MOL0     C 7739   3.515   6.863   1.873 -0.1004  0.6438  0.6268
  817MOL0     C 7740   3.450   6.911   1.982 -0.9671 -0.3867 -0.9169
  817MOL0     C 7741   3.305   6.898   1.998  0.0922 -0.2794  0.3550
  817MOL0     O 7742   3.259   6.914   2.129 -0.0902  0.4030 -0.4074
  817MOL0     C 7743   3.130   6.891   2.145 -0.2016  0.3132 -0.4877
  817MOL0     C 7744   3.097   6.777   2.215 -0.0751  0.9384  0.1802
  817MOL0     C 7745   2.960   6.734   2.217 -0.4171  1.1696 -0.4639
  817MOL0     C 7746   2.861   6.805   2.151 -0.2288 -0.7657 -0.0539
  817MOL0     O 7747   2.738   6.747   2.150  0.5354  0.8779  0.1045
  817MOL0     C 7748   2.633   6.828   2.101  0.2755  0.8060 -0.1350
  817MOL0     C 7749   2.507   6.740   2.111  0.6548  0.1729 -0.2922
  817MOL0     C 7750   2.458   6.683   2.246 -0.5596 -0.4852  0.6184
  817MOL0     C 7751   2.316   6.628   2.236  0.3872 -0.0031 -1.3292
  817MOL0     C 7752   2.265   6.557   2.361  0.0181  0.4957  0.4355
  817MOL0     C 7753   2.132   6.484   2.342 -0.1890  0.1267  0.4404
  817MOL0     C 7754   2.144   6.352   2.267 -0.3850  0.0117  0.1514
  817MOL0     C 7755   2.056   6.236   2.320  0.3554 -0.4844  0.6701
  817MOL0    Cl 7756   1.889   6.293   2.355  0.5132 -0.1305 -0.3537
  817MOL0     C 7757   2.896   6.931   2.096  0.2910 -0.3206 -0.0777
  817MOL0     C 7758   3.028   6.970   2.086  0.5803 -1.0575  0.0176
  817MOL0     O 7759   3.238   6.870   1.897 -1.2412  0.4592  0.6568
  817MOL0     C 7760   3.526   6.984   2.079 -0.5440  0.6379 -0.3731
  817MOL0     C 7761   3.669   6.991   2.059  0.7907 -0.4891 -0.6331
  817MOL0     N 7762   4.152   6.946   2.276 -0.0893  0.0280  0.4415
  817MOL0     N 7763   4.224   6.973   2.375  0.1803  0.3510 -0.8625
  817MOL0     C 7764   3.771   6.297   2.555 -0.0384  0.2346 -0.4388
  817MOL0     C 7765   3.670   6.250   2.477  0.0796  0.7067 -0.1945
  817MOL0     C 7766   3.468   5.941   2.182 -0.3457  0.4230  0.1079
  817MOL0     C 7767   3.481   5.903   2.052 -0.2548 -0.0874  0.2481
  817MOL0     C 7768   3.372   5.852   1.985 -0.1331 -0.4745 -0.5056
  817MOL0     C 7769   3.253   5.834   2.046  0.7313 -0.2737  0.5250
  817MOL0     O 7770   3.156   5.777   1.966  0.2913  0.0001  0.2313
  817MOL0     C 7771   3.016   5.807   1.984  0.8951 -0.2471 -0.4579
  817MOL0     C 7772   2.922   5.769   1.872 -0.4310  0.1182  0.3894
  817MOL0     C 7773   2.915   5.873   1.753  0.7022 -0.0732  0.0350
  817MOL0     C 7774   3.001   5.843   1.631 -0.0496 -0.3777  0.5305
  817MOL0     C 7775   2.957   5.714   1.587  1.3715  0.3797  0.4185
  817MOL0     C 7776   2.929   5.601   1.550 -0.1291 -0.2878  0.3383
  817MOL0     C 7777   3.230   5.870   2.181 -0.6802 -0.4308 -0.5329
  817MOL0     C 7778   3.341   5.928   2.247 -0.3526 -0.3596  0.3143
  817MOL0     H 7779   3.756   5.925   2.495  1.9062  0.5331  0.1649
  817MOL0     H 7780   3.948   6.019   2.598 -1.7300 -1.7934 -0.8505
  817MOL0     H 7781   3.912   6.434   2.777  0.1745  0.6167 -0.8056
  817MOL0     H 7782   3.975   6.469   2.611 -0.4425 -0.8440 -1.3891
  817MOL0     H 7783   4.200   6.377   2.694 -0.7966  0.7351 -1.0248
  817MOL0     H 7784   4.132   6.391   2.866 -2.6328  0.1713  0.9000
  817MOL0     H 7785   4.100   6.619   2.825  0.8841  0.7604  0.0063
  817MOL0     H 7786   4.133   6.597   2.647  0.3003 -1.0959 -0.7362
  817MOL0     H 7787   4.343   6.556   2.878 -2.5475 -0.9861  0.0255
  817MOL0     H 7788   4.374   6.523   2.713  0.4233 -2.5739  1.2979
  817MOL0     H 7789   4.463   6.756   2.799 -0.1835  1.1668  0.2225
  817MOL0     H 7790   4.294   6.812   2.799 -0.6570  0.4074 -0.3206
  817MOL0     H 7791   4.288   6.751   2.556  0.2851 -0.4566 -1.3489
  817MOL0     H 7792   4.445   6.683   2.562 -0.6400 -1.0828  0.9118
  817MOL0     H 7793   4.362   6.976   2.629  0.6446 -0.4034  1.7545
  817MOL0     H 7794   4.526   6.932   2.645 -1.5030  0.5503  1.5023
  817MOL0     H 7795   4.548   6.894   2.420 -1.0947 -0.5532  1.0946
  817MOL0     H 7796   4.495   7.062   2.449  0.8429 -0.4074 -0.1512
  817MOL0     H 7797   4.433   6.833   2.168 -0.6084 -0.4229 -0.4475
  817MOL0     H 7798   4.055   6.782   2.067  0.9198 -2.8032  3.0142
  817MOL0     H 7799   4.209   6.728   2.033 -1.0386 -0.3958 -0.1227
  817MOL0     H 7800   4.130   6.875   1.861  1.6687  3.8273 -2.9555
  817MOL0     H 7801   4.275   6.947   1.936  0.6087 -0.1502  2.3527
  817MOL0     H 7802   4.135   7.118   2.040  1.3080 -1.6592 -0.0876
  817MOL0     H 7803   4.082   7.112   1.869 -2.5783  2.6218  1.0364
  817MOL0     H 7804   3.909   7.146   2.006  2.0116  0.2797  1.2943
  817MOL0     H 7805   3.939   6.992   2.105  1.1359 -0.6100  0.5354
  817MOL0     H 7806   3.683   6.843   1.759 -0.0659  4.1832 -1.4816
  817MOL0     H 7807   3.456   6.809   1.800 -0.3175  0.7245  0.7426
  817MOL0     H 7808   3.174   6.716   2.260  0.1694  1.3924  0.3855
  817MOL0     H 7809   2.935   6.648   2.279  4.6150  0.4731  1.0639
  817MOL0     H 7810   2.655   6.867   2.001  0.0641 -0.1412 -0.5529
  817MOL0     H 7811   2.616   6.907   2.176  2.7487 -1.6094  3.2874
  817MOL0     H 7812   2.527   6.666   2.033  0.3192  1.5405 -1.7176
  817MOL0     H 7813   2.428   6.805   2.073  0.7879 -0.2006 -1.2485
  817MOL0     H 7814   2.462   6.765   2.318 -4.3907  0.8682 -0.4914
  817MOL0     H 7815   2.531   6.607   2.275 -0.3545 -0.1836  0.9071
  817MOL0     H 7816   2.255   6.713   2.205 -1.6796 -1.1785 -0.6855
  817MOL0     H 7817   2.327   6.553   2.157  0.4794 -0.4430 -0.9008
  817MOL0     H 7818   2.245   6.627   2.443  0.3392 -0.7498  1.6034
  817MOL0     H 7819   2.328   6.478   2.401 -0.1862 -0.4604 -1.0498
  817MOL0     H 7820   2.063   6.551   2.290 -0.3676 -0.6037 -0.2827
  817MOL0     H 7821   2.088   6.473   2.442  2.0643  1.5255  1.6639
  817MOL0     H 7822   2.096   6.351   2.168 -1.0499 -3.6961  0.3520
  817MOL0     H 7823   2.250   6.326   2.257 -0.0753  0.4321  2.0030
  817MOL0     H 7824   2.099   6.202   2.415  2.4095 -0.5421 -0.2239
  817MOL0     H 7825   2.048   6.163   2.239  0.0383  3.6053 -3.3778
  817MOL0     H 7826   2.816   6.996   2.061  0.9658  0.2960 -0.4901
  817MOL0     H 7827   3.050   7.064   2.036 -0.0776  0.0091  1.6601
  817MOL0     H 7828   3.479   7.028   2.166  0.6555  0.6494  0.2917
  817MOL0     H 7829   3.715   7.039   2.145 -0.5296 -1.8450  0.8947
  817MOL0     H 7830   3.770   6.403   2.578 -2.1773  0.6708 -2.2254
  817MOL0     H 7831   3.601   6.328   2.447 -2.0877 -0.9265  0.3299
  817MOL0     H 7832   3.581   5.903   2.008 -1.0023  0.4215 -1.5460
  817MOL0     H 7833   3.396   5.828   1.882  0.6683  0.6783 -0.5964
  817MOL0     H 7834   3.015   5.917   1.990  1.7275 -0.2965  1.2423
  817MOL0     H 7835   2.979   5.759   2.075  1.1276  0.0645 -0.1966
  817MOL0     H 7836   2.943   5.668   1.836  0.6588 -0.5124  2.6491
  817MOL0     H 7837   2.818   5.765   1.907 -0.1739  1.9540  1.4815
  817MOL0     H 7838   2.929   5.977   1.783 -1.4807  0.0732  0.7188
  817MOL0     H 7839   2.810   5.886   1.726  0.7328  0.9165  0.3489
  817MOL0     H 7840   2.988   5.915   1.550  0.5698 -0.8419  0.0065
  817MOL0     H 7841   3.109   5.832   1.646 -0.2924 -2.2025  1.2759
  817MOL0     H 7842   2.924   5.510   1.495  2.0690  0.2315 -0.7882
  817MOL0     H 7843   3.135   5.846   2.226 -1.6833  2.1890 -1.0860
  817MOL0     H 7844   3.337   5.957   2.352 -1.2824 -0.5616  0.3463
  818MOL0     O 7845   7.965  10.074  10.560  1.1009  0.4073 -0.3148
  818MOL0     C 7846   8.054  10.013  10.611  0.1091 -0.3005  0.5489
  818MOL0     O 7847   8.035   9.896  10.677 -0.1450  0.0945  0.5795
  818MOL0     C 7848   7.909   9.859  10.711 -0.6116  0.1344 -0.0971
  818MOL0     C 7849   7.843   9.771  10.623 -0.8069 -0.1614  0.3744
  818MOL0     C 7850   7.722   9.724  10.661 -0.1852  0.0732  0.1993
  818MOL0     C 7851   7.661   9.763  10.784  0.2718 -0.4844  0.2041
  818MOL0     O 7852   7.534   9.724  10.827  0.8688  0.5494  0.0870
  818MOL0     C 7853   7.454   9.633  10.750 -0.7207  0.8061  0.1007
  818MOL0     C 7854   7.386   9.705  10.629 -0.0894  0.4505 -0.2690
  818MOL0     C 7855   7.267   9.616  10.582  0.0056  0.4479  0.2868
  818MOL0     C 7856   7.186   9.678  10.473 -0.9748 -1.3294 -0.6368
  818MOL0     C 7857   7.073   9.602  10.428  0.4046  0.2935 -0.6224
  818MOL0     C 7858   6.952   9.626  10.514  0.1565  0.4115  0.9698
  818MOL0     C 7859   6.833   9.563  10.444  0.1013 -0.5718  0.9961
  818MOL0     C 7860   6.694   9.600  10.507 -0.7574 -0.6663  0.5788
  818MOL0     N 7861   6.583   9.520  10.451 -0.6628  0.7700  0.2790
  818MOL0     C 7862   6.460   9.514  10.513 -0.4774 -0.5430  0.6680
  818MOL0     C 7863   6.391   9.422  10.434 -0.7222  0.5154  0.4412
  818MOL0     C 7864   6.245   9.372  10.431 -0.6556 -0.9270 -0.4193
  818MOL0     C 7865   6.168   9.409  10.304 -0.1209  0.2639 -0.1059
  818MOL0     C 7866   6.024   9.371  10.319  0.7772  0.0844 -0.5050
  818MOL0     C 7867   5.946   9.436  10.207  0.6190 -0.9717 -0.2645
  818MOL0     O 7868   5.804   9.429  10.232 -0.2454  0.0525 -0.1324
  818MOL0     C 7869   5.723   9.461  10.128  1.0327 -0.5046  0.4250
  818MOL0     C 7870   5.588   9.443  10.155 -0.0581  0.3733 -0.7407
  818MOL0     C 7871   5.487   9.480  10.056 -0.2368  0.7157 -0.2557
  818MOL0     C 7872   5.526   9.527   9.937  0.6280 -0.7801  0.2148
  818MOL0     C 7873   5.419   9.560   9.842  0.6341  0.0874  1.4799
  818MOL0     O 7874   5.292   9.553   9.892  0.0780  0.3370 -0.3927
  818MOL0     C 7875   5.170   9.599   9.840  0.0541 -0.3081  0.0453
  818MOL0     C 7876   5.060   9.608   9.921 -0.6647  0.2708 -0.1028
  818MOL0     C 7877   4.937   9.643   9.876  0.8304 -0.2854 -0.2475
  818MOL0     C 7878   4.923   9.663   9.739 -1.4414 -0.1529  0.8514
  818MOL0     O 7879   4.793   9.676   9.690 -0.1200  0.0295  0.2474
  818MOL0     C 7880   4.688   9.731   9.772  0.2490 -0.3218  0.0640
  818MOL0     C 7881   4.566   9.738   9.679  0.4244  0.2255  0.4055
  818MOL0     C 7882   4.493   9.600   9.684 -0.2773  0.9546 -0.7246
  818MOL0     C 7883   4.366   9.589   9.604  0.1293 -0.3312 -0.3960
  818MOL0     C 7884   4.256   9.691   9.660  0.8472 -0.6128  0.3104
  818MOL0     C 7885   4.117   9.686   9.583 -0.7171 -0.6227 -0.7560
  818MOL0     C 7886   4.059   9.821   9.615  0.9063 -0.2932 -0.4024
  818MOL0     C 7887   3.923   9.820   9.542  0.1857 -0.0078  0.0905
  818MOL0    Cl 7888   3.940   9.894   9.379  0.1561 -0.1971 -0.2074
  818MOL0     C 7889   5.025   9.635   9.653 -0.5461  0.3216 -0.0435
  818MOL0     C 7890   5.155   9.608   9.701 -0.4802 -0.4858 -0.8718
  818MOL0     O 7891   5.451   9.610   9.731 -0.4929  0.3965 -0.0807
  818MOL0     C 7892   5.663   9.552   9.914 -0.1071  0.3438  0.2776
  818MOL0     C 7893   5.763   9.526  10.010 -0.0386  0.0925 -0.1187
  818MOL0     N 7894   6.478   9.373  10.336  0.6140 -0.4628  0.1346
  818MOL0     N 7895   6.582   9.436  10.350 -0.7686  0.7753  0.1544
  818MOL0     C 7896   7.735   9.841  10.867 -0.3537  1.1650 -0.2771
  818MOL0     C 7897   7.855   9.891  10.832  0.0065  0.5153 -0.1887
  818MOL0     C 7898   8.188  10.079  10.598  0.4068 -0.3976 -0.0933
  818MOL0     C 7899   8.205  10.201  10.525  0.0360  0.6096  0.3982
  818MOL0     C 7900   8.337  10.237  10.508 -0.5063  0.0203 -0.5131
  818MOL0     C 7901   8.452  10.172  10.568  0.0238 -0.2481 -0.5683
  818MOL0     O 7902   8.585  10.188  10.554  0.0398  0.3421  0.5432
  818MOL0     C 7903   8.630  10.297  10.470  1.5064 -0.0628  0.4940
  818MOL0     C 7904   8.779  10.259  10.422  0.3484  0.4032  0.7833
  818MOL0     C 7905   8.900  10.353  10.453 -0.6244 -0.8789  0.4215
  818MOL0     C 7906   9.035  10.308  10.386 -0.4877 -0.8964  0.1120
  818MOL0     C 7907   9.028  10.347  10.238  0.4977  0.7975  0.4575
  818MOL0     C 7908   9.020  10.384  10.121 -0.3044  1.0859  0.5257
  818MOL0     C 7909   8.417  10.066  10.652  0.5175  0.0952 -0.6450
  818MOL0     C 7910   8.294  10.019  10.674  0.1299 -0.4745 -0.1157
  818MOL0     H 7911   7.884   9.757  10.524  0.8811  0.8465  0.8832
  818MOL0     H 7912   7.675   9.653  10.594 -0.5640 -1.2165  1.7784
  818MOL0     H 7913   7.373   9.593  10.812 -3.0830  1.8260 -2.1556
  818MOL0     H 7914   7.513   9.547  10.715 -2.0081 -1.0451  2.1853
  818MOL0     H 7915   7.457   9.722  10.548  0.3381  2.4037  0.4657
  818MOL0     H 7916   7.348   9.805  10.652 -3.6548 -0.8147  0.1067
  818MOL0     H 7917   7.202   9.589  10.666 -2.4090 -0.8413 -1.8689
  818MOL0     H 7918   7.310   9.524  10.542 -0.2711  0.9565 -1.2647
  818MOL0     H 7919   7.152   9.775  10.510 -0.7052 -0.8777 -1.5413
  818MOL0     H 7920   7.263   9.690  10.397  1.4201 -0.9941  1.6974
  818MOL0     H 7921   7.104   9.497  10.432 -1.0792 -0.1768 -1.0736
  818MOL0     H 7922   7.049   9.630  10.325 -1.7437 -2.4569 -0.9721
  818MOL0     H 7923   6.928   9.732  10.530 -4.2451 -0.4134  1.1835
  818MOL0     H 7924   6.964   9.585  10.615 -2.0526 -1.6273  0.4807
  818MOL0     H 7925   6.830   9.587  10.337 -0.3456  0.7872  1.2995
  818MOL0     H 7926   6.848   9.454  10.447  1.6493 -0.4274 -0.2889
  818MOL0     H 7927   6.671   9.705  10.485 -0.2486 -0.8276 -0.8642
  818MOL0     H 7928   6.707   9.581  10.614  0.0546  1.3783  0.8932
  818MOL0     H 7929   6.429   9.582  10.591  0.9476  4.3297 -2.5686
  818MOL0     H 7930   6.199   9.420  10.517  0.2328  2.8329 -1.8564
  818MOL0     H 7931   6.237   9.263  10.438 -0.7075 -0.8372  1.2275
  818MOL0     H 7932   6.216   9.368  10.215  2.0232 -2.2132  2.0574
  818MOL0     H 7933   6.180   9.518  10.297  1.7800  0.2172  1.5226
  818MOL0     H 7934   6.020   9.263  10.301 -2.1315 -0.4716  2.5114
  818MOL0     H 7935   5.986   9.394  10.419 -0.8580 -1.4950 -0.7245
  818MOL0     H 7936   5.969   9.399  10.106 -1.1935 -0.0997 -1.0319
  818MOL0     H 7937   5.977   9.540  10.200  2.1317 -1.1507  2.2534
  818MOL0     H 7938   5.550   9.396  10.246 -3.0868 -0.5959 -2.3630
  818MOL0     H 7939   5.389   9.458  10.097 -1.1676 -0.7088 -3.0028
  818MOL0     H 7940   5.059   9.598  10.029 -0.2218  1.1487 -0.0165
  818MOL0     H 7941   4.859   9.649   9.951  0.6866  3.7382 -0.4635
  818MOL0     H 7942   4.709   9.832   9.807  5.2075 -1.3599  0.7578
  818MOL0     H 7943   4.672   9.670   9.862 -2.2175  2.5587  1.7634
  818MOL0     H 7944   4.595   9.766   9.578  3.5984 -0.3645  1.0405
  818MOL0     H 7945   4.505   9.824   9.709 -0.3629  0.0709 -0.7165
  818MOL0     H 7946   4.488   9.574   9.790 -0.7283  3.4180 -0.0803
  818MOL0     H 7947   4.560   9.525   9.640  0.1092  1.7453 -1.5247
  818MOL0     H 7948   4.375   9.610   9.497 -4.0994 -2.3590 -1.3623
  818MOL0     H 7949   4.324   9.488   9.610  0.9342 -0.6167  2.9911
  818MOL0     H 7950   4.298   9.791   9.643 -2.0025  0.3843 -1.6065
  818MOL0     H 7951   4.240   9.674   9.766 -1.4468 -2.8306 -0.3111
  818MOL0     H 7952   4.068   9.594   9.616 -1.4572  0.7183  2.1405
  818MOL0     H 7953   4.140   9.683   9.476  1.2089 -0.5655 -0.3801
  818MOL0     H 7954   4.047   9.834   9.723 -1.6842 -0.4090 -0.6285
  818MOL0     H 7955   4.120   9.906   9.584  1.0963  0.1563  1.0817
  818MOL0     H 7956   3.852   9.880   9.600 -2.3270 -1.0438 -1.7019
  818MOL0     H 7957   3.878   9.721   9.533 -0.7053  0.2170  1.6758
  818MOL0     H 7958   5.010   9.621   9.547 -1.3229 -2.8568  0.3886
  818MOL0     H 7959   5.238   9.582   9.636 -1.6085  0.0742 -2.6161
  818MOL0     H 7960   5.694   9.600   9.822  0.3810 -0.4174  0.0351
  818MOL0     H 7961   5.866   9.550   9.987 -0.1434  1.8490  1.0442
  818MOL0     H 7962   7.695   9.858  10.966  0.1835 -3.5755  1.0200
  818MOL0     H 7963   7.907   9.955  10.902  0.8701 -1.7236  1.3470
  818MOL0     H 7964   8.130  10.241  10.458 -1.1198  0.1515  1.3958
  818MOL0     H 7965   8.346  10.314  10.432 -0.2716  2.1112  1.5240
  818MOL0     H 7966   8.623  10.395  10.518 -0.5733  0.1341 -0.0991
  818MOL0     H 7967   8.560  10.300  10.385  0.6820 -0.5717  1.1341
  818MOL0     H 7968   8.811  10.164  10.466  1.1107  1.0449  1.6649
  818MOL0     H 7969   8.772  10.232  10.316 -1.0749  1.2774  0.6205
  818MOL0     H 7970   8.906  10.358  10.562 -0.8024 -3.5938  0.6250
  818MOL0     H 7971   8.871  10.450  10.411  0.1838 -0.6065  0.4646
  818MOL0     H 7972   9.115  10.360  10.440 -1.6121  2.2661 -1.0425
  818MOL0     H 7973   9.047  10.200  10.395 -1.4271 -0.8822  2.1101
  818MOL0     H 7974   9.013  10.395  10.015 -1.2003 -2.1160  0.1429
  818MOL0     H 7975   8.486  10.018  10.721  0.1647  2.5134  1.5831
  818MOL0     H 7976   8.278   9.932  10.736 -1.0998 -0.5219 -0.4715
  819MOL0     O 7977   5.240   7.650   9.316  0.1819  0.0058  0.3398
  819MOL0     C 7978   5.275   7.637   9.198  1.0148  1.0303 -0.5354
  819MOL0     O 7979   5.186   7.610   9.096  0.5562  0.0223 -0.4545
  819MOL0     C 7980   5.048   7.599   9.119 -1.2247  0.1284 -0.3634
  819MOL0     C 7981   4.986   7.511   9.040 -0.0029 -0.4101  0.1733
  819MOL0     C 7982   4.848   7.517   9.030 -0.3072 -0.4620  0.2447
  819MOL0     C 7983   4.775   7.595   9.117  0.5022  0.1550 -0.5196
  819MOL0     O 7984   4.641   7.593   9.123 -0.2723  0.2186  0.0970
  819MOL0     C 7985   4.561   7.573   9.004 -0.0762 -0.0457 -0.3230
  819MOL0     C 7986   4.537   7.699   8.919 -0.0751  0.3379  0.1218
  819MOL0     C 7987   4.452   7.666   8.792  0.1590 -0.3165 -0.6498
  819MOL0     C 7988   4.410   7.800   8.719  0.2736 -0.8465 -0.1268
  819MOL0     C 7989   4.285   7.766   8.638  0.0054 -0.2564  0.5505
  819MOL0     C 7990   4.246   7.902   8.577  0.3035 -0.3205 -0.6925
  819MOL0     C 7991   4.115   7.897   8.491  0.5442 -0.2706  0.7635
  819MOL0     C 7992   4.053   8.041   8.466  1.0337  0.2891 -0.1697
  819MOL0     N 7993   3.997   8.101   8.587  0.3327  0.1098 -0.3538
  819MOL0     C 7994   4.075   8.158   8.680 -0.0599  0.2140 -0.8443
  819MOL0     C 7995   3.992   8.167   8.782 -0.4319  0.3467  0.6316
  819MOL0     C 7996   4.043   8.207   8.920  0.5082 -0.3741  1.4017
  819MOL0     C 7997   3.968   8.338   8.964 -0.1330 -0.7864 -0.5265
  819MOL0     C 7998   3.947   8.450   8.859  0.1299  0.4147 -0.5234
  819MOL0     C 7999   3.855   8.551   8.909 -0.2824 -0.4503 -0.1771
  819MOL0     O 8000   3.799   8.612   8.794 -0.3715 -0.1547 -0.9471
  819MOL0     C 8001   3.695   8.705   8.805 -0.3923 -0.1139 -0.0083
  819MOL0     C 8002   3.619   8.729   8.917 -0.8290 -0.0461 -0.3082
  819MOL0     C 8003   3.501   8.812   8.909  0.3722 -0.1307  0.5081
  819MOL0     C 8004   3.459   8.873   8.791 -0.5595 -0.2999  0.6518
  819MOL0     C 8005   3.352   8.972   8.792  0.2424  0.9000 -0.5586
  819MOL0     O 8006   3.302   9.000   8.667 -0.0134  0.1674  0.2405
  819MOL0     C 8007   3.181   9.056   8.658 -0.0350 -0.6078 -0.5003
  819MOL0     C 8008   3.165   9.188   8.615 -0.3920 -0.6592 -0.0450
  819MOL0     C 8009   3.033   9.249   8.612  0.1478 -0.0796  0.6901
  819MOL0     C 8010   2.924   9.167   8.652 -0.3900  0.3119 -0.3539
  819MOL0     O 8011   2.802   9.229   8.647 -0.2768  1.0923  0.1225
  819MOL0     C 8012   2.766   9.302   8.529 -0.4400 -0.5745 -0.0023
  819MOL0     C 8013   2.635   9.367   8.550  1.1066 -0.0285  0.1927
  819MOL0     C 8014   2.516   9.271   8.553 -0.1265  0.1331 -0.2059
  819MOL0     C 8015   2.378   9.337   8.569  0.2418 -0.6465 -0.4661
  819MOL0     C 8016   2.252   9.250   8.552  0.0485  0.2120  0.0446
  819MOL0     C 8017   2.127   9.340   8.560  0.2140  0.5385 -0.2411
  819MOL0     C 8018   2.001   9.247   8.547 -0.1770 -1.0758  0.0425
  819MOL0     C 8019   1.874   9.320   8.504 -0.1823 -0.0057  0.3232
  819MOL0    Cl 8020   1.721   9.218   8.504  0.2772  0.4256 -0.1123
  819MOL0     C 8021   2.936   9.045   8.710 -0.0302  0.1512  0.8836
  819MOL0     C 8022   3.067   8.988   8.710 -0.0054  0.4232  0.1832
  819MOL0     O 8023   3.306   9.018   8.902 -0.2901  1.0983 -0.1988
  819MOL0     C 8024   3.536   8.842   8.674 -0.4898  0.3906  0.1314
  819MOL0     C 8025   3.648   8.758   8.683  0.1117 -0.1598  0.2602
  819MOL0     N 8026   3.864   8.122   8.754  0.5886  0.6825 -0.2861
  819MOL0     N 8027   3.866   8.079   8.629 -0.5874  0.0436 -0.8997
  819MOL0     C 8028   4.845   7.675   9.208 -0.8361 -1.1374  0.1934
  819MOL0     C 8029   4.978   7.683   9.203  0.1940 -0.1082 -0.1125
  819MOL0     C 8030   5.412   7.667   9.157 -0.4452  0.1972 -1.1010
  819MOL0     C 8031   5.444   7.713   9.031 -0.0232  0.0314  0.3079
  819MOL0     C 8032   5.575   7.752   8.992 -0.1870 -0.3397  0.3800
  819MOL0     C 8033   5.676   7.754   9.089 -0.9917 -0.1261  0.5220
  819MOL0     O 8034   5.799   7.787   9.041 -0.1706  0.3710  0.7294
  819MOL0     C 8035   5.913   7.815   9.126 -0.6379 -0.0717 -0.9085
  819MOL0     C 8036   6.033   7.869   9.039  0.0068  0.2365  0.0829
  819MOL0     C 8037   6.153   7.901   9.127  0.2825  0.4288 -0.4569
  819MOL0     C 8038   6.285   7.920   9.051  0.6759  0.5773 -0.1721
  819MOL0     C 8039   6.279   8.049   8.972  0.1422 -0.0478 -0.1224
  819MOL0     C 8040   6.284   8.146   8.898 -0.1231 -0.7463  0.2796
  819MOL0     C 8041   5.645   7.714   9.220 -0.5247  0.2420  0.7600
  819MOL0     C 8042   5.512   7.678   9.257 -0.5730  0.0408  0.8204
  819MOL0     H 8043   5.031   7.440   8.972  0.1639  1.6349 -1.9850
  819MOL0     H 8044   4.805   7.458   8.950 -0.9904 -2.4872  2.0056
  819MOL0     H 8045   4.463   7.529   9.025 -1.3320  1.9206 -1.7261
  819MOL0     H 8046   4.606   7.492   8.946  0.7551  0.1331  0.0546
  819MOL0     H 8047   4.634   7.734   8.883  0.7206 -1.4372  0.4291
  819MOL0     H 8048   4.486   7.777   8.975  0.1958  0.5147  0.1230
  819MOL0     H 8049   4.361   7.614   8.824 -1.1581  0.8537 -2.3529
  819MOL0     H 8050   4.513   7.601   8.728 -1.9732 -2.2222 -0.8793
  819MOL0     H 8051   4.383   7.884   8.784  1.5877  0.4634 -1.2155
  819MOL0     H 8052   4.492   7.827   8.652 -0.9404 -0.8802 -1.6837
  819MOL0     H 8053   4.207   7.729   8.705 -0.4418 -0.1791  0.0833
  819MOL0     H 8054   4.294   7.705   8.548 -1.2634  1.8387 -1.0834
  819MOL0     H 8055   4.332   7.943   8.524  0.5564  0.2789  0.1698
  819MOL0     H 8056   4.230   7.963   8.666  0.6516 -2.5989  1.0359
  819MOL0     H 8057   4.135   7.849   8.395  0.3523  1.3249 -0.1201
  819MOL0     H 8058   4.033   7.852   8.547  1.6525 -1.6884  1.2903
  819MOL0     H 8059   3.966   8.028   8.401 -0.1537  2.7890  0.8180
  819MOL0     H 8060   4.134   8.100   8.422  0.3177  1.0912 -0.4332
  819MOL0     H 8061   4.177   8.190   8.665  0.2840 -0.9932 -1.2598
  819MOL0     H 8062   4.152   8.217   8.914  0.3688  0.3013 -1.2926
  819MOL0     H 8063   4.007   8.126   8.984 -0.3965 -1.6435 -0.6343
  819MOL0     H 8064   4.025   8.374   9.050 -0.2057 -0.9217 -0.4214
  819MOL0     H 8065   3.869   8.309   9.002 -0.2822 -0.6512 -0.8031
  819MOL0     H 8066   4.041   8.504   8.846 -0.2104  1.6610  1.6170
  819MOL0     H 8067   3.911   8.410   8.764 -0.8973  0.6892 -0.2677
  819MOL0     H 8068   3.906   8.627   8.970 -1.6076  1.4498 -1.3081
  819MOL0     H 8069   3.781   8.505   8.975  2.4330 -1.6112  2.2492
  819MOL0     H 8070   3.636   8.688   9.016  0.3398  1.5494  0.1772
  819MOL0     H 8071   3.447   8.818   9.002  0.3824 -1.8974  0.6555
  819MOL0     H 8072   3.245   9.243   8.566  0.7076 -2.3292 -0.2093
  819MOL0     H 8073   3.025   9.351   8.578  1.1888  0.3961  1.8266
  819MOL0     H 8074   2.757   9.226   8.450 -2.5015  0.1555 -0.5283
  819MOL0     H 8075   2.836   9.382   8.504  0.7834 -1.9316 -1.0879
  819MOL0     H 8076   2.630   9.442   8.471  0.6359  0.3709  0.5967
  819MOL0     H 8077   2.652   9.416   8.646  0.7422  1.1064 -0.3063
  819MOL0     H 8078   2.531   9.211   8.644  1.9517  2.1286  0.8607
  819MOL0     H 8079   2.516   9.202   8.468  0.4938 -0.7883  0.5123
  819MOL0     H 8080   2.369   9.385   8.667  0.3303 -1.8551  0.1615
  819MOL0     H 8081   2.372   9.410   8.488 -1.3790 -0.2106  0.0201
  819MOL0     H 8082   2.243   9.167   8.623  2.9129 -0.7744 -0.6107
  819MOL0     H 8083   2.251   9.205   8.452 -2.9019 -0.6374  0.3445
  819MOL0     H 8084   2.130   9.418   8.484  2.0284 -1.2972 -2.1905
  819MOL0     H 8085   2.123   9.396   8.653  2.5579  3.5852 -1.8121
  819MOL0     H 8086   2.020   9.154   8.493  3.4894 -1.0826  1.0298
  819MOL0     H 8087   1.996   9.216   8.652  3.8671  3.1624  1.8858
  819MOL0     H 8088   1.889   9.358   8.402  1.7724 -1.6922 -0.0735
  819MOL0     H 8089   1.865   9.407   8.570  0.9222  0.0942  0.3589
  819MOL0     H 8090   2.849   8.983   8.728  1.1502 -0.7158  4.4068
  819MOL0     H 8091   3.086   8.889   8.749  3.7383  1.3558  1.1985
  819MOL0     H 8092   3.522   8.899   8.583  1.6068 -0.9082 -1.0641
  819MOL0     H 8093   3.710   8.741   8.595 -2.1703  1.4934 -1.8157
  819MOL0     H 8094   4.785   7.743   9.269 -0.9697 -2.2688  1.3685
  819MOL0     H 8095   5.029   7.760   9.260  1.9557 -0.8794 -0.5657
  819MOL0     H 8096   5.358   7.726   8.967 -0.2724  5.7045  1.2748
  819MOL0     H 8097   5.601   7.786   8.892 -0.6119 -2.7648 -0.6085
  819MOL0     H 8098   5.952   7.725   9.175  3.0528  2.8296  2.1531
  819MOL0     H 8099   5.888   7.893   9.199  1.0860  0.5674 -0.9567
  819MOL0     H 8100   6.061   7.794   8.965 -2.3204 -0.6527  0.0007
  819MOL0     H 8101   6.003   7.961   8.988 -1.1329 -0.8728 -1.3257
  819MOL0     H 8102   6.167   7.816   9.194  0.2748  0.7065 -0.1014
  819MOL0     H 8103   6.126   7.991   9.183 -4.1201 -1.0951  0.2508
  819MOL0     H 8104   6.366   7.930   9.125  0.2002 -1.4390  0.6850
  819MOL0     H 8105   6.302   7.837   8.982  3.1341 -1.7227  2.8920
  819MOL0     H 8106   6.276   8.231   8.834  1.9125 -0.7707 -0.0886
  819MOL0     H 8107   5.715   7.706   9.302  0.2068 -0.2084  0.0965
  819MOL0     H 8108   5.476   7.651   9.356 -1.3538 -1.5372  0.1355
  820MOL0     O 8109   5.078   7.549   9.661 -0.1611 -0.5554  0.3080
  820MOL0     C 8110   5.042   7.664   9.662 -0.3895  0.3269 -0.1115
  820MOL0     O 8111   5.104   7.768   9.718 -0.6322  0.3832 -0.4772
  820MOL0     C 8112   5.229   7.751   9.759 -0.0682  0.3232  0.0883
  820MOL0     C 8113   5.338   7.713   9.679 -0.3365 -0.2886 -0.1297
  820MOL0     C 8114   5.464   7.703   9.732 -0.0951  0.0798  0.3090
  820MOL0     C 8115   5.482   7.717   9.868 -0.1073 -0.5884 -0.1089
  820MOL0     O 8116   5.604   7.702   9.938  0.4508  0.6802 -0.2944
  820MOL0     C 8117   5.712   7.624   9.868 -0.5962  0.1621  0.0489
  820MOL0     C 8118   5.842   7.649   9.945 -0.0266  0.1544  0.4691
  820MOL0     C 8119   5.955   7.558   9.897  0.3222  0.2228 -0.0925
  820MOL0     C 8120   6.090   7.626   9.906  0.0539  0.3333 -0.8985
  820MOL0     C 8121   6.125   7.643  10.053 -0.5299  0.4275  0.5271
  820MOL0     C 8122   6.274   7.674  10.050 -0.0224  0.7278  0.0083
  820MOL0     C 8123   6.325   7.686  10.187 -0.7298 -0.0966 -0.0142
  820MOL0     C 8124   6.286   7.799  10.275  0.1051 -0.0972 -0.3854
  820MOL0     N 8125   6.257   7.933  10.214 -0.6751 -0.5852 -0.1614
  820MOL0     C 8126   6.128   7.992  10.199  0.6078  0.1339  0.2280
  820MOL0     C 8127   6.154   8.103  10.128  0.0656 -0.1468  0.4407
  820MOL0     C 8128   6.053   8.198  10.074 -0.0707  0.7199  0.1008
  820MOL0     C 8129   6.020   8.160   9.927 -0.0737  0.4089  0.1569
  820MOL0     C 8130   5.944   8.265   9.844 -0.1624  1.4938  0.7221
  820MOL0     C 8131   5.797   8.250   9.869 -0.5011 -0.0345  0.5684
  820MOL0     O 8132   5.729   8.340   9.776  0.2044  0.2291  0.1587
  820MOL0     C 8133   5.595   8.323   9.778  0.2265  1.0486  1.0469
  820MOL0     C 8134   5.516   8.263   9.877  0.3944  0.5382 -0.1242
  820MOL0     C 8135   5.379   8.262   9.873 -0.1426 -0.2370 -0.6940
  820MOL0     C 8136   5.315   8.317   9.758  0.0474 -0.2813 -0.1469
  820MOL0     C 8137   5.163   8.309   9.733 -0.8960  0.0984 -0.6053
  820MOL0     O 8138   5.088   8.255   9.844  0.0943  0.4925 -0.5132
  820MOL0     C 8139   4.958   8.212   9.814  0.1761  0.4117 -0.6170
  820MOL0     C 8140   4.924   8.082   9.839  0.2277 -0.9574  0.2696
  820MOL0     C 8141   4.793   8.043   9.823  0.0579 -0.4762  0.6150
  820MOL0     C 8142   4.695   8.140   9.814  0.0490  0.2761  1.0625
  820MOL0     O 8143   4.559   8.113   9.811 -0.5459 -0.6429  0.2021
  820MOL0     C 8144   4.515   7.976   9.822 -0.1212 -0.2093  1.2861
  820MOL0     C 8145   4.373   7.965   9.881 -0.8124 -0.2850 -0.0748
  820MOL0     C 8146   4.263   8.016   9.795 -0.1848  0.2321 -0.1699
  820MOL0     C 8147   4.125   7.999   9.847  0.6717  0.1117  0.0312
  820MOL0     C 8148   4.030   8.057   9.736  0.9336 -0.0152  0.4081
  820MOL0     C 8149   3.889   8.074   9.800 -0.1078 -0.3669  0.1526
  820MOL0     C 8150   3.799   8.137   9.689 -0.6448 -0.4103 -0.6080
  820MOL0     C 8151   3.658   8.175   9.736  1.0317  0.1489 -0.6364
  820MOL0    Cl 8152   3.538   8.214   9.602  0.1764  0.1320  0.0987
  820MOL0     C 8153   4.728   8.273   9.797  0.6177  0.1703  0.5857
  820MOL0     C 8154   4.858   8.311   9.785  0.0110  0.5169 -0.3772
  820MOL0     O 8155   5.116   8.359   9.627  0.5454 -0.7872 -0.0960
  820MOL0     C 8156   5.394   8.391   9.663 -0.2928  1.6498  0.4102
  820MOL0     C 8157   5.532   8.384   9.671 -0.2442 -0.1806 -0.2113
  820MOL0     N 8158   6.292   8.103  10.090 -0.6682  0.2065  0.1540
  820MOL0     N 8159   6.357   8.004  10.158 -0.8082 -0.2562  0.3677
  820MOL0     C 8160   5.374   7.764   9.948  0.3364  0.8210  0.0196
  820MOL0     C 8161   5.247   7.770   9.897  0.3800 -0.3881 -0.6586
  820MOL0     C 8162   4.907   7.679   9.613  0.6603  0.3692 -0.6579
  820MOL0     C 8163   4.819   7.572   9.595 -0.1462  0.9477  0.3230
  820MOL0     C 8164   4.688   7.586   9.535 -0.5052  0.3003 -0.2614
  820MOL0     C 8165   4.640   7.710   9.494 -0.6718  0.5930  0.6015
  820MOL0     O 8166   4.526   7.726   9.424  0.1797 -0.6224  0.5580
  820MOL0     C 8167   4.431   7.618   9.409 -0.5358 -0.4545 -0.9073
  820MOL0     C 8168   4.319   7.664   9.305  0.5589 -0.1340  0.5383
  820MOL0     C 8169   4.236   7.775   9.378  0.0110  0.0906  0.5236
  820MOL0     C 8170   4.104   7.716   9.432  0.0809  0.4701  0.0356
  820MOL0     C 8171   4.129   7.634   9.553  0.0213  0.0760  0.1458
  820MOL0     C 8172   4.139   7.573   9.659  0.7796  0.6393  1.1593
  820MOL0     C 8173   4.730   7.821   9.504  0.2491  0.3762 -0.2815
  820MOL0     C 8174   4.862   7.803   9.558 -0.4060  0.4093 -0.3289
  820MOL0     H 8175   5.322   7.719   9.572 -0.2489 -4.0899 -0.4790
  820MOL0     H 8176   5.549   7.697   9.664 -0.9382  0.9799 -0.8762
  820MOL0     H 8177   5.707   7.636   9.759 -0.1261  2.2439  0.2275
  820MOL0     H 8178   5.684   7.518   9.879 -2.4151  0.5987  0.0024
  820MOL0     H 8179   5.833   7.621  10.050  0.3695 -1.1315  0.1782
  820MOL0     H 8180   5.860   7.757   9.936  2.5128 -0.3320 -1.8762
  820MOL0     H 8181   5.946   7.533   9.791  0.6768  3.0580 -0.8851
  820MOL0     H 8182   5.951   7.467   9.957  0.0435 -0.4599 -1.1096
  820MOL0     H 8183   6.165   7.573   9.847 -0.5765 -0.0614 -1.3508
  820MOL0     H 8184   6.076   7.724   9.859 -1.7329 -0.0372 -1.1902
  820MOL0     H 8185   6.123   7.549  10.109  0.6371  1.2792  2.0502
  820MOL0     H 8186   6.052   7.716  10.090  1.0508  1.2119  2.1990
  820MOL0     H 8187   6.289   7.759   9.983  3.3280  0.9226  0.8208
  820MOL0     H 8188   6.319   7.585  10.006 -1.1271 -1.1029  2.3638
  820MOL0     H 8189   6.321   7.591  10.240 -1.5785  1.1642  2.3577
  820MOL0     H 8190   6.433   7.700  10.174 -0.4820 -1.8597 -0.0861
  820MOL0     H 8191   6.361   7.814  10.353  0.8871 -0.7683 -0.9846
  820MOL0     H 8192   6.193   7.777  10.328  0.5495  0.3231  0.5837
  820MOL0     H 8193   6.037   7.955  10.244 -1.3837  1.6140 -2.2892
  820MOL0     H 8194   6.083   8.302  10.092 -1.6969  1.2735 -0.1518
  820MOL0     H 8195   5.964   8.186  10.138  1.3988 -0.5636  2.0331
  820MOL0     H 8196   5.966   8.065   9.920  1.4012 -0.5824  1.6190
  820MOL0     H 8197   6.115   8.139   9.877 -0.2786 -1.3830  0.4727
  820MOL0     H 8198   5.970   8.367   9.875  1.9822  2.3679 -3.1966
  820MOL0     H 8199   5.973   8.247   9.740  0.9985 -2.2817  1.5323
  820MOL0     H 8200   5.776   8.277   9.973  0.0293  1.4977  0.3108
  820MOL0     H 8201   5.759   8.151   9.842  2.5270 -0.2768 -3.8363
  820MOL0     H 8202   5.568   8.223   9.964  0.0944 -0.8693 -0.5643
  820MOL0     H 8203   5.320   8.217   9.952 -0.0783 -2.1824 -1.7088
  820MOL0     H 8204   4.998   8.015   9.882 -1.3407 -3.2304 -0.4276
  820MOL0     H 8205   4.777   7.936   9.821 -0.0654 -0.4817 -1.7952
  820MOL0     H 8206   4.581   7.917   9.887 -1.8060 -0.3674  2.9246
  820MOL0     H 8207   4.524   7.936   9.720  4.8797  1.0121  0.9731
  820MOL0     H 8208   4.378   8.002   9.983 -1.4120  0.4040 -0.2868
  820MOL0     H 8209   4.364   7.857   9.898 -0.2239 -0.7153 -2.1837
  820MOL0     H 8210   4.265   7.963   9.699 -2.1612 -1.3300  0.5962
  820MOL0     H 8211   4.274   8.123   9.774 -2.4803  0.1601 -2.2083
  820MOL0     H 8212   4.091   7.900   9.879 -2.8282  1.4142  0.8343
  820MOL0     H 8213   4.113   8.059   9.937 -0.3498  1.0737 -0.7131
  820MOL0     H 8214   4.035   7.985   9.654 -0.1858 -0.4522  0.7002
  820MOL0     H 8215   4.061   8.155   9.700 -1.1895  0.6413  0.2539
  820MOL0     H 8216   3.895   8.140   9.887  0.4556  0.3096 -0.3851
  820MOL0     H 8217   3.858   7.975   9.835  2.6176 -1.0145  0.9610
  820MOL0     H 8218   3.850   8.228   9.658  0.1793 -0.4059  0.6567
  820MOL0     H 8219   3.786   8.071   9.603 -5.3220  1.7153 -1.8440
  820MOL0     H 8220   3.666   8.258   9.806 -0.7042  0.0287 -0.2495
  820MOL0     H 8221   3.617   8.086   9.785 -0.7752  0.9884 -0.5466
  820MOL0     H 8222   4.647   8.340   9.768  1.0121 -0.9273 -3.7217
  820MOL0     H 8223   4.889   8.414   9.769  0.0535  0.6913  0.6912
  820MOL0     H 8224   5.352   8.436   9.574 -1.0458  1.5004  0.6814
  820MOL0     H 8225   5.592   8.446   9.606  1.0473  0.9329  1.9084
  820MOL0     H 8226   5.388   7.770  10.055 -2.6771 -1.5995  0.7149
  820MOL0     H 8227   5.172   7.784   9.974 -0.2940 -2.4622 -0.8903
  820MOL0     H 8228   4.857   7.472   9.610 -2.4040  0.0988  0.7158
  820MOL0     H 8229   4.631   7.494   9.529  0.5120 -0.3715  0.0773
  820MOL0     H 8230   4.385   7.580   9.500  0.9456 -5.1329 -1.8525
  820MOL0     H 8231   4.478   7.533   9.359  0.4576  1.3528 -3.2491
  820MOL0     H 8232   4.367   7.708   9.217  0.6159  0.8395  1.0324
  820MOL0     H 8233   4.257   7.579   9.278 -0.1164  0.0931  1.3274
  820MOL0     H 8234   4.215   7.857   9.309 -0.4652  1.6134  2.3892
  820MOL0     H 8235   4.288   7.816   9.465  2.5029 -0.4150 -0.6250
  820MOL0     H 8236   4.044   7.804   9.455  0.9643  1.2486 -0.5235
  820MOL0     H 8237   4.055   7.643   9.367  1.0968 -0.1615 -0.0433
  820MOL0     H 8238   4.133   7.525   9.754  3.9368  2.3546  2.3772
  820MOL0     H 8239   4.691   7.911   9.457  1.1651  0.1364 -1.5367
  820MOL0     H 8240   4.938   7.881   9.563  1.4473 -1.3697  3.0815
  821MOL0     O 8241   5.912   8.270   6.117 -0.1769  1.1592  0.3013
  821MOL0     C 8242   5.973   8.352   6.057 -0.6465  0.0743 -0.3605
  821MOL0     O 8243   5.920   8.449   5.972 -0.4669 -0.0986  0.2610
  821MOL0     C 8244   5.786   8.441   5.953  0.6554  0.1336  0.0753
  821MOL0     C 8245   5.723   8.325   5.901  0.3144  0.0552  0.3565
  821MOL0     C 8246   5.586   8.312   5.873  0.0846 -0.0927  0.2273
  821MOL0     C 8247   5.504   8.428   5.917  0.7856  0.6988 -0.0970
  821MOL0     O 8248   5.367   8.426   5.912  0.6642 -0.1944  0.2486
  821MOL0     C 8249   5.299   8.306   5.880 -0.0926 -0.7139 -0.4158
  821MOL0     C 8250   5.150   8.344   5.849  0.9415  0.0503 -0.2397
  821MOL0     C 8251   5.072   8.388   5.986  0.4630  0.1499  1.0981
  821MOL0     C 8252   4.932   8.429   5.957 -0.3593 -0.1276  0.2402
  821MOL0     C 8253   4.858   8.487   6.077  0.4117 -0.0256 -0.0703
  821MOL0     C 8254   4.706   8.502   6.046 -0.1023 -0.3730 -0.1180
  821MOL0     C 8255   4.624   8.592   6.136  1.2084  0.0018  0.5610
  821MOL0     C 8256   4.636   8.547   6.282 -0.0287  0.4266  0.2755
  821MOL0     N 8257   4.572   8.418   6.303 -0.0416 -0.3200 -0.1135
  821MOL0     C 8258   4.453   8.367   6.249 -0.3349  0.1433 -0.5208
  821MOL0     C 8259   4.447   8.247   6.305 -1.0893 -0.3245  0.0516
  821MOL0     C 8260   4.350   8.148   6.285  0.1807  0.3677  0.3483
  821MOL0     C 8261   4.212   8.204   6.319 -0.0330  0.2658  0.0680
  821MOL0     C 8262   4.107   8.087   6.328 -0.1713  0.8181 -0.0160
  821MOL0     C 8263   3.966   8.138   6.368 -0.5177  0.5725  0.4869
  821MOL0     O 8264   3.884   8.025   6.391  0.1693  0.6328 -0.1984
  821MOL0     C 8265   3.745   8.046   6.385  0.7428  0.1571  0.4144
  821MOL0     C 8266   3.665   7.936   6.422  0.5407 -0.2253 -0.5070
  821MOL0     C 8267   3.524   7.945   6.430  0.4421  0.0613 -0.5498
  821MOL0     C 8268   3.457   8.063   6.407  0.3227  0.1172  0.1246
  821MOL0     C 8269   3.307   8.064   6.402 -0.4091  0.1181  0.3103
  821MOL0     O 8270   3.245   8.189   6.402 -0.1487 -0.5702  0.2407
  821MOL0     C 8271   3.113   8.207   6.398 -0.8250  0.4782  0.5126
  821MOL0     C 8272   3.068   8.308   6.482  0.4047 -0.1090  0.8803
  821MOL0     C 8273   2.937   8.342   6.484 -0.3670  0.4903 -0.8457
  821MOL0     C 8274   2.850   8.272   6.403 -0.4483  0.3151  0.1179
  821MOL0     O 8275   2.714   8.305   6.390 -0.7435 -0.3538 -0.3940
  821MOL0     C 8276   2.630   8.354   6.499 -0.3965 -0.3903 -0.0961
  821MOL0     C 8277   2.608   8.500   6.472  1.2510 -0.2093  0.2106
  821MOL0     C 8278   2.486   8.547   6.561 -0.0158  0.6254 -0.0749
  821MOL0     C 8279   2.356   8.513   6.483 -0.9239  0.0057 -0.7340
  821MOL0     C 8280   2.241   8.607   6.540 -0.5570 -0.1546  1.0807
  821MOL0     C 8281   2.106   8.566   6.475 -0.7131 -0.7652 -0.1585
  821MOL0     C 8282   1.990   8.635   6.543  0.1470 -0.2214  0.4495
  821MOL0     C 8283   1.865   8.602   6.466 -0.2166 -0.3939  0.5587
  821MOL0    Cl 8284   1.868   8.626   6.288  0.6162 -0.0377 -0.0242
  821MOL0     C 8285   2.896   8.174   6.314 -0.2706 -0.0041 -0.2510
  821MOL0     C 8286   3.029   8.138   6.309  0.1048 -0.2978  0.0026
  821MOL0     O 8287   3.251   7.951   6.394  0.1680 -0.3631 -0.1918
  821MOL0     C 8288   3.532   8.176   6.380  0.2074 -0.5782 -0.4592
  821MOL0     C 8289   3.671   8.166   6.369 -0.6581 -0.3550  0.0498
  821MOL0     N 8290   4.557   8.227   6.387  0.8133 -0.2830 -1.2531
  821MOL0     N 8291   4.635   8.329   6.385 -0.4568  0.3400 -0.2904
  821MOL0     C 8292   5.561   8.540   5.968 -0.7226  0.5313 -0.1008
  821MOL0     C 8293   5.701   8.552   5.974 -0.4730 -0.5870 -0.5965
  821MOL0     C 8294   6.118   8.363   6.067  0.4020  0.3306 -0.4388
  821MOL0     C 8295   6.189   8.265   6.131  0.3049  0.1319  0.4019
  821MOL0     C 8296   6.327   8.273   6.158 -0.5334  0.2775 -0.3938
  821MOL0     C 8297   6.404   8.368   6.094 -0.0706  0.1105 -0.4489
  821MOL0     O 8298   6.536   8.367   6.114  0.1371  0.1123 -0.7280
  821MOL0     C 8299   6.594   8.496   6.144 -0.1539 -0.1715 -0.0571
  821MOL0     C 8300   6.682   8.545   6.023 -0.9210  0.1346 -0.1388
  821MOL0     C 8301   6.819   8.491   6.033 -0.5290  0.5055  0.4043
  821MOL0     C 8302   6.911   8.535   5.908  0.0852  0.1293 -0.8096
  821MOL0     C 8303   7.033   8.478   5.956  0.5327 -0.1380  0.9062
  821MOL0     C 8304   7.133   8.426   5.990  0.8528  0.7557 -0.1912
  821MOL0     C 8305   6.329   8.471   6.024  0.3400  0.1958 -0.2902
  821MOL0     C 8306   6.190   8.471   6.007 -0.2147 -0.1190 -0.1228
  821MOL0     H 8307   5.783   8.238   5.874 -1.1098 -1.5368  2.0671
  821MOL0     H 8308   5.535   8.224   5.835 -0.4343  0.3911 -0.2240
  821MOL0     H 8309   5.296   8.242   5.968 -1.5840 -0.5506 -0.3366
  821MOL0     H 8310   5.347   8.263   5.792 -0.5022  0.3260 -1.1671
  821MOL0     H 8311   5.095   8.254   5.822  2.2501 -0.2037 -2.3156
  821MOL0     H 8312   5.139   8.417   5.768  0.1535  1.4095  1.0243
  821MOL0     H 8313   5.125   8.471   6.032  0.9795  0.0337  0.7171
  821MOL0     H 8314   5.071   8.308   6.060  0.0613  0.5863  1.5719
  821MOL0     H 8315   4.933   8.499   5.874  1.2107 -0.4215 -0.0117
  821MOL0     H 8316   4.867   8.351   5.916  1.0253 -0.5632 -1.1798
  821MOL0     H 8317   4.897   8.584   6.107 -3.1841  1.4441  0.4063
  821MOL0     H 8318   4.874   8.434   6.171  2.7391 -0.4794 -0.6617
  821MOL0     H 8319   4.659   8.404   6.033  1.2618 -1.2831  1.5259
  821MOL0     H 8320   4.700   8.549   5.947 -0.2497 -0.2424 -0.0472
  821MOL0     H 8321   4.651   8.698   6.135  2.3508 -0.2507  1.9914
  821MOL0     H 8322   4.517   8.580   6.114  1.3612 -1.2347  0.4504
  821MOL0     H 8323   4.592   8.615   6.355 -0.9279  0.2267 -0.0603
  821MOL0     H 8324   4.743   8.545   6.302 -0.1727  0.4320  1.1004
  821MOL0     H 8325   4.381   8.410   6.180 -0.3869 -0.5021 -0.8718
  821MOL0     H 8326   4.371   8.065   6.352 -2.7999 -0.1427  0.7886
  821MOL0     H 8327   4.347   8.113   6.181 -0.2468 -2.4546  1.2212
  821MOL0     H 8328   4.175   8.268   6.239 -0.9507 -0.2754  0.0429
  821MOL0     H 8329   4.222   8.268   6.407  2.5755  0.5823 -0.3841
  821MOL0     H 8330   4.096   8.037   6.231  0.3552 -1.3955  0.9826
  821MOL0     H 8331   4.141   8.000   6.385  1.6138  1.8679  0.6029
  821MOL0     H 8332   3.935   8.212   6.294 -0.0892 -0.3783 -0.6631
  821MOL0     H 8333   3.980   8.181   6.468 -0.6339 -3.0871  2.2400
  821MOL0     H 8334   3.703   7.841   6.457 -1.5390 -1.1857 -0.6789
  821MOL0     H 8335   3.465   7.857   6.455  1.1823 -0.0342  1.0157
  821MOL0     H 8336   3.141   8.364   6.539  1.8263 -3.2429  2.4143
  821MOL0     H 8337   2.885   8.422   6.536 -2.7109 -1.2384 -0.3400
  821MOL0     H 8338   2.677   8.349   6.598  0.8056 -1.4229 -0.6937
  821MOL0     H 8339   2.537   8.295   6.494 -0.7155  0.1852 -1.2881
  821MOL0     H 8340   2.594   8.525   6.366 -0.4285  0.1331  0.4728
  821MOL0     H 8341   2.695   8.555   6.509 -0.4054  2.2283  0.7285
  821MOL0     H 8342   2.488   8.654   6.583  2.7488  0.5332  0.4409
  821MOL0     H 8343   2.486   8.497   6.658  1.6749  0.6416 -0.0401
  821MOL0     H 8344   2.378   8.553   6.384 -1.8133 -1.0823 -1.4019
  821MOL0     H 8345   2.332   8.407   6.471 -0.0399 -0.2896 -0.0631
  821MOL0     H 8346   2.270   8.712   6.525  2.2075 -0.7625  1.8322
  821MOL0     H 8347   2.240   8.589   6.647 -4.1332 -0.5463  1.1208
  821MOL0     H 8348   2.101   8.456   6.474  1.3628 -0.9352 -2.5059
  821MOL0     H 8349   2.107   8.605   6.373 -1.2433 -1.1919 -0.3330
  821MOL0     H 8350   1.985   8.592   6.644  1.2714  0.7120  0.9290
  821MOL0     H 8351   2.006   8.743   6.554  2.4473 -0.3986 -0.6140
  821MOL0     H 8352   1.783   8.660   6.509 -0.1087  0.0006  0.2381
  821MOL0     H 8353   1.848   8.496   6.485 -1.4246 -0.2584  0.2914
  821MOL0     H 8354   2.825   8.144   6.238 -1.7065 -0.5821  1.2681
  821MOL0     H 8355   3.068   8.067   6.237  0.2394  0.6535 -0.8950
  821MOL0     H 8356   3.483   8.271   6.362  0.5068 -0.3853 -0.2744
  821MOL0     H 8357   3.730   8.254   6.346 -1.6162  0.5426  0.9093
  821MOL0     H 8358   5.503   8.627   5.999 -0.9816  2.0871 -4.3118
  821MOL0     H 8359   5.733   8.650   6.007 -3.7042 -0.0921  1.4360
  821MOL0     H 8360   6.132   8.177   6.156  1.4035 -1.4913 -2.3010
  821MOL0     H 8361   6.379   8.192   6.208 -1.0403 -0.7979 -1.5662
  821MOL0     H 8362   6.662   8.487   6.229  0.1797 -2.6625 -0.5052
  821MOL0     H 8363   6.516   8.568   6.171 -0.3565  0.6608 -2.6378
  821MOL0     H 8364   6.644   8.527   5.921  3.2451  0.7600 -1.9951
  821MOL0     H 8365   6.696   8.652   6.041  1.8622 -0.1123 -0.5013
  821MOL0     H 8366   6.812   8.382   6.025 -2.1542  0.5725  0.4348
  821MOL0     H 8367   6.856   8.525   6.131 -1.7116  0.4467  0.8958
  821MOL0     H 8368   6.887   8.495   5.810  1.2330 -0.7312 -0.7687
  821MOL0     H 8369   6.907   8.645   5.903 -2.4838  0.0885 -0.8980
  821MOL0     H 8370   7.221   8.368   6.009  1.9595  1.5031 -2.6251
  821MOL0     H 8371   6.383   8.556   5.983 -2.9361  2.0543 -1.0515
  821MOL0     H 8372   6.146   8.562   5.967  4.3582  3.1106  1.3638
  822MOL0     O 8373   3.387   3.783   5.147 -0.2303 -0.4721  0.4018
  822MOL0     C 8374   3.477   3.839   5.086  0.7769 -0.2519  0.1584
  822MOL0     O 8375   3.463   3.920   4.983  0.8676 -0.4287  0.4795
  822MOL0     C 8376   3.339   3.964   4.931 -0.4839 -0.7780 -0.5248
  822MOL0     C 8377   3.214   3.897   4.938 -0.2600 -0.9492 -0.2139
  822MOL0     C 8378   3.101   3.947   4.894  0.1681  0.2318  0.1762
  822MOL0     C 8379   3.105   4.069   4.830 -0.3633 -0.0491  0.2603
  822MOL0     O 8380   2.995   4.133   4.773  0.1368  0.4934 -1.2211
  822MOL0     C 8381   2.867   4.090   4.821  1.1073 -0.3612  0.0491
  822MOL0     C 8382   2.766   4.194   4.771  0.8360 -0.6234  0.6007
  822MOL0     C 8383   2.630   4.126   4.801  0.3901  0.1088  0.0572
  822MOL0     C 8384   2.510   4.218   4.786 -0.0532 -0.6341 -0.4307
  822MOL0     C 8385   2.383   4.148   4.817  0.4081 -0.2632 -0.2604
  822MOL0     C 8386   2.264   4.241   4.845 -0.6785 -0.1188  0.7841
  822MOL0     C 8387   2.128   4.179   4.883 -0.0329 -0.3681 -0.1029
  822MOL0     C 8388   2.027   4.278   4.941 -0.2271  0.7024 -0.1637
  822MOL0     N 8389   2.012   4.257   5.089  0.1453 -0.5154 -0.9489
  822MOL0     C 8390   1.914   4.183   5.152  0.5163  0.6390 -0.6075
  822MOL0     C 8391   1.941   4.188   5.282  0.2920  0.6279  0.5435
  822MOL0     C 8392   1.868   4.118   5.393  0.1877 -0.3604  0.8421
  822MOL0     C 8393   1.956   4.015   5.459 -0.0725  0.4984 -0.5629
  822MOL0     C 8394   1.884   3.984   5.589  0.1918  0.8308  0.3913
  822MOL0     C 8395   1.941   3.863   5.664 -0.3725 -0.6158 -0.3315
  822MOL0     O 8396   1.867   3.850   5.782 -0.3193  0.3250  0.4549
  822MOL0     C 8397   1.745   3.788   5.782 -0.5486 -0.3167 -0.1461
  822MOL0     C 8398   1.683   3.738   5.668  0.4182 -0.0210 -0.3027
  822MOL0     C 8399   1.565   3.665   5.674 -0.6009 -0.3515 -0.0601
  822MOL0     C 8400   1.506   3.642   5.801 -0.0914  0.2776 -0.6576
  822MOL0     C 8401   1.390   3.551   5.807 -0.2462 -0.2216  0.0830
  822MOL0     O 8402   1.305   3.545   5.703 -0.2514 -0.0788  0.1006
  822MOL0     C 8403   1.190   3.474   5.706  0.5494  1.0264  0.7068
  822MOL0     C 8404   1.135   3.453   5.584 -0.1623 -0.5183  0.1414
  822MOL0     C 8405   1.020   3.381   5.570  0.2087  0.6396  0.2199
  822MOL0     C 8406   0.941   3.335   5.680  0.4977  0.1853  0.2601
  822MOL0     O 8407   0.814   3.284   5.671 -0.0067 -0.2412 -0.0401
  822MOL0     C 8408   0.711   3.374   5.711 -0.5529 -0.3508  0.6086
  822MOL0     C 8409   0.649   3.455   5.606 -0.1324 -1.7812  0.5516
  822MOL0     C 8410   0.619   3.376   5.475 -0.0490 -0.2601 -0.7822
  822MOL0     C 8411   0.552   3.467   5.366  0.2616  0.7136 -0.2170
  822MOL0     C 8412   0.559   3.402   5.227  0.2647  0.8993 -0.7457
  822MOL0     C 8413   0.709   3.398   5.168  0.3639 -0.1155 -0.9782
  822MOL0     C 8414   0.726   3.293   5.060  0.5986  0.4578  0.1096
  822MOL0     C 8415   0.859   3.307   4.974 -0.2946 -0.2085  0.0435
  822MOL0    Cl 8416   0.869   3.467   4.897  0.1905 -0.2162  0.1490
  822MOL0     C 8417   1.002   3.344   5.805 -0.0918  0.0395 -0.5137
  822MOL0     C 8418   1.120   3.416   5.819 -0.9903 -0.4462  1.0762
  822MOL0     O 8419   1.376   3.488   5.916 -0.3309  0.0842 -0.1426
  822MOL0     C 8420   1.564   3.693   5.921 -0.6935  0.1941  0.2802
  822MOL0     C 8421   1.681   3.766   5.911  0.4102 -0.2619 -0.0238
  822MOL0     N 8422   2.040   4.280   5.303 -0.0048 -0.5390  0.2829
  822MOL0     N 8423   2.081   4.320   5.182 -0.3417  0.0596 -0.8880
  822MOL0     C 8424   3.220   4.142   4.818 -0.8166 -0.1362 -0.2807
  822MOL0     C 8425   3.342   4.088   4.872 -0.2594  0.2927  0.4160
  822MOL0     C 8426   3.612   3.815   5.132 -0.0376  0.4916 -0.3533
  822MOL0     C 8427   3.640   3.754   5.261 -0.7229  0.2004 -0.7257
  822MOL0     C 8428   3.771   3.724   5.305  0.2627 -0.5673 -0.3705
  822MOL0     C 8429   3.876   3.764   5.233  0.2655  0.1579 -0.6402
  822MOL0     O 8430   3.993   3.750   5.301 -0.6503 -0.0057  1.2118
  822MOL0     C 8431   4.107   3.778   5.223  0.0752  0.3826 -0.0423
  822MOL0     C 8432   4.232   3.718   5.286  0.1270  0.5333 -0.6205
  822MOL0     C 8433   4.353   3.733   5.191  0.6223  0.2833  0.4038
  822MOL0     C 8434   4.494   3.690   5.241  0.3422 -0.0043 -1.3468
  822MOL0     C 8435   4.505   3.562   5.312  0.5507 -0.1936  0.1287
  822MOL0     C 8436   4.506   3.452   5.369 -0.3780  0.2752 -0.6148
  822MOL0     C 8437   3.851   3.832   5.114  0.2882  0.5279  0.1808
  822MOL0     C 8438   3.725   3.851   5.055  0.4416  0.2905  0.0753
  822MOL0     H 8439   3.212   3.798   4.983  1.6720 -1.9989 -2.2368
  822MOL0     H 8440   3.011   3.886   4.904 -0.1223  0.2466 -1.9470
  822MOL0     H 8441   2.860   4.069   4.928 -1.9396 -0.5484 -0.1077
  822MOL0     H 8442   2.842   3.996   4.771 -1.5466  0.9137 -1.2414
  822MOL0     H 8443   2.782   4.226   4.668 -3.2706 -1.2288 -0.4018
  822MOL0     H 8444   2.775   4.274   4.845  0.9388 -0.5321  0.4890
  822MOL0     H 8445   2.627   4.080   4.900  0.4048  0.1154  0.0609
  822MOL0     H 8446   2.607   4.037   4.741  1.7629 -0.1917 -0.0779
  822MOL0     H 8447   2.531   4.297   4.860 -4.3918  1.0729 -0.7422
  822MOL0     H 8448   2.500   4.267   4.689  0.3359 -2.5431 -1.4589
  822MOL0     H 8449   2.395   4.078   4.900 -3.4516  1.2045  1.7736
  822MOL0     H 8450   2.350   4.089   4.731  3.0846 -1.0529 -0.8333
  822MOL0     H 8451   2.261   4.318   4.768 -3.6523  0.1149  1.0011
  822MOL0     H 8452   2.300   4.302   4.929 -0.6769  1.9403 -0.6323
  822MOL0     H 8453   2.075   4.134   4.799 -0.9322 -0.0888  0.3092
  822MOL0     H 8454   2.135   4.101   4.960 -1.9208  0.8265  1.3635
  822MOL0     H 8455   1.927   4.285   4.896  0.4753  1.4187 -1.6829
  822MOL0     H 8456   2.083   4.370   4.928  0.7369  0.0492 -0.7537
  822MOL0     H 8457   1.842   4.124   5.097  0.6445  1.4845 -1.7317
  822MOL0     H 8458   1.777   4.072   5.353 -0.2080  1.9258 -1.1004
  822MOL0     H 8459   1.824   4.187   5.466  0.0447 -0.9089  1.2804
  822MOL0     H 8460   2.053   4.058   5.486 -0.3261  0.3362  0.6648
  822MOL0     H 8461   1.976   3.925   5.399 -1.2058  1.5037 -2.5506
  822MOL0     H 8462   1.889   4.068   5.659  1.6309 -0.6134  2.1371
  822MOL0     H 8463   1.776   3.981   5.572  0.3638  1.1694 -0.9151
  822MOL0     H 8464   2.049   3.879   5.673 -0.1123 -2.5050  0.2366
  822MOL0     H 8465   1.938   3.775   5.600  3.3514 -0.7189 -0.5873
  822MOL0     H 8466   1.722   3.738   5.567  2.2711  0.2666  0.3713
  822MOL0     H 8467   1.518   3.623   5.586 -0.4721 -1.8502  0.5473
  822MOL0     H 8468   1.184   3.488   5.494  2.1331  0.6994  1.7497
  822MOL0     H 8469   0.977   3.362   5.472  0.7508  2.1236 -0.3375
  822MOL0     H 8470   0.748   3.440   5.791  1.7766 -1.3037  0.4022
  822MOL0     H 8471   0.635   3.308   5.754 -0.5271  0.7308  2.4341
  822MOL0     H 8472   0.716   3.537   5.578  2.2641 -3.3114  1.4640
  822MOL0     H 8473   0.556   3.487   5.653 -0.2326  0.4622 -1.0477
  822MOL0     H 8474   0.564   3.286   5.502 -0.7687  0.6804  1.0732
  822MOL0     H 8475   0.719   3.350   5.439  0.3665  0.3671 -0.1360
  822MOL0     H 8476   0.444   3.478   5.383  0.2099 -2.7319  3.2460
  822MOL0     H 8477   0.600   3.565   5.360  0.6568  0.4672 -1.1868
  822MOL0     H 8478   0.503   3.470   5.162 -2.3951 -0.9485 -0.5198
  822MOL0     H 8479   0.518   3.301   5.236 -2.0191  1.8742  0.8612
  822MOL0     H 8480   0.787   3.373   5.241 -1.8887 -1.0496  1.2802
  822MOL0     H 8481   0.734   3.496   5.128  0.1547  1.8070  3.0490
  822MOL0     H 8482   0.731   3.197   5.112  1.4304  1.2608  1.5486
  822MOL0     H 8483   0.638   3.294   4.994 -0.7895  0.4041  1.8668
  822MOL0     H 8484   0.862   3.216   4.915  0.9390 -1.1624  1.5131
  822MOL0     H 8485   0.941   3.288   5.043 -0.8902 -1.7144  0.3704
  822MOL0     H 8486   0.957   3.300   5.894 -1.2520  1.9338 -0.1029
  822MOL0     H 8487   1.161   3.422   5.919 -1.2817  1.0644  1.1352
  822MOL0     H 8488   1.524   3.663   6.017 -2.2247 -0.8967 -0.6445
  822MOL0     H 8489   1.724   3.810   6.000  0.7323 -1.3677  0.3813
  822MOL0     H 8490   3.204   4.245   4.787 -3.2806  0.6791  3.0823
  822MOL0     H 8491   3.434   4.146   4.871 -0.5781  0.8004 -0.2126
  822MOL0     H 8492   3.547   3.731   5.311  0.1370 -2.3563 -0.1697
  822MOL0     H 8493   3.779   3.678   5.403 -0.6945 -2.5103 -1.1541
  822MOL0     H 8494   4.128   3.885   5.212 -0.5524  0.6407  1.0962
  822MOL0     H 8495   4.102   3.737   5.122 -1.6128  0.9912 -0.2340
  822MOL0     H 8496   4.236   3.766   5.384 -2.2910  1.5041 -0.9247
  822MOL0     H 8497   4.214   3.612   5.309  2.9295  0.1175  0.0336
  822MOL0     H 8498   4.363   3.839   5.164  1.4934  0.0105 -0.4140
  822MOL0     H 8499   4.338   3.670   5.102 -1.3225  1.0122  0.1477
  822MOL0     H 8500   4.567   3.696   5.160  0.3430  1.6985 -1.2447
  822MOL0     H 8501   4.522   3.765   5.315 -0.4910 -1.7559  0.8647
  822MOL0     H 8502   4.523   3.350   5.396 -1.4169  0.2424 -0.0236
  822MOL0     H 8503   3.935   3.882   5.067  0.6368  0.1843  0.4306
  822MOL0     H 8504   3.702   3.890   4.957 -1.1916  1.0242  0.7184
  823MOL0     O 8505   6.949   0.152   6.228  0.1272  0.7015 -0.2554
  823MOL0     C 8506   7.012   0.094   6.134  0.4880 -0.0599  0.0630
  823MOL0     O 8507   6.962   0.033   6.022  0.6747  0.0073  0.0901
  823MOL0     C 8508   6.831   0.065   5.986  0.8291  0.2206  0.6768
  823MOL0     C 8509   6.721   0.014   6.057  0.1879 -0.2196  0.7992
  823MOL0     C 8510   6.593   0.040   6.011  0.5997 -0.9203 -0.1950
  823MOL0     C 8511   6.566   0.109   5.893  0.3751 -0.1193  0.2073
  823MOL0     O 8512   6.435   0.111   5.855 -0.1252  1.0017 -0.0644
  823MOL0     C 8513   6.391   0.199   5.750  0.0076  0.5864  0.3371
  823MOL0     C 8514   6.236   0.207   5.772  0.3718 -0.4973  0.3356
  823MOL0     C 8515   6.163   0.302   5.661  0.4317  0.1961 -0.0400
  823MOL0     C 8516   6.007   0.304   5.678 -0.4104 -0.1227 -0.4817
  823MOL0     C 8517   5.928   0.383   5.569  0.4145 -0.3074  0.5125
  823MOL0     C 8518   5.777   0.374   5.593  0.3995 -0.1411  0.4432
  823MOL0     C 8519   5.730   0.456   5.701  0.1216 -0.7421 -0.2416
  823MOL0     C 8520   5.691   0.601   5.660  0.0681 -0.6639  0.6467
  823MOL0     N 8521   5.579   0.605   5.571 -0.3964 -0.0155  0.8653
  823MOL0     C 8522   5.575   0.663   5.447  0.1166 -0.2027  0.4445
  823MOL0     C 8523   5.444   0.656   5.400 -0.2089  0.3383  0.1025
  823MOL0     C 8524   5.386   0.713   5.269 -0.1157  0.4958 -0.0858
  823MOL0     C 8525   5.241   0.768   5.296 -0.1985  0.9435 -0.2730
  823MOL0     C 8526   5.167   0.822   5.170 -0.6648 -0.4081  0.0006
  823MOL0     C 8527   5.026   0.873   5.206  0.6317  0.4447 -0.0867
  823MOL0     O 8528   4.962   0.925   5.091  0.1360 -0.2855  0.0536
  823MOL0     C 8529   4.835   0.976   5.101  0.4540  0.5599 -0.2823
  823MOL0     C 8530   4.756   0.980   5.219  0.5072 -0.2138 -0.3096
  823MOL0     C 8531   4.624   1.024   5.224  0.8210  0.6800 -1.0613
  823MOL0     C 8532   4.565   1.066   5.103 -0.5216 -0.4926 -0.1048
  823MOL0     C 8533   4.425   1.117   5.096  0.9840  0.2528  0.0253
  823MOL0     O 8534   4.361   1.135   5.220 -0.3295  0.3753  0.2729
  823MOL0     C 8535   4.226   1.153   5.233  0.4185  0.0860  0.2818
  823MOL0     C 8536   4.179   1.150   5.365 -0.0241 -0.1380  0.7890
  823MOL0     C 8537   4.046   1.181   5.395  0.0050  0.0030 -0.4940
  823MOL0     C 8538   3.955   1.219   5.294  0.5541 -0.1573 -0.3083
  823MOL0     O 8539   3.820   1.265   5.303  0.4992 -0.1627 -0.9207
  823MOL0     C 8540   3.769   1.288   5.434 -0.3915  0.1822 -0.1234
  823MOL0     C 8541   3.647   1.382   5.421 -0.1821 -0.0951 -0.7117
  823MOL0     C 8542   3.534   1.296   5.368 -0.2280  0.2816  0.0094
  823MOL0     C 8543   3.397   1.361   5.406  0.5670  0.3384  0.2900
  823MOL0     C 8544   3.292   1.302   5.311  0.6817  0.2002  0.6416
  823MOL0     C 8545   3.160   1.369   5.339  0.2067  0.4155  0.4847
  823MOL0     C 8546   3.048   1.345   5.241  0.4393 -0.0176  0.6178
  823MOL0     C 8547   2.927   1.430   5.266 -0.0391 -0.0253 -0.2287
  823MOL0    Cl 8548   2.780   1.353   5.192  0.1801 -0.1511  0.1646
  823MOL0     C 8549   4.004   1.226   5.167  0.4494  0.2430 -0.3442
  823MOL0     C 8550   4.131   1.187   5.136 -0.4283 -0.6199  0.4041
  823MOL0     O 8551   4.373   1.133   4.981 -0.3477  0.3683 -0.0370
  823MOL0     C 8552   4.651   1.077   4.985  0.2692  0.1026 -0.6325
  823MOL0     C 8553   4.781   1.030   4.988  0.1342 -0.5115  0.5552
  823MOL0     N 8554   5.371   0.588   5.501  0.2065 -0.0412 -0.0860
  823MOL0     N 8555   5.448   0.574   5.601 -0.0149  0.2204 -0.3817
  823MOL0     C 8556   6.671   0.167   5.824  0.6430 -1.1560  0.5323
  823MOL0     C 8557   6.805   0.147   5.870 -0.5840 -0.2053 -0.5765
  823MOL0     C 8558   7.159   0.087   6.159  0.1733  0.0104 -0.2784
  823MOL0     C 8559   7.229   0.115   6.282  0.3131  0.6209 -0.2280
  823MOL0     C 8560   7.372   0.107   6.286 -0.1738 -0.3433 -0.0941
  823MOL0     C 8561   7.448   0.077   6.172  0.6988  0.1369 -0.1098
  823MOL0     O 8562   7.579   0.082   6.199 -0.3505  0.1457  0.7536
  823MOL0     C 8563   7.673   0.017   6.102  0.5957 -0.0081 -0.1470
  823MOL0     C 8564   7.712   0.107   5.986  0.4283  0.2272 -0.4215
  823MOL0     C 8565   7.817   0.036   5.897  0.0318 -0.6088 -0.6445
  823MOL0     C 8566   7.904   0.137   5.820  0.7866 -0.2710 -0.2084
  823MOL0     C 8567   8.009   0.065   5.747  0.9350 -0.2752  0.4996
  823MOL0     C 8568   8.086   0.015   5.668 -0.1889 -0.1151 -0.5852
  823MOL0     C 8569   7.377   0.046   6.052  0.2303  0.4473  0.0145
  823MOL0     C 8570   7.238   0.056   6.046  0.4641  0.8998  0.2953
  823MOL0     H 8571   6.729  -0.045   6.148  3.5892  0.5761  1.1695
  823MOL0     H 8572   6.501   0.005   6.058  0.5454 -1.7534 -0.8984
  823MOL0     H 8573   6.422   0.171   5.649 -1.1618  0.2628  0.0494
  823MOL0     H 8574   6.430   0.297   5.781  2.6698 -0.7697  1.6406
  823MOL0     H 8575   6.212   0.246   5.871 -0.5423 -1.5380  0.5371
  823MOL0     H 8576   6.194   0.106   5.765  0.4511 -0.4459 -1.1767
  823MOL0     H 8577   6.174   0.249   5.566 -3.5972 -1.6653  0.3296
  823MOL0     H 8578   6.206   0.402   5.649  1.3090 -0.3181 -1.4847
  823MOL0     H 8579   5.967   0.203   5.685  0.9561 -0.6171  0.5988
  823MOL0     H 8580   5.989   0.353   5.774 -1.1835  0.1612 -0.7664
  823MOL0     H 8581   5.950   0.339   5.471  0.9908  0.7713  0.1384
  823MOL0     H 8582   5.967   0.485   5.561 -0.5093 -0.1193 -3.7461
  823MOL0     H 8583   5.751   0.269   5.613  1.1582 -0.0886  1.8140
  823MOL0     H 8584   5.736   0.394   5.494  0.1329 -3.0357 -0.1262
  823MOL0     H 8585   5.647   0.408   5.754 -0.0948 -0.9661 -0.7701
  823MOL0     H 8586   5.802   0.458   5.783  0.1985 -1.4011 -0.2862
  823MOL0     H 8587   5.767   0.673   5.628 -1.3711  1.0606  0.9683
  823MOL0     H 8588   5.665   0.652   5.753 -0.4440  0.3159 -0.0164
  823MOL0     H 8589   5.659   0.704   5.391  0.2440 -2.6503 -1.3197
  823MOL0     H 8590   5.391   0.636   5.192  1.0712  1.3236 -0.8714
  823MOL0     H 8591   5.463   0.781   5.231  0.7972 -0.6740 -0.3732
  823MOL0     H 8592   5.245   0.842   5.376 -0.4088  0.8941 -0.2171
  823MOL0     H 8593   5.181   0.683   5.330  2.9852 -1.1492  0.6259
  823MOL0     H 8594   5.218   0.911   5.134 -0.8712  0.1438  1.0180
  823MOL0     H 8595   5.169   0.738   5.100 -0.5773 -1.4157  1.1590
  823MOL0     H 8596   5.034   0.954   5.279 -0.7373 -0.8181  1.5387
  823MOL0     H 8597   4.962   0.790   5.236  1.6124 -0.0889  0.5438
  823MOL0     H 8598   4.795   0.936   5.310 -2.4534 -0.2775  1.0123
  823MOL0     H 8599   4.569   1.015   5.317 -0.4025 -1.5212 -1.9301
  823MOL0     H 8600   4.254   1.118   5.437  0.7007  0.2670  0.2393
  823MOL0     H 8601   4.005   1.179   5.496 -0.1909  1.4974 -0.5280
  823MOL0     H 8602   3.838   1.332   5.506 -1.4895 -0.8416  1.6160
  823MOL0     H 8603   3.723   1.199   5.477  0.6107  0.3457  1.3663
  823MOL0     H 8604   3.669   1.468   5.358  2.2459 -0.2090 -0.0995
  823MOL0     H 8605   3.620   1.427   5.517 -1.5950  0.4518 -1.3305
  823MOL0     H 8606   3.528   1.196   5.412 -5.8173 -0.2346 -1.2137
  823MOL0     H 8607   3.543   1.286   5.260  0.9985  1.9191 -0.0695
  823MOL0     H 8608   3.380   1.340   5.512 -1.9868  1.4449  0.1535
  823MOL0     H 8609   3.401   1.468   5.385 -2.0745  0.3662 -0.3872
  823MOL0     H 8610   3.287   1.195   5.330 -1.6720 -0.0347 -0.9019
  823MOL0     H 8611   3.306   1.324   5.205 -3.3132  0.9402  0.1042
  823MOL0     H 8612   3.174   1.477   5.350 -0.5573  0.6805 -0.9011
  823MOL0     H 8613   3.138   1.324   5.436  0.9682 -0.8733  0.0876
  823MOL0     H 8614   3.079   1.358   5.137  2.2206 -0.2184  1.0994
  823MOL0     H 8615   3.023   1.239   5.249  1.5937 -0.5707 -1.9570
  823MOL0     H 8616   2.953   1.528   5.224  0.1060  1.9296  3.9146
  823MOL0     H 8617   2.896   1.437   5.371  0.3274  0.2787 -0.1399
  823MOL0     H 8618   3.936   1.263   5.091 -0.5705  2.4814  1.5290
  823MOL0     H 8619   4.154   1.203   5.031 -0.8244 -1.0341  0.2509
  823MOL0     H 8620   4.609   1.125   4.898 -1.3074 -1.2658 -0.6766
  823MOL0     H 8621   4.840   1.048   4.899 -0.0845 -0.8970  0.3276
  823MOL0     H 8622   6.653   0.228   5.737  1.0918 -1.8302 -0.0464
  823MOL0     H 8623   6.892   0.179   5.815  2.3751 -3.4495  1.7407
  823MOL0     H 8624   7.172   0.127   6.373  2.9763 -0.4730  1.7209
  823MOL0     H 8625   7.413   0.127   6.384 -0.4152 -0.0169 -0.0584
  823MOL0     H 8626   7.627  -0.070   6.053  2.6584 -1.0392 -0.3539
  823MOL0     H 8627   7.763  -0.010   6.159 -1.1709 -1.3461  2.2449
  823MOL0     H 8628   7.626   0.116   5.919  1.6666  1.9305 -1.8837
  823MOL0     H 8629   7.751   0.204   6.019 -1.4813  1.1147 -0.6555
  823MOL0     H 8630   7.765  -0.026   5.824  1.3999 -0.6015 -1.6682
  823MOL0     H 8631   7.868  -0.034   5.963 -4.4267 -1.6718  2.1145
  823MOL0     H 8632   7.847   0.193   5.746 -2.4144 -1.8464  0.9165
  823MOL0     H 8633   7.959   0.209   5.882  1.0785 -0.7949  0.1465
  823MOL0     H 8634   8.146  -0.025   5.589  0.9804 -0.6064  0.5106
  823MOL0     H 8635   7.423   0.014   5.959 -3.3267 -1.6487 -1.2467
  823MOL0     H 8636   7.199   0.045   5.946  2.6321 -1.3584 -0.4084
  824MOL0     O 8637   4.730   4.277   8.187  0.3116  0.0763 -0.3648
  824MOL0     C 8638   4.672   4.309   8.083  0.6016  0.9149 -0.0542
  824MOL0     O 8639   4.734   4.355   7.974 -0.4049  0.5115  0.0192
  824MOL0     C 8640   4.875   4.349   7.979  0.0160 -0.1286  0.1107
  824MOL0     C 8641   4.949   4.229   7.939  0.0048 -0.5278 -0.2319
  824MOL0     C 8642   5.093   4.232   7.962  0.3878  0.4481 -0.9241
  824MOL0     C 8643   5.157   4.349   8.007 -0.3886 -0.0836  0.2063
  824MOL0     O 8644   5.284   4.364   8.024 -0.0504  0.0936 -0.4462
  824MOL0     C 8645   5.364   4.291   7.932 -0.0901  0.0114  0.4983
  824MOL0     C 8646   5.489   4.371   7.917 -0.1485  0.4975  0.2729
  824MOL0     C 8647   5.570   4.294   7.816 -0.8322  0.2101  0.0248
  824MOL0     C 8648   5.708   4.352   7.805 -0.5680  0.0680  0.1423
  824MOL0     C 8649   5.822   4.266   7.749 -0.5358 -0.2012 -0.2966
  824MOL0     C 8650   5.815   4.238   7.599  0.3538  0.2320  0.3834
  824MOL0     C 8651   5.933   4.162   7.540  0.2686  0.1054 -0.3200
  824MOL0     C 8652   6.052   4.258   7.517  0.7426  0.3087  0.7803
  824MOL0     N 8653   6.032   4.306   7.380 -0.2902 -0.2289 -0.1325
  824MOL0     C 8654   5.954   4.408   7.340  0.2206 -0.0465 -0.5916
  824MOL0     C 8655   5.974   4.432   7.212 -0.4065 -0.5204  0.0175
  824MOL0     C 8656   5.906   4.536   7.123 -0.7860  0.0874  1.4276
  824MOL0     C 8657   5.941   4.676   7.180  0.2540 -0.1810  0.1841
  824MOL0     C 8658   5.924   4.800   7.083  0.1296  0.2463 -0.2567
  824MOL0     C 8659   5.784   4.830   7.035  0.2542  0.5565 -0.1445
  824MOL0     O 8660   5.707   4.883   7.149 -0.1062  0.4030  0.8424
  824MOL0     C 8661   5.571   4.874   7.141  0.0391 -1.2098 -0.6294
  824MOL0     C 8662   5.497   4.842   7.030 -0.5533 -1.2573  0.0308
  824MOL0     C 8663   5.353   4.840   7.036 -0.5886 -0.0918 -0.4940
  824MOL0     C 8664   5.283   4.876   7.156 -0.4473  0.2164  0.3012
  824MOL0     C 8665   5.132   4.877   7.181 -0.1590  0.8447 -0.7394
  824MOL0     O 8666   5.081   4.908   7.306  0.3282  0.0046 -0.2234
  824MOL0     C 8667   4.946   4.897   7.306  0.5484  0.1397 -0.2506
  824MOL0     C 8668   4.855   5.006   7.276  0.4839 -0.1969  0.4697
  824MOL0     C 8669   4.710   4.974   7.262 -1.0590 -0.7347  0.3930
  824MOL0     C 8670   4.666   4.838   7.291 -0.1354  0.1774 -0.0410
  824MOL0     O 8671   4.539   4.790   7.288  0.3221 -0.1660  0.1229
  824MOL0     C 8672   4.432   4.886   7.280 -0.2301  0.0773  0.6814
  824MOL0     C 8673   4.311   4.797   7.311 -0.6748 -0.2173  0.0813
  824MOL0     C 8674   4.183   4.881   7.333 -0.3253  0.7699 -0.6149
  824MOL0     C 8675   4.065   4.788   7.374 -0.6833  0.1248  0.2013
  824MOL0     C 8676   3.946   4.884   7.377  0.3273 -0.0087 -0.5942
  824MOL0     C 8677   3.825   4.793   7.418  0.3430 -0.2573  0.5313
  824MOL0     C 8678   3.687   4.871   7.419  0.5878  1.0898  0.0774
  824MOL0     C 8679   3.564   4.788   7.398  0.9499 -0.9485  0.5677
  824MOL0    Cl 8680   3.533   4.672   7.523  0.2511 -0.2694 -0.1821
  824MOL0     C 8681   4.760   4.743   7.334 -0.0456 -0.2969  0.5955
  824MOL0     C 8682   4.889   4.769   7.341 -0.4295  0.1704  0.9652
  824MOL0     O 8683   5.062   4.851   7.084  0.4130 -0.7279 -0.2722
  824MOL0     C 8684   5.363   4.925   7.263  0.2846 -0.5092  0.4211
  824MOL0     C 8685   5.502   4.922   7.251  0.7555 -0.2498  0.2242
  824MOL0     N 8686   6.066   4.337   7.173 -0.0366 -0.1925  0.1725
  824MOL0     N 8687   6.109   4.268   7.271 -1.0515 -0.0744 -0.9572
  824MOL0     C 8688   5.080   4.463   8.024  0.2639 -0.3990  0.4617
  824MOL0     C 8689   4.943   4.464   8.016 -0.5516 -1.0188  0.2497
  824MOL0     C 8690   4.528   4.328   8.083  0.8144 -0.1546  1.0325
  824MOL0     C 8691   4.464   4.379   7.972  0.4690  0.6347 -0.3449
  824MOL0     C 8692   4.332   4.411   7.972 -0.2786  0.8050  0.6116
  824MOL0     C 8693   4.255   4.387   8.089 -0.3167  0.0788 -0.4073
  824MOL0     O 8694   4.122   4.412   8.107  0.5569  1.0189 -0.3632
  824MOL0     C 8695   4.043   4.471   8.001 -0.0633  1.2151  0.6812
  824MOL0     C 8696   3.900   4.481   8.026  0.4244 -0.7360 -0.3224
  824MOL0     C 8697   3.875   4.557   8.160 -0.1671 -0.1582 -0.7143
  824MOL0     C 8698   3.752   4.530   8.240 -0.0859 -0.4370  0.8617
  824MOL0     C 8699   3.632   4.601   8.188 -0.1816  0.1041 -0.9842
  824MOL0     C 8700   3.538   4.652   8.138 -0.1154 -0.8865 -0.2075
  824MOL0     C 8701   4.317   4.337   8.201 -0.1692 -0.6968  0.8209
  824MOL0     C 8702   4.451   4.302   8.193  1.1167  0.4718 -0.6589
  824MOL0     H 8703   4.898   4.135   7.922  0.7757 -1.1812  0.8440
  824MOL0     H 8704   5.150   4.141   7.943 -0.5938 -0.7293  1.3656
  824MOL0     H 8705   5.315   4.287   7.834 -1.5132  3.1537  0.9425
  824MOL0     H 8706   5.391   4.192   7.970 -3.0957 -0.5719  1.3171
  824MOL0     H 8707   5.547   4.362   8.010  1.9312 -0.3977 -1.0193
  824MOL0     H 8708   5.485   4.476   7.888 -0.1771  0.1863 -0.8684
  824MOL0     H 8709   5.525   4.299   7.716 -0.1955 -0.7598 -0.3251
  824MOL0     H 8710   5.577   4.187   7.838  1.6695 -0.0423 -1.5614
  824MOL0     H 8711   5.694   4.447   7.753  1.0853 -0.6474 -1.7773
  824MOL0     H 8712   5.744   4.382   7.904 -2.8784  3.7122  0.0610
  824MOL0     H 8713   5.830   4.169   7.799  0.8429  0.8489  1.6507
  824MOL0     H 8714   5.915   4.319   7.771 -0.9649  0.8071 -0.8370
  824MOL0     H 8715   5.780   4.324   7.541  1.3394  0.2260 -0.2472
  824MOL0     H 8716   5.725   4.176   7.591 -0.6601  1.8400 -2.0510
  824MOL0     H 8717   5.957   4.087   7.616 -1.7505  1.3284  1.6460
  824MOL0     H 8718   5.909   4.107   7.448  2.6153 -2.8816  0.6880
  824MOL0     H 8719   6.140   4.195   7.524  0.8633  0.3530 -0.2465
  824MOL0     H 8720   6.066   4.338   7.591  2.5148  0.7813 -0.0180
  824MOL0     H 8721   5.891   4.464   7.409  2.1766  2.9698 -1.0699
  824MOL0     H 8722   5.800   4.516   7.103 -0.2392  0.5050 -2.6050
  824MOL0     H 8723   5.952   4.535   7.024 -3.2700  1.9811  0.1577
  824MOL0     H 8724   6.044   4.657   7.213  0.1418 -1.0152  0.0838
  824MOL0     H 8725   5.887   4.702   7.271  0.4147  0.9588 -0.0317
  824MOL0     H 8726   5.969   4.891   7.123  4.0652 -1.2006 -0.8588
  824MOL0     H 8727   5.981   4.779   6.991 -1.0354 -1.9846 -0.5477
  824MOL0     H 8728   5.741   4.736   6.999 -1.3906  1.4438 -0.5995
  824MOL0     H 8729   5.790   4.897   6.949 -1.7898  1.0140  0.0157
  824MOL0     H 8730   5.552   4.825   6.938  1.8060  2.2187  0.5745
  824MOL0     H 8731   5.295   4.822   6.946 -0.7398  2.5984 -1.0181
  824MOL0     H 8732   4.876   5.108   7.245  0.0360 -0.5768 -1.1913
  824MOL0     H 8733   4.641   5.052   7.232  0.2923  0.5197  0.4098
  824MOL0     H 8734   4.424   4.939   7.184  2.4507 -0.5704  0.0250
  824MOL0     H 8735   4.438   4.963   7.357 -0.2844  0.9983 -0.2198
  824MOL0     H 8736   4.321   4.727   7.396 -3.7009 -1.1984 -0.2666
  824MOL0     H 8737   4.307   4.740   7.218  3.7215  2.8552 -2.3623
  824MOL0     H 8738   4.173   4.938   7.241  0.2283  0.1895 -1.0465
  824MOL0     H 8739   4.208   4.956   7.409 -3.7436  0.1725  1.2937
  824MOL0     H 8740   4.042   4.702   7.310 -0.0788 -0.5952  0.9302
  824MOL0     H 8741   4.078   4.752   7.477 -0.5968  2.3534  1.0175
  824MOL0     H 8742   3.935   4.931   7.279  2.4378 -1.5542 -1.6565
  824MOL0     H 8743   3.956   4.954   7.460 -1.2447 -1.4750  0.9158
  824MOL0     H 8744   3.847   4.743   7.512  0.5768  0.1710  0.7035
  824MOL0     H 8745   3.811   4.713   7.344  2.5842 -2.1189  1.9638
  824MOL0     H 8746   3.677   4.912   7.520 -2.0362  2.7591 -0.7552
  824MOL0     H 8747   3.684   4.955   7.349  0.3595  0.4453 -0.7005
  824MOL0     H 8748   3.573   4.740   7.300  0.3184  0.0888 -0.0131
  824MOL0     H 8749   3.468   4.839   7.399 -1.1974 -4.6338  0.9920
  824MOL0     H 8750   4.723   4.642   7.349 -2.4338  0.3269 -0.6037
  824MOL0     H 8751   4.964   4.691   7.355  0.1723  0.6337  0.4043
  824MOL0     H 8752   5.326   4.975   7.352 -0.0535  1.5818 -0.8310
  824MOL0     H 8753   5.555   4.960   7.338 -2.2832  0.6814  1.8096
  824MOL0     H 8754   5.135   4.556   8.033  0.4342 -0.6666  2.4892
  824MOL0     H 8755   4.887   4.553   8.043 -1.0037 -2.1564  3.4896
  824MOL0     H 8756   4.520   4.397   7.882  1.9183 -0.0665  0.3790
  824MOL0     H 8757   4.286   4.453   7.883  1.0659 -1.5830 -1.3594
  824MOL0     H 8758   4.056   4.423   7.903 -0.5445  2.0201  0.2156
  824MOL0     H 8759   4.085   4.572   7.993  0.7865  0.9107  1.1859
  824MOL0     H 8760   3.840   4.533   7.950 -0.3803  0.6265  1.1665
  824MOL0     H 8761   3.870   4.376   8.035  0.3148 -0.7063 -0.3298
  824MOL0     H 8762   3.877   4.666   8.145  1.9120 -0.0825 -0.1943
  824MOL0     H 8763   3.957   4.532   8.229 -1.3010  1.2705  1.2680
  824MOL0     H 8764   3.725   4.424   8.229  0.2061 -0.2788 -2.0969
  824MOL0     H 8765   3.767   4.558   8.345  3.8176 -0.2190  0.3993
  824MOL0     H 8766   3.466   4.715   8.090 -1.0252 -0.0448  2.1326
  824MOL0     H 8767   4.255   4.337   8.290 -0.4614  1.0685  0.6439
  824MOL0     H 8768   4.493   4.261   8.284  0.2346  0.8698 -0.0531
  825MOL0     O 8769   9.955   2.432   1.558 -0.4049 -0.1750 -0.2175
  825MOL0     C 8770  10.074   2.390   1.541  0.3697  0.2130  0.3683
  825MOL0     O 8771  10.135   2.298   1.617 -0.1594 -0.0139 -0.7289
  825MOL0     C 8772  10.069   2.248   1.724  0.6581  0.2705 -0.2185
  825MOL0     C 8773  10.039   2.113   1.734  0.5919  0.4988 -1.4128
  825MOL0     C 8774   9.977   2.063   1.859 -0.0897 -0.2597 -0.0009
  825MOL0     C 8775   9.959   2.147   1.968 -0.0979 -0.1915  0.2007
  825MOL0     O 8776   9.911   2.121   2.090 -0.5099 -0.5159 -0.4012
  825MOL0     C 8777   9.883   1.988   2.134 -0.0421 -0.3509 -0.6233
  825MOL0     C 8778   9.752   1.934   2.074 -1.0714 -0.2187  0.5863
  825MOL0     C 8779   9.633   1.940   2.164 -0.3013  0.3501  0.3833
  825MOL0     C 8780   9.522   1.839   2.121  0.9747  0.1978 -0.3801
  825MOL0     C 8781   9.396   1.858   2.202  0.3603 -0.4621 -0.5834
  825MOL0     C 8782   9.326   1.727   2.188  0.2834  0.0855  0.0377
  825MOL0     C 8783   9.194   1.726   2.271 -0.8489 -0.8395 -0.5326
  825MOL0     C 8784   9.080   1.774   2.179 -0.3271  0.1286 -0.4623
  825MOL0     N 8785   8.965   1.814   2.258  0.3177  0.6446  0.1899
  825MOL0     C 8786   8.936   1.943   2.298  0.2527  0.0321  0.3159
  825MOL0     C 8787   8.812   1.940   2.352 -0.2833  0.0481 -0.1689
  825MOL0     C 8788   8.737   2.056   2.416  0.5189  0.3908 -0.0096
  825MOL0     C 8789   8.668   2.138   2.304  0.5184 -0.8683 -0.3723
  825MOL0     C 8790   8.551   2.052   2.263  0.4636 -0.3642  0.7975
  825MOL0     C 8791   8.477   2.110   2.138 -1.2567 -0.8052 -0.7741
  825MOL0     O 8792   8.362   2.034   2.086  0.1177 -0.1818  0.0906
  825MOL0     C 8793   8.249   2.037   2.157  0.2007 -0.9026 -0.2934
  825MOL0     C 8794   8.224   2.120   2.273 -0.2489  0.4008  0.9759
  825MOL0     C 8795   8.101   2.104   2.335  0.4425 -0.2421 -1.0117
  825MOL0     C 8796   8.002   2.016   2.293 -0.1689 -0.1973  0.0804
  825MOL0     C 8797   7.872   2.011   2.366 -0.4794  0.0771  0.8730
  825MOL0     O 8798   7.767   1.964   2.293 -0.2744  0.1634 -0.9674
  825MOL0     C 8799   7.645   1.985   2.353  0.2146  0.0295  0.0751
  825MOL0     C 8800   7.553   2.094   2.324  0.2888 -0.6154  0.3516
  825MOL0     C 8801   7.426   2.100   2.366  0.3164 -0.3690 -0.1479
  825MOL0     C 8802   7.381   2.005   2.456 -0.5824  1.0317  0.9437
  825MOL0     O 8803   7.252   2.016   2.488 -0.4307  0.3584  0.1555
  825MOL0     C 8804   7.171   1.894   2.472 -0.1767 -0.2155  0.7335
  825MOL0     C 8805   7.033   1.932   2.512 -0.1579 -0.4482  0.4026
  825MOL0     C 8806   6.952   1.976   2.387 -0.2871  0.1814  0.5034
  825MOL0     C 8807   6.796   2.013   2.405  0.2148 -0.5235  0.2455
  825MOL0     C 8808   6.759   2.110   2.513  0.8367 -0.0386  0.5993
  825MOL0     C 8809   6.612   2.142   2.489  0.0471  0.0064  0.6295
  825MOL0     C 8810   6.572   2.255   2.574  0.3196 -0.9736  0.0603
  825MOL0     C 8811   6.535   2.208   2.716  0.8006 -0.1382 -0.5528
  825MOL0    Cl 8812   6.461   2.336   2.811  0.1618 -0.1545 -0.0571
  825MOL0     C 8813   7.468   1.898   2.497 -0.1014 -0.3883  0.5072
  825MOL0     C 8814   7.597   1.896   2.447  0.1330 -0.1988 -0.2807
  825MOL0     O 8815   7.865   2.057   2.480 -0.1888  0.6030  0.0498
  825MOL0     C 8816   8.029   1.940   2.182  0.3229  0.0671  0.1068
  825MOL0     C 8817   8.148   1.951   2.113 -0.4431 -0.4396  0.8580
  825MOL0     N 8818   8.772   1.808   2.347 -0.0092 -0.8232 -0.0795
  825MOL0     N 8819   8.862   1.730   2.292 -0.2822  0.4771  0.2077
  825MOL0     C 8820   9.996   2.278   1.959  0.2160  0.7449  0.2924
  825MOL0     C 8821  10.045   2.330   1.840 -0.2752  0.2919 -0.6088
  825MOL0     C 8822  10.143   2.441   1.424 -0.1325 -0.4713  0.5384
  825MOL0     C 8823  10.262   2.378   1.375  0.3070  0.5419 -0.3022
  825MOL0     C 8824  10.323   2.416   1.252 -0.0066  0.4501 -1.3391
  825MOL0     C 8825  10.267   2.519   1.176  0.1877 -0.3584  0.3653
  825MOL0     O 8826  10.322   2.569   1.061  0.3226 -0.4543 -0.3572
  825MOL0     C 8827  10.421   2.493   0.988 -0.0016 -0.4024 -0.3920
  825MOL0     C 8828  10.366   2.357   0.938  0.2439 -0.2527  0.7062
  825MOL0     C 8829  10.476   2.252   0.931 -0.1541  0.0835  0.3832
  825MOL0     C 8830  10.580   2.254   0.816 -0.2921  0.3456  0.2328
  825MOL0     C 8831  10.686   2.353   0.840 -0.4632 -0.1980  0.7894
  825MOL0     C 8832  10.762   2.446   0.839 -0.6524 -0.4885 -0.2500
  825MOL0     C 8833  10.152   2.584   1.226 -0.0016  0.4177 -0.5009
  825MOL0     C 8834  10.088   2.545   1.342  1.3289 -0.2831 -0.0418
  825MOL0     H 8835  10.054   2.048   1.649  0.6514  2.8166 -3.2467
  825MOL0     H 8836   9.961   1.956   1.865  1.0212 -0.4756 -0.6154
  825MOL0     H 8837   9.868   1.980   2.243 -2.4501 -1.8651 -1.0023
  825MOL0     H 8838   9.964   1.926   2.097 -0.7401 -1.2468 -0.6785
  825MOL0     H 8839   9.776   1.833   2.039  1.1969  0.6616 -0.6926
  825MOL0     H 8840   9.738   1.981   1.976  2.9655  0.3399  0.0881
  825MOL0     H 8841   9.593   2.042   2.161 -0.6475  0.2707  1.7612
  825MOL0     H 8842   9.658   1.920   2.268  2.1590 -2.9887 -0.6760
  825MOL0     H 8843   9.489   1.862   2.019  1.4690  0.1650 -0.5463
  825MOL0     H 8844   9.566   1.739   2.125  2.3613  0.7844 -0.4794
  825MOL0     H 8845   9.330   1.932   2.156  0.6925 -0.4307 -1.0169
  825MOL0     H 8846   9.418   1.888   2.305  2.3420 -0.5592 -0.9392
  825MOL0     H 8847   9.384   1.646   2.233  3.6321  0.9919 -2.2267
  825MOL0     H 8848   9.303   1.698   2.084  2.1854  1.6472 -0.8779
  825MOL0     H 8849   9.166   1.627   2.308 -1.1744  0.1282  1.9588
  825MOL0     H 8850   9.199   1.785   2.362  1.4939  0.0034 -1.1391
  825MOL0     H 8851   9.064   1.684   2.118 -0.9154 -1.1581  1.4981
  825MOL0     H 8852   9.117   1.850   2.109  2.0474 -0.1772  0.3802
  825MOL0     H 8853   8.989   2.037   2.294 -3.7872  2.7475  2.7464
  825MOL0     H 8854   8.815   2.112   2.469 -0.8242 -1.3607  4.2397
  825MOL0     H 8855   8.660   2.019   2.484  1.1536  0.5190  0.7955
  825MOL0     H 8856   8.743   2.153   2.226  1.1948 -1.8052  0.0850
  825MOL0     H 8857   8.635   2.230   2.353 -0.2295 -0.2055 -2.0519
  825MOL0     H 8858   8.584   1.950   2.240  0.1180 -0.7821  2.0600
  825MOL0     H 8859   8.490   2.045   2.354 -2.1047 -0.5311 -0.8267
  825MOL0     H 8860   8.554   2.118   2.061 -0.3742 -0.7958  0.0855
  825MOL0     H 8861   8.457   2.214   2.164  1.5572 -0.3641 -0.0604
  825MOL0     H 8862   8.294   2.196   2.305  1.0654 -1.1829  2.0148
  825MOL0     H 8863   8.069   2.166   2.418  0.7801 -0.7943 -0.4486
  825MOL0     H 8864   7.574   2.170   2.250 -2.1355 -0.9677 -0.8219
  825MOL0     H 8865   7.351   2.174   2.339 -0.3432 -1.0107 -0.1311
  825MOL0     H 8866   7.209   1.814   2.537  2.5051 -0.3803 -0.8526
  825MOL0     H 8867   7.173   1.852   2.371 -0.3186 -0.2417  0.7415
  825MOL0     H 8868   7.026   2.000   2.597 -0.4064  1.5853 -1.1638
  825MOL0     H 8869   6.983   1.843   2.551  0.2162 -0.6385  0.4472
  825MOL0     H 8870   6.969   1.902   2.308 -1.2436  3.6946 -3.3176
  825MOL0     H 8871   7.010   2.054   2.338  0.1063  0.4902  1.4511
  825MOL0     H 8872   6.765   2.048   2.307  2.1004 -1.9420 -0.9356
  825MOL0     H 8873   6.737   1.927   2.438 -1.9766  0.7678 -0.1678
  825MOL0     H 8874   6.826   2.197   2.508  1.2925 -0.4488 -2.3076
  825MOL0     H 8875   6.770   2.053   2.606 -1.2266 -0.2601  0.7526
  825MOL0     H 8876   6.536   2.064   2.494 -2.1204  1.6480 -2.7909
  825MOL0     H 8877   6.608   2.178   2.386  1.1228 -0.9040  0.2501
  825MOL0     H 8878   6.652   2.328   2.586  2.2336 -2.9456  0.0481
  825MOL0     H 8879   6.488   2.306   2.527 -2.9209 -1.3843  4.8228
  825MOL0     H 8880   6.633   2.179   2.754  1.4387  2.5824  0.0615
  825MOL0     H 8881   6.467   2.122   2.719  0.3762  0.2075  2.3031
  825MOL0     H 8882   7.429   1.818   2.560 -2.9772  0.8230  0.4015
  825MOL0     H 8883   7.656   1.808   2.471 -3.3576 -3.2474 -1.9423
  825MOL0     H 8884   7.966   1.858   2.149  1.8710 -0.5064 -1.6109
  825MOL0     H 8885   8.183   1.878   2.041  0.9861  0.7184  0.3441
  825MOL0     H 8886  10.004   2.337   2.050 -0.8330  0.1354  0.7885
  825MOL0     H 8887  10.068   2.436   1.836 -0.0597  0.2727 -0.0772
  825MOL0     H 8888  10.312   2.299   1.430 -0.3494 -0.2388 -0.7961
  825MOL0     H 8889  10.407   2.355   1.220 -0.0463 -1.3761  1.6759
  825MOL0     H 8890  10.500   2.472   1.060 -0.8684  1.5052  1.2158
  825MOL0     H 8891  10.463   2.549   0.904  2.7613 -0.8476  0.6060
  825MOL0     H 8892  10.285   2.316   0.999  0.4999  1.0135  1.9638
  825MOL0     H 8893  10.324   2.372   0.838 -0.4658 -0.5845  0.9462
  825MOL0     H 8894  10.416   2.160   0.927  2.0557 -1.3802 -1.3389
  825MOL0     H 8895  10.531   2.249   1.025  2.2769 -2.1282 -0.9863
  825MOL0     H 8896  10.627   2.155   0.809 -0.9341  0.1054 -0.7167
  825MOL0     H 8897  10.524   2.261   0.723 -1.3514  1.3250  0.9236
  825MOL0     H 8898  10.828   2.529   0.852 -2.1216  0.3266  3.0989
  825MOL0     H 8899  10.116   2.669   1.168 -0.4345 -1.3404 -2.9914
  825MOL0     H 8900   9.996   2.596   1.367  1.0522 -2.0103  3.0019
  826MOL0     O 8901   2.791   9.560   8.332  0.0873 -0.1959  0.1137
  826MOL0     C 8902   2.844   9.470   8.273  0.4844  0.7521  0.4208
  826MOL0     O 8903   2.776   9.367   8.213  0.0824  0.0048  0.4086
  826MOL0     C 8904   2.637   9.381   8.196 -0.5703  0.3923 -0.1162
  826MOL0     C 8905   2.552   9.274   8.199 -0.5700  0.7228 -0.0196
  826MOL0     C 8906   2.416   9.280   8.173  0.2568 -0.2302  0.0666
  826MOL0     C 8907   2.352   9.399   8.130 -0.3778 -0.1243  0.3665
  826MOL0     O 8908   2.225   9.408   8.076  0.1927  0.8491 -0.0389
  826MOL0     C 8909   2.144   9.289   8.093 -0.0706  0.0605 -0.3047
  826MOL0     C 8910   2.013   9.296   8.003 -0.4066  0.0583  0.7937
  826MOL0     C 8911   1.898   9.362   8.089 -0.0336 -0.7207 -0.6541
  826MOL0     C 8912   1.773   9.389   8.009 -0.1734  0.4239 -0.7911
  826MOL0     C 8913   1.646   9.415   8.090 -0.4708 -0.0447  0.5057
  826MOL0     C 8914   1.519   9.398   8.010 -0.5239  0.0586  0.1727
  826MOL0     C 8915   1.387   9.454   8.067 -0.7919  1.0290  0.3400
  826MOL0     C 8916   1.355   9.399   8.214  0.0309 -0.1744  0.2216
  826MOL0     N 8917   1.321   9.262   8.184 -0.1331  0.0253  0.3576
  826MOL0     C 8918   1.199   9.210   8.135 -0.9782 -0.6913 -1.2245
  826MOL0     C 8919   1.198   9.081   8.158  0.2020  0.0925 -0.0127
  826MOL0     C 8920   1.100   8.976   8.105 -0.1557 -0.1521 -0.2171
  826MOL0     C 8921   1.080   9.007   7.962 -0.2817 -0.6357  0.8619
  826MOL0     C 8922   0.959   8.950   7.897  0.6617 -0.6712  0.1897
  826MOL0     C 8923   0.826   8.996   7.965 -0.4438  0.2005 -0.3680
  826MOL0     O 8924   0.712   8.950   7.891  0.5655 -0.3333  0.8194
  826MOL0     C 8925   0.576   8.984   7.926 -0.8624  0.7361 -0.5664
  826MOL0     C 8926   0.466   8.946   7.843  0.0632  0.0603  0.4848
  826MOL0     C 8927   0.335   8.968   7.871 -0.5204 -0.5056  0.6790
  826MOL0     C 8928   0.303   9.006   8.010  0.1553 -0.6238 -0.0392
  826MOL0     C 8929   0.164   9.029   8.045  0.2133  1.1221 -0.1346
  826MOL0     O 8930   0.081   9.033   7.936  0.1988 -0.1884  0.3462
  826MOL0     C 8931  -0.054   9.042   7.966  0.1822 -0.5199 -0.6686
  826MOL0     C 8932  -0.131   8.932   7.955 -0.6057  0.6183  0.2596
  826MOL0     C 8933  -0.267   8.940   7.983 -0.2299 -0.0107 -0.9739
  826MOL0     C 8934  -0.323   9.067   8.009 -0.8942  0.1511 -0.5722
  826MOL0     O 8935  -0.458   9.069   8.048  0.0934  0.0029 -0.1164
  826MOL0     C 8936  -0.524   9.192   8.088 -0.3802  0.3672  0.1305
  826MOL0     C 8937  -0.663   9.149   8.136 -0.3395 -0.1877 -0.0056
  826MOL0     C 8938  -0.756   9.125   8.015  0.4821 -0.0381  0.4848
  826MOL0     C 8939  -0.802   9.259   7.956 -0.6403 -0.4869  0.1936
  826MOL0     C 8940  -0.917   9.251   7.855 -0.7460 -0.3537 -0.2835
  826MOL0     C 8941  -1.051   9.216   7.925  0.3961 -0.3189  0.1608
  826MOL0     C 8942  -1.144   9.162   7.816  0.7882 -0.1122  0.6563
  826MOL0     C 8943  -1.287   9.128   7.861 -0.4758  0.1199  0.0595
  826MOL0    Cl 8944  -1.281   9.013   8.003 -0.1554 -0.0994  0.1360
  826MOL0     C 8945  -0.246   9.180   8.028 -0.0928  0.2935 -0.0153
  826MOL0     C 8946  -0.109   9.164   7.995  0.1818 -0.3671  0.4608
  826MOL0     O 8947   0.141   9.040   8.158  0.2029 -0.4487 -0.6601
  826MOL0     C 8948   0.410   9.040   8.093 -1.0996 -0.1267  0.1046
  826MOL0     C 8949   0.546   9.028   8.054  0.4243  0.2833 -0.7236
  826MOL0     N 8950   1.322   9.042   8.211  0.5596  0.0448 -0.1552
  826MOL0     N 8951   1.399   9.156   8.226  0.7728 -0.0415 -0.0491
  826MOL0     C 8952   2.440   9.514   8.126 -0.0806  0.7837 -0.1316
  826MOL0     C 8953   2.579   9.506   8.142  0.7390 -0.6274 -1.0442
  826MOL0     C 8954   2.987   9.458   8.285  0.2196  0.2788  0.5772
  826MOL0     C 8955   3.063   9.531   8.378 -0.0306 -0.1598  0.1338
  826MOL0     C 8956   3.203   9.488   8.394  0.8853 -0.1197 -0.0954
  826MOL0     C 8957   3.262   9.388   8.321  0.1969 -0.2375  0.8559
  826MOL0     O 8958   3.394   9.362   8.339 -0.7539  0.0837  0.2595
  826MOL0     C 8959   3.452   9.259   8.269 -0.3238  0.9494 -0.9672
  826MOL0     C 8960   3.593   9.250   8.336  0.2067 -0.0899  0.9809
  826MOL0     C 8961   3.582   9.240   8.486  0.8411 -0.1057  0.6909
  826MOL0     C 8962   3.717   9.210   8.556 -0.0795 -0.4712 -0.9920
  826MOL0     C 8963   3.697   9.207   8.700 -0.7456  0.0922  0.0082
  826MOL0     C 8964   3.695   9.212   8.818 -0.0293 -1.0612  0.4342
  826MOL0     C 8965   3.179   9.316   8.231 -0.1954 -0.2905  0.8453
  826MOL0     C 8966   3.043   9.353   8.217 -0.2566 -0.6675  0.2573
  826MOL0     H 8967   2.590   9.176   8.226 -0.0749  0.9095 -0.0212
  826MOL0     H 8968   2.372   9.182   8.183  0.6504 -0.2446  2.0363
  826MOL0     H 8969   2.129   9.263   8.199  1.0649  1.8930  0.3588
  826MOL0     H 8970   2.199   9.208   8.044  0.3454  2.2570 -3.8386
  826MOL0     H 8971   1.983   9.195   7.974 -0.3226  0.2769 -0.0684
  826MOL0     H 8972   2.031   9.355   7.913  0.2950 -0.8512  0.3267
  826MOL0     H 8973   1.939   9.457   8.125  0.8128 -1.3139  0.0172
  826MOL0     H 8974   1.884   9.300   8.178  1.8205 -0.0527  0.1727
  826MOL0     H 8975   1.790   9.478   7.948  0.3888 -0.0604 -1.3586
  826MOL0     H 8976   1.762   9.299   7.947 -1.2344  0.2889 -0.4347
  826MOL0     H 8977   1.643   9.511   8.143 -1.8321 -1.2533  2.7603
  826MOL0     H 8978   1.643   9.338   8.168 -1.9651 -2.6807 -1.9852
  826MOL0     H 8979   1.507   9.297   7.971 -1.7993 -0.4722  1.8103
  826MOL0     H 8980   1.531   9.459   7.920 -1.5200 -1.8073 -1.2818
  826MOL0     H 8981   1.381   9.563   8.075 -3.5236  1.1591 -1.9186
  826MOL0     H 8982   1.301   9.437   8.002  0.2543  2.4072 -1.4873
  826MOL0     H 8983   1.275   9.457   8.260  2.6425  4.7714 -0.7327
  826MOL0     H 8984   1.450   9.407   8.268 -0.1429 -0.1059  0.5192
  826MOL0     H 8985   1.119   9.265   8.087  0.1740  0.8065 -1.4952
  826MOL0     H 8986   1.006   8.986   8.159 -0.2170 -0.7468 -0.2166
  826MOL0     H 8987   1.148   8.878   8.107 -0.8083 -0.5427 -1.9366
  826MOL0     H 8988   1.173   8.994   7.905 -0.2197  3.3584 -0.3027
  826MOL0     H 8989   1.076   9.116   7.954  2.4490 -0.4054  1.5085
  826MOL0     H 8990   0.956   8.996   7.798 -1.9068  1.8387  1.3203
  826MOL0     H 8991   0.951   8.841   7.890 -0.4153 -0.5246 -1.3532
  826MOL0     H 8992   0.828   9.105   7.975 -2.7806  0.4344 -1.7065
  826MOL0     H 8993   0.818   8.951   8.064  1.4395 -0.5812 -0.5283
  826MOL0     H 8994   0.485   8.914   7.741 -2.1578  3.2852 -1.1071
  826MOL0     H 8995   0.253   8.945   7.804 -0.3769  1.1209 -0.1133
  826MOL0     H 8996  -0.080   8.841   7.926  2.0859  2.5671 -1.5587
  826MOL0     H 8997  -0.330   8.852   7.992 -0.5911  0.4248  1.1179
  826MOL0     H 8998  -0.523   9.267   8.008 -1.1188 -1.1573 -1.3562
  826MOL0     H 8999  -0.476   9.237   8.176  0.2601 -1.4725  0.7721
  826MOL0     H 9000  -0.703   9.237   8.187 -0.4312  0.2496 -0.8303
  826MOL0     H 9001  -0.654   9.058   8.198 -1.6673  0.5196  1.2855
  826MOL0     H 9002  -0.846   9.077   8.056  0.7815 -0.0527  1.1359
  826MOL0     H 9003  -0.720   9.056   7.938 -0.2690 -1.3834  1.2957
  826MOL0     H 9004  -0.836   9.312   8.045 -0.7210  0.8086 -0.5739
  826MOL0     H 9005  -0.717   9.306   7.905  0.6346 -2.4368  0.4374
  826MOL0     H 9006  -0.891   9.180   7.776 -2.5661  1.0262 -2.2218
  826MOL0     H 9007  -0.941   9.345   7.804 -0.0621  1.0122  1.7313
  826MOL0     H 9008  -1.088   9.307   7.972 -0.0240 -0.8956  0.9527
  826MOL0     H 9009  -1.041   9.151   8.012  0.5569  0.0099  0.3892
  826MOL0     H 9010  -1.150   9.236   7.736  2.2258 -1.3880 -0.6951
  826MOL0     H 9011  -1.092   9.074   7.777  0.5150  0.2536 -0.5856
  826MOL0     H 9012  -1.340   9.079   7.779 -1.7970 -0.5292  1.2581
  826MOL0     H 9013  -1.352   9.214   7.875 -2.9145 -1.7383  0.8616
  826MOL0     H 9014  -0.285   9.277   8.057 -0.7720  0.2515 -0.7571
  826MOL0     H 9015  -0.040   9.248   7.994 -0.0980 -0.0946  1.7593
  826MOL0     H 9016   0.397   9.070   8.197 -0.7090 -0.5139  0.2664
  826MOL0     H 9017   0.622   9.044   8.129  1.7083  2.2173 -2.3364
  826MOL0     H 9018   2.410   9.612   8.091  4.3608  2.8490  1.0618
  826MOL0     H 9019   2.635   9.594   8.112  0.6967 -0.5645 -0.9399
  826MOL0     H 9020   3.005   9.609   8.427 -0.7813 -0.0520 -0.9000
  826MOL0     H 9021   3.287   9.521   8.455  1.3164  0.3808 -0.9353
  826MOL0     H 9022   3.461   9.279   8.162 -0.9431  1.3867 -0.9458
  826MOL0     H 9023   3.400   9.163   8.282 -0.7612  1.2845 -0.1687
  826MOL0     H 9024   3.640   9.161   8.293 -0.2901 -1.0521  2.3663
  826MOL0     H 9025   3.652   9.338   8.306  1.2482 -1.2809 -0.6185
  826MOL0     H 9026   3.500   9.174   8.516  1.0343 -0.3597  0.6700
  826MOL0     H 9027   3.551   9.339   8.520 -2.2582 -0.0838 -1.7919
  826MOL0     H 9028   3.753   9.112   8.523  0.2332 -1.1852  1.3171
  826MOL0     H 9029   3.799   9.278   8.530 -1.3539  1.4362 -0.2213
  826MOL0     H 9030   3.697   9.231   8.924 -1.2804  0.6283  0.2097
  826MOL0     H 9031   3.212   9.231   8.173 -1.0419 -0.9764  1.3572
  826MOL0     H 9032   2.978   9.299   8.149 -1.4724 -1.3938  1.9470
  827MOL0     O 9033   2.349   1.785   9.695 -0.1534  0.0795  0.2424
  827MOL0     C 9034   2.416   1.675   9.689  0.0043  0.2877 -0.3785
  827MOL0     O 9035   2.377   1.553   9.749 -0.0028 -0.1710  0.0796
  827MOL0     C 9036   2.252   1.554   9.805  0.0674  0.2244  0.1735
  827MOL0     C 9037   2.241   1.557   9.944 -0.2259  0.5381 -0.4178
  827MOL0     C 9038   2.117   1.549   9.998 -0.0134  0.1478 -0.6177
  827MOL0     C 9039   1.998   1.523   9.921 -0.7508  0.5079 -0.7209
  827MOL0     O 9040   1.889   1.496   9.991  0.3327  0.1070 -0.1711
  827MOL0     C 9041   1.787   1.598   9.990 -0.0540  0.2708  0.1520
  827MOL0     C 9042   1.703   1.561  10.110  0.6971 -0.3399 -0.1973
  827MOL0     C 9043   1.578   1.472  10.075 -0.3637  0.3339 -0.0435
  827MOL0     C 9044   1.469   1.451  10.195  0.8381 -0.0474  0.1726
  827MOL0     C 9045   1.376   1.582  10.220 -0.0365  0.7033 -0.2388
  827MOL0     C 9046   1.292   1.610  10.091  0.4624  0.0251  0.4070
  827MOL0     C 9047   1.145   1.658  10.111 -0.0233  0.9335 -0.0349
  827MOL0     C 9048   1.109   1.760  10.218  0.3754 -1.1253 -0.0389
  827MOL0     N 9049   0.985   1.828  10.201 -0.4668 -0.6038 -0.2249
  827MOL0     C 9050   0.858   1.778  10.226 -0.0501  0.2320 -0.1359
  827MOL0     C 9051   0.781   1.887  10.203  0.0836  0.2746 -0.2228
  827MOL0     C 9052   0.632   1.885  10.211  0.2583 -0.2826 -0.0928
  827MOL0     C 9053   0.578   1.928  10.348 -0.8216 -0.3940 -0.0944
  827MOL0     C 9054   0.589   2.079  10.369  0.4937  0.7018  0.6586
  827MOL0     C 9055   0.460   2.153  10.357  0.6414 -0.1601 -0.1246
  827MOL0     O 9056   0.370   2.101  10.452  0.3588 -0.1433 -0.1539
  827MOL0     C 9057   0.242   2.144  10.450  0.4475 -0.0974  0.2788
  827MOL0     C 9058   0.190   2.228  10.348  0.3737 -1.1639 -0.7820
  827MOL0     C 9059   0.056   2.255  10.353  1.1181  0.2352 -0.5280
  827MOL0     C 9060  -0.030   2.211  10.464  0.0838 -0.4707 -0.1888
  827MOL0     C 9061  -0.180   2.230  10.460  0.4021  0.1130 -0.4590
  827MOL0     O 9062  -0.259   2.136  10.529 -0.0862  0.1433 -0.0547
  827MOL0     C 9063  -0.394   2.135  10.478 -0.6368  0.2937  0.6456
  827MOL0     C 9064  -0.502   2.203  10.526  0.4834  0.3847 -0.2064
  827MOL0     C 9065  -0.630   2.183  10.461  0.1166  0.5504  0.7186
  827MOL0     C 9066  -0.647   2.095  10.357 -0.4237 -0.0409 -0.2081
  827MOL0     O 9067  -0.772   2.084  10.297  0.2292 -0.1429  0.2300
  827MOL0     C 9068  -0.790   1.987  10.185 -0.0058 -0.7790  0.1826
  827MOL0     C 9069  -0.946   1.958  10.173 -0.0810 -0.1537  0.3538
  827MOL0     C 9070  -1.008   1.893  10.293  0.0862  0.6921 -1.0452
  827MOL0     C 9071  -0.941   1.751  10.308 -0.2667  0.3686  0.8661
  827MOL0     C 9072  -0.991   1.673  10.422 -0.5058 -0.0896  0.5530
  827MOL0     C 9073  -0.945   1.526  10.435 -0.0947 -0.0810  0.4665
  827MOL0     C 9074  -1.024   1.463  10.554  0.0036  0.3165 -0.3552
  827MOL0     C 9075  -0.961   1.339  10.607 -0.0352  0.5692  0.1245
  827MOL0    Cl 9076  -1.081   1.234  10.708 -0.2270 -0.2059  0.2367
  827MOL0     C 9077  -0.540   2.027  10.316  0.5482  0.6748 -0.7331
  827MOL0     C 9078  -0.411   2.050  10.372 -0.1961 -0.2650 -0.1983
  827MOL0     O 9079  -0.218   2.320  10.387  0.0818  0.0721 -0.1508
  827MOL0     C 9080   0.024   2.134  10.563  0.1986 -0.6062  0.0717
  827MOL0     C 9081   0.160   2.106  10.564 -0.0222 -0.5996  0.4220
  827MOL0     N 9082   0.851   1.995  10.174 -0.1730  0.1838 -0.4195
  827MOL0     N 9083   0.972   1.954  10.157  0.9768 -0.3389 -0.4438
  827MOL0     C 9084   2.007   1.526   9.784 -0.7424  1.0107  0.3687
  827MOL0     C 9085   2.139   1.541   9.724  0.1017  0.2378 -0.2261
  827MOL0     C 9086   2.553   1.673   9.621 -0.2588  0.6914  0.5185
  827MOL0     C 9087   2.627   1.552   9.615 -0.7757 -0.5415  0.3680
  827MOL0     C 9088   2.754   1.549   9.562 -0.4872 -0.3994 -0.1461
  827MOL0     C 9089   2.804   1.658   9.506  0.6708 -0.3072  0.2121
  827MOL0     O 9090   2.924   1.634   9.438 -0.1744  0.5086  0.0300
  827MOL0     C 9091   3.012   1.741   9.412 -0.2397 -0.5649  0.9641
  827MOL0     C 9092   3.053   1.797   9.553 -0.5061 -0.2066  0.5665
  827MOL0     C 9093   3.154   1.919   9.540 -0.3447  0.9646  1.0465
  827MOL0     C 9094   3.298   1.857   9.522 -0.2722  0.0334  0.5187
  827MOL0     C 9095   3.372   1.849   9.646 -0.2764 -0.2517 -0.4445
  827MOL0     C 9096   3.435   1.839   9.745  0.4257 -0.6767 -0.6367
  827MOL0     C 9097   2.736   1.778   9.502 -0.0577  0.0329 -0.2102
  827MOL0     C 9098   2.608   1.785   9.560  0.1008 -0.0112  0.4283
  827MOL0     H 9099   2.331   1.554  10.004  1.4019 -2.2538 -2.6947
  827MOL0     H 9100   2.115   1.543  10.106  2.9571  1.9259 -0.3459
  827MOL0     H 9101   1.725   1.600   9.900  0.2220  0.9402 -0.0311
  827MOL0     H 9102   1.837   1.694  10.004  0.0365  0.2806 -0.2248
  827MOL0     H 9103   1.665   1.650  10.162 -1.1156 -1.3993  0.3834
  827MOL0     H 9104   1.767   1.523  10.190 -0.5621 -0.2813  0.8769
  827MOL0     H 9105   1.615   1.370  10.062  0.6758  0.7682 -0.5384
  827MOL0     H 9106   1.541   1.509   9.979  3.2455  2.7027 -0.6872
  827MOL0     H 9107   1.401   1.367  10.179 -2.5643  1.9001  2.8642
  827MOL0     H 9108   1.522   1.429  10.288  2.4882  2.2603 -0.1341
  827MOL0     H 9109   1.449   1.663  10.233  1.2605 -0.7556  2.2604
  827MOL0     H 9110   1.313   1.570  10.308 -0.6665 -3.3122 -1.0468
  827MOL0     H 9111   1.278   1.517  10.035 -1.0309  0.1344  0.5480
  827MOL0     H 9112   1.342   1.690  10.036 -1.0634  2.0198  1.7624
  827MOL0     H 9113   1.122   1.699  10.012 -1.1308  0.3837 -0.0186
  827MOL0     H 9114   1.095   1.564  10.134  1.7026 -0.6343 -2.2270
  827MOL0     H 9115   1.195   1.827  10.226  0.4896 -1.4251  1.5645
  827MOL0     H 9116   1.097   1.715  10.317 -0.3607 -0.3617  0.2354
  827MOL0     H 9117   0.834   1.676  10.253 -0.4880 -0.2288 -2.1303
  827MOL0     H 9118   0.605   1.782  10.184  2.0615 -0.9925  0.6758
  827MOL0     H 9119   0.578   1.935  10.130  0.7254  2.1620  1.0344
  827MOL0     H 9120   0.638   1.886  10.429  2.4205 -1.5477 -2.8705
  827MOL0     H 9121   0.476   1.891  10.363 -1.1565  0.9928  1.2185
  827MOL0     H 9122   0.640   2.104  10.463  4.1665  3.0917 -1.6860
  827MOL0     H 9123   0.648   2.123  10.287  0.4036  1.4534  0.9842
  827MOL0     H 9124   0.416   2.135  10.258  3.1213  2.6931 -1.9615
  827MOL0     H 9125   0.473   2.261  10.369  0.2864  0.0378 -1.3726
  827MOL0     H 9126   0.247   2.287  10.276  0.8356 -0.9387 -0.2396
  827MOL0     H 9127   0.008   2.308  10.271 -1.0131 -0.5183  0.1493
  827MOL0     H 9128  -0.488   2.270  10.610 -0.2082  1.0534 -0.6200
  827MOL0     H 9129  -0.712   2.246  10.495  0.2308  1.4469 -0.6016
  827MOL0     H 9130  -0.741   1.891  10.201 -0.6160 -0.9386  1.1591
  827MOL0     H 9131  -0.738   2.029  10.099 -0.6027  0.5607  0.4485
  827MOL0     H 9132  -0.959   1.902  10.080  0.9757  3.6001 -2.2627
  827MOL0     H 9133  -0.995   2.055  10.165  1.3070  0.6611  1.2735
  827MOL0     H 9134  -1.115   1.877  10.274 -0.5570  1.6648  1.3321
  827MOL0     H 9135  -1.003   1.956  10.382  0.4064  2.3267 -2.1781
  827MOL0     H 9136  -0.968   1.690  10.220 -0.7435  2.7687 -0.7640
  827MOL0     H 9137  -0.833   1.756  10.322 -0.2610 -1.6839  2.0174
  827MOL0     H 9138  -1.101   1.668  10.418 -0.5965  0.5662  1.7825
  827MOL0     H 9139  -0.968   1.726  10.515  2.3590 -1.3550  0.6865
  827MOL0     H 9140  -0.836   1.522  10.447  0.2255  2.9714 -0.6576
  827MOL0     H 9141  -0.966   1.475  10.340  1.3665  1.0650 -0.5073
  827MOL0     H 9142  -1.020   1.538  10.634 -0.6674  2.0400 -1.8680
  827MOL0     H 9143  -1.125   1.439  10.521  0.7678 -0.2043 -2.4728
  827MOL0     H 9144  -0.874   1.365  10.668 -0.2535  1.7596 -0.0532
  827MOL0     H 9145  -0.925   1.286  10.518  0.7509  0.9595  0.1969
  827MOL0     H 9146  -0.547   1.950  10.240 -0.1449  1.4273 -1.4501
  827MOL0     H 9147  -0.323   1.990  10.351 -0.6375 -1.0982  0.2708
  827MOL0     H 9148  -0.027   2.109  10.655  0.6832 -0.9398  0.2526
  827MOL0     H 9149   0.209   2.050  10.642  0.4151  0.6650  1.0832
  827MOL0     H 9150   1.920   1.528   9.719 -0.3669  0.3376 -0.1668
  827MOL0     H 9151   2.151   1.547   9.616  0.2818  1.5955 -0.1531
  827MOL0     H 9152   2.600   1.457   9.660  0.2041 -1.5365 -1.0554
  827MOL0     H 9153   2.818   1.462   9.570  0.8255  0.5494 -0.1279
  827MOL0     H 9154   2.967   1.805   9.336 -1.3086 -2.4021 -0.0511
  827MOL0     H 9155   3.106   1.713   9.363 -0.3540  1.6375 -0.6505
  827MOL0     H 9156   2.957   1.840   9.584 -0.9816  1.1266 -2.4114
  827MOL0     H 9157   3.081   1.714   9.618  0.8271  1.3966  2.1414
  827MOL0     H 9158   3.142   1.983   9.627 -1.5353 -1.3861  2.7475
  827MOL0     H 9159   3.125   1.974   9.450 -1.4339 -1.5899 -0.2816
  827MOL0     H 9160   3.287   1.761   9.472 -0.8623  0.9168 -1.1219
  827MOL0     H 9161   3.353   1.911   9.445 -1.2125 -1.0012 -0.9324
  827MOL0     H 9162   3.484   1.837   9.840 -0.0766  1.0701 -0.2935
  827MOL0     H 9163   2.773   1.870   9.458 -2.1337  0.9540 -0.1290
  827MOL0     H 9164   2.541   1.870   9.551  0.7043  0.2756 -2.6342
  828MOL0     O 9165   9.860   4.850   8.578 -0.7467  0.6179  0.1502
  828MOL0     C 9166   9.880   4.855   8.452 -0.1583 -0.0012  0.6575
  828MOL0     O 9167   9.774   4.846   8.356  0.4623  0.6151 -0.1799
  828MOL0     C 9168   9.638   4.847   8.384 -0.4665  0.2457  0.0974
  828MOL0     C 9169   9.562   4.838   8.266 -1.4611  0.1578 -0.0368
  828MOL0     C 9170   9.426   4.840   8.269  0.2854  0.2425 -0.5272
  828MOL0     C 9171   9.357   4.870   8.387 -0.1556  1.0743  0.0146
  828MOL0     O 9172   9.220   4.895   8.396 -0.2768  0.0417  0.3591
  828MOL0     C 9173   9.120   4.820   8.326 -0.4827  0.4781  0.3818
  828MOL0     C 9174   8.987   4.813   8.403  0.7386 -0.4309 -0.6073
  828MOL0     C 9175   8.896   4.718   8.321 -0.4755  0.4623 -0.3720
  828MOL0     C 9176   8.780   4.675   8.400 -0.2936  0.9440 -0.1687
  828MOL0     C 9177   8.816   4.631   8.544  0.6402 -0.9055  0.1770
  828MOL0     C 9178   8.706   4.545   8.603  0.0039 -0.6581 -0.4247
  828MOL0     C 9179   8.750   4.509   8.741  0.2839  0.0285 -0.5362
  828MOL0     C 9180   8.636   4.428   8.808 -0.5998 -0.0750 -0.6005
  828MOL0     N 9181   8.669   4.404   8.947 -1.3908  0.2652 -0.2532
  828MOL0     C 9182   8.711   4.292   9.005  0.4303 -0.5133 -0.0072
  828MOL0     C 9183   8.730   4.310   9.138 -0.3934 -0.2497 -0.7815
  828MOL0     C 9184   8.761   4.215   9.256 -0.3039  0.5896  0.5305
  828MOL0     C 9185   8.632   4.155   9.317 -0.1818  0.7943 -0.2594
  828MOL0     C 9186   8.644   4.043   9.415  0.1378 -0.3804 -0.2238
  828MOL0     C 9187   8.719   4.084   9.544  0.6491  0.5027  1.0044
  828MOL0     O 9188   8.697   3.980   9.636  0.1259  0.1936 -1.2568
  828MOL0     C 9189   8.581   3.992   9.720 -0.4176  0.0228  0.6505
  828MOL0     C 9190   8.538   3.883   9.799 -0.3129 -0.0561 -0.0503
  828MOL0     C 9191   8.421   3.890   9.881 -0.6655 -0.0120  0.0954
  828MOL0     C 9192   8.360   4.017   9.894 -0.1217  0.4912 -0.6833
  828MOL0     C 9193   8.236   4.017   9.972  0.7866 -0.6006  0.5610
  828MOL0     O 9194   8.138   4.100   9.929  0.6647 -0.0886  0.2904
  828MOL0     C 9195   8.035   4.127  10.018 -0.2292 -0.6802 -0.3576
  828MOL0     C 9196   8.058   4.142  10.153  0.9628  0.2360 -0.4206
  828MOL0     C 9197   7.954   4.165  10.244  0.1657 -0.0309 -1.1214
  828MOL0     C 9198   7.825   4.206  10.205  0.6126  0.0704 -0.6105
  828MOL0     O 9199   7.716   4.224  10.288 -0.3439  0.6069  0.5754
  828MOL0     C 9200   7.736   4.183  10.427 -0.5174  0.3649  0.0170
  828MOL0     C 9201   7.620   4.220  10.514  0.1222  0.8494 -0.3457
  828MOL0     C 9202   7.483   4.229  10.444  0.2116  0.1993  0.0893
  828MOL0     C 9203   7.367   4.219  10.535 -0.5460  0.7409  0.4436
  828MOL0     C 9204   7.232   4.246  10.465  0.1012 -0.0231  0.1904
  828MOL0     C 9205   7.117   4.158  10.515 -0.1894 -0.2829  0.5661
  828MOL0     C 9206   6.975   4.217  10.474  0.0977  0.5064 -0.1517
  828MOL0     C 9207   6.858   4.125  10.467 -0.6513  0.5010  1.1357
  828MOL0    Cl 9208   6.840   4.033  10.622  0.4089  0.2534 -0.1588
  828MOL0     C 9209   7.808   4.209  10.065 -0.4349 -0.2612 -0.1192
  828MOL0     C 9210   7.905   4.168   9.979 -0.7546 -0.1748  0.3799
  828MOL0     O 9211   8.219   3.930  10.056  0.0132  0.2116 -0.1731
  828MOL0     C 9212   8.402   4.127   9.822  0.1233 -0.5278 -0.1778
  828MOL0     C 9213   8.507   4.114   9.733 -0.1043  0.2439 -0.3902
  828MOL0     N 9214   8.688   4.446   9.155  0.5355 -0.5528  0.0098
  828MOL0     N 9215   8.669   4.499   9.039  0.8085  0.2578  0.3243
  828MOL0     C 9216   9.433   4.880   8.503 -0.1567  0.3245 -0.4060
  828MOL0     C 9217   9.575   4.874   8.502 -0.7078  0.5351  0.1015
  828MOL0     C 9218  10.013   4.875   8.399 -0.2275 -0.1838 -0.0590
  828MOL0     C 9219  10.123   4.872   8.477 -0.3302 -0.8514 -0.6688
  828MOL0     C 9220  10.247   4.904   8.421 -0.1164  0.4000 -1.2815
  828MOL0     C 9221  10.269   4.933   8.288 -0.0394  0.7105 -0.6108
  828MOL0     O 9222  10.386   4.982   8.234  0.0306  0.8824 -0.6861
  828MOL0     C 9223  10.505   4.971   8.310  0.2006  0.0903  0.0327
  828MOL0     C 9224  10.623   4.964   8.216 -0.1384  0.2791 -0.2664
  828MOL0     C 9225  10.751   4.919   8.289  0.0078  0.1378  0.1717
  828MOL0     C 9226  10.867   4.941   8.193 -0.2204  0.4820 -0.6261
  828MOL0     C 9227  10.994   4.924   8.268  0.2203  0.1989  0.0462
  828MOL0     C 9228  11.098   4.927   8.325  0.4704  0.2984 -0.4628
  828MOL0     C 9229  10.152   4.935   8.208 -0.4299 -0.8301 -0.2873
  828MOL0     C 9230  10.023   4.904   8.259 -0.8387 -0.1458  0.0821
  828MOL0     H 9231   9.618   4.830   8.174 -1.2707  0.6499  0.0363
  828MOL0     H 9232   9.364   4.843   8.180 -1.3909 -1.2584  0.5205
  828MOL0     H 9233   9.158   4.721   8.298 -2.9917 -0.0280 -1.7287
  828MOL0     H 9234   9.097   4.872   8.232  2.9727  0.9626 -0.3155
  828MOL0     H 9235   8.926   4.900   8.426 -0.6564 -1.0931 -1.6073
  828MOL0     H 9236   9.017   4.760   8.494 -3.7826 -1.9334  0.2673
  828MOL0     H 9237   8.952   4.631   8.285 -1.4781  0.7653 -2.8794
  828MOL0     H 9238   8.847   4.771   8.239 -3.4774  0.3038  1.1783
  828MOL0     H 9239   8.719   4.766   8.399  1.4916  2.1885 -0.0820
  828MOL0     H 9240   8.729   4.588   8.358  1.7234 -0.6056  0.4407
  828MOL0     H 9241   8.813   4.731   8.587 -1.7970 -0.5114 -0.7330
  828MOL0     H 9242   8.913   4.580   8.540  1.1408  0.0441 -0.1147
  828MOL0     H 9243   8.708   4.452   8.545  1.4869 -0.2451 -1.0755
  828MOL0     H 9244   8.610   4.596   8.608  1.1094  1.4706  0.1850
  828MOL0     H 9245   8.837   4.443   8.741  0.7468  0.3004  4.2419
  828MOL0     H 9246   8.787   4.601   8.788  1.8415 -1.8344  2.1687
  828MOL0     H 9247   8.612   4.341   8.746  0.5045 -1.9895  1.5038
  828MOL0     H 9248   8.546   4.491   8.806 -0.6138  0.0346  1.5173
  828MOL0     H 9249   8.732   4.206   8.943  0.7659  1.7881 -3.3878
  828MOL0     H 9250   8.826   4.259   9.332  1.2586 -1.8587  0.7431
  828MOL0     H 9251   8.827   4.139   9.213 -0.5008  0.3079  0.7251
  828MOL0     H 9252   8.576   4.105   9.237 -0.4733 -1.5058  1.2766
  828MOL0     H 9253   8.572   4.238   9.355 -0.1413  0.8905 -0.4038
  828MOL0     H 9254   8.545   4.001   9.433  0.4566 -1.3880 -0.7693
  828MOL0     H 9255   8.708   3.964   9.376  1.8819  2.0063 -2.5500
  828MOL0     H 9256   8.689   4.181   9.583 -0.8947 -0.0711  1.3033
  828MOL0     H 9257   8.823   4.092   9.510 -0.8229  1.4921 -4.1093
  828MOL0     H 9258   8.598   3.794   9.811 -2.7023 -1.5227  1.8563
  828MOL0     H 9259   8.390   3.803   9.938 -1.9438  2.2843  3.1362
  828MOL0     H 9260   8.155   4.135  10.200  0.0074  0.1531  1.6817
  828MOL0     H 9261   7.986   4.152  10.347  4.5078  1.9963 -1.9810
  828MOL0     H 9262   7.816   4.243  10.471 -3.0730  1.1560  4.1348
  828MOL0     H 9263   7.756   4.076  10.440 -0.2361  0.2263 -1.3776
  828MOL0     H 9264   7.635   4.307  10.579  2.2513 -0.7975  1.5595
  828MOL0     H 9265   7.611   4.131  10.578 -0.4157  0.3244 -1.1448
  828MOL0     H 9266   7.474   4.140  10.381  1.9942 -0.5220  0.7819
  828MOL0     H 9267   7.478   4.313  10.374  1.8197  0.7979  0.6622
  828MOL0     H 9268   7.359   4.113  10.560 -1.5239  1.6128  4.7729
  828MOL0     H 9269   7.382   4.274  10.629  2.9089 -0.0673  0.4948
  828MOL0     H 9270   7.234   4.221  10.359  0.8571  0.3670  0.1024
  828MOL0     H 9271   7.199   4.349  10.481  0.1903 -0.0160  0.3333
  828MOL0     H 9272   7.125   4.145  10.623 -1.2920  0.1875  0.7171
  828MOL0     H 9273   7.139   4.063  10.465 -0.4865  0.1762 -0.4671
  828MOL0     H 9274   6.939   4.298  10.538 -0.9293  1.2387 -1.6086
  828MOL0     H 9275   7.001   4.251  10.374  1.8241 -2.3402 -0.7705
  828MOL0     H 9276   6.872   4.051  10.388 -3.4094  0.8834  0.1969
  828MOL0     H 9277   6.768   4.176  10.433  0.1061  1.2269  0.1491
  828MOL0     H 9278   7.717   4.253  10.025 -0.0653  3.1462  2.3608
  828MOL0     H 9279   7.884   4.173   9.873 -0.1423 -3.2616  0.0340
  828MOL0     H 9280   8.355   4.222   9.843 -0.2078 -1.3750  3.6459
  828MOL0     H 9281   8.523   4.206   9.677 -2.5216  0.1187 -1.3982
  828MOL0     H 9282   9.400   4.910   8.602  2.3563  1.5420  0.1420
  828MOL0     H 9283   9.636   4.876   8.591  0.6774 -1.5965 -0.7028
  828MOL0     H 9284  10.114   4.858   8.585  0.6771 -0.2995 -0.4978
  828MOL0     H 9285  10.327   4.901   8.495  1.4844 -0.7803 -2.9818
  828MOL0     H 9286  10.498   4.881   8.371 -0.6449  0.0465 -0.1171
  828MOL0     H 9287  10.515   5.061   8.372  1.1940  0.1443 -0.1936
  828MOL0     H 9288  10.605   4.890   8.137  1.7294 -2.1851  1.4329
  828MOL0     H 9289  10.631   5.061   8.168 -1.0576  1.2717  1.4704
  828MOL0     H 9290  10.751   4.810   8.294  4.7801 -0.1378 -1.4676
  828MOL0     H 9291  10.755   4.968   8.387 -0.4795 -0.4386  0.4897
  828MOL0     H 9292  10.866   4.871   8.108  1.3395  0.3936 -0.6165
  828MOL0     H 9293  10.871   5.042   8.151 -2.0060  0.0328 -2.0139
  828MOL0     H 9294  11.192   4.935   8.377  0.4856  1.3044 -0.6259
  828MOL0     H 9295  10.166   4.981   8.110  2.8941  2.2366  1.4247
  828MOL0     H 9296   9.933   4.920   8.201 -0.1746  2.2777 -0.3961
  829MOL0     O 9297   4.243   0.706   9.567  0.4320  0.3712  0.6804
  829MOL0     C 9298   4.259   0.742   9.688 -0.0067  0.7988  0.4276
  829MOL0     O 9299   4.162   0.736   9.782 -0.0460  0.2922  0.3226
  829MOL0     C 9300   4.044   0.669   9.753 -0.5534 -0.3977 -0.5865
  829MOL0     C 9301   4.036   0.534   9.756 -0.6945  0.8388  0.1582
  829MOL0     C 9302   3.915   0.472   9.744  0.2472  0.0471 -0.3002
  829MOL0     C 9303   3.791   0.543   9.745  0.2040  0.2642  0.2664
  829MOL0     O 9304   3.670   0.488   9.724 -0.1671  0.1164  0.2048
  829MOL0     C 9305   3.553   0.549   9.789  0.5342 -0.8917 -0.0135
  829MOL0     C 9306   3.467   0.429   9.820 -0.3145 -0.3406 -0.1574
  829MOL0     C 9307   3.333   0.480   9.881 -0.2473  0.2735  0.0375
  829MOL0     C 9308   3.217   0.379   9.858  0.0864 -1.1856  0.0210
  829MOL0     C 9309   3.075   0.433   9.895  0.0917  0.6395 -0.5126
  829MOL0     C 9310   2.979   0.327   9.840  0.0399 -0.1389 -0.2901
  829MOL0     C 9311   2.835   0.378   9.852  0.0115  0.6724 -0.1319
  829MOL0     C 9312   2.777   0.378   9.995  0.3321  0.3014  0.1464
  829MOL0     N 9313   2.637   0.431   9.998 -0.0085  0.4211  0.4284
  829MOL0     C 9314   2.570   0.445  10.119 -0.2613 -0.3656 -0.3515
  829MOL0     C 9315   2.443   0.440  10.098  0.4980 -0.3044 -0.4665
  829MOL0     C 9316   2.336   0.454  10.203 -0.1090  0.3348 -0.1763
  829MOL0     C 9317   2.329   0.588  10.274 -0.4868  0.6358  0.5091
  829MOL0     C 9318   2.303   0.708  10.180 -0.1035 -0.1985 -0.1678
  829MOL0     C 9319   2.156   0.727  10.134  0.8838  0.0148  0.4553
  829MOL0     O 9320   2.064   0.705  10.246  0.2768 -0.9368 -0.2481
  829MOL0     C 9321   1.934   0.715  10.212  0.0138 -0.1689  1.1122
  829MOL0     C 9322   1.853   0.651  10.308  0.1489 -0.1384 -0.3859
  829MOL0     C 9323   1.720   0.643  10.295  0.7200  0.3531 -0.4951
  829MOL0     C 9324   1.659   0.692  10.174  0.8580 -0.2295  0.1624
  829MOL0     C 9325   1.514   0.681  10.146  0.0866  0.2304  0.7754
  829MOL0     O 9326   1.437   0.608  10.233 -0.0914 -0.3350  0.0604
  829MOL0     C 9327   1.302   0.596  10.208  0.5289 -0.9287 -0.5083
  829MOL0     C 9328   1.251   0.486  10.151 -0.5754 -0.6158 -0.1499
  829MOL0     C 9329   1.111   0.472  10.151 -0.3444  0.1064 -0.2794
  829MOL0     C 9330   1.024   0.568  10.212  0.0347 -0.0068 -1.6103
  829MOL0     O 9331   0.888   0.536  10.211  0.5724  0.1126  0.2067
  829MOL0     C 9332   0.817   0.613  10.305 -0.8026 -0.4302  0.7444
  829MOL0     C 9333   0.677   0.563  10.321 -0.5975 -0.3452 -0.3017
  829MOL0     C 9334   0.595   0.672  10.396 -0.6163  0.2738 -0.9212
  829MOL0     C 9335   0.461   0.616  10.436  0.1589 -0.4955 -0.1220
  829MOL0     C 9336   0.403   0.649  10.575  0.0105 -0.0878  0.3389
  829MOL0     C 9337   0.256   0.636  10.579 -0.3408  0.1125 -0.0714
  829MOL0     C 9338   0.202   0.647  10.721  0.0234  0.4865 -0.1387
  829MOL0     C 9339   0.052   0.612  10.729  0.1663 -0.8921 -0.0424
  829MOL0    Cl 9340   0.010   0.457  10.659  0.0729  0.6889  0.4548
  829MOL0     C 9341   1.084   0.675  10.266  0.2571 -0.3811 -0.6454
  829MOL0     C 9342   1.218   0.700  10.253 -0.5159 -0.3386 -0.3173
  829MOL0     O 9343   1.471   0.723  10.037 -0.6113  0.1629  0.8867
  829MOL0     C 9344   1.743   0.750  10.072 -0.9508 -0.3082  0.0929
  829MOL0     C 9345   1.884   0.769  10.094  0.7031  0.3343  0.1813
  829MOL0     N 9346   2.429   0.416   9.967  0.5389  0.8657  0.5063
  829MOL0     N 9347   2.538   0.397   9.905  0.2347 -0.4698  0.6777
  829MOL0     C 9348   3.798   0.680   9.743  0.3207 -1.2250  0.1384
  829MOL0     C 9349   3.925   0.746   9.746  0.5324  0.3880  0.0353
  829MOL0     C 9350   4.395   0.796   9.726  0.1576 -0.0548 -0.9877
  829MOL0     C 9351   4.501   0.821   9.632 -0.2513 -0.1168 -0.3685
  829MOL0     C 9352   4.631   0.851   9.672  0.3090 -0.4658 -0.0237
  829MOL0     C 9353   4.657   0.890   9.806  0.0303  0.0902  0.5054
  829MOL0     O 9354   4.771   0.939   9.853 -0.4535 -0.6727  0.1612
  829MOL0     C 9355   4.888   0.946   9.764  0.4240  0.5668 -0.3432
  829MOL0     C 9356   4.890   1.069   9.677  0.4071  0.1484  0.3151
  829MOL0     C 9357   4.947   1.204   9.747  0.2159  0.4411 -0.2471
  829MOL0     C 9358   4.860   1.331   9.724  0.0297 -1.0175  0.6611
  829MOL0     C 9359   4.902   1.406   9.594 -0.1125 -1.0558 -0.2145
  829MOL0     C 9360   4.936   1.471   9.500 -0.0837  0.3789 -0.0530
  829MOL0     C 9361   4.548   0.880   9.895 -0.6678  0.2627  0.0075
  829MOL0     C 9362   4.419   0.829   9.860  0.0340  0.3345 -0.7278
  829MOL0     H 9363   4.128   0.476   9.760 -2.6393 -2.4422  1.8670
  829MOL0     H 9364   3.909   0.364   9.752  1.6299 -0.0563 -0.3338
  829MOL0     H 9365   3.500   0.612   9.718  2.0323  0.0154 -0.3725
  829MOL0     H 9366   3.578   0.607   9.879  2.4194 -0.1267 -0.9777
  829MOL0     H 9367   3.522   0.362   9.888  2.1006  0.7895 -0.9038
  829MOL0     H 9368   3.450   0.370   9.730  1.1621  0.0133 -0.6966
  829MOL0     H 9369   3.309   0.576   9.836 -0.5884  0.4477  0.5879
  829MOL0     H 9370   3.344   0.494   9.989 -2.0801  0.1575  0.2663
  829MOL0     H 9371   3.217   0.353   9.751 -2.9369  0.4305 -0.4649
  829MOL0     H 9372   3.237   0.293   9.922 -1.0774 -2.0700 -0.7629
  829MOL0     H 9373   3.065   0.534   9.856 -1.4260  0.6292 -0.2033
  829MOL0     H 9374   3.063   0.433  10.004  1.3232 -0.8261 -0.3251
  829MOL0     H 9375   2.997   0.231   9.889 -0.2345 -1.2177 -2.1853
  829MOL0     H 9376   2.999   0.318   9.733  2.0585  0.1615  0.0151
  829MOL0     H 9377   2.817   0.477   9.810 -3.0348  0.8655  1.3605
  829MOL0     H 9378   2.779   0.309   9.789  0.8173  0.3501 -0.5042
  829MOL0     H 9379   2.830   0.440  10.067  0.2208  1.0330 -0.3866
  829MOL0     H 9380   2.774   0.277  10.037  0.8649 -0.1927 -0.9580
  829MOL0     H 9381   2.613   0.455  10.218 -0.9894 -1.3645  0.0839
  829MOL0     H 9382   2.366   0.381  10.278 -0.3700 -0.8011 -1.1538
  829MOL0     H 9383   2.242   0.413  10.166 -1.6531  1.3101  2.4062
  829MOL0     H 9384   2.427   0.602  10.320  0.8074 -0.5986 -1.7098
  829MOL0     H 9385   2.254   0.582  10.354 -2.7704 -0.0796 -1.5499
  829MOL0     H 9386   2.320   0.793  10.247 -3.1008 -0.4374  1.0313
  829MOL0     H 9387   2.377   0.718  10.100  0.3972  4.9436  0.5494
  829MOL0     H 9388   2.126   0.653  10.060 -1.8916 -0.8529  2.2844
  829MOL0     H 9389   2.142   0.823  10.085 -1.5302  0.0495  1.0867
  829MOL0     H 9390   1.916   0.622  10.391  2.3687 -0.4839 -2.0795
  829MOL0     H 9391   1.668   0.584  10.370 -0.7442  3.8852  1.5105
  829MOL0     H 9392   1.328   0.421  10.110  0.9922  1.4669 -0.6484
  829MOL0     H 9393   1.070   0.384  10.104 -5.5192  2.0399 -0.0368
  829MOL0     H 9394   0.810   0.717  10.270 -0.2601 -0.7161 -0.2495
  829MOL0     H 9395   0.868   0.619  10.402  2.2242  2.6669 -0.8155
  829MOL0     H 9396   0.689   0.475  10.385  0.0540  2.6704  4.1809
  829MOL0     H 9397   0.629   0.553  10.223  0.8017 -3.8155 -0.7801
  829MOL0     H 9398   0.599   0.769  10.346  3.0184  2.0588  2.2971
  829MOL0     H 9399   0.646   0.696  10.490 -1.4124  0.7667 -0.6011
  829MOL0     H 9400   0.388   0.665  10.371  1.6089  1.6551 -0.2213
  829MOL0     H 9401   0.454   0.507  10.429 -0.9966 -0.5752  1.7166
  829MOL0     H 9402   0.430   0.752  10.600  1.5580 -0.1381 -0.9492
  829MOL0     H 9403   0.452   0.579  10.642 -1.0569 -2.6523 -1.4190
  829MOL0     H 9404   0.236   0.533  10.548 -0.3774 -0.0748  0.5615
  829MOL0     H 9405   0.210   0.707  10.509  0.0468 -1.6417 -2.2423
  829MOL0     H 9406   0.248   0.567  10.781 -1.8064  0.5018  1.3696
  829MOL0     H 9407   0.226   0.742  10.768 -1.4674  0.2912  1.1115
  829MOL0     H 9408  -0.002   0.686  10.669 -0.1054 -0.4851  0.6881
  829MOL0     H 9409   0.033   0.623  10.836  4.6920  1.0722  0.8174
  829MOL0     H 9410   1.032   0.757  10.314 -3.5531 -2.1668 -1.3398
  829MOL0     H 9411   1.259   0.791  10.295  0.1614 -1.0791  0.6975
  829MOL0     H 9412   1.713   0.793   9.978  1.3103 -0.9995 -1.0323
  829MOL0     H 9413   1.941   0.817  10.015 -0.3995  1.3393 -0.0271
  829MOL0     H 9414   3.711   0.745   9.745  1.3241  0.2254 -1.2214
  829MOL0     H 9415   3.930   0.855   9.744  0.2967  0.3972 -0.0754
  829MOL0     H 9416   4.484   0.791   9.529 -0.1794  0.6171 -0.5970
  829MOL0     H 9417   4.713   0.861   9.602  1.2202 -1.3988  0.8770
  829MOL0     H 9418   4.901   0.849   9.715  0.0473 -0.4662  1.5388
  829MOL0     H 9419   4.977   0.943   9.828  1.4385 -1.0425 -1.7303
  829MOL0     H 9420   4.940   1.045   9.583 -0.4141  2.1386 -0.6903
  829MOL0     H 9421   4.789   1.091   9.641  0.8603 -0.7554 -1.6792
  829MOL0     H 9422   5.045   1.228   9.705 -0.9426  0.9269 -2.8123
  829MOL0     H 9423   4.954   1.196   9.856  0.6857  3.2548  0.0226
  829MOL0     H 9424   4.754   1.304   9.728 -0.3465  0.3987  0.9699
  829MOL0     H 9425   4.868   1.397   9.811 -0.8790 -1.0975  0.8206
  829MOL0     H 9426   4.986   1.522   9.419  0.5787  1.4369  0.9925
  829MOL0     H 9427   4.550   0.919   9.996 -0.8611 -2.2822  1.0822
  829MOL0     H 9428   4.337   0.827   9.931 -0.8983 -0.3286 -1.7885
  830MOL0     O 9429   6.907   4.917   1.081 -0.1115  0.0513 -0.4622
  830MOL0     C 9430   6.870   4.924   0.966 -0.0126  0.5509  0.1684
  830MOL0     O 9431   6.871   4.823   0.870 -0.5114  0.0502 -0.1841
  830MOL0     C 9432   6.924   4.694   0.894 -0.1212 -0.8375 -0.6656
  830MOL0     C 9433   7.048   4.679   0.950  0.7816  0.3874  0.0110
  830MOL0     C 9434   7.097   4.544   0.978 -0.1902 -0.1901 -0.0419
  830MOL0     C 9435   7.027   4.428   0.937  0.5749 -0.1134 -0.9565
  830MOL0     O 9436   7.060   4.298   0.947  1.0988 -0.1045  0.4287
  830MOL0     C 9437   7.197   4.269   0.976  0.1619  0.4005 -0.3002
  830MOL0     C 9438   7.208   4.118   0.947 -0.3963  0.6871 -0.1794
  830MOL0     C 9439   7.140   4.024   1.052 -0.1805 -0.6626 -0.1817
  830MOL0     C 9440   7.128   3.879   0.999 -0.2246 -0.8727  0.1560
  830MOL0     C 9441   7.082   3.787   1.118  0.9624 -0.1669  0.5045
  830MOL0     C 9442   6.945   3.816   1.182 -0.1688 -0.0425 -0.1870
  830MOL0     C 9443   6.920   3.705   1.280 -0.1024  0.0626  0.3899
  830MOL0     C 9444   6.805   3.745   1.372  0.1761  0.4254  0.0351
  830MOL0     N 9445   6.792   3.646   1.478 -0.4209 -0.3877 -0.0279
  830MOL0     C 9446   6.674   3.578   1.508  0.6331 -0.4174  0.4139
  830MOL0     C 9447   6.705   3.512   1.629  0.2412 -0.2605  0.2672
  830MOL0     C 9448   6.620   3.418   1.703  0.2401  0.3535  0.5345
  830MOL0     C 9449   6.531   3.491   1.803 -0.7281 -0.8887  0.1842
  830MOL0     C 9450   6.421   3.580   1.739  0.4138  0.9627 -0.3864
  830MOL0     C 9451   6.316   3.512   1.641  0.8282 -0.1801 -0.6272
  830MOL0     O 9452   6.221   3.618   1.605 -0.4525  0.9188  0.1285
  830MOL0     C 9453   6.105   3.589   1.535 -0.2833 -0.0092  0.1627
  830MOL0     C 9454   6.016   3.694   1.502 -0.4068  0.4222  0.4715
  830MOL0     C 9455   5.905   3.665   1.422  0.6690 -0.5627  0.4662
  830MOL0     C 9456   5.880   3.539   1.363  0.1391  0.7339  0.0949
  830MOL0     C 9457   5.750   3.514   1.299 -0.1916  0.1717 -0.1458
  830MOL0     O 9458   5.728   3.388   1.248  0.7211  0.5549 -0.0679
  830MOL0     C 9459   5.604   3.351   1.201  1.1445  0.5927  0.6797
  830MOL0     C 9460   5.550   3.227   1.238 -0.0109 -0.6776  0.0543
  830MOL0     C 9461   5.422   3.191   1.209  0.4399 -0.2567 -0.5943
  830MOL0     C 9462   5.340   3.271   1.125 -0.5935  0.4059  0.0136
  830MOL0     O 9463   5.218   3.217   1.093 -0.0405  0.5824  0.5092
  830MOL0     C 9464   5.133   3.299   1.015 -0.9118  0.9846 -0.2021
  830MOL0     C 9465   4.988   3.251   1.026  0.3459 -0.1632  0.3280
  830MOL0     C 9466   4.967   3.122   0.943  0.4499  0.5495 -0.6899
  830MOL0     C 9467   4.828   3.102   0.888  0.4738  0.0289 -0.3464
  830MOL0     C 9468   4.788   2.958   0.845 -0.1941 -0.1650 -0.3557
  830MOL0     C 9469   4.870   2.906   0.729 -0.6102  0.8154  0.8473
  830MOL0     C 9470   4.802   2.781   0.669 -0.1220 -0.2186  0.2578
  830MOL0     C 9471   4.883   2.712   0.566  0.4637  0.8411  0.2129
  830MOL0    Cl 9472   4.940   2.819   0.428 -0.1060  0.4441  0.1371
  830MOL0     C 9473   5.404   3.384   1.069 -0.5602  0.3955  0.7258
  830MOL0     C 9474   5.539   3.423   1.100  0.4111 -0.2065  0.2303
  830MOL0     O 9475   5.667   3.604   1.305 -0.0889 -0.3666 -0.2137
  830MOL0     C 9476   5.975   3.439   1.385  0.5880  0.3404 -0.2772
  830MOL0     C 9477   6.077   3.462   1.484  0.9953  0.3955  0.2716
  830MOL0     N 9478   6.844   3.526   1.647  0.3549 -0.6381 -0.2738
  830MOL0     N 9479   6.895   3.610   1.562 -0.6241 -0.0098  0.2930
  830MOL0     C 9480   6.916   4.457   0.855  0.7757  1.0477  0.0209
  830MOL0     C 9481   6.864   4.584   0.835  0.0825 -0.2464  0.8560
  830MOL0     C 9482   6.835   5.055   0.911 -0.8075 -0.0708  0.2674
  830MOL0     C 9483   6.797   5.076   0.774 -0.7588 -0.5007  1.1305
  830MOL0     C 9484   6.793   5.205   0.720  0.2681 -0.4395  0.7655
  830MOL0     C 9485   6.818   5.313   0.796  0.8140 -1.0516 -0.4353
  830MOL0     O 9486   6.796   5.442   0.743 -0.1900 -0.3509  0.5656
  830MOL0     C 9487   6.746   5.537   0.836  0.6405 -0.9872  0.2127
  830MOL0     C 9488   6.681   5.655   0.755 -0.7544  0.8573 -0.0157
  830MOL0     C 9489   6.625   5.764   0.849  0.5701  0.7505 -0.5882
  830MOL0     C 9490   6.726   5.849   0.928  0.3251  0.2659  0.3754
  830MOL0     C 9491   6.857   5.872   0.868  0.2744 -0.3319 -0.1162
  830MOL0     C 9492   6.964   5.915   0.822  0.5166  0.8539  0.5259
  830MOL0     C 9493   6.854   5.298   0.931 -0.2260  1.1708 -0.8672
  830MOL0     C 9494   6.854   5.171   0.986 -0.3041  0.2218 -0.4138
  830MOL0     H 9495   7.098   4.770   0.982 -2.1543  1.8356  0.8488
  830MOL0     H 9496   7.189   4.531   1.033  0.2662 -0.5814 -0.8829
  830MOL0     H 9497   7.221   4.284   1.082 -0.2284  0.1106 -0.1686
  830MOL0     H 9498   7.265   4.316   0.904 -1.2951  2.5908 -0.3218
  830MOL0     H 9499   7.315   4.100   0.959 -0.7116 -0.4676  1.1895
  830MOL0     H 9500   7.174   4.102   0.844  0.9560  1.0616 -0.6971
  830MOL0     H 9501   7.048   4.076   1.079  0.7899 -0.2028  2.6314
  830MOL0     H 9502   7.195   4.027   1.147  0.9718 -2.4795 -0.7507
  830MOL0     H 9503   7.062   3.861   0.914 -1.4929 -2.6180  1.4346
  830MOL0     H 9504   7.229   3.846   0.975  0.3830 -0.2254  1.6539
  830MOL0     H 9505   7.163   3.799   1.191  0.2821  1.9147  0.9613
  830MOL0     H 9506   7.077   3.684   1.082  0.9461  0.6383 -1.9794
  830MOL0     H 9507   6.861   3.833   1.113 -0.2349  1.8852  0.2928
  830MOL0     H 9508   6.959   3.914   1.230  3.2544  0.1243 -1.2599
  830MOL0     H 9509   6.884   3.608   1.243  0.5037 -0.6876  1.6801
  830MOL0     H 9510   7.016   3.696   1.333  1.2475  2.6644 -1.3867
  830MOL0     H 9511   6.711   3.757   1.318 -1.6321 -1.4479  2.5477
  830MOL0     H 9512   6.836   3.844   1.407 -0.0146  0.9458 -1.1925
  830MOL0     H 9513   6.581   3.575   1.452  0.0605 -1.2441  1.3831
  830MOL0     H 9514   6.681   3.342   1.752  0.6943  0.9280  0.8693
  830MOL0     H 9515   6.548   3.364   1.641 -2.6357  2.7779  1.5031
  830MOL0     H 9516   6.588   3.558   1.868 -2.6455  1.0988 -0.0728
  830MOL0     H 9517   6.484   3.414   1.865  0.6971 -2.6708 -0.8337
  830MOL0     H 9518   6.360   3.621   1.819 -1.6277  0.3362 -1.5626
  830MOL0     H 9519   6.465   3.662   1.682 -2.0787  1.5674 -1.5802
  830MOL0     H 9520   6.258   3.431   1.686 -0.5398  2.1493  2.1169
  830MOL0     H 9521   6.370   3.464   1.559  3.1020  1.0770  0.0537
  830MOL0     H 9522   6.018   3.791   1.550 -0.6868  0.6247  0.0781
  830MOL0     H 9523   5.830   3.743   1.407 -0.5785 -2.2632 -3.8186
  830MOL0     H 9524   5.601   3.167   1.313 -0.2645  0.7517  1.4104
  830MOL0     H 9525   5.373   3.104   1.251 -3.3381  1.0507 -1.9034
  830MOL0     H 9526   5.165   3.309   0.911  2.1696  2.2259  0.7389
  830MOL0     H 9527   5.145   3.400   1.055  0.3547  0.5747  0.5282
  830MOL0     H 9528   4.916   3.329   1.003 -0.0300 -0.5964  0.0133
  830MOL0     H 9529   4.970   3.219   1.129  0.3520 -2.9548 -0.4403
  830MOL0     H 9530   4.997   3.039   1.007  1.0137  1.3343  0.0759
  830MOL0     H 9531   5.047   3.101   0.871  2.6735  1.5685  1.3552
  830MOL0     H 9532   4.763   3.131   0.971 -0.9169 -0.5030 -1.2005
  830MOL0     H 9533   4.801   3.176   0.811 -2.0015  1.0993  1.4182
  830MOL0     H 9534   4.680   2.953   0.828 -1.0395 -1.3689  4.1817
  830MOL0     H 9535   4.822   2.911   0.937  0.0098 -0.0516 -0.3731
  830MOL0     H 9536   4.967   2.868   0.761 -0.3472  0.1673 -0.5989
  830MOL0     H 9537   4.879   2.984   0.653 -0.5413 -1.7009 -1.9075
  830MOL0     H 9538   4.776   2.705   0.744  1.0193 -0.8042  0.0858
  830MOL0     H 9539   4.710   2.812   0.619 -0.8300 -1.6784  0.6025
  830MOL0     H 9540   4.822   2.624   0.541 -0.3490  1.2154  0.8429
  830MOL0     H 9541   4.972   2.674   0.616  0.7740 -1.9029 -2.0962
  830MOL0     H 9542   5.342   3.445   1.004 -0.4425  2.7595  2.7234
  830MOL0     H 9543   5.576   3.518   1.064  0.1102 -0.0532  0.3225
  830MOL0     H 9544   5.969   3.336   1.350  0.4754  0.3373 -0.2480
  830MOL0     H 9545   6.137   3.374   1.506 -0.4442 -0.9799 -1.0541
  830MOL0     H 9546   6.863   4.375   0.809 -1.9713  1.3353  2.3351
  830MOL0     H 9547   6.767   4.600   0.789 -0.6159  0.2937  2.4541
  830MOL0     H 9548   6.769   4.999   0.703 -0.7469 -0.0212  0.5921
  830MOL0     H 9549   6.777   5.234   0.617  2.3639  0.5289  0.6524
  830MOL0     H 9550   6.825   5.583   0.897 -1.0973 -1.6188  3.1539
  830MOL0     H 9551   6.682   5.493   0.913 -0.1957 -1.8015 -0.9276
  830MOL0     H 9552   6.771   5.696   0.706  0.0584  0.9004  1.4611
  830MOL0     H 9553   6.606   5.619   0.684  1.4768 -0.3750 -1.8861
  830MOL0     H 9554   6.555   5.718   0.918 -0.8714  1.3159 -1.6333
  830MOL0     H 9555   6.557   5.827   0.791 -2.9439 -0.9413  1.3808
  830MOL0     H 9556   6.676   5.944   0.943 -1.2831 -0.7440  1.8120
  830MOL0     H 9557   6.741   5.812   1.030  0.3783  1.4583  0.8043
  830MOL0     H 9558   7.062   5.956   0.809  1.9234 -2.0768  1.0274
  830MOL0     H 9559   6.882   5.375   1.001 -0.1412 -2.3707  3.4780
  830MOL0     H 9560   6.877   5.159   1.091  0.8358  2.7780 -0.3078
  831MOL0     O 9561  10.289   8.819   3.275  0.2358  0.1580 -0.0142
  831MOL0     C 9562  10.337   8.924   3.293 -0.5107  0.1159  0.0597
  831MOL0     O 9563  10.272   9.033   3.334  0.5355  0.2478 -0.0619
  831MOL0     C 9564  10.141   9.012   3.374 -0.5937  0.4148 -0.1084
  831MOL0     C 9565  10.043   9.100   3.324 -0.2632 -0.2665 -0.0878
  831MOL0     C 9566   9.908   9.094   3.365 -0.9626  0.2285 -1.0675
  831MOL0     C 9567   9.869   8.999   3.469 -0.5627 -1.4187  0.0521
  831MOL0     O 9568   9.748   8.976   3.519  0.3411  0.1142 -0.0104
  831MOL0     C 9569   9.643   9.059   3.463 -0.1282  0.3568 -0.7128
  831MOL0     C 9570   9.517   9.059   3.549 -0.1378  0.4328 -0.6054
  831MOL0     C 9571   9.407   9.152   3.514  0.4946  0.0029 -0.1199
  831MOL0     C 9572   9.296   9.138   3.617  0.3265  0.2409 -0.7597
  831MOL0     C 9573   9.164   9.194   3.560  0.4146 -0.1108 -0.2323
  831MOL0     C 9574   9.045   9.171   3.660 -0.1678 -0.7648 -0.4647
  831MOL0     C 9575   8.895   9.193   3.599 -1.6370 -0.0537  0.3830
  831MOL0     C 9576   8.789   9.150   3.710 -0.9266  0.4635  0.0022
  831MOL0     N 9577   8.644   9.178   3.678  0.0127 -0.6708  0.6292
  831MOL0     C 9578   8.590   9.291   3.630 -1.3151  0.2306 -0.8915
  831MOL0     C 9579   8.454   9.276   3.635 -0.3415 -0.9310 -0.4942
  831MOL0     C 9580   8.350   9.391   3.621  0.1256 -0.7128  0.3632
  831MOL0     C 9581   8.343   9.483   3.744 -0.1647  0.0018  0.1031
  831MOL0     C 9582   8.248   9.605   3.727 -0.3152  0.2219 -0.1601
  831MOL0     C 9583   8.094   9.571   3.718 -0.4124 -0.1595 -0.4904
  831MOL0     O 9584   8.024   9.698   3.692  0.7325 -0.3322 -0.3982
  831MOL0     C 9585   7.898   9.691   3.647  0.3445 -0.0498  0.1361
  831MOL0     C 9586   7.817   9.578   3.638 -0.4600  0.1971 -0.2408
  831MOL0     C 9587   7.692   9.588   3.582  0.4822 -0.3549  0.5062
  831MOL0     C 9588   7.639   9.709   3.537 -0.0226  0.0966 -0.3994
  831MOL0     C 9589   7.496   9.719   3.483  0.3618  1.2509  0.1125
  831MOL0     O 9590   7.457   9.834   3.420 -0.1203 -0.0050 -0.2174
  831MOL0     C 9591   7.335   9.869   3.375  0.3106 -0.1240  0.1899
  831MOL0     C 9592   7.211   9.800   3.404 -0.3984 -0.2678  0.0810
  831MOL0     C 9593   7.092   9.842   3.350  0.8339  0.3715 -0.1674
  831MOL0     C 9594   7.083   9.951   3.266 -0.6349 -0.5926 -1.0477
  831MOL0     O 9595   6.956   9.987   3.233  0.4098  0.1307 -0.1004
  831MOL0     C 9596   6.942  10.039   3.098  0.2038  0.6714  0.8359
  831MOL0     C 9597   6.805  10.001   3.039 -0.7675 -0.6585 -0.1655
  831MOL0     C 9598   6.765  10.076   2.911  0.0041  0.7954  0.8015
  831MOL0     C 9599   6.625  10.056   2.860  0.2993 -0.0448 -0.0171
  831MOL0     C 9600   6.590  10.152   2.751  1.8331 -0.2707  1.0655
  831MOL0     C 9601   6.446  10.174   2.716  0.5317 -0.3588  0.0060
  831MOL0     C 9602   6.358  10.048   2.689  0.5335 -0.4210  0.1424
  831MOL0     C 9603   6.399   9.977   2.557 -0.5306  0.0744 -0.2211
  831MOL0    Cl 9604   6.341  10.060   2.409 -0.0333  0.3568  0.4612
  831MOL0     C 9605   7.199  10.022   3.227 -0.5026 -0.2903  0.7253
  831MOL0     C 9606   7.326   9.982   3.294  0.6530 -1.0227  0.3463
  831MOL0     O 9607   7.422   9.621   3.505  0.0468  0.1036 -0.2813
  831MOL0     C 9608   7.723   9.819   3.543 -0.3417 -1.3021 -0.8161
  831MOL0     C 9609   7.847   9.811   3.606  0.0922 -0.6982 -0.2255
  831MOL0     N 9610   8.435   9.150   3.679 -0.5739 -0.1171 -0.0420
  831MOL0     N 9611   8.548   9.088   3.704 -0.4806 -0.2597  0.1916
  831MOL0     C 9612   9.969   8.924   3.525  0.4698  0.0033 -0.0635
  831MOL0     C 9613  10.099   8.923   3.473  0.2711  0.4424 -0.1009
  831MOL0     C 9614  10.482   8.946   3.281 -0.2606 -0.4719 -0.6173
  831MOL0     C 9615  10.566   8.857   3.204 -0.2310 -0.1637  0.1207
  831MOL0     C 9616  10.708   8.862   3.205  0.2716 -0.3973 -0.2013
  831MOL0     C 9617  10.773   8.945   3.299 -0.3183 -0.0509 -0.2408
  831MOL0     O 9618  10.908   8.941   3.323 -0.8011 -0.1268  0.3812
  831MOL0     C 9619  10.991   8.908   3.219 -0.3487  0.0110 -0.0809
  831MOL0     C 9620  11.031   8.766   3.217  0.2987 -0.3488  0.6630
  831MOL0     C 9621  11.120   8.727   3.334 -0.5219  0.4871  0.6857
  831MOL0     C 9622  11.263   8.781   3.317 -0.5871  0.1294 -0.1397
  831MOL0     C 9623  11.328   8.731   3.192  0.8749  0.8764  0.1191
  831MOL0     C 9624  11.380   8.684   3.099  0.3076 -0.0587 -0.0123
  831MOL0     C 9625  10.696   9.015   3.387 -0.5768 -0.5643  0.6853
  831MOL0     C 9626  10.555   9.024   3.376 -0.0969 -0.3343  0.1154
  831MOL0     H 9627  10.077   9.181   3.261  1.2418 -0.3116  0.6190
  831MOL0     H 9628   9.839   9.163   3.317 -1.5237  1.0970  0.8477
  831MOL0     H 9629   9.618   9.017   3.366 -0.3862 -3.4835  0.8450
  831MOL0     H 9630   9.680   9.162   3.456  1.1897 -0.1525 -1.7234
  831MOL0     H 9631   9.556   9.075   3.650 -0.5751 -0.4551 -0.2885
  831MOL0     H 9632   9.473   8.959   3.550 -0.1850  0.3309 -3.6369
  831MOL0     H 9633   9.368   9.114   3.419  1.5481  1.1480 -1.0454
  831MOL0     H 9634   9.440   9.256   3.505  3.5321 -0.8464 -0.1930
  831MOL0     H 9635   9.276   9.032   3.637  1.5535  0.2652  0.8570
  831MOL0     H 9636   9.330   9.188   3.708  2.0276 -1.9388 -0.1078
  831MOL0     H 9637   9.139   9.139   3.469 -3.6021 -2.1968  1.8566
  831MOL0     H 9638   9.169   9.302   3.544  0.5974 -0.0614  0.1557
  831MOL0     H 9639   9.061   9.231   3.750  1.8138 -4.3019  1.7674
  831MOL0     H 9640   9.050   9.062   3.671  1.2482 -1.0164 -2.9049
  831MOL0     H 9641   8.891   9.301   3.582 -2.0330  0.3536  2.6818
  831MOL0     H 9642   8.886   9.133   3.508 -0.0495 -1.3567  1.0440
  831MOL0     H 9643   8.809   9.197   3.806 -0.0043 -2.5289  1.4003
  831MOL0     H 9644   8.805   9.046   3.738  0.6953  0.3005 -1.3511
  831MOL0     H 9645   8.648   9.381   3.616  2.5754 -1.6732  1.3664
  831MOL0     H 9646   8.251   9.344   3.612 -1.3886  1.5520  3.2644
  831MOL0     H 9647   8.374   9.442   3.528  2.3562  1.9195  2.2517
  831MOL0     H 9648   8.445   9.513   3.770  0.4825 -0.2221 -2.0225
  831MOL0     H 9649   8.298   9.426   3.826 -1.0228 -0.8986 -0.9680
  831MOL0     H 9650   8.253   9.665   3.818 -1.2182  1.5379 -0.9390
  831MOL0     H 9651   8.271   9.669   3.641 -0.0096  0.9775  0.4749
  831MOL0     H 9652   8.057   9.521   3.809 -2.0259  0.5610 -0.7103
  831MOL0     H 9653   8.088   9.499   3.636 -0.4716 -0.1353 -0.5064
  831MOL0     H 9654   7.848   9.481   3.678 -2.4852  0.7151  2.9729
  831MOL0     H 9655   7.631   9.499   3.570 -1.1299  0.8694 -0.9275
  831MOL0     H 9656   7.211   9.708   3.462 -2.2130  0.4440  1.3076
  831MOL0     H 9657   7.001   9.783   3.356  1.9974 -2.2440 -4.0906
  831MOL0     H 9658   7.018  10.002   3.029 -0.7331  3.0352 -1.6319
  831MOL0     H 9659   6.949  10.147   3.086  0.8288  0.4713 -0.7449
  831MOL0     H 9660   6.736  10.038   3.116 -0.3747  1.1534 -0.6408
  831MOL0     H 9661   6.793   9.893   3.033  0.2694 -0.8046  0.2801
  831MOL0     H 9662   6.840  10.055   2.834 -0.1035 -0.3294  0.9878
  831MOL0     H 9663   6.764  10.179   2.948  1.1365  0.9650  0.3878
  831MOL0     H 9664   6.608   9.952   2.832  0.0044 -0.2116  0.7686
  831MOL0     H 9665   6.548  10.064   2.937 -1.2206 -1.4796 -1.3054
  831MOL0     H 9666   6.646  10.120   2.662  2.3334 -0.5687  1.4856
  831MOL0     H 9667   6.618  10.257   2.769 -2.3551  1.5858 -1.5675
  831MOL0     H 9668   6.441  10.246   2.634  0.9240  1.9314  1.8782
  831MOL0     H 9669   6.397  10.231   2.796  1.1903  1.3211 -0.7484
  831MOL0     H 9670   6.372   9.979   2.773  3.5363 -2.0311 -1.4843
  831MOL0     H 9671   6.253  10.073   2.676  0.7770 -0.4274 -2.4036
  831MOL0     H 9672   6.358   9.876   2.562 -0.6960 -0.0452 -2.7216
  831MOL0     H 9673   6.507   9.960   2.545 -0.9786 -0.9171 -3.9658
  831MOL0     H 9674   7.207  10.107   3.160  0.5833  0.4508  1.7662
  831MOL0     H 9675   7.416  10.038   3.270 -0.3523  0.6170  0.2783
  831MOL0     H 9676   7.682   9.916   3.518 -2.4956 -2.2713 -1.2810
  831MOL0     H 9677   7.915   9.894   3.621 -0.8867 -0.2500  2.0820
  831MOL0     H 9678   9.945   8.849   3.600  0.6341 -1.9667 -1.8828
  831MOL0     H 9679  10.168   8.851   3.516 -0.5697 -0.7384 -0.7014
  831MOL0     H 9680  10.516   8.777   3.151  0.6176  0.3964 -1.6117
  831MOL0     H 9681  10.767   8.786   3.154 -0.1418 -0.7761 -0.1217
  831MOL0     H 9682  11.078   8.972   3.231  0.3433 -0.7495 -0.8942
  831MOL0     H 9683  10.938   8.938   3.127 -1.2289  0.1236  0.4514
  831MOL0     H 9684  10.941   8.705   3.218 -0.4721  0.7452  0.3729
  831MOL0     H 9685  11.074   8.743   3.120 -0.6337  0.2884  0.0874
  831MOL0     H 9686  11.124   8.618   3.323  2.0238  0.6822 -1.1987
  831MOL0     H 9687  11.073   8.768   3.424 -0.8944  1.6536 -0.0132
  831MOL0     H 9688  11.257   8.890   3.314 -0.3544  0.1734  0.8019
  831MOL0     H 9689  11.320   8.742   3.402 -1.9139 -1.2036  0.1769
  831MOL0     H 9690  11.426   8.635   3.016 -0.7659  0.4183 -0.9069
  831MOL0     H 9691  10.744   9.070   3.467  1.1584 -0.1873 -0.5511
  831MOL0     H 9692  10.501   9.079   3.453  2.7430 -0.0616  2.0662
  832MOL0     O 9693   3.731   9.196   0.279 -0.0816 -1.1007  0.3242
  832MOL0     C 9694   3.787   9.276   0.356 -0.5391 -1.2719 -0.1435
  832MOL0     O 9695   3.736   9.323   0.471  0.3231 -0.4752 -0.4718
  832MOL0     C 9696   3.603   9.305   0.486 -0.1346 -0.8387 -0.1858
  832MOL0     C 9697   3.554   9.246   0.600  0.5559 -0.1744  0.2089
  832MOL0     C 9698   3.415   9.253   0.631  0.8963 -0.1975  0.0373
  832MOL0     C 9699   3.331   9.325   0.539 -0.7012  0.6337 -0.7681
  832MOL0     O 9700   3.193   9.330   0.556 -0.4700 -0.7886  0.5572
  832MOL0     C 9701   3.138   9.315   0.692 -0.1238 -0.5321  0.0857
  832MOL0     C 9702   2.991   9.370   0.701  0.4118  0.6229  0.4046
  832MOL0     C 9703   2.903   9.338   0.575  0.2541  0.0672  0.1717
  832MOL0     C 9704   2.774   9.414   0.574  1.0008 -0.1202  0.3393
  832MOL0     C 9705   2.711   9.397   0.430  0.4671  0.4841 -0.5099
  832MOL0     C 9706   2.556   9.425   0.423  0.0992  0.0339 -0.6864
  832MOL0     C 9707   2.542   9.576   0.468  0.2357  0.1136 -0.7295
  832MOL0     C 9708   2.400   9.631   0.440 -0.3331 -0.0137  0.1160
  832MOL0     N 9709   2.317   9.609   0.560  0.2886 -0.3048  0.1106
  832MOL0     C 9710   2.227   9.507   0.590 -0.4564  0.3544  0.8094
  832MOL0     C 9711   2.166   9.529   0.707 -0.2004 -0.3596  0.1189
  832MOL0     C 9712   2.073   9.443   0.779 -0.4055  0.2608  0.4705
  832MOL0     C 9713   1.928   9.430   0.733  0.0062  0.5252 -0.5105
  832MOL0     C 9714   1.858   9.557   0.775  0.2439 -0.7184 -0.0422
  832MOL0     C 9715   1.712   9.563   0.714 -0.0855  0.0014 -0.2661
  832MOL0     O 9716   1.647   9.677   0.772 -0.0376  0.5264  0.6591
  832MOL0     C 9717   1.510   9.691   0.774  0.0997 -0.5850 -0.1868
  832MOL0     C 9718   1.452   9.815   0.829 -0.5620  0.1267  0.9962
  832MOL0     C 9719   1.320   9.838   0.819 -0.0215 -0.6663 -0.6338
  832MOL0     C 9720   1.231   9.747   0.766  0.2734 -0.2168 -0.3841
  832MOL0     C 9721   1.081   9.770   0.772 -0.0176  0.0652  0.3566
  832MOL0     O 9722   1.040   9.900   0.785  0.5843  0.1224 -0.1776
  832MOL0     C 9723   0.910   9.913   0.817 -0.0333 -0.5062  0.1269
  832MOL0     C 9724   0.821   9.985   0.734 -0.9415 -0.3142 -0.5373
  832MOL0     C 9725   0.687  10.006   0.775 -0.0145 -0.6277 -0.2085
  832MOL0     C 9726   0.640   9.961   0.901  0.5332 -0.1581  0.2341
  832MOL0     O 9727   0.511   9.980   0.950 -0.6198  0.1797 -0.2593
  832MOL0     C 9728   0.416  10.032   0.856  0.0715  0.2130  0.3261
  832MOL0     C 9729   0.282  10.026   0.918 -1.1627 -0.3067 -0.3214
  832MOL0     C 9730   0.176  10.074   0.827  0.5062 -0.7231  0.0001
  832MOL0     C 9731   0.039  10.071   0.895 -0.1388 -0.2197 -0.2966
  832MOL0     C 9732  -0.064  10.154   0.815  0.2099 -0.2678 -0.6660
  832MOL0     C 9733  -0.132  10.079   0.704 -0.0547 -0.8488  0.0819
  832MOL0     C 9734  -0.052  10.018   0.585  0.1878 -0.2236  0.4660
  832MOL0     C 9735  -0.137   9.977   0.465 -0.1572 -0.0466  0.7360
  832MOL0    Cl 9736  -0.271   9.874   0.512  0.3505 -0.0010 -0.4099
  832MOL0     C 9737   0.725   9.886   0.979 -0.3529  0.6615 -0.2555
  832MOL0     C 9738   0.859   9.859   0.936 -0.5261 -0.6230 -0.2187
  832MOL0     O 9739   1.018   9.670   0.788  0.0121  0.1110 -0.0980
  832MOL0     C 9740   1.289   9.631   0.709 -0.0611  0.7391 -0.1669
  832MOL0     C 9741   1.423   9.604   0.705  0.4920  0.2753 -0.2565
  832MOL0     N 9742   2.206   9.654   0.749 -0.5912  0.0881  0.6831
  832MOL0     N 9743   2.302   9.696   0.662  0.4540 -0.3727  0.1802
  832MOL0     C 9744   3.384   9.384   0.432 -0.1498 -0.0147  0.0434
  832MOL0     C 9745   3.519   9.380   0.406 -0.1140 -0.3012 -0.2649
  832MOL0     C 9746   3.919   9.323   0.318 -0.1269 -0.3997 -0.4606
  832MOL0     C 9747   4.011   9.368   0.419 -0.7233  0.2008  0.1439
  832MOL0     C 9748   4.140   9.403   0.387 -0.3743  0.1500  0.2286
  832MOL0     C 9749   4.179   9.421   0.252 -0.4605 -0.2935  0.2983
  832MOL0     O 9750   4.303   9.476   0.210  0.6764 -0.5813 -1.1617
  832MOL0     C 9751   4.381   9.569   0.299  0.3311  1.7665  0.2757
  832MOL0     C 9752   4.325   9.710   0.302  0.2037 -0.6409  0.9918
  832MOL0     C 9753   4.409   9.799   0.392 -0.1002 -1.2325 -0.5849
  832MOL0     C 9754   4.550   9.822   0.335 -0.2184 -0.3319 -0.4597
  832MOL0     C 9755   4.612   9.956   0.359  0.8281 -0.2478  0.3591
  832MOL0     C 9756   4.684  10.055   0.372  0.1642 -0.4472  0.1833
  832MOL0     C 9757   4.086   9.382   0.157  0.1708  0.1840  0.3792
  832MOL0     C 9758   3.957   9.337   0.190 -0.2976  0.0470 -0.0800
  832MOL0     H 9759   3.624   9.185   0.655 -1.0211 -2.6073 -0.3063
  832MOL0     H 9760   3.389   9.193   0.717  3.1260  0.2146  1.0828
  832MOL0     H 9761   3.202   9.372   0.760  1.1497  1.1680 -2.3855
  832MOL0     H 9762   3.148   9.209   0.717  0.7738 -1.2067 -2.6917
  832MOL0     H 9763   3.008   9.477   0.716  1.2192  0.2246  2.9386
  832MOL0     H 9764   2.940   9.333   0.791 -0.3914 -2.4669 -1.1575
  832MOL0     H 9765   2.885   9.231   0.588  1.7221 -0.5160 -2.1583
  832MOL0     H 9766   2.961   9.363   0.486  0.9585 -0.1937  0.5475
  832MOL0     H 9767   2.713   9.364   0.650  3.2143 -0.7393  1.8353
  832MOL0     H 9768   2.798   9.514   0.613  2.8775 -0.8176  1.0701
  832MOL0     H 9769   2.727   9.298   0.388  1.9715  1.0138 -1.2666
  832MOL0     H 9770   2.763   9.465   0.361  0.2645 -1.6024 -2.8540
  832MOL0     H 9771   2.520   9.361   0.504  0.3114  0.6761 -0.0751
  832MOL0     H 9772   2.525   9.405   0.320 -3.6965  1.8081 -0.0583
  832MOL0     H 9773   2.554   9.575   0.577 -0.6056  3.0989 -0.5141
  832MOL0     H 9774   2.625   9.632   0.424  0.3898  2.1064  1.8802
  832MOL0     H 9775   2.349   9.587   0.354 -0.6249  1.4059 -0.4678
  832MOL0     H 9776   2.408   9.739   0.423  0.6614  0.0420  0.8251
  832MOL0     H 9777   2.212   9.413   0.538  2.1492 -0.7467  1.8903
  832MOL0     H 9778   2.072   9.475   0.883 -0.8820  0.5494  0.3818
  832MOL0     H 9779   2.122   9.345   0.769  0.9632  1.0205 -0.7937
  832MOL0     H 9780   1.892   9.344   0.791  1.3552 -0.3022 -0.8468
  832MOL0     H 9781   1.909   9.417   0.626 -1.1675 -3.5138  0.0314
  832MOL0     H 9782   1.853   9.562   0.884  2.7996  0.5296  0.0813
  832MOL0     H 9783   1.915   9.642   0.737 -0.1630  0.1659  1.2261
  832MOL0     H 9784   1.655   9.471   0.730 -0.3080  0.0063 -1.0243
  832MOL0     H 9785   1.724   9.570   0.606  1.8843  0.7577 -0.0456
  832MOL0     H 9786   1.516   9.893   0.869 -0.7618  2.4757 -2.7659
  832MOL0     H 9787   1.288   9.915   0.888  0.1782  0.3233 -1.6201
  832MOL0     H 9788   0.860  10.035   0.646  1.3025 -2.2553 -0.7773
  832MOL0     H 9789   0.626  10.068   0.710  0.3439 -2.8862 -2.8848
  832MOL0     H 9790   0.417   9.969   0.767 -2.8963 -0.6675  0.7959
  832MOL0     H 9791   0.439  10.136   0.828  0.0024  0.8009  2.3205
  832MOL0     H 9792   0.283  10.082   1.011  2.6930  2.7270 -1.9094
  832MOL0     H 9793   0.267   9.924   0.955  0.9542  0.5348  3.3503
  832MOL0     H 9794   0.181  10.009   0.739  2.5174  0.1202 -0.5793
  832MOL0     H 9795   0.190  10.177   0.795 -1.6203 -0.4576 -0.1602
  832MOL0     H 9796  -0.009   9.973   0.907 -2.3719  1.1491  4.5025
  832MOL0     H 9797   0.055  10.118   0.992 -1.4619  1.9370 -1.0469
  832MOL0     H 9798  -0.023  10.250   0.784 -1.7267  0.8043 -0.0684
  832MOL0     H 9799  -0.143  10.179   0.885  1.9353  1.7575  0.6867
  832MOL0     H 9800  -0.206  10.151   0.669  1.6401  0.2333 -1.4994
  832MOL0     H 9801  -0.182   9.995   0.752  0.1913 -0.2649  1.4049
  832MOL0     H 9802   0.039  10.072   0.559 -0.0187  0.2468  0.7030
  832MOL0     H 9803  -0.013   9.921   0.617 -0.4202 -0.3137  0.9727
  832MOL0     H 9804  -0.079   9.926   0.388  0.3577 -1.0297  1.7448
  832MOL0     H 9805  -0.175  10.067   0.417 -1.8150 -1.2939 -0.4149
  832MOL0     H 9806   0.704   9.844   1.077  2.3959 -0.9808 -0.2748
  832MOL0     H 9807   0.927   9.814   1.007 -0.0056  1.9173  1.0059
  832MOL0     H 9808   1.217   9.559   0.674  0.3912 -0.6391  1.5500
  832MOL0     H 9809   1.462   9.532   0.635 -0.3370  1.3109 -1.8372
  832MOL0     H 9810   3.319   9.450   0.375  1.1660  0.3837 -1.0614
  832MOL0     H 9811   3.564   9.425   0.318  0.9844  1.1982  1.0181
  832MOL0     H 9812   3.986   9.344   0.522 -0.1533  0.3576  0.3251
  832MOL0     H 9813   4.210   9.422   0.467  0.9409  0.0972 -0.8808
  832MOL0     H 9814   4.482   9.573   0.257 -0.3020  3.5751 -1.1771
  832MOL0     H 9815   4.390   9.526   0.399  2.2847 -1.1886 -1.0180
  832MOL0     H 9816   4.302   9.753   0.205  0.0456  0.0503  1.3301
  832MOL0     H 9817   4.229   9.707   0.354 -1.0020  0.6697 -1.0128
  832MOL0     H 9818   4.406   9.771   0.498 -2.9771  1.1454  0.0752
  832MOL0     H 9819   4.359   9.896   0.398  0.7897 -0.7579 -0.6297
  832MOL0     H 9820   4.618   9.751   0.384  1.4986 -1.1142 -3.7023
  832MOL0     H 9821   4.552   9.804   0.227  1.9569  0.8679 -0.6829
  832MOL0     H 9822   4.742  10.145   0.367  2.2244 -1.7691 -1.0100
  832MOL0     H 9823   4.107   9.386   0.050 -2.4269  0.0795 -0.2175
  832MOL0     H 9824   3.883   9.305   0.118  0.0156 -0.0255 -0.3726
  833MOL0     O 9825   2.817   1.952  11.006  0.5425  0.4363 -0.5734
  833MOL0     C 9826   2.861   1.965  10.889  0.3362  0.0446 -0.3831
  833MOL0     O 9827   2.785   1.979  10.774 -0.7470 -0.2020 -0.5135
  833MOL0     C 9828   2.648   1.990  10.785 -0.4241 -0.0367  0.2533
  833MOL0     C 9829   2.594   1.982  10.655  0.0954  0.0974  0.6546
  833MOL0     C 9830   2.465   2.004  10.625 -0.6301  0.2390  0.2487
  833MOL0     C 9831   2.378   2.019  10.732  0.4268  0.1035 -0.6997
  833MOL0     O 9832   2.241   2.029  10.708  0.1379  0.5064  0.3242
  833MOL0     C 9833   2.155   2.055  10.818  0.0152 -0.0464 -0.4348
  833MOL0     C 9834   2.006   2.058  10.764 -0.0757  0.5867 -0.2833
  833MOL0     C 9835   1.903   2.086  10.877  0.0189 -0.4963  0.5094
  833MOL0     C 9836   1.761   2.053  10.833 -0.2686 -1.0980  0.6963
  833MOL0     C 9837   1.655   2.066  10.941 -0.0499 -0.7796  0.2355
  833MOL0     C 9838   1.521   2.024  10.878 -0.7509 -0.3782  0.1672
  833MOL0     C 9839   1.405   2.036  10.971 -0.3053  0.2044 -0.3340
  833MOL0     C 9840   1.268   1.997  10.909 -0.6553  0.1038 -0.3916
  833MOL0     N 9841   1.155   2.017  10.994 -0.3512 -0.0358 -0.7352
  833MOL0     C 9842   1.108   2.113  11.078 -1.7258  0.0453  0.0794
  833MOL0     C 9843   1.015   2.050  11.157 -0.0098 -0.0305  0.3327
  833MOL0     C 9844   0.929   2.116  11.260 -0.2878  0.6849  0.5424
  833MOL0     C 9845   0.795   2.140  11.195 -0.0285 -0.0826 -0.2621
  833MOL0     C 9846   0.680   2.178  11.291 -0.5921 -0.0581 -0.2203
  833MOL0     C 9847   0.700   2.303  11.371 -0.7367  0.9330  0.5901
  833MOL0     O 9848   0.616   2.312  11.486  0.2850 -0.3865  0.9066
  833MOL0     C 9849   0.480   2.337  11.484 -0.5794 -0.7108 -0.4766
  833MOL0     C 9850   0.412   2.407  11.387  0.3512 -0.2625 -0.0054
  833MOL0     C 9851   0.269   2.436  11.389  0.6804 -0.2535 -0.1297
  833MOL0     C 9852   0.183   2.395  11.494  0.4696 -0.1929 -0.7769
  833MOL0     C 9853   0.034   2.418  11.482 -0.6185  0.9280 -0.5042
  833MOL0     O 9854  -0.040   2.396  11.595 -0.3314  0.3057 -0.3539
  833MOL0     C 9855  -0.176   2.409  11.593  0.4146 -0.1397 -1.0912
  833MOL0     C 9856  -0.259   2.340  11.501  0.4202 -0.5739 -0.1971
  833MOL0     C 9857  -0.397   2.361  11.501 -0.2738 -0.8644  0.1943
  833MOL0     C 9858  -0.459   2.451  11.591  0.7056  0.8408  0.2826
  833MOL0     O 9859  -0.590   2.490  11.580 -0.4025 -0.2250  0.4924
  833MOL0     C 9860  -0.668   2.524  11.702 -0.3710 -0.3532 -0.1632
  833MOL0     C 9861  -0.816   2.478  11.675  0.0599 -0.0470  0.4063
  833MOL0     C 9862  -0.892   2.595  11.596 -0.9433 -0.1054  0.0203
  833MOL0     C 9863  -1.031   2.552  11.560  0.0171 -0.4715 -0.0673
  833MOL0     C 9864  -1.115   2.677  11.518  0.7160 -0.1122 -0.8336
  833MOL0     C 9865  -1.237   2.620  11.443  0.1572  0.1503 -0.8538
  833MOL0     C 9866  -1.328   2.537  11.533  0.1776  0.3798 -0.0408
  833MOL0     C 9867  -1.451   2.498  11.452 -0.1690 -0.2948  0.1372
  833MOL0    Cl 9868  -1.549   2.379  11.555  0.0416 -0.1697  0.3405
  833MOL0     C 9869  -0.380   2.517  11.680 -0.7282  0.2333  0.2312
  833MOL0     C 9870  -0.240   2.496  11.685  0.2005 -0.6175  0.1284
  833MOL0     O 9871  -0.014   2.454  11.374  0.6124 -0.4761 -0.2575
  833MOL0     C 9872   0.254   2.323  11.591  0.2708  0.1270 -0.5160
  833MOL0     C 9873   0.393   2.301  11.590  0.3463  0.2551 -0.0741
  833MOL0     N 9874   0.996   1.923  11.116 -0.0733  0.6115 -0.8039
  833MOL0     N 9875   1.087   1.901  11.028  0.6374 -0.2096  0.7514
  833MOL0     C 9876   2.432   2.007  10.870 -0.5506 -1.2785 -0.2242
  833MOL0     C 9877   2.563   1.995  10.895 -0.5573 -0.1687 -0.0661
  833MOL0     C 9878   3.011   1.968  10.867  0.0939  0.2654 -0.4750
  833MOL0     C 9879   3.071   1.967  10.741  0.2788 -0.2354  0.3318
  833MOL0     C 9880   3.211   1.961  10.729  0.8404  0.3249 -0.2090
  833MOL0     C 9881   3.294   1.968  10.840 -0.4320 -0.3717  0.3630
  833MOL0     O 9882   3.428   1.958  10.813  0.2345 -0.0964  0.3008
  833MOL0     C 9883   3.522   1.954  10.922 -0.5341  0.6358 -0.8078
  833MOL0     C 9884   3.523   1.806  10.983 -1.0246 -0.1611 -0.0558
  833MOL0     C 9885   3.551   1.699  10.875  0.4711  0.4568 -0.0590
  833MOL0     C 9886   3.677   1.731  10.790  0.0629 -0.5248  0.1942
  833MOL0     C 9887   3.788   1.782  10.867 -0.4989  0.3192 -0.4463
  833MOL0     C 9888   3.874   1.794  10.955 -1.5330  0.3502  0.4392
  833MOL0     C 9889   3.236   1.989  10.967 -0.2351  0.4822  0.0300
  833MOL0     C 9890   3.098   1.989  10.977 -0.1992  0.0317  0.1377
  833MOL0     H 9891   2.660   1.966  10.571 -3.3572  2.0387 -2.8039
  833MOL0     H 9892   2.428   2.014  10.523 -0.1619  3.9519  0.2934
  833MOL0     H 9893   2.177   2.152  10.863  0.5861 -0.8258  1.0618
  833MOL0     H 9894   2.159   1.971  10.888  4.0243  1.5560  1.6320
  833MOL0     H 9895   1.985   1.965  10.711  0.5066 -0.1918  0.8137
  833MOL0     H 9896   1.996   2.141  10.693  3.1414  2.5060  1.2672
  833MOL0     H 9897   1.916   2.192  10.902  2.1700  0.6217 -4.2313
  833MOL0     H 9898   1.926   2.029  10.967  2.8665  1.6496  1.2580
  833MOL0     H 9899   1.736   2.117  10.748  0.7941 -0.7406  0.6426
  833MOL0     H 9900   1.759   1.955  10.785 -1.3315 -2.7506  3.8174
  833MOL0     H 9901   1.645   2.172  10.965  0.6566 -0.2579 -1.6445
  833MOL0     H 9902   1.661   2.010  11.035  0.6056  0.5798  1.0349
  833MOL0     H 9903   1.530   1.918  10.853 -1.0635 -0.3632 -0.0222
  833MOL0     H 9904   1.499   2.076  10.784 -3.7781  0.9707  1.4936
  833MOL0     H 9905   1.422   1.980  11.063 -1.2612  0.1645 -0.1728
  833MOL0     H 9906   1.404   2.138  11.011 -3.3126 -0.1060  0.6592
  833MOL0     H 9907   1.276   1.892  10.879  1.3868 -0.3597  1.5310
  833MOL0     H 9908   1.245   2.044  10.812 -0.6860 -3.4808 -2.2806
  833MOL0     H 9909   1.125   2.219  11.094 -3.1746  0.5771 -1.6194
  833MOL0     H 9910   0.976   2.202  11.309  0.4228  0.4044  0.3733
  833MOL0     H 9911   0.921   2.050  11.347 -0.4862 -2.1643 -1.4709
  833MOL0     H 9912   0.757   2.045  11.156 -1.0643  0.6909 -1.1935
  833MOL0     H 9913   0.818   2.201  11.107  1.3752 -0.8648 -0.4638
  833MOL0     H 9914   0.586   2.178  11.235  0.0456 -0.1366 -1.3382
  833MOL0     H 9915   0.674   2.094  11.361 -1.1164 -0.0521 -0.2500
  833MOL0     H 9916   0.679   2.395  11.315 -1.7597  1.3962  1.6702
  833MOL0     H 9917   0.799   2.298  11.417 -0.5113 -2.9485 -0.0408
  833MOL0     H 9918   0.463   2.440  11.297  0.7395 -1.5826 -0.2873
  833MOL0     H 9919   0.221   2.487  11.306 -0.2892 -0.6015  0.1969
  833MOL0     H 9920  -0.215   2.268  11.433  0.6759 -0.6302  0.0250
  833MOL0     H 9921  -0.449   2.300  11.428 -0.8867 -2.3687  1.8182
  833MOL0     H 9922  -0.671   2.631  11.725 -0.2463 -0.2126 -0.7778
  833MOL0     H 9923  -0.618   2.465  11.780 -1.5078  0.6432  1.3850
  833MOL0     H 9924  -0.859   2.461  11.774  0.4283 -2.8100  0.1606
  833MOL0     H 9925  -0.827   2.383  11.622 -1.0157 -1.2206  2.6139
  833MOL0     H 9926  -0.837   2.615  11.504 -1.1461 -1.4057 -0.4006
  833MOL0     H 9927  -0.897   2.679  11.667 -1.4876 -0.8029  0.8314
  833MOL0     H 9928  -1.012   2.482  11.479  1.2344 -0.5825  0.3023
  833MOL0     H 9929  -1.078   2.494  11.639  2.0199 -1.8661  0.1630
  833MOL0     H 9930  -1.066   2.742  11.444  2.9846 -0.3517  0.3794
  833MOL0     H 9931  -1.153   2.740  11.598 -0.0160 -0.9845 -0.4790
  833MOL0     H 9932  -1.204   2.550  11.365  0.7059 -0.4587 -0.0951
  833MOL0     H 9933  -1.303   2.693  11.396 -3.1603 -0.9003  1.7376
  833MOL0     H 9934  -1.269   2.449  11.560 -1.3063 -0.2438  1.3097
  833MOL0     H 9935  -1.363   2.592  11.620  1.0306 -0.2787  0.7455
  833MOL0     H 9936  -1.424   2.443  11.361 -3.0241 -0.6068 -0.6477
  833MOL0     H 9937  -1.526   2.575  11.431 -0.5973 -0.6877  0.2058
  833MOL0     H 9938  -0.428   2.587  11.748 -1.5557 -0.5708  0.5006
  833MOL0     H 9939  -0.194   2.545  11.771 -1.1696 -1.9333  1.7018
  833MOL0     H 9940   0.195   2.281  11.671  2.4302 -1.8003  0.1905
  833MOL0     H 9941   0.427   2.246  11.677  0.8618  1.0845  0.2561
  833MOL0     H 9942   2.372   2.017  10.960 -0.5381  1.7860 -0.4669
  833MOL0     H 9943   2.585   1.989  11.001 -0.5414  0.9454  0.0053
  833MOL0     H 9944   3.010   1.956  10.652  0.2566 -1.3384  0.4686
  833MOL0     H 9945   3.247   1.941  10.629 -0.9729 -1.3808 -0.5815
  833MOL0     H 9946   3.497   2.024  11.001 -1.6836  0.1171 -0.6836
  833MOL0     H 9947   3.621   1.983  10.887 -0.4028  0.6825 -0.3938
  833MOL0     H 9948   3.602   1.799  11.059 -0.9521 -1.6038 -0.2394
  833MOL0     H 9949   3.430   1.778  11.033 -1.1107 -0.6711 -0.4966
  833MOL0     H 9950   3.470   1.686  10.803 -0.0114 -0.1216  0.5724
  833MOL0     H 9951   3.573   1.601  10.916  0.1554  0.7952  0.9602
  833MOL0     H 9952   3.702   1.638  10.738 -1.7856 -1.2382  0.5166
  833MOL0     H 9953   3.658   1.805  10.712  3.6402  0.4090  0.0364
  833MOL0     H 9954   3.963   1.795  11.015 -0.1634 -4.8390 -0.9744
  833MOL0     H 9955   3.289   1.988  11.062  1.2820  0.9227 -0.7840
  833MOL0     H 9956   3.051   2.004  11.074 -0.6589 -0.4256 -0.0091
  834MOL0     O 9957   6.882   9.951   3.938  0.0610 -0.3233  0.3104
  834MOL0     C 9958   6.947   9.918   3.842 -0.3813 -0.3195 -0.3336
  834MOL0     O 9959   6.896   9.896   3.721 -0.2162 -0.0551 -0.0106
  834MOL0     C 9960   6.763   9.896   3.680  0.0201  0.6710 -0.4612
  834MOL0     C 9961   6.648   9.898   3.760  0.1361 -0.7966 -0.0493
  834MOL0     C 9962   6.518   9.882   3.716  0.2164  0.0333  0.2017
  834MOL0     C 9963   6.494   9.882   3.578 -0.4507 -0.5890  0.0548
  834MOL0     O 9964   6.373   9.853   3.516  0.3040  0.0023 -0.3242
  834MOL0     C 9965   6.250   9.825   3.590  0.8317  0.5491 -0.6501
  834MOL0     C 9966   6.144   9.763   3.493  0.0665 -0.7884  0.6574
  834MOL0     C 9967   6.002   9.761   3.547  0.8252 -0.0649  1.2591
  834MOL0     C 9968   5.900   9.737   3.429  1.1799  0.4771 -0.4931
  834MOL0     C 9969   5.748   9.723   3.478  0.2891  0.8431 -0.0720
  834MOL0     C 9970   5.641   9.783   3.382 -0.2189  0.3323  0.6864
  834MOL0     C 9971   5.510   9.757   3.435  0.6881 -0.2749 -0.3256
  834MOL0     C 9972   5.397   9.823   3.339 -1.2737  0.3538 -0.0102
  834MOL0     N 9973   5.276   9.772   3.397 -0.4452  0.5023  0.5639
  834MOL0     C 9974   5.241   9.641   3.422 -0.2203  0.1284 -0.7997
  834MOL0     C 9975   5.119   9.661   3.480  0.4157  0.2254 -0.1768
  834MOL0     C 9976   5.041   9.543   3.536  0.4992 -0.3204 -0.6383
  834MOL0     C 9977   4.929   9.490   3.450 -0.3922  0.6639 -0.3352
  834MOL0     C 9978   4.831   9.389   3.512 -0.0536 -0.7459 -0.6002
  834MOL0     C 9979   4.883   9.331   3.644 -0.0953 -0.6188  0.0094
  834MOL0     O 9980   4.829   9.203   3.685  0.1595 -0.9088 -0.0275
  834MOL0     C 9981   4.692   9.210   3.713 -0.9514 -0.2417  0.1300
  834MOL0     C 9982   4.608   9.113   3.648 -0.7946 -0.1635  0.2723
  834MOL0     C 9983   4.471   9.110   3.676 -0.7987  0.1673  0.7739
  834MOL0     C 9984   4.415   9.204   3.771 -0.1870  0.4801 -0.2346
  834MOL0     C 9985   4.275   9.215   3.803  0.0102 -0.7871  0.4025
  834MOL0     O 9986   4.240   9.284   3.924  0.2149 -0.1128  0.1027
  834MOL0     C 9987   4.105   9.306   3.944 -0.3204 -1.0189  1.3705
  834MOL0     C 9988   4.050   9.429   3.920  0.5330 -0.7209 -0.3603
  834MOL0     C 9989   3.913   9.450   3.925 -0.2039 -0.2342 -0.3849
  834MOL0     C 9990   3.832   9.355   3.985  0.4518  0.5356  0.0242
  834MOL0     O 9991   3.704   9.398   4.013 -0.1598 -0.1328  0.4566
  834MOL0     C 9992   3.623   9.334   4.113 -0.8736  0.0517  0.6606
  834MOL0     C 9993   3.485   9.392   4.084 -0.0755  0.2254  0.2133
  834MOL0     C 9994   3.380   9.352   4.186  0.4775  0.7581  0.2303
  834MOL0     C 9995   3.238   9.392   4.145 -0.1451  1.9430  0.1820
  834MOL0     C 9996   3.139   9.404   4.269 -0.1302  0.6132 -0.2662
  834MOL0     C 9997   3.133   9.280   4.350  0.2757  0.2927 -0.4560
  834MOL0     C 9998   3.072   9.151   4.287 -0.0710 -0.2489  0.6592
  834MOL0     C 9999   2.934   9.115   4.348 -0.1655  0.5024  0.1805
  834MOL0    Cl10000   2.868   9.002   4.226 -0.1915  0.0407  0.2314
  834MOL0     C10001   3.888   9.225   4.004  0.1978 -0.1860  0.3043
  834MOL0     C10002   4.023   9.205   3.992 -0.4029 -0.1991  0.5595
  834MOL0     O10003   4.193   9.177   3.720 -0.0474 -0.5738 -0.2613
  834MOL0     C10004   4.504   9.296   3.825 -0.0355 -0.6901 -0.0847
  834MOL0     C10005   4.633   9.303   3.796 -0.5508 -0.4127 -0.1749
  834MOL0     N10006   5.085   9.792   3.483 -0.5611  0.2399  0.3433
  834MOL0     N10007   5.186   9.860   3.434  0.8789 -0.1256  0.7160
  834MOL0     C10008   6.609   9.881   3.486 -0.2568 -0.3419  0.7892
  834MOL0     C10009   6.735   9.880   3.548 -0.7144 -0.0317  0.1622
  834MOL0     C10010   7.090   9.885   3.869 -0.4168  0.4278 -0.6554
  834MOL0     C10011   7.157   9.894   3.993  0.0446 -0.2222 -0.7981
  834MOL0     C10012   7.301   9.882   4.013 -0.7861 -0.1289  0.2660
  834MOL0     C10013   7.372   9.831   3.898  0.6178 -0.8796  0.2812
  834MOL0     O10014   7.508   9.805   3.895  0.2556  0.4623 -0.0903
  834MOL0     C10015   7.583   9.806   4.014 -0.7665 -0.3508 -0.9670
  834MOL0     C10016   7.728   9.779   3.971  0.2336  0.4423 -0.1242
  834MOL0     C10017   7.812   9.756   4.099  0.6940  0.1503  1.0201
  834MOL0     C10018   7.961   9.742   4.068 -0.0480 -0.4856  0.2288
  834MOL0     C10019   8.024   9.873   4.051 -1.5583  0.9939  0.4244
  834MOL0     C10020   8.083   9.979   4.036 -0.0785 -0.8858 -0.8532
  834MOL0     C10021   7.307   9.798   3.778 -0.2631 -0.6137 -0.2710
  834MOL0     C10022   7.168   9.823   3.764 -0.3380 -0.1663  0.6997
  834MOL0     H10023   6.670   9.907   3.866  2.2188  1.3101 -0.5581
  834MOL0     H10024   6.444   9.877   3.796  0.4600 -0.9219  0.3791
  834MOL0     H10025   6.214   9.911   3.646  0.0786 -0.6387  0.7681
  834MOL0     H10026   6.280   9.748   3.662 -3.1842  2.2843  3.3731
  834MOL0     H10027   6.181   9.660   3.478  0.9091 -0.2965 -0.9215
  834MOL0     H10028   6.148   9.815   3.397  0.9867  2.1085  2.1642
  834MOL0     H10029   5.981   9.853   3.603  2.4981 -1.3582  4.2429
  834MOL0     H10030   5.982   9.681   3.619  0.1691 -0.6911  0.4009
  834MOL0     H10031   5.906   9.824   3.363 -0.6521  0.4794 -0.6909
  834MOL0     H10032   5.940   9.659   3.363  1.1908 -1.5424  1.7573
  834MOL0     H10033   5.730   9.784   3.567 -1.3853  3.6134 -2.1436
  834MOL0     H10034   5.720   9.619   3.499 -0.5413  1.0095 -0.3277
  834MOL0     H10035   5.650   9.744   3.281  0.8158  0.8437  0.5606
  834MOL0     H10036   5.656   9.892   3.375  0.5682  0.1425 -0.8713
  834MOL0     H10037   5.496   9.649   3.441  1.1087 -0.3128  0.0191
  834MOL0     H10038   5.495   9.790   3.538  1.6822  1.3497 -0.6577
  834MOL0     H10039   5.413   9.778   3.240  1.0491 -1.3927  1.0783
  834MOL0     H10040   5.401   9.932   3.328 -0.1004  0.2500 -0.8610
  834MOL0     H10041   5.290   9.548   3.397  0.8089  0.1700  0.9081
  834MOL0     H10042   4.988   9.580   3.624  0.8776 -0.8887 -0.1739
  834MOL0     H10043   5.116   9.466   3.553  2.2795  1.6708  1.1931
  834MOL0     H10044   4.983   9.443   3.367 -0.6670 -0.9326  0.3533
  834MOL0     H10045   4.860   9.569   3.420 -0.8184  0.8648  1.0861
  834MOL0     H10046   4.740   9.444   3.536  0.7800  1.5704 -2.3786
  834MOL0     H10047   4.802   9.308   3.445 -2.6030  1.4074 -2.3194
  834MOL0     H10048   4.878   9.407   3.722  1.3621 -1.9123  1.4333
  834MOL0     H10049   4.988   9.305   3.627  0.2676  1.1467 -0.6557
  834MOL0     H10050   4.656   9.044   3.580  1.0414  0.7115  0.6099
  834MOL0     H10051   4.406   9.043   3.621 -1.9134  1.9748 -0.2250
  834MOL0     H10052   4.110   9.514   3.890 -0.6151  1.0203  1.9712
  834MOL0     H10053   3.884   9.552   3.901  1.8252  0.3671 -0.4675
  834MOL0     H10054   3.654   9.384   4.205 -1.3909 -2.6164  2.3806
  834MOL0     H10055   3.623   9.225   4.122  1.5569 -0.1739 -1.1406
  834MOL0     H10056   3.461   9.345   3.988 -1.6495  3.8315 -1.3506
  834MOL0     H10057   3.489   9.498   4.058  2.4191  0.0474 -0.4497
  834MOL0     H10058   3.390   9.381   4.291 -3.1903  1.1212  0.6051
  834MOL0     H10059   3.393   9.244   4.176  1.4275  0.7660  1.1944
  834MOL0     H10060   3.247   9.493   4.102 -1.7630  2.7512  1.5939
  834MOL0     H10061   3.198   9.335   4.061  0.2049  0.1441  1.2031
  834MOL0     H10062   3.040   9.425   4.227 -0.4996  1.6091  1.0503
  834MOL0     H10063   3.158   9.487   4.338 -0.4454 -2.2594  3.6084
  834MOL0     H10064   3.083   9.299   4.446  0.8045 -0.7123  0.0337
  834MOL0     H10065   3.235   9.264   4.385 -0.2818 -0.0265  1.1407
  834MOL0     H10066   3.057   9.167   4.180  2.1300 -0.4802  0.2736
  834MOL0     H10067   3.138   9.064   4.290 -0.3994 -0.8170 -3.2540
  834MOL0     H10068   2.860   9.196   4.356 -0.0772  0.6599 -0.5901
  834MOL0     H10069   2.951   9.065   4.444  0.3383 -1.5854 -0.9396
  834MOL0     H10070   3.823   9.143   4.033 -1.4893  0.5647 -1.1974
  834MOL0     H10071   4.071   9.114   4.029 -1.0282 -0.2982  1.1441
  834MOL0     H10072   4.461   9.365   3.897  2.1074 -0.2548  0.8304
  834MOL0     H10073   4.700   9.372   3.846 -0.5887 -1.0940  0.8578
  834MOL0     H10074   6.597   9.879   3.378  0.7386  2.4129  0.5555
  834MOL0     H10075   6.819   9.881   3.479 -1.5350 -0.4345 -0.8553
  834MOL0     H10076   7.091   9.932   4.070  0.4654  0.1588 -0.6195
  834MOL0     H10077   7.349   9.885   4.110  0.0155  0.3888 -0.1416
  834MOL0     H10078   7.553   9.730   4.087  1.8357 -0.6353 -0.0605
  834MOL0     H10079   7.574   9.906   4.056  0.9439  0.1484 -1.6932
  834MOL0     H10080   7.733   9.690   3.907 -1.2269 -0.5342  1.0510
  834MOL0     H10081   7.777   9.857   3.912  0.7676 -0.9634 -1.6557
  834MOL0     H10082   7.772   9.663   4.139  0.9810 -0.8403 -0.8998
  834MOL0     H10083   7.792   9.837   4.171 -1.0222  0.7678 -0.0634
  834MOL0     H10084   8.011   9.699   4.155 -1.0384  0.5236  1.3411
  834MOL0     H10085   7.977   9.676   3.983  1.4410  0.5975 -0.3633
  834MOL0     H10086   8.134  10.073   4.028 -2.2372  0.6105  1.4916
  834MOL0     H10087   7.359   9.749   3.696  2.9586  2.6745 -0.4841
  834MOL0     H10088   7.119   9.803   3.669  1.8486  0.7836 -0.7019
  835MOL0     O10089   4.094   3.478   6.727  0.6725  0.5186 -0.6158
  835MOL0     C10090   4.137   3.519   6.623 -0.4186 -0.3582  0.4359
  835MOL0     O10091   4.084   3.504   6.496 -0.3473  0.2013  0.1247
  835MOL0     C10092   3.960   3.437   6.495 -0.6830  0.5766 -0.7877
  835MOL0     C10093   3.947   3.344   6.389  0.4630 -0.4534 -0.3040
  835MOL0     C10094   3.823   3.278   6.366  0.0876  0.5033 -0.0152
  835MOL0     C10095   3.716   3.287   6.449  0.0409 -0.2709 -0.8233
  835MOL0     O10096   3.598   3.222   6.417 -0.6280  0.3993  0.8198
  835MOL0     C10097   3.479   3.263   6.483  0.6271  1.2639  0.0387
  835MOL0     C10098   3.364   3.161   6.430 -0.1864 -0.2149  0.1293
  835MOL0     C10099   3.220   3.181   6.479 -0.0532 -0.0950 -0.3033
  835MOL0     C10100   3.224   3.133   6.624 -0.0142  0.6445 -0.2777
  835MOL0     C10101   3.082   3.133   6.695  0.1911  0.2745 -0.4638
  835MOL0     C10102   3.086   3.089   6.845 -0.2317 -0.5558 -0.0437
  835MOL0     C10103   3.179   3.175   6.933  0.4678 -0.2477 -0.0882
  835MOL0     C10104   3.181   3.104   7.066 -0.8417  0.2887  0.2312
  835MOL0     N10105   3.298   3.130   7.149 -0.4608 -0.5426  0.1313
  835MOL0     C10106   3.435   3.102   7.117  0.4949 -0.4909  0.4244
  835MOL0     C10107   3.499   3.172   7.216 -0.8498  0.1034  0.5963
  835MOL0     C10108   3.654   3.169   7.242  1.2383  0.0679  0.5218
  835MOL0     C10109   3.729   3.196   7.116  0.3194  0.1298  1.4031
  835MOL0     C10110   3.710   3.345   7.086 -0.9063 -0.1833  0.1143
  835MOL0     C10111   3.757   3.368   6.938  0.3942 -0.6009  0.3461
  835MOL0     O10112   3.727   3.499   6.889 -0.1497  0.1518 -0.4343
  835MOL0     C10113   3.600   3.529   6.848  0.0091  0.3890  0.6961
  835MOL0     C10114   3.580   3.654   6.793 -0.1258  0.0401 -0.2899
  835MOL0     C10115   3.458   3.692   6.742  0.7015  0.3192  0.2817
  835MOL0     C10116   3.352   3.604   6.734 -0.2525  0.3693 -0.1887
  835MOL0     C10117   3.221   3.647   6.688  0.3936 -0.8449 -0.1335
  835MOL0     O10118   3.207   3.770   6.654 -0.4837  0.3475  0.1787
  835MOL0     C10119   3.091   3.834   6.664  0.2534  0.6909  0.9115
  835MOL0     C10120   3.007   3.825   6.778  0.6059 -0.1842  0.2563
  835MOL0     C10121   2.890   3.892   6.779  0.3891  0.6030  0.3951
  835MOL0     C10122   2.847   3.969   6.675  0.7964  0.0896 -0.3497
  835MOL0     O10123   2.728   4.041   6.690 -0.5987  0.5957 -0.2823
  835MOL0     C10124   2.650   4.084   6.579 -0.2130  0.2020 -0.0263
  835MOL0     C10125   2.502   4.112   6.612  0.2996  0.8216  0.4234
  835MOL0     C10126   2.477   4.234   6.707 -0.6178 -0.5981 -0.1786
  835MOL0     C10127   2.327   4.267   6.720 -0.3025  0.5006 -0.0344
  835MOL0     C10128   2.297   4.370   6.817 -0.6753 -0.0298  0.2713
  835MOL0     C10129   2.146   4.384   6.844 -0.4387 -0.0146  0.3559
  835MOL0     C10130   2.100   4.508   6.916  0.2104 -0.2840 -0.0530
  835MOL0     C10131   1.940   4.495   6.937 -0.4450  1.0532  0.0937
  835MOL0    Cl10132   1.882   4.645   7.017 -0.2208  0.4367  0.4355
  835MOL0     C10133   2.931   3.989   6.567  0.1172  0.1618  0.4306
  835MOL0     C10134   3.048   3.916   6.555 -0.0665  0.6074  0.2422
  835MOL0     O10135   3.133   3.556   6.679  0.5555 -0.1186 -0.3091
  835MOL0     C10136   3.372   3.472   6.787 -0.3846 -0.4531 -0.3838
  835MOL0     C10137   3.503   3.436   6.836 -0.6165  0.0736  0.9570
  835MOL0     N10138   3.410   3.232   7.301  0.2276 -0.1811 -0.1592
  835MOL0     N10139   3.295   3.210   7.258  0.9981  1.1302  0.5103
  835MOL0     C10140   3.731   3.381   6.544 -0.2824 -0.9245  0.1013
  835MOL0     C10141   3.845   3.457   6.582 -0.0355  0.7643 -0.3001
  835MOL0     C10142   4.273   3.569   6.619  0.3492  0.0548 -0.0901
  835MOL0     C10143   4.324   3.647   6.726  0.0757  0.1840  0.4830
  835MOL0     C10144   4.451   3.701   6.723  0.6512  0.4308  0.0281
  835MOL0     C10145   4.539   3.679   6.625 -0.9663 -0.4745 -0.0400
  835MOL0     O10146   4.667   3.728   6.649  0.4611  0.0596  1.0706
  835MOL0     C10147   4.771   3.698   6.563  0.4996  0.0507  0.9057
  835MOL0     C10148   4.902   3.726   6.632 -0.9895 -0.2128 -0.4155
  835MOL0     C10149   5.022   3.703   6.538  0.8657  0.0527  0.5264
  835MOL0     C10150   5.151   3.717   6.625  0.3538  0.0079  0.9050
  835MOL0     C10151   5.274   3.728   6.553 -0.0268 -0.1869  0.3299
  835MOL0     C10152   5.372   3.742   6.492  0.4089  0.0330  0.7131
  835MOL0     C10153   4.491   3.617   6.510  0.1621  0.1404 -0.5291
  835MOL0     C10154   4.360   3.553   6.509  1.2705  0.4084  0.1597
  835MOL0     H10155   4.034   3.343   6.324 -1.4960  1.1816 -3.2248
  835MOL0     H10156   3.818   3.212   6.280 -0.4745 -2.1660  1.9353
  835MOL0     H10157   3.443   3.362   6.452  0.3739  0.3619 -2.7218
  835MOL0     H10158   3.490   3.243   6.590 -0.6899 -0.1668 -0.0509
  835MOL0     H10159   3.401   3.066   6.471  2.0234  0.5452  0.0219
  835MOL0     H10160   3.369   3.162   6.321  1.0617  0.7800  0.1838
  835MOL0     H10161   3.145   3.116   6.433 -0.0632 -1.5974  1.7158
  835MOL0     H10162   3.198   3.288   6.476 -0.0249 -0.0190  1.4829
  835MOL0     H10163   3.264   3.031   6.628 -0.9184  0.3019  0.3859
  835MOL0     H10164   3.290   3.207   6.671 -0.0959  0.9724 -0.6743
  835MOL0     H10165   3.019   3.062   6.640  1.0719 -1.0427  0.1756
  835MOL0     H10166   3.040   3.233   6.691  1.0729  0.6631 -0.2651
  835MOL0     H10167   3.107   2.982   6.857 -1.7302 -0.6771  1.9559
  835MOL0     H10168   2.982   3.104   6.877 -0.6664 -0.8177 -1.2562
  835MOL0     H10169   3.283   3.175   6.901  0.8987  3.4057  0.9030
  835MOL0     H10170   3.149   3.280   6.944  0.0879 -0.4248  0.6748
  835MOL0     H10171   3.181   2.996   7.054  1.8294  0.4154 -1.9780
  835MOL0     H10172   3.092   3.133   7.122  1.0402  3.0544  2.1150
  835MOL0     H10173   3.476   3.057   7.026  1.2087 -0.3505  0.6721
  835MOL0     H10174   3.673   3.068   7.280  0.4814  0.0139  0.7696
  835MOL0     H10175   3.681   3.244   7.317  2.0606 -0.7558  1.0937
  835MOL0     H10176   3.684   3.138   7.035 -1.7415  4.9141 -1.3314
  835MOL0     H10177   3.836   3.174   7.129  0.7360  0.5763 -0.8352
  835MOL0     H10178   3.604   3.372   7.082 -1.0848 -0.9685 -0.8511
  835MOL0     H10179   3.766   3.418   7.145 -3.2777  2.0133 -0.1881
  835MOL0     H10180   3.726   3.295   6.862 -0.7292  1.9483 -1.8390
  835MOL0     H10181   3.865   3.353   6.940  0.7863  1.5667 -1.1851
  835MOL0     H10182   3.655   3.731   6.811  1.0645 -1.4491  1.5907
  835MOL0     H10183   3.452   3.795   6.709  0.8109 -0.3098 -1.8575
  835MOL0     H10184   3.038   3.761   6.860  1.1650  1.7943  1.6546
  835MOL0     H10185   2.819   3.862   6.856 -0.5491 -1.3185 -1.1170
  835MOL0     H10186   2.652   4.008   6.501 -0.7094 -2.5185  2.4190
  835MOL0     H10187   2.682   4.183   6.547 -3.4930  1.5107  0.3673
  835MOL0     H10188   2.467   4.022   6.664 -0.6926  0.7217 -0.3918
  835MOL0     H10189   2.455   4.124   6.514  2.4337  0.7599 -0.6648
  835MOL0     H10190   2.533   4.322   6.672  1.1679 -1.7366 -0.3124
  835MOL0     H10191   2.521   4.217   6.805  1.5768 -0.6636 -1.1101
  835MOL0     H10192   2.304   4.303   6.620  0.9784  0.6750 -0.2907
  835MOL0     H10193   2.265   4.180   6.740  0.6783  0.0682  1.3170
  835MOL0     H10194   2.344   4.459   6.774  2.6679 -2.0712 -0.6289
  835MOL0     H10195   2.342   4.348   6.914 -1.5618 -1.1209  0.4502
  835MOL0     H10196   2.119   4.291   6.894  1.9354 -1.7323 -1.3147
  835MOL0     H10197   2.093   4.370   6.749  1.8099 -3.7435 -0.5317
  835MOL0     H10198   2.156   4.524   7.009  0.8799 -2.3783 -0.0461
  835MOL0     H10199   2.108   4.602   6.861  0.6802 -1.0377 -1.2956
  835MOL0     H10200   1.920   4.406   6.997  1.9493 -0.1301 -0.7214
  835MOL0     H10201   1.897   4.478   6.838  0.1432 -0.4604  0.0765
  835MOL0     H10202   2.903   4.055   6.485 -1.9289 -0.2558  0.7438
  835MOL0     H10203   3.105   3.935   6.464 -0.3372 -2.7887 -0.7600
  835MOL0     H10204   3.283   3.410   6.793 -0.0442 -0.8937  0.2617
  835MOL0     H10205   3.509   3.340   6.886 -1.4820 -0.5399 -0.1003
  835MOL0     H10206   3.646   3.405   6.607  1.6826  2.6365  1.6473
  835MOL0     H10207   3.838   3.528   6.664 -0.6410 -0.3688  0.6603
  835MOL0     H10208   4.257   3.662   6.810  0.0387  0.1945  0.4513
  835MOL0     H10209   4.474   3.768   6.805 -0.2045  0.0473  0.5931
  835MOL0     H10210   4.769   3.753   6.468 -0.0934 -2.4305 -0.6391
  835MOL0     H10211   4.775   3.590   6.545  0.2497  0.1306  0.3565
  835MOL0     H10212   4.902   3.820   6.688  2.6783 -0.6603  0.5809
  835MOL0     H10213   4.904   3.656   6.717 -3.2680 -1.0396 -0.9877
  835MOL0     H10214   5.017   3.780   6.460 -2.4114  2.4478  2.8042
  835MOL0     H10215   5.016   3.604   6.491 -1.6566  1.0568 -1.5331
  835MOL0     H10216   5.144   3.812   6.680  0.8992 -2.1673  5.2060
  835MOL0     H10217   5.147   3.630   6.691  1.3798 -0.7076  0.0517
  835MOL0     H10218   5.467   3.761   6.445  0.8758  0.0443  1.6402
  835MOL0     H10219   4.557   3.597   6.427  0.3928 -3.5682  0.3653
  835MOL0     H10220   4.320   3.486   6.433 -0.0925  0.7554  0.5510
  836MOL0     O10221   9.769   3.797   2.085  0.0684  0.3051 -0.4837
  836MOL0     C10222   9.871   3.786   2.151 -0.2680 -0.4631 -0.0538
  836MOL0     O10223   9.874   3.789   2.288 -0.1616  0.3665 -0.1484
  836MOL0     C10224   9.770   3.835   2.362  0.2684  0.2656 -0.1961
  836MOL0     C10225   9.781   3.802   2.499  0.0418  0.7117  0.2981
  836MOL0     C10226   9.695   3.861   2.592 -0.6472  0.3899 -0.3309
  836MOL0     C10227   9.599   3.955   2.550  0.3795  0.6444 -0.0595
  836MOL0     O10228   9.529   4.018   2.643 -0.8098 -0.4043 -0.1173
  836MOL0     C10229   9.388   4.027   2.636  0.6240  0.3448  0.4909
  836MOL0     C10230   9.341   4.065   2.774  1.0419 -0.1597 -0.2233
  836MOL0     C10231   9.186   4.102   2.785 -0.1018  0.2654  0.3638
  836MOL0     C10232   9.145   4.137   2.929 -0.2002 -0.1298  0.3397
  836MOL0     C10233   8.987   4.124   2.937 -0.8020  0.0787 -0.3583
  836MOL0     C10234   8.915   4.209   2.839 -0.3035 -0.3460 -0.6553
  836MOL0     C10235   8.774   4.239   2.900 -0.8942  0.1157  0.0903
  836MOL0     C10236   8.782   4.373   2.974 -0.1801  0.0118 -0.5457
  836MOL0     N10237   8.644   4.397   3.036  0.3025 -0.2063  0.7055
  836MOL0     C10238   8.609   4.357   3.161  0.1104  0.6988 -0.8736
  836MOL0     C10239   8.493   4.419   3.184 -0.1201  0.2791  0.2325
  836MOL0     C10240   8.416   4.421   3.321 -0.4696 -0.2916 -0.0030
  836MOL0     C10241   8.385   4.563   3.361  0.0914 -0.8018  0.5926
  836MOL0     C10242   8.327   4.576   3.494  0.5724  0.3526 -0.3857
  836MOL0     C10243   8.174   4.542   3.506 -0.4574 -0.2841  0.6216
  836MOL0     O10244   8.127   4.552   3.641 -0.1803  0.4398 -0.4158
  836MOL0     C10245   7.994   4.569   3.666  0.8359 -0.6227 -0.1723
  836MOL0     C10246   7.896   4.568   3.572  0.0505 -0.2312  0.2253
  836MOL0     C10247   7.764   4.598   3.604  1.2008  0.1556  0.0405
  836MOL0     C10248   7.727   4.619   3.740  0.0449 -0.9978 -0.6152
  836MOL0     C10249   7.588   4.656   3.783  0.8884  0.3157  0.1558
  836MOL0     O10250   7.487   4.621   3.696  0.5331  0.3105 -0.2679
  836MOL0     C10251   7.359   4.632   3.735  0.8425  0.1047 -0.8999
  836MOL0     C10252   7.291   4.752   3.773  0.2111  0.6882  0.2410
  836MOL0     C10253   7.161   4.741   3.826  0.5868 -0.0525 -0.7788
  836MOL0     C10254   7.094   4.617   3.847  1.4299  0.0836 -0.4302
  836MOL0     O10255   6.974   4.605   3.918  0.1370 -0.3892  0.2211
  836MOL0     C10256   6.905   4.720   3.964 -0.3130 -0.5709 -0.4090
  836MOL0     C10257   6.830   4.785   3.840 -0.0213  0.6498 -0.0994
  836MOL0     C10258   6.710   4.870   3.880  0.4499  0.7465  0.1455
  836MOL0     C10259   6.748   4.989   3.970  0.0816  0.1036  0.5263
  836MOL0     C10260   6.620   5.060   4.009  0.8122 -0.4988  0.3963
  836MOL0     C10261   6.567   5.166   3.906  0.0149  1.1124 -0.7461
  836MOL0     C10262   6.454   5.253   3.960  0.2828 -0.0899  0.0003
  836MOL0     C10263   6.519   5.361   4.050  0.1852  0.1593  0.6517
  836MOL0    Cl10264   6.379   5.443   4.134 -0.3458 -0.5991 -0.2827
  836MOL0     C10265   7.155   4.505   3.806 -0.2957 -0.3232  0.0742
  836MOL0     C10266   7.281   4.515   3.740 -0.0860 -0.0706  0.9093
  836MOL0     O10267   7.581   4.701   3.898  0.2093 -0.0422 -0.4287
  836MOL0     C10268   7.834   4.629   3.838  0.3093 -0.1301 -0.2044
  836MOL0     C10269   7.965   4.600   3.794 -0.0370  0.3870 -0.1264
  836MOL0     N10270   8.466   4.505   3.079 -0.1030 -0.2583 -0.3245
  836MOL0     N10271   8.553   4.492   2.989 -0.1763  0.5727 -1.1511
  836MOL0     C10272   9.576   3.973   2.411  0.3070 -0.1729 -0.8009
  836MOL0     C10273   9.659   3.910   2.326 -0.5733 -0.0058  0.8003
  836MOL0     C10274  10.000   3.768   2.076 -0.4511  0.0593  0.9288
  836MOL0     C10275  10.015   3.802   1.939  0.5251  0.2129  0.6896
  836MOL0     C10276  10.136   3.786   1.876  0.0991  0.5656  0.1870
  836MOL0     C10277  10.247   3.734   1.947  0.3941  0.2548 -1.2682
  836MOL0     O10278  10.359   3.720   1.872 -0.7124  0.3806 -0.4007
  836MOL0     C10279  10.458   3.629   1.927  0.4456  0.2956 -0.1535
  836MOL0     C10280  10.557   3.581   1.813  0.0103  0.3722 -0.5913
  836MOL0     C10281  10.680   3.676   1.804  0.0916  0.6321 -0.4736
  836MOL0     C10282  10.775   3.612   1.699  0.0329  0.6444 -0.8482
  836MOL0     C10283  10.882   3.709   1.669  0.0269  1.1165  0.0714
  836MOL0     C10284  10.977   3.778   1.660 -0.0348 -0.1762 -0.9664
  836MOL0     C10285  10.236   3.705   2.087  0.4853  0.4086 -0.7873
  836MOL0     C10286  10.109   3.711   2.145 -0.1969 -0.5655  0.5084
  836MOL0     H10287   9.861   3.739   2.535 -0.4090 -0.1625 -0.2119
  836MOL0     H10288   9.691   3.835   2.697  1.1058 -0.7943 -0.5098
  836MOL0     H10289   9.345   3.929   2.613 -0.3920  1.3839 -2.7016
  836MOL0     H10290   9.355   4.096   2.558  0.2212 -1.0391 -0.6118
  836MOL0     H10291   9.399   4.146   2.819 -0.0326  0.8268 -0.5649
  836MOL0     H10292   9.364   3.978   2.837  1.1237 -0.0941 -0.1628
  836MOL0     H10293   9.140   4.006   2.759  0.9185 -0.8197  2.3135
  836MOL0     H10294   9.156   4.175   2.710  2.3556  0.7279 -0.2441
  836MOL0     H10295   9.182   4.070   3.007 -0.5620 -1.3027 -0.4770
  836MOL0     H10296   9.179   4.238   2.955  0.9434 -0.1687 -0.9343
  836MOL0     H10297   8.958   4.152   3.039  0.5807  0.0525  0.0628
  836MOL0     H10298   8.959   4.019   2.921  2.7253 -1.1031  0.2337
  836MOL0     H10299   8.907   4.140   2.755 -0.2740 -3.0661  1.4345
  836MOL0     H10300   8.970   4.301   2.816  3.1332 -1.8317  0.9122
  836MOL0     H10301   8.694   4.231   2.826 -0.0349 -3.9224 -0.6538
  836MOL0     H10302   8.747   4.152   2.961 -0.3460 -2.1305 -2.6400
  836MOL0     H10303   8.816   4.449   2.902  0.5253 -1.2418 -1.5654
  836MOL0     H10304   8.853   4.352   3.055 -0.6272  1.8346  0.3768
  836MOL0     H10305   8.670   4.295   3.226 -1.5983 -0.1934 -0.0719
  836MOL0     H10306   8.480   4.384   3.401  0.3735 -0.2303 -0.6266
  836MOL0     H10307   8.323   4.366   3.307 -1.2321  0.6819  1.1270
  836MOL0     H10308   8.317   4.622   3.300  1.8265  2.2761  1.4319
  836MOL0     H10309   8.482   4.612   3.351 -0.2805 -0.5093 -2.8899
  836MOL0     H10310   8.377   4.508   3.564 -1.6378 -2.0879 -1.0185
  836MOL0     H10311   8.337   4.679   3.529  0.0275  0.7947 -1.5074
  836MOL0     H10312   8.159   4.438   3.475  3.3283 -1.2472  1.4868
  836MOL0     H10313   8.113   4.605   3.441 -0.9283 -2.3874 -1.0989
  836MOL0     H10314   7.898   4.545   3.466 -2.0965  0.4541 -0.0205
  836MOL0     H10315   7.685   4.581   3.531  1.0080 -0.1716  0.3222
  836MOL0     H10316   7.343   4.846   3.756 -1.6010  1.3637 -1.9697
  836MOL0     H10317   7.110   4.832   3.857 -2.6833 -2.3684  1.2621
  836MOL0     H10318   6.973   4.788   4.015 -0.2069 -1.1805  0.2727
  836MOL0     H10319   6.835   4.678   4.037 -0.2094  0.7160  0.4469
  836MOL0     H10320   6.793   4.704   3.776 -0.2388  0.2192  0.5567
  836MOL0     H10321   6.911   4.839   3.790  3.0911 -3.2533  0.1606
  836MOL0     H10322   6.652   4.805   3.945 -1.7030  1.1189 -1.2873
  836MOL0     H10323   6.652   4.893   3.790 -1.7022 -1.3488  0.8642
  836MOL0     H10324   6.802   4.947   4.055  0.6852 -2.8765 -1.2080
  836MOL0     H10325   6.809   5.057   3.909 -2.8392  1.0096 -1.6335
  836MOL0     H10326   6.651   5.113   4.099 -2.4539  0.8771  0.8775
  836MOL0     H10327   6.538   4.989   4.026 -0.4233  0.8258  0.1544
  836MOL0     H10328   6.519   5.116   3.821 -2.9326  3.3551 -0.5699
  836MOL0     H10329   6.651   5.223   3.864 -0.1131  0.7824 -1.4615
  836MOL0     H10330   6.406   5.299   3.873 -1.4543  0.6624  1.3121
  836MOL0     H10331   6.375   5.197   4.010 -1.4361  0.8746 -1.5059
  836MOL0     H10332   6.585   5.432   3.999 -0.4473  1.1952  1.2443
  836MOL0     H10333   6.578   5.319   4.132  1.2315 -2.5441 -1.3143
  836MOL0     H10334   7.118   4.404   3.823  3.2764 -1.5501  1.6610
  836MOL0     H10335   7.318   4.421   3.702  0.2600  0.4249 -0.0134
  836MOL0     H10336   7.808   4.646   3.942 -0.4031 -1.0706 -0.2243
  836MOL0     H10337   8.048   4.616   3.863  0.3498  1.2022 -0.7524
  836MOL0     H10338   9.493   4.032   2.374 -0.6016 -0.1955  1.0863
  836MOL0     H10339   9.634   3.921   2.221 -1.0415  1.0711  1.0096
  836MOL0     H10340   9.922   3.833   1.893  0.7256  0.6861  0.6069
  836MOL0     H10341  10.147   3.820   1.774 -0.0056  1.7973  0.5729
  836MOL0     H10342  10.401   3.543   1.962 -0.5182  0.5816 -0.9634
  836MOL0     H10343  10.513   3.670   2.012  1.2026 -1.2787  0.1500
  836MOL0     H10344  10.590   3.478   1.826  0.6809  0.6785  0.1981
  836MOL0     H10345  10.498   3.572   1.721  1.0863 -3.0173 -1.1111
  836MOL0     H10346  10.725   3.692   1.902 -0.3354  1.7675 -0.4462
  836MOL0     H10347  10.634   3.775   1.791 -1.5351  0.7565  4.2636
  836MOL0     H10348  10.808   3.516   1.738 -1.7171 -0.9399 -2.9721
  836MOL0     H10349  10.719   3.592   1.607 -0.7364 -2.1486  0.1307
  836MOL0     H10350  11.061   3.843   1.643  1.0096 -0.5924  2.0399
  836MOL0     H10351  10.320   3.680   2.151 -1.1380  0.0365  1.3246
  836MOL0     H10352  10.109   3.672   2.247 -1.1056  1.9762  1.5507
  837MOL0     O10353   3.897   7.513   0.754 -0.1675 -0.4075 -0.2858
  837MOL0     C10354   3.951   7.426   0.688 -0.0376  0.5843  0.0748
  837MOL0     O10355   3.888   7.343   0.589  0.4709  0.0426  0.6761
  837MOL0     C10356   3.760   7.333   0.619  0.2285 -0.1032 -0.2595
  837MOL0     C10357   3.714   7.200   0.655 -0.6375 -0.9939 -0.3301
  837MOL0     C10358   3.581   7.178   0.680  0.0508 -0.1070 -0.3011
  837MOL0     C10359   3.489   7.282   0.645 -0.2109 -0.4173  0.0053
  837MOL0     O10360   3.359   7.263   0.679  0.2582  0.7986  0.4204
  837MOL0     C10361   3.306   7.132   0.650  0.4991  0.7417  0.5697
  837MOL0     C10362   3.156   7.144   0.624  1.0233 -1.1828 -0.3593
  837MOL0     C10363   3.094   7.018   0.559  0.1720 -0.5523  0.1822
  837MOL0     C10364   2.943   7.047   0.538 -0.0265  0.1231 -0.2715
  837MOL0     C10365   2.876   6.917   0.485  0.9293 -0.0367 -0.2990
  837MOL0     C10366   2.871   6.809   0.583  0.7030 -0.2215 -0.5571
  837MOL0     C10367   2.792   6.688   0.527  0.5625 -0.4738  0.2394
  837MOL0     C10368   2.794   6.579   0.636 -0.5263  0.2133 -0.1629
  837MOL0     N10369   2.698   6.478   0.595 -0.1716 -0.5100 -0.2248
  837MOL0     C10370   2.557   6.484   0.603  0.6029  0.4663 -0.1832
  837MOL0     C10371   2.515   6.373   0.545  0.3214 -0.7688 -0.9552
  837MOL0     C10372   2.374   6.326   0.532 -0.2200  0.2941 -0.4796
  837MOL0     C10373   2.262   6.425   0.502  0.3602 -0.4953  0.2068
  837MOL0     C10374   2.132   6.365   0.449  0.0880  0.2401 -1.1148
  837MOL0     C10375   2.022   6.466   0.411 -0.8516  0.4776 -0.0663
  837MOL0     O10376   1.915   6.383   0.376 -0.8501  0.3201  0.1857
  837MOL0     C10377   1.788   6.422   0.381 -0.7544 -0.6301 -0.5411
  837MOL0     C10378   1.759   6.551   0.390  0.2987 -0.4292  0.6364
  837MOL0     C10379   1.625   6.587   0.425 -0.4550  0.5429 -0.4205
  837MOL0     C10380   1.521   6.494   0.448  0.0566 -0.0602 -0.5343
  837MOL0     C10381   1.386   6.539   0.493  0.3473 -0.0303  0.0737
  837MOL0     O10382   1.376   6.667   0.524  0.1966  0.5303 -0.1022
  837MOL0     C10383   1.252   6.716   0.561 -0.1690 -0.1832 -0.4667
  837MOL0     C10384   1.180   6.668   0.672  0.5234  0.2409  0.3267
  837MOL0     C10385   1.064   6.726   0.719  0.2371  0.6291 -0.2039
  837MOL0     C10386   1.007   6.837   0.650 -0.7600 -0.4248 -0.7394
  837MOL0     O10387   0.888   6.898   0.686  0.2280 -0.1028 -0.4226
  837MOL0     C10388   0.781   6.805   0.721  0.1955 -0.5179 -0.2237
  837MOL0     C10389   0.634   6.854   0.689  0.0700 -0.0266 -0.2430
  837MOL0     C10390   0.598   6.996   0.757 -0.0450  0.3942  0.3582
  837MOL0     C10391   0.466   7.050   0.711  0.4321  0.6771 -0.0211
  837MOL0     C10392   0.449   7.189   0.788  0.8383 -0.1261  0.4538
  837MOL0     C10393   0.300   7.232   0.790 -0.0729 -0.0564  0.1692
  837MOL0     C10394   0.281   7.371   0.841  0.1950 -0.4639 -0.6239
  837MOL0     C10395   0.207   7.455   0.736 -0.6481 -0.7045 -0.2303
  837MOL0    Cl10396   0.151   7.608   0.819  0.1992 -0.5079 -0.3442
  837MOL0     C10397   1.079   6.883   0.537 -0.2454  0.1988  0.5483
  837MOL0     C10398   1.200   6.830   0.502  0.0065 -0.8836 -0.2234
  837MOL0     O10399   1.297   6.456   0.496  0.0302 -0.1758 -0.3615
  837MOL0     C10400   1.551   6.360   0.413 -0.1931 -1.0716  0.6595
  837MOL0     C10401   1.685   6.329   0.378  0.2209  0.2396 -0.5603
  837MOL0     N10402   2.624   6.301   0.504  0.5398  0.2947  0.4165
  837MOL0     N10403   2.730   6.369   0.520 -0.1366 -0.1059 -0.1765
  837MOL0     C10404   3.532   7.399   0.593  0.1676  0.5139 -0.0013
  837MOL0     C10405   3.668   7.434   0.586 -0.4832 -0.2367 -0.6964
  837MOL0     C10406   4.098   7.419   0.706 -0.0675 -0.4465 -0.3778
  837MOL0     C10407   4.171   7.305   0.668  0.1726  0.3134 -0.1669
  837MOL0     C10408   4.311   7.314   0.690 -0.4603 -0.0048  0.9024
  837MOL0     C10409   4.382   7.423   0.744 -0.6292 -0.0161  0.3156
  837MOL0     O10410   4.516   7.426   0.770  0.0198  0.1639  0.3156
  837MOL0     C10411   4.609   7.316   0.752  0.2244  0.0818 -0.2258
  837MOL0     C10412   4.652   7.282   0.610  0.0936  0.0727  0.1815
  837MOL0     C10413   4.763   7.364   0.553 -0.1884  0.4086 -0.1620
  837MOL0     C10414   4.902   7.328   0.603  0.8021 -0.0677  0.0861
  837MOL0     C10415   4.987   7.449   0.633  0.1372 -0.7539  0.0886
  837MOL0     C10416   5.050   7.547   0.663 -1.2219  0.3625 -0.6240
  837MOL0     C10417   4.304   7.535   0.759 -0.4207  0.4822 -0.6706
  837MOL0     C10418   4.167   7.537   0.742 -0.7031  0.4116  0.1801
  837MOL0     H10419   3.788   7.121   0.665  0.1821  0.0667  4.2801
  837MOL0     H10420   3.544   7.084   0.720 -0.8030 -0.7396 -2.4409
  837MOL0     H10421   3.325   7.072   0.739 -0.2623  0.2571  0.4156
  837MOL0     H10422   3.351   7.100   0.555 -1.1106  1.4878 -0.4946
  837MOL0     H10423   3.135   7.238   0.573 -0.4369 -2.1246 -1.5721
  837MOL0     H10424   3.108   7.163   0.720 -2.4484 -0.3325 -2.1231
  837MOL0     H10425   3.110   6.933   0.625 -0.0633 -1.0443 -0.3829
  837MOL0     H10426   3.151   7.001   0.467  1.2834  0.2515  0.6983
  837MOL0     H10427   2.885   7.081   0.624 -2.0115 -1.4346 -0.9339
  837MOL0     H10428   2.951   7.125   0.462  2.4861  0.0452 -0.1816
  837MOL0     H10429   2.931   6.873   0.401  1.5431 -0.0811  0.1226
  837MOL0     H10430   2.775   6.935   0.448  0.1080 -2.6868  0.4265
  837MOL0     H10431   2.835   6.847   0.680 -0.0363  0.1829 -0.9803
  837MOL0     H10432   2.972   6.772   0.602  1.3954  1.0154 -1.6547
  837MOL0     H10433   2.692   6.723   0.499  0.7453  0.5481  0.8237
  837MOL0     H10434   2.839   6.652   0.436  0.1627  0.9371 -0.5465
  837MOL0     H10435   2.761   6.616   0.733  0.6579  1.6613 -0.2740
  837MOL0     H10436   2.895   6.546   0.660 -0.6002  1.2254  1.7355
  837MOL0     H10437   2.503   6.572   0.637  0.4032  0.3302 -0.1465
  837MOL0     H10438   2.348   6.271   0.623  1.9772  0.0340  0.0434
  837MOL0     H10439   2.377   6.255   0.449 -1.6233  0.3613 -0.6155
  837MOL0     H10440   2.295   6.507   0.438 -2.0770 -0.2140 -0.8070
  837MOL0     H10441   2.232   6.461   0.600  1.6176  0.2498  0.3398
  837MOL0     H10442   2.158   6.310   0.358  0.2928  0.2509 -1.0634
  837MOL0     H10443   2.090   6.287   0.515  1.6635 -2.6028 -3.2409
  837MOL0     H10444   2.057   6.515   0.319 -0.4868  0.3554  0.0070
  837MOL0     H10445   2.007   6.545   0.485  0.3792  0.4150  0.2689
  837MOL0     H10446   1.830   6.631   0.375 -2.6003  2.0365 -0.9292
  837MOL0     H10447   1.615   6.693   0.446  3.2872  1.4939 -2.4815
  837MOL0     H10448   1.221   6.578   0.718 -0.9026 -0.5025  0.2020
  837MOL0     H10449   1.011   6.677   0.800 -0.2257  1.7572  0.1809
  837MOL0     H10450   0.784   6.797   0.830  0.7126  1.8443 -0.0022
  837MOL0     H10451   0.804   6.707   0.679 -2.3835 -1.2468 -0.1059
  837MOL0     H10452   0.564   6.776   0.721 -1.1600  0.9518 -0.4688
  837MOL0     H10453   0.611   6.855   0.582  0.4947 -0.0880 -0.3371
  837MOL0     H10454   0.679   7.064   0.729 -0.3562  0.5136 -0.2750
  837MOL0     H10455   0.590   6.990   0.866 -0.0823  0.2462  0.3474
  837MOL0     H10456   0.482   7.073   0.606  0.0382  2.4789  0.2702
  837MOL0     H10457   0.385   6.980   0.732  0.3449  0.3077 -1.4835
  837MOL0     H10458   0.504   7.263   0.729 -0.4706 -0.2574 -1.0182
  837MOL0     H10459   0.474   7.191   0.894 -2.2407  0.1608  1.2839
  837MOL0     H10460   0.244   7.151   0.839 -2.4337  0.4573 -1.4766
  837MOL0     H10461   0.262   7.223   0.688 -1.9649  0.4654  0.7695
  837MOL0     H10462   0.225   7.367   0.935  2.7653  2.4802  1.2136
  837MOL0     H10463   0.375   7.417   0.871 -0.5700  0.0831  1.1069
  837MOL0     H10464   0.126   7.397   0.690 -1.7747  1.6684 -1.3948
  837MOL0     H10465   0.278   7.489   0.661 -2.5068  0.9384 -1.3305
  837MOL0     H10466   1.029   6.965   0.486 -1.2083 -1.9745 -2.2096
  837MOL0     H10467   1.248   6.888   0.425  0.9429 -0.7411  0.4477
  837MOL0     H10468   1.474   6.284   0.413 -0.5196 -0.7527  0.2955
  837MOL0     H10469   1.718   6.226   0.366  4.0331  1.4269 -1.5426
  837MOL0     H10470   3.458   7.472   0.562  0.5951 -0.2587 -3.0914
  837MOL0     H10471   3.717   7.525   0.553  1.3416 -0.4253  1.2632
  837MOL0     H10472   4.117   7.217   0.634 -1.6334  0.4161  2.1666
  837MOL0     H10473   4.368   7.228   0.658 -0.0188  0.5937  0.0216
  837MOL0     H10474   4.562   7.225   0.791  2.6298 -0.9625  0.4301
  837MOL0     H10475   4.704   7.334   0.804  1.1474 -3.1570 -0.5467
  837MOL0     H10476   4.682   7.178   0.595 -1.6985 -0.2373 -1.8768
  837MOL0     H10477   4.564   7.285   0.545  0.0179  1.7110  0.3180
  837MOL0     H10478   4.739   7.461   0.597  2.6213  0.3523  1.7485
  837MOL0     H10479   4.746   7.367   0.445 -0.2406 -0.5088 -0.1867
  837MOL0     H10480   4.888   7.261   0.689 -0.1727 -0.1053 -0.0886
  837MOL0     H10481   4.949   7.266   0.527  1.6925  0.6734  0.0262
  837MOL0     H10482   5.108   7.629   0.701 -1.0300  0.3734 -0.9330
  837MOL0     H10483   4.356   7.623   0.795  0.5952 -0.3339 -0.0758
  837MOL0     H10484   4.121   7.634   0.760  1.0753  1.6118 -1.2889
  838MOL0     O10485   0.879   1.361   4.061  0.4205  0.5869 -0.1517
  838MOL0     C10486   0.931   1.341   4.172  0.4759 -0.0285 -0.0475
  838MOL0     O10487   0.860   1.343   4.292 -0.5751 -0.1206  0.9548
  838MOL0     C10488   0.723   1.353   4.290 -0.0678  0.8195 -0.2033
  838MOL0     C10489   0.655   1.473   4.288  0.4599  0.5189 -0.4230
  838MOL0     C10490   0.517   1.474   4.270 -0.2966 -0.4962 -0.4522
  838MOL0     C10491   0.435   1.353   4.267  0.2318  0.0470 -0.5648
  838MOL0     O10492   0.295   1.365   4.252 -0.5096 -0.6415  0.3427
  838MOL0     C10493   0.222   1.244   4.227 -0.5599  0.3535 -0.1702
  838MOL0     C10494   0.079   1.280   4.244  0.8920  0.0404 -0.7928
  838MOL0     C10495  -0.018   1.151   4.256  0.1771  0.1765 -0.4917
  838MOL0     C10496  -0.169   1.188   4.261  0.4842  0.3154  0.0705
  838MOL0     C10497  -0.241   1.049   4.244  0.0006 -0.0504  0.4257
  838MOL0     C10498  -0.388   1.071   4.231  0.5112 -0.4161  0.7536
  838MOL0     C10499  -0.456   1.121   4.367  0.2843 -0.2314  0.1478
  838MOL0     C10500  -0.467   1.015   4.478  0.3949  0.5332 -0.2592
  838MOL0     N10501  -0.550   1.061   4.593 -0.4945 -0.0946  0.5810
  838MOL0     C10502  -0.685   1.071   4.602  0.4893 -0.0249  0.1244
  838MOL0     C10503  -0.705   1.131   4.719 -0.0834 -0.1224 -0.0951
  838MOL0     C10504  -0.836   1.183   4.768  0.9578 -0.1459 -0.8003
  838MOL0     C10505  -0.913   1.061   4.806  0.5437 -0.4299  0.3342
  838MOL0     C10506  -1.034   1.104   4.885 -0.2339 -0.7212  0.5059
  838MOL0     C10507  -1.142   0.995   4.900  0.8167 -0.5176  0.1383
  838MOL0     O10508  -1.265   1.051   4.951  0.3799 -0.1177  0.0078
  838MOL0     C10509  -1.369   0.965   4.983 -0.3421 -0.9063 -0.3708
  838MOL0     C10510  -1.486   1.022   5.024 -0.4149 -0.1586 -0.1031
  838MOL0     C10511  -1.586   0.945   5.073 -0.2410 -0.8899 -0.4930
  838MOL0     C10512  -1.571   0.806   5.089  0.2217  0.1096 -0.1474
  838MOL0     C10513  -1.690   0.725   5.146 -0.0244  0.5394  0.1265
  838MOL0     O10514  -1.796   0.802   5.181  0.1749 -0.0046  0.0488
  838MOL0     C10515  -1.888   0.754   5.273  0.3864 -0.2683  0.3492
  838MOL0     C10516  -1.872   0.644   5.361  0.5260  0.2106  0.5744
  838MOL0     C10517  -1.975   0.593   5.432  0.4225  0.0171  0.5704
  838MOL0     C10518  -2.107   0.640   5.421 -0.1049  0.3841 -0.4399
  838MOL0     O10519  -2.198   0.573   5.495  1.2717  0.0340 -0.3768
  838MOL0     C10520  -2.342   0.588   5.462  0.1425  0.9246  0.1705
  838MOL0     C10521  -2.434   0.509   5.545  0.2873 -0.1913  0.0957
  838MOL0     C10522  -2.582   0.529   5.509 -0.1248  0.5121  0.0419
  838MOL0     C10523  -2.670   0.435   5.587 -0.2633  0.3767 -0.4615
  838MOL0     C10524  -2.815   0.475   5.582 -0.4186  0.3553 -0.2253
  838MOL0     C10525  -2.889   0.385   5.667 -1.0444  0.2321 -0.5470
  838MOL0     C10526  -3.028   0.438   5.694  0.7699 -0.5242  0.2687
  838MOL0     C10527  -3.039   0.544   5.801  0.6297 -0.1255 -0.4299
  838MOL0    Cl10528  -3.186   0.516   5.904 -0.0626 -0.2142  0.3522
  838MOL0     C10529  -2.115   0.756   5.332 -0.1745  0.6301 -0.0701
  838MOL0     C10530  -2.012   0.809   5.260 -0.1604 -0.7599 -0.1373
  838MOL0     O10531  -1.686   0.601   5.145  0.3905 -0.6269  0.3189
  838MOL0     C10532  -1.455   0.741   5.041 -0.3775 -0.2213  0.4618
  838MOL0     C10533  -1.358   0.825   4.977  0.4093  0.5470 -0.4379
  838MOL0     N10534  -0.587   1.140   4.790 -0.2918  0.4874  0.0143
  838MOL0     N10535  -0.494   1.115   4.707 -0.0032 -0.1788  0.0346
  838MOL0     C10536   0.502   1.233   4.275 -0.3392 -1.2961 -1.1627
  838MOL0     C10537   0.641   1.236   4.276  0.0787  0.6405  0.5974
  838MOL0     C10538   1.077   1.328   4.183  0.4004  0.2598  0.7884
  838MOL0     C10539   1.164   1.367   4.083  0.2609  0.4313 -0.2611
  838MOL0     C10540   1.299   1.341   4.099 -0.0646  0.0526  0.4529
  838MOL0     C10541   1.350   1.288   4.215 -0.6453  0.1179 -0.2001
  838MOL0     O10542   1.486   1.278   4.220  0.7897  0.1069  0.0054
  838MOL0     C10543   1.552   1.257   4.345  0.0968  0.0145 -0.3313
  838MOL0     C10544   1.709   1.268   4.321 -0.1242 -0.6043 -0.1785
  838MOL0     C10545   1.765   1.154   4.224  0.3789 -0.3826 -1.0461
  838MOL0     C10546   1.920   1.147   4.211  0.1425  0.2188  0.4684
  838MOL0     C10547   1.949   1.071   4.090 -0.6571  0.1917 -0.3354
  838MOL0     C10548   2.000   1.016   3.996 -1.2073 -0.6063  0.8681
  838MOL0     C10549   1.262   1.255   4.318 -0.7443 -0.3818  0.7569
  838MOL0     C10550   1.123   1.278   4.304  0.5136 -0.1224 -0.3700
  838MOL0     H10551   0.708   1.568   4.287  1.5638 -0.0845 -0.9610
  838MOL0     H10552   0.449   1.559   4.267 -1.7311 -1.5583  0.5704
  838MOL0     H10553   0.246   1.171   4.304 -1.3991  1.3659  1.0952
  838MOL0     H10554   0.250   1.203   4.129  1.4371  2.4194 -0.5407
  838MOL0     H10555   0.049   1.332   4.153  0.5723 -0.3872 -0.9324
  838MOL0     H10556   0.071   1.352   4.326  1.6594  2.2651 -2.5842
  838MOL0     H10557   0.000   1.110   4.356  3.1589 -0.0891 -1.0489
  838MOL0     H10558  -0.006   1.076   4.178 -3.5913 -0.2063 -0.8747
  838MOL0     H10559  -0.205   1.240   4.351 -3.8402 -1.3895 -0.4428
  838MOL0     H10560  -0.182   1.245   4.168  5.5643  2.9020  0.5575
  838MOL0     H10561  -0.216   0.982   4.326 -0.5370 -0.7901 -0.0015
  838MOL0     H10562  -0.211   0.991   4.156 -0.1929 -1.3096  1.1699
  838MOL0     H10563  -0.432   0.983   4.182  1.6761 -0.0626 -0.9934
  838MOL0     H10564  -0.396   1.154   4.160 -0.4736 -1.3332 -0.2466
  838MOL0     H10565  -0.403   1.210   4.404  2.3201 -0.8385 -1.1133
  838MOL0     H10566  -0.558   1.151   4.341  0.2685  1.5965  2.0556
  838MOL0     H10567  -0.367   0.985   4.509 -0.7402 -5.2548 -1.1106
  838MOL0     H10568  -0.508   0.916   4.455 -0.9221  1.1647 -0.7621
  838MOL0     H10569  -0.759   1.058   4.524  1.1725 -0.6511 -0.4368
  838MOL0     H10570  -0.889   1.238   4.689  0.3332  1.6507  0.7977
  838MOL0     H10571  -0.822   1.253   4.850 -1.5767 -0.4321 -0.0630
  838MOL0     H10572  -0.857   0.993   4.870  0.4031  0.1525  1.0980
  838MOL0     H10573  -0.940   1.009   4.714 -1.4628 -0.1578  0.7073
  838MOL0     H10574  -1.010   1.146   4.983 -1.7057  3.9633 -0.8901
  838MOL0     H10575  -1.076   1.190   4.833 -0.3829 -1.0506  0.0708
  838MOL0     H10576  -1.107   0.906   4.954  1.3062 -2.4548 -3.1220
  838MOL0     H10577  -1.146   0.952   4.800  2.7900  0.7522 -0.5442
  838MOL0     H10578  -1.502   1.127   5.005  0.3120 -0.2694 -1.5082
  838MOL0     H10579  -1.679   0.991   5.105  0.3682 -0.4294  0.6645
  838MOL0     H10580  -1.773   0.608   5.389 -0.8422 -3.4177  1.3028
  838MOL0     H10581  -1.952   0.507   5.494  2.2158 -1.0673 -1.4910
  838MOL0     H10582  -2.366   0.572   5.356 -0.0037  0.9459  0.1994
  838MOL0     H10583  -2.366   0.695   5.471 -1.2485  0.8490 -1.8653
  838MOL0     H10584  -2.418   0.531   5.651  0.0110  0.4401  0.0079
  838MOL0     H10585  -2.404   0.405   5.526  0.8301  0.1187 -0.7968
  838MOL0     H10586  -2.589   0.508   5.402 -0.4327 -0.0672  0.1709
  838MOL0     H10587  -2.618   0.630   5.528 -2.0156 -0.0052 -0.5773
  838MOL0     H10588  -2.658   0.330   5.560  0.1042  0.6560 -1.4099
  838MOL0     H10589  -2.641   0.443   5.692  3.0116  0.6304 -1.2760
  838MOL0     H10590  -2.853   0.471   5.479 -0.0255  0.8065 -0.3905
  838MOL0     H10591  -2.829   0.580   5.609 -0.8716 -0.0198  1.0569
  838MOL0     H10592  -2.842   0.365   5.764 -0.2833 -2.1310 -1.3193
  838MOL0     H10593  -2.898   0.286   5.621  2.4569 -0.2864 -0.3582
  838MOL0     H10594  -3.078   0.472   5.602 -1.0620 -0.3346  1.2946
  838MOL0     H10595  -3.090   0.356   5.732 -0.8420  0.4278 -0.2081
  838MOL0     H10596  -3.035   0.642   5.754  1.8241 -0.0372 -0.1843
  838MOL0     H10597  -2.951   0.533   5.866  1.2107  0.9763 -1.0091
  838MOL0     H10598  -2.212   0.804   5.327 -0.0136  0.9471 -0.1585
  838MOL0     H10599  -2.029   0.890   5.190 -0.1526  1.9267  2.7650
  838MOL0     H10600  -1.442   0.633   5.043 -1.4978 -0.4644 -1.8391
  838MOL0     H10601  -1.267   0.777   4.942  2.1983  2.2572  1.6370
  838MOL0     H10602   0.463   1.131   4.279  0.3779 -1.5422  0.5986
  838MOL0     H10603   0.691   1.139   4.272 -3.3224 -1.2063 -1.7217
  838MOL0     H10604   1.136   1.398   3.983 -1.1053  0.6348  0.1699
  838MOL0     H10605   1.372   1.365   4.022 -0.8106 -0.7240 -0.5256
  838MOL0     H10606   1.521   1.159   4.383 -0.5775  0.1176 -0.5974
  838MOL0     H10607   1.534   1.329   4.425  0.7442  0.8126 -0.8948
  838MOL0     H10608   1.752   1.359   4.279 -0.5230  0.4623  1.6379
  838MOL0     H10609   1.755   1.249   4.419 -0.4243 -1.0100 -0.1163
  838MOL0     H10610   1.717   1.167   4.126 -2.0471  1.6981  0.2824
  838MOL0     H10611   1.735   1.059   4.269 -3.2455  1.2545  0.4268
  838MOL0     H10612   1.959   1.249   4.208  0.4238  0.0848 -1.2796
  838MOL0     H10613   1.971   1.097   4.294  0.0004 -2.3191 -0.8784
  838MOL0     H10614   2.051   0.981   3.908  0.8757  1.3464  1.2051
  838MOL0     H10615   1.284   1.207   4.413 -1.7126 -1.8017  0.2864
  838MOL0     H10616   1.061   1.242   4.386 -0.6985  1.4875 -0.5270
  839MOL0     O10617   0.979  10.920   1.057 -0.1918  0.4585  0.0581
  839MOL0     C10618   0.963  10.858   0.949 -0.1093 -0.1867 -0.2244
  839MOL0     O10619   1.025  10.742   0.913  0.2385 -0.5258  0.2075
  839MOL0     C10620   1.078  10.666   1.016 -0.0491 -0.7026  0.5325
  839MOL0     C10621   0.993  10.583   1.086 -0.3453  0.4723  0.2821
  839MOL0     C10622   1.038  10.512   1.196 -0.4820  0.1331  0.4619
  839MOL0     C10623   1.173  10.533   1.235 -0.5027 -0.2225 -0.3718
  839MOL0     O10624   1.221  10.448   1.326  0.5731  0.3652  0.2836
  839MOL0     C10625   1.193  10.482   1.465  0.1861 -0.4958 -0.4747
  839MOL0     C10626   1.151  10.349   1.548  0.4503 -0.2198 -0.4156
  839MOL0     C10627   1.003  10.350   1.586 -0.5397 -0.7339  0.4035
  839MOL0     C10628   0.962  10.255   1.694 -0.4031  0.0388  0.4488
  839MOL0     C10629   0.814  10.235   1.700 -0.2365  0.0739  0.1206
  839MOL0     C10630   0.782  10.137   1.815 -0.1444 -0.3711 -0.6293
  839MOL0     C10631   0.665  10.053   1.782 -1.0006  0.9145 -0.5630
  839MOL0     C10632   0.540  10.139   1.763 -0.0856 -0.5565  0.0351
  839MOL0     N10633   0.418  10.056   1.771 -0.1286  0.2702  0.2370
  839MOL0     C10634   0.305  10.085   1.842 -0.2447 -0.0079 -0.9985
  839MOL0     C10635   0.224   9.975   1.847 -0.0088 -0.1553  0.1737
  839MOL0     C10636   0.095   9.967   1.921  0.1283 -0.0206  0.0013
  839MOL0     C10637   0.094   9.854   2.029  0.2152  0.0929 -0.2082
  839MOL0     C10638   0.198   9.873   2.137  0.3338 -0.2160  0.4499
  839MOL0     C10639   0.154   9.980   2.240  0.0083  0.2444 -0.1995
  839MOL0     O10640   0.067   9.924   2.340 -0.3832 -0.3679 -1.0150
  839MOL0     C10641  -0.018  10.008   2.407  0.0879  0.4856 -0.1944
  839MOL0     C10642  -0.042  10.143   2.372 -0.0573 -0.1823 -0.7259
  839MOL0     C10643  -0.140  10.224   2.431 -0.4264 -0.3216 -0.3681
  839MOL0     C10644  -0.211  10.171   2.536 -0.1075 -0.2486 -1.1510
  839MOL0     C10645  -0.317  10.252   2.604 -0.0310 -0.4927  0.3924
  839MOL0     O10646  -0.357  10.372   2.556 -0.8556  0.5230  0.3306
  839MOL0     C10647  -0.454  10.439   2.623  0.3342 -0.1020 -0.2089
  839MOL0     C10648  -0.563  10.481   2.554 -0.0189  1.2511  0.3593
  839MOL0     C10649  -0.676  10.524   2.630  0.1363 -0.4541  0.7161
  839MOL0     C10650  -0.669  10.542   2.766  1.0295  0.2883 -0.4284
  839MOL0     O10651  -0.784  10.589   2.826  0.0520 -0.6543 -0.1497
  839MOL0     C10652  -0.794  10.572   2.964 -0.6872 -0.4724 -0.9517
  839MOL0     C10653  -0.936  10.586   3.005  0.0729 -0.6136  0.6082
  839MOL0     C10654  -0.957  10.591   3.158  0.7616  1.1624  0.2657
  839MOL0     C10655  -1.099  10.582   3.215 -0.5981  0.1815  0.1877
  839MOL0     C10656  -1.202  10.682   3.156  0.4107  0.6462  0.3243
  839MOL0     C10657  -1.327  10.670   3.240 -0.1355 -0.7295  0.1155
  839MOL0     C10658  -1.447  10.719   3.157  0.6529 -0.4791 -0.2900
  839MOL0     C10659  -1.581  10.713   3.225  0.0257  0.7083 -0.0535
  839MOL0    Cl10660  -1.715  10.744   3.122 -0.4465 -0.2155  0.1743
  839MOL0     C10661  -0.557  10.508   2.832  0.6290 -0.0116 -0.1146
  839MOL0     C10662  -0.451  10.455   2.762  0.1669  0.1870 -0.1081
  839MOL0     O10663  -0.369  10.197   2.698 -0.5185  0.4410 -0.6690
  839MOL0     C10664  -0.176  10.040   2.585 -0.4383 -0.9227  0.1528
  839MOL0     C10665  -0.081   9.965   2.520 -0.5686  1.3503  0.3209
  839MOL0     N10666   0.284   9.877   1.774  0.4640  0.5952 -0.2245
  839MOL0     N10667   0.399   9.926   1.736 -0.7851  0.4611  0.0737
  839MOL0     C10668   1.255  10.624   1.170 -0.3319  0.0453 -0.6265
  839MOL0     C10669   1.213  10.686   1.053  0.6862  0.5178  0.7436
  839MOL0     C10670   0.871  10.924   0.864 -0.7342  0.1567  0.0689
  839MOL0     C10671   0.883  10.899   0.728 -0.1389 -0.9178  0.5706
  839MOL0     C10672   0.798  10.973   0.645  0.8892 -0.7060  0.4606
  839MOL0     C10673   0.712  11.072   0.688  0.8442 -0.0710  0.0523
  839MOL0     O10674   0.645  11.138   0.587  0.2006  1.2213  0.5851
  839MOL0     C10675   0.554  11.241   0.613  0.3622  0.2722 -0.1655
  839MOL0     C10676   0.534  11.329   0.494  0.1108  0.1983 -0.5866
  839MOL0     C10677   0.443  11.274   0.389  0.0221  0.0178 -0.2915
  839MOL0     C10678   0.431  11.373   0.278  0.0620  0.2929 -0.0624
  839MOL0     C10679   0.337  11.313   0.176 -0.4114  0.7953 -0.2477
  839MOL0     C10680   0.259  11.275   0.091  0.2996 -0.4844  0.0409
  839MOL0     C10681   0.703  11.100   0.825  0.1175  0.0787  0.4447
  839MOL0     C10682   0.775  11.018   0.913  0.0723 -0.2161  0.5990
  839MOL0     H10683   0.895  10.559   1.046  0.5225 -2.6233 -0.2652
  839MOL0     H10684   0.971  10.435   1.234 -2.0678  2.0765  1.8552
  839MOL0     H10685   1.113  10.555   1.479 -1.8901 -2.8847  0.9953
  839MOL0     H10686   1.291  10.516   1.499 -0.2886  1.7081 -1.1904
  839MOL0     H10687   1.216  10.330   1.635  0.3653 -0.8114 -0.4787
  839MOL0     H10688   1.174  10.267   1.480  0.7118 -0.9263  0.4900
  839MOL0     H10689   0.939  10.334   1.499 -1.9572  0.9830  1.0838
  839MOL0     H10690   0.974  10.449   1.622 -0.1420  0.0146 -1.2428
  839MOL0     H10691   1.016  10.161   1.675 -0.2117  0.2893 -0.2896
  839MOL0     H10692   0.999  10.292   1.790  0.3977 -0.4823  0.3502
  839MOL0     H10693   0.789  10.188   1.604  1.9871 -2.4866  0.6940
  839MOL0     H10694   0.767  10.333   1.718 -1.0714 -0.3857  0.4731
  839MOL0     H10695   0.765  10.197   1.904 -0.6849  0.5507 -1.3333
  839MOL0     H10696   0.861  10.063   1.834 -1.1141 -1.0956  0.7122
  839MOL0     H10697   0.698   9.975   1.712  2.9775  0.6369  1.3470
  839MOL0     H10698   0.651   9.990   1.870 -1.2401 -0.1559 -1.3411
  839MOL0     H10699   0.547  10.194   1.669  3.5240  1.7551  1.4411
  839MOL0     H10700   0.534  10.208   1.847 -2.6337 -1.4407  0.6493
  839MOL0     H10701   0.299  10.182   1.890  1.8717 -0.0036 -0.6119
  839MOL0     H10702   0.018   9.943   1.847 -0.5199  1.8702  0.0083
  839MOL0     H10703   0.080  10.068   1.960  3.1630 -0.2457  2.1455
  839MOL0     H10704   0.106   9.755   1.984 -1.1934 -1.4575  2.5755
  839MOL0     H10705  -0.005   9.846   2.074  0.5893 -2.6802  0.2725
  839MOL0     H10706   0.210   9.780   2.195 -0.7624 -1.0998 -0.6948
  839MOL0     H10707   0.297   9.891   2.095  0.4077  0.9099  1.0780
  839MOL0     H10708   0.097  10.054   2.183 -3.3944 -2.1230 -0.1595
  839MOL0     H10709   0.240  10.021   2.293 -0.5490  1.1892 -0.0160
  839MOL0     H10710   0.005  10.194   2.289 -2.2703 -0.4120 -2.2114
  839MOL0     H10711  -0.161  10.326   2.400  0.7724 -0.4922 -1.8759
  839MOL0     H10712  -0.566  10.469   2.446  0.2339  2.7876  0.1564
  839MOL0     H10713  -0.758  10.559   2.568  1.0414  0.8447  0.2057
  839MOL0     H10714  -0.731  10.646   3.013 -0.3959  0.0230 -2.0395
  839MOL0     H10715  -0.766  10.472   2.997 -2.9740 -0.7647  0.3113
  839MOL0     H10716  -0.994  10.505   2.961 -2.6266  1.2772  0.4479
  839MOL0     H10717  -0.973  10.682   2.968  0.7384 -0.4566  0.3166
  839MOL0     H10718  -0.905  10.677   3.201  0.4125  0.2220  2.7582
  839MOL0     H10719  -0.908  10.503   3.203  0.7945  0.0207 -1.8847
  839MOL0     H10720  -1.135  10.484   3.182 -0.7733  1.0116 -2.2365
  839MOL0     H10721  -1.095  10.596   3.324 -0.8864  1.2609  0.0687
  839MOL0     H10722  -1.213  10.666   3.048 -1.1963  3.5503 -0.0375
  839MOL0     H10723  -1.165  10.784   3.169  1.9703  0.1175  0.2383
  839MOL0     H10724  -1.323  10.728   3.333 -1.2829  0.3115 -0.4515
  839MOL0     H10725  -1.347  10.563   3.252 -0.6695 -0.9543 -2.2538
  839MOL0     H10726  -1.430  10.824   3.129 -2.7456 -0.5544 -3.4047
  839MOL0     H10727  -1.457  10.661   3.065  0.1300 -2.5445  1.0062
  839MOL0     H10728  -1.585  10.783   3.309  0.6136  0.7479 -0.0565
  839MOL0     H10729  -1.601  10.619   3.277 -0.7791  1.6549  1.4104
  839MOL0     H10730  -0.549  10.533   2.937 -0.2142  0.4317 -0.1431
  839MOL0     H10731  -0.366  10.423   2.822 -1.2337 -2.5213  0.5659
  839MOL0     H10732  -0.230   9.999   2.669 -1.8313  1.0719  0.3159
  839MOL0     H10733  -0.059   9.862   2.544 -0.5344  1.1089 -0.6906
  839MOL0     H10734   1.358  10.636   1.203  0.9479  1.7806 -4.5149
  839MOL0     H10735   1.274  10.746   0.987 -0.1642  0.0488 -0.5169
  839MOL0     H10736   0.952  10.834   0.676 -2.3869 -1.4228 -2.0431
  839MOL0     H10737   0.798  10.959   0.537 -0.3265  1.0972  0.1817
  839MOL0     H10738   0.596  11.307   0.689  1.4626  1.1821 -1.5278
  839MOL0     H10739   0.458  11.202   0.649  0.1541 -0.1608 -1.1717
  839MOL0     H10740   0.496  11.424   0.534  1.2000 -0.0513  1.1611
  839MOL0     H10741   0.628  11.352   0.444 -0.2389 -1.0567 -1.8952
  839MOL0     H10742   0.348  11.243   0.433  0.9702 -0.7774  1.2988
  839MOL0     H10743   0.493  11.185   0.350 -1.0667  0.0599 -1.8476
  839MOL0     H10744   0.379  11.459   0.319 -0.7489 -0.5819  0.7967
  839MOL0     H10745   0.526  11.404   0.232 -0.3835 -0.1792 -1.3453
  839MOL0     H10746   0.188  11.233   0.022 -1.9144 -0.3674  2.0953
  839MOL0     H10747   0.635  11.176   0.860 -0.8455 -0.3665 -0.4059
  839MOL0     H10748   0.759  11.047   1.016 -0.3255  2.0331 -0.0329
  840MOL0     O10749   1.375   5.745   3.510 -0.4407 -0.3137 -0.2176
  840MOL0     C10750   1.398   5.853   3.565 -0.7023 -0.2151  0.3420
  840MOL0     O10751   1.307   5.937   3.619  0.4133 -0.1522 -0.0363
  840MOL0     C10752   1.170   5.931   3.595  0.6693  0.8803  0.5133
  840MOL0     C10753   1.112   5.866   3.488  0.4738 -0.1090  0.5217
  840MOL0     C10754   0.971   5.864   3.481 -0.4134 -0.5107 -0.1844
  840MOL0     C10755   0.893   5.937   3.575  0.5488 -0.3333  0.3010
  840MOL0     O10756   0.757   5.918   3.589 -0.4050  0.3811 -0.4185
  840MOL0     C10757   0.671   5.965   3.477 -0.8123  0.8624  0.1898
  840MOL0     C10758   0.523   5.972   3.515 -0.3674  0.2339  0.3354
  840MOL0     C10759   0.440   6.025   3.394 -0.3306  0.1137  0.5108
  840MOL0     C10760   0.290   6.016   3.437 -0.5111  0.5848  0.5666
  840MOL0     C10761   0.183   6.075   3.341 -0.7345 -0.0360  0.6058
  840MOL0     C10762   0.050   6.005   3.363  0.6687 -0.2488 -0.6078
  840MOL0     C10763  -0.006   6.000   3.508  0.2862  0.3743 -0.2708
  840MOL0     C10764  -0.158   5.995   3.501 -0.6695  0.0615  0.4327
  840MOL0     N10765  -0.222   6.100   3.423 -0.2413 -0.4450  0.0625
  840MOL0     C10766  -0.308   6.088   3.317 -0.0893 -0.6218 -0.9409
  840MOL0     C10767  -0.364   6.213   3.281 -0.3098  0.9793 -0.7835
  840MOL0     C10768  -0.468   6.235   3.174 -0.4196 -0.0409  0.5655
  840MOL0     C10769  -0.608   6.249   3.229  0.3097  0.0263 -0.0646
  840MOL0     C10770  -0.719   6.226   3.119  0.2583  0.4491  0.6762
  840MOL0     C10771  -0.855   6.284   3.151 -0.1396 -0.2433  0.8937
  840MOL0     O10772  -0.949   6.192   3.217  0.2775 -0.6277 -0.3617
  840MOL0     C10773  -1.072   6.251   3.248 -0.5344 -1.1078 -1.0755
  840MOL0     C10774  -1.174   6.170   3.290  0.8963 -0.0364  0.2972
  840MOL0     C10775  -1.294   6.217   3.347  0.4594 -0.2804  0.8494
  840MOL0     C10776  -1.311   6.356   3.356  1.1899  0.3650 -0.1651
  840MOL0     C10777  -1.442   6.409   3.405  0.1965  0.4528  0.1952
  840MOL0     O10778  -1.544   6.326   3.457 -0.1110 -0.1673 -0.2873
  840MOL0     C10779  -1.656   6.395   3.501 -0.3637  0.0682 -0.0438
  840MOL0     C10780  -1.747   6.444   3.410 -0.3514  0.2792  0.0649
  840MOL0     C10781  -1.863   6.500   3.450  0.3464  0.2284  0.5661
  840MOL0     C10782  -1.898   6.519   3.583  0.8939  0.2765  0.0594
  840MOL0     O10783  -2.033   6.563   3.619 -0.1598  0.2070 -0.4843
  840MOL0     C10784  -2.078   6.580   3.752 -0.5881  0.4923 -0.1676
  840MOL0     C10785  -2.232   6.577   3.747 -0.0055 -0.4203 -0.4756
  840MOL0     C10786  -2.277   6.711   3.667 -0.1312  0.1603  0.0743
  840MOL0     C10787  -2.420   6.739   3.697  0.2876 -0.1718 -0.0702
  840MOL0     C10788  -2.493   6.848   3.617  0.9579 -0.9152 -0.1624
  840MOL0     C10789  -2.455   6.991   3.676  0.7079  0.7201  0.6634
  840MOL0     C10790  -2.540   7.027   3.793 -0.2829 -0.2210 -0.5829
  840MOL0     C10791  -2.479   7.157   3.847 -0.1617 -0.4826 -0.1539
  840MOL0    Cl10792  -2.578   7.231   3.982 -0.5570  0.1839 -0.4486
  840MOL0     C10793  -1.805   6.478   3.679  0.2559  0.4066  0.0657
  840MOL0     C10794  -1.680   6.414   3.633  0.0199  0.9891  0.2707
  840MOL0     O10795  -1.448   6.530   3.391 -0.1601  0.7129 -0.4669
  840MOL0     C10796  -1.209   6.442   3.312 -0.3728  0.5252 -0.3329
  840MOL0     C10797  -1.091   6.389   3.259  0.1463 -0.4487  0.2806
  840MOL0     N10798  -0.309   6.300   3.375  0.2080 -0.3297 -0.1581
  840MOL0     N10799  -0.230   6.230   3.454 -0.1283 -0.3347 -0.0756
  840MOL0     C10800   0.953   6.011   3.680  0.7120 -0.0097  0.2166
  840MOL0     C10801   1.088   6.008   3.690 -0.8794  0.2616  0.3544
  840MOL0     C10802   1.541   5.899   3.555 -0.5466  0.3819 -0.4394
  840MOL0     C10803   1.646   5.815   3.508 -0.1994  0.6925 -0.5388
  840MOL0     C10804   1.775   5.876   3.504  0.3935 -0.6687 -0.7659
  840MOL0     C10805   1.814   6.003   3.555 -0.2975  0.1370  0.3309
  840MOL0     O10806   1.946   6.045   3.548  0.3939 -0.0079  0.0611
  840MOL0     C10807   1.985   6.123   3.658 -0.6101  0.4210  0.2092
  840MOL0     C10808   2.138   6.149   3.654  0.9975  0.2285  0.2203
  840MOL0     C10809   2.187   6.224   3.536 -0.4805 -0.1573  1.1291
  840MOL0     C10810   2.338   6.251   3.536  0.5451 -0.6487 -1.1313
  840MOL0     C10811   2.367   6.355   3.638 -0.8113  0.5102 -0.0905
  840MOL0     C10812   2.401   6.451   3.711 -0.0636 -0.0107 -0.3002
  840MOL0     C10813   1.709   6.081   3.596  0.4372  0.5616  0.3885
  840MOL0     C10814   1.580   6.027   3.595  1.1748  0.7175 -0.5730
  840MOL0     H10815   1.169   5.814   3.412 -0.9505  0.5227 -1.0401
  840MOL0     H10816   0.905   5.807   3.416 -0.7109 -0.2500 -0.1139
  840MOL0     H10817   0.666   5.878   3.410  4.5109  0.2260  0.1336
  840MOL0     H10818   0.710   6.049   3.420 -3.4837  1.4046 -0.9844
  840MOL0     H10819   0.522   6.045   3.597 -2.3192 -0.7220  1.2189
  840MOL0     H10820   0.490   5.873   3.546  1.2836 -0.1608  0.9655
  840MOL0     H10821   0.459   5.960   3.308 -1.2842 -0.6334  0.8410
  840MOL0     H10822   0.465   6.128   3.367 -1.0105 -0.4617 -2.7163
  840MOL0     H10823   0.270   5.909   3.452  3.2332 -0.3363 -0.0487
  840MOL0     H10824   0.282   6.051   3.540 -0.9451 -0.5221  0.9326
  840MOL0     H10825   0.211   6.071   3.236  0.3155  1.8023  0.7781
  840MOL0     H10826   0.183   6.184   3.347  0.8764  0.3291 -3.1529
  840MOL0     H10827   0.044   5.904   3.321  0.4093 -0.8999  0.9198
  840MOL0     H10828  -0.014   6.069   3.301 -4.0721 -3.0703  0.8764
  840MOL0     H10829   0.035   5.918   3.568 -1.7280  0.4320  1.2927
  840MOL0     H10830   0.034   6.088   3.559 -1.2105  1.1990 -0.4484
  840MOL0     H10831  -0.195   6.002   3.604 -1.6785  0.3183  0.0565
  840MOL0     H10832  -0.193   5.899   3.462 -0.1488 -1.0895  2.6263
  840MOL0     H10833  -0.335   5.994   3.269 -2.0125  1.7478 -5.0197
  840MOL0     H10834  -0.454   6.148   3.110  1.2691 -0.0050  0.8400
  840MOL0     H10835  -0.453   6.329   3.120  1.0699 -1.7320 -2.1396
  840MOL0     H10836  -0.624   6.344   3.281 -2.4225 -1.1347  1.4427
  840MOL0     H10837  -0.634   6.167   3.296 -0.2005 -0.2799 -0.6305
  840MOL0     H10838  -0.688   6.282   3.031 -0.0139 -1.4967 -0.7263
  840MOL0     H10839  -0.720   6.123   3.083  0.5063  1.0841 -1.2612
  840MOL0     H10840  -0.893   6.316   3.053 -2.4154 -3.0875  0.7388
  840MOL0     H10841  -0.848   6.372   3.216 -0.0158 -0.4482  1.1582
  840MOL0     H10842  -1.169   6.062   3.283 -0.8689 -0.2744  2.0139
  840MOL0     H10843  -1.376   6.153   3.377  1.1976 -1.1494  1.0474
  840MOL0     H10844  -1.733   6.430   3.303 -0.4655  0.5537  0.0124
  840MOL0     H10845  -1.931   6.542   3.377  1.5771 -1.5318 -1.6930
  840MOL0     H10846  -2.042   6.675   3.793 -1.1448  1.4525 -1.8099
  840MOL0     H10847  -2.044   6.498   3.817  2.1716 -1.8954 -4.1738
  840MOL0     H10848  -2.273   6.581   3.849  3.1676  2.1804  0.8956
  840MOL0     H10849  -2.263   6.487   3.694 -0.1095 -1.3425  1.0852
  840MOL0     H10850  -2.263   6.704   3.559  2.6984  1.5644  0.2768
  840MOL0     H10851  -2.219   6.798   3.696 -0.7588  1.4752 -2.3419
  840MOL0     H10852  -2.478   6.647   3.680 -0.1241  0.2549 -1.0165
  840MOL0     H10853  -2.434   6.758   3.804  2.4793  0.9852  0.0620
  840MOL0     H10854  -2.601   6.839   3.630  0.6051  3.2086  1.3971
  840MOL0     H10855  -2.456   6.842   3.514  0.8787 -0.5997 -0.2080
  840MOL0     H10856  -2.485   7.068   3.603 -1.0906 -0.0519  0.5437
  840MOL0     H10857  -2.347   6.986   3.690  1.0276 -0.3694 -1.7432
  840MOL0     H10858  -2.644   7.052   3.769 -0.0166  3.0650  1.2022
  840MOL0     H10859  -2.530   6.952   3.872 -0.1560  0.5284  0.1254
  840MOL0     H10860  -2.468   7.233   3.769  3.2860  0.3096  0.9277
  840MOL0     H10861  -2.381   7.130   3.888 -0.0576 -1.8487 -1.2113
  840MOL0     H10862  -1.824   6.490   3.785  2.0688 -0.1336  0.4866
  840MOL0     H10863  -1.599   6.386   3.700  1.5641  0.7227 -1.6240
  840MOL0     H10864  -1.219   6.548   3.336 -1.1683  0.3672  0.0666
  840MOL0     H10865  -1.029   6.472   3.229 -1.6981  0.2056 -2.0875
  840MOL0     H10866   0.892   6.058   3.756 -0.7496 -2.5030  0.7174
  840MOL0     H10867   1.140   6.062   3.768  1.3516  0.2651 -1.0501
  840MOL0     H10868   1.631   5.715   3.469  1.3188  0.7760 -1.4285
  840MOL0     H10869   1.858   5.808   3.486  1.6203 -0.6200  3.6144
  840MOL0     H10870   1.966   6.062   3.746  0.6617 -2.1689 -1.1855
  840MOL0     H10871   1.926   6.215   3.659  0.9927  1.4938 -0.0664
  840MOL0     H10872   2.163   6.191   3.752  0.4986 -2.8038  1.7830
  840MOL0     H10873   2.195   6.055   3.654  0.0745 -0.3848  2.2690
  840MOL0     H10874   2.135   6.319   3.516 -2.0236 -1.2362 -0.2374
  840MOL0     H10875   2.165   6.165   3.447  0.2089 -1.1622  1.6117
  840MOL0     H10876   2.404   6.164   3.546  0.8337 -0.5162 -1.8608
  840MOL0     H10877   2.356   6.296   3.439  1.4292  0.4818 -0.4612
  840MOL0     H10878   2.419   6.532   3.779  0.9006  0.0942 -0.6673
  840MOL0     H10879   1.717   6.184   3.631  1.0697  1.2671 -1.6824
  840MOL0     H10880   1.508   6.100   3.630  2.2499  0.5094  2.4552
  841MOL0     O10881   2.276   2.126   7.011  0.4291 -0.0997  0.2707
  841MOL0     C10882   2.167   2.152   7.049  0.8514  0.8292  0.4218
  841MOL0     O10883   2.112   2.131   7.174 -0.1805 -0.6464 -0.1436
  841MOL0     C10884   2.194   2.072   7.266 -1.4211  0.5240 -0.0466
  841MOL0     C10885   2.322   2.118   7.298 -1.3321 -0.1478 -0.9674
  841MOL0     C10886   2.416   2.036   7.367 -0.2609 -0.0798  0.9049
  841MOL0     C10887   2.380   1.917   7.426  0.0236 -0.5877 -0.1472
  841MOL0     O10888   2.477   1.853   7.496 -0.5475 -0.1146 -0.7756
  841MOL0     C10889   2.439   1.807   7.627  0.1682 -0.3599  0.0986
  841MOL0     C10890   2.548   1.857   7.719 -1.5410 -0.1679 -0.0152
  841MOL0     C10891   2.562   1.777   7.846  0.2362  0.1440 -0.3125
  841MOL0     C10892   2.616   1.636   7.824  0.1523  0.5728 -0.2189
  841MOL0     C10893   2.740   1.614   7.910 -0.4371 -0.2654 -0.7256
  841MOL0     C10894   2.783   1.467   7.915 -0.1138 -0.4862 -0.9025
  841MOL0     C10895   2.907   1.455   8.014 -0.4142 -0.0407  0.3560
  841MOL0     C10896   2.972   1.317   8.011 -1.0084 -0.1527  0.1157
  841MOL0     N10897   3.099   1.301   8.086 -0.0998  0.3393 -0.2577
  841MOL0     C10898   3.190   1.395   8.117 -0.3546 -0.4742 -1.3505
  841MOL0     C10899   3.298   1.322   8.172  0.1881  0.3908  0.7410
  841MOL0     C10900   3.432   1.367   8.214  0.2574  0.4741 -0.3376
  841MOL0     C10901   3.452   1.362   8.368 -0.4185 -0.2491 -0.0904
  841MOL0     C10902   3.351   1.440   8.455  0.6872 -0.3569  0.1772
  841MOL0     C10903   3.347   1.587   8.413  0.2751  0.7206 -0.3933
  841MOL0     O10904   3.242   1.618   8.319  0.7167 -0.3925 -0.1361
  841MOL0     C10905   3.113   1.634   8.362 -0.5844 -0.5327  1.0409
  841MOL0     C10906   3.059   1.610   8.488 -1.0119 -0.5833  0.4691
  841MOL0     C10907   2.920   1.631   8.510 -0.3030 -0.4137 -0.0332
  841MOL0     C10908   2.831   1.675   8.413 -0.3158 -0.2942 -0.3671
  841MOL0     C10909   2.694   1.702   8.453  0.7257 -1.1429  0.2107
  841MOL0     O10910   2.673   1.716   8.585 -0.3462  0.1909  0.9354
  841MOL0     C10911   2.551   1.766   8.627  1.1501  0.0222 -0.1848
  841MOL0     C10912   2.506   1.896   8.627 -0.0575  0.1829  0.3757
  841MOL0     C10913   2.381   1.934   8.680 -0.3188  0.2619  0.2735
  841MOL0     C10914   2.310   1.840   8.759  0.2744 -1.1688  0.6407
  841MOL0     O10915   2.184   1.870   8.807  0.3839  0.1936 -0.0260
  841MOL0     C10916   2.112   1.987   8.766 -0.3949 -0.9925  0.9295
  841MOL0     C10917   1.963   1.956   8.765 -1.1079  0.6815 -0.0104
  841MOL0     C10918   1.900   1.926   8.899 -0.1327  0.4918  0.3601
  841MOL0     C10919   1.755   1.940   8.900  1.1524 -0.0347  0.0305
  841MOL0     C10920   1.693   1.906   9.043 -0.3536 -0.2613  0.8074
  841MOL0     C10921   1.546   1.935   9.063  0.4521 -0.5308 -0.2740
  841MOL0     C10922   1.509   1.908   9.211 -0.6596  1.0517  0.8304
  841MOL0     C10923   1.363   1.924   9.230  0.6487 -0.1529  0.5594
  841MOL0    Cl10924   1.265   1.887   9.078 -0.6537  0.2335  0.4528
  841MOL0     C10925   2.358   1.711   8.774  0.6320  0.5676  0.7372
  841MOL0     C10926   2.479   1.673   8.701  1.0782  0.3124 -0.0382
  841MOL0     O10927   2.608   1.712   8.371 -0.8896 -0.0184  0.4350
  841MOL0     C10928   2.885   1.693   8.284 -1.1345 -0.3435  0.5041
  841MOL0     C10929   3.026   1.674   8.257 -0.1458  0.4114 -0.5632
  841MOL0     N10930   3.262   1.191   8.173  0.3833  0.3138  0.3540
  841MOL0     N10931   3.148   1.180   8.125  0.9564 -0.2884  0.5782
  841MOL0     C10932   2.244   1.877   7.406  0.2382 -0.0950  0.6307
  841MOL0     C10933   2.155   1.945   7.324  0.1191 -0.4772  0.1093
  841MOL0     C10934   2.073   2.209   6.944  0.7151  0.1589 -0.5461
  841MOL0     C10935   1.942   2.237   6.979 -0.6543 -0.5947  0.4581
  841MOL0     C10936   1.853   2.266   6.877  0.7365 -1.0081 -0.1144
  841MOL0     C10937   1.885   2.274   6.738 -1.1615  0.4345  0.1994
  841MOL0     O10938   1.796   2.304   6.633 -1.1506  0.4012 -0.4793
  841MOL0     C10939   1.671   2.349   6.665 -0.1101  0.3096 -0.3942
  841MOL0     C10940   1.591   2.324   6.545 -0.6822 -0.8423  0.5423
  841MOL0     C10941   1.465   2.408   6.547  0.1815  0.0945 -0.4966
  841MOL0     C10942   1.383   2.390   6.678  0.7701 -0.0787 -0.2122
  841MOL0     C10943   1.244   2.438   6.665  0.0568  0.0186  0.1799
  841MOL0     C10944   1.129   2.474   6.644 -0.2327  0.5144  0.2222
  841MOL0     C10945   2.016   2.249   6.706  0.1076  0.7485  0.3882
  841MOL0     C10946   2.107   2.222   6.811  0.4960  0.5325 -0.3406
  841MOL0     H10947   2.351   2.222   7.284  0.3167  0.4275  4.4739
  841MOL0     H10948   2.513   2.082   7.381  0.0768 -0.0930 -1.1172
  841MOL0     H10949   2.428   1.698   7.616 -1.0065 -0.2117 -0.3657
  841MOL0     H10950   2.343   1.843   7.664  0.9780  3.0490 -0.7531
  841MOL0     H10951   2.525   1.962   7.742  0.1306  0.4651 -1.0836
  841MOL0     H10952   2.638   1.845   7.659 -1.4837  2.8143 -0.6916
  841MOL0     H10953   2.472   1.773   7.909 -0.2903 -1.0284 -1.1111
  841MOL0     H10954   2.639   1.832   7.901  1.5271 -2.5401  0.7580
  841MOL0     H10955   2.548   1.557   7.856  1.3387  0.1256  1.3363
  841MOL0     H10956   2.658   1.627   7.723 -0.1788  0.0589 -0.3099
  841MOL0     H10957   2.716   1.637   8.015 -0.9103 -1.9981 -0.4241
  841MOL0     H10958   2.831   1.666   7.880 -0.3195 -0.7978 -1.2975
  841MOL0     H10959   2.804   1.428   7.815 -1.9492 -3.6432 -0.2145
  841MOL0     H10960   2.693   1.408   7.935 -0.6631  0.7074  0.2656
  841MOL0     H10961   2.978   1.533   7.984  0.9360 -1.4872 -0.3313
  841MOL0     H10962   2.879   1.483   8.116 -3.7629  0.9442 -0.7108
  841MOL0     H10963   2.979   1.279   7.909 -1.2644 -0.5010  0.2266
  841MOL0     H10964   2.900   1.245   8.053 -0.4585 -0.4400  0.5784
  841MOL0     H10965   3.188   1.502   8.099 -2.1943 -0.0657  0.8772
  841MOL0     H10966   3.457   1.468   8.180 -3.4586  1.8679  0.6187
  841MOL0     H10967   3.506   1.303   8.166  0.7512  0.7728  0.0112
  841MOL0     H10968   3.553   1.399   8.387 -0.5006  0.2442 -0.5846
  841MOL0     H10969   3.454   1.257   8.400 -0.6261  0.7733  3.8609
  841MOL0     H10970   3.253   1.395   8.435  1.4513 -2.0252 -0.0169
  841MOL0     H10971   3.380   1.426   8.560  1.5829  1.0297  0.1446
  841MOL0     H10972   3.447   1.609   8.374 -0.1917  1.6873 -1.0946
  841MOL0     H10973   3.346   1.659   8.495  0.9697  0.0188  0.2488
  841MOL0     H10974   3.124   1.577   8.568  0.1181 -3.6050 -1.5089
  841MOL0     H10975   2.889   1.603   8.610 -0.7486  2.2542  0.6648
  841MOL0     H10976   2.573   1.967   8.580 -0.4861  1.1373  1.1485
  841MOL0     H10977   2.343   2.034   8.663 -0.7837  0.0812  0.2238
  841MOL0     H10978   2.125   2.006   8.659  3.1584 -0.4732  1.3528
  841MOL0     H10979   2.139   2.075   8.825  1.0605 -2.3646  2.4002
  841MOL0     H10980   1.936   1.876   8.695 -3.0197 -0.4131  1.8680
  841MOL0     H10981   1.903   2.034   8.717  0.4906  1.4132 -0.8774
  841MOL0     H10982   1.955   2.000   8.958  1.2825 -0.5602  0.4219
  841MOL0     H10983   1.927   1.824   8.928 -0.1237  0.0694 -1.0536
  841MOL0     H10984   1.734   2.044   8.871  1.1359 -0.2395 -0.7031
  841MOL0     H10985   1.713   1.872   8.826  1.2359  0.8596 -0.8723
  841MOL0     H10986   1.735   1.974   9.117 -3.2678  3.6112 -0.7623
  841MOL0     H10987   1.711   1.803   9.077 -1.6801  0.6569  4.8240
  841MOL0     H10988   1.496   1.867   8.994  1.8078 -0.3183 -1.5000
  841MOL0     H10989   1.532   2.041   9.041  1.4960 -0.1941  0.5598
  841MOL0     H10990   1.541   1.806   9.235  3.1849  1.0287 -2.9404
  841MOL0     H10991   1.574   1.971   9.273  1.0538 -0.6540  0.8698
  841MOL0     H10992   1.334   2.024   9.262 -1.5601 -0.2645 -0.8926
  841MOL0     H10993   1.323   1.853   9.304 -1.7757  1.0722  0.5231
  841MOL0     H10994   2.303   1.639   8.833  0.1008  0.4745  0.1449
  841MOL0     H10995   2.504   1.568   8.709 -1.2980 -0.2717  0.4177
  841MOL0     H10996   2.819   1.736   8.208  1.0706  1.3721 -0.5642
  841MOL0     H10997   3.056   1.687   8.153  2.1581  1.4872  0.1731
  841MOL0     H10998   2.220   1.774   7.431 -0.9770  0.3804  1.4942
  841MOL0     H10999   2.058   1.903   7.296 -0.9225  1.3621  0.7943
  841MOL0     H11000   1.904   2.236   7.080  0.0496  0.5662  0.7585
  841MOL0     H11001   1.752   2.290   6.911  1.5010  1.9666  0.3765
  841MOL0     H11002   1.681   2.457   6.682 -3.2390  0.8622 -1.4442
  841MOL0     H11003   1.627   2.307   6.755 -3.5137  0.4575 -1.8340
  841MOL0     H11004   1.654   2.356   6.461  2.1727 -3.6197  1.4385
  841MOL0     H11005   1.566   2.219   6.531 -1.2327 -0.4873 -1.4839
  841MOL0     H11006   1.400   2.373   6.466 -0.4792 -1.1427  0.5264
  841MOL0     H11007   1.482   2.515   6.534  2.5151  0.0126  1.2277
  841MOL0     H11008   1.387   2.285   6.708 -0.1999  0.4650  2.0090
  841MOL0     H11009   1.426   2.453   6.756 -2.2361  0.4798  1.1518
  841MOL0     H11010   1.033   2.518   6.624 -1.3072 -0.5066  2.6736
  841MOL0     H11011   2.050   2.250   6.603 -0.0547  1.3515  0.3371
  841MOL0     H11012   2.210   2.203   6.784  0.6248 -1.6269  1.4531
  842MOL0     O11013   2.787   4.170   6.264  0.7989  0.1021  0.2683
  842MOL0     C11014   2.714   4.074   6.234  0.0164 -0.5216 -0.2715
  842MOL0     O11015   2.578   4.080   6.210 -0.3069 -0.3649  0.0149
  842MOL0     C11016   2.492   4.190   6.229  0.1211 -0.6303  0.7426
  842MOL0     C11017   2.361   4.167   6.191  0.3470 -0.6943 -0.0826
  842MOL0     C11018   2.259   4.263   6.227 -0.2017 -0.3210 -0.3463
  842MOL0     C11019   2.287   4.381   6.299 -0.7995 -0.4176  0.1038
  842MOL0     O11020   2.184   4.467   6.342 -0.1386  0.6846  0.6701
  842MOL0     C11021   2.226   4.590   6.396 -0.4755 -0.2540 -0.4311
  842MOL0     C11022   2.099   4.669   6.447  0.5215 -0.0323 -0.4606
  842MOL0     C11023   2.152   4.800   6.518 -1.1009  0.2806 -0.1286
  842MOL0     C11024   2.054   4.864   6.601  0.9719 -0.0566 -0.3148
  842MOL0     C11025   1.943   4.935   6.513  0.4005  0.5145 -0.3055
  842MOL0     C11026   1.824   4.973   6.608 -0.7358 -0.0970  1.2618
  842MOL0     C11027   1.719   5.064   6.537  0.6744 -0.2997  1.0133
  842MOL0     C11028   1.644   4.983   6.435 -0.2181  0.0307 -0.8226
  842MOL0     N11029   1.592   5.074   6.335  0.2648 -0.2670  0.1461
  842MOL0     C11030   1.654   5.108   6.219 -0.4057  0.7174 -0.2167
  842MOL0     C11031   1.595   5.226   6.176 -0.4206 -0.2399  0.0732
  842MOL0     C11032   1.628   5.303   6.057  0.1381  0.4875  0.8997
  842MOL0     C11033   1.740   5.409   6.084  0.5615  0.3462  0.2986
  842MOL0     C11034   1.870   5.349   6.128  0.6333  0.4801  0.2003
  842MOL0     C11035   1.936   5.240   6.043 -1.1040  0.1524  0.0406
  842MOL0     O11036   1.985   5.305   5.927 -0.0768  0.1883  0.3653
  842MOL0     C11037   2.101   5.252   5.878  0.5187  0.0530  0.3535
  842MOL0     C11038   2.188   5.337   5.807 -0.1898 -0.1904 -0.1612
  842MOL0     C11039   2.318   5.302   5.766 -0.2032  0.3254  0.9299
  842MOL0     C11040   2.367   5.172   5.789  0.3057 -0.4863  0.4532
  842MOL0     C11041   2.510   5.144   5.759  0.9015  0.1523  0.1962
  842MOL0     O11042   2.543   5.013   5.748 -0.9369 -0.0760 -0.2182
  842MOL0     C11043   2.678   4.981   5.731 -0.6223  0.6361 -1.0241
  842MOL0     C11044   2.727   4.882   5.810 -1.1365  0.4890 -0.3925
  842MOL0     C11045   2.870   4.854   5.815  0.6355  0.4212  0.1081
  842MOL0     C11046   2.955   4.915   5.725  0.9336  0.1860 -0.1157
  842MOL0     O11047   3.089   4.888   5.750 -0.4540 -1.0272 -0.0308
  842MOL0     C11048   3.187   4.946   5.661 -0.5494  0.5528  1.2414
  842MOL0     C11049   3.323   4.903   5.715  0.5103 -0.1112  0.2745
  842MOL0     C11050   3.438   4.981   5.650  0.3535  0.8342 -0.5581
  842MOL0     C11051   3.566   4.971   5.722 -1.4040  0.3154 -0.3188
  842MOL0     C11052   3.677   5.046   5.647  0.2030  0.7037 -0.1990
  842MOL0     C11053   3.669   5.193   5.661 -0.4610  0.1920  0.6529
  842MOL0     C11054   3.767   5.256   5.563 -0.8687  0.1792 -0.4193
  842MOL0     C11055   3.880   5.330   5.638 -0.1768  0.7197 -0.4381
  842MOL0    Cl11056   3.828   5.473   5.726 -0.1828 -0.1703 -0.0478
  842MOL0     C11057   2.896   4.997   5.634  0.0906 -1.0995  0.4282
  842MOL0     C11058   2.762   5.037   5.637 -0.4053  0.4820  0.7723
  842MOL0     O11059   2.588   5.237   5.760 -0.4981  0.1816 -0.5583
  842MOL0     C11060   2.277   5.077   5.851  0.3535  0.1085  0.3575
  842MOL0     C11061   2.153   5.126   5.898  0.3208 -0.4977  0.7915
  842MOL0     N11062   1.489   5.254   6.259 -0.9335 -0.2835  0.2984
  842MOL0     N11063   1.486   5.163   6.347  1.0088 -0.0999 -0.2203
  842MOL0     C11064   2.423   4.401   6.325 -0.7349  0.1702 -0.1832
  842MOL0     C11065   2.522   4.308   6.294 -0.3004 -0.6657 -0.2925
  842MOL0     C11066   2.767   3.937   6.220  0.2830  0.4578 -0.0489
  842MOL0     C11067   2.687   3.824   6.223 -0.4844  0.2307  1.1225
  842MOL0     C11068   2.750   3.699   6.247  0.2838 -0.3877 -0.2429
  842MOL0     C11069   2.891   3.687   6.263 -0.1314 -0.2435 -0.1343
  842MOL0     O11070   2.945   3.564   6.294  0.0833  0.1089  0.0822
  842MOL0     C11071   2.887   3.484   6.393  0.3242  0.1523 -0.1337
  842MOL0     C11072   2.886   3.347   6.348  0.3066  0.7449 -0.0871
  842MOL0     C11073   2.813   3.270   6.465 -0.0539  0.1233  0.4468
  842MOL0     C11074   2.793   3.120   6.439  0.1891  0.0953  0.8789
  842MOL0     C11075   2.691   3.093   6.335 -1.3293  0.1963 -0.3935
  842MOL0     C11076   2.609   3.064   6.246 -0.9702  0.9099 -0.5658
  842MOL0     C11077   2.973   3.799   6.233  0.1944  0.7356  0.8026
  842MOL0     C11078   2.903   3.923   6.221 -0.0662 -0.0690  0.0453
  842MOL0     H11079   2.319   4.078   6.147 -0.1006 -0.2548 -0.5612
  842MOL0     H11080   2.161   4.244   6.186  0.0267 -2.2871 -0.0817
  842MOL0     H11081   2.279   4.648   6.320  1.3944 -0.0350  0.9886
  842MOL0     H11082   2.287   4.580   6.486 -2.3722  0.3473  1.0032
  842MOL0     H11083   2.048   4.604   6.519  1.5573  0.3870  0.6879
  842MOL0     H11084   2.044   4.693   6.356  2.3995  1.7249 -1.1942
  842MOL0     H11085   2.204   4.874   6.457 -0.5752 -1.1266 -1.4687
  842MOL0     H11086   2.229   4.763   6.586 -0.9984  1.4711  0.4179
  842MOL0     H11087   2.002   4.793   6.667 -0.2322  1.3510  0.3013
  842MOL0     H11088   2.105   4.937   6.665 -0.0744  2.2722 -2.0051
  842MOL0     H11089   1.909   4.861   6.440  0.7642  0.9397 -0.9156
  842MOL0     H11090   1.974   5.026   6.461 -3.2119  2.8690  1.3292
  842MOL0     H11091   1.869   5.027   6.692 -0.7487  2.3335 -0.1995
  842MOL0     H11092   1.780   4.881   6.647  0.3198 -0.9915  0.4268
  842MOL0     H11093   1.647   5.115   6.602 -1.1317  0.5848 -1.4881
  842MOL0     H11094   1.762   5.155   6.494 -3.2141  2.4788  2.4305
  842MOL0     H11095   1.569   4.927   6.492  1.7705 -0.2261  1.7256
  842MOL0     H11096   1.720   4.917   6.393  1.4035  0.1752  1.7461
  842MOL0     H11097   1.745   5.060   6.187  0.0529 -1.6567  3.8906
  842MOL0     H11098   1.528   5.343   6.037 -0.5674 -1.7298 -0.3133
  842MOL0     H11099   1.647   5.245   5.966 -2.1324  1.6685 -0.4269
  842MOL0     H11100   1.708   5.477   6.163 -1.9231 -0.1105 -0.2448
  842MOL0     H11101   1.754   5.481   6.003 -1.4694  1.1382  0.6025
  842MOL0     H11102   1.941   5.432   6.127  2.2705 -0.8762 -0.0729
  842MOL0     H11103   1.857   5.309   6.229 -1.5983 -2.0270 -0.9343
  842MOL0     H11104   1.868   5.157   6.022 -0.1068 -0.6701  0.0137
  842MOL0     H11105   2.013   5.194   6.105 -2.1343 -0.3101  1.0129
  842MOL0     H11106   2.154   5.440   5.797  1.3128  0.3117 -0.4001
  842MOL0     H11107   2.379   5.380   5.721 -0.8559  0.3157 -0.0226
  842MOL0     H11108   2.668   4.836   5.889  1.7541  2.4547  3.2088
  842MOL0     H11109   2.904   4.792   5.897 -1.3468 -0.1917  0.5392
  842MOL0     H11110   3.192   5.055   5.664  0.2992  0.6674 -1.5629
  842MOL0     H11111   3.171   4.911   5.559  0.9180  2.4458  0.2994
  842MOL0     H11112   3.341   4.797   5.699  1.5063 -0.0310  0.8187
  842MOL0     H11113   3.319   4.924   5.823 -1.1273  0.0856  0.2030
  842MOL0     H11114   3.408   5.085   5.633 -0.6156  0.8656  1.0251
  842MOL0     H11115   3.444   4.936   5.551  4.1515 -3.0859  1.1257
  842MOL0     H11116   3.563   5.004   5.827 -1.4208  0.4551 -0.3625
  842MOL0     H11117   3.592   4.865   5.713  1.5457  1.0372 -1.7433
  842MOL0     H11118   3.656   5.033   5.540 -3.2969  1.3841  0.2777
  842MOL0     H11119   3.777   5.017   5.681  0.0294  1.5796  1.1402
  842MOL0     H11120   3.694   5.222   5.763 -0.3900  0.2286  0.6258
  842MOL0     H11121   3.573   5.242   5.638 -1.8918 -1.4473  2.7587
  842MOL0     H11122   3.810   5.178   5.499 -1.9793 -0.3244 -0.5834
  842MOL0     H11123   3.726   5.328   5.492 -0.0382  1.5801  0.4832
  842MOL0     H11124   3.957   5.357   5.566  1.1260 -0.0605  0.6275
  842MOL0     H11125   3.928   5.250   5.695  0.0489  0.3567 -1.1161
  842MOL0     H11126   2.948   5.055   5.559 -3.6615 -1.5101 -2.8406
  842MOL0     H11127   2.727   5.112   5.566  2.5553  3.2991  1.9962
  842MOL0     H11128   2.303   4.974   5.875 -2.1345 -1.0181 -1.2639
  842MOL0     H11129   2.090   5.048   5.938  0.1475 -0.2324  1.0374
  842MOL0     H11130   2.458   4.491   6.375  2.6690 -1.9854  1.7286
  842MOL0     H11131   2.621   4.319   6.336 -0.5173 -0.7363  0.2386
  842MOL0     H11132   2.579   3.828   6.226 -0.6270 -2.0394  0.9411
  842MOL0     H11133   2.678   3.618   6.259 -0.6494  0.4223 -0.2939
  842MOL0     H11134   2.790   3.519   6.430  1.6488  2.0968  1.7093
  842MOL0     H11135   2.952   3.493   6.480  1.1261  0.1220 -0.7105
  842MOL0     H11136   2.825   3.342   6.258  1.4044  3.0962 -1.0358
  842MOL0     H11137   2.986   3.303   6.340  0.7022  0.3203  4.4038
  842MOL0     H11138   2.719   3.321   6.490  0.4808  2.5571 -1.9266
  842MOL0     H11139   2.882   3.280   6.548  0.4285 -0.2497  0.0927
  842MOL0     H11140   2.879   3.071   6.393  0.1827 -1.4470  2.4103
  842MOL0     H11141   2.766   3.069   6.532  0.9683 -1.8847  0.0632
  842MOL0     H11142   2.544   3.044   6.164  0.9648  0.3836 -2.0651
  842MOL0     H11143   3.081   3.787   6.237  0.1935 -0.4684 -1.2428
  842MOL0     H11144   2.961   4.015   6.214 -2.4740  1.6222  0.9219
  843MOL0     O11145   2.029   4.280  10.840 -0.0962  0.7129 -0.5385
  843MOL0     C11146   2.097   4.238  10.745  0.4389 -0.6965  0.2860
  843MOL0     O11147   2.040   4.206  10.620 -0.4074 -0.1554  0.1506
  843MOL0     C11148   1.908   4.247  10.595  0.2768  0.3746  0.3880
  843MOL0     C11149   1.878   4.378  10.577 -0.4988 -0.3925  0.3367
  843MOL0     C11150   1.747   4.409  10.540  0.3981  0.3335 -0.0361
  843MOL0     C11151   1.646   4.314  10.536 -0.0048  0.3385  0.3846
  843MOL0     O11152   1.521   4.349  10.494 -0.7109 -0.8203 -0.9175
  843MOL0     C11153   1.497   4.334  10.357  0.0712  0.4895  0.3242
  843MOL0     C11154   1.375   4.418  10.323 -0.1866 -0.6117  0.2901
  843MOL0     C11155   1.248   4.372  10.377 -0.6407  0.1909  0.4806
  843MOL0     C11156   1.135   4.473  10.331  0.2643  0.3554 -0.2532
  843MOL0     C11157   1.002   4.404  10.350 -0.4562 -0.8282  0.1463
  843MOL0     C11158   0.892   4.509  10.363 -0.5507  0.5073  0.4842
  843MOL0     C11159   0.756   4.451  10.369 -0.1789 -0.7280  0.1987
  843MOL0     C11160   0.696   4.435  10.225 -0.0133 -0.5753  0.0108
  843MOL0     N11161   0.570   4.363  10.212  0.2172 -0.2690  0.6693
  843MOL0     C11162   0.551   4.235  10.170 -0.1845 -0.5149 -0.9208
  843MOL0     C11163   0.417   4.220  10.166 -0.1683 -0.1667 -0.1666
  843MOL0     C11164   0.344   4.099  10.136  0.3655  0.4364 -0.0901
  843MOL0     C11165   0.259   4.042  10.251 -0.0493 -0.0371 -0.3026
  843MOL0     C11166   0.337   4.070  10.386  0.3177  0.5034  0.8779
  843MOL0     C11167   0.273   3.989  10.509 -0.1354  0.0242  0.0199
  843MOL0     O11168   0.166   4.075  10.549  0.4068 -0.1943  0.0601
  843MOL0     C11169   0.042   4.030  10.546  0.1087  0.7411 -0.3607
  843MOL0     C11170  -0.004   3.911  10.490  0.3262  0.3432  0.0581
  843MOL0     C11171  -0.143   3.889  10.474 -0.4017  0.3583  0.2074
  843MOL0     C11172  -0.233   3.973  10.546 -0.3339  0.2902  0.0318
  843MOL0     C11173  -0.365   3.919  10.565  0.6401 -0.1793 -0.3445
  843MOL0     O11174  -0.454   4.016  10.625 -0.2709  0.3916 -0.0509
  843MOL0     C11175  -0.578   3.964  10.648  0.0065  0.3811 -0.5117
  843MOL0     C11176  -0.690   3.998  10.574  0.3967 -0.3501 -0.7607
  843MOL0     C11177  -0.817   3.962  10.622 -0.0334  0.6461 -0.0313
  843MOL0     C11178  -0.830   3.902  10.747  0.0037 -1.6774 -0.1277
  843MOL0     O11179  -0.952   3.887  10.799 -0.0699  0.3829 -0.4289
  843MOL0     C11180  -0.967   3.895  10.942 -0.4551  0.3505  0.8920
  843MOL0     C11181  -1.117   3.887  10.954 -0.5988  0.8581 -0.1975
  843MOL0     C11182  -1.159   3.915  11.101 -0.6614 -0.2370  0.8697
  843MOL0     C11183  -1.305   3.955  11.112  0.5420  0.5662 -0.2481
  843MOL0     C11184  -1.361   3.940  11.258 -0.5675  0.6547 -0.1050
  843MOL0     C11185  -1.510   3.991  11.279  0.1804 -0.6306 -0.6878
  843MOL0     C11186  -1.558   4.122  11.206 -0.5604  0.1620 -0.3282
  843MOL0     C11187  -1.697   4.177  11.260  0.6345 -0.4023 -0.8185
  843MOL0    Cl11188  -1.844   4.080  11.220 -0.2201 -0.0234  0.0657
  843MOL0     C11189  -0.713   3.883  10.822  0.1508 -0.1212 -1.1580
  843MOL0     C11190  -0.592   3.899  10.772  0.0664  0.2403  0.0262
  843MOL0     O11191  -0.394   3.808  10.526 -0.1521  0.8625  0.5481
  843MOL0     C11192  -0.183   4.097  10.607 -0.4833 -0.5407  0.4349
  843MOL0     C11193  -0.048   4.115  10.604 -0.7470 -0.1621  0.4167
  843MOL0     N11194   0.355   4.339  10.219 -0.3658  0.3942 -0.3439
  843MOL0     N11195   0.450   4.424  10.233  0.3024  0.1288 -0.2266
  843MOL0     C11196   1.682   4.179  10.559 -0.1018 -0.0783  0.1199
  843MOL0     C11197   1.810   4.149  10.585  0.2043 -0.2060  0.4768
  843MOL0     C11198   2.243   4.214  10.763 -0.1749  0.5570  1.2748
  843MOL0     C11199   2.331   4.221  10.663 -0.7445 -0.6937  2.2063
  843MOL0     C11200   2.471   4.195  10.667  0.2209  0.1679 -0.0156
  843MOL0     C11201   2.523   4.161  10.798  0.2553 -0.8639  0.8290
  843MOL0     O11202   2.654   4.133  10.823  0.4402 -0.4407 -0.2435
  843MOL0     C11203   2.752   4.157  10.726 -0.0183  0.5037 -0.6814
  843MOL0     C11204   2.763   4.038  10.628  0.2174  0.9777 -0.1037
  843MOL0     C11205   2.801   3.906  10.702 -0.4708 -0.4600  0.0157
  843MOL0     C11206   2.786   3.778  10.617  0.9446 -0.2987  0.1552
  843MOL0     C11207   2.906   3.761  10.537  0.1061  0.7485  0.2420
  843MOL0     C11208   3.000   3.745  10.462  0.3368  0.3463 -1.3445
  843MOL0     C11209   2.436   4.176  10.908  0.1599 -0.1864 -0.6676
  843MOL0     C11210   2.296   4.193  10.889 -0.0974 -0.7515 -0.1919
  843MOL0     H11211   1.952   4.458  10.570  1.0420 -1.9217 -2.1923
  843MOL0     H11212   1.715   4.507  10.505  1.6463  1.0445  0.7357
  843MOL0     H11213   1.469   4.230  10.339  2.9536 -0.4819  1.0043
  843MOL0     H11214   1.592   4.359  10.309  1.3042  1.7572  3.1919
  843MOL0     H11215   1.348   4.421  10.217 -4.5007 -2.6969  1.0989
  843MOL0     H11216   1.365   4.521  10.359  0.1872 -0.2587 -0.5956
  843MOL0     H11217   1.250   4.368  10.486  0.4440 -3.0417  0.4338
  843MOL0     H11218   1.222   4.274  10.337  0.8598 -1.2640  2.8615
  843MOL0     H11219   1.134   4.566  10.388  1.0212  0.0359  0.2994
  843MOL0     H11220   1.142   4.503  10.226 -2.7661  0.2742 -0.5490
  843MOL0     H11221   1.004   4.350  10.445  0.4217  0.1544  0.7083
  843MOL0     H11222   0.996   4.323  10.278 -1.0603 -0.5238 -0.1527
  843MOL0     H11223   0.906   4.580  10.281 -1.1533 -0.3103 -0.3474
  843MOL0     H11224   0.906   4.568  10.454  0.5211  1.4188 -0.2500
  843MOL0     H11225   0.753   4.358  10.425  0.4922 -1.1714 -0.4821
  843MOL0     H11226   0.693   4.523  10.423  0.5109 -0.2642  0.3947
  843MOL0     H11227   0.756   4.373  10.157  1.4173 -1.1284  1.6833
  843MOL0     H11228   0.676   4.541  10.205 -1.2773 -0.7526  0.3001
  843MOL0     H11229   0.623   4.168  10.125 -2.6167 -1.5876 -3.5506
  843MOL0     H11230   0.422   4.025  10.116  1.5483  1.7642 -0.5239
  843MOL0     H11231   0.282   4.117  10.048 -0.1490  1.4854  0.4678
  843MOL0     H11232   0.249   3.933  10.242 -0.5994 -0.0682  0.5072
  843MOL0     H11233   0.158   4.081  10.265 -0.6852 -1.7686  0.2562
  843MOL0     H11234   0.437   4.027  10.377  0.3534 -0.1369  3.4937
  843MOL0     H11235   0.358   4.174  10.410 -0.1376  0.2788  2.3602
  843MOL0     H11236   0.345   3.993  10.592 -0.6068  3.3920  0.4093
  843MOL0     H11237   0.238   3.891  10.477  1.0332 -0.0133 -1.2067
  843MOL0     H11238   0.052   3.836  10.434  1.7414  1.8474 -0.6162
  843MOL0     H11239  -0.182   3.809  10.412 -1.2961  1.4459 -0.6694
  843MOL0     H11240  -0.671   4.053  10.482 -1.5174  0.1338 -0.9015
  843MOL0     H11241  -0.905   3.974  10.559 -0.0622 -2.5595 -0.7987
  843MOL0     H11242  -0.924   3.981  10.994  1.7375 -0.7348  0.9891
  843MOL0     H11243  -0.924   3.804  10.985 -0.5747  0.4254  1.1702
  843MOL0     H11244  -1.161   3.794  10.917  0.1612  0.0049  0.9795
  843MOL0     H11245  -1.154   3.962  10.883  0.0690  1.0011 -0.4000
  843MOL0     H11246  -1.090   3.997  11.124  3.1580 -1.2188 -4.9673
  843MOL0     H11247  -1.145   3.827  11.165 -1.4723 -0.9445  0.0854
  843MOL0     H11248  -1.306   4.058  11.075  2.2586  0.3446 -1.0266
  843MOL0     H11249  -1.363   3.888  11.048  1.9698 -0.0414 -0.9530
  843MOL0     H11250  -1.292   3.996  11.323 -0.0351 -2.3776  2.1983
  843MOL0     H11251  -1.350   3.834  11.285  1.6689  1.0953  0.9408
  843MOL0     H11252  -1.528   3.994  11.387  0.5536  1.4218 -0.6457
  843MOL0     H11253  -1.581   3.917  11.241 -0.1073 -0.7938  0.1575
  843MOL0     H11254  -1.486   4.203  11.221 -0.5752 -0.2876  2.8663
  843MOL0     H11255  -1.566   4.101  11.099  0.6691  1.3750 -0.6975
  843MOL0     H11256  -1.703   4.277  11.217  1.4488 -0.1727 -0.4262
  843MOL0     H11257  -1.704   4.180  11.370 -3.0405  0.3229 -0.9486
  843MOL0     H11258  -0.716   3.835  10.919  0.0473 -2.5012 -2.2684
  843MOL0     H11259  -0.505   3.874  10.833  1.6316  0.1422 -2.1315
  843MOL0     H11260  -0.237   4.176  10.660  3.1258  1.6714  1.1539
  843MOL0     H11261  -0.015   4.211  10.640 -3.2993  1.7309 -1.8695
  843MOL0     H11262   1.602   4.105  10.552  0.1302 -0.2223 -1.4120
  843MOL0     H11263   1.837   4.045  10.601  1.5885 -0.7742 -4.0803
  843MOL0     H11264   2.294   4.238  10.562  2.5851  0.7451  1.0812
  843MOL0     H11265   2.537   4.216  10.584 -0.7638  0.8257 -0.6525
  843MOL0     H11266   2.847   4.157  10.781  0.8074  1.6269 -2.0372
  843MOL0     H11267   2.743   4.251  10.672  0.5599  1.4490  0.7805
  843MOL0     H11268   2.668   4.026  10.574  0.0783  2.5963 -0.2604
  843MOL0     H11269   2.850   4.060  10.566  1.3351 -3.2895 -0.3647
  843MOL0     H11270   2.727   3.895  10.782  0.4787  2.3026  1.4190
  843MOL0     H11271   2.898   3.922  10.751 -0.8858  0.7588  0.4758
  843MOL0     H11272   2.783   3.693  10.686  2.6869  0.3285  1.0562
  843MOL0     H11273   2.694   3.782  10.559 -0.2624 -1.0234  1.9464
  843MOL0     H11274   3.089   3.740  10.402  0.4850  2.2331 -1.3411
  843MOL0     H11275   2.484   4.164  11.005 -0.3737 -0.3377 -0.4209
  843MOL0     H11276   2.233   4.215  10.974 -0.6961 -1.8044 -0.3526
  844MOL0     O11277   9.755   0.246   4.213  0.2314  0.2625  0.1179
  844MOL0     C11278   9.825   0.158   4.253 -0.3289 -0.2172 -0.7890
  844MOL0     O11279   9.805   0.068   4.357 -0.6101 -0.4999  0.0515
  844MOL0     C11280   9.687   0.050   4.427 -0.9149  0.4468 -0.4248
  844MOL0     C11281   9.553   0.090   4.389 -0.4090 -1.2239 -0.7203
  844MOL0     C11282   9.439   0.071   4.467  0.0437 -0.4436 -0.5408
  844MOL0     C11283   9.457   0.013   4.604 -0.0091 -0.0407  0.8556
  844MOL0     O11284   9.358  -0.001   4.697 -0.9181  0.0904 -0.2099
  844MOL0     C11285   9.225   0.013   4.659 -0.3758 -0.5034  0.0081
  844MOL0     C11286   9.187  -0.110   4.579 -0.8054  0.7186  0.1014
  844MOL0     C11287   9.040  -0.154   4.582 -0.1261  0.3199  0.0953
  844MOL0     C11288   8.941  -0.036   4.549 -0.2229  0.2870 -0.1154
  844MOL0     C11289   8.805  -0.093   4.490 -0.4399 -0.5621 -0.1559
  844MOL0     C11290   8.733  -0.190   4.575 -0.1741  0.1810 -0.6088
  844MOL0     C11291   8.598  -0.240   4.506  0.2548 -0.1637  0.0850
  844MOL0     C11292   8.552  -0.374   4.566 -0.0051 -0.2263 -0.6839
  844MOL0     N11293   8.441  -0.438   4.499 -0.7546  0.9331  0.0874
  844MOL0     C11294   8.391  -0.411   4.370 -0.1736 -0.2729  0.1232
  844MOL0     C11295   8.274  -0.470   4.359 -0.0675  0.0814 -0.3788
  844MOL0     C11296   8.173  -0.440   4.253  0.1985 -0.5189  0.4460
  844MOL0     C11297   8.135  -0.300   4.206  0.0401 -0.6066 -0.1515
  844MOL0     C11298   8.045  -0.294   4.082 -0.9473 -0.1472 -0.5245
  844MOL0     C11299   7.901  -0.283   4.120 -0.1238 -0.8477  0.9478
  844MOL0     O11300   7.868  -0.389   4.212 -0.6765 -0.6196  0.2610
  844MOL0     C11301   7.739  -0.423   4.250  1.1970  0.1552  0.0322
  844MOL0     C11302   7.735  -0.511   4.353  0.4088  0.1086  0.5865
  844MOL0     C11303   7.615  -0.558   4.405 -0.8620  0.5278  0.0269
  844MOL0     C11304   7.488  -0.519   4.352  0.2884  0.4418 -0.2115
  844MOL0     C11305   7.359  -0.571   4.403 -0.0810 -0.9843  0.1470
  844MOL0     O11306   7.241  -0.547   4.324 -0.0992  0.1966 -0.1219
  844MOL0     C11307   7.132  -0.625   4.332  0.3071  0.3413 -0.2225
  844MOL0     C11308   7.111  -0.733   4.433  0.5793 -0.3199  1.1209
  844MOL0     C11309   6.984  -0.792   4.447  0.1301 -0.3769  0.1915
  844MOL0     C11310   6.877  -0.755   4.363  0.7935  0.4489 -0.1918
  844MOL0     O11311   6.750  -0.802   4.369 -0.0458 -1.1101  0.3043
  844MOL0     C11312   6.728  -0.909   4.464 -0.8249 -0.1697 -0.3017
  844MOL0     C11313   6.581  -0.953   4.449 -0.7633  0.1133 -0.2431
  844MOL0     C11314   6.572  -1.047   4.316  0.5627 -0.0466 -0.7028
  844MOL0     C11315   6.426  -1.088   4.305  0.3616  0.1264  0.3491
  844MOL0     C11316   6.414  -1.191   4.192 -0.1516  0.2015  0.2941
  844MOL0     C11317   6.272  -1.246   4.172 -0.1410  0.4864  1.1178
  844MOL0     C11318   6.185  -1.147   4.096 -0.9096 -0.6911  0.2079
  844MOL0     C11319   6.049  -1.201   4.048 -0.2721  0.1444 -0.0249
  844MOL0    Cl11320   6.066  -1.305   3.904 -0.0854 -0.4223 -0.1160
  844MOL0     C11321   6.895  -0.662   4.263  0.4364 -0.0693 -0.7896
  844MOL0     C11322   7.019  -0.597   4.250 -0.3084  0.4626 -0.2586
  844MOL0     O11323   7.370  -0.644   4.505 -0.1927  0.1242  0.5196
  844MOL0     C11324   7.490  -0.418   4.249 -0.2890  0.3809  0.4801
  844MOL0     C11325   7.617  -0.377   4.199  0.1487  0.7121 -0.6027
  844MOL0     N11326   8.249  -0.541   4.474  0.0366  0.6234  0.1940
  844MOL0     N11327   8.342  -0.510   4.562 -0.4168 -0.1540 -0.4149
  844MOL0     C11328   9.589  -0.029   4.637 -0.1670  0.1304 -0.3708
  844MOL0     C11329   9.701  -0.018   4.547 -0.0856  0.2676  0.0809
  844MOL0     C11330   9.963   0.148   4.192 -0.0891 -0.3602  0.9014
  844MOL0     C11331   9.987   0.205   4.061 -0.3435  1.0296 -0.3620
  844MOL0     C11332  10.114   0.199   4.011  0.0749  0.8166 -1.0197
  844MOL0     C11333  10.222   0.131   4.075  0.6238 -0.1034  0.1442
  844MOL0     O11334  10.352   0.134   4.044  0.5647 -0.4638  0.8742
  844MOL0     C11335  10.397   0.222   3.936  0.3219 -0.3615 -0.1166
  844MOL0     C11336  10.528   0.168   3.865  0.3341 -0.3182  0.1043
  844MOL0     C11337  10.604   0.272   3.792  0.1920  0.2516  0.0884
  844MOL0     C11338  10.542   0.332   3.667  0.2407 -0.0361 -0.2400
  844MOL0     C11339  10.607   0.456   3.622 -0.3014 -1.0182 -0.5426
  844MOL0     C11340  10.648   0.571   3.587 -0.0704  0.8354  0.8043
  844MOL0     C11341  10.198   0.073   4.192  0.9367  0.3734 -0.1956
  844MOL0     C11342  10.072   0.081   4.254 -0.1318 -0.3140 -0.0624
  844MOL0     H11343   9.531   0.130   4.290 -1.8622 -0.4773 -0.1237
  844MOL0     H11344   9.342   0.094   4.425 -0.4879  0.4860  1.0797
  844MOL0     H11345   9.213   0.112   4.615 -1.1670 -0.2185  0.8424
  844MOL0     H11346   9.168   0.009   4.752 -0.3481 -0.5303  0.0241
  844MOL0     H11347   9.233  -0.202   4.616  0.4350  2.4377  3.0858
  844MOL0     H11348   9.227  -0.091   4.479  0.6518 -2.1071  0.0442
  844MOL0     H11349   8.996  -0.194   4.673 -2.0703  0.5513 -0.6878
  844MOL0     H11350   9.021  -0.225   4.501  0.6829  1.1128 -0.8214
  844MOL0     H11351   8.919   0.022   4.639 -1.4437 -1.4312  0.7328
  844MOL0     H11352   8.986   0.026   4.470 -2.8791  1.5343 -0.7652
  844MOL0     H11353   8.827  -0.146   4.396  0.5342  1.2713 -1.0321
  844MOL0     H11354   8.742  -0.008   4.463 -0.6691 -0.0440  1.8660
  844MOL0     H11355   8.709  -0.150   4.675  1.6368 -3.1950  1.3533
  844MOL0     H11356   8.801  -0.271   4.601 -2.7507 -1.8228  0.2379
  844MOL0     H11357   8.520  -0.165   4.517  0.9626  0.8638 -1.5923
  844MOL0     H11358   8.616  -0.249   4.398 -1.5048 -2.3313 -0.1112
  844MOL0     H11359   8.537  -0.362   4.674  3.5713  1.2480 -0.1822
  844MOL0     H11360   8.640  -0.438   4.551 -0.1386 -0.6133  0.1130
  844MOL0     H11361   8.442  -0.348   4.298 -1.0822 -1.5915 -1.7634
  844MOL0     H11362   8.074  -0.480   4.275 -1.1577  1.5187 -1.4955
  844MOL0     H11363   8.214  -0.492   4.166 -1.0616  0.6012 -0.8783
  844MOL0     H11364   8.225  -0.240   4.194  1.4286 -1.5404  3.8776
  844MOL0     H11365   8.081  -0.264   4.295 -0.2310 -2.6061  0.5505
  844MOL0     H11366   8.067  -0.203   4.026  0.5121 -0.6372 -0.7970
  844MOL0     H11367   8.077  -0.378   4.019  0.8464  0.5533 -0.6145
  844MOL0     H11368   7.839  -0.270   4.031  1.9521  2.7487 -0.1685
  844MOL0     H11369   7.889  -0.184   4.167  1.1746  0.6243 -1.5927
  844MOL0     H11370   7.828  -0.547   4.397 -0.3274 -1.0244  1.2748
  844MOL0     H11371   7.609  -0.639   4.476  0.7603  0.5454  0.2181
  844MOL0     H11372   7.187  -0.768   4.502 -0.5377 -5.6068  0.0970
  844MOL0     H11373   6.972  -0.871   4.520 -0.0034 -1.9156 -1.4258
  844MOL0     H11374   6.740  -0.873   4.566  0.7605 -2.0374  0.2440
  844MOL0     H11375   6.799  -0.990   4.445 -0.3400 -0.3765  2.1430
  844MOL0     H11376   6.513  -0.868   4.437  0.7421  1.9856  3.1491
  844MOL0     H11377   6.551  -1.009   4.538 -0.1862 -0.2861 -0.2892
  844MOL0     H11378   6.634  -1.134   4.335  0.1698  0.2145  2.2367
  844MOL0     H11379   6.604  -0.984   4.232 -2.6576  0.6228 -1.5779
  844MOL0     H11380   6.399  -1.146   4.394  0.5135  2.0908  1.7508
  844MOL0     H11381   6.363  -1.000   4.287  0.2813  0.1396  0.6891
  844MOL0     H11382   6.477  -1.278   4.213 -1.5330 -0.6740  0.9700
  844MOL0     H11383   6.450  -1.141   4.102  0.7836  0.3046  0.7142
  844MOL0     H11384   6.229  -1.272   4.269  0.2206 -2.2943  0.6109
  844MOL0     H11385   6.287  -1.343   4.123  0.1081  1.7765 -1.5886
  844MOL0     H11386   6.168  -1.075   4.177  2.5209 -1.6901  1.9826
  844MOL0     H11387   6.240  -1.090   4.020  0.3889 -1.3405  0.6469
  844MOL0     H11388   5.980  -1.123   4.013 -2.4457 -2.6442 -2.4517
  844MOL0     H11389   6.006  -1.251   4.135 -0.6612  2.1649  1.0182
  844MOL0     H11390   6.808  -0.640   4.201 -1.1515 -1.3718  0.8809
  844MOL0     H11391   7.026  -0.518   4.176 -0.0933  0.6793 -0.0134
  844MOL0     H11392   7.404  -0.374   4.201  0.8092  2.8393  0.6138
  844MOL0     H11393   7.608  -0.317   4.109  0.4367  0.7972 -0.5775
  844MOL0     H11394   9.598  -0.054   4.742  1.7057 -0.2698 -0.5909
  844MOL0     H11395   9.796  -0.061   4.576 -1.3433 -1.9136  1.1981
  844MOL0     H11396   9.909   0.247   3.998  1.3974  3.1511 -1.2529
  844MOL0     H11397  10.127   0.243   3.913  1.3093  0.7795 -0.8917
  844MOL0     H11398  10.409   0.322   3.978 -2.3788  0.9898 -2.2491
  844MOL0     H11399  10.314   0.220   3.865 -0.7516 -1.3561  1.1203
  844MOL0     H11400  10.597   0.146   3.946 -0.7894  1.3542  1.5956
  844MOL0     H11401  10.513   0.077   3.807  0.4304 -0.7370  0.7349
  844MOL0     H11402  10.687   0.216   3.749  0.3375  1.3409 -1.1140
  844MOL0     H11403  10.639   0.343   3.868  1.7581 -1.6985  1.2762
  844MOL0     H11404  10.536   0.256   3.587  0.7355  2.2775 -2.6103
  844MOL0     H11405  10.439   0.364   3.683 -0.8728 -1.7777 -3.0958
  844MOL0     H11406  10.683   0.670   3.566 -1.8518  1.7127  1.7599
  844MOL0     H11407  10.270   0.015   4.249 -2.3035 -1.1843  2.7073
  844MOL0     H11408  10.060   0.020   4.343  1.3478  0.6634  0.8503
  845MOL0     O11409   3.110  10.319   3.755  0.0718 -0.3900  0.2314
  845MOL0     C11410   3.102  10.389   3.658 -0.0689  0.3824 -0.4347
  845MOL0     O11411   2.992  10.401   3.578 -0.1432  0.1329  0.7134
  845MOL0     C11412   2.875  10.347   3.622  0.1311 -0.2178 -0.4095
  845MOL0     C11413   2.781  10.319   3.523 -0.2214  0.8429  0.3185
  845MOL0     C11414   2.656  10.260   3.544 -0.8710  0.1397 -0.1950
  845MOL0     C11415   2.614  10.233   3.674  0.3833 -0.3343  0.4176
  845MOL0     O11416   2.483  10.198   3.683 -0.0124 -0.5797 -0.3636
  845MOL0     C11417   2.452  10.113   3.789 -0.2064  0.1975  0.1053
  845MOL0     C11418   2.314  10.054   3.759  0.8697 -0.0392  0.0569
  845MOL0     C11419   2.284   9.948   3.860  0.2663 -0.0102  0.1451
  845MOL0     C11420   2.150   9.882   3.827  0.0735 -0.4065 -0.2732
  845MOL0     C11421   2.114   9.768   3.923  0.3199  0.3972 -0.2635
  845MOL0     C11422   2.202   9.638   3.896  0.2177 -0.2340 -0.4438
  845MOL0     C11423   2.211   9.548   4.022  0.1276  0.1972  0.7357
  845MOL0     C11424   2.068   9.500   4.059 -0.1308  0.2877  0.0978
  845MOL0     N11425   2.005   9.408   3.960  0.0591 -0.0560  0.8320
  845MOL0     C11426   1.912   9.440   3.866 -0.6388 -0.1641 -0.0585
  845MOL0     C11427   1.879   9.323   3.811 -0.3766 -1.5891 -0.6213
  845MOL0     C11428   1.786   9.303   3.692  0.0043 -0.5763 -0.2851
  845MOL0     C11429   1.871   9.273   3.568 -0.0769  0.8679 -0.6955
  845MOL0     C11430   1.789   9.227   3.448  0.7475 -0.2158  0.3971
  845MOL0     C11431   1.704   9.327   3.378  0.1810  0.4220  0.9049
  845MOL0     O11432   1.632   9.245   3.278 -0.6399 -0.2853 -0.3187
  845MOL0     C11433   1.687   9.194   3.163  0.4618  0.0052 -0.3924
  845MOL0     C11434   1.798   9.258   3.100 -0.4476 -0.2050 -0.0456
  845MOL0     C11435   1.847   9.210   2.978 -0.6143  0.7638 -0.2227
  845MOL0     C11436   1.790   9.104   2.915 -0.1535  1.3187  0.3949
  845MOL0     C11437   1.851   9.049   2.786  0.3556 -0.0996 -1.1206
  845MOL0     O11438   1.961   9.109   2.744  0.2347 -0.2294  0.9585
  845MOL0     C11439   2.045   9.068   2.645  0.0016  0.2244  0.0669
  845MOL0     C11440   2.149   9.152   2.612  0.5268 -0.6773  0.1005
  845MOL0     C11441   2.238   9.110   2.514 -0.3727  0.2890  0.2062
  845MOL0     C11442   2.225   8.990   2.449  0.1019  0.2278 -0.4007
  845MOL0     O11443   2.338   8.971   2.364  0.1804  1.1648 -0.0372
  845MOL0     C11444   2.331   8.861   2.275  0.0210  0.1241  0.5672
  845MOL0     C11445   2.440   8.882   2.168  0.0417 -0.3563  0.0198
  845MOL0     C11446   2.394   8.997   2.070  0.7324  0.5245 -0.1429
  845MOL0     C11447   2.504   9.031   1.966  0.6707  0.2333 -0.3153
  845MOL0     C11448   2.646   9.044   2.020 -0.5137 -0.7820 -0.2338
  845MOL0     C11449   2.671   9.160   2.124  0.3538  0.6085  0.4713
  845MOL0     C11450   2.807   9.161   2.199 -0.0155 -0.3126 -0.3526
  845MOL0     C11451   2.817   9.268   2.308 -0.9550 -0.5792  0.2276
  845MOL0    Cl11452   2.985   9.323   2.341  0.2604  0.1992  0.2370
  845MOL0     C11453   2.119   8.902   2.478  0.8171  0.1486 -0.3393
  845MOL0     C11454   2.033   8.942   2.580 -0.3375  0.2269  1.5394
  845MOL0     O11455   1.803   8.938   2.751  0.4578  0.5389  0.7620
  845MOL0     C11456   1.677   9.041   2.977 -0.0980 -0.2207 -0.1044
  845MOL0     C11457   1.626   9.085   3.101  0.2967 -0.2539  0.2576
  845MOL0     N11458   1.936   9.221   3.880  0.3652 -0.6738  1.0810
  845MOL0     N11459   2.012   9.270   3.972  0.4210 -0.4764  0.5124
  845MOL0     C11460   2.711  10.252   3.776 -0.2069 -0.0804  0.1988
  845MOL0     C11461   2.838  10.313   3.753  0.1374 -0.0188 -0.3394
  845MOL0     C11462   3.225  10.462   3.607  0.0139 -0.1644  0.0015
  845MOL0     C11463   3.210  10.552   3.509 -0.6237  0.6552 -0.0785
  845MOL0     C11464   3.312  10.636   3.476 -0.1383 -0.0703  0.4744
  845MOL0     C11465   3.429  10.641   3.550  0.4606  0.3049 -0.5072
  845MOL0     O11466   3.531  10.736   3.525 -0.3550  0.6947 -0.3294
  845MOL0     C11467   3.519  10.846   3.435  0.9965  0.1544  0.0434
  845MOL0     C11468   3.632  10.931   3.494 -0.3392  0.4352 -0.8494
  845MOL0     C11469   3.628  11.077   3.439  0.2336  0.6196 -0.5857
  845MOL0     C11470   3.731  11.167   3.509 -0.1257 -0.1121  0.0857
  845MOL0     C11471   3.713  11.319   3.483 -0.3829 -0.2133  0.6542
  845MOL0     C11472   3.707  11.437   3.465 -0.0531 -0.0215 -0.4620
  845MOL0     C11473   3.448  10.552   3.654 -0.3743 -0.3954  0.1185
  845MOL0     C11474   3.344  10.462   3.679 -0.1357  0.6768 -0.7272
  845MOL0     H11475   2.812  10.350   3.423  0.5016  0.1186  0.3118
  845MOL0     H11476   2.595  10.238   3.456  1.4292 -0.7508 -1.6722
  845MOL0     H11477   2.472  10.159   3.886  3.0668  1.1466 -0.8897
  845MOL0     H11478   2.528  10.035   3.780  1.0575  1.0367  2.5166
  845MOL0     H11479   2.321  10.011   3.659  0.1775  0.1980 -0.1003
  845MOL0     H11480   2.234  10.129   3.764  3.8189  3.3114  1.3054
  845MOL0     H11481   2.272   9.997   3.958 -0.0158 -0.4686  0.3404
  845MOL0     H11482   2.359   9.869   3.860 -0.9478 -1.2322  1.8121
  845MOL0     H11483   2.063   9.949   3.828 -0.7410 -1.3871 -1.6557
  845MOL0     H11484   2.153   9.837   3.727 -2.2842 -1.5755  0.0997
  845MOL0     H11485   2.011   9.743   3.898 -0.2943  2.4819 -0.0754
  845MOL0     H11486   2.115   9.800   4.028  2.1479  0.8543 -0.3791
  845MOL0     H11487   2.307   9.668   3.886  0.1839  0.8791  1.9588
  845MOL0     H11488   2.168   9.592   3.802 -1.6206  0.0677  0.0275
  845MOL0     H11489   2.280   9.466   4.001  1.1819  0.8743  1.4736
  845MOL0     H11490   2.250   9.614   4.100  0.4054  1.9423 -0.8300
  845MOL0     H11491   2.005   9.589   4.065  1.3409  1.2738  4.3429
  845MOL0     H11492   2.073   9.449   4.156  0.0312  0.9209  0.4287
  845MOL0     H11493   1.874   9.541   3.852 -0.6113  0.0354  1.1392
  845MOL0     H11494   1.716   9.385   3.675 -0.6150 -1.1408 -0.4590
  845MOL0     H11495   1.722   9.221   3.726 -0.9121  0.4040  0.4063
  845MOL0     H11496   1.927   9.186   3.604 -2.8559  0.3767  3.1100
  845MOL0     H11497   1.926   9.364   3.542  0.8791  0.5752  0.2748
  845MOL0     H11498   1.861   9.185   3.377  0.4703  1.3234 -0.8806
  845MOL0     H11499   1.714   9.155   3.482  0.7364 -0.6821 -0.5715
  845MOL0     H11500   1.780   9.393   3.335 -0.4382  0.2973 -0.4365
  845MOL0     H11501   1.651   9.384   3.454  0.2495 -0.1978  1.4289
  845MOL0     H11502   1.852   9.341   3.145 -1.9514  0.2586  0.9848
  845MOL0     H11503   1.930   9.255   2.925 -2.3873  1.4713 -2.5558
  845MOL0     H11504   2.159   9.248   2.660 -1.7383 -0.9033  1.1682
  845MOL0     H11505   2.327   9.171   2.500 -0.1595 -0.3628 -1.5759
  845MOL0     H11506   2.236   8.878   2.224  1.7255  4.2675 -1.8018
  845MOL0     H11507   2.351   8.762   2.315  0.0757 -0.9780 -1.9813
  845MOL0     H11508   2.464   8.791   2.113  1.3522 -0.7310  1.1410
  845MOL0     H11509   2.525   8.907   2.233 -1.3398  2.4493  0.9288
  845MOL0     H11510   2.376   9.083   2.135 -1.8090 -0.3814  0.4795
  845MOL0     H11511   2.310   8.969   2.007 -0.4184  1.4670  0.9272
  845MOL0     H11512   2.498   8.951   1.892 -1.9178  0.9008 -0.9475
  845MOL0     H11513   2.480   9.124   1.913  2.5806  1.4059  0.7982
  845MOL0     H11514   2.712   9.063   1.935  1.3054 -0.6317  1.1543
  845MOL0     H11515   2.677   8.949   2.064  1.9584 -0.1125 -0.3807
  845MOL0     H11516   2.593   9.162   2.201  0.2659  3.0396  0.3953
  845MOL0     H11517   2.662   9.253   2.067 -1.5040 -0.5876 -1.3391
  845MOL0     H11518   2.825   9.061   2.239 -1.8637 -0.6912 -0.3705
  845MOL0     H11519   2.890   9.172   2.128 -1.3951 -0.0370 -1.9839
  845MOL0     H11520   2.779   9.224   2.400  0.6738 -1.9698  0.2880
  845MOL0     H11521   2.751   9.351   2.280 -0.5290 -1.6033 -4.9763
  845MOL0     H11522   2.103   8.800   2.446  0.1215  0.1914 -0.1353
  845MOL0     H11523   1.950   8.873   2.595 -1.0613  0.4433 -1.0240
  845MOL0     H11524   1.631   8.952   2.936  0.2107 -0.4190 -0.0201
  845MOL0     H11525   1.545   9.029   3.146 -1.2300  0.0192 -2.0223
  845MOL0     H11526   2.675  10.230   3.876 -1.5297 -0.0332 -0.2454
  845MOL0     H11527   2.900  10.331   3.840 -1.4443  1.5693  0.5176
  845MOL0     H11528   3.122  10.572   3.447 -0.6436 -1.8023 -0.9494
  845MOL0     H11529   3.288  10.699   3.390  1.2201 -0.0680  0.0798
  845MOL0     H11530   3.421  10.892   3.440 -0.0055 -1.4473 -2.5001
  845MOL0     H11531   3.538  10.822   3.330  1.4346  0.2911  0.0900
  845MOL0     H11532   3.626  10.933   3.604 -0.2840 -1.2990 -0.7871
  845MOL0     H11533   3.729  10.886   3.474  0.1819 -0.8282  3.3649
  845MOL0     H11534   3.528  11.115   3.462 -1.2390 -3.0016 -0.4164
  845MOL0     H11535   3.643  11.072   3.331 -0.9569 -0.3555 -0.7231
  845MOL0     H11536   3.729  11.150   3.617  1.1587 -2.3346 -0.1740
  845MOL0     H11537   3.831  11.140   3.473  1.2294  2.4168  1.6507
  845MOL0     H11538   3.678  11.538   3.445 -1.8694 -0.0263  1.7590
  845MOL0     H11539   3.546  10.558   3.698  0.7385 -1.0054 -2.1401
  845MOL0     H11540   3.359  10.391   3.760  0.0375  1.4805 -0.0355
  846MOL0     O11541   1.422   3.307   9.818  0.5282  0.3579 -0.5272
  846MOL0     C11542   1.431   3.295   9.691  0.6814 -1.0025  0.2954
  846MOL0     O11543   1.325   3.317   9.603  0.3120  0.3638  0.2281
  846MOL0     C11544   1.204   3.323   9.653  0.5001 -1.2245 -1.2364
  846MOL0     C11545   1.125   3.442   9.635 -0.4454 -0.3888 -0.4668
  846MOL0     C11546   0.996   3.448   9.676  0.0245 -0.0857  0.2908
  846MOL0     C11547   0.938   3.338   9.743 -0.2586  0.3421  0.1474
  846MOL0     O11548   0.804   3.353   9.763  0.4397  0.3001  0.1742
  846MOL0     C11549   0.720   3.245   9.808 -0.2905  1.1350 -0.6356
  846MOL0     C11550   0.569   3.299   9.814 -0.1723  0.6515 -0.1443
  846MOL0     C11551   0.470   3.187   9.867  0.4761 -0.6729 -0.1378
  846MOL0     C11552   0.332   3.257   9.888  0.3271  0.1037 -0.2697
  846MOL0     C11553   0.224   3.152   9.900  0.5391  0.1704  0.1442
  846MOL0     C11554   0.207   3.088  10.044 -0.1849  1.0137 -0.3973
  846MOL0     C11555   0.110   2.963  10.042  0.3619 -0.0701 -0.2176
  846MOL0     C11556  -0.031   3.000  10.069  0.6497 -0.4989 -0.0751
  846MOL0     N11557  -0.100   3.067   9.957 -0.1047 -0.1417 -0.3838
  846MOL0     C11558  -0.085   3.033   9.829  0.7474 -0.1935 -0.3434
  846MOL0     C11559  -0.122   3.146   9.765  0.3443 -0.6423 -0.2768
  846MOL0     C11560  -0.130   3.169   9.614 -0.2213  0.0867  0.0917
  846MOL0     C11561  -0.016   3.079   9.547  0.6375 -0.3080 -0.4512
  846MOL0     C11562  -0.006   3.080   9.387 -0.6982 -0.8033  0.1233
  846MOL0     C11563  -0.114   3.012   9.305  0.0559 -0.0193  0.1859
  846MOL0     O11564  -0.120   2.866   9.326 -0.3742 -0.2214  0.0544
  846MOL0     C11565  -0.014   2.790   9.274 -1.3732  0.1640  1.2220
  846MOL0     C11566   0.083   2.851   9.182  0.8262 -0.1065  0.2609
  846MOL0     C11567   0.191   2.776   9.132 -0.2777 -0.0332  0.0612
  846MOL0     C11568   0.216   2.645   9.168  0.3594  0.5461 -0.6557
  846MOL0     C11569   0.341   2.568   9.131  0.4614 -0.6409 -0.8440
  846MOL0     O11570   0.439   2.639   9.071  0.5998 -0.3702  0.3909
  846MOL0     C11571   0.555   2.578   9.021 -0.2787 -0.2075 -0.3312
  846MOL0     C11572   0.620   2.473   9.085  0.2776  0.2347  0.4157
  846MOL0     C11573   0.737   2.425   9.023  0.6806 -0.4022 -0.4969
  846MOL0     C11574   0.781   2.472   8.907  0.6051 -0.0634 -1.0107
  846MOL0     O11575   0.897   2.414   8.859 -0.3418 -0.1049  0.2675
  846MOL0     C11576   0.960   2.476   8.748  0.2508 -0.1903  0.1972
  846MOL0     C11577   1.094   2.416   8.715  0.0023 -0.7516  0.0565
  846MOL0     C11578   1.098   2.267   8.751 -0.3606 -0.0427  0.2503
  846MOL0     C11579   1.218   2.214   8.684 -0.0871 -0.2056  0.2669
  846MOL0     C11580   1.242   2.059   8.700 -0.2580 -0.4997 -0.2128
  846MOL0     C11581   1.373   2.030   8.628 -0.9671 -0.1587 -0.4641
  846MOL0     C11582   1.424   1.879   8.642  0.7575  0.0909 -0.4779
  846MOL0     C11583   1.515   1.835   8.532 -0.1170 -0.1094 -0.0115
  846MOL0    Cl11584   1.660   1.947   8.528  0.1135 -0.2070 -0.0564
  846MOL0     C11585   0.714   2.572   8.845  0.2422 -1.1765  0.3665
  846MOL0     C11586   0.605   2.631   8.900  0.1510 -0.3756 -0.3706
  846MOL0     O11587   0.350   2.455   9.164 -1.5424  0.2476 -0.6596
  846MOL0     C11588   0.121   2.582   9.257  0.4045 -0.0679  0.0694
  846MOL0     C11589   0.010   2.651   9.308 -0.4230  0.1583 -0.5797
  846MOL0     N11590  -0.163   3.244   9.859  0.6453  0.6240  0.8687
  846MOL0     N11591  -0.149   3.197   9.972  0.7911 -0.8934  0.1634
  846MOL0     C11592   1.014   3.215   9.761  0.6892 -0.2377  0.5128
  846MOL0     C11593   1.147   3.211   9.716 -0.1605  0.1095 -0.1867
  846MOL0     C11594   1.560   3.253   9.625 -0.8303 -0.4061 -0.1399
  846MOL0     C11595   1.664   3.198   9.709  0.5438 -0.1383  0.5775
  846MOL0     C11596   1.784   3.167   9.653 -0.1131  0.7568  0.2990
  846MOL0     C11597   1.808   3.178   9.517 -0.6536  0.3009  0.4014
  846MOL0     O11598   1.930   3.146   9.465  0.1878 -0.1031 -0.4097
  846MOL0     C11599   2.036   3.224   9.515  0.4245  0.3581  0.6390
  846MOL0     C11600   2.146   3.189   9.413  0.0592  0.1960 -0.4014
  846MOL0     C11601   2.271   3.283   9.425 -0.1237  0.3030 -0.4383
  846MOL0     C11602   2.353   3.286   9.300 -0.2413 -0.2324 -0.0060
  846MOL0     C11603   2.410   3.153   9.268 -0.0867 -0.7428  0.6789
  846MOL0     C11604   2.454   3.048   9.234 -0.8636 -0.4975 -0.6947
  846MOL0     C11605   1.712   3.238   9.440  0.1247  0.0132  0.7077
  846MOL0     C11606   1.590   3.276   9.489 -0.0516  0.4006 -0.0260
  846MOL0     H11607   1.159   3.526   9.575 -0.2423  0.2952  0.5738
  846MOL0     H11608   0.938   3.539   9.665 -0.2940 -0.2115  0.8616
  846MOL0     H11609   0.748   3.207   9.906  1.1866 -2.4084 -2.2532
  846MOL0     H11610   0.722   3.168   9.730 -1.5646 -1.1855  1.4730
  846MOL0     H11611   0.553   3.321   9.709  2.7610  2.1966 -0.3650
  846MOL0     H11612   0.558   3.382   9.884  2.2497  0.2998  0.7618
  846MOL0     H11613   0.511   3.151   9.962  0.1860 -0.7575 -0.0456
  846MOL0     H11614   0.454   3.109   9.792 -1.4418 -1.7423  1.3119
  846MOL0     H11615   0.330   3.330   9.970  1.4859 -0.1451  0.0052
  846MOL0     H11616   0.321   3.312   9.793 -1.1071  1.0832  0.4351
  846MOL0     H11617   0.246   3.080   9.820 -1.7035  1.3802 -1.6718
  846MOL0     H11618   0.131   3.202   9.873  0.5308  1.1367  1.8432
  846MOL0     H11619   0.175   3.157  10.122 -0.8804 -1.2003  1.3822
  846MOL0     H11620   0.308   3.055  10.071 -1.5919 -2.0309  1.7472
  846MOL0     H11621   0.122   2.912   9.946 -1.1204 -3.4727  1.2317
  846MOL0     H11622   0.126   2.887  10.119 -1.2938  0.7769  1.0266
  846MOL0     H11623  -0.033   3.053  10.164  0.8400 -1.5155  0.5085
  846MOL0     H11624  -0.082   2.903  10.076  0.9705 -0.8980 -2.3662
  846MOL0     H11625  -0.050   2.937   9.793 -0.0175 -0.5681 -0.1143
  846MOL0     H11626  -0.111   3.273   9.586  3.9504 -0.2047  1.1678
  846MOL0     H11627  -0.227   3.132   9.581 -0.0377  0.3383 -0.7550
  846MOL0     H11628  -0.024   2.974   9.579 -0.6394 -0.5556 -1.4768
  846MOL0     H11629   0.082   3.109   9.585 -1.3318  3.0091  2.7010
  846MOL0     H11630   0.012   3.185   9.362  2.4741 -1.2339  0.0953
  846MOL0     H11631   0.093   3.035   9.372 -0.0431  0.4486  0.5229
  846MOL0     H11632  -0.105   3.037   9.199 -1.0797 -1.0905 -0.1947
  846MOL0     H11633  -0.213   3.056   9.324 -0.0728  0.4253 -1.3436
  846MOL0     H11634   0.067   2.951   9.143 -1.4434 -0.7027 -0.4743
  846MOL0     H11635   0.262   2.832   9.071 -0.0625 -1.0680 -0.6568
  846MOL0     H11636   0.580   2.422   9.172  1.2034  1.0343  1.3271
  846MOL0     H11637   0.801   2.358   9.078 -0.5804 -1.6653 -0.5217
  846MOL0     H11638   0.968   2.584   8.762 -2.1252  0.0432  0.2202
  846MOL0     H11639   0.887   2.465   8.667  0.0653  4.3846 -0.5214
  846MOL0     H11640   1.166   2.462   8.783  2.5663 -1.9725 -1.6581
  846MOL0     H11641   1.118   2.430   8.609  0.6137 -0.4431  0.2265
  846MOL0     H11642   1.013   2.220   8.701 -0.3447  1.0346 -0.8331
  846MOL0     H11643   1.103   2.242   8.857  0.8157  1.2790  0.5331
  846MOL0     H11644   1.217   2.245   8.579  1.0039  2.3481  0.9209
  846MOL0     H11645   1.306   2.258   8.731  1.0754 -1.0448 -1.0610
  846MOL0     H11646   1.162   1.997   8.658 -1.3592  0.4079  0.5046
  846MOL0     H11647   1.256   2.027   8.803 -3.0883 -2.6412 -0.3682
  846MOL0     H11648   1.452   2.087   8.677 -0.0005 -2.1609  0.4556
  846MOL0     H11649   1.367   2.063   8.524  1.1747  1.2293 -0.2223
  846MOL0     H11650   1.459   1.855   8.743 -7.3531 -0.5925  2.9923
  846MOL0     H11651   1.335   1.820   8.619  1.1544  0.0791 -2.0928
  846MOL0     H11652   1.468   1.811   8.436 -2.5224  0.6844  0.9121
  846MOL0     H11653   1.558   1.739   8.565  1.6411  0.7133  0.2163
  846MOL0     H11654   0.741   2.620   8.752 -1.2472  3.0054  1.8811
  846MOL0     H11655   0.564   2.716   8.848  1.3798  2.7353  3.2557
  846MOL0     H11656   0.139   2.481   9.292 -2.0656 -0.9471 -0.9916
  846MOL0     H11657  -0.055   2.603   9.380  1.1002 -3.6851 -1.5484
  846MOL0     H11658   0.956   3.131   9.799 -0.7577 -0.4675 -1.9976
  846MOL0     H11659   1.214   3.125   9.722 -0.9190 -0.5262 -0.6002
  846MOL0     H11660   1.643   3.185   9.815 -0.7363 -2.2670  0.1194
  846MOL0     H11661   1.865   3.127   9.714 -2.2505 -0.9677  2.2092
  846MOL0     H11662   2.077   3.193   9.612  0.1994 -1.1842  0.2791
  846MOL0     H11663   2.010   3.329   9.527  1.9734  0.8659 -0.3211
  846MOL0     H11664   2.193   3.092   9.428  0.6116  0.5819  0.4634
  846MOL0     H11665   2.118   3.191   9.308  1.0805  2.4027 -0.7000
  846MOL0     H11666   2.327   3.247   9.512 -4.4922 -1.2987  2.0891
  846MOL0     H11667   2.231   3.381   9.453 -2.4088 -0.4377 -0.8304
  846MOL0     H11668   2.286   3.303   9.215  0.3309 -0.8207 -0.5823
  846MOL0     H11669   2.432   3.361   9.306 -0.9780  0.4507  1.8969
  846MOL0     H11670   2.509   2.961   9.201 -2.0785 -1.5887  0.0787
  846MOL0     H11671   1.722   3.257   9.334 -0.8572 -1.8445  0.2199
  846MOL0     H11672   1.522   3.321   9.419  1.4130 -0.9915 -2.4816
  847MOL0     O11673   0.234   1.575   1.110 -0.2034  0.1640  0.5174
  847MOL0     C11674   0.352   1.610   1.106  0.0184 -0.2665 -0.1880
  847MOL0     O11675   0.416   1.652   0.999  0.1022  0.0584 -0.3692
  847MOL0     C11676   0.349   1.637   0.882  0.9654  0.7297 -0.1304
  847MOL0     C11677   0.412   1.564   0.774  1.0162 -0.2787  0.3090
  847MOL0     C11678   0.345   1.547   0.645 -0.4418  0.4131 -0.1448
  847MOL0     C11679   0.214   1.599   0.623  0.1033 -0.5083  0.4117
  847MOL0     O11680   0.139   1.589   0.509 -0.1253  0.2197 -0.0673
  847MOL0     C11681   0.177   1.487   0.410  0.6753  0.1374  0.3964
  847MOL0     C11682   0.094   1.500   0.282  0.1126 -0.5194 -0.8515
  847MOL0     C11683  -0.056   1.493   0.317 -0.7109  0.1810 -0.1037
  847MOL0     C11684  -0.145   1.472   0.187 -0.0029 -0.3429  0.2811
  847MOL0     C11685  -0.141   1.588   0.096  0.3797 -0.0550  0.6308
  847MOL0     C11686  -0.261   1.593   0.001  0.1905  0.6426 -0.4731
  847MOL0     C11687  -0.259   1.730  -0.069 -0.3892 -0.1125 -0.3697
  847MOL0     C11688  -0.396   1.753  -0.143 -0.4340  0.2871 -0.3032
  847MOL0     N11689  -0.510   1.797  -0.057  0.9355  0.3819  0.3082
  847MOL0     C11690  -0.527   1.923  -0.013  0.0585  0.7532 -0.0381
  847MOL0     C11691  -0.654   1.922   0.045 -0.4660  0.7626 -0.2268
  847MOL0     C11692  -0.702   2.027   0.132  0.1178  0.1752 -0.0869
  847MOL0     C11693  -0.649   2.003   0.273 -0.6857  1.2067  0.3760
  847MOL0     C11694  -0.732   2.083   0.371  0.5913 -0.6302 -0.5610
  847MOL0     C11695  -0.872   2.017   0.395  0.0057  0.1905 -0.5400
  847MOL0     O11696  -0.939   2.105   0.483 -0.1640 -0.6598  0.2104
  847MOL0     C11697  -1.076   2.086   0.494 -0.3381  0.5692 -0.0091
  847MOL0     C11698  -1.159   2.190   0.533  0.1109 -0.0931  0.3681
  847MOL0     C11699  -1.300   2.184   0.529 -0.1151  1.0223 -0.0188
  847MOL0     C11700  -1.364   2.062   0.511  0.0043  0.3100  0.1789
  847MOL0     C11701  -1.508   2.058   0.529  0.1863 -0.1371  0.3416
  847MOL0     O11702  -1.576   1.970   0.452 -0.0602  0.5346 -0.1740
  847MOL0     C11703  -1.714   1.978   0.444  0.2038 -0.3336  1.0539
  847MOL0     C11704  -1.786   1.860   0.430  0.0911 -0.2749  0.0330
  847MOL0     C11705  -1.923   1.853   0.407  0.2602  0.4009  0.5333
  847MOL0     C11706  -1.993   1.972   0.383 -0.3873  0.0161  0.1162
  847MOL0     O11707  -2.122   1.960   0.365  0.7805  0.1078  0.2938
  847MOL0     C11708  -2.210   2.069   0.404  0.3139 -0.0458  0.1918
  847MOL0     C11709  -2.359   2.025   0.383 -0.7096 -0.3267  0.0850
  847MOL0     C11710  -2.458   2.139   0.404  0.7526  0.1852  0.0593
  847MOL0     C11711  -2.602   2.080   0.402 -0.1670 -0.6851 -0.3910
  847MOL0     C11712  -2.660   2.129   0.541  0.2868 -0.1787 -0.2869
  847MOL0     C11713  -2.806   2.076   0.565  0.9629 -0.7878  0.3595
  847MOL0     C11714  -2.803   1.926   0.603 -0.0614 -0.0470 -0.6164
  847MOL0     C11715  -2.940   1.861   0.600  0.4009  0.0917 -0.0664
  847MOL0    Cl11716  -2.930   1.686   0.656 -0.0453 -0.0579 -0.1922
  847MOL0     C11717  -1.922   2.092   0.390  0.0617 -0.5891 -0.9274
  847MOL0     C11718  -1.790   2.099   0.429  0.3468 -0.6420  0.0537
  847MOL0     O11719  -1.561   2.139   0.607 -0.0404 -0.1487 -0.0009
  847MOL0     C11720  -1.275   1.944   0.486  0.4792  0.4648  0.0705
  847MOL0     C11721  -1.138   1.960   0.477  0.3555 -0.0163  0.0904
  847MOL0     N11722  -0.714   1.802   0.022 -0.4115 -0.0005  0.0905
  847MOL0     N11723  -0.624   1.725  -0.035 -0.3361 -0.4878  0.2124
  847MOL0     C11724   0.156   1.668   0.729  0.9626 -0.7778  0.3771
  847MOL0     C11725   0.220   1.685   0.860 -0.3664  0.4461  0.0362
  847MOL0     C11726   0.428   1.602   1.225  0.0882 -0.2027 -0.0745
  847MOL0     C11727   0.573   1.596   1.230  1.0181 -0.7110  0.6197
  847MOL0     C11728   0.636   1.577   1.350 -1.2755  0.6774 -0.5556
  847MOL0     C11729   0.573   1.553   1.469 -0.0693 -0.4505 -0.5860
  847MOL0     O11730   0.643   1.559   1.587 -0.2663  0.1052 -0.0244
  847MOL0     C11731   0.589   1.478   1.694  0.1254  0.8400  0.6205
  847MOL0     C11732   0.502   1.550   1.804 -1.2281 -0.1360  0.0899
  847MOL0     C11733   0.382   1.470   1.840  0.6309  0.2079 -0.0998
  847MOL0     C11734   0.288   1.557   1.929  0.3402  0.3908  0.7573
  847MOL0     C11735   0.147   1.510   1.929  0.0869  0.3368 -0.0193
  847MOL0     C11736   0.026   1.503   1.938  0.5463  0.1930  0.3213
  847MOL0     C11737   0.435   1.547   1.460  0.3469  0.3869 -0.1454
  847MOL0     C11738   0.359   1.574   1.348  0.8949 -0.4950 -0.2950
  847MOL0     H11739   0.505   1.512   0.795  1.3718 -0.3014 -1.2003
  847MOL0     H11740   0.415   1.494   0.581 -0.0892 -0.9290  1.2729
  847MOL0     H11741   0.161   1.390   0.459  2.2229 -0.0059  0.6868
  847MOL0     H11742   0.282   1.495   0.379 -0.2300  1.1162 -2.7231
  847MOL0     H11743   0.126   1.413   0.225 -0.0154 -2.3685  1.7302
  847MOL0     H11744   0.125   1.594   0.235 -1.8150  0.0698 -1.0465
  847MOL0     H11745  -0.096   1.587   0.356 -2.1100 -0.1542 -0.6524
  847MOL0     H11746  -0.077   1.404   0.378 -0.8513  0.9309  0.9686
  847MOL0     H11747  -0.109   1.384   0.133 -0.4905 -0.9117  0.8675
  847MOL0     H11748  -0.248   1.449   0.213 -0.7934 -0.4567 -2.6346
  847MOL0     H11749  -0.056   1.573   0.029 -0.8544 -0.0622 -0.9878
  847MOL0     H11750  -0.141   1.686   0.144  0.3617  0.4235 -0.3304
  847MOL0     H11751  -0.355   1.579   0.055  0.8245 -1.1146  0.2323
  847MOL0     H11752  -0.252   1.513  -0.074 -2.5419 -1.1577  0.9127
  847MOL0     H11753  -0.246   1.811   0.004  0.8839  0.0579 -0.7630
  847MOL0     H11754  -0.183   1.729  -0.147  0.3847 -1.3840  0.3579
  847MOL0     H11755  -0.419   1.653  -0.182  0.5562 -1.7045  3.6623
  847MOL0     H11756  -0.378   1.827  -0.222 -1.5972  0.2657 -0.6137
  847MOL0     H11757  -0.458   2.006  -0.011  0.9462  0.0313  0.9451
  847MOL0     H11758  -0.810   2.042   0.127  0.3021  1.4030 -1.0209
  847MOL0     H11759  -0.662   2.122   0.096 -2.9192  0.6107 -2.8285
  847MOL0     H11760  -0.545   2.034   0.288  0.9840 -4.1444  2.3945
  847MOL0     H11761  -0.648   1.896   0.296  0.1789  0.8541 -1.1911
  847MOL0     H11762  -0.671   2.089   0.461  1.3812 -1.8832 -0.9931
  847MOL0     H11763  -0.752   2.186   0.340 -1.4334 -0.6082  0.6136
  847MOL0     H11764  -0.867   1.912   0.427  1.2393  0.3127 -0.3150
  847MOL0     H11765  -0.928   2.019   0.301 -1.6926  2.5420  0.4041
  847MOL0     H11766  -1.115   2.286   0.558 -2.1088  1.6361 -1.7723
  847MOL0     H11767  -1.358   2.273   0.554 -2.7007 -0.2267 -1.1944
  847MOL0     H11768  -1.738   1.764   0.446 -0.8586 -0.6503  0.6934
  847MOL0     H11769  -1.983   1.763   0.391  2.8226 -1.3711  0.3961
  847MOL0     H11770  -2.190   2.156   0.340  0.1509 -0.1845 -0.0458
  847MOL0     H11771  -2.205   2.093   0.511  1.9838  2.1505 -0.2879
  847MOL0     H11772  -2.377   1.940   0.449  2.9097 -0.2685  1.3793
  847MOL0     H11773  -2.363   1.991   0.279  0.1136  1.8246 -0.6961
  847MOL0     H11774  -2.444   2.204   0.317 -1.4751  0.9434  0.2053
  847MOL0     H11775  -2.427   2.203   0.487  1.1013 -1.2490  1.0804
  847MOL0     H11776  -2.658   2.126   0.320  0.6739  2.3661  0.5902
  847MOL0     H11777  -2.597   1.971   0.402  1.2202 -0.6426  0.1196
  847MOL0     H11778  -2.667   2.238   0.540  4.4497  0.2496 -0.6469
  847MOL0     H11779  -2.589   2.103   0.619 -0.0489  1.1763  0.4900
  847MOL0     H11780  -2.853   2.092   0.468  2.7007 -2.5012 -0.8507
  847MOL0     H11781  -2.854   2.130   0.647  3.0374 -0.3714  1.3822
  847MOL0     H11782  -2.740   1.858   0.545  0.8420  1.0181 -0.9219
  847MOL0     H11783  -2.765   1.919   0.705  2.2640 -1.3157 -1.5028
  847MOL0     H11784  -2.985   1.863   0.500 -3.9281 -0.4563  1.6589
  847MOL0     H11785  -3.010   1.923   0.657 -1.5458 -0.0401 -2.1666
  847MOL0     H11786  -1.966   2.191   0.390  0.2750 -0.4629  0.9662
  847MOL0     H11787  -1.733   2.189   0.447  1.1157 -1.6898  3.6314
  847MOL0     H11788  -1.312   1.842   0.491  0.8933  0.2784 -0.5346
  847MOL0     H11789  -1.080   1.869   0.463  0.2405 -0.2381  0.9634
  847MOL0     H11790   0.055   1.705   0.717 -0.4988 -4.1914  1.1046
  847MOL0     H11791   0.162   1.730   0.939 -1.4670 -0.1305 -0.4122
  847MOL0     H11792   0.638   1.605   1.144  0.5588 -1.5387  0.1803
  847MOL0     H11793   0.744   1.581   1.338 -1.2831 -0.7717 -1.3475
  847MOL0     H11794   0.671   1.432   1.751 -0.9796  0.1346  1.6941
  847MOL0     H11795   0.532   1.390   1.661  0.0443  0.0968  2.6103
  847MOL0     H11796   0.563   1.550   1.895 -2.5478  1.7282  1.0241
  847MOL0     H11797   0.483   1.652   1.769  1.9122  0.0494 -1.4963
  847MOL0     H11798   0.397   1.368   1.878 -0.7458 -0.1240 -0.4028
  847MOL0     H11799   0.331   1.446   1.747 -1.1496 -1.8953  1.2917
  847MOL0     H11800   0.323   1.566   2.032 -2.6920  0.7754  1.8366
  847MOL0     H11801   0.296   1.661   1.895  2.5736  0.2902  0.7898
  847MOL0     H11802  -0.081   1.502   1.950  0.5607 -0.9672  0.5003
  847MOL0     H11803   0.376   1.530   1.549  0.1345  1.9220  0.0352
  847MOL0     H11804   0.252   1.577   1.365  0.9496 -1.3174  0.2552
  848MOL0     O11805   9.150   1.324   0.894  0.1951  0.3679  0.3380
  848MOL0     C11806   9.186   1.209   0.934 -0.3697  0.8321 -0.4031
  848MOL0     O11807   9.101   1.106   0.966 -0.9651  0.3735  0.2661
  848MOL0     C11808   8.995   1.076   0.888  0.3940 -0.2622  0.0753
  848MOL0     C11809   8.945   0.938   0.906 -0.1995  0.1497  0.3519
  848MOL0     C11810   8.829   0.895   0.837 -1.2865 -0.0743  0.0257
  848MOL0     C11811   8.777   0.980   0.737  0.4063 -0.7365 -0.5421
  848MOL0     O11812   8.666   0.932   0.665 -0.2667 -0.2268 -0.0224
  848MOL0     C11813   8.700   0.926   0.525  0.1592  0.0612 -0.6591
  848MOL0     C11814   8.681   0.784   0.472 -1.2298  0.3137  0.4743
  848MOL0     C11815   8.755   0.671   0.540 -0.1230  0.7225  0.0889
  848MOL0     C11816   8.911   0.688   0.555 -0.0326 -0.0910 -0.2216
  848MOL0     C11817   8.978   0.560   0.605 -0.8659  1.0990 -0.9372
  848MOL0     C11818   8.964   0.529   0.754 -0.3513 -0.2066  0.7744
  848MOL0     C11819   9.094   0.491   0.825  0.0558  0.5944 -0.5340
  848MOL0     C11820   9.193   0.614   0.851  0.4750 -0.9161 -0.2190
  848MOL0     N11821   9.322   0.560   0.888  0.1896 -0.6373  0.0849
  848MOL0     C11822   9.379   0.574   1.015 -0.3069 -0.1407  0.0240
  848MOL0     C11823   9.508   0.524   1.007  0.7587  0.3026 -0.2568
  848MOL0     C11824   9.613   0.530   1.111 -0.3099  0.6530  0.5317
  848MOL0     C11825   9.618   0.666   1.176  0.2695  0.1510  0.1882
  848MOL0     C11826   9.628   0.795   1.092  0.0203  0.1290  0.7435
  848MOL0     C11827   9.737   0.773   0.980  0.4200  0.1213 -0.9109
  848MOL0     O11828   9.753   0.897   0.910 -0.2219 -0.5981 -0.1183
  848MOL0     C11829   9.653   0.955   0.833  0.2201  0.0950  0.0905
  848MOL0     C11830   9.655   1.088   0.796 -0.1645  0.5761  0.4771
  848MOL0     C11831   9.551   1.141   0.715 -0.3512 -0.8678  0.4096
  848MOL0     C11832   9.439   1.071   0.683 -0.3454  0.2710  0.2645
  848MOL0     C11833   9.337   1.114   0.586 -0.3986 -0.1484  0.4901
  848MOL0     O11834   9.228   1.030   0.566 -0.3681  0.1499 -0.4580
  848MOL0     C11835   9.129   1.071   0.476  0.4029  0.0204 -0.8311
  848MOL0     C11836   9.064   1.199   0.468 -0.7134 -0.3655  0.4670
  848MOL0     C11837   8.960   1.225   0.382 -0.6505  0.2890  0.5930
  848MOL0     C11838   8.917   1.115   0.296 -0.4810  0.4931  1.0098
  848MOL0     O11839   8.823   1.115   0.201  0.2182  0.1804  0.6534
  848MOL0     C11840   8.776   1.241   0.150 -0.3676 -0.2529 -0.1507
  848MOL0     C11841   8.891   1.331   0.082 -0.4649 -0.1373  0.2265
  848MOL0     C11842   8.862   1.482   0.072  0.3209  0.4722  0.6686
  848MOL0     C11843   8.855   1.562   0.200  0.1716  0.6203 -1.0277
  848MOL0     C11844   8.794   1.696   0.195  0.3897  0.3203  0.1549
  848MOL0     C11845   8.639   1.689   0.178  0.1418  0.4448 -0.3218
  848MOL0     C11846   8.563   1.647   0.307 -0.3567  0.0908  0.6821
  848MOL0     C11847   8.408   1.648   0.290  1.0838 -0.6638 -0.2879
  848MOL0    Cl11848   8.346   1.809   0.232 -0.4788 -0.2617 -0.3507
  848MOL0     C11849   8.984   0.992   0.300 -0.3595 -1.1011  0.8405
  848MOL0     C11850   9.088   0.966   0.393  0.7231  0.0072  0.0519
  848MOL0     O11851   9.353   1.222   0.532 -0.0242  0.4528  0.3923
  848MOL0     C11852   9.439   0.932   0.715 -0.3948  0.5791 -0.6702
  848MOL0     C11853   9.547   0.874   0.781  0.0458  0.3741  0.5593
  848MOL0     N11854   9.518   0.488   0.877 -0.5368 -0.0541 -0.2275
  848MOL0     N11855   9.420   0.514   0.807  0.2864  0.4606  0.3530
  848MOL0     C11856   8.818   1.107   0.718 -0.6044 -0.1171  0.0016
  848MOL0     C11857   8.928   1.151   0.791 -0.9156  0.9779  1.2826
  848MOL0     C11858   9.315   1.202   0.999  0.2966  0.7584 -0.0666
  848MOL0     C11859   9.338   1.102   1.090  0.1731 -0.5096  1.0649
  848MOL0     C11860   9.458   1.091   1.153 -0.5819  0.1760 -1.1186
  848MOL0     C11861   9.560   1.182   1.126  0.3503  0.2102 -0.8795
  848MOL0     O11862   9.677   1.176   1.193  0.1973  0.2296  1.0502
  848MOL0     C11863   9.676   1.212   1.332  0.1868 -0.3591  0.9865
  848MOL0     C11864   9.786   1.134   1.406 -0.5539  0.3847  0.3342
  848MOL0     C11865   9.921   1.157   1.334  0.9679  1.0539  0.4074
  848MOL0     C11866  10.003   1.031   1.337 -0.1638 -0.2839 -0.6360
  848MOL0     C11867  10.053   1.000   1.473  0.2754 -0.4024 -0.1901
  848MOL0     C11868  10.072   1.003   1.592 -0.3183  0.5115 -0.8352
  848MOL0     C11869   9.541   1.284   1.029 -0.2330  0.0326 -0.8144
  848MOL0     C11870   9.418   1.294   0.961  0.0367  0.1172 -0.6457
  848MOL0     H11871   8.981   0.856   0.967 -0.0947  0.0530  0.1578
  848MOL0     H11872   8.786   0.802   0.872 -0.7290 -0.2066  0.3690
  848MOL0     H11873   8.804   0.959   0.515  1.0678 -1.7238  1.8521
  848MOL0     H11874   8.635   0.998   0.475  0.3284 -0.4812 -1.6762
  848MOL0     H11875   8.707   0.798   0.367 -2.8474  1.2407  0.1699
  848MOL0     H11876   8.574   0.763   0.478 -1.5821  2.1829  2.1385
  848MOL0     H11877   8.735   0.576   0.490 -0.2460  1.3590 -1.1045
  848MOL0     H11878   8.707   0.648   0.635 -0.0914 -0.3141 -0.1322
  848MOL0     H11879   8.952   0.723   0.460 -0.0036 -3.1626 -1.4584
  848MOL0     H11880   8.925   0.763   0.633 -0.4875 -2.7142  2.5581
  848MOL0     H11881   9.084   0.565   0.579  0.7569  0.2798  4.3298
  848MOL0     H11882   8.942   0.478   0.543  1.9281  0.6071 -2.0311
  848MOL0     H11883   8.909   0.435   0.760  2.1791 -2.0031 -1.4959
  848MOL0     H11884   8.914   0.609   0.809  0.2143  0.7594 -0.0883
  848MOL0     H11885   9.082   0.429   0.914 -3.0927  1.4213 -0.2505
  848MOL0     H11886   9.132   0.414   0.757 -2.6996 -2.0903  0.7419
  848MOL0     H11887   9.158   0.677   0.933  1.0771 -0.8464 -0.0082
  848MOL0     H11888   9.194   0.673   0.759 -3.0215  0.0239  0.2323
  848MOL0     H11889   9.335   0.618   1.104  0.5587  0.2552  0.2655
  848MOL0     H11890   9.711   0.497   1.076 -0.2403  0.9307  0.4665
  848MOL0     H11891   9.578   0.463   1.191  0.9371 -0.8698 -0.1701
  848MOL0     H11892   9.706   0.657   1.240  1.6789  1.5494 -1.4410
  848MOL0     H11893   9.538   0.683   1.248 -0.3086  2.6438 -0.9393
  848MOL0     H11894   9.533   0.820   1.045  0.3313  1.3293  0.7244
  848MOL0     H11895   9.672   0.871   1.157  1.2811  1.5506 -1.6101
  848MOL0     H11896   9.704   0.689   0.919 -2.1051  0.7790 -0.5464
  848MOL0     H11897   9.831   0.730   1.018 -0.6633 -1.9265 -0.4260
  848MOL0     H11898   9.740   1.150   0.824  0.5005 -0.4226  0.7390
  848MOL0     H11899   9.566   1.243   0.681  0.4471 -0.4943  1.7954
  848MOL0     H11900   9.110   1.270   0.536  0.8788  0.8367 -1.7555
  848MOL0     H11901   8.900   1.315   0.382 -1.0191  0.1037 -1.6095
  848MOL0     H11902   8.725   1.306   0.222  0.6988 -0.2171  0.5901
  848MOL0     H11903   8.704   1.215   0.072  0.9965 -0.7446 -1.2793
  848MOL0     H11904   8.904   1.290  -0.019  0.1328  0.6535 -0.0236
  848MOL0     H11905   8.987   1.323   0.134 -0.7792 -0.0074  0.8368
  848MOL0     H11906   8.771   1.493   0.013  0.6235  2.0983  0.4539
  848MOL0     H11907   8.936   1.536   0.012  0.7335  0.7057  1.3683
  848MOL0     H11908   8.802   1.501   0.274  3.7016 -1.4889 -0.0205
  848MOL0     H11909   8.959   1.575   0.232  0.8145 -1.6141 -2.0227
  848MOL0     H11910   8.842   1.740   0.108 -0.4885  2.5860  0.7345
  848MOL0     H11911   8.813   1.756   0.285 -0.0979  0.6525  0.0372
  848MOL0     H11912   8.613   1.596   0.129 -3.5460  0.2805  1.6298
  848MOL0     H11913   8.596   1.785   0.148 -0.6925  0.6757  1.4777
  848MOL0     H11914   8.584   1.539   0.311  0.3208  0.0887 -1.5071
  848MOL0     H11915   8.582   1.708   0.396  0.1243 -0.5757  1.0508
  848MOL0     H11916   8.358   1.619   0.383 -0.2006  2.0425 -0.0603
  848MOL0     H11917   8.372   1.577   0.215 -1.8497  0.7603 -0.3404
  848MOL0     H11918   8.946   0.913   0.235 -2.1892  1.0935 -0.9102
  848MOL0     H11919   9.130   0.866   0.401 -0.6672 -0.5700  0.4582
  848MOL0     H11920   9.350   0.873   0.695 -0.0767  0.1318 -0.7629
  848MOL0     H11921   9.550   0.767   0.798 -0.2324 -0.3215 -3.0966
  848MOL0     H11922   8.767   1.181   0.657 -1.7239 -0.6824  0.2290
  848MOL0     H11923   8.955   1.251   0.758  0.3677 -0.2646 -1.8146
  848MOL0     H11924   9.264   1.025   1.106 -3.3568  2.1648 -1.0202
  848MOL0     H11925   9.487   1.010   1.219 -1.7997 -0.2267 -1.0371
  848MOL0     H11926   9.578   1.190   1.375  0.6305  0.5696  2.5375
  848MOL0     H11927   9.697   1.318   1.345 -0.5334 -0.3774  2.5060
  848MOL0     H11928   9.793   1.154   1.513  1.5849 -0.7643  0.4801
  848MOL0     H11929   9.773   1.025   1.403 -3.4109  0.5712  2.4969
  848MOL0     H11930   9.977   1.237   1.382 -1.7961  3.1095  0.4466
  848MOL0     H11931   9.906   1.191   1.231 -1.0180 -2.0879 -0.4670
  848MOL0     H11932   9.955   0.943   1.294  1.3500 -0.2362 -2.5439
  848MOL0     H11933  10.084   1.052   1.267 -0.3859 -3.7155 -2.1606
  848MOL0     H11934  10.072   1.004   1.699 -0.2552 -0.1216 -0.8266
  848MOL0     H11935   9.621   1.357   1.018  0.6680 -0.5966  1.0316
  848MOL0     H11936   9.405   1.371   0.886 -0.5644  0.2033 -0.4670
  849MOL0     O11937   3.445   0.992   4.481  0.1901 -0.1331  0.2007
  849MOL0     C11938   3.356   0.961   4.402 -0.0880  0.5587  0.1076
  849MOL0     O11939   3.370   0.878   4.295 -0.3305  0.3795 -0.2969
  849MOL0     C11940   3.482   0.797   4.280  0.4625 -0.2212  0.0902
  849MOL0     C11941   3.543   0.722   4.381 -0.4776  0.2148  0.6524
  849MOL0     C11942   3.647   0.638   4.346 -0.2466 -0.1040 -0.7242
  849MOL0     C11943   3.693   0.624   4.214  0.6934 -0.1883 -0.5222
  849MOL0     O11944   3.797   0.547   4.176  1.0230  0.0676 -0.5889
  849MOL0     C11945   3.818   0.434   4.261  0.1748  0.0154  0.1553
  849MOL0     C11946   3.942   0.366   4.201  1.1397  0.2161  0.3625
  849MOL0     C11947   3.976   0.231   4.276  0.7241 -0.1032  0.5901
  849MOL0     C11948   4.088   0.155   4.191  1.0199  0.6729 -0.4487
  849MOL0     C11949   4.123   0.013   4.255 -0.0681 -0.0533 -0.7300
  849MOL0     C11950   4.002  -0.086   4.275 -0.7999 -0.5536 -0.6229
  849MOL0     C11951   3.931  -0.114   4.140 -0.7304  0.1497 -0.3565
  849MOL0     C11952   3.823  -0.213   4.165  0.3037 -0.5902 -0.2126
  849MOL0     N11953   3.732  -0.229   4.051 -0.5286 -0.3054  0.1913
  849MOL0     C11954   3.646  -0.133   4.019  0.0023 -0.1310 -0.2056
  849MOL0     C11955   3.596  -0.179   3.899  0.3841 -0.0826 -0.1082
  849MOL0     C11956   3.482  -0.107   3.833  0.1232 -0.4247  0.6520
  849MOL0     C11957   3.380  -0.217   3.786 -0.5882  0.4780  0.7719
  849MOL0     C11958   3.247  -0.154   3.761  0.3413  0.8840  0.0234
  849MOL0     C11959   3.160  -0.270   3.707  1.0093  0.2853  0.0965
  849MOL0     O11960   3.024  -0.216   3.704 -0.3495  0.0084 -0.1970
  849MOL0     C11961   2.929  -0.292   3.757  1.0544  0.5674 -0.4989
  849MOL0     C11962   2.812  -0.223   3.802 -1.0143  0.6403  0.4223
  849MOL0     C11963   2.701  -0.295   3.859 -0.2582  0.6866 -0.4406
  849MOL0     C11964   2.704  -0.435   3.873  0.2931 -0.3318  0.1549
  849MOL0     C11965   2.587  -0.512   3.925 -0.0226 -0.5425  0.0487
  849MOL0     O11966   2.601  -0.646   3.931 -0.2947 -0.3272 -0.1516
  849MOL0     C11967   2.503  -0.727   3.988 -0.0184  0.3655  0.6194
  849MOL0     C11968   2.537  -0.781   4.109  0.2624  0.6871 -0.1438
  849MOL0     C11969   2.441  -0.860   4.171  0.4773 -1.1908 -0.7571
  849MOL0     C11970   2.315  -0.892   4.111  0.8526 -0.3957  0.3866
  849MOL0     O11971   2.218  -0.970   4.173 -0.1053  0.4379  0.3059
  849MOL0     C11972   2.099  -1.002   4.111  0.4429 -0.3741 -0.0326
  849MOL0     C11973   2.013  -1.107   4.189  0.1549  0.5157  0.0933
  849MOL0     C11974   1.863  -1.092   4.150 -0.2774  0.5957  0.0455
  849MOL0     C11975   1.775  -1.195   4.229 -0.3553 -0.1477 -0.7680
  849MOL0     C11976   1.633  -1.176   4.212  0.3527 -0.8843  0.3443
  849MOL0     C11977   1.542  -1.287   4.271 -0.0948  0.2527 -0.2645
  849MOL0     C11978   1.399  -1.247   4.258  0.2733  0.8146  1.2212
  849MOL0     C11979   1.310  -1.370   4.273 -0.0078 -0.0535 -0.1503
  849MOL0    Cl11980   1.140  -1.306   4.251  0.6815  0.2697 -0.0307
  849MOL0     C11981   2.287  -0.829   3.987 -0.8982 -0.0249  0.2086
  849MOL0     C11982   2.380  -0.750   3.924 -0.7396  0.1893  0.2598
  849MOL0     O11983   2.490  -0.447   3.965 -0.3083 -0.2014  0.1712
  849MOL0     C11984   2.817  -0.497   3.827 -0.1082  0.5406  0.3604
  849MOL0     C11985   2.932  -0.436   3.766  0.3591 -0.8815 -0.0872
  849MOL0     N11986   3.662  -0.301   3.866 -0.0897  0.1306  0.4430
  849MOL0     N11987   3.733  -0.334   3.963 -0.1552  0.2780 -0.0781
  849MOL0     C11988   3.636   0.700   4.119 -0.1964 -0.6575  0.1607
  849MOL0     C11989   3.528   0.781   4.152  0.7523 -0.3256 -0.0671
  849MOL0     C11990   3.218   1.022   4.412  0.2298  0.4959  0.0967
  849MOL0     C11991   3.118   0.979   4.321  0.2815 -0.3036  0.2350
  849MOL0     C11992   2.985   1.004   4.342  0.3317 -1.1239 -0.1006
  849MOL0     C11993   2.944   1.079   4.457 -0.0957 -0.2288  0.4809
  849MOL0     O11994   2.806   1.106   4.468 -0.3379 -0.1896  0.3675
  849MOL0     C11995   2.782   1.245   4.428  0.4803  0.3597 -0.1894
  849MOL0     C11996   2.634   1.271   4.441  0.1952  0.3904 -1.0529
  849MOL0     C11997   2.595   1.404   4.379  0.1021 -0.5184  0.9126
  849MOL0     C11998   2.450   1.432   4.421  0.3482 -0.7339 -0.3786
  849MOL0     C11999   2.350   1.339   4.375  1.0849 -0.2225 -0.0372
  849MOL0     C12000   2.263   1.269   4.328  0.0283  0.7784  0.4730
  849MOL0     C12001   3.045   1.131   4.539 -0.0123 -0.8446  1.0383
  849MOL0     C12002   3.176   1.102   4.520 -0.4808 -0.2720 -0.6294
  849MOL0     H12003   3.514   0.719   4.485 -1.2927  1.3217  0.4741
  849MOL0     H12004   3.700   0.598   4.431 -0.6881 -1.1535 -0.9298
  849MOL0     H12005   3.736   0.361   4.265  1.6649 -1.7065  0.9511
  849MOL0     H12006   3.828   0.468   4.364  1.1411  2.7054 -0.7311
  849MOL0     H12007   4.025   0.436   4.195  1.3771 -0.1938 -1.5459
  849MOL0     H12008   3.910   0.342   4.099 -1.4761  1.6548  0.7433
  849MOL0     H12009   3.884   0.171   4.275  0.3712  0.4273  0.8885
  849MOL0     H12010   3.998   0.249   4.382 -0.6424  0.5219  0.7948
  849MOL0     H12011   4.066   0.127   4.087 -2.2300 -1.0119  0.5501
  849MOL0     H12012   4.171   0.225   4.181  0.3984  1.2348 -1.9869
  849MOL0     H12013   4.173   0.033   4.350 -2.2320 -2.7805  1.1531
  849MOL0     H12014   4.192  -0.038   4.187  0.2958 -2.8821  1.5730
  849MOL0     H12015   3.926  -0.056   4.348  0.9560  0.2222  0.9564
  849MOL0     H12016   4.046  -0.174   4.321 -0.2542  1.6310  3.5387
  849MOL0     H12017   3.877  -0.026   4.104  2.5474  1.8985 -1.3681
  849MOL0     H12018   4.001  -0.153   4.065  0.0029  0.2696  0.2580
  849MOL0     H12019   3.764  -0.172   4.247  0.7411 -1.9953  0.8365
  849MOL0     H12020   3.857  -0.315   4.186 -1.6252 -2.1342 -3.6503
  849MOL0     H12021   3.627  -0.039   4.069  2.0986  0.6664 -0.8459
  849MOL0     H12022   3.511  -0.047   3.746 -1.1093  0.2640  0.6882
  849MOL0     H12023   3.440  -0.037   3.906  1.6882  2.0309 -0.6545
  849MOL0     H12024   3.384  -0.294   3.864 -0.3047  2.8253  3.2419
  849MOL0     H12025   3.412  -0.263   3.692  1.5279  4.0710 -0.4803
  849MOL0     H12026   3.204  -0.125   3.857  0.1606 -2.7921  1.1923
  849MOL0     H12027   3.248  -0.067   3.695  0.7837 -1.3561 -3.1309
  849MOL0     H12028   3.173  -0.361   3.767 -2.4898 -0.5722 -0.2437
  849MOL0     H12029   3.201  -0.298   3.609 -0.4235 -3.1086  0.3266
  849MOL0     H12030   2.813  -0.115   3.794 -1.4984  0.7028  1.0703
  849MOL0     H12031   2.616  -0.236   3.890  0.9202  1.7574  0.8930
  849MOL0     H12032   2.627  -0.748   4.161  0.0134  2.0040 -0.5064
  849MOL0     H12033   2.467  -0.917   4.260  0.9150 -0.3533 -0.3356
  849MOL0     H12034   2.110  -1.035   4.007  1.5218  0.9184 -0.3450
  849MOL0     H12035   2.039  -0.911   4.106 -2.7789 -2.0221  3.3869
  849MOL0     H12036   2.038  -1.096   4.295 -2.2053 -0.2914  0.8208
  849MOL0     H12037   2.044  -1.210   4.167  0.2974  0.3598  0.9931
  849MOL0     H12038   1.840  -1.102   4.044  0.4010  2.9690 -0.3919
  849MOL0     H12039   1.837  -0.988   4.174 -1.9435  0.5207 -1.2236
  849MOL0     H12040   1.793  -1.298   4.197  2.3212  0.5427 -1.8282
  849MOL0     H12041   1.780  -1.182   4.337 -1.5271  0.3737 -0.7594
  849MOL0     H12042   1.609  -1.175   4.105 -0.9176 -0.1810  0.6191
  849MOL0     H12043   1.597  -1.081   4.252  1.9339  0.8432 -2.0385
  849MOL0     H12044   1.559  -1.307   4.377 -2.0038 -2.1304 -0.3191
  849MOL0     H12045   1.551  -1.385   4.223 -0.7200  0.2888 -0.4645
  849MOL0     H12046   1.376  -1.178   4.340 -0.5251  0.1558  1.5653
  849MOL0     H12047   1.390  -1.203   4.158 -0.0089 -4.9036 -1.7129
  849MOL0     H12048   1.299  -1.407   4.375 -4.3794  3.4831  0.9728
  849MOL0     H12049   1.338  -1.452   4.206 -1.5407 -1.5903  0.9693
  849MOL0     H12050   2.193  -0.839   3.933  0.1632 -3.0525 -1.2936
  849MOL0     H12051   2.366  -0.710   3.824  0.3524 -1.5873 -0.6586
  849MOL0     H12052   2.833  -0.603   3.843  1.9690  0.8138  0.3319
  849MOL0     H12053   3.017  -0.486   3.719  1.6562  1.0223  0.1364
  849MOL0     H12054   3.659   0.691   4.013 -4.1898 -2.6143 -0.7594
  849MOL0     H12055   3.486   0.849   4.078 -2.0782 -0.2918  1.4293
  849MOL0     H12056   3.138   0.922   4.231 -0.3394  0.0609 -0.1342
  849MOL0     H12057   2.908   0.975   4.271 -0.4451 -1.3582  0.8151
  849MOL0     H12058   2.807   1.261   4.323 -1.6033 -0.3087 -0.8535
  849MOL0     H12059   2.844   1.313   4.487  2.0234  0.5249 -1.9087
  849MOL0     H12060   2.585   1.193   4.382 -2.7822  2.0779 -1.0224
  849MOL0     H12061   2.602   1.262   4.545  2.2813 -2.5679 -0.5394
  849MOL0     H12062   2.606   1.395   4.270  1.4099  0.2714  0.9661
  849MOL0     H12063   2.666   1.480   4.411  2.2694 -2.1194  0.1605
  849MOL0     H12064   2.451   1.434   4.530 -0.0289 -4.0275 -0.1996
  849MOL0     H12065   2.428   1.533   4.387  0.8055 -0.4141  0.2613
  849MOL0     H12066   2.190   1.201   4.288  0.5555  0.7309 -0.4256
  849MOL0     H12067   3.027   1.206   4.616  4.7310  0.1838  1.4929
  849MOL0     H12068   3.250   1.149   4.585 -1.5880  0.8640 -0.1642
  850MOL0     O12069   7.779   9.664   8.844  0.0802 -0.0478  0.2486
  850MOL0     C12070   7.752   9.784   8.843 -0.7040  0.2961 -0.0132
  850MOL0     O12071   7.630   9.827   8.842  0.3054  0.0351  0.7258
  850MOL0     C12072   7.518   9.748   8.821  0.3755  0.9581 -0.2836
  850MOL0     C12073   7.493   9.612   8.852 -0.5816 -0.4422 -0.3065
  850MOL0     C12074   7.370   9.552   8.831  0.6494 -0.1315  0.2672
  850MOL0     C12075   7.268   9.625   8.769 -0.0889  0.1571 -0.0702
  850MOL0     O12076   7.156   9.560   8.729 -0.8245 -0.0757  0.1371
  850MOL0     C12077   7.045   9.632   8.672  0.8845 -0.1183  1.0439
  850MOL0     C12078   6.918   9.543   8.677 -0.4158 -0.0337  0.2919
  850MOL0     C12079   6.792   9.607   8.641  0.3231 -0.1189  0.7173
  850MOL0     C12080   6.782   9.654   8.496 -0.7724  0.3064 -0.1774
  850MOL0     C12081   6.634   9.707   8.467  1.0361  1.2965 -0.5848
  850MOL0     C12082   6.617   9.717   8.310 -0.5822  0.2398 -0.8689
  850MOL0     C12083   6.472   9.763   8.273 -0.5599  0.2072  0.4195
  850MOL0     C12084   6.358   9.676   8.323  0.2134  0.1059  0.7242
  850MOL0     N12085   6.245   9.701   8.237 -0.5364  0.4442  0.1316
  850MOL0     C12086   6.222   9.669   8.107 -0.5598 -0.2443  0.3562
  850MOL0     C12087   6.093   9.703   8.072  0.5730  0.5455 -0.0391
  850MOL0     C12088   6.029   9.696   7.935  0.4829 -0.3336 -0.2795
  850MOL0     C12089   5.881   9.654   7.947 -0.6005  0.7905  0.0145
  850MOL0     C12090   5.805   9.666   7.812 -0.3819  0.5350 -0.3658
  850MOL0     C12091   5.662   9.620   7.836 -0.3478 -0.0260 -0.5808
  850MOL0     O12092   5.582   9.631   7.718  0.3612  0.0697  0.0860
  850MOL0     C12093   5.445   9.601   7.725  0.6126 -0.0722 -0.6273
  850MOL0     C12094   5.370   9.597   7.606  0.3277  0.5308 -0.1441
  850MOL0     C12095   5.233   9.562   7.601  0.7253  0.3809  0.4479
  850MOL0     C12096   5.168   9.533   7.717  0.0950  0.3365 -0.2076
  850MOL0     C12097   5.030   9.480   7.717  0.1654  1.0384 -0.5607
  850MOL0     O12098   4.966   9.493   7.601  0.0562  0.6830 -0.0189
  850MOL0     C12099   4.840   9.436   7.592 -0.0806  0.6774  0.5092
  850MOL0     C12100   4.743   9.471   7.686 -0.3091 -0.2554 -0.0030
  850MOL0     C12101   4.611   9.413   7.676 -0.0532 -0.0006  0.5661
  850MOL0     C12102   4.588   9.322   7.572  0.7544 -0.1465  1.1063
  850MOL0     O12103   4.471   9.259   7.554  1.0199  0.1201  0.5812
  850MOL0     C12104   4.431   9.191   7.676 -0.5998  0.1447 -0.0641
  850MOL0     C12105   4.316   9.093   7.632  0.6967  0.3943 -0.2064
  850MOL0     C12106   4.298   8.965   7.714  0.4655 -0.0095  0.3563
  850MOL0     C12107   4.287   9.005   7.869  0.5934 -0.4526  0.4703
  850MOL0     C12108   4.327   8.885   7.943  0.7353  0.4578 -0.5683
  850MOL0     C12109   4.315   8.906   8.094 -0.2033  0.0207 -0.3534
  850MOL0     C12110   4.176   8.908   8.159  0.1659 -0.8929  0.4538
  850MOL0     C12111   4.090   8.777   8.140 -0.5331  0.0087 -0.5358
  850MOL0    Cl12112   3.921   8.808   8.182 -0.0804  0.3550 -0.0672
  850MOL0     C12113   4.683   9.297   7.474  0.0826  0.3191 -0.0978
  850MOL0     C12114   4.813   9.356   7.482  0.0058 -0.1651 -0.4402
  850MOL0     O12115   4.991   9.431   7.824 -0.3691 -0.2390  0.3188
  850MOL0     C12116   5.240   9.535   7.840 -0.2867 -0.3929 -0.5281
  850MOL0     C12117   5.376   9.577   7.842  0.7113  0.3135  0.6696
  850MOL0     N12118   6.039   9.763   8.184 -0.5828  0.4350 -0.5438
  850MOL0     N12119   6.125   9.759   8.278  0.6314  0.1732 -0.8360
  850MOL0     C12120   7.285   9.766   8.747 -0.2070 -0.0336 -1.1749
  850MOL0     C12121   7.410   9.828   8.777  0.3792 -0.5708 -0.4107
  850MOL0     C12122   7.872   9.871   8.829  0.7129 -0.5453  0.3240
  850MOL0     C12123   8.000   9.817   8.826  0.7263  0.0712  0.1980
  850MOL0     C12124   8.111   9.900   8.814  0.5890 -0.0519  0.0959
  850MOL0     C12125   8.095  10.039   8.782  0.2846  1.1628 -0.3565
  850MOL0     O12126   8.197  10.121   8.754 -0.9199  0.5056  0.1262
  850MOL0     C12127   8.326  10.081   8.793  0.2523 -0.9019  0.4055
  850MOL0     C12128   8.416  10.206   8.818  0.5211  0.1845  0.4258
  850MOL0     C12129   8.477  10.270   8.686  0.3835 -0.0258  0.7090
  850MOL0     C12130   8.621  10.208   8.638  0.8125  0.4853  0.3989
  850MOL0     C12131   8.662  10.286   8.521 -0.2619 -0.3074 -0.4406
  850MOL0     C12132   8.676  10.348   8.415 -0.4488 -0.2228 -0.5705
  850MOL0     C12133   7.967  10.089   8.780 -0.5583  0.0691 -0.7627
  850MOL0     C12134   7.852  10.011   8.805  0.0662  0.2368  0.7538
  850MOL0     H12135   7.569   9.553   8.903  0.1699  2.0357  1.6411
  850MOL0     H12136   7.350   9.446   8.837  2.0771 -0.4915 -0.6465
  850MOL0     H12137   7.066   9.659   8.568 -0.0247 -0.4196  0.7650
  850MOL0     H12138   7.026   9.719   8.735 -1.5601  0.3700 -0.2327
  850MOL0     H12139   6.919   9.496   8.776  4.6349  1.2858  1.1499
  850MOL0     H12140   6.946   9.451   8.624 -2.9962  0.5700 -2.4323
  850MOL0     H12141   6.759   9.687   8.708 -1.7634 -2.0731  2.1471
  850MOL0     H12142   6.712   9.534   8.654 -1.7860  1.6606 -1.2347
  850MOL0     H12143   6.853   9.735   8.477  1.7410 -1.3002  1.8277
  850MOL0     H12144   6.807   9.575   8.425  2.2522  0.1313  0.9312
  850MOL0     H12145   6.620   9.804   8.517  1.3087  0.9912  0.1009
  850MOL0     H12146   6.557   9.634   8.493 -0.1817  1.4229 -3.4964
  850MOL0     H12147   6.634   9.618   8.268 -0.6650  0.2586 -0.9473
  850MOL0     H12148   6.697   9.784   8.276  1.0625 -1.5247 -0.6457
  850MOL0     H12149   6.460   9.864   8.312 -2.9195  0.6363 -1.2014
  850MOL0     H12150   6.472   9.780   8.165 -1.4952 -1.1830  0.1781
  850MOL0     H12151   6.331   9.697   8.427  0.7121  0.6956  0.7374
  850MOL0     H12152   6.396   9.574   8.309 -0.0233  0.1992 -0.8351
  850MOL0     H12153   6.292   9.628   8.036 -0.5650 -1.2326  0.9060
  850MOL0     H12154   6.085   9.636   7.863 -2.2346 -2.1733 -0.9957
  850MOL0     H12155   6.034   9.794   7.887  3.5129  0.9738  2.3495
  850MOL0     H12156   5.837   9.713   8.028 -1.5098 -0.7768  0.7154
  850MOL0     H12157   5.876   9.549   7.979  2.2087  0.5319 -0.2228
  850MOL0     H12158   5.818   9.772   7.787 -0.4369  1.2036  2.1585
  850MOL0     H12159   5.845   9.602   7.733  0.8731  0.7421  0.0850
  850MOL0     H12160   5.623   9.678   7.920  1.0976  2.1496 -1.3416
  850MOL0     H12161   5.669   9.516   7.870  0.3289 -0.7887 -2.8500
  850MOL0     H12162   5.430   9.626   7.520  0.5357 -1.1874 -0.6121
  850MOL0     H12163   5.187   9.535   7.507 -2.1133  0.6901  1.6328
  850MOL0     H12164   4.775   9.537   7.766 -3.1826  0.4889  0.6467
  850MOL0     H12165   4.529   9.442   7.742 -1.6822 -1.8365 -0.5246
  850MOL0     H12166   4.388   9.266   7.743 -0.5484  0.3099 -0.2154
  850MOL0     H12167   4.508   9.128   7.722  0.5046  1.8368  0.4538
  850MOL0     H12168   4.331   9.054   7.531  2.1898 -0.4755  0.3078
  850MOL0     H12169   4.224   9.152   7.632 -0.1177 -0.7623 -2.2449
  850MOL0     H12170   4.376   8.889   7.700 -0.5188 -1.6338  2.9822
  850MOL0     H12171   4.208   8.916   7.677  0.4322  0.3000  0.0168
  850MOL0     H12172   4.346   9.094   7.891 -0.7138  0.5575  0.0131
  850MOL0     H12173   4.180   9.019   7.886 -0.5425 -3.5863 -2.6610
  850MOL0     H12174   4.430   8.863   7.913  0.6055 -1.5550  0.3351
  850MOL0     H12175   4.264   8.800   7.916  1.2171 -1.1132  2.8533
  850MOL0     H12176   4.371   8.994   8.126 -0.6335 -0.5776  2.2856
  850MOL0     H12177   4.368   8.822   8.141  0.7927  1.5624  1.3817
  850MOL0     H12178   4.190   8.914   8.267  0.7600  0.2687  0.3260
  850MOL0     H12179   4.120   8.996   8.127  1.6474 -0.3620 -0.8142
  850MOL0     H12180   4.124   8.701   8.211  0.6139  0.0825 -0.9965
  850MOL0     H12181   4.096   8.742   8.037  1.6271  0.7143 -0.6981
  850MOL0     H12182   4.668   9.232   7.388  2.7563  2.2653 -2.1879
  850MOL0     H12183   4.886   9.324   7.407  2.4518 -1.0289  2.1505
  850MOL0     H12184   5.187   9.524   7.934 -0.5085  0.9876 -0.4695
  850MOL0     H12185   5.437   9.576   7.932  2.3847 -2.4361 -0.3607
  850MOL0     H12186   7.204   9.827   8.711 -2.1099 -0.0636  2.5394
  850MOL0     H12187   7.437   9.930   8.752 -2.7185 -0.2458 -3.0294
  850MOL0     H12188   8.022   9.711   8.840  2.0093  0.1607 -0.9797
  850MOL0     H12189   8.200   9.840   8.803  0.9087  0.4315 -0.0080
  850MOL0     H12190   8.382  10.011   8.730  0.4943 -1.0130  0.7373
  850MOL0     H12191   8.309  10.034   8.891  0.3530 -1.0597  0.3480
  850MOL0     H12192   8.360  10.277   8.880 -0.0898 -1.0337  1.3205
  850MOL0     H12193   8.496  10.166   8.881 -1.2621 -0.9308  2.0947
  850MOL0     H12194   8.486  10.374   8.718 -2.3999 -0.1107  2.1440
  850MOL0     H12195   8.403  10.267   8.606  0.1578  1.8519  0.7952
  850MOL0     H12196   8.698  10.202   8.716  2.5500 -1.3205 -1.3401
  850MOL0     H12197   8.593  10.105   8.614 -2.2398  1.4258 -0.4941
  850MOL0     H12198   8.705  10.404   8.328 -3.0959  0.9709 -0.7890
  850MOL0     H12199   7.945  10.195   8.773  0.0626  0.3039  0.5369
  850MOL0     H12200   7.752  10.053   8.799  0.4100  1.2253  1.6428
  851MOL0     O12201  10.451   2.891   3.864 -0.5093 -0.2442 -0.7012
  851MOL0     C12202  10.444   2.999   3.806  0.7079 -0.4507  0.0606
  851MOL0     O12203  10.333   3.066   3.773  0.2674  0.7086  0.5704
  851MOL0     C12204  10.204   3.025   3.820 -0.6775 -0.0473 -0.0890
  851MOL0     C12205  10.179   2.966   3.947 -0.0187 -1.1624  0.0328
  851MOL0     C12206  10.054   2.936   3.991 -0.2802 -0.4994 -0.4694
  851MOL0     C12207   9.942   2.956   3.910 -0.8958 -0.3291  0.5166
  851MOL0     O12208   9.822   2.908   3.956 -0.0562  0.3785  0.6420
  851MOL0     C12209   9.711   2.979   3.906  0.5251  0.4465  0.2563
  851MOL0     C12210   9.596   2.969   4.005 -0.0087  0.0224  0.2336
  851MOL0     C12211   9.458   3.006   3.961  0.3165 -0.1417  0.2587
  851MOL0     C12212   9.351   2.953   4.053 -0.7344  0.4832  0.6382
  851MOL0     C12213   9.204   2.992   4.007 -0.6133  0.6446 -0.5962
  851MOL0     C12214   9.154   2.942   3.867 -0.2986  0.4316 -0.4726
  851MOL0     C12215   9.004   2.931   3.858  0.8183 -0.6332 -0.4165
  851MOL0     C12216   8.909   3.044   3.901  0.2337  0.4538  0.1418
  851MOL0     N12217   8.774   3.022   3.835 -1.4859 -0.2559  0.1791
  851MOL0     C12218   8.687   2.920   3.859 -0.0108  0.7739 -0.2043
  851MOL0     C12219   8.574   2.957   3.789  0.2538  0.9860 -0.3072
  851MOL0     C12220   8.445   2.874   3.792 -0.0945  1.1103 -0.5722
  851MOL0     C12221   8.329   2.942   3.864 -0.1079 -0.2097  0.3681
  851MOL0     C12222   8.216   2.842   3.878 -0.4173 -0.4399  0.6715
  851MOL0     C12223   8.102   2.904   3.943 -0.3895  0.2866 -0.3046
  851MOL0     O12224   7.990   2.814   3.932  0.0437  0.1577 -0.2993
  851MOL0     C12225   7.872   2.851   3.993 -0.9653 -0.7824 -0.3435
  851MOL0     C12226   7.854   2.986   4.057  0.6169  0.7145  0.7578
  851MOL0     C12227   7.734   3.015   4.119 -0.4801 -0.0877 -0.1010
  851MOL0     C12228   7.638   2.913   4.135  0.2839 -0.5153  0.1519
  851MOL0     C12229   7.509   2.951   4.197  0.9240  0.0090 -0.3527
  851MOL0     O12230   7.400   2.879   4.156  0.2757 -0.1477  0.2949
  851MOL0     C12231   7.268   2.889   4.204 -0.0076  0.1147 -0.3164
  851MOL0     C12232   7.161   2.849   4.126  0.3330  0.2384  0.3158
  851MOL0     C12233   7.026   2.864   4.180 -0.2614 -0.0536  0.0753
  851MOL0     C12234   7.003   2.926   4.308  0.2041  0.3364 -0.4983
  851MOL0     O12235   6.869   2.932   4.341 -0.2160  0.5492 -0.7472
  851MOL0     C12236   6.821   3.015   4.447 -0.0102  0.0083 -0.3862
  851MOL0     C12237   6.716   2.941   4.525  0.6072 -0.4513  0.5288
  851MOL0     C12238   6.626   3.009   4.627 -0.8170 -0.7961  0.8440
  851MOL0     C12239   6.539   3.117   4.557  0.1762 -0.5773  0.3121
  851MOL0     C12240   6.437   3.173   4.657  0.8654 -0.0876 -0.5268
  851MOL0     C12241   6.348   3.266   4.577 -0.5741 -0.6333 -0.5545
  851MOL0     C12242   6.243   3.324   4.671 -1.1583  0.3234  0.1353
  851MOL0     C12243   6.163   3.428   4.590 -0.2395 -0.5884  0.3655
  851MOL0    Cl12244   5.997   3.375   4.534  0.0096  0.2483  0.2351
  851MOL0     C12245   7.115   2.947   4.394 -0.3110  0.0224  0.3863
  851MOL0     C12246   7.245   2.929   4.340  0.6265 -0.4917 -1.0241
  851MOL0     O12247   7.508   3.056   4.265  0.0695 -1.0067  0.7837
  851MOL0     C12248   7.651   2.784   4.078 -0.4488 -0.3713 -1.1359
  851MOL0     C12249   7.772   2.756   4.012  0.3569 -1.2238  0.1579
  851MOL0     N12250   8.595   3.072   3.714  0.1408  0.4153 -0.3121
  851MOL0     N12251   8.715   3.115   3.749 -0.0948 -0.1848 -0.6531
  851MOL0     C12252   9.963   3.020   3.790  0.1899  0.3624  0.2873
  851MOL0     C12253  10.090   3.052   3.742 -0.4359 -0.7523  0.9517
  851MOL0     C12254  10.571   3.073   3.776  0.6752 -0.2211  0.7103
  851MOL0     C12255  10.575   3.171   3.682  0.0344  0.0170 -0.3729
  851MOL0     C12256  10.691   3.238   3.642 -0.2528  0.3241 -0.6459
  851MOL0     C12257  10.812   3.202   3.716 -0.8555  0.6147 -0.5907
  851MOL0     O12258  10.937   3.264   3.701  0.8038  0.5574 -0.2751
  851MOL0     C12259  10.958   3.364   3.600  0.1936 -0.2207 -0.0961
  851MOL0     C12260  11.104   3.368   3.558  0.8560 -0.2528 -0.1355
  851MOL0     C12261  11.146   3.244   3.482  0.5240  0.9175  0.2775
  851MOL0     C12262  11.292   3.211   3.506 -0.3170  0.4099  0.5336
  851MOL0     C12263  11.369   3.330   3.452 -0.7136  0.6390 -0.2034
  851MOL0     C12264  11.442   3.420   3.407  0.2474  0.0271 -0.7702
  851MOL0     C12265  10.812   3.104   3.811  0.2371  0.2065 -0.2171
  851MOL0     C12266  10.693   3.042   3.845 -0.6888  0.2361 -0.2130
  851MOL0     H12267  10.262   2.935   4.008 -1.4960 -1.4411  2.0006
  851MOL0     H12268  10.042   2.886   4.087  0.9437  1.1624  0.6034
  851MOL0     H12269   9.676   2.934   3.813 -0.3657 -0.5776  1.0504
  851MOL0     H12270   9.721   3.087   3.890  1.5783  0.5133  1.2213
  851MOL0     H12271   9.620   3.026   4.095 -0.0689 -0.3981  0.5194
  851MOL0     H12272   9.590   2.864   4.035 -1.1349 -0.2713 -0.9383
  851MOL0     H12273   9.439   2.959   3.864  1.0804 -1.0036  0.5038
  851MOL0     H12274   9.457   3.115   3.955 -0.5686 -0.1367  0.3783
  851MOL0     H12275   9.357   2.844   4.061 -2.5595  0.2970 -0.1131
  851MOL0     H12276   9.374   2.993   4.152  0.4750  0.7209  0.2824
  851MOL0     H12277   9.201   3.101   4.005 -1.3288  0.6208 -1.6281
  851MOL0     H12278   9.145   2.951   4.089  0.2892 -1.5924 -0.9837
  851MOL0     H12279   9.197   2.844   3.845  0.9871  1.4825 -3.0872
  851MOL0     H12280   9.188   3.007   3.786 -0.4342  0.6284 -0.3745
  851MOL0     H12281   8.980   2.921   3.751  0.3766 -0.3717 -0.3426
  851MOL0     H12282   8.972   2.836   3.902 -2.4266  0.6611  0.2632
  851MOL0     H12283   8.950   3.134   3.855 -0.0896  0.5145 -0.0252
  851MOL0     H12284   8.895   3.056   4.009 -0.6248  0.6483  0.0167
  851MOL0     H12285   8.699   2.826   3.912 -0.0245 -0.6385 -2.5755
  851MOL0     H12286   8.462   2.775   3.835  0.4058  0.8327 -1.3881
  851MOL0     H12287   8.421   2.864   3.685 -0.4771  0.1267 -0.4100
  851MOL0     H12288   8.300   3.032   3.810  0.2332  0.0682  0.6480
  851MOL0     H12289   8.369   2.964   3.964  1.4223 -2.4865  0.3391
  851MOL0     H12290   8.187   2.818   3.775  4.8697 -2.6797 -0.6416
  851MOL0     H12291   8.239   2.748   3.930  1.7846 -0.4717 -0.2390
  851MOL0     H12292   8.080   3.000   3.895 -0.3826 -1.3899 -4.0646
  851MOL0     H12293   8.133   2.921   4.046 -0.8456  3.9816 -0.6596
  851MOL0     H12294   7.932   3.061   4.062  1.5930 -0.3406  2.4780
  851MOL0     H12295   7.721   3.112   4.167 -2.7053 -0.5664  0.3676
  851MOL0     H12296   7.186   2.819   4.025  3.6393  0.6925  0.8788
  851MOL0     H12297   6.943   2.833   4.117  1.0936 -0.8946 -1.3702
  851MOL0     H12298   6.783   3.111   4.409 -0.6938  0.1455  0.6201
  851MOL0     H12299   6.902   3.036   4.517 -1.6948 -0.3051  1.7594
  851MOL0     H12300   6.764   2.860   4.582 -2.3992 -1.6221  1.5805
  851MOL0     H12301   6.655   2.890   4.450  2.5774 -0.5724 -1.0728
  851MOL0     H12302   6.692   3.061   4.698 -2.0358  1.3202  0.5063
  851MOL0     H12303   6.555   2.944   4.679 -1.6162  0.5249  1.4675
  851MOL0     H12304   6.601   3.200   4.524 -0.6773  1.0157  2.4803
  851MOL0     H12305   6.480   3.072   4.476  1.0161 -0.3392 -0.4324
  851MOL0     H12306   6.475   3.229   4.742 -2.8541  0.7293  0.8235
  851MOL0     H12307   6.375   3.098   4.708  2.4914 -0.9797  0.1990
  851MOL0     H12308   6.292   3.212   4.500  0.3093  0.6789 -2.1831
  851MOL0     H12309   6.407   3.350   4.538 -0.7416  0.1302  0.7781
  851MOL0     H12310   6.170   3.253   4.711 -0.7851 -0.4416 -0.5246
  851MOL0     H12311   6.288   3.372   4.759  0.7695 -3.2246  1.2848
  851MOL0     H12312   6.221   3.465   4.505 -1.3701  0.5150  0.0568
  851MOL0     H12313   6.150   3.510   4.662 -2.3121 -1.9014  1.6020
  851MOL0     H12314   7.106   2.976   4.498  0.3775 -1.6616  0.9571
  851MOL0     H12315   7.323   2.956   4.411  0.0294  0.6393 -0.7775
  851MOL0     H12316   7.563   2.723   4.093 -2.4958  3.1661  3.5575
  851MOL0     H12317   7.795   2.662   3.964  0.8643 -1.2318  0.4142
  851MOL0     H12318   9.880   3.034   3.721  0.3026 -1.0090 -0.1505
  851MOL0     H12319  10.100   3.096   3.643 -1.3968 -0.9610  0.7437
  851MOL0     H12320  10.497   3.219   3.624  0.9249 -0.8649 -2.4064
  851MOL0     H12321  10.693   3.319   3.571  0.2022  1.4218  0.5800
  851MOL0     H12322  10.918   3.463   3.625 -0.7441 -0.3438 -1.0342
  851MOL0     H12323  10.896   3.343   3.512 -1.7083  0.9494  0.8955
  851MOL0     H12324  11.130   3.445   3.486 -0.1142 -2.4677 -3.0645
  851MOL0     H12325  11.165   3.365   3.649  0.9393  1.8146 -0.0914
  851MOL0     H12326  11.122   3.244   3.376  1.7048  1.8893  0.0010
  851MOL0     H12327  11.092   3.154   3.514  0.1554  0.9481 -0.2418
  851MOL0     H12328  11.309   3.188   3.612  1.7635 -0.0447  0.1368
  851MOL0     H12329  11.322   3.119   3.454  0.2442  1.3724 -0.8954
  851MOL0     H12330  11.513   3.495   3.379  1.2870  0.1355  1.8542
  851MOL0     H12331  10.902   3.070   3.862  1.3952  1.9533 -0.9656
  851MOL0     H12332  10.694   2.975   3.931 -1.0995 -1.5889 -1.5844
  852MOL0     O12333   9.002   2.388   0.126  0.7360  0.1523  0.2000
  852MOL0     C12334   8.945   2.448   0.028  0.2654  1.0459 -0.1122
  852MOL0     O12335   8.820   2.508   0.037 -0.6262  0.5552 -0.1605
  852MOL0     C12336   8.763   2.526   0.163 -0.6066 -0.1419  0.3241
  852MOL0     C12337   8.843   2.550   0.275  0.3386 -1.1258 -0.4327
  852MOL0     C12338   8.774   2.571   0.397  0.4924 -0.7375 -0.0311
  852MOL0     C12339   8.628   2.563   0.407 -0.0095  0.3739  0.3502
  852MOL0     O12340   8.551   2.571   0.520 -0.2319  0.7579 -0.5439
  852MOL0     C12341   8.626   2.590   0.643  0.0363  0.2640 -1.0378
  852MOL0     C12342   8.547   2.587   0.782 -0.1331 -0.5812  0.4002
  852MOL0     C12343   8.457   2.462   0.773 -0.5488 -0.6050 -0.6810
  852MOL0     C12344   8.380   2.448   0.906 -0.4101  0.2282 -0.0039
  852MOL0     C12345   8.295   2.311   0.894 -0.0465 -0.7591  0.2175
  852MOL0     C12346   8.242   2.263   1.034 -0.3520 -0.7622 -0.4000
  852MOL0     C12347   8.130   2.356   1.084 -0.1009  0.6177  0.1064
  852MOL0     C12348   8.088   2.324   1.227  0.5287 -0.4249  0.3400
  852MOL0     N12349   7.945   2.366   1.254  0.0067  0.5133  0.4025
  852MOL0     C12350   7.859   2.288   1.335  0.0665 -0.3713  0.6020
  852MOL0     C12351   7.750   2.368   1.343  0.4006 -0.6247 -0.0369
  852MOL0     C12352   7.644   2.353   1.453  0.4290 -0.2416  0.1175
  852MOL0     C12353   7.525   2.459   1.430 -0.1332  0.4094  0.5948
  852MOL0     C12354   7.436   2.464   1.557 -0.7256 -0.1841  0.0088
  852MOL0     C12355   7.292   2.486   1.528  0.3672 -0.3532 -0.3607
  852MOL0     O12356   7.222   2.463   1.653 -0.1302  0.7504  0.7949
  852MOL0     C12357   7.095   2.421   1.645  0.4547  0.0669  0.2768
  852MOL0     C12358   7.071   2.316   1.726 -0.0526 -0.2081  0.0473
  852MOL0     C12359   6.948   2.254   1.721  0.8994  0.6759 -0.2296
  852MOL0     C12360   6.850   2.306   1.635  0.3639  0.1728  0.7764
  852MOL0     C12361   6.721   2.242   1.608 -0.4055  0.6809 -0.6151
  852MOL0     O12362   6.633   2.293   1.521  0.3680  0.3259 -0.0274
  852MOL0     C12363   6.526   2.210   1.484 -0.3850 -0.6521 -0.0395
  852MOL0     C12364   6.403   2.240   1.540 -0.6197 -0.1153 -0.2104
  852MOL0     C12365   6.296   2.151   1.512 -0.2266  0.3303  0.4253
  852MOL0     C12366   6.314   2.039   1.429  0.6431 -0.8191  0.4703
  852MOL0     O12367   6.208   1.956   1.402 -0.4367 -0.1796  0.0063
  852MOL0     C12368   6.222   1.842   1.325 -1.1013  0.5086 -0.1577
  852MOL0     C12369   6.088   1.763   1.312  0.4656  0.0884 -0.3604
  852MOL0     C12370   5.986   1.831   1.224  0.1592 -0.3986 -0.3506
  852MOL0     C12371   6.000   1.786   1.082 -0.2828  0.7507  0.1404
  852MOL0     C12372   5.907   1.859   0.988 -0.0098 -0.7620 -0.4097
  852MOL0     C12373   5.855   1.757   0.890 -0.7330  0.5445  1.2074
  852MOL0     C12374   5.750   1.655   0.934  0.0442  0.5968 -0.3325
  852MOL0     C12375   5.675   1.608   0.811  0.9407  0.6953 -0.1920
  852MOL0    Cl12376   5.558   1.479   0.845 -0.2298  0.2894 -0.0938
  852MOL0     C12377   6.439   2.021   1.366 -0.9495 -0.2312 -0.5000
  852MOL0     C12378   6.546   2.103   1.404 -0.2388  0.3178  0.5016
  852MOL0     O12379   6.703   2.138   1.676 -0.2256  0.4347 -0.0490
  852MOL0     C12380   6.877   2.420   1.559  0.1252 -0.6314 -0.4096
  852MOL0     C12381   6.999   2.480   1.564 -0.4171 -0.2719  0.5597
  852MOL0     N12382   7.773   2.485   1.268  0.1375 -0.2654  0.9409
  852MOL0     N12383   7.891   2.485   1.215 -0.0510  0.3294 -0.4021
  852MOL0     C12384   8.554   2.541   0.289 -0.4371 -0.1561 -0.2501
  852MOL0     C12385   8.626   2.514   0.170  0.4440 -1.1514 -0.3088
  852MOL0     C12386   9.018   2.441  -0.103 -0.3263 -0.9402 -0.2628
  852MOL0     C12387   8.977   2.524  -0.207  0.5413 -0.0926 -0.1467
  852MOL0     C12388   9.017   2.498  -0.338 -0.6324 -0.4663  0.2099
  852MOL0     C12389   9.120   2.409  -0.365 -0.1296  0.6954  0.4997
  852MOL0     O12390   9.170   2.406  -0.489  0.6484 -0.5133 -0.2736
  852MOL0     C12391   9.295   2.362  -0.522  0.0858 -0.7977 -0.1686
  852MOL0     C12392   9.306   2.385  -0.666 -0.0675 -1.0012 -0.1825
  852MOL0     C12393   9.196   2.328  -0.759  0.5683  0.5943  0.8173
  852MOL0     C12394   9.231   2.342  -0.908  0.2849 -0.7469  0.6461
  852MOL0     C12395   9.279   2.476  -0.951  0.0186  0.4261  0.0820
  852MOL0     C12396   9.316   2.590  -0.978 -0.2993  0.1483  0.6217
  852MOL0     C12397   9.179   2.338  -0.258  0.3350 -0.0498 -0.7341
  852MOL0     C12398   9.117   2.337  -0.131 -0.4621 -0.6196 -0.0185
  852MOL0     H12399   8.949   2.573   0.270 -0.0524  1.0071  0.0820
  852MOL0     H12400   8.824   2.606   0.486 -0.4317 -1.0566  0.6379
  852MOL0     H12401   8.669   2.690   0.629 -0.9596  0.7181 -0.9255
  852MOL0     H12402   8.706   2.517   0.660  1.6348  1.6185 -2.2950
  852MOL0     H12403   8.482   2.675   0.787 -1.9693 -1.7924 -0.8937
  852MOL0     H12404   8.615   2.580   0.867  1.4781  0.5975 -0.7215
  852MOL0     H12405   8.511   2.369   0.753  0.2981 -0.2204 -0.2362
  852MOL0     H12406   8.383   2.478   0.694  1.0274  1.4589 -1.8613
  852MOL0     H12407   8.457   2.428   0.982 -2.6728 -1.9455  1.8908
  852MOL0     H12408   8.311   2.528   0.932  0.0006  0.1717  1.3404
  852MOL0     H12409   8.355   2.230   0.854 -3.1153 -2.7667 -0.6786
  852MOL0     H12410   8.214   2.320   0.821  0.7847  1.4192 -0.5042
  852MOL0     H12411   8.323   2.258   1.107  0.6056  0.0639 -1.3607
  852MOL0     H12412   8.196   2.164   1.032  0.6107 -1.2238 -2.7556
  852MOL0     H12413   8.158   2.461   1.071 -3.0636  1.4908 -0.0645
  852MOL0     H12414   8.042   2.340   1.020  1.1400  1.4232 -1.9287
  852MOL0     H12415   8.158   2.388   1.282  1.0972 -1.3557  0.7077
  852MOL0     H12416   8.096   2.220   1.258  1.0806 -1.4644 -2.9406
  852MOL0     H12417   7.871   2.199   1.395  1.4394 -0.5186  0.1522
  852MOL0     H12418   7.693   2.367   1.550 -1.9362  0.4781  1.2901
  852MOL0     H12419   7.609   2.249   1.458 -0.5401  0.1095  3.6307
  852MOL0     H12420   7.473   2.440   1.335 -0.8504  1.8890  0.6590
  852MOL0     H12421   7.576   2.555   1.421  1.6950 -0.6981 -2.2948
  852MOL0     H12422   7.452   2.373   1.615  2.1407 -0.0652 -0.4655
  852MOL0     H12423   7.473   2.547   1.618 -0.6193  0.3004 -0.6954
  852MOL0     H12424   7.253   2.427   1.445  2.0801 -0.5624 -1.0496
  852MOL0     H12425   7.282   2.586   1.486 -1.1326  0.3750  1.5513
  852MOL0     H12426   7.150   2.287   1.794 -1.9565  0.6972  2.8453
  852MOL0     H12427   6.915   2.175   1.788  1.3226  1.5210  1.0092
  852MOL0     H12428   6.388   2.325   1.605  1.2584  0.8380 -0.9475
  852MOL0     H12429   6.201   2.169   1.561 -2.1246 -2.7329 -1.7724
  852MOL0     H12430   6.283   1.775   1.387 -1.4387 -0.0363 -0.3991
  852MOL0     H12431   6.255   1.851   1.221  0.5801 -1.6018  0.1218
  852MOL0     H12432   6.042   1.749   1.411  0.8423 -1.6623 -0.4103
  852MOL0     H12433   6.109   1.667   1.264  2.5037  0.5602 -0.5286
  852MOL0     H12434   6.013   1.937   1.214 -2.1023  0.1417 -1.2120
  852MOL0     H12435   5.887   1.818   1.268  1.4448  0.7709  3.2354
  852MOL0     H12436   6.103   1.792   1.044 -0.4503  0.8865 -0.2946
  852MOL0     H12437   5.976   1.681   1.099 -0.7907  0.7907 -0.3097
  852MOL0     H12438   5.965   1.935   0.935  2.6516 -0.8369  2.1255
  852MOL0     H12439   5.825   1.908   1.042 -0.6701 -2.2645  0.0070
  852MOL0     H12440   5.939   1.698   0.855 -2.4034 -0.7809 -0.8172
  852MOL0     H12441   5.809   1.817   0.811  0.8559 -1.2085 -1.1706
  852MOL0     H12442   5.799   1.581   0.999 -1.2316  0.4863  0.5401
  852MOL0     H12443   5.676   1.698   1.002  0.1348  0.1205  0.0762
  852MOL0     H12444   5.746   1.566   0.740  0.7390 -0.7442  0.4347
  852MOL0     H12445   5.626   1.690   0.758 -0.5635 -0.0915 -0.0733
  852MOL0     H12446   6.457   1.934   1.304 -3.7028 -1.7750  0.6776
  852MOL0     H12447   6.638   2.093   1.348 -0.2600  0.6454  0.4060
  852MOL0     H12448   6.812   2.452   1.478 -1.7346 -2.4860  0.2619
  852MOL0     H12449   7.025   2.567   1.505  2.0920 -2.4025 -1.8326
  852MOL0     H12450   8.446   2.536   0.302 -0.6688  3.2687 -0.0045
  852MOL0     H12451   8.560   2.502   0.084  0.0395 -0.4418 -0.1123
  852MOL0     H12452   8.901   2.601  -0.198  0.8210  0.3172 -1.1169
  852MOL0     H12453   8.969   2.558  -0.415 -0.4712  0.1623  0.5910
  852MOL0     H12454   9.305   2.254  -0.504 -0.5425 -0.5362  2.0723
  852MOL0     H12455   9.365   2.411  -0.453 -1.0977 -3.1233  2.9686
  852MOL0     H12456   9.294   2.493  -0.681 -0.9825 -0.8713  1.3040
  852MOL0     H12457   9.404   2.358  -0.706  2.3471  3.6559  1.7667
  852MOL0     H12458   9.098   2.373  -0.746  0.5045  1.0717 -0.9809
  852MOL0     H12459   9.179   2.221  -0.750 -1.4547  0.6035 -1.6637
  852MOL0     H12460   9.320   2.282  -0.930  0.7367  0.6255 -1.5650
  852MOL0     H12461   9.155   2.303  -0.975  1.9093 -0.4309 -1.4845
  852MOL0     H12462   9.336   2.689  -1.014  0.5452  0.0757  0.8803
  852MOL0     H12463   9.273   2.283  -0.265  0.5300 -0.1587  1.7564
  852MOL0     H12464   9.153   2.269  -0.054  1.6477 -2.0413 -2.1474
  853MOL0     O12465   6.023   1.212   0.486  0.1540  0.3109  0.1109
  853MOL0     C12466   6.062   1.114   0.428 -0.3827 -0.3153 -0.1312
  853MOL0     O12467   6.192   1.058   0.443  0.1949  0.0064  0.1628
  853MOL0     C12468   6.292   1.137   0.508  0.7769 -0.3306  0.2814
  853MOL0     C12469   6.418   1.121   0.444  0.7995 -0.3667  0.3925
  853MOL0     C12470   6.531   1.175   0.504 -0.1928 -0.4875 -0.3930
  853MOL0     C12471   6.521   1.248   0.621  0.7299 -0.1196 -0.2294
  853MOL0     O12472   6.632   1.317   0.672 -0.5864 -0.1146  0.0114
  853MOL0     C12473   6.748   1.245   0.683  0.2013  0.3826 -0.2437
  853MOL0     C12474   6.831   1.316   0.788  0.9691 -0.1346 -0.5378
  853MOL0     C12475   6.977   1.272   0.805  0.2796 -0.2226  0.1477
  853MOL0     C12476   7.045   1.340   0.918 -0.4279  0.1962  0.9087
  853MOL0     C12477   7.180   1.269   0.946 -0.7522  0.3190  0.3383
  853MOL0     C12478   7.244   1.306   1.077 -0.1882  0.8290 -0.2212
  853MOL0     C12479   7.395   1.295   1.083  0.6926 -0.3931 -0.1856
  853MOL0     C12480   7.434   1.285   1.232 -0.1712 -0.2258 -0.0189
  853MOL0     N12481   7.560   1.219   1.239  0.0995  1.0065  0.4445
  853MOL0     C12482   7.575   1.084   1.248 -0.1772  0.0177 -0.4496
  853MOL0     C12483   7.703   1.064   1.269  0.0826 -0.1850  0.0114
  853MOL0     C12484   7.765   0.924   1.281  0.6259  0.2190 -0.0171
  853MOL0     C12485   7.827   0.877   1.150  0.3620  0.7109  0.0454
  853MOL0     C12486   7.732   0.839   1.033  0.2796 -0.1255  0.2570
  853MOL0     C12487   7.625   0.732   1.070  0.1627 -0.7432  0.1271
  853MOL0     O12488   7.534   0.706   0.958  0.4442 -0.1455 -0.3703
  853MOL0     C12489   7.410   0.645   0.974 -0.5063  0.0569 -0.0849
  853MOL0     C12490   7.311   0.658   0.874 -0.1881  0.0503  0.4284
  853MOL0     C12491   7.182   0.607   0.893  0.1440 -0.1777 -0.8656
  853MOL0     C12492   7.153   0.524   1.007 -0.2132  0.2408 -0.5641
  853MOL0     C12493   7.021   0.457   1.022  0.4008  0.4004  0.1182
  853MOL0     O12494   6.926   0.498   0.932 -0.3036  0.1456 -0.4089
  853MOL0     C12495   6.804   0.438   0.907 -1.2106  0.3391 -0.4684
  853MOL0     C12496   6.705   0.521   0.866  0.1541  0.6699  0.9607
  853MOL0     C12497   6.582   0.474   0.819  0.1336  0.2303 -0.1920
  853MOL0     C12498   6.552   0.336   0.837 -0.3413  0.1250 -0.5430
  853MOL0     O12499   6.425   0.295   0.800 -0.7389 -0.1794 -0.5048
  853MOL0     C12500   6.392   0.158   0.778 -0.8821  0.0639 -0.6897
  853MOL0     C12501   6.251   0.166   0.724  1.0109 -0.2079  0.2776
  853MOL0     C12502   6.182   0.031   0.695  0.3519 -0.1594  0.7209
  853MOL0     C12503   6.033   0.057   0.678 -0.9542 -0.8975  0.5049
  853MOL0     C12504   5.937  -0.056   0.662  0.2506  0.2976  0.4259
  853MOL0     C12505   5.922  -0.090   0.515  0.2322  0.4927 -0.3228
  853MOL0     C12506   5.817  -0.201   0.490 -0.2472  0.6262  0.3964
  853MOL0     C12507   5.860  -0.344   0.516 -0.4597 -0.8780 -0.6770
  853MOL0    Cl12508   5.974  -0.387   0.395  0.1123 -0.4546  0.5696
  853MOL0     C12509   6.657   0.250   0.888  1.0091 -1.2156  0.3484
  853MOL0     C12510   6.784   0.299   0.911  0.5361 -0.7729 -0.1701
  853MOL0     O12511   7.003   0.365   1.105  0.4440  0.4234 -0.0626
  853MOL0     C12512   7.257   0.499   1.097 -0.4204 -0.0792 -0.1827
  853MOL0     C12513   7.380   0.560   1.079 -0.0286  0.4017  0.3977
  853MOL0     N12514   7.777   1.177   1.256 -0.7435 -0.4159 -0.6151
  853MOL0     N12515   7.685   1.271   1.230 -0.5815  0.1035 -0.0544
  853MOL0     C12516   6.393   1.266   0.678  0.2623  0.8668 -0.6254
  853MOL0     C12517   6.277   1.219   0.619  0.4496  0.8479 -0.3053
  853MOL0     C12518   5.951   1.043   0.371  0.0236 -0.0779  0.8590
  853MOL0     C12519   5.954   0.908   0.345 -0.0078 -0.2069  0.5031
  853MOL0     C12520   5.845   0.847   0.290 -0.2732  0.0564  0.6138
  853MOL0     C12521   5.725   0.916   0.256 -0.4692  0.3482  0.1490
  853MOL0     O12522   5.630   0.838   0.204  0.8138  0.4565  0.3330
  853MOL0     C12523   5.517   0.891   0.129  0.6758 -0.2192 -0.3958
  853MOL0     C12524   5.553   0.894  -0.024  0.0597 -0.2707  0.1677
  853MOL0     C12525   5.441   0.932  -0.116 -0.4278 -0.1636  0.1152
  853MOL0     C12526   5.435   1.081  -0.128 -0.2523 -0.3076  0.7732
  853MOL0     C12527   5.327   1.099  -0.229 -0.6966 -0.1063  0.4276
  853MOL0     C12528   5.245   1.101  -0.315  0.7998  0.6366 -0.8944
  853MOL0     C12529   5.720   1.053   0.271  0.4383  0.2093  0.1481
  853MOL0     C12530   5.830   1.116   0.328  0.2437  0.3539 -0.1149
  853MOL0     H12531   6.434   1.070   0.350  2.2300 -0.1112  0.4748
  853MOL0     H12532   6.624   1.160   0.450  0.6847  1.2794  0.5270
  853MOL0     H12533   6.804   1.248   0.589 -3.0202 -0.0888 -2.3399
  853MOL0     H12534   6.732   1.143   0.719  0.0093  1.2667  2.3930
  853MOL0     H12535   6.785   1.288   0.883 -0.1480 -1.1757 -1.3594
  853MOL0     H12536   6.824   1.423   0.766  0.1391  0.1937  1.1999
  853MOL0     H12537   7.043   1.291   0.719  0.8841 -0.2135  0.6112
  853MOL0     H12538   6.963   1.165   0.822 -0.1155 -0.4670 -1.4836
  853MOL0     H12539   7.064   1.446   0.898 -0.0415  0.0396  0.4183
  853MOL0     H12540   6.977   1.332   1.003 -1.1258  3.3782  0.7659
  853MOL0     H12541   7.256   1.304   0.875 -0.1263  2.8366  2.0948
  853MOL0     H12542   7.170   1.160   0.938 -0.0647  0.2116  0.8709
  853MOL0     H12543   7.201   1.243   1.155  0.3946  1.7726  0.8897
  853MOL0     H12544   7.223   1.410   1.102 -2.2955  1.1050 -2.6767
  853MOL0     H12545   7.425   1.209   1.022  1.4049  0.1207 -0.5828
  853MOL0     H12546   7.444   1.385   1.044  0.2559 -0.8927 -2.0200
  853MOL0     H12547   7.360   1.225   1.285  1.3864 -1.3265  1.0058
  853MOL0     H12548   7.440   1.384   1.277 -1.9279  0.2331 -0.7330
  853MOL0     H12549   7.502   1.005   1.239  0.4386 -0.6884  0.5292
  853MOL0     H12550   7.696   0.852   1.325  2.5545 -0.6606  1.7692
  853MOL0     H12551   7.845   0.937   1.355 -0.0601  2.8699  0.3418
  853MOL0     H12552   7.887   0.793   1.185 -1.2722  0.7400  3.2790
  853MOL0     H12553   7.887   0.952   1.098 -0.1312 -0.3730 -2.2350
  853MOL0     H12554   7.675   0.926   0.998  0.6484  0.9736  2.2297
  853MOL0     H12555   7.787   0.804   0.945 -1.8741 -0.1408 -1.1631
  853MOL0     H12556   7.572   0.758   1.161  0.5826  0.6121 -0.0018
  853MOL0     H12557   7.681   0.640   1.089  0.4653 -0.4171  0.8218
  853MOL0     H12558   7.334   0.709   0.781  1.6766 -0.2017  0.7232
  853MOL0     H12559   7.104   0.623   0.819 -1.8934  1.5871  1.4987
  853MOL0     H12560   6.734   0.626   0.858  3.8150 -0.2167  0.7189
  853MOL0     H12561   6.507   0.541   0.780  1.4902  1.6246 -0.5035
  853MOL0     H12562   6.382   0.105   0.874  0.8568  0.8750 -0.0142
  853MOL0     H12563   6.460   0.102   0.713  1.0940  0.0793  1.2355
  853MOL0     H12564   6.265   0.213   0.626 -0.6899 -1.1781 -0.4659
  853MOL0     H12565   6.188   0.234   0.782  0.9562  0.9190 -1.0559
  853MOL0     H12566   6.197  -0.040   0.777  0.0548 -1.1237 -0.0456
  853MOL0     H12567   6.233  -0.010   0.608 -0.5574 -1.0403  0.5829
  853MOL0     H12568   6.005   0.100   0.774  1.8709  0.0524  1.0051
  853MOL0     H12569   6.013   0.135   0.603 -2.0929  0.9471  2.5789
  853MOL0     H12570   5.839  -0.028   0.704  0.0088 -0.9758  0.7554
  853MOL0     H12571   5.974  -0.143   0.718 -2.8653 -0.0925  2.1196
  853MOL0     H12572   6.023  -0.117   0.480 -0.4034 -0.4474 -1.5149
  853MOL0     H12573   5.890  -0.002   0.459 -0.5458  0.5656  0.2205
  853MOL0     H12574   5.734  -0.185   0.560 -1.3958  1.6523 -1.1217
  853MOL0     H12575   5.775  -0.196   0.389 -0.4039 -3.4079  0.1069
  853MOL0     H12576   5.776  -0.414   0.508  0.2238 -1.6886 -0.9173
  853MOL0     H12577   5.900  -0.342   0.618 -1.7266  2.0938 -0.1181
  853MOL0     H12578   6.643   0.142   0.889 -0.0994 -1.1056  2.0412
  853MOL0     H12579   6.860   0.238   0.958  1.0491 -0.7085 -0.9004
  853MOL0     H12580   7.236   0.435   1.182  1.8239  0.0421  0.5232
  853MOL0     H12581   7.455   0.538   1.154 -0.7511 -3.8620  0.1160
  853MOL0     H12582   6.380   1.336   0.760 -2.2887  0.9402 -1.0107
  853MOL0     H12583   6.182   1.225   0.671 -0.3020 -1.3861 -1.3350
  853MOL0     H12584   6.041   0.848   0.369 -0.1219 -0.1348  1.0969
  853MOL0     H12585   5.854   0.739   0.278  0.7737  0.2290 -0.2844
  853MOL0     H12586   5.484   0.990   0.161  0.1758 -0.4205 -0.2885
  853MOL0     H12587   5.430   0.827   0.144 -0.1077  1.1132  0.9717
  853MOL0     H12588   5.635   0.964  -0.042 -0.3914  0.6429  1.5207
  853MOL0     H12589   5.599   0.801  -0.060  0.6559  1.2723 -3.5574
  853MOL0     H12590   5.350   0.885  -0.078 -0.2168  1.2903  2.6496
  853MOL0     H12591   5.464   0.897  -0.217 -1.1075  0.5310 -0.2932
  853MOL0     H12592   5.422   1.127  -0.030 -0.8186  2.6521 -0.5477
  853MOL0     H12593   5.531   1.109  -0.172 -0.6831  1.0932  0.6449
  853MOL0     H12594   5.163   1.092  -0.383  1.0873  1.0724 -1.3028
  853MOL0     H12595   5.627   1.108   0.256  0.2051 -0.5227 -1.2155
  853MOL0     H12596   5.813   1.220   0.351  0.6618  0.8660 -1.9577
  854MOL0     O12597   4.283   1.961  10.446  0.5228 -0.0207  0.8015
  854MOL0     C12598   4.288   1.931  10.560 -0.1987  0.0449  0.0095
  854MOL0     O12599   4.209   1.824  10.617 -0.1285  0.1300 -0.1315
  854MOL0     C12600   4.115   1.762  10.543  0.0105  1.0844 -0.8345
  854MOL0     C12601   3.978   1.801  10.541 -1.2924  0.1648 -0.1928
  854MOL0     C12602   3.873   1.727  10.480 -0.0145  0.0555 -0.1419
  854MOL0     C12603   3.906   1.601  10.422  0.2350  0.8391 -0.3475
  854MOL0     O12604   3.815   1.512  10.379 -0.1683 -0.8082  0.0417
  854MOL0     C12605   3.675   1.539  10.375  1.2343  1.0263 -0.3461
  854MOL0     C12606   3.610   1.402  10.324 -0.0835 -0.1436  0.3762
  854MOL0     C12607   3.468   1.419  10.266 -0.1052 -0.8100 -0.3892
  854MOL0     C12608   3.411   1.286  10.222  0.1550 -0.4614 -1.0374
  854MOL0     C12609   3.261   1.303  10.189  0.0106 -1.1070 -0.0970
  854MOL0     C12610   3.170   1.336  10.305 -0.6593  0.0257  0.0083
  854MOL0     C12611   3.021   1.328  10.254  0.1433  0.1065  0.3964
  854MOL0     C12612   2.961   1.190  10.245 -0.1012  0.3134  0.0996
  854MOL0     N12613   2.914   1.158  10.385  0.4822  0.6120 -0.2516
  854MOL0     C12614   2.785   1.122  10.425  0.1836  0.0976  0.5797
  854MOL0     C12615   2.797   1.082  10.552 -0.6859 -0.6135  0.0418
  854MOL0     C12616   2.689   1.045  10.655  0.0299 -0.1189 -0.2105
  854MOL0     C12617   2.548   1.090  10.623 -0.6352  0.2103  0.1278
  854MOL0     C12618   2.530   1.229  10.678  0.7390 -0.0742 -0.8294
  854MOL0     C12619   2.407   1.310  10.627 -0.8392  0.0254 -0.5636
  854MOL0     O12620   2.297   1.223  10.653 -0.3834 -0.5435  0.0733
  854MOL0     C12621   2.169   1.266  10.631  0.3977 -0.4487  0.8046
  854MOL0     C12622   2.060   1.202  10.678 -0.6856  0.1261  0.1246
  854MOL0     C12623   1.927   1.235  10.660 -0.5452  0.2240 -0.5493
  854MOL0     C12624   1.895   1.353  10.581 -1.0985  0.6162  0.1119
  854MOL0     C12625   1.761   1.408  10.562  0.8879  0.3697  0.0879
  854MOL0     O12626   1.667   1.340  10.627 -0.5621  0.9164  0.2447
  854MOL0     C12627   1.545   1.400  10.607  0.4531  0.5202  0.2271
  854MOL0     C12628   1.508   1.524  10.657 -0.2416 -0.1963 -0.0472
  854MOL0     C12629   1.381   1.571  10.647  0.0516 -0.3180  1.1764
  854MOL0     C12630   1.279   1.500  10.572 -1.0112  0.9175  0.5635
  854MOL0     O12631   1.151   1.553  10.567 -0.1750 -0.2876 -0.5557
  854MOL0     C12632   1.055   1.487  10.487  0.5374  0.9106 -0.4294
  854MOL0     C12633   0.922   1.559  10.508 -0.0865 -0.9680 -1.4646
  854MOL0     C12634   0.805   1.480  10.453  0.5078  0.4497 -0.7686
  854MOL0     C12635   0.676   1.562  10.486 -0.5341  0.2705 -1.0808
  854MOL0     C12636   0.551   1.504  10.441  0.4038  0.0816 -0.0706
  854MOL0     C12637   0.559   1.493  10.288  0.4799 -0.4995 -0.3044
  854MOL0     C12638   0.429   1.453  10.233  0.7534 -1.2692  0.0821
  854MOL0     C12639   0.443   1.414  10.083 -0.0262  0.1744  0.1763
  854MOL0    Cl12640   0.284   1.346  10.031 -0.2166 -0.1902  0.0687
  854MOL0     C12641   1.319   1.378  10.520  0.2409  0.5654 -0.2905
  854MOL0     C12642   1.449   1.329  10.533 -0.1462  0.5230 -0.5512
  854MOL0     O12643   1.745   1.508  10.500  0.3609 -0.0537  0.5253
  854MOL0     C12644   2.008   1.411  10.510  0.1896  0.5072  0.3580
  854MOL0     C12645   2.140   1.370  10.541 -0.7236  0.0464  0.3232
  854MOL0     N12646   2.931   1.066  10.581 -0.2126  0.0978 -0.0994
  854MOL0     N12647   2.999   1.113  10.480  0.2279  1.0442 -0.4295
  854MOL0     C12648   4.039   1.563  10.421  0.7276  0.1435 -0.5914
  854MOL0     C12649   4.143   1.635  10.483  0.0668 -0.9696  0.6101
  854MOL0     C12650   4.381   2.000  10.650  0.4107 -0.0150  0.1626
  854MOL0     C12651   4.415   1.945  10.773  0.0490 -0.0086  0.4472
  854MOL0     C12652   4.520   1.998  10.849 -0.7649 -0.5973  0.3045
  854MOL0     C12653   4.583   2.110  10.806 -0.0030 -0.5811  0.4742
  854MOL0     O12654   4.682   2.164  10.882 -0.3329 -0.4699 -0.9700
  854MOL0     C12655   4.752   2.283  10.845  0.1327 -0.2438  0.3228
  854MOL0     C12656   4.840   2.293  10.723  0.3605  0.1977 -0.0944
  854MOL0     C12657   4.964   2.206  10.745 -0.5335  0.0327  0.7234
  854MOL0     C12658   5.029   2.184  10.611 -0.2127 -0.1246 -0.8398
  854MOL0     C12659   5.080   2.310  10.548  0.2978 -0.0047  0.7935
  854MOL0     C12660   5.122   2.402  10.483 -0.2290 -0.4542 -0.7175
  854MOL0     C12661   4.538   2.183  10.694  0.7195  0.4451  0.3973
  854MOL0     C12662   4.436   2.121  10.616 -0.4035  0.4648 -0.8472
  854MOL0     H12663   3.952   1.892  10.595 -0.8044 -0.3108  0.8755
  854MOL0     H12664   3.775   1.774  10.482  0.5289  1.2539  2.4735
  854MOL0     H12665   3.657   1.621  10.305 -0.8553  1.6383  0.8416
  854MOL0     H12666   3.624   1.572  10.465  1.9448  0.7752  0.1582
  854MOL0     H12667   3.605   1.327  10.403  2.8364  0.9619  1.7494
  854MOL0     H12668   3.676   1.358  10.248 -0.7181 -2.2298  0.9749
  854MOL0     H12669   3.484   1.492  10.187  0.9565  0.8662  1.3061
  854MOL0     H12670   3.412   1.474  10.342  1.0282 -1.1814  0.7413
  854MOL0     H12671   3.466   1.236  10.142  3.3589 -1.4020  1.5038
  854MOL0     H12672   3.425   1.222  10.310  0.9773  0.9348 -0.1202
  854MOL0     H12673   3.223   1.206  10.156  0.2233 -1.9687  2.0915
  854MOL0     H12674   3.240   1.384  10.118  0.3918  1.9226  2.9882
  854MOL0     H12675   3.196   1.438  10.334  0.5691 -0.0738 -0.7062
  854MOL0     H12676   3.204   1.278  10.391  0.9400  2.6582  1.2679
  854MOL0     H12677   2.960   1.397  10.314 -0.3004  0.2198 -0.1818
  854MOL0     H12678   3.018   1.365  10.151  2.2374 -2.9778 -0.9154
  854MOL0     H12679   3.037   1.119  10.213  0.8292  0.6381  1.4703
  854MOL0     H12680   2.877   1.182  10.176  0.1485 -0.9385 -0.0837
  854MOL0     H12681   2.690   1.135  10.375 -0.5204 -0.5772  1.7095
  854MOL0     H12682   2.723   1.075  10.755 -0.2358 -0.8201  0.0982
  854MOL0     H12683   2.681   0.936  10.643 -2.2446  0.2684 -3.4841
  854MOL0     H12684   2.472   1.024  10.668 -2.4034  0.8552 -1.7912
  854MOL0     H12685   2.525   1.089  10.516 -0.4514 -1.2928  0.0733
  854MOL0     H12686   2.517   1.223  10.786  0.8028 -0.1773 -0.8265
  854MOL0     H12687   2.617   1.295  10.673 -0.6681  2.1324  1.5698
  854MOL0     H12688   2.428   1.339  10.524  2.9923  1.5091  0.4581
  854MOL0     H12689   2.396   1.397  10.692 -1.6497 -1.6356  1.6422
  854MOL0     H12690   2.081   1.108  10.729  1.6597 -0.1199 -1.1753
  854MOL0     H12691   1.856   1.167  10.708  2.6330 -3.9748 -1.2081
  854MOL0     H12692   1.578   1.581  10.718  1.0572  0.8863 -2.4289
  854MOL0     H12693   1.375   1.668  10.695  0.6762  1.0520 -1.3905
  854MOL0     H12694   1.045   1.383  10.517 -1.0034  1.3292  0.6311
  854MOL0     H12695   1.083   1.497  10.382  1.4329  0.0784 -0.2819
  854MOL0     H12696   0.932   1.655  10.456 -0.2671 -0.9504 -1.4664
  854MOL0     H12697   0.909   1.576  10.615  3.3621 -2.9640 -0.5722
  854MOL0     H12698   0.792   1.379  10.494 -2.7658 -0.0049 -2.5912
  854MOL0     H12699   0.826   1.477  10.346  1.1195  1.8232 -0.7070
  854MOL0     H12700   0.665   1.574  10.594  0.5679  0.9953 -1.0239
  854MOL0     H12701   0.685   1.662  10.441 -1.0611  2.0126  2.3489
  854MOL0     H12702   0.475   1.575  10.473 -0.8559 -0.4307 -1.7594
  854MOL0     H12703   0.530   1.406  10.485  0.4663 -0.5984 -1.4783
  854MOL0     H12704   0.638   1.421  10.268  1.1921  0.4312 -0.9279
  854MOL0     H12705   0.591   1.588  10.243  0.4610 -0.8186 -0.9895
  854MOL0     H12706   0.380   1.373  10.288 -1.1601 -0.1414  0.1072
  854MOL0     H12707   0.366   1.543  10.241  2.2755 -0.0373 -1.0899
  854MOL0     H12708   0.519   1.338  10.063 -0.3509  0.0172 -0.4800
  854MOL0     H12709   0.465   1.508  10.030 -0.4892  1.0602  1.5104
  854MOL0     H12710   1.242   1.310  10.486 -2.7212  2.1406  2.7404
  854MOL0     H12711   1.473   1.237  10.481  1.7254  1.7286 -1.9851
  854MOL0     H12712   1.997   1.499  10.447  0.0220 -0.2242 -0.6685
  854MOL0     H12713   2.225   1.421  10.496  0.0417 -1.6951 -0.3120
  854MOL0     H12714   4.060   1.468  10.371  0.6655 -1.0105  1.4848
  854MOL0     H12715   4.242   1.592  10.476  1.6266  2.5452 -2.7987
  854MOL0     H12716   4.359   1.857  10.805 -0.6773 -0.1913 -1.2190
  854MOL0     H12717   4.561   1.956  10.940  1.1871  1.8022  0.6574
  854MOL0     H12718   4.822   2.317  10.921  5.2410 -0.1140 -3.8469
  854MOL0     H12719   4.684   2.368  10.828  1.4574  0.7464 -0.1881
  854MOL0     H12720   4.789   2.262  10.631  0.9111  1.0497 -0.7038
  854MOL0     H12721   4.871   2.396  10.703 -0.5092  0.6336  0.7557
  854MOL0     H12722   4.934   2.113  10.795  0.5031 -0.7253 -0.0335
  854MOL0     H12723   5.034   2.245  10.819 -0.1555  0.7637  0.0006
  854MOL0     H12724   5.119   2.126  10.633 -0.2195  0.6515  1.4486
  854MOL0     H12725   4.968   2.122  10.544  1.9451 -2.6107 -0.6658
  854MOL0     H12726   5.147   2.484  10.418  2.1629 -1.0656 -0.6653
  854MOL0     H12727   4.571   2.279  10.657 -0.7191  0.3890 -1.1398
  854MOL0     H12728   4.422   2.166  10.518  1.1613  2.6869 -0.1273
  855MOL0     O12729   9.711  10.085   5.505 -0.1938  0.6113  0.2659
  855MOL0     C12730   9.713  10.192   5.435 -0.4103  0.1798 -0.1830
  855MOL0     O12731   9.633  10.294   5.441 -0.2774 -0.4382  0.1732
  855MOL0     C12732   9.536  10.299   5.536 -0.3176  0.2025  0.4411
  855MOL0     C12733   9.544  10.258   5.669  0.4761  0.2850 -0.9364
  855MOL0     C12734   9.438  10.285   5.751 -0.1868 -1.3094  0.1279
  855MOL0     C12735   9.319  10.336   5.700  0.6340 -0.9563  0.5512
  855MOL0     O12736   9.215  10.370   5.788 -0.7264 -0.6776  0.5993
  855MOL0     C12737   9.163  10.267   5.867 -0.3899 -0.2955 -0.2976
  855MOL0     C12738   9.038  10.321   5.945 -0.5195  0.9173 -0.1182
  855MOL0     C12739   8.911  10.230   5.953 -0.6467 -0.4925 -0.2974
  855MOL0     C12740   8.788  10.302   5.999 -0.6483 -0.7007  0.4581
  855MOL0     C12741   8.665  10.222   5.998 -0.8973  0.6308  0.5245
  855MOL0     C12742   8.552  10.271   6.076  0.6707  0.5369 -1.2781
  855MOL0     C12743   8.433  10.173   6.077 -0.2396  0.2993  0.1860
  855MOL0     C12744   8.322  10.242   6.165 -0.6604  0.2553  0.6504
  855MOL0     N12745   8.192  10.182   6.147  0.1827  0.5077 -0.6056
  855MOL0     C12746   8.164  10.051   6.179 -0.0199 -0.6185 -0.6046
  855MOL0     C12747   8.028  10.038   6.163  0.0465 -0.7590 -0.9611
  855MOL0     C12748   7.922   9.939   6.199  0.0488  0.3074  0.9903
  855MOL0     C12749   7.807   9.933   6.091 -0.5905 -0.0166  0.4651
  855MOL0     C12750   7.718   9.811   6.115  0.3347  0.2569  0.1342
  855MOL0     C12751   7.604   9.815   6.009 -0.0456  0.3912  0.1789
  855MOL0     O12752   7.526   9.694   6.039  0.1197  0.4417 -0.2341
  855MOL0     C12753   7.388   9.718   6.036 -0.1893  0.3278 -0.1406
  855MOL0     C12754   7.320   9.647   5.939 -1.0251 -0.7992 -0.5433
  855MOL0     C12755   7.179   9.635   5.945  0.1535 -0.3768  0.4372
  855MOL0     C12756   7.102   9.711   6.036  0.9031 -0.3359 -0.2845
  855MOL0     C12757   6.955   9.717   6.015  0.2562 -0.2717 -0.6952
  855MOL0     O12758   6.897   9.836   6.054  0.0090  0.5316 -0.6326
  855MOL0     C12759   6.768   9.858   6.039 -0.3905  0.4885  0.2309
  855MOL0     C12760   6.664   9.773   6.076 -0.2164  0.0059 -0.1014
  855MOL0     C12761   6.522   9.807   6.055  0.5029 -0.0582 -0.2389
  855MOL0     C12762   6.493   9.930   5.995  0.3236  0.3357 -0.1403
  855MOL0     O12763   6.369   9.981   5.965 -0.4167 -0.9182 -0.4592
  855MOL0     C12764   6.261   9.887   5.958  0.6528  0.1242 -0.2428
  855MOL0     C12765   6.135   9.961   5.895  0.2507  1.1087  0.1570
  855MOL0     C12766   6.014   9.860   5.890  0.1023  1.3271  0.0702
  855MOL0     C12767   5.898   9.935   5.836  0.0399 -0.0125 -0.4508
  855MOL0     C12768   5.764   9.850   5.808  0.2685 -0.7864 -0.4123
  855MOL0     C12769   5.654   9.951   5.808  0.0410  0.7014 -0.1746
  855MOL0     C12770   5.521   9.884   5.775  0.4244 -0.3861 -0.4764
  855MOL0     C12771   5.418   9.992   5.733 -0.2643  0.0686 -0.2034
  855MOL0    Cl12772   5.397  10.116   5.848  0.2713 -0.2095 -0.7874
  855MOL0     C12773   6.601  10.024   5.959 -0.3791  0.2166  0.3190
  855MOL0     C12774   6.731   9.985   5.985  0.2187 -0.7401 -0.3239
  855MOL0     O12775   6.897   9.623   5.958 -0.0442  0.0117 -0.6105
  855MOL0     C12776   7.172   9.797   6.131 -0.8634  0.0993 -0.7489
  855MOL0     C12777   7.310   9.791   6.133 -0.0332 -0.6229 -0.3929
  855MOL0     N12778   7.986  10.161   6.116 -0.3490  0.2638  0.0384
  855MOL0     N12779   8.078  10.245   6.107 -0.2572 -0.3097 -0.7875
  855MOL0     C12780   9.306  10.365   5.561  0.0010  0.5322 -0.0020
  855MOL0     C12781   9.422  10.343   5.482 -0.0485  0.4392 -0.2804
  855MOL0     C12782   9.824  10.196   5.331  0.4521  0.3289  0.2639
  855MOL0     C12783   9.815  10.279   5.213  0.6792 -0.4188 -1.2740
  855MOL0     C12784   9.925  10.272   5.128  0.6547  1.0424 -1.1280
  855MOL0     C12785  10.032  10.188   5.141  0.4755  0.1621  0.5743
  855MOL0     O12786  10.139  10.200   5.049  0.6072  0.8088  0.0825
  855MOL0     C12787  10.257  10.122   5.058 -0.0117 -0.3933  0.1225
  855MOL0     C12788  10.355  10.164   5.162 -0.0143 -0.0136 -0.0403
  855MOL0     C12789  10.400  10.312   5.152  1.0441 -0.4360 -0.1437
  855MOL0     C12790  10.542  10.332   5.200 -0.3250 -0.4124 -0.5875
  855MOL0     C12791  10.642  10.268   5.113  0.4200  0.6714 -1.0849
  855MOL0     C12792  10.731  10.205   5.059  0.7498  0.5270  0.0968
  855MOL0     C12793  10.036  10.105   5.256 -0.1340  0.4253  0.0407
  855MOL0     C12794   9.930  10.107   5.351  0.0468  0.2841  0.2809
  855MOL0     H12795   9.634  10.218   5.715 -0.1129 -0.6106 -0.5266
  855MOL0     H12796   9.448  10.264   5.857  3.0891  0.7355  0.3609
  855MOL0     H12797   9.246  10.242   5.934  1.5905  4.5485 -0.5462
  855MOL0     H12798   9.118  10.192   5.801 -3.4093  1.1598 -0.0982
  855MOL0     H12799   9.015  10.416   5.897 -1.4155 -0.0791 -1.7228
  855MOL0     H12800   9.065  10.352   6.047 -2.6222 -1.6141  1.3391
  855MOL0     H12801   8.937  10.156   6.029 -0.2813 -0.1788 -0.1166
  855MOL0     H12802   8.897  10.193   5.851 -3.5690  3.1373 -1.4427
  855MOL0     H12803   8.806  10.327   6.104 -0.2136 -3.1801  1.0392
  855MOL0     H12804   8.785  10.396   5.943  0.2368 -0.1718  1.2625
  855MOL0     H12805   8.697  10.123   6.035 -1.5595 -0.5824 -1.9336
  855MOL0     H12806   8.641  10.208   5.892  1.6771 -0.9275  0.0491
  855MOL0     H12807   8.529  10.364   6.022  0.8279  0.0195 -2.2557
  855MOL0     H12808   8.578  10.295   6.180  2.1018 -0.9302 -1.2513
  855MOL0     H12809   8.395  10.154   5.976  2.5460 -3.2263 -0.3875
  855MOL0     H12810   8.458  10.070   6.104  1.0277  0.7689  0.8593
  855MOL0     H12811   8.315  10.346   6.132 -0.0743  0.5434  1.4088
  855MOL0     H12812   8.358  10.249   6.268 -0.4648  0.0422  0.5994
  855MOL0     H12813   8.235   9.980   6.220 -2.4864 -1.7217  2.1247
  855MOL0     H12814   7.883   9.953   6.300 -0.5737 -0.1881  0.8239
  855MOL0     H12815   7.979   9.846   6.202  0.3913  0.5179  0.9844
  855MOL0     H12816   7.857   9.928   5.994  0.9027  1.9440  1.0643
  855MOL0     H12817   7.749  10.026   6.091 -0.2530  0.2087 -0.5004
  855MOL0     H12818   7.783   9.723   6.118  1.1765  0.8215 -0.7272
  855MOL0     H12819   7.673   9.817   6.215 -0.4417 -0.0915 -0.1906
  855MOL0     H12820   7.640   9.803   5.907  1.5359  2.5370  0.4252
  855MOL0     H12821   7.547   9.909   6.005 -1.4939 -0.2763  2.8300
  855MOL0     H12822   7.383   9.585   5.876  1.1269  1.0209 -0.3119
  855MOL0     H12823   7.130   9.565   5.879 -0.8026  0.6138  0.0825
  855MOL0     H12824   6.699   9.684   6.126  0.1372  1.2780  2.0287
  855MOL0     H12825   6.441   9.738   6.071  0.0421  0.2483 -1.1802
  855MOL0     H12826   6.244   9.849   6.059 -1.8637 -2.7014 -1.5726
  855MOL0     H12827   6.279   9.802   5.892 -3.7586  2.3094 -4.9865
  855MOL0     H12828   6.160   9.989   5.792 -0.0521  0.1899 -0.1764
  855MOL0     H12829   6.102  10.048   5.952 -0.5668  0.0718  1.3026
  855MOL0     H12830   5.992   9.825   5.991  0.5115  0.1218 -0.2379
  855MOL0     H12831   6.038   9.774   5.827  0.8853  0.6048  1.3242
  855MOL0     H12832   5.874  10.012   5.910  3.0507  2.2824 -1.6528
  855MOL0     H12833   5.935   9.985   5.746  0.6388  2.0125  0.8630
  855MOL0     H12834   5.737   9.790   5.895  0.0285  0.4790  0.4124
  855MOL0     H12835   5.776   9.793   5.715 -0.6195 -0.6252 -0.6374
  855MOL0     H12836   5.657  10.037   5.740  0.6267  0.6564 -0.2069
  855MOL0     H12837   5.656   9.996   5.907  1.7743 -2.1721  1.2389
  855MOL0     H12838   5.530   9.803   5.703  0.0922 -1.2954  0.4844
  855MOL0     H12839   5.468   9.845   5.863  0.9758  0.6517  0.3408
  855MOL0     H12840   5.324   9.937   5.719  0.9393 -2.2365  0.3487
  855MOL0     H12841   5.454  10.030   5.637  0.5760 -2.3564 -0.9039
  855MOL0     H12842   6.565  10.105   5.897 -5.5993  0.2490  2.8231
  855MOL0     H12843   6.811  10.051   5.957  1.6141 -1.6644  1.2891
  855MOL0     H12844   7.125   9.868   6.198 -1.8083 -1.9497  0.8516
  855MOL0     H12845   7.344   9.850   6.217 -2.0631 -3.6993  2.9049
  855MOL0     H12846   9.211  10.400   5.522  0.4615  0.8769 -0.8442
  855MOL0     H12847   9.418  10.354   5.374 -1.4707 -2.8753 -0.6844
  855MOL0     H12848   9.753  10.364   5.189 -0.9985 -1.3472 -0.4239
  855MOL0     H12849   9.912  10.345   5.048 -0.4745  0.0917 -1.8306
  855MOL0     H12850  10.311  10.124   4.963  0.7909 -0.3541  0.5645
  855MOL0     H12851  10.247  10.015   5.077  3.1677 -1.1036 -1.4104
  855MOL0     H12852  10.306  10.145   5.258 -1.2317 -0.9995 -0.8279
  855MOL0     H12853  10.442  10.098   5.154  0.2325  0.4969 -2.0789
  855MOL0     H12854  10.337  10.368   5.222 -0.2687 -1.3043 -0.5807
  855MOL0     H12855  10.382  10.351   5.052 -0.9563 -0.7498  0.0480
  855MOL0     H12856  10.575  10.437   5.206 -0.9099 -0.3047  1.9223
  855MOL0     H12857  10.549  10.293   5.302 -1.0086 -1.2494 -0.8501
  855MOL0     H12858  10.809  10.154   5.007 -0.5199 -1.6022  0.1461
  855MOL0     H12859  10.128  10.054   5.284 -0.0381  0.2926 -0.5106
  855MOL0     H12860   9.933  10.038   5.435 -2.5053  0.5186  0.6428
  856MOL0     O12861   0.935   5.169   3.267 -0.4187 -0.3977 -0.0093
  856MOL0     C12862   1.014   5.245   3.210 -0.7867 -0.3292 -0.6080
  856MOL0     O12863   0.991   5.377   3.180 -0.1534 -0.0949 -0.2341
  856MOL0     C12864   0.867   5.427   3.211  0.2952  0.9889 -0.1709
  856MOL0     C12865   0.862   5.523   3.306  0.7288 -0.7914  0.2917
  856MOL0     C12866   0.733   5.582   3.335  0.1870  1.1229 -0.5653
  856MOL0     C12867   0.612   5.548   3.270 -0.8176  0.0926  1.1475
  856MOL0     O12868   0.506   5.628   3.303 -0.3180  0.4093 -0.5813
  856MOL0     C12869   0.379   5.572   3.283  0.5667  0.2354  0.6424
  856MOL0     C12870   0.283   5.639   3.372 -0.0983 -0.2111 -0.0386
  856MOL0     C12871   0.164   5.543   3.364  0.1829 -0.1182 -0.7554
  856MOL0     C12872   0.033   5.602   3.414  1.2007  0.4405 -0.5992
  856MOL0     C12873  -0.071   5.488   3.406  0.0916 -0.0385 -0.7668
  856MOL0     C12874  -0.202   5.520   3.477 -0.3557  0.1781 -0.7118
  856MOL0     C12875  -0.317   5.436   3.423  0.4515 -0.0693  0.2365
  856MOL0     C12876  -0.453   5.479   3.481 -1.0168 -0.3032  0.7560
  856MOL0     N12877  -0.506   5.613   3.437 -0.2787 -0.1591  0.3515
  856MOL0     C12878  -0.580   5.640   3.329 -0.4427 -0.6161  0.1677
  856MOL0     C12879  -0.603   5.774   3.339  0.0239  0.4680  0.1093
  856MOL0     C12880  -0.680   5.850   3.242  1.0523  1.1267 -0.1293
  856MOL0     C12881  -0.830   5.874   3.285 -0.4874 -0.9373 -0.0217
  856MOL0     C12882  -0.899   5.747   3.345 -0.5444  0.9594 -0.2238
  856MOL0     C12883  -1.049   5.773   3.385 -0.0493  0.3095  0.4343
  856MOL0     O12884  -1.047   5.878   3.478 -0.3007 -0.0873  0.5944
  856MOL0     C12885  -1.165   5.911   3.543 -0.2728  0.3078  0.5640
  856MOL0     C12886  -1.164   6.002   3.648  0.7642 -0.2754 -0.9322
  856MOL0     C12887  -1.281   6.057   3.701  0.6565  0.1087 -0.4521
  856MOL0     C12888  -1.404   6.019   3.649  0.0051 -0.3011 -0.0699
  856MOL0     C12889  -1.528   6.075   3.705  0.4229  0.0904 -0.3464
  856MOL0     O12890  -1.643   6.011   3.675  0.4981  0.2192  0.2497
  856MOL0     C12891  -1.762   6.069   3.719 -0.3437  0.5776  0.3855
  856MOL0     C12892  -1.795   6.056   3.854 -0.0741  0.4942  0.4011
  856MOL0     C12893  -1.920   6.094   3.906  0.6583  1.0116  0.0954
  856MOL0     C12894  -2.014   6.161   3.819 -0.8805 -0.6664  0.4728
  856MOL0     O12895  -2.134   6.218   3.861 -0.1991 -0.3642  0.1352
  856MOL0     C12896  -2.184   6.184   3.992 -0.3963  0.3109  0.2221
  856MOL0     C12897  -2.342   6.203   3.999 -0.8979 -0.2270  0.1842
  856MOL0     C12898  -2.404   6.334   3.939 -0.5779  0.0549 -0.0250
  856MOL0     C12899  -2.554   6.320   3.926 -0.3813 -0.1032  0.3426
  856MOL0     C12900  -2.630   6.460   3.909  1.1773  0.6237 -0.8557
  856MOL0     C12901  -2.778   6.432   3.919 -0.0337  0.4591  0.4102
  856MOL0     C12902  -2.858   6.559   3.918 -0.0282 -0.1110 -0.0664
  856MOL0     C12903  -3.016   6.547   3.912  0.0404  0.4992  0.0024
  856MOL0    Cl12904  -3.061   6.453   4.065  0.3885  0.0677 -0.0139
  856MOL0     C12905  -1.977   6.177   3.687  0.8219 -0.2820  0.4460
  856MOL0     C12906  -1.857   6.124   3.634 -0.1485 -0.7515  0.5254
  856MOL0     O12907  -1.522   6.178   3.777 -0.8426  0.2419  0.4122
  856MOL0     C12908  -1.410   5.917   3.549 -0.4076 -0.5355  0.6122
  856MOL0     C12909  -1.296   5.861   3.501 -0.5541 -0.2359 -0.0833
  856MOL0     N12910  -0.540   5.831   3.444  0.2502  0.0028 -0.3316
  856MOL0     N12911  -0.477   5.734   3.501  0.2508 -0.8003 -0.5504
  856MOL0     C12912   0.627   5.442   3.175  0.2307 -0.2379 -0.1278
  856MOL0     C12913   0.749   5.380   3.154  0.8285  0.5272  0.1162
  856MOL0     C12914   1.135   5.189   3.157 -0.2375  0.2714  0.0282
  856MOL0     C12915   1.176   5.050   3.186 -0.1358 -0.0996  0.0598
  856MOL0     C12916   1.300   4.998   3.141  0.7600 -0.2796 -0.7970
  856MOL0     C12917   1.390   5.080   3.072 -0.2613  0.4726 -0.3276
  856MOL0     O12918   1.516   5.037   3.022 -0.8157  0.5706 -0.6436
  856MOL0     C12919   1.536   4.891   3.022 -0.3759  0.2835  0.6301
  856MOL0     C12920   1.661   4.869   2.928  0.1120  0.6704 -0.6710
  856MOL0     C12921   1.631   4.899   2.779  0.1871 -0.2385 -0.6769
  856MOL0     C12922   1.735   4.849   2.684 -0.1239  0.0403 -0.3845
  856MOL0     C12923   1.830   4.954   2.666 -0.3354  0.5312  0.0268
  856MOL0     C12924   1.899   5.058   2.664  0.3022 -0.6444 -0.1186
  856MOL0     C12925   1.353   5.210   3.044 -0.5473  0.3542 -0.3660
  856MOL0     C12926   1.229   5.266   3.081  0.1400 -0.1392  1.0120
  856MOL0     H12927   0.951   5.567   3.348  0.4259  0.4376 -0.2938
  856MOL0     H12928   0.729   5.661   3.410  0.2070  1.6316 -1.0965
  856MOL0     H12929   0.379   5.464   3.300  2.3768 -0.2306 -1.8001
  856MOL0     H12930   0.349   5.577   3.178 -1.3084  3.7124  1.1763
  856MOL0     H12931   0.270   5.736   3.322 -0.7498  1.1366  2.5715
  856MOL0     H12932   0.314   5.650   3.476 -0.5997  1.1669 -0.0180
  856MOL0     H12933   0.201   5.453   3.413  3.5808  0.4832 -1.9206
  856MOL0     H12934   0.150   5.520   3.257  1.5566  0.3517 -1.0504
  856MOL0     H12935   0.044   5.632   3.519  1.1973 -1.4758 -0.0203
  856MOL0     H12936   0.004   5.686   3.349 -1.6234 -1.1992 -1.6465
  856MOL0     H12937  -0.024   5.400   3.450  1.3112  0.7676 -0.4168
  856MOL0     H12938  -0.093   5.467   3.301 -0.6463 -1.3435 -0.3731
  856MOL0     H12939  -0.226   5.627   3.472 -1.7226 -0.0232  0.8123
  856MOL0     H12940  -0.191   5.490   3.581 -1.5332 -0.6031 -0.7919
  856MOL0     H12941  -0.324   5.434   3.314 -0.6812 -2.5277  0.2950
  856MOL0     H12942  -0.306   5.334   3.461  1.5010  0.3403  1.0598
  856MOL0     H12943  -0.428   5.474   3.587  0.0861 -1.2306  0.4771
  856MOL0     H12944  -0.533   5.407   3.468 -0.7993 -0.5573  0.8011
  856MOL0     H12945  -0.611   5.567   3.255 -1.9102 -0.3130  0.4674
  856MOL0     H12946  -0.688   5.792   3.149 -0.3867  1.7441 -0.4209
  856MOL0     H12947  -0.622   5.938   3.211  2.8149 -0.2450 -0.9399
  856MOL0     H12948  -0.878   5.905   3.192  1.4212  0.0450 -0.7357
  856MOL0     H12949  -0.809   5.957   3.352  4.9611 -1.7184 -0.2301
  856MOL0     H12950  -0.901   5.674   3.263 -0.5790 -0.3925  0.9563
  856MOL0     H12951  -0.845   5.703   3.429 -1.8733 -1.1047 -0.3718
  856MOL0     H12952  -1.089   5.680   3.428 -2.1387  0.3460 -1.2504
  856MOL0     H12953  -1.110   5.803   3.299  0.0419 -0.9772 -0.1056
  856MOL0     H12954  -1.063   6.032   3.675  0.9248 -1.9643  0.5243
  856MOL0     H12955  -1.283   6.130   3.781  2.4715 -2.0098  1.7153
  856MOL0     H12956  -1.724   5.994   3.907 -1.2666 -1.6116 -0.3336
  856MOL0     H12957  -1.954   6.094   4.009 -2.1827  5.1913 -0.5488
  856MOL0     H12958  -2.131   6.244   4.066 -1.8016  0.0782  1.4436
  856MOL0     H12959  -2.163   6.079   4.011  1.3078  1.0222  2.9178
  856MOL0     H12960  -2.380   6.196   4.102 -1.4379 -0.6374 -0.0399
  856MOL0     H12961  -2.384   6.128   3.932  1.3563 -0.6609 -0.8544
  856MOL0     H12962  -2.377   6.355   3.835  1.3185  0.8511  0.5752
  856MOL0     H12963  -2.377   6.417   4.003  0.7515 -0.0830 -0.3719
  856MOL0     H12964  -2.573   6.251   3.843  2.3521  0.8946 -1.2558
  856MOL0     H12965  -2.585   6.264   4.014 -1.5046 -0.3183 -0.1687
  856MOL0     H12966  -2.608   6.502   3.811  0.0350 -1.1773 -1.9369
  856MOL0     H12967  -2.602   6.525   3.993 -0.8393 -0.5069  0.7824
  856MOL0     H12968  -2.800   6.381   4.013  1.7037 -2.8815 -0.8221
  856MOL0     H12969  -2.793   6.363   3.835  1.1477  0.5418  0.1110
  856MOL0     H12970  -2.838   6.613   4.010  4.9465 -2.3233  0.4727
  856MOL0     H12971  -2.830   6.613   3.827  1.7112 -1.5117 -0.4265
  856MOL0     H12972  -3.044   6.498   3.819 -0.0228  4.1434 -2.0973
  856MOL0     H12973  -3.060   6.647   3.920  1.8192  1.6257 -2.6774
  856MOL0     H12974  -2.046   6.218   3.614 -0.2987 -3.8338 -0.6929
  856MOL0     H12975  -1.831   6.121   3.529 -1.3822 -1.3649  0.2134
  856MOL0     H12976  -1.500   5.882   3.501  1.9258 -2.2084 -3.0023
  856MOL0     H12977  -1.312   5.781   3.429 -0.5277  0.0529 -0.4127
  856MOL0     H12978   0.540   5.408   3.121  0.5602  0.5961 -1.2244
  856MOL0     H12979   0.759   5.302   3.079  3.1276 -0.1672  1.0395
  856MOL0     H12980   1.105   4.988   3.240 -2.6873  0.7880 -2.0384
  856MOL0     H12981   1.318   4.892   3.155 -1.0502 -0.6396 -0.9010
  856MOL0     H12982   1.455   4.832   2.978  2.1740 -2.6964 -0.3966
  856MOL0     H12983   1.552   4.865   3.127  1.4657  4.1938  1.4876
  856MOL0     H12984   1.747   4.928   2.959 -1.7608  3.0248  0.3868
  856MOL0     H12985   1.685   4.762   2.936 -0.0600  0.6238 -0.7621
  856MOL0     H12986   1.607   5.005   2.766  0.5858 -0.1122 -0.3993
  856MOL0     H12987   1.541   4.840   2.758 -1.8049  2.5654 -0.5609
  856MOL0     H12988   1.782   4.759   2.724  0.9574  1.7433  2.4938
  856MOL0     H12989   1.685   4.830   2.589 -1.9996  3.6526 -0.2887
  856MOL0     H12990   1.951   5.151   2.680  0.3169 -0.9240  1.7383
  856MOL0     H12991   1.427   5.270   2.992  0.1397  0.7962  1.0802
  856MOL0     H12992   1.212   5.365   3.040  0.0813 -1.2791 -1.9173
  857MOL0     O12993   1.463   4.047   1.854 -0.1879  0.4742  0.6704
  857MOL0     C12994   1.515   3.935   1.823  0.6826  0.1438 -0.7731
  857MOL0     O12995   1.439   3.826   1.795 -0.3348  0.7563 -0.7194
  857MOL0     C12996   1.307   3.832   1.822  0.1289 -0.0617 -0.0662
  857MOL0     C12997   1.213   3.856   1.725 -0.1699 -0.5924  0.0814
  857MOL0     C12998   1.075   3.847   1.754 -0.9406  0.4340 -0.0516
  857MOL0     C12999   1.036   3.800   1.876  0.3572 -0.0141  0.3973
  857MOL0     O13000   0.899   3.775   1.905 -0.0968  0.2604 -0.1279
  857MOL0     C13001   0.797   3.796   1.808  0.3180  0.3291  0.2404
  857MOL0     C13002   0.662   3.760   1.874 -0.1016 -0.7520  0.4893
  857MOL0     C13003   0.554   3.747   1.767  0.0515 -0.2184 -0.0017
  857MOL0     C13004   0.433   3.672   1.833 -0.3542  0.5310 -0.1353
  857MOL0     C13005   0.331   3.631   1.725 -0.4786 -0.4626  0.6251
  857MOL0     C13006   0.214   3.560   1.780  0.4932 -0.2788 -0.6936
  857MOL0     C13007   0.095   3.563   1.673  0.2835 -0.4091  0.8945
  857MOL0     C13008  -0.010   3.448   1.700  0.4327  0.0216 -0.7310
  857MOL0     N13009  -0.073   3.446   1.834  0.1409  0.2336 -0.1341
  857MOL0     C13010  -0.149   3.341   1.886  0.3402  0.5027  0.5987
  857MOL0     C13011  -0.216   3.382   1.992  0.2520 -0.2264  0.0879
  857MOL0     C13012  -0.323   3.317   2.075 -0.0507  0.8643 -0.2607
  857MOL0     C13013  -0.251   3.214   2.158 -0.6135  0.3184  0.2257
  857MOL0     C13014  -0.341   3.118   2.228  0.5624 -0.4985 -0.6007
  857MOL0     C13015  -0.452   3.175   2.324  0.5754 -0.2767  0.6725
  857MOL0     O13016  -0.557   3.243   2.254 -0.2932 -0.1615  0.5957
  857MOL0     C13017  -0.678   3.281   2.307 -0.1640  0.2827 -0.3060
  857MOL0     C13018  -0.783   3.316   2.220 -0.0638  0.6254 -0.5431
  857MOL0     C13019  -0.902   3.362   2.269  0.2268  0.8681 -0.2898
  857MOL0     C13020  -0.919   3.387   2.412  0.9050  0.7235  0.1594
  857MOL0     C13021  -1.053   3.435   2.462  0.0630 -0.0649  0.0106
  857MOL0     O13022  -1.048   3.461   2.598  0.6869  0.9971  0.2794
  857MOL0     C13023  -1.165   3.508   2.655  0.5668  0.4232  0.0101
  857MOL0     C13024  -1.159   3.607   2.747  0.5760 -0.8741  0.2455
  857MOL0     C13025  -1.266   3.652   2.820  0.5967 -0.3701 -0.3790
  857MOL0     C13026  -1.389   3.598   2.795 -0.0353 -0.4921 -0.3172
  857MOL0     O13027  -1.487   3.651   2.875 -0.4010  0.5391 -0.5963
  857MOL0     C13028  -1.625   3.628   2.833  0.3681 -0.2382  0.4577
  857MOL0     C13029  -1.709   3.683   2.946 -0.0485 -0.0533  0.8007
  857MOL0     C13030  -1.856   3.682   2.899 -0.3498 -0.4183  0.4291
  857MOL0     C13031  -1.963   3.744   2.995  0.3240 -0.1521  0.0781
  857MOL0     C13032  -2.102   3.719   2.948 -1.1533  0.7958 -0.2633
  857MOL0     C13033  -2.190   3.760   3.063 -0.3492  0.7685 -0.2336
  857MOL0     C13034  -2.336   3.726   3.033  0.6227 -0.8314 -0.3087
  857MOL0     C13035  -2.367   3.584   2.988 -0.2315  0.2861  0.0659
  857MOL0    Cl13036  -2.528   3.568   2.921 -0.2819 -0.4799  0.2606
  857MOL0     C13037  -1.403   3.502   2.703  0.7176  0.1303 -0.0823
  857MOL0     C13038  -1.292   3.446   2.638 -0.3382  0.0298  0.6436
  857MOL0     O13039  -1.151   3.439   2.389 -0.0153 -1.0174  0.5134
  857MOL0     C13040  -0.810   3.360   2.494  0.0506  0.7370 -0.0185
  857MOL0     C13041  -0.693   3.302   2.442  0.8047 -0.0946 -0.7068
  857MOL0     N13042  -0.198   3.523   2.004 -1.0105  0.6560 -0.2576
  857MOL0     N13043  -0.114   3.553   1.908 -0.5767  0.1206 -0.2482
  857MOL0     C13044   1.137   3.784   1.974  0.0891  0.3611  0.1546
  857MOL0     C13045   1.266   3.806   1.947  0.1215  0.5062 -0.7391
  857MOL0     C13046   1.658   3.916   1.821  0.1082  0.2872  0.0788
  857MOL0     C13047   1.754   4.021   1.832  0.3358 -0.2439  1.0804
  857MOL0     C13048   1.889   3.998   1.829 -0.0756  0.8501  0.1101
  857MOL0     C13049   1.940   3.867   1.835 -0.3627  1.3885  0.1744
  857MOL0     O13050   2.073   3.840   1.860  0.1774  0.3285  0.3586
  857MOL0     C13051   2.171   3.943   1.864 -0.0944 -0.8166  0.0206
  857MOL0     C13052   2.310   3.888   1.868 -0.3592  0.3545 -0.5937
  857MOL0     C13053   2.347   3.839   1.725  0.5631 -0.4559 -0.1164
  857MOL0     C13054   2.498   3.825   1.720  0.3991 -0.2784 -0.5086
  857MOL0     C13055   2.564   3.728   1.810  0.5233 -0.7002  0.1342
  857MOL0     C13056   2.619   3.651   1.882 -0.3098  0.4999  0.4946
  857MOL0     C13057   1.853   3.756   1.821 -0.2178  0.7777  0.0293
  857MOL0     C13058   1.715   3.780   1.804 -0.0123 -0.0893 -0.3147
  857MOL0     H13059   1.240   3.877   1.622  0.9293 -2.6371 -0.0875
  857MOL0     H13060   1.010   3.882   1.675  0.0884  1.2268 -0.5833
  857MOL0     H13061   0.814   3.729   1.723 -0.4459 -0.0456  0.3675
  857MOL0     H13062   0.796   3.901   1.779 -2.6481  0.8115  1.6659
  857MOL0     H13063   0.632   3.832   1.950  1.7816 -0.4192  0.9722
  857MOL0     H13064   0.672   3.668   1.932 -0.6845 -0.6263  0.7918
  857MOL0     H13065   0.597   3.690   1.685 -1.0600 -0.6459 -0.3104
  857MOL0     H13066   0.514   3.842   1.731 -1.7863 -0.3366  1.5423
  857MOL0     H13067   0.473   3.581   1.878 -0.8414 -1.1645 -2.9029
  857MOL0     H13068   0.390   3.727   1.916  2.0129 -0.9539  2.2263
  857MOL0     H13069   0.381   3.566   1.652  1.5389 -1.2579  2.6015
  857MOL0     H13070   0.310   3.727   1.676 -0.5262 -0.4370  0.6953
  857MOL0     H13071   0.175   3.601   1.874  0.1570 -1.8776 -0.1152
  857MOL0     H13072   0.243   3.457   1.801  2.7999  0.7045  1.3637
  857MOL0     H13073   0.060   3.664   1.694  0.6423  0.1136 -0.8227
  857MOL0     H13074   0.129   3.548   1.570 -2.8470 -0.9601 -0.1705
  857MOL0     H13075   0.034   3.348   1.692 -0.6669 -0.4330 -1.3092
  857MOL0     H13076  -0.094   3.449   1.630  0.6669 -1.3159 -1.0602
  857MOL0     H13077  -0.165   3.239   1.852 -1.3935 -0.0130  2.7340
  857MOL0     H13078  -0.391   3.259   2.012  3.1973 -0.2863 -3.0103
  857MOL0     H13079  -0.385   3.390   2.128 -0.0520 -0.1651  1.2200
  857MOL0     H13080  -0.178   3.257   2.228  0.6477 -1.8571  0.3188
  857MOL0     H13081  -0.191   3.154   2.089  0.0956 -1.5678  2.3552
  857MOL0     H13082  -0.399   3.055   2.160 -2.1093  0.8589  0.2796
  857MOL0     H13083  -0.283   3.052   2.294  0.3512 -1.1601 -1.0715
  857MOL0     H13084  -0.417   3.244   2.401 -1.2305  0.5068  0.8572
  857MOL0     H13085  -0.503   3.091   2.373  0.5476 -1.2261 -0.9135
  857MOL0     H13086  -0.768   3.313   2.112  0.9451  1.9096 -0.4480
  857MOL0     H13087  -0.987   3.374   2.204  1.2359 -0.9320 -2.0445
  857MOL0     H13088  -1.060   3.650   2.757  0.4445 -0.2468 -0.9261
  857MOL0     H13089  -1.251   3.725   2.899  0.6043 -0.8052  0.0274
  857MOL0     H13090  -1.652   3.524   2.814  1.5597 -0.0893 -2.7398
  857MOL0     H13091  -1.638   3.692   2.745  0.2815  0.0280  0.6629
  857MOL0     H13092  -1.680   3.787   2.968 -0.4491  0.3615 -0.5255
  857MOL0     H13093  -1.694   3.623   3.036  0.9762 -0.0128  0.6785
  857MOL0     H13094  -1.874   3.575   2.884  0.5318 -0.3802 -1.0966
  857MOL0     H13095  -1.858   3.710   2.793  1.7150 -2.3275 -0.2055
  857MOL0     H13096  -1.942   3.714   3.098  1.9190 -2.1065 -0.7460
  857MOL0     H13097  -1.946   3.853   2.990  3.3930 -0.5114  0.4298
  857MOL0     H13098  -2.122   3.616   2.920 -0.3601  0.6848 -0.4431
  857MOL0     H13099  -2.118   3.767   2.851  1.0001 -0.9601 -1.5634
  857MOL0     H13100  -2.174   3.867   3.075  1.4444  0.3538  1.4616
  857MOL0     H13101  -2.155   3.717   3.157  2.5887  3.1873 -0.0546
  857MOL0     H13102  -2.412   3.745   3.110  1.0952 -0.7785  0.1496
  857MOL0     H13103  -2.367   3.790   2.950 -1.0882 -1.0333  0.1417
  857MOL0     H13104  -2.340   3.524   3.075  2.5673  1.5906  0.2279
  857MOL0     H13105  -2.311   3.555   2.898  2.9534 -0.4224  2.0987
  857MOL0     H13106  -1.499   3.458   2.679  1.2895 -0.0841 -2.0986
  857MOL0     H13107  -1.301   3.357   2.575 -0.3330  1.1120 -0.9310
  857MOL0     H13108  -0.818   3.373   2.602  1.5808 -3.1282  0.7568
  857MOL0     H13109  -0.609   3.284   2.508 -0.6008 -0.6767  0.9864
  857MOL0     H13110   1.115   3.767   2.079 -1.0811  0.6093 -0.0316
  857MOL0     H13111   1.329   3.780   2.032  1.0239  1.4221 -1.1135
  857MOL0     H13112   1.708   4.119   1.841  2.8150  1.1548 -0.3281
  857MOL0     H13113   1.951   4.087   1.835  2.3698 -0.4243 -3.3368
  857MOL0     H13114   2.165   4.012   1.948 -0.0601 -0.2165 -0.4609
  857MOL0     H13115   2.163   4.012   1.779  0.3271  0.6678  1.1502
  857MOL0     H13116   2.383   3.964   1.899 -1.9859  1.1988  1.4055
  857MOL0     H13117   2.302   3.811   1.945 -3.5013  0.3379 -0.8297
  857MOL0     H13118   2.307   3.919   1.662 -0.9776 -0.0531  1.2904
  857MOL0     H13119   2.298   3.745   1.696 -1.9511  0.6322  0.3078
  857MOL0     H13120   2.522   3.789   1.619  1.7759 -1.1989  0.1195
  857MOL0     H13121   2.534   3.928   1.724 -2.0477  0.5685  1.4263
  857MOL0     H13122   2.656   3.595   1.965 -0.5483  0.7225  0.7499
  857MOL0     H13123   1.880   3.651   1.807  0.6140  1.1410 -1.2144
  857MOL0     H13124   1.654   3.692   1.786 -0.9462  0.1044  1.6195
  858MOL0     O13125   3.073   5.790   5.695 -0.6510 -0.5713  0.7621
  858MOL0     C13126   3.077   5.728   5.794 -0.5426  0.0294 -0.5319
  858MOL0     O13127   2.972   5.673   5.863 -0.1607  0.7983  0.0071
  858MOL0     C13128   2.847   5.698   5.813  0.3761  0.4324  0.7474
  858MOL0     C13129   2.785   5.829   5.782 -0.6838 -0.0219 -0.4464
  858MOL0     C13130   2.642   5.832   5.757  0.3874  0.0428  0.3043
  858MOL0     C13131   2.562   5.716   5.747  0.3816  0.4939 -0.1933
  858MOL0     O13132   2.429   5.703   5.717  0.2004 -0.0272 -0.8115
  858MOL0     C13133   2.364   5.829   5.708 -0.0991 -0.1495  0.6694
  858MOL0     C13134   2.222   5.812   5.667  0.3752  0.2124  0.0641
  858MOL0     C13135   2.150   5.944   5.639 -0.2526 -0.5546  0.3234
  858MOL0     C13136   2.157   6.059   5.748 -0.4595  0.3455  0.0273
  858MOL0     C13137   2.060   6.179   5.734 -0.6298 -0.1502 -0.4332
  858MOL0     C13138   1.924   6.132   5.746 -0.1030  0.1924 -0.1138
  858MOL0     C13139   1.830   6.257   5.752 -0.2355  0.0050  0.1114
  858MOL0     C13140   1.696   6.230   5.798  0.4114  0.3065  0.1163
  858MOL0     N13141   1.616   6.188   5.680 -0.2049  0.3882  0.2665
  858MOL0     C13142   1.605   6.063   5.629 -0.4382 -0.2429 -0.3951
  858MOL0     C13143   1.534   6.075   5.513 -0.0836 -0.3492 -1.4287
  858MOL0     C13144   1.477   5.963   5.429 -0.0905 -0.6734 -0.2279
  858MOL0     C13145   1.324   5.929   5.459  0.3467 -0.7066  0.3167
  858MOL0     C13146   1.281   5.803   5.379 -0.1981  0.1420  0.1259
  858MOL0     C13147   1.137   5.778   5.408 -0.1519 -0.3195  0.3978
  858MOL0     O13148   1.083   5.671   5.331 -0.2168  0.0861 -0.0932
  858MOL0     C13149   0.946   5.660   5.313 -1.0451  1.1723 -0.2716
  858MOL0     C13150   0.841   5.722   5.383  0.5334  0.4418  0.4386
  858MOL0     C13151   0.713   5.712   5.328  0.6484 -1.0291  0.2089
  858MOL0     C13152   0.681   5.634   5.205 -0.6644 -0.5473  0.3842
  858MOL0     C13153   0.542   5.610   5.162  0.4880  0.7917 -0.1548
  858MOL0     O13154   0.445   5.649   5.246 -0.0860  0.1543  0.0970
  858MOL0     C13155   0.315   5.643   5.204 -0.2690 -0.3824  0.3665
  858MOL0     C13156   0.264   5.515   5.191  0.3425 -0.1081 -0.6471
  858MOL0     C13157   0.124   5.501   5.159 -0.0186  0.5699  0.4126
  858MOL0     C13158   0.047   5.615   5.125 -0.3610  0.1559  0.2269
  858MOL0     O13159  -0.083   5.604   5.098 -0.2850 -0.2312  0.2681
  858MOL0     C13160  -0.160   5.485   5.132  0.2698  0.4650  0.5923
  858MOL0     C13161  -0.305   5.495   5.085 -0.4790 -0.1882 -0.1656
  858MOL0     C13162  -0.382   5.392   5.176  0.1858 -0.4072  0.4460
  858MOL0     C13163  -0.524   5.389   5.121  0.8451 -0.0352 -0.6921
  858MOL0     C13164  -0.627   5.316   5.211 -0.4219  0.6288 -0.0092
  858MOL0     C13165  -0.772   5.359   5.179  0.7948 -0.3421  0.7130
  858MOL0     C13166  -0.863   5.266   5.230  0.1573  0.1278 -0.6261
  858MOL0     C13167  -1.006   5.319   5.234 -0.3482  0.4158 -0.1546
  858MOL0    Cl13168  -1.036   5.428   5.379  0.1558 -0.2556  0.3586
  858MOL0     C13169   0.107   5.741   5.120 -1.0728 -0.0464 -0.2745
  858MOL0     C13170   0.244   5.752   5.159 -0.1325  0.1605 -0.3440
  858MOL0     O13171   0.526   5.537   5.064  0.1465 -0.4830 -0.2066
  858MOL0     C13172   0.790   5.572   5.137 -0.2407 -1.0266 -0.3909
  858MOL0     C13173   0.916   5.588   5.203  0.9279  0.0284  0.1012
  858MOL0     N13174   1.497   6.207   5.500 -0.4436 -0.2382 -0.3251
  858MOL0     N13175   1.544   6.273   5.608 -0.4488 -0.2900  0.2763
  858MOL0     C13176   2.629   5.597   5.771  0.8780  0.1161  0.1832
  858MOL0     C13177   2.762   5.592   5.816  0.3569  0.3468 -0.3030
  858MOL0     C13178   3.217   5.713   5.843 -0.1998 -0.1384 -0.1675
  858MOL0     C13179   3.323   5.789   5.782 -0.0014  0.0936  0.8495
  858MOL0     C13180   3.455   5.776   5.831  0.4850 -0.3349  0.5481
  858MOL0     C13181   3.480   5.698   5.941 -0.6681 -0.0376  0.2870
  858MOL0     O13182   3.609   5.686   5.998  0.5711  1.0979 -0.5375
  858MOL0     C13183   3.693   5.793   6.003  0.4480  0.4269 -0.1070
  858MOL0     C13184   3.795   5.779   5.893 -0.0089 -0.2468 -0.2697
  858MOL0     C13185   3.893   5.893   5.899  0.6565 -0.5355  0.0994
  858MOL0     C13186   3.918   5.972   5.768 -0.4011 -0.7101 -0.2606
  858MOL0     C13187   3.796   6.041   5.727  0.0904  0.2070  0.1856
  858MOL0     C13188   3.695   6.105   5.698 -1.1681  0.9041  0.0392
  858MOL0     C13189   3.370   5.635   6.004  0.7791  0.4305 -0.2016
  858MOL0     C13190   3.240   5.642   5.958  0.3397  0.1979  0.7300
  858MOL0     H13191   2.844   5.920   5.784 -1.9993  0.8892  1.7560
  858MOL0     H13192   2.598   5.931   5.755  0.1267 -0.0495  1.1105
  858MOL0     H13193   2.417   5.879   5.626  0.6090  0.7951  1.6740
  858MOL0     H13194   2.371   5.882   5.803  0.8525 -2.1675  1.7738
  858MOL0     H13195   2.172   5.753   5.743  1.0040  1.0975  1.1984
  858MOL0     H13196   2.233   5.756   5.573 -0.2483  1.3861 -0.7343
  858MOL0     H13197   2.045   5.918   5.622 -1.3018  3.0477  0.6393
  858MOL0     H13198   2.191   5.976   5.543  2.6485 -0.4993  1.4873
  858MOL0     H13199   2.148   6.025   5.851  2.5956  1.3196  0.7321
  858MOL0     H13200   2.259   6.095   5.733 -0.0430 -1.2494 -1.3487
  858MOL0     H13201   2.086   6.229   5.640  3.0651 -1.9432 -0.5450
  858MOL0     H13202   2.084   6.248   5.816  0.5857 -0.8128 -0.2045
  858MOL0     H13203   1.916   6.081   5.843  0.3483  3.6397  1.8767
  858MOL0     H13204   1.903   6.066   5.661 -1.8744 -0.0803  0.4855
  858MOL0     H13205   1.874   6.320   5.830  2.0812 -0.6704 -0.5699
  858MOL0     H13206   1.826   6.312   5.657 -1.0287  0.6444  0.5072
  858MOL0     H13207   1.647   6.317   5.843 -0.0659  0.5826 -0.8938
  858MOL0     H13208   1.693   6.155   5.877 -0.1507  0.5523  0.3364
  858MOL0     H13209   1.638   5.969   5.673  1.8489 -0.0627 -1.6069
  858MOL0     H13210   1.540   5.877   5.453  2.0164  0.4763 -1.3591
  858MOL0     H13211   1.477   5.987   5.323 -1.0075 -3.1653 -0.8611
  858MOL0     H13212   1.253   6.011   5.443  0.0753 -1.0875 -0.4287
  858MOL0     H13213   1.320   5.896   5.563  0.6169 -0.3575  0.4432
  858MOL0     H13214   1.310   5.820   5.275 -0.0421 -1.3618 -0.1014
  858MOL0     H13215   1.350   5.721   5.405  0.5606  0.8747  0.4571
  858MOL0     H13216   1.083   5.870   5.384  2.1163  0.5988 -1.6059
  858MOL0     H13217   1.130   5.756   5.515  2.9948 -0.3177  0.7051
  858MOL0     H13218   0.864   5.777   5.473 -1.1756  0.7207  0.7379
  858MOL0     H13219   0.638   5.773   5.377  1.5031  0.0386  0.2322
  858MOL0     H13220   0.312   5.419   5.208 -3.5558 -2.0457  0.6417
  858MOL0     H13221   0.081   5.401   5.162  0.7734  0.1401 -1.5463
  858MOL0     H13222  -0.155   5.463   5.239  1.8415 -2.5704  0.0171
  858MOL0     H13223  -0.113   5.401   5.081 -2.2210  0.7780 -2.5027
  858MOL0     H13224  -0.310   5.466   4.979  3.3886 -0.2419 -0.4543
  858MOL0     H13225  -0.340   5.599   5.094 -1.5368 -0.5075 -0.4674
  858MOL0     H13226  -0.390   5.412   5.283  0.4859  1.1482  0.2042
  858MOL0     H13227  -0.339   5.292   5.164 -2.2989 -1.2495 -2.9391
  858MOL0     H13228  -0.553   5.494   5.120  1.4112  0.1839  1.1350
  858MOL0     H13229  -0.534   5.354   5.018 -1.4966 -3.7857  0.5962
  858MOL0     H13230  -0.611   5.335   5.317  1.0966 -2.6217  0.4696
  858MOL0     H13231  -0.603   5.210   5.203  0.1785  0.7296  0.4086
  858MOL0     H13232  -0.787   5.359   5.071 -0.4497  3.4087  0.7623
  858MOL0     H13233  -0.790   5.457   5.224 -0.7797  0.6417 -1.8439
  858MOL0     H13234  -0.853   5.177   5.167  1.8732 -1.8416  2.2085
  858MOL0     H13235  -0.841   5.246   5.336  0.1310  4.3072  0.3406
  858MOL0     H13236  -1.074   5.235   5.245 -0.2267  0.3650  0.2351
  858MOL0     H13237  -1.027   5.362   5.136  0.3111 -0.5158 -0.7135
  858MOL0     H13238   0.056   5.835   5.099  0.5216  1.0513  0.6164
  858MOL0     H13239   0.296   5.846   5.174  2.7586 -0.7693 -3.5208
  858MOL0     H13240   0.794   5.515   5.045  0.1400 -0.5426 -0.6775
  858MOL0     H13241   0.987   5.525   5.151 -1.6606 -2.5126 -0.6476
  858MOL0     H13242   2.561   5.512   5.779  0.0098  0.6141 -1.5729
  858MOL0     H13243   2.800   5.501   5.860  0.9938  2.0341  2.9405
  858MOL0     H13244   3.299   5.844   5.692  1.4731 -0.9083 -0.2054
  858MOL0     H13245   3.533   5.823   5.772 -0.1093 -0.6257 -0.5123
  858MOL0     H13246   3.731   5.807   6.105  0.7645 -0.7320 -0.0536
  858MOL0     H13247   3.643   5.889   5.987 -2.1104 -0.7843  0.2033
  858MOL0     H13248   3.864   5.694   5.899 -0.0564 -0.2423  0.4743
  858MOL0     H13249   3.749   5.779   5.794  0.9482  0.5906 -0.7396
  858MOL0     H13250   3.989   5.853   5.934  0.4321 -1.4701 -0.3294
  858MOL0     H13251   3.873   5.971   5.973 -0.2857  2.9359 -3.4380
  858MOL0     H13252   3.992   6.051   5.779  1.3444 -2.2165 -0.7975
  858MOL0     H13253   3.963   5.906   5.694  1.4482  0.9157 -0.6693
  858MOL0     H13254   3.622   6.177   5.668 -2.8758 -1.4681 -1.8018
  858MOL0     H13255   3.396   5.577   6.091 -0.6156  2.0647  1.3860
  858MOL0     H13256   3.167   5.597   6.025 -0.5688  3.4270  2.1184
  859MOL0     O13257   3.198   1.780   2.007  0.6571 -0.2849 -0.1118
  859MOL0     C13258   3.217   1.667   2.058  0.0517 -0.0800 -0.3594
  859MOL0     O13259   3.136   1.608   2.152 -0.2271 -0.3486 -0.3186
  859MOL0     C13260   3.002   1.645   2.172 -0.5851  0.5261  0.2780
  859MOL0     C13261   2.929   1.543   2.230  0.5852  0.8020 -0.0803
  859MOL0     C13262   2.795   1.565   2.266 -0.4267 -0.1858  0.6052
  859MOL0     C13263   2.730   1.684   2.227 -0.0622 -0.5580  0.3452
  859MOL0     O13264   2.601   1.720   2.250  0.2654  0.8639  0.0968
  859MOL0     C13265   2.514   1.643   2.338  0.3961 -0.7888 -0.4445
  859MOL0     C13266   2.362   1.675   2.310  0.3694 -0.3120  0.0700
  859MOL0     C13267   2.272   1.633   2.426  0.6720  0.1031  0.0181
  859MOL0     C13268   2.129   1.660   2.398 -0.4511 -0.3043 -0.2101
  859MOL0     C13269   2.030   1.609   2.500 -0.8875 -0.2999 -0.4365
  859MOL0     C13270   1.892   1.666   2.478  0.0644 -0.7972 -0.5479
  859MOL0     C13271   1.780   1.607   2.563  0.1400  0.6222 -0.0669
  859MOL0     C13272   1.640   1.638   2.521  0.4434 -0.4968  0.0304
  859MOL0     N13273   1.538   1.575   2.609 -0.0393  0.8366  0.3092
  859MOL0     C13274   1.408   1.556   2.573  0.1616  0.1453 -0.4025
  859MOL0     C13275   1.346   1.546   2.691 -0.0176  0.4230 -0.1086
  859MOL0     C13276   1.196   1.528   2.703 -0.6360 -0.0159  0.2223
  859MOL0     C13277   1.152   1.384   2.674 -0.5086 -0.5406  0.1605
  859MOL0     C13278   1.149   1.363   2.520  0.3463  0.1040  0.0834
  859MOL0     C13279   1.148   1.216   2.490  0.0036  0.2931 -0.7641
  859MOL0     O13280   1.019   1.167   2.539  1.2508 -0.2335 -0.0101
  859MOL0     C13281   0.994   1.033   2.514 -0.0757  0.1867  0.7052
  859MOL0     C13282   1.070   0.927   2.565 -0.0980  0.4255  0.3246
  859MOL0     C13283   1.034   0.793   2.540 -0.4829 -0.1709 -0.0398
  859MOL0     C13284   0.955   0.763   2.432  0.2882  0.2248  0.5565
  859MOL0     C13285   0.933   0.628   2.381 -0.2913 -0.0742  0.1318
  859MOL0     O13286   1.032   0.543   2.411 -0.1876  0.3522  0.8733
  859MOL0     C13287   1.013   0.406   2.378 -0.4199  0.1537  0.1167
  859MOL0     C13288   1.108   0.334   2.313 -0.0558  0.6982 -0.0145
  859MOL0     C13289   1.099   0.199   2.286 -0.4983  0.4456 -0.0713
  859MOL0     C13290   0.984   0.134   2.314  0.0364 -0.6214  0.4774
  859MOL0     O13291   0.969   0.006   2.268  0.7750 -0.2122 -0.3253
  859MOL0     C13292   0.837  -0.057   2.284 -0.7597  0.1576  0.0792
  859MOL0     C13293   0.860  -0.209   2.238  0.5060 -0.0638  0.2557
  859MOL0     C13294   0.859  -0.235   2.087 -0.1501  0.5028 -0.4951
  859MOL0     C13295   0.726  -0.211   2.015  0.2111 -0.6456  0.3621
  859MOL0     C13296   0.706  -0.291   1.882 -0.4640 -0.3127 -0.4484
  859MOL0     C13297   0.575  -0.245   1.829 -0.7465  0.0370 -0.4901
  859MOL0     C13298   0.539  -0.307   1.688 -0.9796  0.8263  0.6668
  859MOL0     C13299   0.387  -0.307   1.655 -0.3215 -0.8969 -0.0727
  859MOL0    Cl13300   0.357  -0.141   1.594 -0.1280  0.1988  0.3622
  859MOL0     C13301   0.881   0.201   2.377  0.3707 -0.1163  0.4336
  859MOL0     C13302   0.898   0.333   2.410 -0.4892 -1.5887  0.2933
  859MOL0     O13303   0.822   0.603   2.332 -0.2415 -0.0645  0.2622
  859MOL0     C13304   0.875   0.865   2.381  0.0328  0.0722  0.2117
  859MOL0     C13305   0.891   0.997   2.427 -0.1226  1.0164  0.1289
  859MOL0     N13306   1.436   1.555   2.796  0.4638  0.4794 -0.5404
  859MOL0     N13307   1.548   1.567   2.739 -0.2659 -0.1799 -0.2366
  859MOL0     C13308   2.809   1.789   2.170 -0.6057  0.3073  0.0331
  859MOL0     C13309   2.943   1.770   2.141 -0.3347 -0.2459  0.4934
  859MOL0     C13310   3.341   1.599   2.022  0.4504 -0.6348  0.7397
  859MOL0     C13311   3.359   1.468   2.054  0.7680 -0.7738 -0.4148
  859MOL0     C13312   3.484   1.409   2.016  0.5259 -0.1863  0.3309
  859MOL0     C13313   3.581   1.472   1.948 -0.3886  0.4722  0.4748
  859MOL0     O13314   3.695   1.413   1.920 -0.2340  0.3990  0.9472
  859MOL0     C13315   3.813   1.489   1.934  0.1630  0.4186 -0.1086
  859MOL0     C13316   3.923   1.451   1.837 -0.4095 -0.5513 -0.1325
  859MOL0     C13317   3.886   1.487   1.692  0.3416 -0.2262 -0.9276
  859MOL0     C13318   3.759   1.425   1.635 -0.4943 -0.8664 -0.3056
  859MOL0     C13319   3.779   1.439   1.491  0.5019 -0.8939 -0.1151
  859MOL0     C13320   3.772   1.457   1.371 -0.0793 -0.0050 -0.2163
  859MOL0     C13321   3.551   1.595   1.900  1.0852  0.6553  0.2485
  859MOL0     C13322   3.433   1.664   1.935 -1.0004  0.2107  0.2759
  859MOL0     H13323   2.979   1.450   2.256 -1.0129  0.1011  0.6275
  859MOL0     H13324   2.736   1.494   2.323 -2.6761  0.9592 -0.1801
  859MOL0     H13325   2.544   1.684   2.435  1.1494  1.1379 -1.4224
  859MOL0     H13326   2.528   1.535   2.329  3.5418 -0.4190 -0.9478
  859MOL0     H13327   2.339   1.617   2.219  1.3597 -0.8027  0.1107
  859MOL0     H13328   2.351   1.780   2.284  1.0640 -0.7435 -2.2147
  859MOL0     H13329   2.293   1.681   2.522  0.0780 -1.2205  0.8358
  859MOL0     H13330   2.274   1.526   2.447 -3.5312  0.1607  1.4987
  859MOL0     H13331   2.114   1.768   2.394 -0.0260 -0.0687  2.6478
  859MOL0     H13332   2.110   1.623   2.297  0.3845 -1.8576  0.1707
  859MOL0     H13333   2.068   1.637   2.598  0.3584  1.6998 -1.4232
  859MOL0     H13334   2.020   1.501   2.491 -1.9060 -0.0634 -3.3432
  859MOL0     H13335   1.866   1.687   2.373 -3.3738  0.5542  0.4574
  859MOL0     H13336   1.903   1.769   2.513  0.9846 -1.1766  0.3102
  859MOL0     H13337   1.787   1.498   2.562 -3.5695  0.2591 -1.3197
  859MOL0     H13338   1.787   1.655   2.661 -3.1322  1.6302 -0.2169
  859MOL0     H13339   1.639   1.615   2.414  2.8606 -1.9318  0.2284
  859MOL0     H13340   1.625   1.745   2.535 -1.0266 -0.7713  0.7835
  859MOL0     H13341   1.361   1.563   2.475 -1.4085  3.0601  0.4431
  859MOL0     H13342   1.149   1.606   2.643 -2.7828 -1.8523 -0.6479
  859MOL0     H13343   1.176   1.549   2.808 -1.9614 -0.0725 -0.0029
  859MOL0     H13344   1.054   1.372   2.721  0.5159 -0.9196  2.3261
  859MOL0     H13345   1.215   1.307   2.720  0.4600  0.1292 -0.0073
  859MOL0     H13346   1.059   1.405   2.474  1.3499  2.4105  0.0756
  859MOL0     H13347   1.240   1.402   2.473  0.2269  0.6610  0.3121
  859MOL0     H13348   1.227   1.161   2.542 -2.8943 -4.8993 -1.1966
  859MOL0     H13349   1.152   1.201   2.382 -0.6655  1.0303 -0.8963
  859MOL0     H13350   1.147   0.961   2.634 -0.2627  0.4935  0.4751
  859MOL0     H13351   1.090   0.710   2.581  0.5414 -1.1502 -3.1115
  859MOL0     H13352   1.199   0.390   2.292  0.5436 -0.2724 -0.0608
  859MOL0     H13353   1.181   0.141   2.246 -1.1875 -0.8726  0.3371
  859MOL0     H13354   0.762  -0.006   2.222  0.7912  0.2818 -1.8042
  859MOL0     H13355   0.808  -0.058   2.389  0.6720  2.6799  0.5826
  859MOL0     H13356   0.772  -0.264   2.273  0.1038 -0.4521 -1.3019
  859MOL0     H13357   0.952  -0.247   2.283  0.6288  0.6748  0.6479
  859MOL0     H13358   0.880  -0.341   2.071 -0.3520  0.3866  0.0119
  859MOL0     H13359   0.938  -0.175   2.039  1.4193  0.6616  2.0930
  859MOL0     H13360   0.657  -0.241   2.095 -0.3765  2.7441  1.2803
  859MOL0     H13361   0.713  -0.104   1.995  0.0851 -1.1345 -2.5861
  859MOL0     H13362   0.719  -0.396   1.909  1.0361 -0.6559 -2.2507
  859MOL0     H13363   0.777  -0.257   1.806 -3.0257  0.5580 -2.5977
  859MOL0     H13364   0.586  -0.138   1.809  0.7779 -0.0904 -0.4504
  859MOL0     H13365   0.495  -0.273   1.899  1.5070 -2.7865  1.1597
  859MOL0     H13366   0.606  -0.265   1.613  1.4238 -3.8044 -0.1677
  859MOL0     H13367   0.573  -0.411   1.694  0.0729  1.0141 -1.2175
  859MOL0     H13368   0.320  -0.327   1.739 -0.0422 -0.1239  0.3389
  859MOL0     H13369   0.377  -0.389   1.583  2.3957 -1.5108  0.1445
  859MOL0     H13370   0.795   0.154   2.422  0.7642  0.5879  2.0103
  859MOL0     H13371   0.824   0.394   2.461  0.6370  1.8835 -1.8767
  859MOL0     H13372   0.795   0.850   2.310 -0.0956 -2.2907  0.7752
  859MOL0     H13373   0.831   1.077   2.385  0.5590  0.4292 -2.0640
  859MOL0     H13374   2.756   1.876   2.134 -1.0483 -0.6195 -1.6266
  859MOL0     H13375   2.991   1.845   2.080  1.0305 -0.9537  0.6690
  859MOL0     H13376   3.287   1.413   2.113  1.5150  0.2338  1.5080
  859MOL0     H13377   3.500   1.307   2.049  1.4533  0.6167  2.5626
  859MOL0     H13378   3.852   1.478   2.036  0.0584 -0.7191 -0.1735
  859MOL0     H13379   3.801   1.597   1.925  1.2349  0.4197 -2.3073
  859MOL0     H13380   4.008   1.513   1.866 -1.0410 -1.0805  3.2254
  859MOL0     H13381   3.948   1.344   1.842 -0.1701 -0.4639  3.6595
  859MOL0     H13382   3.971   1.456   1.630 -0.5468 -1.5042 -1.5418
  859MOL0     H13383   3.878   1.595   1.676 -0.8848  0.1027  1.4298
  859MOL0     H13384   3.764   1.319   1.660  0.9617 -0.3929  1.6732
  859MOL0     H13385   3.663   1.465   1.671 -0.6948 -1.7030  0.1124
  859MOL0     H13386   3.761   1.456   1.264 -1.2132 -0.2805 -0.1071
  859MOL0     H13387   3.616   1.645   1.830 -2.3525  3.1058 -1.4189
  859MOL0     H13388   3.425   1.756   1.879 -0.8416 -0.1993 -0.4400
  860MOL0     O13389   1.681   4.567   6.515  0.2840  0.3289 -0.6641
  860MOL0     C13390   1.666   4.479   6.602 -0.1080 -0.5948  0.7397
  860MOL0     O13391   1.571   4.482   6.700  0.6213  0.3348  0.3624
  860MOL0     C13392   1.487   4.597   6.703 -0.0233  0.0292  0.2652
  860MOL0     C13393   1.521   4.692   6.790  0.4992  0.0297  0.1888
  860MOL0     C13394   1.448   4.811   6.774  0.1126  0.8512 -1.1586
  860MOL0     C13395   1.342   4.830   6.682  0.0134 -0.0280 -0.7817
  860MOL0     O13396   1.272   4.948   6.668 -0.3167 -0.6020 -0.4128
  860MOL0     C13397   1.310   5.061   6.752  0.1664  0.0193  0.3790
  860MOL0     C13398   1.193   5.159   6.750  0.4763  0.3582  0.0998
  860MOL0     C13399   1.186   5.253   6.628 -0.5587  0.0325  0.1099
  860MOL0     C13400   1.089   5.364   6.671 -0.4217  0.3796  0.2261
  860MOL0     C13401   1.005   5.420   6.549 -0.8561 -0.5267  0.7428
  860MOL0     C13402   0.885   5.510   6.592 -0.3322 -0.6179  0.2786
  860MOL0     C13403   0.922   5.637   6.679 -1.1522  0.0832 -0.2027
  860MOL0     C13404   0.811   5.732   6.702  0.1176 -0.4435  0.8356
  860MOL0     N13405   0.820   5.844   6.605 -0.1657  0.3383 -0.9333
  860MOL0     C13406   0.921   5.931   6.594 -0.8580 -0.3092 -0.2605
  860MOL0     C13407   0.875   6.023   6.511  0.1179 -0.0171 -1.2817
  860MOL0     C13408   0.953   6.144   6.468 -0.2520 -0.2284  0.8517
  860MOL0     C13409   0.878   6.269   6.470  0.5467  0.0775 -0.4774
  860MOL0     C13410   0.780   6.279   6.592 -0.3514  0.2586  1.1933
  860MOL0     C13411   0.740   6.423   6.619 -0.4174 -0.2503  0.1352
  860MOL0     O13412   0.646   6.473   6.522  0.6425 -0.0966  0.1403
  860MOL0     C13413   0.514   6.459   6.550  0.1343 -1.4278 -0.7716
  860MOL0     C13414   0.461   6.386   6.655 -0.5579  0.1825 -0.1992
  860MOL0     C13415   0.332   6.398   6.694  0.7214 -0.1788  1.4737
  860MOL0     C13416   0.238   6.464   6.613  0.0258  0.0012 -0.0722
  860MOL0     C13417   0.095   6.442   6.625  1.0268  1.0857 -0.8270
  860MOL0     O13418   0.056   6.391   6.752 -0.5070 -0.5204  0.3006
  860MOL0     C13419  -0.067   6.346   6.792  0.0373  0.0096 -0.1043
  860MOL0     C13420  -0.062   6.254   6.902  0.0991  0.2646  0.6106
  860MOL0     C13421  -0.179   6.213   6.960 -0.1072  0.0149  0.3104
  860MOL0     C13422  -0.301   6.237   6.899 -0.2892 -0.1134 -0.0298
  860MOL0     O13423  -0.418   6.183   6.956 -0.2118 -0.8636 -0.0008
  860MOL0     C13424  -0.545   6.233   6.906 -0.2101  0.4170 -0.4771
  860MOL0     C13425  -0.648   6.198   7.021 -0.1670 -0.1926  0.3727
  860MOL0     C13426  -0.796   6.235   6.974 -0.1760  0.3926 -1.3073
  860MOL0     C13427  -0.853   6.136   6.873 -0.2675  0.1531  1.1367
  860MOL0     C13428  -1.004   6.129   6.863 -0.5669 -0.5548 -0.8957
  860MOL0     C13429  -1.058   6.264   6.811  0.1689 -0.4095  0.4787
  860MOL0     C13430  -1.212   6.249   6.791 -0.1109  0.2955 -0.7922
  860MOL0     C13431  -1.278   6.273   6.923 -1.0477  0.6305  0.8991
  860MOL0    Cl13432  -1.446   6.311   6.880 -0.0710 -0.1666  0.2939
  860MOL0     C13433  -0.305   6.322   6.783  0.2369 -0.1676  0.3084
  860MOL0     C13434  -0.183   6.378   6.730  0.2619  0.4765  0.0091
  860MOL0     O13435   0.020   6.462   6.528  0.5829  0.3756  0.1324
  860MOL0     C13436   0.284   6.538   6.500 -0.7700  0.5546 -0.4606
  860MOL0     C13437   0.425   6.541   6.478 -0.8922  1.0622 -0.8637
  860MOL0     N13438   0.755   5.981   6.461  0.2791 -0.3539  0.1878
  860MOL0     N13439   0.723   5.869   6.514 -0.1347 -0.1347  0.4043
  860MOL0     C13440   1.310   4.720   6.607 -0.4050 -0.5357 -0.2515
  860MOL0     C13441   1.382   4.599   6.616  0.3356  0.1564 -0.5452
  860MOL0     C13442   1.777   4.378   6.613  0.2565 -0.5096  0.0019
  860MOL0     C13443   1.765   4.273   6.712 -0.4160 -0.0863 -0.3415
  860MOL0     C13444   1.853   4.165   6.707 -0.2583  0.6086 -0.7781
  860MOL0     C13445   1.959   4.165   6.626 -0.0070 -0.5752  0.6398
  860MOL0     O13446   2.043   4.063   6.626 -0.4388 -0.0172 -0.2366
  860MOL0     C13447   2.128   4.037   6.513 -0.7055  0.3625 -0.0802
  860MOL0     C13448   2.202   3.904   6.533  0.1117  0.1662 -0.4795
  860MOL0     C13449   2.282   3.874   6.401  0.5857  1.0333  0.3602
  860MOL0     C13450   2.355   3.737   6.419  0.5432  0.3433  1.0083
  860MOL0     C13451   2.447   3.732   6.527  0.1729 -0.7736 -0.1720
  860MOL0     C13452   2.548   3.721   6.599  0.0754  0.9866 -0.2210
  860MOL0     C13453   1.972   4.263   6.525 -0.4957 -0.7939 -0.4896
  860MOL0     C13454   1.880   4.368   6.517 -0.0916  0.4405  0.7571
  860MOL0     H13455   1.602   4.692   6.861  0.7362  0.5796 -0.0766
  860MOL0     H13456   1.474   4.885   6.849 -2.0206 -2.5778  3.5034
  860MOL0     H13457   1.392   5.119   6.709  0.2409 -0.3599 -0.0027
  860MOL0     H13458   1.334   5.052   6.859 -0.5716 -1.1566  0.4728
  860MOL0     H13459   1.201   5.214   6.844  1.9438 -1.9714  1.4451
  860MOL0     H13460   1.104   5.095   6.748  1.9513 -2.0082  2.9441
  860MOL0     H13461   1.149   5.190   6.547  0.9749 -2.1735  1.0416
  860MOL0     H13462   1.277   5.302   6.590 -1.3875  0.6367 -1.1763
  860MOL0     H13463   1.014   5.330   6.743  0.3941  1.5809  1.6864
  860MOL0     H13464   1.135   5.443   6.731 -2.0410  1.5874 -0.0602
  860MOL0     H13465   0.966   5.332   6.497  1.7144 -0.2446 -1.9303
  860MOL0     H13466   1.081   5.471   6.490 -0.4201 -0.0090  1.7253
  860MOL0     H13467   0.817   5.444   6.647 -0.9388  0.3899  0.7452
  860MOL0     H13468   0.852   5.542   6.493  1.8608 -0.6550 -0.5334
  860MOL0     H13469   0.946   5.597   6.778 -2.8552  0.2750  0.3186
  860MOL0     H13470   1.016   5.672   6.635  0.8598 -4.1101  0.2294
  860MOL0     H13471   0.807   5.780   6.800 -0.7571 -0.3408  0.7639
  860MOL0     H13472   0.720   5.679   6.670  1.4352 -1.3295 -1.7284
  860MOL0     H13473   1.015   5.945   6.648 -1.1557  2.8092 -0.3731
  860MOL0     H13474   0.986   6.124   6.365 -0.7455 -2.0904  1.0179
  860MOL0     H13475   1.036   6.155   6.538  0.9042  2.2427 -0.7377
  860MOL0     H13476   0.814   6.273   6.381  0.6927  0.3620 -0.5708
  860MOL0     H13477   0.941   6.358   6.460 -0.5467  0.8493 -0.7208
  860MOL0     H13478   0.698   6.210   6.571  0.7746 -0.9116  0.4854
  860MOL0     H13479   0.813   6.231   6.684 -0.1939 -0.4424  0.7828
  860MOL0     H13480   0.826   6.490   6.621 -1.1450  0.7078  0.5299
  860MOL0     H13481   0.693   6.426   6.718  0.7554 -2.0704  0.7961
  860MOL0     H13482   0.513   6.319   6.723  0.2078  1.9105  0.9973
  860MOL0     H13483   0.297   6.344   6.782 -1.1460 -0.0360  0.8707
  860MOL0     H13484   0.040   6.225   6.928  0.3707  1.3750  0.8407
  860MOL0     H13485  -0.174   6.145   7.045  0.2040 -1.7898 -1.0837
  860MOL0     H13486  -0.577   6.196   6.807 -1.1544  0.6609 -0.2719
  860MOL0     H13487  -0.544   6.342   6.899 -1.6033  0.3683 -2.3756
  860MOL0     H13488  -0.614   6.252   7.110  0.3990  0.5151 -0.2715
  860MOL0     H13489  -0.638   6.097   7.061 -1.2125  1.1190  4.4288
  860MOL0     H13490  -0.801   6.339   6.941 -2.4945  0.5535 -0.6304
  860MOL0     H13491  -0.865   6.227   7.059  1.0905  1.1912 -0.1575
  860MOL0     H13492  -0.819   6.147   6.769 -1.0317 -1.5925  0.6608
  860MOL0     H13493  -0.817   6.038   6.904  1.1046 -0.1734 -1.2711
  860MOL0     H13494  -1.057   6.120   6.958  1.4837  2.1527  0.6470
  860MOL0     H13495  -1.025   6.043   6.799  1.9589 -2.8663  1.1236
  860MOL0     H13496  -1.020   6.287   6.711 -3.2649  1.4294 -0.5937
  860MOL0     H13497  -1.042   6.354   6.870  0.3054 -0.5691  0.6840
  860MOL0     H13498  -1.247   6.321   6.715 -0.0283  0.3564 -0.7727
  860MOL0     H13499  -1.240   6.153   6.746  1.0655  0.3813 -1.7645
  860MOL0     H13500  -1.247   6.371   6.961 -0.7092  0.6153  0.6713
  860MOL0     H13501  -1.269   6.190   6.994  0.1724 -0.9337 -0.9682
  860MOL0     H13502  -0.402   6.346   6.741 -0.2136  3.4586  2.8833
  860MOL0     H13503  -0.185   6.440   6.641  0.3357  3.0753  1.7052
  860MOL0     H13504   0.212   6.594   6.442  0.1477  1.3329 -0.8763
  860MOL0     H13505   0.469   6.600   6.398  2.0460 -0.0958 -0.2284
  860MOL0     H13506   1.228   4.727   6.536 -2.1596  2.6992  1.8522
  860MOL0     H13507   1.359   4.509   6.560  1.5725 -0.7495  0.3553
  860MOL0     H13508   1.685   4.276   6.786  0.2598  0.0042  0.4051
  860MOL0     H13509   1.845   4.075   6.767  2.0783  0.7638 -0.1588
  860MOL0     H13510   2.197   4.121   6.505 -0.0320 -0.3579 -2.6454
  860MOL0     H13511   2.088   4.040   6.412 -1.2028 -1.4295  0.0324
  860MOL0     H13512   2.272   3.919   6.616 -0.5784  0.3955  0.0671
  860MOL0     H13513   2.140   3.817   6.554 -0.1268  0.4007 -0.1952
  860MOL0     H13514   2.354   3.953   6.375 -0.9879  2.3416 -0.2315
  860MOL0     H13515   2.216   3.859   6.315  1.0008 -1.6865  0.4414
  860MOL0     H13516   2.277   3.661   6.434 -0.5587  0.9379 -1.2215
  860MOL0     H13517   2.407   3.714   6.326 -0.2235  0.9900  0.4034
  860MOL0     H13518   2.637   3.697   6.655  0.7581 -2.0736 -2.3640
  860MOL0     H13519   2.049   4.263   6.449  0.0198 -0.9331  0.0309
  860MOL0     H13520   1.895   4.439   6.437 -1.6743 -1.0423 -0.9527
  861MOL0     O13521   1.862   0.702   1.122  0.3546 -0.2975  0.2528
  861MOL0     C13522   1.896   0.789   1.202  0.0500  0.6777  0.0776
  861MOL0     O13523   1.807   0.870   1.260 -0.2857  0.6500 -0.0223
  861MOL0     C13524   1.669   0.839   1.264 -0.5298 -0.1173  0.2504
  861MOL0     C13525   1.603   0.845   1.395 -0.4600  0.8645 -0.3781
  861MOL0     C13526   1.474   0.815   1.415 -0.0182  0.0073 -0.3854
  861MOL0     C13527   1.392   0.776   1.300 -0.2038 -0.6031 -0.7959
  861MOL0     O13528   1.259   0.749   1.311 -0.1685  0.7290  0.1798
  861MOL0     C13529   1.203   0.714   1.433 -0.6387 -0.1649  0.3717
  861MOL0     C13530   1.077   0.638   1.407  0.2246 -0.3378  0.3349
  861MOL0     C13531   0.967   0.714   1.336  0.9101  0.4727  0.0067
  861MOL0     C13532   0.839   0.625   1.324 -0.3663  0.0100 -0.1345
  861MOL0     C13533   0.722   0.712   1.285 -0.7365 -0.0084 -0.2390
  861MOL0     C13534   0.593   0.639   1.267 -0.2853  0.0168  0.1691
  861MOL0     C13535   0.485   0.721   1.192  0.2120  0.3097 -0.5122
  861MOL0     C13536   0.352   0.644   1.195 -0.7782 -0.3701  0.3394
  861MOL0     N13537   0.294   0.627   1.330  1.0139 -0.2597 -0.2405
  861MOL0     C13538   0.277   0.720   1.434 -0.0013  0.5350  0.5241
  861MOL0     C13539   0.196   0.641   1.516  0.2127  0.1876  0.4124
  861MOL0     C13540   0.120   0.683   1.647  0.1208 -0.1533 -0.4114
  861MOL0     C13541  -0.029   0.676   1.625  0.2277 -1.0698 -0.2720
  861MOL0     C13542  -0.084   0.789   1.543  0.2326  0.3555 -0.7694
  861MOL0     C13543  -0.230   0.769   1.505 -0.2663  1.0594 -0.1602
  861MOL0     O13544  -0.302   0.888   1.469 -0.5531  0.3681 -0.4219
  861MOL0     C13545  -0.424   0.868   1.406  0.6538 -0.4240  0.5281
  861MOL0     C13546  -0.469   0.976   1.337 -0.2213 -0.8352  0.1620
  861MOL0     C13547  -0.582   0.982   1.253  0.3434 -0.3086 -1.2984
  861MOL0     C13548  -0.667   0.864   1.254 -0.5813 -0.2564  0.7846
  861MOL0     C13549  -0.784   0.857   1.172  0.3358 -0.1559 -0.4365
  861MOL0     O13550  -0.782   0.924   1.054  0.4489 -0.0084 -0.6354
  861MOL0     C13551  -0.884   0.987   0.990  0.2205 -0.0455 -0.0859
  861MOL0     C13552  -1.018   0.972   1.016  0.1400  0.8042  0.3384
  861MOL0     C13553  -1.123   1.032   0.940  0.3256  0.3551 -0.1464
  861MOL0     C13554  -1.089   1.108   0.829  0.3711  0.1885  0.0248
  861MOL0     O13555  -1.189   1.163   0.758 -0.1884  0.1074 -0.1565
  861MOL0     C13556  -1.152   1.189   0.621  0.7735 -0.2778  0.6095
  861MOL0     C13557  -1.272   1.257   0.547 -0.5115  0.3343  0.0337
  861MOL0     C13558  -1.354   1.148   0.482  0.7158 -0.5108 -0.3358
  861MOL0     C13559  -1.463   1.211   0.395 -0.2998 -0.3366 -0.3553
  861MOL0     C13560  -1.565   1.112   0.349  0.1195  0.2876  0.0838
  861MOL0     C13561  -1.654   1.160   0.231  0.3216 -0.1385  0.0076
  861MOL0     C13562  -1.783   1.079   0.206 -0.7603  0.1000  0.3620
  861MOL0     C13563  -1.847   1.107   0.072  0.1058 -0.7829  0.0841
  861MOL0    Cl13564  -1.767   1.046  -0.070 -0.0130  0.5030 -0.3113
  861MOL0     C13565  -0.953   1.123   0.804 -0.1426 -0.0380 -0.3282
  861MOL0     C13566  -0.850   1.068   0.878 -0.6075 -0.5097 -0.8806
  861MOL0     O13567  -0.889   0.816   1.227 -0.1505  0.2026  0.2201
  861MOL0     C13568  -0.628   0.748   1.328  0.2940  0.7464  0.1687
  861MOL0     C13569  -0.509   0.752   1.410 -1.4072 -0.0590  0.2155
  861MOL0     N13570   0.191   0.515   1.471  0.3590 -0.1224 -0.0824
  861MOL0     N13571   0.238   0.509   1.357 -0.1976 -0.2284 -0.2075
  861MOL0     C13572   1.458   0.777   1.171 -0.1394 -0.3350 -0.4893
  861MOL0     C13573   1.590   0.810   1.157  0.5373 -0.6527  0.2573
  861MOL0     C13574   2.035   0.810   1.229  0.0111 -0.8470 -0.4508
  861MOL0     C13575   2.087   0.930   1.283  0.5108  0.3061 -0.6217
  861MOL0     C13576   2.216   0.955   1.304  0.5557 -0.7337 -0.4079
  861MOL0     C13577   2.317   0.863   1.276  0.2018  0.0160  0.0490
  861MOL0     O13578   2.445   0.901   1.294 -0.1105 -0.8763 -0.5326
  861MOL0     C13579   2.545   0.801   1.256  0.0630  0.3435 -0.2644
  861MOL0     C13580   2.682   0.846   1.273  0.6167  0.3623  0.3664
  861MOL0     C13581   2.724   0.899   1.411  0.4453 -0.2643 -1.3984
  861MOL0     C13582   2.874   0.912   1.437 -0.0875 -0.5532  0.5362
  861MOL0     C13583   2.909   0.974   1.565  0.3584  0.1366 -0.3776
  861MOL0     C13584   2.941   1.010   1.675  0.0593 -0.4357 -0.2165
  861MOL0     C13585   2.274   0.729   1.229  0.2364 -0.9166  0.4041
  861MOL0     C13586   2.135   0.715   1.208  0.8920 -0.0357 -0.1290
  861MOL0     H13587   1.653   0.863   1.489 -1.0453 -0.8581  0.2967
  861MOL0     H13588   1.426   0.821   1.513 -1.6150 -2.1827 -0.9627
  861MOL0     H13589   1.186   0.801   1.497 -0.1276 -1.2041  1.9738
  861MOL0     H13590   1.259   0.630   1.475 -0.0518 -0.7841 -1.5599
  861MOL0     H13591   1.024   0.597   1.494  1.3010 -0.4499  0.9499
  861MOL0     H13592   1.095   0.545   1.352 -0.5457 -0.4372  0.2313
  861MOL0     H13593   0.998   0.739   1.235 -1.4541  1.4054 -0.5509
  861MOL0     H13594   0.937   0.809   1.383 -2.1452  0.4803 -1.7039
  861MOL0     H13595   0.856   0.550   1.246  0.4108  2.9104 -2.9726
  861MOL0     H13596   0.809   0.578   1.419 -0.4952  1.2164  0.4363
  861MOL0     H13597   0.742   0.775   1.197 -0.5773  0.5452  0.1905
  861MOL0     H13598   0.713   0.777   1.372  1.4044 -0.7838  0.6132
  861MOL0     H13599   0.544   0.620   1.363 -3.6670 -1.1210 -1.6143
  861MOL0     H13600   0.608   0.541   1.221 -2.5879  0.1474 -1.0049
  861MOL0     H13601   0.464   0.808   1.255  3.7045 -0.9022  2.6627
  861MOL0     H13602   0.513   0.757   1.093  1.1034 -2.4216 -1.3503
  861MOL0     H13603   0.362   0.553   1.136  2.5156  1.0745 -1.6611
  861MOL0     H13604   0.283   0.710   1.142 -1.2424 -0.9551  0.2215
  861MOL0     H13605   0.303   0.824   1.447  0.8499  0.0423  3.5399
  861MOL0     H13606   0.152   0.783   1.676 -1.7808  0.0730  1.1519
  861MOL0     H13607   0.140   0.608   1.724 -0.2890 -1.0348 -1.1452
  861MOL0     H13608  -0.070   0.687   1.725 -1.5487  0.4481 -1.1148
  861MOL0     H13609  -0.059   0.587   1.568  1.3850  0.4832 -3.5694
  861MOL0     H13610  -0.088   0.881   1.602  0.5147 -1.7259  2.7809
  861MOL0     H13611  -0.031   0.804   1.449  1.5639  1.1210  0.0618
  861MOL0     H13612  -0.290   0.725   1.586  0.2311  1.6136  0.5213
  861MOL0     H13613  -0.243   0.696   1.425 -4.5389 -0.9562  2.0315
  861MOL0     H13614  -0.408   1.066   1.341 -2.3369  0.6820 -0.2595
  861MOL0     H13615  -0.616   1.070   1.200 -1.9841 -0.9185 -0.9525
  861MOL0     H13616  -1.044   0.910   1.102  2.2256 -0.6904 -0.0212
  861MOL0     H13617  -1.228   1.038   0.969  1.0270  1.3610  2.4097
  861MOL0     H13618  -1.127   1.097   0.569  2.6976  1.0970 -1.0887
  861MOL0     H13619  -1.060   1.245   0.601  1.0781 -1.3891 -1.3048
  861MOL0     H13620  -1.234   1.319   0.466  0.2992 -0.0057  0.1461
  861MOL0     H13621  -1.337   1.303   0.622  1.7971  2.1535  1.0550
  861MOL0     H13622  -1.398   1.083   0.559 -1.1124 -1.3554 -2.0006
  861MOL0     H13623  -1.286   1.088   0.421  0.7720 -1.1114  0.3088
  861MOL0     H13624  -1.510   1.289   0.456 -1.3981 -2.3213  1.4702
  861MOL0     H13625  -1.409   1.258   0.312 -0.4283  0.4343 -0.0156
  861MOL0     H13626  -1.629   1.083   0.432 -1.6173  0.8463 -0.9959
  861MOL0     H13627  -1.508   1.023   0.320  1.3301  1.0933 -0.0579
  861MOL0     H13628  -1.587   1.169   0.145 -1.9129  3.4097 -1.5886
  861MOL0     H13629  -1.691   1.262   0.246  2.2755  0.9417 -1.9434
  861MOL0     H13630  -1.748   0.975   0.210  0.5339  0.5220  0.5719
  861MOL0     H13631  -1.857   1.099   0.284 -0.1444 -3.9284  2.2171
  861MOL0     H13632  -1.853   1.214   0.052 -0.8713 -0.9594 -0.6415
  861MOL0     H13633  -1.948   1.063   0.073  0.4418 -1.5715  0.4424
  861MOL0     H13634  -0.917   1.197   0.733  1.1224 -1.5950 -1.3835
  861MOL0     H13635  -0.746   1.097   0.873 -1.0378  1.1803 -0.7621
  861MOL0     H13636  -0.709   0.676   1.340 -2.1677  3.1268 -1.0297
  861MOL0     H13637  -0.486   0.665   1.471  1.5988  0.7191  0.3038
  861MOL0     H13638   1.400   0.748   1.085 -2.5178 -0.4661  1.0565
  861MOL0     H13639   1.627   0.818   1.055 -0.3676  2.8562  0.0446
  861MOL0     H13640   2.014   1.008   1.301 -0.2159 -0.9469  2.4064
  861MOL0     H13641   2.250   1.050   1.344  0.2601  0.6323 -3.1278
  861MOL0     H13642   2.532   0.775   1.150  2.9801 -0.3795 -0.5391
  861MOL0     H13643   2.534   0.710   1.315 -2.6004  0.5218 -0.3975
  861MOL0     H13644   2.753   0.763   1.260  5.3314  3.6996  2.0001
  861MOL0     H13645   2.698   0.925   1.199 -0.5596  1.2246  1.0127
  861MOL0     H13646   2.700   0.831   1.493  0.7806  2.1469  0.8506
  861MOL0     H13647   2.671   0.989   1.445  1.2010 -0.6163  0.9294
  861MOL0     H13648   2.903   0.808   1.426 -1.4272 -0.9355  0.4337
  861MOL0     H13649   2.931   0.975   1.367  0.3968 -0.5954  0.8878
  861MOL0     H13650   2.967   1.053   1.770 -0.8422 -1.3200  0.4444
  861MOL0     H13651   2.334   0.639   1.219  1.5828 -0.1720  1.4202
  861MOL0     H13652   2.101   0.619   1.169  0.3324  0.5635 -1.1828
  862MOL0     O13653   1.550   3.332   7.504  0.8116  0.6477 -0.2790
  862MOL0     C13654   1.547   3.232   7.576  0.3163  0.4991  1.1865
  862MOL0     O13655   1.437   3.170   7.624  0.0666  0.1435 -0.2878
  862MOL0     C13656   1.314   3.229   7.597 -0.5181 -0.4258  0.3349
  862MOL0     C13657   1.259   3.264   7.469 -0.6429 -0.0692  0.8174
  862MOL0     C13658   1.128   3.310   7.444  0.3580  0.1707  0.1271
  862MOL0     C13659   1.040   3.316   7.554  0.6052 -1.0258  0.3647
  862MOL0     O13660   0.903   3.351   7.538  0.2753 -0.7197 -0.3534
  862MOL0     C13661   0.833   3.339   7.411  0.2735  0.7494 -0.0459
  862MOL0     C13662   0.839   3.476   7.345  0.0697  0.1131  0.4041
  862MOL0     C13663   0.758   3.478   7.211  0.3435  0.2165  0.1266
  862MOL0     C13664   0.744   3.629   7.151 -0.3953 -0.4334 -0.1021
  862MOL0     C13665   0.628   3.707   7.222  0.3979  0.5583  0.6086
  862MOL0     C13666   0.493   3.648   7.175 -0.0945 -0.9506  0.4584
  862MOL0     C13667   0.386   3.715   7.266 -0.2548  0.1484  0.1066
  862MOL0     C13668   0.376   3.664   7.405  0.9646  0.9218  0.7200
  862MOL0     N13669   0.368   3.513   7.412  0.4645 -0.7040 -0.4844
  862MOL0     C13670   0.256   3.440   7.412  0.3781  0.2769 -0.7890
  862MOL0     C13671   0.297   3.306   7.419  0.5511  0.0264 -0.4497
  862MOL0     C13672   0.214   3.183   7.418  0.7331  0.3122  0.0196
  862MOL0     C13673   0.083   3.194   7.503  0.4544 -0.3096 -0.4346
  862MOL0     C13674   0.013   3.059   7.529  0.0164 -0.4512  0.0535
  862MOL0     C13675  -0.137   3.076   7.544 -0.3204  0.1355  0.8278
  862MOL0     O13676  -0.163   3.179   7.640  0.3281  0.3831 -0.2028
  862MOL0     C13677  -0.298   3.179   7.690  0.2545  0.1894 -0.1178
  862MOL0     C13678  -0.399   3.083   7.667  0.5019 -0.2085 -0.2713
  862MOL0     C13679  -0.530   3.102   7.711  0.5883 -0.6216  1.0744
  862MOL0     C13680  -0.566   3.213   7.781 -0.1101  0.3468 -0.1495
  862MOL0     C13681  -0.704   3.225   7.812  0.7554 -0.3227 -0.4437
  862MOL0     O13682  -0.764   3.347   7.824  0.3489 -0.4426  0.5474
  862MOL0     C13683  -0.890   3.356   7.885  0.7942  0.1239 -0.0171
  862MOL0     C13684  -0.922   3.281   8.001 -0.6339  0.6709  1.0055
  862MOL0     C13685  -1.041   3.300   8.069  0.1436  0.2528 -0.9612
  862MOL0     C13686  -1.132   3.389   8.014  0.0162 -0.4353 -0.1855
  862MOL0     O13687  -1.259   3.408   8.088 -0.0617 -0.3692 -0.1123
  862MOL0     C13688  -1.368   3.471   8.021  0.5690 -0.8580  0.2253
  862MOL0     C13689  -1.469   3.490   8.137  0.1108 -0.3907  0.0968
  862MOL0     C13690  -1.538   3.352   8.169  0.5234 -0.8159  0.0545
  862MOL0     C13691  -1.641   3.369   8.285 -0.7873  0.0729  0.1190
  862MOL0     C13692  -1.718   3.233   8.306 -0.1248  0.1765 -0.5192
  862MOL0     C13693  -1.815   3.249   8.438  0.2601  0.0108  0.3782
  862MOL0     C13694  -1.739   3.224   8.563  0.5590  0.2878  0.1038
  862MOL0     C13695  -1.826   3.234   8.692  0.1244  0.2449 -0.0908
  862MOL0    Cl13696  -1.732   3.153   8.831 -0.2904  0.0154  0.5093
  862MOL0     C13697  -1.104   3.459   7.893 -0.0575 -0.3356 -0.5586
  862MOL0     C13698  -0.982   3.448   7.832 -0.6499  1.0396 -0.1301
  862MOL0     O13699  -0.766   3.120   7.834  0.3869  0.1708  0.0093
  862MOL0     C13700  -0.468   3.310   7.819 -0.7454 -0.9391  0.5694
  862MOL0     C13701  -0.332   3.298   7.765  0.1334 -0.3685 -0.5360
  862MOL0     N13702   0.430   3.300   7.445 -0.5643  0.4459  0.1354
  862MOL0     N13703   0.468   3.426   7.432  0.4681 -0.0894  0.0899
  862MOL0     C13704   1.083   3.284   7.684 -0.6281  0.2948 -0.0618
  862MOL0     C13705   1.217   3.236   7.702  0.6545  0.0196  0.8656
  862MOL0     C13706   1.675   3.190   7.639 -0.3298  0.1671 -0.0352
  862MOL0     C13707   1.794   3.258   7.626 -0.3392 -0.1813 -0.1070
  862MOL0     C13708   1.908   3.230   7.712  0.6863 -0.5517  0.6969
  862MOL0     C13709   1.899   3.122   7.805  0.0752 -0.4407 -0.4736
  862MOL0     O13710   2.020   3.116   7.878 -0.2855 -0.1409  0.2448
  862MOL0     C13711   2.030   3.012   7.966  0.2228  0.1357  0.0089
  862MOL0     C13712   2.177   2.989   7.990  0.3144 -0.1057  0.1122
  862MOL0     C13713   2.281   2.977   7.871 -0.3262 -0.2279  0.2210
  862MOL0     C13714   2.240   2.880   7.760  0.8676  0.0044  0.4403
  862MOL0     C13715   2.340   2.891   7.651 -0.5841  0.1423  0.6704
  862MOL0     C13716   2.412   2.906   7.557  0.3850 -0.0358  0.0272
  862MOL0     C13717   1.779   3.049   7.810  0.4034 -0.0741 -0.4831
  862MOL0     C13718   1.665   3.089   7.737 -0.8009  0.0964  1.2020
  862MOL0     H13719   1.333   3.238   7.393 -0.3388 -1.3538  1.5390
  862MOL0     H13720   1.103   3.341   7.343 -2.8201  0.4468  0.8700
  862MOL0     H13721   0.732   3.299   7.427  1.7515 -2.5722  2.2434
  862MOL0     H13722   0.879   3.263   7.347 -2.3071 -0.3509 -0.7077
  862MOL0     H13723   0.940   3.513   7.327  0.4640 -1.2093 -0.1665
  862MOL0     H13724   0.808   3.548   7.422 -2.5711 -1.0800  0.5636
  862MOL0     H13725   0.663   3.427   7.226  1.3217 -1.8727 -0.4098
  862MOL0     H13726   0.813   3.413   7.143  1.6197  1.3534  0.0288
  862MOL0     H13727   0.841   3.679   7.159  0.0242 -1.3483  0.8074
  862MOL0     H13728   0.728   3.622   7.043 -2.9537 -0.8122  0.2556
  862MOL0     H13729   0.632   3.816   7.206 -0.0481  0.4135 -0.5927
  862MOL0     H13730   0.631   3.686   7.329 -0.2660 -1.1207  0.3250
  862MOL0     H13731   0.488   3.539   7.166 -0.2254 -0.7989 -1.8830
  862MOL0     H13732   0.471   3.694   7.079  2.4920 -0.5511  0.0057
  862MOL0     H13733   0.409   3.819   7.289 -0.6337  0.0843  0.8192
  862MOL0     H13734   0.292   3.710   7.211  0.1571 -1.9763 -0.5152
  862MOL0     H13735   0.300   3.711   7.468  0.8864 -2.4103  3.4246
  862MOL0     H13736   0.474   3.679   7.452  3.4625 -3.9663 -2.1080
  862MOL0     H13737   0.156   3.477   7.390  0.1735 -1.0801 -2.2838
  862MOL0     H13738   0.279   3.101   7.451  0.1229 -0.3709 -0.4580
  862MOL0     H13739   0.183   3.139   7.323 -2.4336  2.7181 -0.2252
  862MOL0     H13740   0.009   3.258   7.453 -0.6247  0.6490  2.2281
  862MOL0     H13741   0.110   3.244   7.597  0.3052  1.6082 -1.3516
  862MOL0     H13742   0.019   2.995   7.440 -0.7049 -0.8329  0.2719
  862MOL0     H13743   0.061   3.011   7.615 -0.7071  2.7682  2.4181
  862MOL0     H13744  -0.180   2.981   7.575  0.0133 -0.3644 -0.2179
  862MOL0     H13745  -0.187   3.105   7.451 -0.9441 -4.8166 -0.6791
  862MOL0     H13746  -0.376   3.000   7.602  1.8262  0.0853 -0.2102
  862MOL0     H13747  -0.592   3.017   7.686  0.9761 -0.8350  0.8194
  862MOL0     H13748  -0.836   3.229   8.044  0.0612 -0.8274 -1.8937
  862MOL0     H13749  -1.057   3.252   8.165  0.4636  0.9317 -0.5585
  862MOL0     H13750  -1.397   3.409   7.935 -0.8745 -0.4705  0.4085
  862MOL0     H13751  -1.343   3.573   7.991  2.5160 -0.9770  1.2910
  862MOL0     H13752  -1.548   3.553   8.096  0.7583 -0.2937 -1.0137
  862MOL0     H13753  -1.423   3.535   8.225 -0.0653  0.5604 -0.2930
  862MOL0     H13754  -1.474   3.267   8.191  2.2105  0.3202 -0.3029
  862MOL0     H13755  -1.588   3.330   8.074  2.4142 -0.3155 -1.1139
  862MOL0     H13756  -1.601   3.403   8.381 -1.6338 -0.4634  0.6745
  862MOL0     H13757  -1.702   3.455   8.255  0.0353  1.1642  1.4669
  862MOL0     H13758  -1.646   3.159   8.341 -0.0973  0.8666  0.9889
  862MOL0     H13759  -1.774   3.201   8.218 -0.1849  2.0145 -1.2121
  862MOL0     H13760  -1.894   3.174   8.427  1.3350 -0.8256 -2.5985
  862MOL0     H13761  -1.868   3.344   8.434  1.9734  0.9862  0.0417
  862MOL0     H13762  -1.713   3.118   8.557  0.5584  0.3567 -1.5783
  862MOL0     H13763  -1.651   3.290   8.563  1.7151 -0.9920 -3.8495
  862MOL0     H13764  -1.921   3.180   8.683 -0.6331  0.9425  2.7770
  862MOL0     H13765  -1.857   3.338   8.706 -1.4880 -0.0190 -1.4024
  862MOL0     H13766  -1.173   3.527   7.845  1.5929  0.6072 -1.6947
  862MOL0     H13767  -0.971   3.492   7.734 -2.2814  1.2726 -0.2395
  862MOL0     H13768  -0.497   3.399   7.874  0.3564  0.7888 -1.5184
  862MOL0     H13769  -0.262   3.379   7.783 -1.3974  1.1394 -1.1281
  862MOL0     H13770   1.015   3.277   7.768 -0.6389 -0.1796 -0.1108
  862MOL0     H13771   1.251   3.207   7.801  1.5759  2.6195  1.3845
  862MOL0     H13772   1.795   3.326   7.541  1.7281  2.0600  1.5714
  862MOL0     H13773   2.002   3.283   7.700  0.1782 -0.2013 -2.4314
  862MOL0     H13774   1.988   2.918   7.931 -0.2784  0.1099  0.6624
  862MOL0     H13775   1.971   3.034   8.055 -1.0654  0.2384 -0.8442
  862MOL0     H13776   2.216   3.054   8.069  0.0071 -2.0217  1.9162
  862MOL0     H13777   2.177   2.884   8.017  0.4414  0.2152  1.4182
  862MOL0     H13778   2.379   2.944   7.904  0.6840  0.9581 -1.4376
  862MOL0     H13779   2.304   3.072   7.822  1.0722 -0.5711  0.1860
  862MOL0     H13780   2.234   2.778   7.798  0.2008  0.4936  1.6932
  862MOL0     H13781   2.140   2.901   7.721 -0.1002 -3.6644  0.5643
  862MOL0     H13782   2.464   2.895   7.464 -1.6954  0.7882 -1.2940
  862MOL0     H13783   1.755   2.966   7.876 -2.6681  2.4948  1.9828
  862MOL0     H13784   1.572   3.034   7.743 -0.5770 -1.4517 -4.0342
  863MOL0     O13785   7.652   5.867   9.704 -0.0518  0.3902  0.1163
  863MOL0     C13786   7.691   5.912   9.810 -1.0798  0.7768  0.0380
  863MOL0     O13787   7.615   5.965   9.910 -0.4141 -0.7425 -0.2859
  863MOL0     C13788   7.480   5.949   9.903 -0.4833 -0.4224  0.1358
  863MOL0     C13789   7.413   5.836   9.852 -0.1993 -0.7104 -0.2936
  863MOL0     C13790   7.277   5.835   9.859 -0.5858 -0.9830 -0.2908
  863MOL0     C13791   7.199   5.937   9.910 -0.5401  0.3574  1.0087
  863MOL0     O13792   7.064   5.919   9.900 -0.3149 -0.2042  0.0989
  863MOL0     C13793   6.983   6.009   9.974 -0.3959  0.7689 -0.0242
  863MOL0     C13794   6.877   5.925  10.042 -1.7087 -0.1894  0.6852
  863MOL0     C13795   6.758   6.005  10.055  0.1300 -0.4479 -0.3653
  863MOL0     C13796   6.655   5.939  10.141  0.0478 -0.2810 -0.5561
  863MOL0     C13797   6.513   6.005  10.133  0.4202  0.0612  0.8927
  863MOL0     C13798   6.412   5.909  10.189  0.3460  0.6319  0.1907
  863MOL0     C13799   6.271   5.969  10.201 -0.2921 -0.0425  0.5929
  863MOL0     C13800   6.194   5.973  10.073 -0.4054  0.4915 -0.0236
  863MOL0     N13801   6.163   5.850  10.007  0.7060 -0.2343  0.1995
  863MOL0     C13802   6.116   5.840   9.881 -0.1075 -0.1183  0.0000
  863MOL0     C13803   6.076   5.713   9.864 -0.0835 -0.3178 -0.3076
  863MOL0     C13804   6.036   5.631   9.741  0.4096 -0.0468 -0.5688
  863MOL0     C13805   5.909   5.558   9.769 -0.2960  0.7228 -0.0164
  863MOL0     C13806   5.789   5.651   9.785 -0.3679 -0.0712  1.3007
  863MOL0     C13807   5.662   5.580   9.814  0.1512 -1.1581 -0.9565
  863MOL0     O13808   5.559   5.672   9.793 -0.4425 -0.1671  0.0313
  863MOL0     C13809   5.429   5.626   9.793 -0.2579  0.3056  0.0651
  863MOL0     C13810   5.329   5.718   9.745  0.4022 -0.2422 -0.8980
  863MOL0     C13811   5.197   5.680   9.738  0.1770 -0.6625  0.7421
  863MOL0     C13812   5.161   5.550   9.781 -0.3506  0.6071  0.2393
  863MOL0     C13813   5.019   5.506   9.768  0.4544  0.0119  0.5141
  863MOL0     O13814   4.944   5.596   9.691 -0.3911  0.0013 -0.1577
  863MOL0     C13815   4.812   5.569   9.662  0.8868  0.5783  0.1715
  863MOL0     C13816   4.750   5.436   9.663 -0.5533 -0.2678 -0.0222
  863MOL0     C13817   4.611   5.420   9.652  0.3528 -0.3986  0.6350
  863MOL0     C13818   4.529   5.530   9.623  0.9722 -0.1688  0.2733
  863MOL0     O13819   4.391   5.511   9.604  0.0100  0.0567 -0.3294
  863MOL0     C13820   4.354   5.444   9.481 -0.0893  0.1133 -0.3663
  863MOL0     C13821   4.255   5.330   9.516 -0.3672 -0.1586 -0.4325
  863MOL0     C13822   4.164   5.299   9.393  0.5510  0.7782 -0.5807
  863MOL0     C13823   4.083   5.171   9.431  0.2603  0.1011  0.7892
  863MOL0     C13824   3.978   5.130   9.328 -1.0620 -0.6146  0.9921
  863MOL0     C13825   3.850   5.088   9.394 -0.3055  0.1616  0.9362
  863MOL0     C13826   3.765   5.018   9.285 -0.2356 -0.3827  0.2969
  863MOL0     C13827   3.654   5.102   9.224  0.3207 -0.2170  0.4010
  863MOL0    Cl13828   3.718   5.192   9.077 -0.4775 -0.0526  0.2789
  863MOL0     C13829   4.590   5.657   9.607  0.0995  0.5036  0.1509
  863MOL0     C13830   4.727   5.679   9.637  0.7442 -0.0347 -0.9408
  863MOL0     O13831   4.982   5.401   9.821 -0.3489 -0.2405 -0.5771
  863MOL0     C13832   5.256   5.477   9.860  0.8949 -0.5645 -0.2002
  863MOL0     C13833   5.389   5.511   9.857  0.1839  0.5324  0.4884
  863MOL0     N13834   6.091   5.648   9.985  0.4787  0.0305 -0.2267
  863MOL0     N13835   6.141   5.733  10.067 -0.6478  0.6940 -0.2441
  863MOL0     C13836   7.263   6.053   9.952  0.0317 -0.0081 -0.3886
  863MOL0     C13837   7.402   6.054   9.950  0.1743 -0.5223 -0.3470
  863MOL0     C13838   7.835   5.910   9.828 -0.7815 -0.8354 -0.5393
  863MOL0     C13839   7.924   5.867   9.725  0.3803 -0.5821 -0.4523
  863MOL0     C13840   8.063   5.895   9.742 -0.7238 -0.6474  0.3197
  863MOL0     C13841   8.116   5.954   9.853 -0.0707 -0.4246  0.0247
  863MOL0     O13842   8.252   5.984   9.848  0.1463 -0.2281  0.3587
  863MOL0     C13843   8.319   6.017   9.972  0.0098 -0.2462  0.3347
  863MOL0     C13844   8.467   6.029   9.966 -0.0437  0.4327  0.2626
  863MOL0     C13845   8.548   5.896   9.966 -0.2226  0.1580  0.1918
  863MOL0     C13846   8.687   5.911   9.918  0.0477  0.4542 -0.6124
  863MOL0     C13847   8.755   5.784   9.920  0.0976 -0.6688  0.1222
  863MOL0     C13848   8.796   5.673   9.922  0.1259 -0.2182 -1.0822
  863MOL0     C13849   8.034   5.969   9.968  0.5050 -0.9896 -0.3635
  863MOL0     C13850   7.893   5.958   9.945  0.1901 -0.6670 -0.3735
  863MOL0     H13851   7.463   5.745   9.820 -3.2048 -2.4488 -0.5025
  863MOL0     H13852   7.232   5.740   9.832  1.4775 -1.5344 -1.9877
  863MOL0     H13853   6.939   6.080   9.902  0.3678 -1.1607 -2.5205
  863MOL0     H13854   7.022   6.058  10.063  2.5439 -0.0689 -0.7653
  863MOL0     H13855   6.914   5.893  10.140  0.8472 -1.0270 -0.4665
  863MOL0     H13856   6.857   5.837   9.981  1.3262 -0.3098 -0.2827
  863MOL0     H13857   6.716   6.022   9.956 -1.2774  1.9937  0.5646
  863MOL0     H13858   6.780   6.110  10.077 -1.4266 -0.2303  0.2969
  863MOL0     H13859   6.652   5.835  10.107 -0.4961  0.1880 -1.9996
  863MOL0     H13860   6.688   5.932  10.245  0.4161 -0.0198 -0.6527
  863MOL0     H13861   6.495   6.029  10.028 -0.2880  0.2775  1.0600
  863MOL0     H13862   6.516   6.105  10.178  0.0040  0.2780  0.4538
  863MOL0     H13863   6.440   5.883  10.292 -0.0765 -2.0217 -0.2916
  863MOL0     H13864   6.410   5.811  10.141  2.1839 -0.5300  2.3128
  863MOL0     H13865   6.214   5.910  10.274  1.2202 -1.6108  0.5636
  863MOL0     H13866   6.289   6.063  10.253  1.9811  0.9790 -1.8248
  863MOL0     H13867   6.248   6.032   9.999 -0.0270 -2.4222 -2.2247
  863MOL0     H13868   6.100   6.024  10.096 -0.4134  0.3969  0.1554
  863MOL0     H13869   6.115   5.905   9.795 -0.0580 -0.8877 -0.5944
  863MOL0     H13870   6.115   5.563   9.707 -0.1495  0.2215 -2.5252
  863MOL0     H13871   6.023   5.691   9.651 -0.7342 -1.2719 -1.2416
  863MOL0     H13872   5.932   5.497   9.856  0.7243  1.3018  0.1347
  863MOL0     H13873   5.890   5.498   9.679 -0.1703 -0.0478  0.4697
  863MOL0     H13874   5.805   5.719   9.869 -2.5803  1.2501  0.7688
  863MOL0     H13875   5.787   5.712   9.694  0.2971 -3.2168 -0.9751
  863MOL0     H13876   5.667   5.554   9.921  0.2861 -0.1149 -0.6946
  863MOL0     H13877   5.652   5.493   9.749 -0.6371 -1.1961 -0.7850
  863MOL0     H13878   5.355   5.818   9.713 -1.2698  1.1096  1.6116
  863MOL0     H13879   5.124   5.758   9.718 -0.0608 -0.9085  0.6529
  863MOL0     H13880   4.813   5.348   9.665  1.1270  0.8786  1.5108
  863MOL0     H13881   4.571   5.320   9.664 -0.0779 -0.4907 -1.2421
  863MOL0     H13882   4.446   5.405   9.436 -0.5741 -1.5916  0.0601
  863MOL0     H13883   4.297   5.508   9.413 -0.3451 -1.3132 -1.5374
  863MOL0     H13884   4.188   5.358   9.598 -0.3865  1.7987 -1.0567
  863MOL0     H13885   4.315   5.247   9.555  0.6663  0.4819 -0.6057
  863MOL0     H13886   4.216   5.284   9.298  0.2526  2.0672 -0.9597
  863MOL0     H13887   4.099   5.386   9.380  1.5799  1.6913  0.2900
  863MOL0     H13888   4.157   5.091   9.424 -0.0216 -0.0037 -2.6476
  863MOL0     H13889   4.051   5.177   9.535  0.7147  0.5476  0.9092
  863MOL0     H13890   4.018   5.051   9.263  0.2586 -0.4489  1.5645
  863MOL0     H13891   3.955   5.217   9.266  0.4881 -0.8377  0.0158
  863MOL0     H13892   3.819   5.183   9.441  1.2668 -0.1485  2.7115
  863MOL0     H13893   3.866   5.017   9.476 -2.4540 -1.2547  0.2068
  863MOL0     H13894   3.821   4.953   9.218 -0.4986 -0.2833 -0.0210
  863MOL0     H13895   3.724   4.947   9.357  0.0027  1.3410  2.2276
  863MOL0     H13896   3.617   5.169   9.302 -1.7237 -2.5346  1.5571
  863MOL0     H13897   3.583   5.035   9.176 -1.7251  1.6505  0.6633
  863MOL0     H13898   4.536   5.746   9.574  2.0912  0.9589 -2.1797
  863MOL0     H13899   4.755   5.783   9.639 -2.8144  1.0721 -1.8848
  863MOL0     H13900   5.222   5.385   9.906 -3.0968 -0.5237 -2.5391
  863MOL0     H13901   5.465   5.452   9.907 -0.6514  0.6705  1.9961
  863MOL0     H13902   7.212   6.142   9.988 -0.7152 -1.1069  1.3787
  863MOL0     H13903   7.447   6.149   9.978 -1.7552  0.4944 -0.5572
  863MOL0     H13904   7.883   5.819   9.636  1.5212  0.6504 -1.6906
  863MOL0     H13905   8.139   5.870   9.668 -1.2261  1.1005 -0.8473
  863MOL0     H13906   8.291   5.932  10.036 -0.5908 -2.7706 -2.9696
  863MOL0     H13907   8.285   6.116  10.003  2.1021  1.2109 -1.6550
  863MOL0     H13908   8.484   6.082   9.872  1.0039  2.8350  1.7134
  863MOL0     H13909   8.511   6.094  10.042  1.0380  1.0433 -0.8445
  863MOL0     H13910   8.491   5.835   9.896 -2.6413  1.5681  0.8235
  863MOL0     H13911   8.546   5.841  10.061 -3.9161  0.0040  0.1642
  863MOL0     H13912   8.686   5.952   9.817 -0.6089 -0.0282 -0.8137
  863MOL0     H13913   8.737   5.987   9.979 -2.1898  0.4036  1.4286
  863MOL0     H13914   8.834   5.573   9.917  0.3219 -0.5926  3.8123
  863MOL0     H13915   8.069   5.997  10.066  0.8394  2.4600 -1.3461
  863MOL0     H13916   7.822   5.997  10.017  0.0495 -0.0146 -0.8532
  864MOL0     O13917   1.336   6.645   9.406 -0.3465 -0.5730 -0.1745
  864MOL0     C13918   1.396   6.687   9.307  0.0876  0.7365  0.0541
  864MOL0     O13919   1.342   6.726   9.191  0.1702 -0.1934 -0.5596
  864MOL0     C13920   1.209   6.743   9.160 -0.6490  0.2360 -0.1749
  864MOL0     C13921   1.125   6.813   9.249  0.6921  0.0334 -0.2625
  864MOL0     C13922   0.990   6.827   9.224 -0.2672  0.2655 -0.3820
  864MOL0     C13923   0.934   6.751   9.120  0.2040 -0.5694  0.4687
  864MOL0     O13924   0.796   6.753   9.100  0.8187  0.4700 -0.4252
  864MOL0     C13925   0.718   6.631   9.130  0.5778 -0.1927 -0.4710
  864MOL0     C13926   0.587   6.687   9.192  0.5120  0.2303  0.0033
  864MOL0     C13927   0.495   6.572   9.247 -0.0377 -0.0876  0.2212
  864MOL0     C13928   0.364   6.634   9.291  0.3595  0.1934  0.2195
  864MOL0     C13929   0.269   6.531   9.354 -1.1886  0.9361  0.7137
  864MOL0     C13930   0.133   6.582   9.371 -0.3341  0.2321 -0.1741
  864MOL0     C13931   0.058   6.490   9.466 -0.0076 -0.2766  0.3039
  864MOL0     C13932  -0.006   6.364   9.415  1.0842  0.7448 -0.2155
  864MOL0     N13933  -0.108   6.293   9.498 -0.3356 -0.2716  0.6573
  864MOL0     C13934  -0.240   6.302   9.476  1.2978  0.1901 -0.7317
  864MOL0     C13935  -0.301   6.240   9.582 -0.7156 -0.6073  0.3328
  864MOL0     C13936  -0.447   6.226   9.604  0.1709 -0.1237  0.0160
  864MOL0     C13937  -0.497   6.120   9.502  0.7475  0.7065 -0.6201
  864MOL0     C13938  -0.647   6.096   9.523  0.7249  0.0575 -0.1742
  864MOL0     C13939  -0.740   6.147   9.408  0.1267 -0.6080 -0.7541
  864MOL0     O13940  -0.851   6.218   9.467  0.2214  0.2694 -0.1545
  864MOL0     C13941  -0.974   6.222   9.415  0.1563 -0.0713 -0.4341
  864MOL0     C13942  -1.020   6.174   9.295 -1.3220 -0.3282 -0.3969
  864MOL0     C13943  -1.151   6.188   9.246 -0.1046 -0.7212 -0.2389
  864MOL0     C13944  -1.237   6.270   9.316  0.3698 -0.1406  0.7428
  864MOL0     C13945  -1.370   6.311   9.277 -0.2670 -0.5697  0.2674
  864MOL0     O13946  -1.441   6.380   9.360  0.0811 -0.4021 -0.1271
  864MOL0     C13947  -1.566   6.416   9.327 -0.3452 -0.4932  0.1188
  864MOL0     C13948  -1.660   6.318   9.299  0.6659  0.1314  0.0318
  864MOL0     C13949  -1.786   6.351   9.269 -0.1065 -0.3109  0.4817
  864MOL0     C13950  -1.827   6.485   9.267 -0.0310  0.1165  0.5604
  864MOL0     O13951  -1.957   6.515   9.230 -0.2723  0.0550  0.0930
  864MOL0     C13952  -1.997   6.648   9.184 -0.0036  0.2587  0.5667
  864MOL0     C13953  -2.150   6.661   9.164  0.4508 -0.2969 -0.2942
  864MOL0     C13954  -2.188   6.757   9.054 -0.8003  0.2125 -0.6825
  864MOL0     C13955  -2.325   6.822   9.062  0.2515  0.7719 -0.1283
  864MOL0     C13956  -2.432   6.714   9.052  0.1241 -0.4278 -0.3841
  864MOL0     C13957  -2.576   6.750   9.057  0.1672 -0.8196 -1.2014
  864MOL0     C13958  -2.656   6.614   9.053 -0.0605 -1.0590  0.1958
  864MOL0     C13959  -2.802   6.638   9.067  0.4232 -0.4409 -0.3134
  864MOL0    Cl13960  -2.848   6.697   9.231  0.0788 -0.1136 -0.1570
  864MOL0     C13961  -1.732   6.591   9.289 -0.2619  0.3583  0.2085
  864MOL0     C13962  -1.602   6.556   9.323  0.9256 -0.5540  0.2932
  864MOL0     O13963  -1.397   6.287   9.158 -0.0387  0.3106  0.3222
  864MOL0     C13964  -1.194   6.329   9.441 -0.6431 -0.3155  0.3399
  864MOL0     C13965  -1.064   6.303   9.489 -0.4429  0.0448  0.1014
  864MOL0     N13966  -0.205   6.202   9.675  0.1312 -0.8633  0.2984
  864MOL0     N13967  -0.091   6.231   9.618 -0.1391 -0.5094 -0.3183
  864MOL0     C13968   1.016   6.676   9.028 -0.4346 -1.1676  0.6247
  864MOL0     C13969   1.157   6.691   9.043 -0.6270 -0.2119  0.2813
  864MOL0     C13970   1.545   6.689   9.311  0.3139  0.1452  1.1550
  864MOL0     C13971   1.611   6.773   9.221  0.7621 -0.1930 -0.1097
  864MOL0     C13972   1.747   6.786   9.226 -0.1996 -0.4817 -0.4038
  864MOL0     C13973   1.827   6.704   9.316  0.1379  0.2921  0.7144
  864MOL0     O13974   1.961   6.728   9.301 -0.0688  0.1288 -0.3874
  864MOL0     C13975   2.057   6.654   9.382  0.6342  0.6071  0.2288
  864MOL0     C13976   2.202   6.700   9.374  0.5697  0.0713 -0.6904
  864MOL0     C13977   2.236   6.851   9.381 -1.0978  0.0524  0.4689
  864MOL0     C13978   2.389   6.870   9.394 -0.0077 -0.0313 -0.5957
  864MOL0     C13979   2.430   6.856   9.534 -0.8031  0.0730 -0.0439
  864MOL0     C13980   2.479   6.848   9.642 -1.1367  0.1998  0.0517
  864MOL0     C13981   1.764   6.613   9.396  0.6214  0.1802  0.2177
  864MOL0     C13982   1.624   6.606   9.392 -0.9545  0.4631  0.1107
  864MOL0     H13983   1.176   6.849   9.338  1.5693 -4.0741  1.1215
  864MOL0     H13984   0.926   6.872   9.299  0.3416 -1.1289  1.0231
  864MOL0     H13985   0.762   6.574   9.212 -2.0611 -0.0745  1.1445
  864MOL0     H13986   0.701   6.565   9.045  1.1574 -0.2875 -0.5230
  864MOL0     H13987   0.543   6.742   9.109  1.2945 -0.3364 -0.7966
  864MOL0     H13988   0.616   6.753   9.275  0.9165  1.2641 -0.9334
  864MOL0     H13989   0.543   6.523   9.332  0.8550  2.0262  0.9897
  864MOL0     H13990   0.483   6.492   9.173  5.2857 -1.8921  0.8714
  864MOL0     H13991   0.381   6.715   9.363 -2.3502 -0.6039  1.9520
  864MOL0     H13992   0.313   6.671   9.202 -2.2181 -1.4674  0.8824
  864MOL0     H13993   0.306   6.495   9.450 -0.8545  1.2271  0.6931
  864MOL0     H13994   0.263   6.444   9.287  1.2796  2.2429 -1.3927
  864MOL0     H13995   0.083   6.576   9.274  0.0847  0.7899 -0.4278
  864MOL0     H13996   0.127   6.685   9.407 -0.8189  0.2475 -0.2937
  864MOL0     H13997   0.116   6.469   9.557  1.1051 -1.8822 -0.7199
  864MOL0     H13998  -0.024   6.554   9.498  0.1407  2.6858 -4.3884
  864MOL0     H13999   0.077   6.295   9.396 -0.7629 -1.7660  0.3513
  864MOL0     H14000  -0.040   6.385   9.313  4.0943  1.1176 -1.2558
  864MOL0     H14001  -0.300   6.339   9.393  2.3562 -0.4309 -1.8087
  864MOL0     H14002  -0.496   6.324   9.599 -0.5994 -0.5509 -0.8653
  864MOL0     H14003  -0.461   6.182   9.703  1.8704  0.2086  0.4499
  864MOL0     H14004  -0.453   6.022   9.523 -0.0789 -0.2248 -2.8960
  864MOL0     H14005  -0.478   6.143   9.397 -3.3890  0.6265 -1.5868
  864MOL0     H14006  -0.664   5.988   9.514  0.3425  0.0724  0.3212
  864MOL0     H14007  -0.672   6.132   9.623  0.4487 -3.3522  1.1291
  864MOL0     H14008  -0.767   6.064   9.342 -2.3571 -1.3743  1.0888
  864MOL0     H14009  -0.684   6.221   9.349 -0.2969  0.5128  0.2023
  864MOL0     H14010  -0.959   6.104   9.239 -2.7147 -1.2206 -0.8613
  864MOL0     H14011  -1.173   6.125   9.161  2.5963  0.2753 -1.7714
  864MOL0     H14012  -1.616   6.219   9.291  0.5362  0.1467 -1.0791
  864MOL0     H14013  -1.862   6.276   9.250  0.8307 -2.0878  3.1940
  864MOL0     H14014  -1.945   6.678   9.092  1.9406  0.3653  1.6508
  864MOL0     H14015  -1.970   6.729   9.253 -2.1487 -0.8056  2.7991
  864MOL0     H14016  -2.191   6.707   9.254 -0.7868 -1.0526 -0.4521
  864MOL0     H14017  -2.199   6.566   9.139 -0.4601 -0.5264  2.0923
  864MOL0     H14018  -2.174   6.709   8.956  0.3309  2.0630 -1.4842
  864MOL0     H14019  -2.112   6.835   9.043  1.6258 -1.5568  2.0026
  864MOL0     H14020  -2.330   6.878   9.156  2.3063  1.9592 -0.6616
  864MOL0     H14021  -2.334   6.890   8.977 -1.1082  0.3040 -0.3760
  864MOL0     H14022  -2.421   6.655   9.144 -1.6334 -1.9993 -1.1112
  864MOL0     H14023  -2.418   6.653   8.962 -0.3936  1.5031 -1.8430
  864MOL0     H14024  -2.589   6.808   8.966  0.0931 -1.1795 -1.4200
  864MOL0     H14025  -2.606   6.817   9.139  3.0650  2.8085 -2.8168
  864MOL0     H14026  -2.633   6.556   8.963 -3.3499 -2.0638 -0.1076
  864MOL0     H14027  -2.622   6.549   9.134 -2.1942 -1.4342  0.8483
  864MOL0     H14028  -2.862   6.548   9.050  0.9437 -1.0138  0.8001
  864MOL0     H14029  -2.831   6.710   8.990  3.1062  0.3703 -0.6743
  864MOL0     H14030  -1.752   6.697   9.279 -1.3286  0.3312  1.6723
  864MOL0     H14031  -1.520   6.624   9.344  0.0199  0.5775  0.2706
  864MOL0     H14032  -1.262   6.386   9.504  1.4701  1.3981  1.1777
  864MOL0     H14033  -1.028   6.358   9.575 -0.3629 -1.8256  1.3091
  864MOL0     H14034   0.960   6.629   8.948  0.5368 -2.0308  0.4239
  864MOL0     H14035   1.226   6.658   8.965 -2.5536 -0.4559 -1.4091
  864MOL0     H14036   1.567   6.844   9.153 -0.0932  0.0251  0.6505
  864MOL0     H14037   1.804   6.840   9.151  1.5428  1.7094  2.2874
  864MOL0     H14038   2.057   6.552   9.341 -0.9646  1.1347 -1.2007
  864MOL0     H14039   2.024   6.655   9.486 -1.8598  1.6735 -0.4806
  864MOL0     H14040   2.256   6.652   9.456  1.2611  0.0318 -1.1587
  864MOL0     H14041   2.241   6.660   9.280 -0.3909  0.8965 -1.4718
  864MOL0     H14042   2.188   6.906   9.463  2.2461  4.7105 -0.3443
  864MOL0     H14043   2.193   6.901   9.294  1.0539  2.6660  0.7951
  864MOL0     H14044   2.447   6.793   9.344  1.4332  1.1902 -0.8787
  864MOL0     H14045   2.421   6.967   9.355 -3.4563  2.1987  1.5722
  864MOL0     H14046   2.519   6.828   9.739 -1.1177  2.4091  0.5625
  864MOL0     H14047   1.817   6.552   9.468 -0.0836  0.2916  0.8505
  864MOL0     H14048   1.586   6.521   9.448  0.2075 -0.7721 -0.9038
  865MOL0     O14049   9.069   2.332   2.448  0.1357 -0.2612 -0.1905
  865MOL0     C14050   9.105   2.417   2.532  0.2589  0.2567 -0.0817
  865MOL0     O14051   9.032   2.457   2.644 -0.4567 -0.5504 -0.3762
  865MOL0     C14052   8.904   2.414   2.646 -0.3239  0.3051 -0.5550
  865MOL0     C14053   8.870   2.306   2.722  0.1378  0.3927  0.3237
  865MOL0     C14054   8.741   2.258   2.715  0.6220  0.2798 -1.1893
  865MOL0     C14055   8.637   2.314   2.642  0.6098 -0.3613  0.2814
  865MOL0     O14056   8.506   2.281   2.637  0.3056 -0.2593  0.0494
  865MOL0     C14057   8.450   2.184   2.723 -0.3369  0.0062 -1.4714
  865MOL0     C14058   8.299   2.163   2.689  0.0330 -0.1678  0.2598
  865MOL0     C14059   8.216   2.281   2.741  0.5921 -0.4840  0.1775
  865MOL0     C14060   8.066   2.258   2.756  0.3931  0.5083 -0.4659
  865MOL0     C14061   7.988   2.387   2.779  0.2693 -0.1677 -0.0420
  865MOL0     C14062   7.841   2.361   2.799  0.4549  0.3642 -0.1121
  865MOL0     C14063   7.769   2.481   2.872 -0.0079 -1.2449  0.1145
  865MOL0     C14064   7.627   2.437   2.901  0.0292  0.5559  0.6163
  865MOL0     N14065   7.548   2.531   2.973  0.4363 -0.1095  0.4140
  865MOL0     C14066   7.408   2.518   2.980  0.1850 -0.1410  0.8827
  865MOL0     C14067   7.376   2.621   3.063 -0.2983  0.6931  0.4521
  865MOL0     C14068   7.234   2.653   3.107 -0.0159  0.6126  0.0672
  865MOL0     C14069   7.156   2.726   2.995  0.2129 -0.7832 -0.6039
  865MOL0     C14070   7.012   2.743   3.035 -0.1809 -0.1904  0.3743
  865MOL0     C14071   6.990   2.873   3.114 -0.4018  0.0927  0.1841
  865MOL0     O14072   6.847   2.894   3.117 -0.2168  0.0619 -0.3053
  865MOL0     C14073   6.780   2.991   3.194 -0.5621  0.2484  0.5914
  865MOL0     C14074   6.637   2.982   3.194 -0.0333  0.6948 -0.3914
  865MOL0     C14075   6.566   3.074   3.265  0.1887  0.2413 -0.8740
  865MOL0     C14076   6.619   3.182   3.332 -0.1142  0.3581 -0.0964
  865MOL0     C14077   6.531   3.284   3.404  0.3844 -0.0343 -0.4608
  865MOL0     O14078   6.395   3.281   3.377 -0.1298 -0.3556  0.0128
  865MOL0     C14079   6.306   3.345   3.466  0.1019 -1.0202  0.1111
  865MOL0     C14080   6.190   3.395   3.397  0.4414 -0.3007 -0.0165
  865MOL0     C14081   6.078   3.435   3.474 -0.1910  0.1826 -0.3635
  865MOL0     C14082   6.096   3.446   3.612  0.4441 -0.3736 -0.5694
  865MOL0     O14083   6.004   3.476   3.703  0.2441 -0.4632 -0.7652
  865MOL0     C14084   5.887   3.542   3.664 -0.0870 -0.1107 -0.8230
  865MOL0     C14085   5.819   3.631   3.776 -0.3052 -0.1813  0.4752
  865MOL0     C14086   5.687   3.678   3.718 -0.5263 -0.3308  0.1424
  865MOL0     C14087   5.621   3.777   3.809 -0.2675 -0.0284  0.3994
  865MOL0     C14088   5.480   3.807   3.764  0.4228  0.1171  0.5087
  865MOL0     C14089   5.418   3.931   3.838 -0.1447 -0.8755 -0.3253
  865MOL0     C14090   5.279   3.946   3.777  0.2693 -0.5521 -0.5712
  865MOL0     C14091   5.212   4.078   3.801  0.3397 -0.3588 -0.2912
  865MOL0    Cl14092   5.066   4.090   3.700 -0.2825  0.3487 -0.1454
  865MOL0     C14093   6.216   3.418   3.680 -0.3961  0.1270  0.3360
  865MOL0     C14094   6.323   3.364   3.605 -0.0130 -0.2462  0.1396
  865MOL0     O14095   6.586   3.355   3.494  0.4196 -0.5009 -0.1109
  865MOL0     C14096   6.757   3.189   3.335 -0.6749  0.5112  0.4254
  865MOL0     C14097   6.841   3.095   3.264  0.5028  0.2411  0.1160
  865MOL0     N14098   7.488   2.696   3.092  0.3932  0.0192 -0.2734
  865MOL0     N14099   7.591   2.647   3.037  0.0181 -0.1180 -0.7164
  865MOL0     C14100   8.680   2.420   2.556  0.3350  0.4960 -0.8332
  865MOL0     C14101   8.804   2.476   2.567 -0.4046  0.4129 -0.1307
  865MOL0     C14102   9.227   2.490   2.496 -0.5089 -0.1570  0.0769
  865MOL0     C14103   9.250   2.615   2.546 -0.4019  0.1137 -0.4696
  865MOL0     C14104   9.363   2.685   2.507 -0.5259 -0.3667  0.3756
  865MOL0     C14105   9.458   2.633   2.422 -0.6764 -0.3037 -0.5846
  865MOL0     O14106   9.568   2.711   2.387 -0.2143 -0.4537  0.4753
  865MOL0     C14107   9.690   2.652   2.415 -0.0834  0.1593 -1.1732
  865MOL0     C14108   9.783   2.765   2.385 -1.2344 -0.1568 -0.3583
  865MOL0     C14109   9.927   2.742   2.426 -0.7808  0.6629 -0.0587
  865MOL0     C14110  10.032   2.788   2.331 -0.2640 -0.8875  0.6757
  865MOL0     C14111  10.059   2.935   2.330  0.5994  0.4035  0.0534
  865MOL0     C14112  10.070   3.054   2.323  0.1717 -0.0454 -0.3898
  865MOL0     C14113   9.438   2.504   2.377  0.1211  0.7414  0.0049
  865MOL0     C14114   9.323   2.435   2.410 -0.9195  0.0028 -0.5504
  865MOL0     H14115   8.947   2.265   2.786 -1.8870 -3.3327  0.6496
  865MOL0     H14116   8.716   2.173   2.778  1.4395 -0.1089 -1.3742
  865MOL0     H14117   8.456   2.213   2.828 -0.6713  0.3674 -1.5491
  865MOL0     H14118   8.507   2.092   2.711  2.5952  0.7271  3.9471
  865MOL0     H14119   8.273   2.072   2.744  1.2373  1.0946  3.1708
  865MOL0     H14120   8.279   2.148   2.583  2.5189 -0.3487 -0.2385
  865MOL0     H14121   8.223   2.369   2.676  0.8398 -0.4593  0.2356
  865MOL0     H14122   8.243   2.301   2.845 -3.6353 -1.0296  1.5855
  865MOL0     H14123   8.037   2.198   2.669  3.1733 -0.2882 -0.9376
  865MOL0     H14124   8.065   2.191   2.843 -0.9933  2.3094  0.9766
  865MOL0     H14125   8.015   2.455   2.698  1.6346 -0.7958 -0.1376
  865MOL0     H14126   8.026   2.430   2.873 -0.3695  5.0011 -1.8234
  865MOL0     H14127   7.823   2.271   2.859 -2.6892  1.1276  0.2554
  865MOL0     H14128   7.790   2.341   2.704 -0.6683 -3.8082  1.1675
  865MOL0     H14129   7.822   2.506   2.964  0.9375 -3.0769  0.1148
  865MOL0     H14130   7.783   2.567   2.805  0.5931 -0.4180  1.2756
  865MOL0     H14131   7.643   2.353   2.968 -1.4740 -1.4733 -1.4100
  865MOL0     H14132   7.588   2.398   2.807 -0.8633  1.9576  0.3620
  865MOL0     H14133   7.339   2.444   2.941  0.1145  0.8353 -0.9499
  865MOL0     H14134   7.236   2.716   3.196  1.7967 -0.0993  0.5900
  865MOL0     H14135   7.179   2.562   3.133  0.6720 -0.9079 -3.2287
  865MOL0     H14136   7.174   2.698   2.890  4.6583 -0.1550 -0.1921
  865MOL0     H14137   7.200   2.823   2.973  0.4535 -0.9469 -0.8692
  865MOL0     H14138   6.948   2.738   2.946  0.0024 -0.1274  0.2394
  865MOL0     H14139   6.986   2.663   3.105  1.8499  0.3590  1.8372
  865MOL0     H14140   7.020   2.968   3.068 -0.6823  0.6560  1.1211
  865MOL0     H14141   7.037   2.886   3.212 -1.7264  2.2186  0.6187
  865MOL0     H14142   6.586   2.895   3.152  1.0826 -0.2640  0.1737
  865MOL0     H14143   6.458   3.063   3.268 -0.4172  4.4896  2.5615
  865MOL0     H14144   6.172   3.381   3.291 -0.7389 -1.7106  0.3245
  865MOL0     H14145   5.975   3.452   3.442 -1.3185 -0.5681  2.5340
  865MOL0     H14146   5.817   3.471   3.619  0.9377 -0.6375 -1.6437
  865MOL0     H14147   5.918   3.613   3.586 -0.1478  2.2090  1.1411
  865MOL0     H14148   5.887   3.715   3.791  1.9415 -1.4988 -1.7802
  865MOL0     H14149   5.799   3.581   3.872 -0.3876 -0.8987  0.0922
  865MOL0     H14150   5.624   3.588   3.714 -0.6880 -0.2747  1.2591
  865MOL0     H14151   5.697   3.732   3.623 -0.5087 -0.7075 -0.0737
  865MOL0     H14152   5.625   3.744   3.913 -1.8024 -1.2246  0.1302
  865MOL0     H14153   5.677   3.871   3.808  1.9184 -1.2615  0.2844
  865MOL0     H14154   5.414   3.722   3.780 -0.1832  0.3825 -0.4923
  865MOL0     H14155   5.487   3.823   3.656  0.2277  0.8867  0.6044
  865MOL0     H14156   5.479   4.020   3.821 -0.3917 -0.6013  0.1937
  865MOL0     H14157   5.412   3.898   3.942 -1.2968 -0.4997 -0.2614
  865MOL0     H14158   5.285   3.927   3.670  4.3621  2.6069 -1.1197
  865MOL0     H14159   5.216   3.866   3.817  0.2297  1.1160  3.1303
  865MOL0     H14160   5.281   4.155   3.764 -0.7398  0.9690  0.3357
  865MOL0     H14161   5.187   4.101   3.904 -1.0716  0.6090 -0.8200
  865MOL0     H14162   6.229   3.429   3.787  0.4786  1.3003  0.1249
  865MOL0     H14163   6.412   3.330   3.658  0.3623 -0.2138 -0.4656
  865MOL0     H14164   6.801   3.254   3.410 -1.4286  0.7125  0.7009
  865MOL0     H14165   6.949   3.105   3.275  0.7275 -1.1545 -0.5998
  865MOL0     H14166   8.606   2.461   2.489 -0.6961  0.6624  0.3574
  865MOL0     H14167   8.832   2.569   2.519 -1.4143  1.2482  0.8435
  865MOL0     H14168   9.182   2.663   2.615  0.8884 -0.6516  1.4434
  865MOL0     H14169   9.389   2.785   2.538  4.6515 -1.4067  0.3748
  865MOL0     H14170   9.709   2.564   2.354 -0.4032 -2.2303  1.9404
  865MOL0     H14171   9.696   2.623   2.521 -0.6862  1.3804 -0.7759
  865MOL0     H14172   9.776   2.765   2.276  1.5921 -0.6180 -0.6219
  865MOL0     H14173   9.747   2.862   2.421  0.5169  0.0632  0.9319
  865MOL0     H14174   9.936   2.634   2.441  0.7773  0.5699 -1.3984
  865MOL0     H14175   9.939   2.792   2.523 -0.7895  0.9362 -0.1998
  865MOL0     H14176  10.122   2.731   2.354  0.0955 -0.3153  0.7251
  865MOL0     H14177  10.004   2.764   2.228  1.2707  0.7848 -0.1873
  865MOL0     H14178  10.092   3.158   2.319 -0.7258  0.1438 -0.6732
  865MOL0     H14179   9.516   2.467   2.311  0.3730  0.5570  0.4060
  865MOL0     H14180   9.314   2.331   2.380  0.6356 -0.5419  0.7443
  866MOL0     O14181   8.138   0.812   2.319 -0.7072  0.5873 -0.0607
  866MOL0     C14182   8.146   0.711   2.256  0.5187  0.1411 -0.6903
  866MOL0     O14183   8.042   0.653   2.191  0.2851 -0.2869 -0.1125
  866MOL0     C14184   7.922   0.715   2.189 -0.0272 -0.7953  0.2223
  866MOL0     C14185   7.864   0.722   2.064  0.5506  0.6539  0.1001
  866MOL0     C14186   7.747   0.790   2.050  1.0005  0.1927  0.4373
  866MOL0     C14187   7.681   0.845   2.161  0.5963 -0.1975 -0.2651
  866MOL0     O14188   7.554   0.894   2.151  0.7023  0.3309 -0.1926
  866MOL0     C14189   7.524   0.996   2.242 -0.5059  0.6017 -0.0636
  866MOL0     C14190   7.416   1.092   2.175 -0.0316 -1.1231 -0.3880
  866MOL0     C14191   7.286   1.079   2.244 -0.8450  0.1244 -0.6665
  866MOL0     C14192   7.173   1.148   2.173  0.2371  0.3590  0.3909
  866MOL0     C14193   7.053   1.154   2.272  0.0711  1.2697  0.3463
  866MOL0     C14194   6.930   1.160   2.192  0.1432  0.5728 -0.1163
  866MOL0     C14195   6.805   1.155   2.275  0.2615  0.8945  0.2013
  866MOL0     C14196   6.671   1.157   2.201  1.3066  0.4238  0.3914
  866MOL0     N14197   6.556   1.137   2.297  0.5335 -0.7545 -0.5325
  866MOL0     C14198   6.489   1.240   2.365  0.3580 -0.2842 -1.0295
  866MOL0     C14199   6.382   1.175   2.421 -0.6726 -0.0111 -0.6496
  866MOL0     C14200   6.282   1.250   2.504  0.2377 -0.1422 -0.3849
  866MOL0     C14201   6.141   1.253   2.448  0.2479 -0.0725 -0.4157
  866MOL0     C14202   6.123   1.354   2.333 -0.3779  0.0363 -0.1550
  866MOL0     C14203   5.996   1.323   2.259 -0.3752  0.1773 -0.6287
  866MOL0     O14204   5.967   1.431   2.165  0.2037 -0.8396  0.1399
  866MOL0     C14205   5.855   1.419   2.097 -0.5469  0.2113  0.3046
  866MOL0     C14206   5.881   1.423   1.957 -0.3196  0.3116  0.0062
  866MOL0     C14207   5.765   1.414   1.870  0.0326 -0.0951 -0.2105
  866MOL0     C14208   5.635   1.398   1.922 -0.5492 -0.3619 -0.1509
  866MOL0     C14209   5.511   1.387   1.838  0.1052  0.5684 -0.0315
  866MOL0     O14210   5.390   1.375   1.901 -0.0874  0.0694 -0.2612
  866MOL0     C14211   5.283   1.357   1.818  0.0299 -0.4974 -0.0436
  866MOL0     C14212   5.254   1.230   1.766 -0.4078 -0.4255 -0.7720
  866MOL0     C14213   5.140   1.204   1.680 -0.4187  0.0039 -0.2459
  866MOL0     C14214   5.063   1.311   1.639 -0.2424 -0.2714  0.0533
  866MOL0     O14215   4.963   1.303   1.542 -0.4202 -0.6403  0.3238
  866MOL0     C14216   4.890   1.415   1.479 -0.2970 -0.2862  0.2126
  866MOL0     C14217   4.801   1.347   1.371 -0.7916  0.4137 -0.8356
  866MOL0     C14218   4.734   1.445   1.264  0.5184 -0.0067  0.0043
  866MOL0     C14219   4.599   1.494   1.304 -0.1543 -0.1649 -0.5104
  866MOL0     C14220   4.530   1.552   1.179  0.6779  0.2558 -1.0709
  866MOL0     C14221   4.387   1.603   1.219  0.0131  0.2889 -0.2817
  866MOL0     C14222   4.322   1.639   1.083  0.2820  0.4952  0.2289
  866MOL0     C14223   4.172   1.647   1.083  1.2193  0.2633  0.4564
  866MOL0    Cl14224   4.087   1.480   1.071  0.0182 -0.0894 -0.8520
  866MOL0     C14225   5.099   1.448   1.677 -0.3754  0.4918  0.4164
  866MOL0     C14226   5.202   1.464   1.776  0.1508 -0.4794 -0.9231
  866MOL0     O14227   5.530   1.391   1.719  0.4108  0.2597  0.5335
  866MOL0     C14228   5.612   1.400   2.057 -0.1856  0.1492 -0.1931
  866MOL0     C14229   5.721   1.411   2.146  0.9351  0.0080 -0.1628
  866MOL0     N14230   6.385   1.043   2.378 -0.5381  0.0500  0.2945
  866MOL0     N14231   6.485   1.020   2.313  0.9692  0.2156  0.4606
  866MOL0     C14232   7.746   0.839   2.290 -0.0240 -0.2242  0.6976
  866MOL0     C14233   7.858   0.769   2.305 -0.4093  0.6108 -0.3228
  866MOL0     C14234   8.277   0.644   2.245 -0.3854  0.2679  0.0501
  866MOL0     C14235   8.288   0.528   2.164  0.6472  0.5947 -0.3145
  866MOL0     C14236   8.416   0.474   2.139 -0.1813 -0.0757  0.5682
  866MOL0     C14237   8.529   0.535   2.188  0.3781  0.0507 -0.5780
  866MOL0     O14238   8.656   0.479   2.152 -0.2259  0.3262  0.1384
  866MOL0     C14239   8.773   0.564   2.164 -0.5426  0.8951 -0.0133
  866MOL0     C14240   8.899   0.483   2.167  0.2105  0.1572  0.4148
  866MOL0     C14241   9.015   0.549   2.085  0.4771 -0.4250  0.6905
  866MOL0     C14242   9.153   0.496   2.115  0.2741  0.3353  0.1242
  866MOL0     C14243   9.253   0.572   2.049  0.3301  0.5667  0.9900
  866MOL0     C14244   9.346   0.632   1.989  0.6089  0.2236 -0.1637
  866MOL0     C14245   8.518   0.631   2.287  0.3453 -0.8224 -0.4331
  866MOL0     C14246   8.390   0.690   2.314  0.0725 -0.4424 -0.3196
  866MOL0     H14247   7.899   0.672   1.974 -2.2928  0.6266 -1.1165
  866MOL0     H14248   7.685   0.786   1.962  1.7123 -1.7419 -0.0288
  866MOL0     H14249   7.611   1.059   2.265 -1.2530  2.8838 -2.8866
  866MOL0     H14250   7.484   0.951   2.334  1.0836 -0.9744 -0.0707
  866MOL0     H14251   7.393   1.065   2.071 -1.1400  2.4807 -1.2300
  866MOL0     H14252   7.455   1.193   2.163  0.4298 -1.0975  1.1644
  866MOL0     H14253   7.294   1.114   2.348 -2.7801 -1.1117 -0.0414
  866MOL0     H14254   7.258   0.973   2.243 -2.9667  0.6177 -0.2992
  866MOL0     H14255   7.207   1.245   2.135  1.9422 -0.6346 -0.7612
  866MOL0     H14256   7.150   1.089   2.084  1.6391 -0.3837  0.4826
  866MOL0     H14257   7.054   1.231   2.350  1.0596  0.7193  0.8972
  866MOL0     H14258   7.050   1.060   2.329 -1.3296 -0.5150 -2.4511
  866MOL0     H14259   6.926   1.076   2.121 -3.0971  0.9226 -0.5294
  866MOL0     H14260   6.925   1.252   2.133 -0.2209  1.1553  0.7977
  866MOL0     H14261   6.794   1.067   2.340  0.2183  1.6764  1.2763
  866MOL0     H14262   6.796   1.244   2.338 -1.6333 -0.3751  1.8589
  866MOL0     H14263   6.656   1.079   2.125  0.9979  0.4431  0.4293
  866MOL0     H14264   6.663   1.261   2.170  0.2017  0.5409  0.9858
  866MOL0     H14265   6.512   1.346   2.364 -1.4970  0.1430 -1.9076
  866MOL0     H14266   6.320   1.353   2.512 -1.0693  0.2444  1.3517
  866MOL0     H14267   6.285   1.199   2.600  1.6052 -1.5686 -1.1370
  866MOL0     H14268   6.072   1.274   2.530 -1.0121  2.4737 -1.9803
  866MOL0     H14269   6.116   1.154   2.408  0.7318 -0.0815 -0.6977
  866MOL0     H14270   6.118   1.454   2.377 -1.8223  0.1946 -0.6057
  866MOL0     H14271   6.207   1.359   2.263 -0.2260  3.3798  0.0934
  866MOL0     H14272   5.915   1.314   2.331  0.1959 -1.1847 -0.1346
  866MOL0     H14273   6.009   1.228   2.207 -0.8846 -0.1693 -0.1309
  866MOL0     H14274   5.981   1.427   1.915 -0.3346  2.3679  0.0911
  866MOL0     H14275   5.775   1.441   1.765  1.2511  1.9774  0.3598
  866MOL0     H14276   5.321   1.153   1.802 -0.8664  0.6308  2.7346
  866MOL0     H14277   5.127   1.103   1.642  1.1465  0.8418 -3.3772
  866MOL0     H14278   4.960   1.487   1.435 -1.6258  1.9795  1.6501
  866MOL0     H14279   4.826   1.472   1.547  0.2776  1.6553 -0.8070
  866MOL0     H14280   4.735   1.277   1.424  0.5950 -1.3529 -1.3612
  866MOL0     H14281   4.874   1.280   1.325 -2.9439 -3.8055  1.3096
  866MOL0     H14282   4.705   1.378   1.182 -3.3279 -0.0848  1.2371
  866MOL0     H14283   4.809   1.520   1.238  2.5930 -1.8362  0.4253
  866MOL0     H14284   4.538   1.408   1.337 -0.5634 -0.1781 -1.2852
  866MOL0     H14285   4.605   1.569   1.384  2.7007 -0.6919 -0.1138
  866MOL0     H14286   4.523   1.475   1.102  2.3011 -1.5502  0.4739
  866MOL0     H14287   4.584   1.642   1.149  2.4833 -0.7404 -0.9542
  866MOL0     H14288   4.392   1.697   1.276  2.0955  0.5267 -0.7781
  866MOL0     H14289   4.324   1.525   1.263  2.1777 -1.3844 -0.0033
  866MOL0     H14290   4.362   1.739   1.062 -0.9031  1.3259  1.7334
  866MOL0     H14291   4.337   1.564   1.005 -0.0543  0.5769  0.0850
  866MOL0     H14292   4.148   1.697   0.988 -1.8549 -1.5772  0.1374
  866MOL0     H14293   4.127   1.691   1.173 -0.5711 -1.1776  0.3278
  866MOL0     H14294   5.036   1.530   1.645  1.9548  1.3292 -2.5501
  866MOL0     H14295   5.234   1.563   1.807  2.5037 -2.0162  2.0368
  866MOL0     H14296   5.511   1.388   2.095  0.2138 -0.6633  0.6298
  866MOL0     H14297   5.700   1.421   2.252 -0.8558  0.8367 -0.5647
  866MOL0     H14298   7.704   0.879   2.382  0.6921  1.4861  0.3267
  866MOL0     H14299   7.905   0.755   2.401 -0.4942 -0.3289 -0.4171
  866MOL0     H14300   8.195   0.480   2.137 -0.2021  0.1177  2.9635
  866MOL0     H14301   8.428   0.382   2.083 -1.4079  0.3927 -0.5057
  866MOL0     H14302   8.773   0.637   2.246  1.1079  0.5827  0.3044
  866MOL0     H14303   8.772   0.619   2.069 -1.0238  0.1533 -0.4501
  866MOL0     H14304   8.935   0.474   2.270  0.7674  0.2827  0.2352
  866MOL0     H14305   8.895   0.380   2.130 -1.4480 -0.6817  2.7202
  866MOL0     H14306   9.007   0.656   2.104 -1.0554  0.4278 -3.6328
  866MOL0     H14307   9.001   0.542   1.977 -1.3127  1.2028  0.7666
  866MOL0     H14308   9.178   0.496   2.222  3.0253  3.0953 -0.3609
  866MOL0     H14309   9.159   0.399   2.065 -0.5322  0.2379  0.2022
  866MOL0     H14310   9.411   0.686   1.924  0.9216 -1.3559 -1.2099
  866MOL0     H14311   8.598   0.670   2.349  0.6095  0.4572 -1.5232
  866MOL0     H14312   8.387   0.770   2.386  3.6184 -1.0889  0.7720
  867MOL0     O14313   7.594   7.062  11.114 -0.2018  0.1138  0.1277
  867MOL0     C14314   7.649   7.121  11.022 -0.2331 -0.5523 -0.3563
  867MOL0     O14315   7.581   7.171  10.914 -0.2538 -0.5391 -0.6251
  867MOL0     C14316   7.452   7.138  10.893  0.6618 -0.5011 -0.7684
  867MOL0     C14317   7.353   7.185  10.979 -0.1851  0.3609  0.3017
  867MOL0     C14318   7.223   7.139  10.979 -0.3283  0.2646  0.5897
  867MOL0     C14319   7.187   7.043  10.880 -0.7268  0.2702  0.7024
  867MOL0     O14320   7.068   6.982  10.876  0.7791  0.2386  0.3195
  867MOL0     C14321   6.965   7.025  10.951  0.7525  0.1277  0.3091
  867MOL0     C14322   6.837   6.937  10.923 -0.1709  0.0236 -0.5366
  867MOL0     C14323   6.796   6.859  11.046  0.1237  0.5400  1.0280
  867MOL0     C14324   6.699   6.743  11.020  0.3378  0.6838 -0.1968
  867MOL0     C14325   6.645   6.672  11.146 -0.6177  0.6044  0.5879
  867MOL0     C14326   6.768   6.607  11.218 -0.1449 -0.1640 -0.6594
  867MOL0     C14327   6.736   6.494  11.326 -0.1148  0.5996  0.1024
  867MOL0     C14328   6.850   6.399  11.346 -0.3879 -0.0121  0.1255
  867MOL0     N14329   6.817   6.295  11.447 -0.2149  0.2074 -0.5266
  867MOL0     C14330   6.773   6.165  11.421 -0.4272 -0.7196  0.8031
  867MOL0     C14331   6.742   6.124  11.539  0.4918  1.5218  0.2707
  867MOL0     C14332   6.704   5.981  11.567 -0.6707 -0.7558 -0.3536
  867MOL0     C14333   6.563   5.941  11.523  0.2909 -0.2471 -0.2441
  867MOL0     C14334   6.546   5.789  11.524  0.4958  0.3660  0.1046
  867MOL0     C14335   6.415   5.740  11.486 -0.4100 -0.2587 -0.6211
  867MOL0     O14336   6.329   5.738  11.606 -0.3382  0.3444 -0.2448
  867MOL0     C14337   6.198   5.711  11.584  0.5272 -0.1066 -0.2002
  867MOL0     C14338   6.117   5.709  11.703 -0.5349 -0.6081  0.7188
  867MOL0     C14339   5.979   5.705  11.689 -0.3849 -0.8051 -0.2656
  867MOL0     C14340   5.925   5.689  11.565 -0.2139 -0.0671  0.2791
  867MOL0     C14341   5.773   5.680  11.551 -1.4420  0.4040 -0.2341
  867MOL0     O14342   5.712   5.696  11.668  0.0705  0.1766 -0.9386
  867MOL0     C14343   5.576   5.672  11.677 -0.7147 -0.4371  0.2448
  867MOL0     C14344   5.512   5.556  11.633  0.1166 -0.2527 -0.6268
  867MOL0     C14345   5.371   5.547  11.634  0.7663 -0.0209 -0.5027
  867MOL0     C14346   5.295   5.654  11.679 -0.8380 -0.1068 -0.8399
  867MOL0     O14347   5.154   5.660  11.686  0.4877  0.9171 -0.2162
  867MOL0     C14348   5.064   5.552  11.684 -0.4233 -0.1820  0.1064
  867MOL0     C14349   4.943   5.594  11.604  0.1017  0.3714 -0.1231
  867MOL0     C14350   4.810   5.522  11.636  0.5344  0.3521  0.5128
  867MOL0     C14351   4.684   5.576  11.556  0.0906 -0.8117 -0.0230
  867MOL0     C14352   4.553   5.498  11.589 -0.0923 -0.4875  0.2432
  867MOL0     C14353   4.438   5.544  11.502  0.2539  0.0048  0.3009
  867MOL0     C14354   4.317   5.459  11.525  0.0817 -0.5712  0.0642
  867MOL0     C14355   4.198   5.500  11.436  0.1295  0.2204 -0.6991
  867MOL0    Cl14356   4.044   5.453  11.499 -0.1696 -0.2163 -0.0188
  867MOL0     C14357   5.356   5.756  11.742 -0.2349 -0.0973 -1.0276
  867MOL0     C14358   5.496   5.765  11.733  0.5564 -0.6605 -0.4780
  867MOL0     O14359   5.720   5.654  11.444  0.5102  0.3653  0.5449
  867MOL0     C14360   6.004   5.669  11.450 -0.4969  0.7903  0.2841
  867MOL0     C14361   6.138   5.683  11.459  0.0101  0.1172 -0.3731
  867MOL0     N14362   6.795   6.209  11.632  0.1816  0.1452  0.3572
  867MOL0     N14363   6.830   6.320  11.581  0.4950 -0.0293 -0.3734
  867MOL0     C14364   7.279   7.014  10.779 -0.4747  0.0650  0.3008
  867MOL0     C14365   7.409   7.066  10.788 -0.0431 -0.3167 -0.4169
  867MOL0     C14366   7.804   7.136  11.018 -0.1762 -0.3776  0.1404
  867MOL0     C14367   7.879   7.149  10.898  0.3837  1.3146 -0.5037
  867MOL0     C14368   8.016   7.147  10.891 -0.2203  0.0177 -0.2340
  867MOL0     C14369   8.085   7.141  11.008 -0.0591 -0.0060 -0.5524
  867MOL0     O14370   8.225   7.151  11.023 -0.4618  0.3680 -0.2906
  867MOL0     C14371   8.304   7.160  10.901 -0.1027  0.0787  0.0630
  867MOL0     C14372   8.446   7.159  10.941  0.2935  0.1135 -0.2869
  867MOL0     C14373   8.486   7.272  11.041  0.1504  1.0128  0.1418
  867MOL0     C14374   8.633   7.269  11.081  0.5201 -0.3500 -0.0263
  867MOL0     C14375   8.676   7.142  11.135 -0.8113  0.2051  0.3515
  867MOL0     C14376   8.711   7.032  11.172 -0.5105  0.1756  0.4153
  867MOL0     C14377   8.016   7.130  11.136  0.0273  0.3269 -0.2650
  867MOL0     C14378   7.869   7.133  11.142  0.2455  0.0583 -0.4501
  867MOL0     H14379   7.386   7.250  11.059  3.0316 -0.7636  0.0418
  867MOL0     H14380   7.162   7.170  11.063  0.9602  2.3991  0.8290
  867MOL0     H14381   6.950   7.134  10.948  2.3985  0.4385  1.6325
  867MOL0     H14382   6.978   7.000  11.056 -3.2563 -0.0985  0.9002
  867MOL0     H14383   6.853   6.864  10.842  0.0126 -0.2388 -0.2652
  867MOL0     H14384   6.748   6.993  10.893  0.7813  1.2015 -1.2680
  867MOL0     H14385   6.748   6.915  11.126 -0.6788 -1.6988  2.2111
  867MOL0     H14386   6.883   6.816  11.097 -0.3999 -2.4260 -0.3436
  867MOL0     H14387   6.613   6.797  10.981 -1.4431 -1.5225  0.4867
  867MOL0     H14388   6.728   6.666  10.947 -1.9192 -1.0103  0.5759
  867MOL0     H14389   6.580   6.592  11.108 -1.0068  1.6831 -1.1375
  867MOL0     H14390   6.597   6.742  11.215 -0.4013 -1.0630  2.5518
  867MOL0     H14391   6.826   6.684  11.270 -1.7289 -0.5482  1.8538
  867MOL0     H14392   6.828   6.556  11.142 -1.6769 -0.8420 -1.4442
  867MOL0     H14393   6.697   6.535  11.420 -0.7366 -1.1103  0.6304
  867MOL0     H14394   6.650   6.435  11.291 -0.0913  0.1324  0.8203
  867MOL0     H14395   6.934   6.461  11.376 -0.3248  0.9261 -1.8874
  867MOL0     H14396   6.884   6.345  11.257 -0.2615 -0.2538  0.3168
  867MOL0     H14397   6.759   6.111  11.328 -1.3731  0.2969  0.3340
  867MOL0     H14398   6.716   5.962  11.674  2.2637  3.8260  0.4194
  867MOL0     H14399   6.767   5.908  11.515  0.7166  0.1419  0.0145
  867MOL0     H14400   6.537   5.967  11.420  0.1481 -3.1496 -1.0448
  867MOL0     H14401   6.488   5.980  11.594 -0.1992 -0.0386 -0.8680
  867MOL0     H14402   6.616   5.750  11.450  0.2518  0.0229  0.0573
  867MOL0     H14403   6.574   5.754  11.624  3.2693 -1.3622 -1.1452
  867MOL0     H14404   6.428   5.639  11.446  1.1766 -0.0547 -0.6909
  867MOL0     H14405   6.381   5.803  11.404  2.0044 -0.2656 -1.7189
  867MOL0     H14406   6.168   5.726  11.798  1.7101  0.1743 -0.5393
  867MOL0     H14407   5.921   5.724  11.778 -0.0746 -2.2567  0.2737
  867MOL0     H14408   5.561   5.470  11.589  0.6503  0.1546 -0.8436
  867MOL0     H14409   5.323   5.459  11.591 -1.1172 -0.0056  1.4362
  867MOL0     H14410   5.032   5.535  11.787 -0.4974 -1.0565 -0.0510
  867MOL0     H14411   5.104   5.461  11.637 -1.1375 -0.0791 -0.7321
  867MOL0     H14412   4.968   5.579  11.499 -0.6281 -2.5019  0.0091
  867MOL0     H14413   4.927   5.699  11.631 -2.1188 -0.0879  0.6246
  867MOL0     H14414   4.799   5.530  11.744  2.5691 -0.1441  0.7781
  867MOL0     H14415   4.827   5.417  11.610  0.0260  0.2026  0.7789
  867MOL0     H14416   4.662   5.681  11.581  1.0085 -0.8968  1.2665
  867MOL0     H14417   4.694   5.559  11.449 -0.8990  1.3395 -0.5220
  867MOL0     H14418   4.527   5.501  11.695 -0.6015 -3.0140  0.2508
  867MOL0     H14419   4.582   5.394  11.570  1.1871  0.2690 -2.3893
  867MOL0     H14420   4.470   5.531  11.398  3.1651  0.6819  1.0040
  867MOL0     H14421   4.429   5.653  11.515  3.0884  0.2017  1.3804
  867MOL0     H14422   4.338   5.354  11.505 -1.1837 -0.9199  0.4990
  867MOL0     H14423   4.292   5.480  11.629 -1.2636 -1.7598  0.0076
  867MOL0     H14424   4.213   5.469  11.333  0.7547  1.7655 -1.0962
  867MOL0     H14425   4.194   5.610  11.437  2.1563  0.3251 -1.0500
  867MOL0     H14426   5.291   5.828  11.790 -0.6541 -1.6950  0.9158
  867MOL0     H14427   5.540   5.855  11.776  0.3578 -0.6390 -0.3152
  867MOL0     H14428   5.970   5.634  11.353 -2.1986  0.8804  0.8239
  867MOL0     H14429   6.199   5.666  11.371 -0.3619  2.4106 -1.1209
  867MOL0     H14430   7.247   6.958  10.692 -4.3054  1.3342  0.7050
  867MOL0     H14431   7.489   7.038  10.720  0.4978  1.9517 -0.7717
  867MOL0     H14432   7.819   7.142  10.808 -0.5437 -2.6929  0.1989
  867MOL0     H14433   8.067   7.161  10.797 -0.2767  0.8595 -0.1500
  867MOL0     H14434   8.278   7.252  10.849 -1.1949 -0.8728 -1.1197
  867MOL0     H14435   8.270   7.076  10.839 -1.4966 -1.0347  2.1731
  867MOL0     H14436   8.473   7.059  10.977  2.3582  0.7635  0.1311
  867MOL0     H14437   8.503   7.173  10.849  1.4358  1.5997  0.6000
  867MOL0     H14438   8.428   7.265  11.133 -0.2262 -1.3646 -0.2037
  867MOL0     H14439   8.460   7.363  10.986 -0.9249 -0.0386 -1.1722
  867MOL0     H14440   8.701   7.306  11.003 -0.7746  1.2296 -0.4605
  867MOL0     H14441   8.637   7.345  11.160  2.6853  1.1668 -1.4869
  867MOL0     H14442   8.762   6.940  11.189  0.2869  0.6695  0.7779
  867MOL0     H14443   8.074   7.132  11.228  1.2072 -0.2574 -0.9787
  867MOL0     H14444   7.810   7.145  11.232 -1.2579  2.9739 -1.6885
  868MOL0     O14445  10.437   2.876   4.271 -0.0429  0.2635 -0.4257
  868MOL0     C14446  10.463   2.862   4.391 -0.2828 -0.5414  0.4159
  868MOL0     O14447  10.367   2.851   4.491 -0.1045  0.0670  0.0953
  868MOL0     C14448  10.239   2.817   4.453  0.0361  0.6478 -1.0669
  868MOL0     C14449  10.133   2.892   4.511  0.4461 -0.1985 -0.1553
  868MOL0     C14450  10.005   2.830   4.529  0.4477 -0.6070 -0.1164
  868MOL0     C14451   9.971   2.710   4.473 -1.0809 -0.1945 -0.2750
  868MOL0     O14452   9.841   2.669   4.491 -0.1248 -0.0162  0.2217
  868MOL0     C14453   9.776   2.622   4.372 -0.1427 -1.0593 -0.2204
  868MOL0     C14454   9.633   2.617   4.390 -0.2455 -0.1230 -0.5157
  868MOL0     C14455   9.546   2.569   4.265  0.3772 -0.0004 -0.3290
  868MOL0     C14456   9.399   2.560   4.305  0.1861  0.0833 -0.1244
  868MOL0     C14457   9.306   2.519   4.188 -0.2140  0.2141  0.2129
  868MOL0     C14458   9.174   2.447   4.225  0.3221 -0.0359  0.5358
  868MOL0     C14459   9.079   2.516   4.329  0.6134 -0.5010  0.3398
  868MOL0     C14460   9.005   2.630   4.268  0.0237 -0.6760  0.2848
  868MOL0     N14461   8.893   2.598   4.170 -0.0235 -0.9740 -0.0234
  868MOL0     C14462   8.810   2.488   4.181 -0.3155 -0.4473  0.0546
  868MOL0     C14463   8.739   2.487   4.067  0.0311 -0.3553 -0.7181
  868MOL0     C14464   8.647   2.374   4.026 -0.4831  0.1457  0.2155
  868MOL0     C14465   8.512   2.391   4.079 -0.1815  0.2619 -0.7902
  868MOL0     C14466   8.504   2.358   4.235 -0.0389 -0.9666  0.4255
  868MOL0     C14467   8.361   2.319   4.279 -0.8228  0.0474 -0.1658
  868MOL0     O14468   8.265   2.426   4.256 -1.0007  0.5296  0.1950
  868MOL0     C14469   8.137   2.407   4.292 -0.8018  0.5961  0.0411
  868MOL0     C14470   8.055   2.521   4.266 -0.2746 -0.4886 -0.3568
  868MOL0     C14471   7.924   2.521   4.309  0.2025  0.0088  0.9997
  868MOL0     C14472   7.862   2.412   4.361 -0.3770  0.0693 -0.1628
  868MOL0     C14473   7.720   2.411   4.399 -0.2391  0.2453 -0.4865
  868MOL0     O14474   7.663   2.526   4.443 -0.8650  0.3332 -0.6108
  868MOL0     C14475   7.543   2.531   4.485  0.5424 -0.3328 -1.1172
  868MOL0     C14476   7.458   2.614   4.417 -0.5644 -0.1502 -0.1478
  868MOL0     C14477   7.328   2.622   4.461  0.4971 -0.3152 -0.2636
  868MOL0     C14478   7.270   2.552   4.573 -0.2223  0.4015  0.0513
  868MOL0     O14479   7.143   2.566   4.621 -1.1319  0.1521  0.5768
  868MOL0     C14480   7.031   2.605   4.532 -0.7539 -0.1594 -0.7559
  868MOL0     C14481   6.911   2.649   4.607 -0.3233 -0.3242  0.4678
  868MOL0     C14482   6.864   2.553   4.711  0.2355 -0.9284  0.9548
  868MOL0     C14483   6.713   2.561   4.760 -0.4585  0.6460  0.5929
  868MOL0     C14484   6.618   2.602   4.653 -0.4652 -0.3234 -0.2917
  868MOL0     C14485   6.480   2.594   4.712  0.2390  0.4252  0.1945
  868MOL0     C14486   6.369   2.631   4.611  0.2700  0.2860 -0.4162
  868MOL0     C14487   6.230   2.614   4.677 -0.1690 -0.7499 -0.1617
  868MOL0    Cl14488   6.219   2.659   4.855 -0.1527  0.0377 -0.6038
  868MOL0     C14489   7.351   2.464   4.628 -0.3100 -0.3499 -0.7626
  868MOL0     C14490   7.489   2.452   4.591  0.5809 -0.1192  0.0022
  868MOL0     O14491   7.660   2.299   4.387 -0.3848  0.5054 -0.5495
  868MOL0     C14492   7.936   2.298   4.377 -0.1852 -0.6582 -0.3024
  868MOL0     C14493   8.076   2.295   4.351  0.1200  0.2185  0.9952
  868MOL0     N14494   8.763   2.607   4.001  0.5436 -0.4782 -0.3028
  868MOL0     N14495   8.865   2.666   4.057 -0.7011  0.5287  0.2362
  868MOL0     C14496  10.074   2.632   4.407  0.4416 -0.8305 -0.0294
  868MOL0     C14497  10.214   2.685   4.403  0.3951  0.1471 -0.1322
  868MOL0     C14498  10.603   2.882   4.433  0.2367 -0.3620  0.2964
  868MOL0     C14499  10.637   2.876   4.574  1.0680  0.9833  0.2513
  868MOL0     C14500  10.769   2.913   4.612 -0.0893  0.0061 -0.1534
  868MOL0     C14501  10.867   2.955   4.527  0.9491 -0.3985 -1.0787
  868MOL0     O14502  10.994   2.971   4.574  0.4955  0.3324  0.2625
  868MOL0     C14503  11.049   2.851   4.635  0.1420  0.6994 -0.3543
  868MOL0     C14504  11.089   2.755   4.530 -0.0195  0.6372  0.5182
  868MOL0     C14505  11.202   2.811   4.433  0.2727  0.2863 -0.3252
  868MOL0     C14506  11.234   2.700   4.324 -0.0244 -0.0536 -0.1108
  868MOL0     C14507  11.354   2.740   4.252  0.1909  0.8472  0.3164
  868MOL0     C14508  11.451   2.781   4.189 -0.2565  0.2354 -0.2548
  868MOL0     C14509  10.831   2.956   4.388  0.4617  0.3371  0.7194
  868MOL0     C14510  10.703   2.926   4.341 -0.2235 -0.9135 -0.1780
  868MOL0     H14511  10.156   2.990   4.552 -2.7755  0.7533 -0.3846
  868MOL0     H14512   9.926   2.887   4.577  0.5590  0.2840 -0.9797
  868MOL0     H14513   9.809   2.520   4.353 -0.6322 -0.6875 -3.5711
  868MOL0     H14514   9.794   2.688   4.287  0.0225 -0.5365  0.2129
  868MOL0     H14515   9.595   2.717   4.410 -0.8109 -0.8416  2.6757
  868MOL0     H14516   9.612   2.557   4.480 -0.1669  1.7690  0.8254
  868MOL0     H14517   9.572   2.471   4.224 -0.0149  0.4682 -1.7640
  868MOL0     H14518   9.547   2.644   4.185  0.9966  0.3171 -0.0305
  868MOL0     H14519   9.381   2.489   4.387  1.1441  1.1923  1.0886
  868MOL0     H14520   9.371   2.657   4.347 -0.6502  0.1365 -0.7778
  868MOL0     H14521   9.357   2.441   4.131 -1.2025  0.3803 -0.9380
  868MOL0     H14522   9.292   2.602   4.118 -1.2539 -0.5829 -0.5563
  868MOL0     H14523   9.190   2.347   4.265 -1.0942  0.5426  2.7058
  868MOL0     H14524   9.113   2.456   4.135  0.4409  1.2653  0.5620
  868MOL0     H14525   9.009   2.451   4.381 -0.4973 -0.0508 -0.5547
  868MOL0     H14526   9.142   2.557   4.409  0.2567  1.0884 -0.1618
  868MOL0     H14527   9.062   2.714   4.226 -1.0338  0.7125  1.5447
  868MOL0     H14528   8.958   2.678   4.354 -0.7225  2.6231 -1.7672
  868MOL0     H14529   8.823   2.412   4.258 -0.2862 -0.2985  0.1958
  868MOL0     H14530   8.686   2.276   4.055 -0.8525  0.3149  1.3391
  868MOL0     H14531   8.655   2.372   3.917 -1.8207  0.2734  0.1077
  868MOL0     H14532   8.449   2.322   4.021 -0.9510  0.7556 -0.5572
  868MOL0     H14533   8.481   2.494   4.062  1.3973  1.2634  1.8313
  868MOL0     H14534   8.565   2.270   4.259  2.2824  0.1929 -0.9039
  868MOL0     H14535   8.541   2.440   4.296 -1.4376 -2.1372  3.0358
  868MOL0     H14536   8.354   2.284   4.383  3.0280 -0.4393  0.0829
  868MOL0     H14537   8.329   2.236   4.215 -0.3828 -0.5180  0.3304
  868MOL0     H14538   8.096   2.609   4.218  1.9076 -2.0729 -1.5903
  868MOL0     H14539   7.869   2.612   4.287  0.3338  0.7513  3.4701
  868MOL0     H14540   7.492   2.677   4.336  1.0808 -1.5167 -0.5892
  868MOL0     H14541   7.268   2.703   4.418  2.7295  0.8091 -1.4392
  868MOL0     H14542   7.017   2.515   4.470  1.1269 -0.4047 -0.8988
  868MOL0     H14543   7.059   2.688   4.467  0.9347 -0.3308 -0.2909
  868MOL0     H14544   6.832   2.668   4.533  0.2642  2.2168  0.3909
  868MOL0     H14545   6.929   2.750   4.645  3.1824 -0.9740  0.8246
  868MOL0     H14546   6.925   2.569   4.801  2.8980 -1.9991 -0.5327
  868MOL0     H14547   6.894   2.455   4.672  1.8668 -0.6598  1.4523
  868MOL0     H14548   6.680   2.469   4.809  2.4172 -0.5891  0.4309
  868MOL0     H14549   6.716   2.630   4.845 -2.3878  1.0479  0.3754
  868MOL0     H14550   6.632   2.541   4.564  0.4623 -1.1553  0.3957
  868MOL0     H14551   6.621   2.707   4.622  2.2465 -0.3425 -0.3624
  868MOL0     H14552   6.475   2.661   4.798  2.4439  1.6564 -0.5562
  868MOL0     H14553   6.461   2.491   4.741  2.8315 -0.0023  0.5639
  868MOL0     H14554   6.374   2.735   4.578 -1.7790 -0.2694 -2.8198
  868MOL0     H14555   6.365   2.575   4.516 -4.0118 -0.0026 -0.2656
  868MOL0     H14556   6.205   2.509   4.689 -2.6847 -0.0056  2.1927
  868MOL0     H14557   6.157   2.669   4.616 -1.1730  1.2531  2.6263
  868MOL0     H14558   7.322   2.402   4.712  1.5223 -0.5254 -0.2311
  868MOL0     H14559   7.557   2.398   4.655  0.0499  1.0332  1.6074
  868MOL0     H14560   7.895   2.200   4.396 -0.6673 -0.2231  1.0683
  868MOL0     H14561   8.131   2.202   4.366 -1.8323 -1.1815 -0.0268
  868MOL0     H14562  10.048   2.539   4.358  0.4654 -0.3957 -0.8839
  868MOL0     H14563  10.283   2.617   4.354 -2.6548 -0.3570 -4.3226
  868MOL0     H14564  10.571   2.857   4.658  1.3640  3.3557  1.0823
  868MOL0     H14565  10.789   2.899   4.718 -0.2097 -0.1386 -0.1486
  868MOL0     H14566  10.981   2.808   4.709 -0.2662 -0.5154 -1.4135
  868MOL0     H14567  11.143   2.878   4.686 -0.9205 -2.5993  3.9253
  868MOL0     H14568  11.117   2.656   4.569 -3.4117 -0.0840  1.4868
  868MOL0     H14569  10.996   2.729   4.479  0.0357  0.3296  0.5715
  868MOL0     H14570  11.295   2.841   4.482 -0.8840  1.8581  1.0167
  868MOL0     H14571  11.154   2.891   4.376 -1.8839 -0.9451 -0.3495
  868MOL0     H14572  11.243   2.608   4.384 -1.3805  0.2191  0.5380
  868MOL0     H14573  11.155   2.693   4.249  0.7972  0.1645 -1.0139
  868MOL0     H14574  11.529   2.824   4.130  0.5803  1.3849  1.5842
  868MOL0     H14575  10.903   2.978   4.309  0.1453 -1.6426 -0.1782
  868MOL0     H14576  10.680   2.943   4.237  2.9836 -0.6349 -0.9336
  869MOL0     O14577   7.984   9.766   8.015  0.2006  0.4616 -0.4933
  869MOL0     C14578   8.009   9.885   8.019  0.1680  0.6685 -0.4127
  869MOL0     O14579   7.919   9.984   8.038  0.3655 -0.0668 -0.1160
  869MOL0     C14580   7.782   9.964   8.025 -0.4968  0.3805  0.0803
  869MOL0     C14581   7.694  10.032   8.109 -0.0248 -0.3486 -0.7230
  869MOL0     C14582   7.553  10.021   8.095 -0.6377  0.4392 -0.0292
  869MOL0     C14583   7.500   9.947   7.993  0.3222 -0.8741  0.1791
  869MOL0     O14584   7.362   9.945   7.988  0.0746  0.8530  0.4627
  869MOL0     C14585   7.297   9.900   7.871  0.2900  0.1619 -0.0428
  869MOL0     C14586   7.155   9.958   7.887  1.6982 -0.1874 -0.7737
  869MOL0     C14587   7.065   9.927   7.762 -0.1069 -0.4190  0.3946
  869MOL0     C14588   6.928   9.992   7.775 -0.3885 -0.5177  0.7941
  869MOL0     C14589   6.839   9.975   7.643  0.4511  0.2740 -1.5574
  869MOL0     C14590   6.706  10.043   7.656 -0.5587 -0.8435 -0.2165
  869MOL0     C14591   6.591   9.987   7.563  0.1497  0.2989 -0.4094
  869MOL0     C14592   6.621  10.021   7.411 -0.1048  0.2343 -0.2819
  869MOL0     N14593   6.514   9.982   7.324  0.1928  0.0037  0.3254
  869MOL0     C14594   6.501   9.859   7.254 -0.6938 -0.6366 -0.3720
  869MOL0     C14595   6.382   9.885   7.189  0.2433  0.6094 -0.1700
  869MOL0     C14596   6.323   9.782   7.089  0.4573 -0.2283 -0.3432
  869MOL0     C14597   6.179   9.814   7.041  0.4319  0.3804  0.9850
  869MOL0     C14598   6.136   9.705   6.932 -0.3937 -0.3435 -0.1791
  869MOL0     C14599   5.997   9.703   6.883  0.1990  0.1037  0.2753
  869MOL0     O14600   5.910   9.712   6.999 -0.9048  0.1667 -0.0407
  869MOL0     C14601   5.773   9.746   6.976 -1.0527  0.0221  0.1809
  869MOL0     C14602   5.712   9.735   6.853  0.7734  0.0064 -0.1681
  869MOL0     C14603   5.572   9.768   6.834  0.2608 -0.0428  0.1531
  869MOL0     C14604   5.505   9.824   6.931  0.6070  0.5231 -0.4344
  869MOL0     C14605   5.359   9.853   6.915  0.2481 -0.6006  0.0688
  869MOL0     O14606   5.296   9.826   6.794 -0.1401 -0.0971  0.5845
  869MOL0     C14607   5.165   9.859   6.765  0.6133 -0.7120  0.3172
  869MOL0     C14608   5.122   9.843   6.633  0.0247  0.4759 -0.5494
  869MOL0     C14609   4.992   9.852   6.591 -0.2818  0.7508 -0.0542
  869MOL0     C14610   4.904   9.912   6.677 -0.5275 -0.4797 -0.2951
  869MOL0     O14611   4.784   9.954   6.637  0.4108 -0.1938  0.1478
  869MOL0     C14612   4.672   9.918   6.716  0.7894  0.2127 -0.6726
  869MOL0     C14613   4.545   9.916   6.637  0.7718 -0.5621 -0.7166
  869MOL0     C14614   4.437   9.879   6.741 -0.4270 -0.2807 -0.2004
  869MOL0     C14615   4.301   9.858   6.682  0.0415  0.6198 -0.3670
  869MOL0     C14616   4.221   9.982   6.702  0.1307  1.0021  0.0858
  869MOL0     C14617   4.093   9.988   6.621  0.6659 -0.4567  0.7241
  869MOL0     C14618   3.987   9.896   6.669 -0.6080  0.0369  0.5259
  869MOL0     C14619   3.866   9.900   6.584 -0.3658  0.6447 -0.2836
  869MOL0    Cl14620   3.753   9.752   6.604 -0.6631  0.1308 -0.0260
  869MOL0     C14621   4.943   9.946   6.809  0.1971 -0.0072  0.2372
  869MOL0     C14622   5.068   9.912   6.855  0.0184  0.2994  0.0915
  869MOL0     O14623   5.304   9.905   7.017 -0.4043  0.3766  0.1499
  869MOL0     C14624   5.569   9.842   7.058 -0.4533 -0.3950 -0.3517
  869MOL0     C14625   5.704   9.810   7.078 -0.0867 -0.3217  0.2198
  869MOL0     N14626   6.334  10.012   7.211  0.1840  0.1957 -0.2862
  869MOL0     N14627   6.408  10.059   7.301  0.6786 -0.5898 -0.2290
  869MOL0     C14628   7.583   9.866   7.914 -0.3166  0.4504 -0.4354
  869MOL0     C14629   7.728   9.877   7.922 -0.3002 -0.3539 -0.6148
  869MOL0     C14630   8.149   9.930   8.040  0.4568 -0.4942  0.1837
  869MOL0     C14631   8.190  10.063   8.042 -0.0776 -0.4541  0.7008
  869MOL0     C14632   8.331  10.106   8.060 -0.2937  0.1969 -0.1944
  869MOL0     C14633   8.436  10.015   8.061  0.1641 -0.1942 -0.3243
  869MOL0     O14634   8.562  10.057   8.078 -0.0321  0.1485 -0.2798
  869MOL0     C14635   8.663   9.960   8.102 -0.2461  0.7963 -0.6641
  869MOL0     C14636   8.777  10.025   8.171 -0.1211 -0.1164 -0.6278
  869MOL0     C14637   8.851  10.103   8.061  0.2392 -0.1604 -0.4586
  869MOL0     C14638   8.975  10.187   8.102 -0.0233 -0.2866  0.2260
  869MOL0     C14639   9.086  10.116   8.164 -0.0115  0.4998  0.1890
  869MOL0     C14640   9.162  10.040   8.220  0.2204 -0.2305 -0.0546
  869MOL0     C14641   8.392   9.875   8.061  0.6364 -0.3901  0.2486
  869MOL0     C14642   8.261   9.836   8.049  0.2676  0.1864 -0.2993
  869MOL0     H14643   7.739  10.097   8.183  0.9032 -0.5259 -1.1128
  869MOL0     H14644   7.487  10.065   8.170 -1.3166 -3.5141  1.9933
  869MOL0     H14645   7.295   9.791   7.874 -1.3372  0.1326  4.0893
  869MOL0     H14646   7.347   9.935   7.779  1.0581  1.2284  0.7540
  869MOL0     H14647   7.153  10.065   7.908 -0.6098 -0.1156 -1.1546
  869MOL0     H14648   7.100   9.908   7.967  2.0796 -1.5887 -1.3426
  869MOL0     H14649   7.053   9.820   7.742 -1.4912  0.1122 -1.9729
  869MOL0     H14650   7.118   9.969   7.676  0.8145 -3.1966 -0.5036
  869MOL0     H14651   6.867   9.945   7.853 -2.3309  0.3341 -0.1434
  869MOL0     H14652   6.942  10.098   7.800 -0.3519 -0.1588 -0.6706
  869MOL0     H14653   6.817   9.870   7.620  0.1580 -0.0524  0.1379
  869MOL0     H14654   6.900  10.013   7.560  1.4665 -0.4134 -1.1517
  869MOL0     H14655   6.697  10.152   7.652 -0.6582 -0.6814  2.5437
  869MOL0     H14656   6.676  10.024   7.759 -3.6866  0.8855 -0.6794
  869MOL0     H14657   6.592   9.880   7.588  1.9093  0.6003  0.9783
  869MOL0     H14658   6.489  10.023   7.581  0.5698  0.2743  2.3800
  869MOL0     H14659   6.704   9.956   7.383  0.7044  1.6641 -1.3671
  869MOL0     H14660   6.639  10.128   7.402 -0.6236  0.5832  2.0801
  869MOL0     H14661   6.573   9.778   7.245  0.0221  0.1165 -2.0507
  869MOL0     H14662   6.330   9.681   7.131 -0.3142  0.0104  0.3764
  869MOL0     H14663   6.398   9.784   7.009  1.7604  0.1488  0.8484
  869MOL0     H14664   6.176   9.917   7.005 -1.5918  0.9017  2.4459
  869MOL0     H14665   6.114   9.805   7.128 -0.5544 -1.0384  0.1493
  869MOL0     H14666   6.191   9.730   6.841 -2.4860 -2.0103 -2.0177
  869MOL0     H14667   6.169   9.614   6.982  0.4081 -0.1227 -0.3013
  869MOL0     H14668   5.979   9.610   6.829 -2.6444  0.8014 -0.1550
  869MOL0     H14669   5.974   9.785   6.814 -2.9856 -1.0108 -0.1367
  869MOL0     H14670   5.768   9.699   6.768  1.9698  0.6991  0.2991
  869MOL0     H14671   5.532   9.751   6.734  1.8573  1.7676 -0.8622
  869MOL0     H14672   5.209   9.803   6.583  1.2759 -1.9625  3.1628
  869MOL0     H14673   4.965   9.819   6.491 -0.9059 -1.6020  0.8142
  869MOL0     H14674   4.651   9.993   6.793 -2.1967  0.0847 -1.2648
  869MOL0     H14675   4.704   9.822   6.759  1.4682  0.9255  0.4591
  869MOL0     H14676   4.547   9.845   6.554  0.0724 -1.1070 -0.2795
  869MOL0     H14677   4.526  10.015   6.594 -2.2069 -1.3145 -1.3522
  869MOL0     H14678   4.442   9.955   6.820 -3.4008  2.4019 -2.3358
  869MOL0     H14679   4.471   9.787   6.789 -0.6085  0.3541  1.1805
  869MOL0     H14680   4.301   9.844   6.574  1.1702 -2.7567 -0.0547
  869MOL0     H14681   4.245   9.775   6.725 -0.1734 -0.2333 -2.1956
  869MOL0     H14682   4.276  10.068   6.664  1.1426  0.5889  0.5636
  869MOL0     H14683   4.185  10.009   6.802 -1.0961  2.2782 -0.6652
  869MOL0     H14684   4.128   9.964   6.520  0.3610 -2.3139  1.0176
  869MOL0     H14685   4.046  10.086   6.629 -1.4699 -0.7269 -4.2865
  869MOL0     H14686   4.031   9.796   6.670  1.5293  0.9390  1.0366
  869MOL0     H14687   3.958   9.920   6.772  1.9896  1.3241  1.0496
  869MOL0     H14688   3.895   9.916   6.480  1.1185 -0.7609 -0.1274
  869MOL0     H14689   3.807   9.990   6.603 -0.8857  0.8194 -2.4986
  869MOL0     H14690   4.888  10.004   6.883 -1.3759 -2.0011  0.7475
  869MOL0     H14691   5.101   9.955   6.949  2.3399  0.4250 -0.7204
  869MOL0     H14692   5.506   9.866   7.144  1.0022 -0.8109  0.8808
  869MOL0     H14693   5.751   9.835   7.173 -1.0358 -3.4011  1.6729
  869MOL0     H14694   7.546   9.790   7.845  4.5847 -1.3016 -1.5517
  869MOL0     H14695   7.794   9.817   7.860  1.1600 -1.7107  2.0490
  869MOL0     H14696   8.116  10.139   8.021  1.0258 -0.0959 -2.6057
  869MOL0     H14697   8.356  10.212   8.060 -0.2056  0.2300  2.3306
  869MOL0     H14698   8.688   9.904   8.011 -1.7607 -1.3243  0.1406
  869MOL0     H14699   8.623   9.880   8.165 -5.0236  2.3483 -1.3411
  869MOL0     H14700   8.739  10.088   8.253  0.9905 -1.5734  1.0737
  869MOL0     H14701   8.832   9.945   8.222  1.2356 -1.0153 -3.3564
  869MOL0     H14702   8.770  10.163   8.019 -0.2670  0.5271  1.4089
  869MOL0     H14703   8.885  10.035   7.983 -0.3032  0.2985 -1.1093
  869MOL0     H14704   9.012  10.235   8.011 -3.2255  1.9378 -0.0995
  869MOL0     H14705   8.944  10.269   8.167  3.3453  1.4115 -0.1035
  869MOL0     H14706   9.227   9.975   8.275 -1.4729 -1.4995  0.5425
  869MOL0     H14707   8.464   9.797   8.081  2.0710  1.4723  3.0749
  869MOL0     H14708   8.248   9.728   8.049  3.0044 -0.2487  2.1492
  870MOL0     O14709  10.308   2.971   8.364  0.1438 -0.0947  0.5415
  870MOL0     C14710  10.337   2.974   8.243 -0.0942  0.2290 -0.2060
  870MOL0     O14711  10.248   2.966   8.139  0.0376 -0.1561 -0.6416
  870MOL0     C14712  10.114   2.942   8.146 -0.0886  0.1209 -0.2999
  870MOL0     C14713  10.033   2.987   8.045 -0.3180 -0.1923  0.0934
  870MOL0     C14714   9.895   2.955   8.059 -0.5597 -0.4374  0.1679
  870MOL0     C14715   9.842   2.879   8.163  0.3889  0.0356  0.1248
  870MOL0     O14716   9.701   2.858   8.176 -0.1255 -0.1940 -0.4471
  870MOL0     C14717   9.613   2.926   8.097 -0.0545  0.1132 -0.2194
  870MOL0     C14718   9.465   2.908   8.137 -0.5581 -0.5047 -0.5400
  870MOL0     C14719   9.419   2.761   8.126  0.5403 -0.6704 -0.2581
  870MOL0     C14720   9.273   2.731   8.173 -1.0124 -0.5785 -0.4670
  870MOL0     C14721   9.265   2.586   8.218 -0.4675 -0.6094  0.1501
  870MOL0     C14722   9.127   2.534   8.209 -0.1395  0.0490 -0.1789
  870MOL0     C14723   9.107   2.408   8.292 -0.0591  0.5444  0.1407
  870MOL0     C14724   8.962   2.356   8.265 -0.0540  0.1240 -0.1703
  870MOL0     N14725   8.935   2.230   8.320  0.5566  0.3403 -0.1284
  870MOL0     C14726   8.997   2.109   8.290  0.5982  0.4698 -0.4548
  870MOL0     C14727   8.920   2.014   8.362  0.5071 -0.0103  0.7418
  870MOL0     C14728   8.950   1.859   8.377  0.0122 -0.4702  0.4480
  870MOL0     C14729   8.848   1.770   8.457  0.5200 -0.5692  0.2768
  870MOL0     C14730   8.705   1.782   8.408  0.7743 -0.5586  0.4293
  870MOL0     C14731   8.600   1.687   8.475 -0.7357 -0.2645 -0.0111
  870MOL0     O14732   8.479   1.745   8.437  0.2421 -0.2981 -0.4031
  870MOL0     C14733   8.363   1.676   8.451 -0.4512  0.6193  0.1143
  870MOL0     C14734   8.346   1.546   8.510 -0.3528 -0.0819 -0.3330
  870MOL0     C14735   8.212   1.480   8.507 -0.3194  0.0279  0.7617
  870MOL0     C14736   8.094   1.539   8.454 -0.0400  0.2787 -0.2594
  870MOL0     C14737   7.966   1.492   8.500 -0.1775  0.3909  0.1343
  870MOL0     O14738   7.959   1.365   8.528  0.2074  0.4699 -0.6110
  870MOL0     C14739   7.829   1.309   8.525  0.6484 -0.2518  0.5109
  870MOL0     C14740   7.801   1.219   8.425 -0.6525 -0.4423  0.6446
  870MOL0     C14741   7.691   1.130   8.435 -0.3457 -0.7710 -0.5598
  870MOL0     C14742   7.610   1.135   8.547 -0.0009  0.7210 -0.5045
  870MOL0     O14743   7.504   1.054   8.566  0.4102 -0.2437  0.0822
  870MOL0     C14744   7.487   0.929   8.486  0.0502  0.1112 -0.0559
  870MOL0     C14745   7.363   0.850   8.529 -0.4075 -0.1553 -0.3687
  870MOL0     C14746   7.239   0.929   8.525 -0.5003 -0.1394 -0.4134
  870MOL0     C14747   7.115   0.845   8.543  0.2665  0.1264  0.3181
  870MOL0     C14748   6.988   0.928   8.565 -0.6022  0.0877  0.7550
  870MOL0     C14749   6.935   0.934   8.716 -0.1879  0.6273 -0.0435
  870MOL0     C14750   6.804   1.022   8.728 -0.4199 -0.5033  0.0126
  870MOL0     C14751   6.771   1.042   8.873 -0.2129  0.0841 -0.6247
  870MOL0    Cl14752   6.604   1.120   8.861  0.0341 -0.3290 -0.3454
  870MOL0     C14753   7.630   1.236   8.636  0.1128  0.1026 -0.4243
  870MOL0     C14754   7.739   1.327   8.628 -0.6310 -0.0657 -0.4450
  870MOL0     O14755   7.866   1.567   8.483 -1.3633  0.2589 -0.5171
  870MOL0     C14756   8.119   1.667   8.398  0.5186  0.3845  0.1995
  870MOL0     C14757   8.245   1.732   8.405  0.2883  0.0497  0.6528
  870MOL0     N14758   8.819   2.080   8.421  0.4288  0.1429 -0.3929
  870MOL0     N14759   8.822   2.209   8.389  0.4960 -0.6285  0.6080
  870MOL0     C14760   9.928   2.835   8.260 -0.2484  0.0097  1.1904
  870MOL0     C14761  10.064   2.860   8.252  0.8604 -0.1364  0.5743
  870MOL0     C14762  10.478   2.948   8.193  0.0918  0.0820 -0.7892
  870MOL0     C14763  10.517   2.933   8.058 -0.0599 -0.5718 -0.8869
  870MOL0     C14764  10.653   2.900   8.025 -0.3202  0.1457  0.2184
  870MOL0     C14765  10.754   2.903   8.123 -0.2025  0.2530  0.4747
  870MOL0     O14766  10.882   2.892   8.076  0.5550 -0.6302  0.4140
  870MOL0     C14767  10.926   3.016   8.011  0.3535  0.0489 -0.0877
  870MOL0     C14768  11.040   2.974   7.915 -0.0700 -0.0840  0.4333
  870MOL0     C14769  11.139   2.884   7.983  0.0463 -0.1214  0.1689
  870MOL0     C14770  11.251   2.835   7.895 -0.0048 -0.0374 -0.0476
  870MOL0     C14771  11.203   2.734   7.804 -1.4576 -0.3521  0.4652
  870MOL0     C14772  11.165   2.655   7.723  0.2828  0.3875 -0.5473
  870MOL0     C14773  10.715   2.917   8.257  0.1624 -0.0050  0.0663
  870MOL0     C14774  10.576   2.933   8.291 -0.0138  0.4108 -0.1751
  870MOL0     H14775  10.073   3.039   7.959  1.1640 -1.9296 -0.3457
  870MOL0     H14776   9.825   2.986   7.981 -0.0332  1.2789  0.3334
  870MOL0     H14777   9.616   2.882   7.997 -0.1888 -3.2982  1.1346
  870MOL0     H14778   9.628   3.034   8.103 -0.9578  0.2024  0.7647
  870MOL0     H14779   9.409   2.967   8.064 -1.9817  1.2250  1.8248
  870MOL0     H14780   9.433   2.944   8.235 -0.1389 -3.3222  0.7173
  870MOL0     H14781   9.481   2.697   8.189  0.0567 -0.6271  0.2637
  870MOL0     H14782   9.424   2.732   8.020  0.7022  0.5918 -0.6117
  870MOL0     H14783   9.272   2.794   8.262 -0.4544 -2.4400  0.9171
  870MOL0     H14784   9.204   2.754   8.091  0.5014 -0.5556 -1.7691
  870MOL0     H14785   9.303   2.566   8.318  0.8868  1.4165  0.1077
  870MOL0     H14786   9.323   2.522   8.151  1.1880  0.9886 -0.0240
  870MOL0     H14787   9.115   2.506   8.104  3.0649  0.1333 -0.6806
  870MOL0     H14788   9.055   2.603   8.253 -0.6444 -1.7052  1.8738
  870MOL0     H14789   9.180   2.338   8.252  1.0514  2.7471 -1.9885
  870MOL0     H14790   9.123   2.432   8.398 -0.2541  1.4403 -0.0227
  870MOL0     H14791   8.932   2.360   8.160  1.4925  3.6159 -0.6138
  870MOL0     H14792   8.898   2.436   8.304  2.1809  1.0560  1.8831
  870MOL0     H14793   9.084   2.098   8.226  1.0958  0.4184  0.2201
  870MOL0     H14794   9.050   1.841   8.417 -1.0275 -1.8539  2.5849
  870MOL0     H14795   8.954   1.824   8.273 -0.8516  1.0617 -0.1361
  870MOL0     H14796   8.857   1.792   8.564 -2.1938 -0.2745  0.5057
  870MOL0     H14797   8.882   1.669   8.435 -0.4090 -0.5947 -1.2054
  870MOL0     H14798   8.671   1.886   8.419  0.8539 -0.5160  0.2742
  870MOL0     H14799   8.708   1.765   8.300 -1.4242  1.4819 -0.0422
  870MOL0     H14800   8.606   1.685   8.584 -2.4996 -1.0619  0.1080
  870MOL0     H14801   8.625   1.585   8.443  0.5040 -0.0874  0.3403
  870MOL0     H14802   8.427   1.504   8.568 -0.6174  3.4111  2.9939
  870MOL0     H14803   8.209   1.382   8.553  0.8512 -0.7491 -0.7291
  870MOL0     H14804   7.878   1.204   8.351  2.0935  0.8978  3.0399
  870MOL0     H14805   7.680   1.070   8.346 -1.9895  0.5052 -1.2731
  870MOL0     H14806   7.574   0.863   8.494 -1.2158 -1.3922  3.0480
  870MOL0     H14807   7.477   0.956   8.380 -0.3279 -0.1824 -0.1009
  870MOL0     H14808   7.377   0.822   8.634 -0.9299  2.7713  0.5677
  870MOL0     H14809   7.350   0.760   8.468 -1.9280  0.0823 -0.4406
  870MOL0     H14810   7.233   0.979   8.427 -2.5142  1.8809  0.6354
  870MOL0     H14811   7.248   1.007   8.601  0.2202 -1.8018  1.2611
  870MOL0     H14812   7.110   0.784   8.452  1.3909 -1.4609  1.2782
  870MOL0     H14813   7.126   0.777   8.628 -0.5511 -2.9362 -1.8315
  870MOL0     H14814   6.908   0.895   8.498  1.1010  2.8096 -3.0215
  870MOL0     H14815   7.012   1.032   8.540 -0.4221 -0.0042  0.5475
  870MOL0     H14816   7.020   0.968   8.776  1.3999 -1.6863 -0.8866
  870MOL0     H14817   6.899   0.836   8.749 -0.8669  0.5908 -0.8816
  870MOL0     H14818   6.823   1.121   8.685  4.0049 -0.3229  1.8862
  870MOL0     H14819   6.722   0.969   8.679 -1.4113  0.1128  0.9494
  870MOL0     H14820   6.840   1.110   8.924 -1.6638 -0.6190  2.5608
  870MOL0     H14821   6.763   0.951   8.934  0.5444  1.3034  1.3845
  870MOL0     H14822   7.558   1.253   8.715 -0.6722 -0.7563 -0.9259
  870MOL0     H14823   7.752   1.408   8.699  3.3746  1.3442 -2.5211
  870MOL0     H14824   8.035   1.724   8.360 -0.5124 -0.6017  0.9382
  870MOL0     H14825   8.242   1.836   8.372 -0.2242  0.7239  2.6679
  870MOL0     H14826   9.885   2.790   8.348 -0.5151  1.2251  1.7003
  870MOL0     H14827  10.141   2.818   8.316  1.2615 -3.6647 -1.9528
  870MOL0     H14828  10.437   2.926   7.986  0.5101 -0.8987 -1.5047
  870MOL0     H14829  10.670   2.878   7.920 -0.0468 -0.2748  0.3475
  870MOL0     H14830  10.970   3.085   8.084  0.4105  1.6742 -1.5838
  870MOL0     H14831  10.845   3.065   7.955 -0.9928 -3.0649 -1.1017
  870MOL0     H14832  11.003   2.924   7.826 -1.0631 -1.1421  1.4128
  870MOL0     H14833  11.102   3.059   7.883  2.4160 -2.3713 -1.2434
  870MOL0     H14834  11.092   2.792   8.020 -0.9775  0.8483  1.3893
  870MOL0     H14835  11.169   2.935   8.075  0.5701 -1.0191  0.5059
  870MOL0     H14836  11.304   2.916   7.844  0.1615 -1.0176 -1.4860
  870MOL0     H14837  11.314   2.774   7.961  0.4605  1.3114  0.7892
  870MOL0     H14838  11.140   2.587   7.643  0.3262  1.4069 -1.4486
  870MOL0     H14839  10.782   2.921   8.342 -1.1588 -2.0934  1.2928
  870MOL0     H14840  10.541   2.950   8.392 -1.0275  0.1671 -0.4795
  871MOL0     O14841   2.411   3.037   4.747 -0.0325 -0.7581  0.3712
  871MOL0     C14842   2.420   2.984   4.856  0.6158 -0.1044 -0.5590
  871MOL0     O14843   2.542   2.981   4.928  0.0114 -0.0626 -0.0396
  871MOL0     C14844   2.649   3.030   4.857 -0.2734  0.1772 -0.3495
  871MOL0     C14845   2.769   2.958   4.861  0.6001 -0.2632 -0.5031
  871MOL0     C14846   2.887   2.999   4.809  0.4083 -0.1514  0.0734
  871MOL0     C14847   2.892   3.116   4.730 -0.1881 -0.4895  0.5742
  871MOL0     O14848   3.010   3.159   4.670  0.5585 -0.4556 -0.4464
  871MOL0     C14849   3.012   3.277   4.589  0.1850  0.0141  0.6207
  871MOL0     C14850   3.049   3.398   4.677  0.2597  0.1984 -0.1368
  871MOL0     C14851   3.187   3.391   4.736 -0.2264 -0.0795  1.5324
  871MOL0     C14852   3.227   3.522   4.813 -0.0652 -0.9380  0.9262
  871MOL0     C14853   3.360   3.514   4.879  0.2104  0.4953 -0.6427
  871MOL0     C14854   3.351   3.432   5.014  0.0823  0.3332 -0.4937
  871MOL0     C14855   3.492   3.431   5.078  0.2506  0.3344 -0.1510
  871MOL0     C14856   3.511   3.351   5.212 -0.6115 -0.1212  1.0626
  871MOL0     N14857   3.387   3.365   5.305 -0.7896 -0.1054  0.3891
  871MOL0     C14858   3.338   3.488   5.354 -0.1598 -0.0131  1.1446
  871MOL0     C14859   3.231   3.457   5.421 -0.2426  0.8488 -0.1082
  871MOL0     C14860   3.130   3.546   5.485  0.9164 -0.0433 -0.2957
  871MOL0     C14861   3.093   3.660   5.383 -0.2682  0.1781  0.7230
  871MOL0     C14862   3.002   3.605   5.280 -0.6306  1.1929  0.1588
  871MOL0     C14863   2.934   3.726   5.204 -0.6297  0.3860 -0.2365
  871MOL0     O14864   2.895   3.684   5.073 -0.0901 -0.0399  0.0307
  871MOL0     C14865   2.770   3.629   5.065  0.8762 -0.4398 -1.0825
  871MOL0     C14866   2.760   3.500   5.031 -0.5109  0.5324 -0.5100
  871MOL0     C14867   2.636   3.440   5.041 -0.2161 -0.5880  0.3987
  871MOL0     C14868   2.518   3.508   5.084 -0.8513 -0.4963 -0.3937
  871MOL0     C14869   2.393   3.442   5.091  0.6332 -0.0992 -1.6384
  871MOL0     O14870   2.301   3.518   5.156  0.2698 -0.4165 -0.7812
  871MOL0     C14871   2.170   3.475   5.179 -0.8291 -0.0057  0.4569
  871MOL0     C14872   2.097   3.557   5.251  0.0440  0.3289 -0.2908
  871MOL0     C14873   1.969   3.531   5.295  0.2923  0.3667 -0.2734
  871MOL0     C14874   1.906   3.412   5.264  0.2838  0.2928 -0.8626
  871MOL0     O14875   1.776   3.396   5.309 -0.0011 -0.9719  0.1994
  871MOL0     C14876   1.762   3.298   5.413 -0.5499 -0.0755  0.0546
  871MOL0     C14877   1.621   3.302   5.467  0.5717  0.1751 -0.5303
  871MOL0     C14878   1.528   3.201   5.398  0.7861  0.0591  0.0300
  871MOL0     C14879   1.389   3.199   5.453  0.3658 -0.8296 -0.7904
  871MOL0     C14880   1.292   3.087   5.401 -0.6448  0.3627 -0.0297
  871MOL0     C14881   1.148   3.091   5.467  0.1435  0.3650 -0.5666
  871MOL0     C14882   1.077   2.959   5.437 -0.5846  0.3212  0.0555
  871MOL0     C14883   0.931   2.976   5.455 -0.4586 -0.2307 -0.1536
  871MOL0    Cl14884   0.848   3.064   5.316 -0.2843 -0.2322 -0.0551
  871MOL0     C14885   1.979   3.320   5.195  0.2920  1.1551  0.1670
  871MOL0     C14886   2.109   3.350   5.140  0.1116 -1.0340  0.3500
  871MOL0     O14887   2.375   3.331   5.035  0.6076  0.5202 -0.5022
  871MOL0     C14888   2.534   3.644   5.112 -0.6441  0.7926  0.3023
  871MOL0     C14889   2.656   3.706   5.092  0.5021 -0.5581  0.6369
  871MOL0     N14890   3.209   3.322   5.412  0.0640  0.0991  0.4117
  871MOL0     N14891   3.308   3.264   5.347 -0.4847 -0.8261 -0.0679
  871MOL0     C14892   2.778   3.196   4.734  0.4066 -0.5678  0.5484
  871MOL0     C14893   2.657   3.155   4.798 -1.3820 -0.0904  0.0930
  871MOL0     C14894   2.290   2.952   4.922  0.1549  0.8091 -0.1494
  871MOL0     C14895   2.160   2.963   4.861 -0.0529 -0.2026  0.2248
  871MOL0     C14896   2.041   2.946   4.925  0.4961  0.6943 -0.7237
  871MOL0     C14897   2.047   2.913   5.064  0.0363 -0.4320  0.3089
  871MOL0     O14898   1.940   2.908   5.148 -0.0371 -0.1786 -0.7199
  871MOL0     C14899   1.803   2.911   5.103 -0.4388  0.4409 -0.0202
  871MOL0     C14900   1.750   2.768   5.117  0.0595 -0.4616 -0.7973
  871MOL0     C14901   1.592   2.777   5.121  0.1337  0.6025  0.0339
  871MOL0     C14902   1.524   2.636   5.137 -0.4296 -0.1433  0.0130
  871MOL0     C14903   1.387   2.654   5.182  0.4538  0.1683 -0.0439
  871MOL0     C14904   1.262   2.642   5.215 -0.7032  0.2965  0.7240
  871MOL0     C14905   2.173   2.898   5.123  1.1530  0.0688  0.6510
  871MOL0     C14906   2.294   2.922   5.059  0.1231  0.7594 -0.0079
  871MOL0     H14907   2.769   2.873   4.929 -0.4639 -0.5663 -0.8529
  871MOL0     H14908   2.976   2.943   4.834 -0.1986 -1.2042 -0.0754
  871MOL0     H14909   2.912   3.297   4.548  0.2838 -0.6016  0.0647
  871MOL0     H14910   3.081   3.257   4.507 -0.7933  0.2228 -0.2734
  871MOL0     H14911   2.971   3.410   4.753  0.1183 -0.1573 -0.2252
  871MOL0     H14912   3.025   3.490   4.622  1.7676 -0.2207 -1.5501
  871MOL0     H14913   3.253   3.370   4.651 -0.1251  0.4524  1.4759
  871MOL0     H14914   3.201   3.296   4.788  1.4623 -2.8175 -3.3056
  871MOL0     H14915   3.234   3.594   4.731 -0.0086 -1.3976  0.5209
  871MOL0     H14916   3.148   3.554   4.881  0.0135 -1.0009  1.0485
  871MOL0     H14917   3.394   3.616   4.898 -0.8605  1.1728 -2.1104
  871MOL0     H14918   3.431   3.474   4.805  1.1755  0.5207  0.2490
  871MOL0     H14919   3.330   3.325   5.003  0.3713 -0.2176  3.0589
  871MOL0     H14920   3.286   3.475   5.089  0.8537  0.2089  0.2623
  871MOL0     H14921   3.572   3.388   5.016  2.5108  0.6684  2.3649
  871MOL0     H14922   3.515   3.536   5.099 -1.2792  0.4671  1.0301
  871MOL0     H14923   3.602   3.377   5.267  1.2998  0.4292 -2.0900
  871MOL0     H14924   3.523   3.246   5.186 -2.4275 -0.0934 -0.0636
  871MOL0     H14925   3.372   3.585   5.318 -2.7111 -0.5975 -3.7062
  871MOL0     H14926   3.182   3.583   5.574 -0.1119 -1.4713  0.9425
  871MOL0     H14927   3.039   3.497   5.521  0.6631  1.0525  0.6270
  871MOL0     H14928   3.182   3.715   5.351 -1.3741  1.0128 -1.0120
  871MOL0     H14929   3.031   3.728   5.442 -1.3138  2.1121 -2.3689
  871MOL0     H14930   3.064   3.550   5.209 -0.8563  2.4887 -1.0982
  871MOL0     H14931   2.941   3.521   5.313  0.9997 -0.5456 -1.0160
  871MOL0     H14932   3.001   3.812   5.190 -0.0153 -0.2073 -1.0333
  871MOL0     H14933   2.846   3.749   5.264 -0.8209  0.1852 -0.4396
  871MOL0     H14934   2.848   3.439   5.012 -0.5393  0.4071 -0.2466
  871MOL0     H14935   2.636   3.332   5.025 -1.5281 -0.7950  1.5557
  871MOL0     H14936   2.153   3.644   5.284 -0.2560  0.1145  0.8469
  871MOL0     H14937   1.918   3.613   5.344 -1.8487 -0.6320 -0.7296
  871MOL0     H14938   1.829   3.327   5.494  0.0415  0.2288 -0.5294
  871MOL0     H14939   1.789   3.201   5.369 -0.6406  0.9853 -2.5504
  871MOL0     H14940   1.583   3.403   5.453  0.7022  0.3786  0.4873
  871MOL0     H14941   1.629   3.298   5.576  0.1565  3.1150 -0.3153
  871MOL0     H14942   1.560   3.097   5.411 -1.7531 -1.1227 -2.0182
  871MOL0     H14943   1.520   3.235   5.294  1.9988 -1.1134 -0.4730
  871MOL0     H14944   1.386   3.176   5.560 -4.4882 -0.1440 -0.5239
  871MOL0     H14945   1.336   3.293   5.431  1.8137 -0.3163 -2.2922
  871MOL0     H14946   1.341   2.995   5.433  0.5807  1.6737  2.1573
  871MOL0     H14947   1.290   3.089   5.292 -1.5760  0.4080 -0.0170
  871MOL0     H14948   1.087   3.174   5.429  1.9592  1.7630 -0.5624
  871MOL0     H14949   1.150   3.108   5.575  2.5951 -2.2968 -0.0728
  871MOL0     H14950   1.100   2.926   5.336  1.3037  1.0031  0.2166
  871MOL0     H14951   1.120   2.882   5.503 -0.2708 -0.7656 -1.3715
  871MOL0     H14952   0.923   3.017   5.556 -0.8873 -0.2634 -0.1738
  871MOL0     H14953   0.879   2.880   5.451 -2.5065  0.8481 -0.9865
  871MOL0     H14954   1.927   3.229   5.168 -0.3100  1.2418  1.0020
  871MOL0     H14955   2.165   3.268   5.095  1.2802 -0.0129 -0.1273
  871MOL0     H14956   2.443   3.689   5.151 -1.5460  0.1187 -0.9056
  871MOL0     H14957   2.655   3.813   5.110 -2.2070 -0.4034  0.0250
  871MOL0     H14958   2.776   3.297   4.694  2.7197 -0.3544  0.8208
  871MOL0     H14959   2.572   3.222   4.806 -0.9184  0.4518  0.5999
  871MOL0     H14960   2.156   2.997   4.758 -0.7885 -2.8382 -0.6928
  871MOL0     H14961   1.948   2.969   4.875  1.6955  2.0634 -2.4631
  871MOL0     H14962   1.793   2.940   4.998  0.6974  1.5488  0.1576
  871MOL0     H14963   1.755   2.984   5.170  1.3727  0.3345  1.4566
  871MOL0     H14964   1.791   2.712   5.033  0.5900  0.6824 -1.3211
  871MOL0     H14965   1.789   2.717   5.206 -1.5324  0.6916  0.6325
  871MOL0     H14966   1.552   2.816   5.028  3.1386  2.7189 -0.5233
  871MOL0     H14967   1.573   2.849   5.201  2.7568  0.0874  1.2537
  871MOL0     H14968   1.504   2.600   5.035  0.5505 -1.1619  0.1679
  871MOL0     H14969   1.581   2.561   5.192  2.2190  0.8804 -1.1665
  871MOL0     H14970   1.158   2.629   5.233 -0.8230  0.5815  0.2501
  871MOL0     H14971   2.177   2.865   5.226 -1.2457 -0.8075  0.5202
  871MOL0     H14972   2.385   2.906   5.116 -0.0773 -1.0371 -0.1244
  872MOL0     O14973   3.009   2.136   2.516  0.3260  0.0909 -0.0012
  872MOL0     C14974   3.048   2.037   2.447 -0.0493  0.6883 -0.9507
  872MOL0     O14975   2.992   1.908   2.462  0.4590 -0.5506  0.2882
  872MOL0     C14976   2.897   1.888   2.554  0.5114  0.3097 -0.2403
  872MOL0     C14977   2.768   1.914   2.516  0.6599 -0.1715  0.0032
  872MOL0     C14978   2.662   1.901   2.609 -0.7037 -0.5472 -0.5590
  872MOL0     C14979   2.692   1.860   2.734 -0.4170  0.3676 -1.0059
  872MOL0     O14980   2.602   1.846   2.836 -0.1590 -0.7387 -0.2573
  872MOL0     C14981   2.463   1.833   2.791 -0.2040 -0.4594 -0.3405
  872MOL0     C14982   2.363   1.786   2.901  0.6198  0.1106  0.9921
  872MOL0     C14983   2.222   1.836   2.856  0.2374  0.7592 -0.3838
  872MOL0     C14984   2.102   1.804   2.947  0.7780  0.1250 -0.9828
  872MOL0     C14985   1.968   1.864   2.905 -0.9954 -0.5367 -0.1108
  872MOL0     C14986   1.872   1.863   3.018 -0.2366 -0.2634  0.4455
  872MOL0     C14987   1.732   1.904   2.970 -0.5112  0.0440 -0.5058
  872MOL0     C14988   1.639   1.870   3.090  0.4801  0.5967  0.5715
  872MOL0     N14989   1.511   1.916   3.047 -0.0877 -0.0327  0.0158
  872MOL0     C14990   1.406   1.834   3.011  0.7776  0.1492 -0.0703
  872MOL0     C14991   1.299   1.913   2.988 -0.6382  0.0627 -0.1922
  872MOL0     C14992   1.164   1.856   2.963 -0.2786  0.3758  0.0189
  872MOL0     C14993   1.098   1.846   3.100 -0.2094 -0.0856 -0.3320
  872MOL0     C14994   0.943   1.836   3.092 -0.3896 -0.0852  0.1168
  872MOL0     C14995   0.892   1.702   3.053  0.3303 -0.0732 -0.4316
  872MOL0     O14996   0.900   1.692   2.915  0.5049 -0.3975  0.1644
  872MOL0     C14997   0.831   1.591   2.856  1.0540  0.0324 -0.4957
  872MOL0     C14998   0.769   1.486   2.918 -0.2799 -0.1056  0.3786
  872MOL0     C14999   0.708   1.392   2.852  0.2413  0.5434  0.2892
  872MOL0     C15000   0.696   1.396   2.715 -0.2069  0.3305  0.3728
  872MOL0     C15001   0.619   1.299   2.640 -0.1512 -0.0242  0.3193
  872MOL0     O15002   0.555   1.203   2.701 -0.0418  0.0498  0.4180
  872MOL0     C15003   0.470   1.114   2.634  0.2554 -0.6068  0.4627
  872MOL0     C15004   0.508   1.049   2.517 -0.3044  0.9424 -1.2897
  872MOL0     C15005   0.432   0.950   2.472  0.6995  0.3938  0.5234
  872MOL0     C15006   0.325   0.902   2.544  0.8013  0.0387 -0.1342
  872MOL0     O15007   0.272   0.783   2.493 -0.4676  0.2410  0.6317
  872MOL0     C15008   0.289   0.667   2.576 -0.7134 -0.0558 -0.3534
  872MOL0     C15009   0.155   0.592   2.592 -0.0782  0.4267 -0.4975
  872MOL0     C15010   0.168   0.486   2.706 -0.1503  0.4090  0.4194
  872MOL0     C15011   0.038   0.411   2.712 -0.0991 -0.2067 -0.0603
  872MOL0     C15012   0.014   0.294   2.606 -0.2872 -0.0952 -0.1617
  872MOL0     C15013   0.113   0.186   2.611 -0.8161  0.4197  0.4248
  872MOL0     C15014   0.130   0.099   2.734  0.2135 -0.3524  0.1773
  872MOL0     C15015   0.224  -0.020   2.717  0.4504 -0.0422 -0.9498
  872MOL0    Cl15016   0.191  -0.119   2.573  0.0101 -0.3187 -0.2160
  872MOL0     C15017   0.279   0.967   2.656  0.0598  0.4391 -0.2153
  872MOL0     C15018   0.358   1.073   2.703 -0.2618  0.0483  0.6269
  872MOL0     O15019   0.610   1.325   2.516 -0.0168  0.2542 -0.1278
  872MOL0     C15020   0.766   1.492   2.647  0.0178 -0.4117  0.3279
  872MOL0     C15021   0.841   1.588   2.719  0.4534  0.3665 -0.7808
  872MOL0     N15022   1.331   2.039   3.028  0.1915 -0.2879 -0.3051
  872MOL0     N15023   1.458   2.042   3.054  0.0083  0.4398  0.2440
  872MOL0     C15024   2.829   1.834   2.772 -0.0039  0.5456  0.5013
  872MOL0     C15025   2.929   1.843   2.681 -1.2665 -0.1265 -0.0326
  872MOL0     C15026   3.163   2.059   2.361 -0.0516 -0.7956 -0.2224
  872MOL0     C15027   3.243   1.950   2.324 -0.4462 -0.4726  0.1248
  872MOL0     C15028   3.354   1.977   2.242 -0.2896 -0.0720 -0.1565
  872MOL0     C15029   3.403   2.110   2.212  0.4940  0.7359  0.3430
  872MOL0     O15030   3.517   2.125   2.143 -0.3037  0.2825 -0.4834
  872MOL0     C15031   3.612   2.218   2.203  0.6071  0.3454  0.7444
  872MOL0     C15032   3.756   2.180   2.192 -0.2810  0.2133  0.9677
  872MOL0     C15033   3.844   2.282   2.260  0.5987 -0.5096  0.6892
  872MOL0     C15034   3.987   2.222   2.273  0.1765  0.5429  0.2094
  872MOL0     C15035   4.053   2.185   2.146  0.0551  0.3185  0.2458
  872MOL0     C15036   4.087   2.153   2.034 -0.0909  0.6033 -0.6283
  872MOL0     C15037   3.325   2.209   2.266  0.0751  0.0854  0.1148
  872MOL0     C15038   3.210   2.186   2.332  0.2137 -0.5452  0.2074
  872MOL0     H15039   2.731   1.926   2.415 -2.8534  0.5986  1.2207
  872MOL0     H15040   2.564   1.924   2.567  0.7250  2.6105 -2.5996
  872MOL0     H15041   2.462   1.766   2.704  0.3131  1.0291 -1.5289
  872MOL0     H15042   2.431   1.929   2.750 -0.0412 -0.3106 -0.1219
  872MOL0     H15043   2.381   1.825   3.001  3.1352 -1.5798  1.2922
  872MOL0     H15044   2.362   1.677   2.897 -2.2470  0.0536 -2.5134
  872MOL0     H15045   2.199   1.785   2.762 -0.4377 -0.3279  0.3400
  872MOL0     H15046   2.229   1.945   2.847 -2.9355  1.0569 -0.2615
  872MOL0     H15047   2.096   1.697   2.969  2.8843  0.2155  0.3629
  872MOL0     H15048   2.131   1.846   3.044 -0.9821  0.5302 -0.5917
  872MOL0     H15049   1.937   1.812   2.814  1.1803 -0.3992 -0.9812
  872MOL0     H15050   1.980   1.970   2.883 -1.2643 -0.8058 -1.6261
  872MOL0     H15051   1.909   1.938   3.089 -0.4759  1.1344 -0.8591
  872MOL0     H15052   1.872   1.770   3.077  2.8774 -0.8756 -0.3540
  872MOL0     H15053   1.727   2.011   2.948  3.5683  1.2982  3.1484
  872MOL0     H15054   1.709   1.845   2.881 -0.2392 -0.1229 -0.4664
  872MOL0     H15055   1.676   1.922   3.179  0.2126  1.3688  0.2335
  872MOL0     H15056   1.623   1.764   3.112 -1.5291  0.6630 -0.4424
  872MOL0     H15057   1.406   1.727   2.997  2.1810  0.2668 -1.1140
  872MOL0     H15058   1.181   1.759   2.914  0.1880  0.8283 -0.7184
  872MOL0     H15059   1.102   1.916   2.896  3.5994  4.3783 -0.4378
  872MOL0     H15060   1.117   1.934   3.162 -1.8527 -0.1197  0.2739
  872MOL0     H15061   1.143   1.760   3.152  1.1771  0.2339 -0.9703
  872MOL0     H15062   0.900   1.849   3.192 -0.4645 -1.2159  0.2493
  872MOL0     H15063   0.913   1.917   3.025  2.4843 -0.0899 -1.3339
  872MOL0     H15064   0.794   1.687   3.098  0.3276  0.2402 -0.3285
  872MOL0     H15065   0.956   1.627   3.100  1.9911  1.4803 -0.0977
  872MOL0     H15066   0.779   1.472   3.025  0.6031 -0.6887  0.2304
  872MOL0     H15067   0.680   1.312   2.918  1.3958  0.8142  1.1447
  872MOL0     H15068   0.592   1.077   2.453  0.7034 -1.8024 -1.2851
  872MOL0     H15069   0.470   0.888   2.391  2.7135 -0.1535  1.8176
  872MOL0     H15070   0.330   0.699   2.672  0.0378  0.1541 -0.7385
  872MOL0     H15071   0.357   0.594   2.533 -0.1514 -0.0883  0.5713
  872MOL0     H15072   0.114   0.547   2.502 -0.2187 -2.1578  0.7456
  872MOL0     H15073   0.081   0.669   2.618 -1.0094 -1.1998  2.1255
  872MOL0     H15074   0.166   0.535   2.803 -2.5915 -0.9405  1.1327
  872MOL0     H15075   0.260   0.430   2.690  0.2486 -0.0403  3.6475
  872MOL0     H15076   0.031   0.362   2.809  0.3728 -1.8311 -0.8052
  872MOL0     H15077  -0.043   0.485   2.715 -0.2052 -0.1552 -2.3684
  872MOL0     H15078   0.013   0.345   2.509 -2.1656  2.3786  1.0424
  872MOL0     H15079  -0.086   0.254   2.624  0.3180 -0.6086  2.5560
  872MOL0     H15080   0.215   0.210   2.579  0.9319 -4.1226  1.7316
  872MOL0     H15081   0.077   0.121   2.531  1.3542 -2.6270  1.7355
  872MOL0     H15082   0.156   0.159   2.822  0.4517  0.4698 -0.4361
  872MOL0     H15083   0.030   0.067   2.765  1.0823 -0.5482  3.0910
  872MOL0     H15084   0.221  -0.068   2.816  0.3118  0.8124 -0.5307
  872MOL0     H15085   0.328   0.011   2.711  1.2650 -2.6730 -1.8210
  872MOL0     H15086   0.193   0.928   2.710 -0.7103 -0.7515 -2.2159
  872MOL0     H15087   0.335   1.132   2.791 -2.5936 -0.5929  0.5203
  872MOL0     H15088   0.776   1.488   2.539 -1.6818 -1.7201  0.1771
  872MOL0     H15089   0.889   1.676   2.677  1.8362  2.2225  4.0596
  872MOL0     H15090   2.861   1.807   2.872  0.0285 -4.4284 -0.5622
  872MOL0     H15091   3.032   1.830   2.711 -1.2764 -0.1070  0.0106
  872MOL0     H15092   3.217   1.845   2.336 -2.1800 -0.2252 -1.1022
  872MOL0     H15093   3.414   1.897   2.201 -0.0704  0.5483 -1.0613
  872MOL0     H15094   3.580   2.242   2.305  0.6669  1.8646  0.4223
  872MOL0     H15095   3.600   2.308   2.143  0.6233  1.4632  2.3583
  872MOL0     H15096   3.758   2.078   2.232 -0.2915 -1.7614 -3.4999
  872MOL0     H15097   3.791   2.186   2.089  2.1697  2.8747  1.8376
  872MOL0     H15098   3.800   2.299   2.358 -3.0030  2.3715 -1.2019
  872MOL0     H15099   3.849   2.378   2.208  1.8791 -0.5104  0.7598
  872MOL0     H15100   4.053   2.290   2.326  0.1617  1.3864 -0.8182
  872MOL0     H15101   3.972   2.136   2.339  0.7281 -1.5232 -2.1796
  872MOL0     H15102   4.112   2.112   1.938  0.9627 -1.6637  0.5522
  872MOL0     H15103   3.348   2.314   2.250 -1.0384  1.2717  4.9305
  872MOL0     H15104   3.142   2.264   2.363  0.3320 -0.6650  0.7952
  873MOL0     O15105   9.961  10.529   5.922 -0.3542  0.2511 -0.3085
  873MOL0     C15106  10.007  10.531   5.805  0.0860 -0.1762 -0.0409
  873MOL0     O15107   9.942  10.577   5.702  0.2766 -0.2651  0.0201
  873MOL0     C15108   9.828  10.659   5.735 -0.6213  1.3520 -0.5080
  873MOL0     C15109   9.690  10.622   5.749  0.7039  0.4467 -0.9131
  873MOL0     C15110   9.596  10.717   5.791 -0.3845 -0.2948 -0.0196
  873MOL0     C15111   9.629  10.846   5.819 -0.3817  0.2675 -0.3993
  873MOL0     O15112   9.528  10.922   5.866  0.1376  0.0838  0.2149
  873MOL0     C15113   9.537  11.066   5.884 -0.8005  0.1283  0.5200
  873MOL0     C15114   9.404  11.134   5.917  0.0583 -0.5896  0.4588
  873MOL0     C15115   9.329  11.070   6.029  0.2762  0.2170 -0.4217
  873MOL0     C15116   9.195  11.134   6.046 -0.2427  0.0772 -0.1342
  873MOL0     C15117   9.087  11.081   5.959  0.6740 -0.1874 -0.7283
  873MOL0     C15118   8.947  11.139   5.987  0.3370 -0.3209 -0.3240
  873MOL0     C15119   8.891  11.124   6.123  0.3187  0.4217 -0.4725
  873MOL0     C15120   8.756  11.196   6.139  0.0495 -0.1335  0.3923
  873MOL0     N15121   8.713  11.204   6.277  0.4734  0.7345 -0.6213
  873MOL0     C15122   8.768  11.292   6.366  0.3480  0.5546  0.6312
  873MOL0     C15123   8.706  11.271   6.491 -0.1682  0.3644 -0.2181
  873MOL0     C15124   8.735  11.336   6.625 -0.2897 -0.1704  0.1901
  873MOL0     C15125   8.881  11.347   6.663 -0.6704 -0.7307 -0.2419
  873MOL0     C15126   8.931  11.204   6.682  0.1503  0.0112  0.0633
  873MOL0     C15127   9.083  11.206   6.709 -0.1545 -0.0637 -1.0345
  873MOL0     O15128   9.095  11.263   6.840 -0.2990  0.1821 -0.5674
  873MOL0     C15129   9.228  11.268   6.889  0.5957  0.5991  0.0793
  873MOL0     C15130   9.252  11.303   7.025  0.9401 -0.5282 -0.2545
  873MOL0     C15131   9.379  11.337   7.073 -0.1314 -0.3168 -0.8925
  873MOL0     C15132   9.491  11.326   6.988  0.6764  0.3890 -0.2874
  873MOL0     C15133   9.624  11.374   7.029  0.5391 -0.3702 -0.3554
  873MOL0     O15134   9.621  11.453   7.142 -0.0745  0.5056  0.2696
  873MOL0     C15135   9.746  11.504   7.181  0.6181 -0.2983 -0.3837
  873MOL0     C15136   9.855  11.554   7.103  0.8409 -0.1471  0.3278
  873MOL0     C15137   9.977  11.597   7.163 -0.2037 -0.6113 -0.3501
  873MOL0     C15138   9.995  11.594   7.300 -0.1086  0.4471 -0.4240
  873MOL0     O15139  10.097  11.650   7.366  0.1201  0.7039 -0.2494
  873MOL0     C15140  10.210  11.699   7.287  0.1826  0.1111 -0.9432
  873MOL0     C15141  10.334  11.732   7.368  0.0819 -0.3176  0.0180
  873MOL0     C15142  10.315  11.836   7.486 -0.0465  0.3646 -0.1635
  873MOL0     C15143  10.448  11.907   7.507  0.3973 -0.1926  0.7780
  873MOL0     C15144  10.443  12.020   7.606 -0.3318  0.9847 -0.1627
  873MOL0     C15145  10.345  12.132   7.553 -0.8043  0.1446 -0.1888
  873MOL0     C15146  10.348  12.246   7.653 -0.4798 -0.4413  0.0769
  873MOL0     C15147  10.238  12.348   7.632  0.0502  0.2834  0.9564
  873MOL0    Cl15148  10.076  12.265   7.645  0.1933  0.0976  0.0847
  873MOL0     C15149   9.890  11.538   7.375 -0.6801  0.8138 -0.6826
  873MOL0     C15150   9.768  11.494   7.317  0.7461 -0.5189 -0.2107
  873MOL0     O15151   9.716  11.343   6.961 -0.4913 -0.5135 -0.1552
  873MOL0     C15152   9.465  11.278   6.859 -0.1210 -0.2410  0.0846
  873MOL0     C15153   9.340  11.261   6.806  1.2748  0.2944  0.0431
  873MOL0     N15154   8.612  11.170   6.458  0.5197  0.1189 -0.1313
  873MOL0     N15155   8.620  11.128   6.341  0.3979  0.4032  0.2614
  873MOL0     C15156   9.763  10.887   5.798 -0.3365  0.9757 -0.6138
  873MOL0     C15157   9.859  10.797   5.753  0.1677  0.6976  0.2718
  873MOL0     C15158  10.133  10.468   5.783 -0.4253  0.2294 -0.4899
  873MOL0     C15159  10.202  10.474   5.660 -0.5098 -0.0472 -0.0388
  873MOL0     C15160  10.322  10.407   5.633  0.4638 -0.7688 -0.6067
  873MOL0     C15161  10.381  10.334   5.735  0.8852 -1.2381  0.2419
  873MOL0     O15162  10.502  10.285   5.725  0.9820  0.0431 -0.4771
  873MOL0     C15163  10.601  10.361   5.665 -0.6624  0.4454 -0.4941
  873MOL0     C15164  10.630  10.499   5.736  0.5622  0.3520  0.1457
  873MOL0     C15165  10.749  10.576   5.675 -0.4054 -0.0533  0.6377
  873MOL0     C15166  10.745  10.727   5.731 -0.2618  0.5930 -0.1367
  873MOL0     C15167  10.769  10.729   5.875 -0.4365  0.4541  0.2775
  873MOL0     C15168  10.785  10.727   5.994 -0.5710  0.6804 -0.4139
  873MOL0     C15169  10.323  10.333   5.860 -0.2398  0.2544  0.7475
  873MOL0     C15170  10.203  10.400   5.884 -0.7039  0.5787  0.1361
  873MOL0     H15171   9.669  10.519   5.722  1.8045  0.7351 -3.1274
  873MOL0     H15172   9.489  10.701   5.799 -0.5893  0.7046 -0.6330
  873MOL0     H15173   9.579  11.124   5.801 -0.1977  2.5895  2.4109
  873MOL0     H15174   9.603  11.094   5.967  1.5508 -0.9982 -0.8793
  873MOL0     H15175   9.340  11.134   5.829 -1.6386 -1.8711  1.6337
  873MOL0     H15176   9.432  11.237   5.937  4.2935 -0.9752 -2.2407
  873MOL0     H15177   9.379  11.086   6.125 -2.1467 -2.5665  1.4895
  873MOL0     H15178   9.306  10.965   6.007 -0.8966  0.9900 -3.3509
  873MOL0     H15179   9.167  11.130   6.152  1.8902 -0.7815  0.4597
  873MOL0     H15180   9.199  11.237   6.011 -0.0977  0.6612  1.5092
  873MOL0     H15181   9.086  10.972   5.969  0.2505 -0.0629  0.7730
  873MOL0     H15182   9.109  11.106   5.855 -0.5968 -2.2317 -1.5358
  873MOL0     H15183   8.877  11.088   5.920 -0.6355 -1.0906  1.2390
  873MOL0     H15184   8.951  11.246   5.965 -4.8128  0.9705  3.3350
  873MOL0     H15185   8.903  11.022   6.159  1.2618  0.8771  0.5995
  873MOL0     H15186   8.964  11.174   6.189  2.0529 -1.4720 -0.8575
  873MOL0     H15187   8.677  11.152   6.077  0.9336 -1.0561 -0.1107
  873MOL0     H15188   8.755  11.291   6.084 -4.0665 -0.6896 -0.8087
  873MOL0     H15189   8.838  11.366   6.328  0.7063 -0.5617 -0.9993
  873MOL0     H15190   8.682  11.272   6.696  0.2973 -1.3249 -0.3858
  873MOL0     H15191   8.691  11.436   6.633 -2.0002 -0.9567  1.1150
  873MOL0     H15192   8.885  11.395   6.762 -3.7792 -2.8391  1.0902
  873MOL0     H15193   8.935  11.411   6.594 -0.3009  0.3459  0.9930
  873MOL0     H15194   8.870  11.156   6.758 -2.1925  0.8344 -1.1836
  873MOL0     H15195   8.913  11.147   6.590 -1.5628  0.5986 -0.0029
  873MOL0     H15196   9.129  11.278   6.641 -0.0761  1.5475  0.6277
  873MOL0     H15197   9.128  11.107   6.702  0.6768 -0.1458  2.9138
  873MOL0     H15198   9.172  11.312   7.097  0.2192 -0.0937 -1.0888
  873MOL0     H15199   9.385  11.380   7.172 -1.1053 -0.3940 -0.7906
  873MOL0     H15200   9.845  11.568   6.996  2.1236  0.5008  0.2720
  873MOL0     H15201  10.050  11.646   7.100 -0.5446  0.2373 -0.1053
  873MOL0     H15202  10.179  11.789   7.232 -0.3544  0.5251  0.0002
  873MOL0     H15203  10.246  11.626   7.214  1.2914 -0.8944  0.5576
  873MOL0     H15204  10.408  11.764   7.294 -0.4833 -1.3370 -1.0094
  873MOL0     H15205  10.382  11.641   7.404 -1.8852 -1.1443  0.6776
  873MOL0     H15206  10.276  11.785   7.574 -0.6661 -1.0179 -1.2027
  873MOL0     H15207  10.238  11.904   7.450  1.8550  1.7968 -1.7585
  873MOL0     H15208  10.521  11.826   7.517  1.1540 -0.0340 -2.3937
  873MOL0     H15209  10.476  11.958   7.414  0.7060 -1.6029  0.0668
  873MOL0     H15210  10.542  12.066   7.608 -1.2403  3.0380  0.0133
  873MOL0     H15211  10.429  11.979   7.706  0.5093  1.9342  0.3550
  873MOL0     H15212  10.240  12.104   7.548 -0.9859  0.9391 -1.1725
  873MOL0     H15213  10.378  12.159   7.452 -2.0469  2.0300 -0.1485
  873MOL0     H15214  10.342  12.214   7.757 -1.2700  1.7831  0.7673
  873MOL0     H15215  10.444  12.299   7.651 -0.2691 -0.7669 -2.8441
  873MOL0     H15216  10.255  12.385   7.530  1.6080  0.2510  1.1900
  873MOL0     H15217  10.231  12.433   7.701  1.8010  0.1256  1.3834
  873MOL0     H15218   9.889  11.525   7.483 -4.2037 -0.4393 -0.7211
  873MOL0     H15219   9.686  11.480   7.386  0.9931  0.5431  0.3149
  873MOL0     H15220   9.553  11.286   6.796  0.8181  1.3573  1.5169
  873MOL0     H15221   9.323  11.241   6.701 -1.1784 -1.5362  0.6917
  873MOL0     H15222   9.802  10.988   5.798  0.9548  0.5236  1.7441
  873MOL0     H15223   9.962  10.825   5.732  0.7605 -1.8113 -0.5500
  873MOL0     H15224  10.162  10.530   5.577  2.2733  1.5813 -0.4001
  873MOL0     H15225  10.370  10.424   5.538  4.6563 -1.9575  1.0580
  873MOL0     H15226  10.576  10.367   5.558 -1.3038 -2.3653 -0.5762
  873MOL0     H15227  10.694  10.306   5.683 -0.8378 -0.3700 -1.8795
  873MOL0     H15228  10.537  10.556   5.727 -0.3910 -0.4685  3.5805
  873MOL0     H15229  10.652  10.479   5.841 -1.6799 -0.8554  0.4539
  873MOL0     H15230  10.731  10.579   5.568 -0.1534  0.7672  0.6139
  873MOL0     H15231  10.847  10.530   5.693 -1.2083 -2.8564 -1.3736
  873MOL0     H15232  10.821  10.788   5.681  0.0643 -0.3064 -0.7728
  873MOL0     H15233  10.650  10.773   5.705 -1.6005 -2.3900 -1.0198
  873MOL0     H15234  10.810  10.730   6.098 -1.3355  0.6715 -0.2209
  873MOL0     H15235  10.374  10.281   5.941 -0.5435 -0.2845  0.5997
  873MOL0     H15236  10.166  10.400   5.986  0.2701 -0.5973  0.5257
  874MOL0     O15237   5.608  10.549   2.307 -0.3224 -0.1895  0.4477
  874MOL0     C15238   5.617  10.666   2.299 -0.7103  0.5751 -0.1800
  874MOL0     O15239   5.535  10.748   2.224  0.2367 -0.4195 -0.0827
  874MOL0     C15240   5.426  10.698   2.149 -0.3293 -0.4846  1.4191
  874MOL0     C15241   5.419  10.578   2.075 -0.0949  0.2241 -0.1407
  874MOL0     C15242   5.301  10.539   2.008  0.8247  0.3281 -0.1486
  874MOL0     C15243   5.197  10.637   1.988  0.4471  0.7014 -0.9099
  874MOL0     O15244   5.075  10.610   1.925  0.0639  0.4521  0.5311
  874MOL0     C15245   5.060  10.477   1.874 -0.2980 -0.0258  0.4858
  874MOL0     C15246   4.929  10.473   1.786 -0.2449 -0.1109 -0.6958
  874MOL0     C15247   4.920  10.581   1.681  0.2120  0.0421  0.4295
  874MOL0     C15248   4.792  10.568   1.608  0.3596  0.6056  0.7386
  874MOL0     C15249   4.797  10.470   1.483  0.2367  0.5967  0.2261
  874MOL0     C15250   4.868  10.529   1.355 -0.0791 -0.1885  0.0266
  874MOL0     C15251   4.842  10.438   1.234  0.0401  0.4325  0.0976
  874MOL0     C15252   4.937  10.470   1.118 -0.5482 -0.0553  0.9259
  874MOL0     N15253   4.912  10.377   1.003  0.6163  0.1252 -0.0675
  874MOL0     C15254   4.795  10.367   0.936 -0.1051  0.1246  0.4990
  874MOL0     C15255   4.824  10.274   0.839  0.7592 -0.5553  0.1052
  874MOL0     C15256   4.713  10.219   0.746 -0.6774  0.3522 -0.4940
  874MOL0     C15257   4.599  10.321   0.717 -0.8080 -0.0156 -0.3973
  874MOL0     C15258   4.490  10.254   0.637  0.5911  0.2188 -0.6300
  874MOL0     C15259   4.360  10.342   0.632 -0.6571 -0.5814  0.1965
  874MOL0     O15260   4.269  10.261   0.568  0.1341  0.7151  0.1421
  874MOL0     C15261   4.142  10.301   0.554  0.4075 -0.6774 -0.4684
  874MOL0     C15262   4.106  10.439   0.572 -0.8567 -0.2845  0.6732
  874MOL0     C15263   3.977  10.478   0.551  0.3041 -0.2086  0.5024
  874MOL0     C15264   3.876  10.388   0.506  0.7643  0.5090  0.4900
  874MOL0     C15265   3.733  10.423   0.497 -0.1821 -0.5394  0.1177
  874MOL0     O15266   3.706  10.548   0.460  0.2959  0.1719  0.5752
  874MOL0     C15267   3.580  10.587   0.469 -0.0797  0.9644  0.0883
  874MOL0     C15268   3.487  10.541   0.372 -0.4418 -0.3376  0.1667
  874MOL0     C15269   3.366  10.596   0.375 -0.0146  0.2728 -0.4167
  874MOL0     C15270   3.326  10.688   0.473  0.1471  0.2581 -0.4851
  874MOL0     O15271   3.195  10.725   0.477  0.8594  0.3547  0.0601
  874MOL0     C15272   3.132  10.706   0.607  0.6748  0.0196 -0.5407
  874MOL0     C15273   2.987  10.654   0.605  0.4825 -0.2400  0.4024
  874MOL0     C15274   2.905  10.741   0.509  0.0453 -1.0035 -0.1503
  874MOL0     C15275   2.754  10.715   0.524  0.2222 -0.3390  0.7081
  874MOL0     C15276   2.662  10.811   0.443 -1.3388  0.4061  0.6519
  874MOL0     C15277   2.517  10.763   0.482  0.2603  0.2293 -0.1965
  874MOL0     C15278   2.490  10.624   0.437  0.7427  0.5367 -0.2919
  874MOL0     C15279   2.348  10.600   0.379  0.6466  0.1582  0.2232
  874MOL0    Cl15280   2.228  10.615   0.518  0.3145 -0.3160  0.3323
  874MOL0     C15281   3.418  10.723   0.579  0.1486 -0.6193 -0.0344
  874MOL0     C15282   3.544  10.672   0.570  0.5286  0.3214  0.1796
  874MOL0     O15283   3.647  10.333   0.501 -0.7936  0.1411 -0.3106
  874MOL0     C15284   3.917  10.252   0.479  0.6349 -0.2687  0.2745
  874MOL0     C15285   4.045  10.215   0.500 -0.5348 -0.1210 -0.4637
  874MOL0     N15286   4.951  10.226   0.863 -0.0324 -0.2169  0.3298
  874MOL0     N15287   5.005  10.293   0.954 -1.1866 -1.5207 -0.3849
  874MOL0     C15288   5.209  10.757   2.057 -0.0720 -0.1947 -0.4107
  874MOL0     C15289   5.314  10.784   2.137  0.7997 -0.4141 -0.4576
  874MOL0     C15290   5.727  10.735   2.370  0.0932  0.3486  0.2077
  874MOL0     C15291   5.807  10.671   2.469  0.1187 -0.0129 -0.1478
  874MOL0     C15292   5.907  10.743   2.538  0.2026 -0.2538 -0.4890
  874MOL0     C15293   5.941  10.875   2.509  0.3128 -0.4571 -0.7428
  874MOL0     O15294   6.028  10.959   2.580 -0.3358  0.1101  0.8080
  874MOL0     C15295   6.049  10.937   2.716  0.2535  0.1153 -0.3689
  874MOL0     C15296   6.154  11.030   2.767  0.0389 -1.0634 -0.5294
  874MOL0     C15297   6.106  11.173   2.807  0.8509  0.3835 -0.6706
  874MOL0     C15298   6.231  11.268   2.817  0.5839 -0.0632  0.5811
  874MOL0     C15299   6.318  11.240   2.931  0.0731  0.4127 -0.6378
  874MOL0     C15300   6.400  11.221   3.029  0.9028  1.3626 -0.1628
  874MOL0     C15301   5.857  10.936   2.417  0.4429  0.1500  0.6117
  874MOL0     C15302   5.761  10.866   2.340 -0.3440 -0.2783  0.7799
  874MOL0     H15303   5.515  10.527   2.071 -0.1139  0.2130 -3.4284
  874MOL0     H15304   5.291  10.442   1.962 -0.4872  2.1585 -4.2015
  874MOL0     H15305   5.049  10.410   1.960  1.3470  2.0883  2.4621
  874MOL0     H15306   5.136  10.443   1.803 -0.5077 -1.6018  0.9837
  874MOL0     H15307   4.847  10.485   1.858  0.5197  0.9620  0.0156
  874MOL0     H15308   4.911  10.375   1.741 -2.9651 -0.0150 -0.0214
  874MOL0     H15309   4.999  10.570   1.606  0.8796 -3.5705  1.4822
  874MOL0     H15310   4.911  10.685   1.713  0.4986  0.2799 -0.2374
  874MOL0     H15311   4.710  10.533   1.671  1.3850  0.1546  1.8716
  874MOL0     H15312   4.759  10.668   1.581 -2.4700  0.5369  3.4391
  874MOL0     H15313   4.694  10.443   1.459  0.6908 -0.1424 -1.0172
  874MOL0     H15314   4.856  10.383   1.515 -1.1645 -0.8319 -0.9036
  874MOL0     H15315   4.975  10.545   1.373 -0.2599 -0.1178  1.1248
  874MOL0     H15316   4.842  10.629   1.321 -3.9804 -0.6090  1.2793
  874MOL0     H15317   4.858  10.334   1.263 -0.3796  0.0208 -1.0941
  874MOL0     H15318   4.738  10.450   1.202  0.6453  3.1355 -1.1214
  874MOL0     H15319   5.040  10.465   1.153 -1.0198  0.4773  2.4695
  874MOL0     H15320   4.919  10.573   1.087  1.8623 -0.0405 -0.6437
  874MOL0     H15321   4.701  10.418   0.951  0.0575  0.5816 -0.0092
  874MOL0     H15322   4.667  10.143   0.809  0.4769  1.7998  2.3251
  874MOL0     H15323   4.758  10.189   0.651  1.8080  3.5862 -0.5395
  874MOL0     H15324   4.631  10.414   0.670  1.0417 -0.7811 -0.7667
  874MOL0     H15325   4.555  10.356   0.811 -0.4044  2.9677 -1.2081
  874MOL0     H15326   4.522  10.229   0.536  1.3295 -1.7596  0.0525
  874MOL0     H15327   4.456  10.161   0.684 -1.7448  0.5989 -1.4411
  874MOL0     H15328   4.385  10.429   0.569  0.8230  0.1609  1.7243
  874MOL0     H15329   4.325  10.368   0.732 -0.6760  2.2512 -0.4551
  874MOL0     H15330   4.177  10.512   0.609  1.5275 -2.4018  0.5289
  874MOL0     H15331   3.949  10.582   0.560 -2.8589 -0.7589 -1.3191
  874MOL0     H15332   3.523  10.483   0.288 -1.8254  0.8835 -1.3403
  874MOL0     H15333   3.291  10.571   0.300 -0.4756 -0.7155  0.3446
  874MOL0     H15334   3.128  10.805   0.655 -1.8503 -1.0708  1.7701
  874MOL0     H15335   3.192  10.646   0.676 -1.1230 -2.4488 -0.9912
  874MOL0     H15336   2.940  10.658   0.704 -2.9925  1.7509 -1.1489
  874MOL0     H15337   2.993  10.549   0.575  1.8885  0.7025 -3.1080
  874MOL0     H15338   2.938  10.721   0.407  0.6586 -1.4641  0.1320
  874MOL0     H15339   2.911  10.847   0.534  0.8034 -1.7906  3.6017
  874MOL0     H15340   2.728  10.613   0.496 -0.4194  0.0062  0.0416
  874MOL0     H15341   2.735  10.743   0.628  2.4208  0.1541  1.0294
  874MOL0     H15342   2.687  10.795   0.338  1.4118 -1.8088  1.5186
  874MOL0     H15343   2.686  10.916   0.461  3.8348 -0.3754 -0.0640
  874MOL0     H15344   2.454  10.830   0.424  0.0935  1.0292  0.8866
  874MOL0     H15345   2.497  10.770   0.590  1.4303 -1.3773  0.1672
  874MOL0     H15346   2.547  10.598   0.347  0.7362 -0.5458  0.0039
  874MOL0     H15347   2.514  10.547   0.511  0.5688 -1.0244 -1.7939
  874MOL0     H15348   2.343  10.498   0.340  0.7286  0.6570 -1.1320
  874MOL0     H15349   2.322  10.668   0.297 -2.8803 -1.9501 -0.5961
  874MOL0     H15350   3.410  10.799   0.656  1.7196 -1.4285  0.9862
  874MOL0     H15351   3.621  10.710   0.637  0.1321 -1.0705  1.4927
  874MOL0     H15352   3.846  10.179   0.442 -0.3891  1.2720 -0.9262
  874MOL0     H15353   4.070  10.112   0.474 -0.4691 -0.1467 -0.2984
  874MOL0     H15354   5.127  10.828   2.046  0.8284  0.9278 -0.0629
  874MOL0     H15355   5.326  10.886   2.172  2.0591 -0.3637 -0.9823
  874MOL0     H15356   5.767  10.574   2.497 -1.1729  0.8728  1.2781
  874MOL0     H15357   5.965  10.696   2.618 -3.1505  1.3351  3.1954
  874MOL0     H15358   6.076  10.832   2.724  1.9146  0.4534 -1.1425
  874MOL0     H15359   5.961  10.959   2.777 -0.3719 -1.8815 -0.4820
  874MOL0     H15360   6.198  10.981   2.855 -2.9372  2.8060  3.6169
  874MOL0     H15361   6.229  11.035   2.688 -2.5672  1.6491 -3.0482
  874MOL0     H15362   6.045  11.171   2.898  3.2185 -2.3662  1.0289
  874MOL0     H15363   6.045  11.220   2.728 -2.1707  1.0779  1.8573
  874MOL0     H15364   6.280  11.286   2.721  0.2248  3.1975  0.9058
  874MOL0     H15365   6.176  11.360   2.838 -0.0719  0.0617 -1.4190
  874MOL0     H15366   6.465  11.196   3.110  1.0162 -0.2157 -0.6921
  874MOL0     H15367   5.882  11.039   2.397  2.8065  0.3661  3.8570
  874MOL0     H15368   5.713  10.928   2.265 -1.9947 -2.9692 -0.5407
  875MOL0     O15369   4.237   1.746   4.127  0.5131 -0.1720  0.2678
  875MOL0     C15370   4.217   1.629   4.166  0.5560  0.1824 -0.2089
  875MOL0     O15371   4.092   1.572   4.183 -0.0392  0.2113 -0.1906
  875MOL0     C15372   3.983   1.642   4.146  0.1112 -0.5785 -0.0103
  875MOL0     C15373   3.870   1.637   4.240 -0.2244 -0.7255  0.0426
  875MOL0     C15374   3.759   1.710   4.214  0.1252 -0.7302 -0.2721
  875MOL0     C15375   3.752   1.794   4.099  0.2665 -0.3047 -0.0380
  875MOL0     O15376   3.651   1.883   4.064 -0.6201  0.1550 -0.5378
  875MOL0     C15377   3.601   1.955   4.177  0.9068  0.6589  0.1112
  875MOL0     C15378   3.559   2.099   4.134  0.3765 -0.3947 -0.9047
  875MOL0     C15379   3.474   2.108   4.005 -0.5139  0.0268  0.5549
  875MOL0     C15380   3.391   2.247   3.971  0.1258 -0.3652 -0.6274
  875MOL0     C15381   3.274   2.217   3.872  0.2356 -0.3086  0.1318
  875MOL0     C15382   3.220   2.347   3.808 -0.8007  0.2569  0.6341
  875MOL0     C15383   3.139   2.305   3.685 -0.2187  0.3540 -0.6560
  875MOL0     C15384   3.081   2.420   3.610 -0.2734 -0.4982 -0.3168
  875MOL0     N15385   2.979   2.494   3.686 -0.2169  0.8332  0.1811
  875MOL0     C15386   2.874   2.429   3.747 -0.3436 -0.1158 -0.1892
  875MOL0     C15387   2.804   2.534   3.806  0.2114 -0.9444  0.3094
  875MOL0     C15388   2.681   2.516   3.888 -0.0603 -0.0535 -0.0150
  875MOL0     C15389   2.587   2.634   3.874 -0.0531 -0.1240 -0.5445
  875MOL0     C15390   2.478   2.602   3.983  0.1788 -0.3523  0.4721
  875MOL0     C15391   2.358   2.713   3.992  0.2522 -0.0987  0.9850
  875MOL0     O15392   2.239   2.647   4.051  0.1744  0.3246  0.2331
  875MOL0     C15393   2.114   2.706   4.076 -0.1349 -0.9556 -0.0328
  875MOL0     C15394   2.037   2.638   4.165  0.1261  0.7547  0.3684
  875MOL0     C15395   1.910   2.690   4.208 -0.1051 -0.1435  0.5300
  875MOL0     C15396   1.862   2.814   4.154  0.3590  0.1783 -0.1180
  875MOL0     C15397   1.728   2.871   4.201 -0.6788  0.3019 -0.4914
  875MOL0     O15398   1.715   3.004   4.185 -0.0351 -0.2545 -0.1962
  875MOL0     C15399   1.602   3.075   4.236 -0.5353  0.5980 -0.4922
  875MOL0     C15400   1.539   3.041   4.359 -0.5746 -0.3292  0.7847
  875MOL0     C15401   1.430   3.112   4.406 -0.1740  0.0709 -0.2889
  875MOL0     C15402   1.382   3.221   4.328  0.2379 -1.0454  0.1312
  875MOL0     O15403   1.266   3.291   4.363 -0.8403  0.9873  0.3720
  875MOL0     C15404   1.211   3.274   4.493 -0.5195 -0.0708  0.1049
  875MOL0     C15405   1.159   3.404   4.560 -1.0571 -0.4532  0.4275
  875MOL0     C15406   1.035   3.463   4.485 -0.2634 -0.2780 -0.1205
  875MOL0     C15407   0.987   3.590   4.549 -0.0827 -0.5796  0.8837
  875MOL0     C15408   0.884   3.660   4.463  0.0832  0.2670  0.2021
  875MOL0     C15409   0.743   3.600   4.471 -0.4778  0.0478 -0.2413
  875MOL0     C15410   0.621   3.694   4.441 -0.6728 -0.5572 -0.9323
  875MOL0     C15411   0.627   3.745   4.305  0.1297  0.0398  0.7209
  875MOL0    Cl15412   0.544   3.622   4.198  0.5167  0.2611  0.0498
  875MOL0     C15413   1.449   3.262   4.211  0.0515 -0.5330 -0.3771
  875MOL0     C15414   1.558   3.188   4.167 -0.8623  0.0476  0.9235
  875MOL0     O15415   1.637   2.790   4.241  0.3967  0.1736  0.6399
  875MOL0     C15416   1.950   2.878   4.067 -0.2869  0.2612 -0.0170
  875MOL0     C15417   2.073   2.835   4.033  0.1340 -0.4246 -0.0866
  875MOL0     N15418   2.886   2.647   3.789 -0.1218 -0.2857  0.0776
  875MOL0     N15419   2.986   2.623   3.713 -0.3305 -0.9062  0.2635
  875MOL0     C15420   3.855   1.787   4.003 -0.2724  0.6792  0.4801
  875MOL0     C15421   3.981   1.719   4.030  0.5343 -0.5994 -0.3803
  875MOL0     C15422   4.333   1.534   4.178 -0.4049 -0.0754  0.1445
  875MOL0     C15423   4.320   1.410   4.250 -0.1974 -0.4370  0.1166
  875MOL0     C15424   4.431   1.323   4.259  0.3759 -0.3672 -0.2405
  875MOL0     C15425   4.556   1.373   4.213 -0.2522  0.4837 -1.2123
  875MOL0     O15426   4.664   1.284   4.240  0.4594 -0.1863  0.5380
  875MOL0     C15427   4.787   1.288   4.170 -0.0176  0.1327  0.9380
  875MOL0     C15428   4.868   1.383   4.260  0.4560  0.5353  0.0628
  875MOL0     C15429   4.990   1.440   4.198  0.0378  0.6464 -0.3815
  875MOL0     C15430   5.103   1.337   4.161  0.8081 -0.5803 -0.0676
  875MOL0     C15431   5.145   1.272   4.284  0.7323  0.3608  0.5050
  875MOL0     C15432   5.174   1.212   4.387  0.3296  0.4889  0.3252
  875MOL0     C15433   4.571   1.494   4.151  0.3295 -0.4803  0.4296
  875MOL0     C15434   4.460   1.577   4.133 -0.0568 -0.3415  0.5095
  875MOL0     H15435   3.895   1.585   4.332  0.0251 -1.0133 -0.1865
  875MOL0     H15436   3.673   1.705   4.279 -0.4946 -2.8265 -1.1622
  875MOL0     H15437   3.665   1.981   4.261  1.5139 -0.9532  0.1808
  875MOL0     H15438   3.512   1.903   4.212  0.6981  1.3625  0.6503
  875MOL0     H15439   3.649   2.160   4.116  3.3522 -3.2539  2.5155
  875MOL0     H15440   3.502   2.142   4.217  1.2996 -1.2257  0.2000
  875MOL0     H15441   3.393   2.035   4.005  0.8340 -1.6092 -2.1196
  875MOL0     H15442   3.539   2.087   3.920 -1.5714  2.0859 -0.8694
  875MOL0     H15443   3.358   2.297   4.062 -1.0917 -1.0521 -0.6703
  875MOL0     H15444   3.465   2.309   3.918  0.2679 -0.8717 -1.0367
  875MOL0     H15445   3.201   2.161   3.930  0.7509  1.3094  2.5043
  875MOL0     H15446   3.309   2.157   3.787  3.9515  1.8367 -0.0737
  875MOL0     H15447   3.309   2.403   3.778 -0.2957  0.1281  1.8065
  875MOL0     H15448   3.165   2.406   3.882  1.0130  1.8736  0.7678
  875MOL0     H15449   3.196   2.247   3.612 -0.0045 -2.4574  1.5761
  875MOL0     H15450   3.057   2.239   3.715 -1.4433  1.7565 -0.8296
  875MOL0     H15451   3.040   2.404   3.510 -1.8729 -0.9144  0.3543
  875MOL0     H15452   3.163   2.489   3.589 -0.4142 -0.3049 -0.2326
  875MOL0     H15453   2.845   2.324   3.741  5.0709 -2.1000  2.1216
  875MOL0     H15454   2.711   2.500   3.992 -1.1942 -2.2887  0.0413
  875MOL0     H15455   2.630   2.428   3.848 -0.4144  0.1467 -0.0018
  875MOL0     H15456   2.545   2.639   3.774 -2.7625  4.3750  0.5229
  875MOL0     H15457   2.645   2.723   3.902  1.1702 -1.1761  0.3983
  875MOL0     H15458   2.427   2.506   3.973 -0.7160  0.2542 -1.0323
  875MOL0     H15459   2.521   2.602   4.084 -0.6830  0.8813  0.8670
  875MOL0     H15460   2.325   2.750   3.895  0.3948  0.5074  1.1614
  875MOL0     H15461   2.391   2.796   4.056  1.8572 -0.5386  0.7835
  875MOL0     H15462   2.067   2.540   4.201 -2.8131 -0.4156 -0.1161
  875MOL0     H15463   1.857   2.629   4.281 -2.5258 -0.3074 -1.2633
  875MOL0     H15464   1.577   2.959   4.421  2.4533 -0.1637 -0.6803
  875MOL0     H15465   1.385   3.080   4.499  2.6068 -2.5314  0.3264
  875MOL0     H15466   1.296   3.245   4.556 -0.2435  0.6667  0.0823
  875MOL0     H15467   1.132   3.197   4.491  2.6145 -3.7682  2.5686
  875MOL0     H15468   1.241   3.474   4.545 -1.6402 -0.0953 -1.3644
  875MOL0     H15469   1.160   3.387   4.668  1.0582  3.2557  1.1482
  875MOL0     H15470   0.966   3.378   4.484 -0.4935 -0.0888 -0.4343
  875MOL0     H15471   1.069   3.484   4.383 -0.8854 -2.2667 -0.7964
  875MOL0     H15472   0.944   3.563   4.645  0.1383 -1.3171  0.7787
  875MOL0     H15473   1.074   3.649   4.580  0.5386 -2.1163  2.1838
  875MOL0     H15474   0.922   3.648   4.361  0.0410 -1.9071  0.3909
  875MOL0     H15475   0.895   3.768   4.476 -1.8565  0.9321 -2.6858
  875MOL0     H15476   0.727   3.563   4.573 -1.5543  3.0876  0.8258
  875MOL0     H15477   0.740   3.506   4.415  1.6652 -2.3241  3.2374
  875MOL0     H15478   0.525   3.645   4.461  0.6902 -2.7221  0.7805
  875MOL0     H15479   0.623   3.775   4.514 -1.7923 -0.2137 -1.2706
  875MOL0     H15480   0.732   3.769   4.283  0.3789 -0.9055  0.8163
  875MOL0     H15481   0.569   3.837   4.297 -1.8600 -1.2369 -0.3855
  875MOL0     H15482   1.411   3.345   4.152 -0.5520 -1.4542 -1.3180
  875MOL0     H15483   1.603   3.207   4.070  1.2807 -1.9899  1.4126
  875MOL0     H15484   1.918   2.967   4.014 -2.7101 -0.0587  0.7694
  875MOL0     H15485   2.138   2.897   3.973  0.0493  1.9558  2.1403
  875MOL0     H15486   3.838   1.833   3.907  0.4415 -2.0999 -1.0934
  875MOL0     H15487   4.054   1.718   3.950  0.4853 -1.0456 -0.4202
  875MOL0     H15488   4.225   1.369   4.284 -1.3013  2.1410  0.3601
  875MOL0     H15489   4.412   1.220   4.288 -0.5859  0.5678  2.8852
  875MOL0     H15490   4.774   1.317   4.065  1.0281  2.4650  1.3866
  875MOL0     H15491   4.830   1.188   4.169  0.7885  0.4652 -0.3375
  875MOL0     H15492   4.806   1.465   4.296  1.2506  0.1877  2.3560
  875MOL0     H15493   4.884   1.339   4.359  1.9103 -0.7550 -0.7102
  875MOL0     H15494   5.032   1.509   4.272  1.3393 -2.0440  1.5787
  875MOL0     H15495   4.955   1.495   4.111 -1.8995 -1.1675 -0.8147
  875MOL0     H15496   5.072   1.273   4.078  3.0169  3.2211 -4.2489
  875MOL0     H15497   5.194   1.382   4.122  0.7642  0.6831  1.2278
  875MOL0     H15498   5.199   1.158   4.476 -0.4576  1.7329  1.3363
  875MOL0     H15499   4.668   1.537   4.129  0.2980 -0.0504  1.0902
  875MOL0     H15500   4.479   1.673   4.088 -0.2449 -0.5296  0.0172
  876MOL0     O15501   8.508   6.831   1.110 -0.4416  0.1447 -0.1172
  876MOL0     C15502   8.613   6.888   1.137 -0.9189  0.0644  1.0249
  876MOL0     O15503   8.617   7.018   1.159 -0.3271 -0.6621  0.6446
  876MOL0     C15504   8.510   7.108   1.157 -0.8047  0.5687  0.7623
  876MOL0     C15505   8.533   7.239   1.115 -0.0143  0.1041 -0.8496
  876MOL0     C15506   8.426   7.330   1.119 -0.5991 -0.3221  0.5680
  876MOL0     C15507   8.311   7.300   1.181  0.6746 -0.7011  0.4068
  876MOL0     O15508   8.220   7.405   1.182 -0.1630 -0.4190  0.1101
  876MOL0     C15509   8.094   7.380   1.238 -1.0814  0.5602 -0.6513
  876MOL0     C15510   7.989   7.486   1.208  0.9379 -0.0378 -0.1675
  876MOL0     C15511   7.854   7.442   1.265  0.2114 -0.0640 -0.3439
  876MOL0     C15512   7.748   7.555   1.249  0.4337  1.4301 -0.3831
  876MOL0     C15513   7.625   7.490   1.301 -0.3456 -0.3268  0.6991
  876MOL0     C15514   7.502   7.578   1.280  0.1244 -0.6309 -0.4343
  876MOL0     C15515   7.388   7.524   1.356  1.1902 -0.1017 -0.3570
  876MOL0     C15516   7.269   7.622   1.349 -0.2630  0.3576  0.5796
  876MOL0     N15517   7.151   7.542   1.390  0.2229 -0.3310 -0.2803
  876MOL0     C15518   7.143   7.485   1.520  0.4449  0.1815 -0.0148
  876MOL0     C15519   7.026   7.426   1.517 -0.0221  0.5834 -0.5672
  876MOL0     C15520   6.979   7.337   1.629  0.4725 -0.5982  0.3714
  876MOL0     C15521   6.821   7.313   1.621  0.2784 -0.3700  0.2910
  876MOL0     C15522   6.781   7.195   1.710 -1.0032 -0.1414 -0.0119
  876MOL0     C15523   6.632   7.175   1.719 -0.1936  0.1436  0.2262
  876MOL0     O15524   6.591   7.046   1.777 -0.4987 -0.1433  0.3171
  876MOL0     C15525   6.459   7.030   1.769  0.2620 -1.5436 -0.7910
  876MOL0     C15526   6.365   7.110   1.837 -0.2716 -0.2612 -0.6401
  876MOL0     C15527   6.234   7.072   1.851  0.6313 -0.6626 -0.0101
  876MOL0     C15528   6.185   6.959   1.781  0.8045 -0.5835 -0.3315
  876MOL0     C15529   6.043   6.919   1.802 -0.3803 -0.1979  0.2342
  876MOL0     O15530   5.988   6.832   1.716  0.2035 -0.2471  0.3306
  876MOL0     C15531   5.858   6.784   1.713  0.2437 -0.2117  0.8423
  876MOL0     C15532   5.748   6.862   1.746  0.0219  0.1660  0.9239
  876MOL0     C15533   5.616   6.812   1.744  0.3187  0.8746 -0.3796
  876MOL0     C15534   5.589   6.679   1.689 -0.8601  0.4055  0.4432
  876MOL0     O15535   5.462   6.619   1.689 -0.3032  0.1000 -0.6143
  876MOL0     C15536   5.366   6.688   1.759  0.1933  0.6523 -0.0021
  876MOL0     C15537   5.243   6.605   1.769 -0.1334  0.0841 -0.5667
  876MOL0     C15538   5.132   6.678   1.843  0.2074 -0.0995  0.4228
  876MOL0     C15539   5.009   6.592   1.827 -0.4888  0.2354  0.0886
  876MOL0     C15540   4.880   6.664   1.817  0.0834  0.7744 -0.0089
  876MOL0     C15541   4.839   6.752   1.939 -0.3622 -0.1766 -1.0167
  876MOL0     C15542   4.772   6.674   2.055  0.1037  0.2189  0.6384
  876MOL0     C15543   4.739   6.770   2.170  0.4558 -0.6369  1.2677
  876MOL0    Cl15544   4.652   6.678   2.297 -0.1549 -0.1858 -0.3647
  876MOL0     C15545   5.699   6.607   1.655  0.7174  0.2267  0.1095
  876MOL0     C15546   5.830   6.655   1.663  0.1222 -0.3156 -0.1603
  876MOL0     O15547   5.985   6.967   1.897  0.5031 -0.5795  0.3016
  876MOL0     C15548   6.280   6.881   1.702 -0.6923 -0.2489  0.2012
  876MOL0     C15549   6.418   6.916   1.702  0.6208  0.1912 -0.0072
  876MOL0     N15550   6.967   7.457   1.399  0.2017  0.2071  0.4775
  876MOL0     N15551   7.041   7.532   1.319  1.0554 -0.6236  0.7297
  876MOL0     C15552   8.295   7.172   1.235  0.6482  0.2884 -0.0205
  876MOL0     C15553   8.394   7.071   1.226  0.3426  0.1830  0.2424
  876MOL0     C15554   8.726   6.799   1.183  0.6333 -0.5536  0.3165
  876MOL0     C15555   8.826   6.855   1.266  0.1484  0.4561 -0.6295
  876MOL0     C15556   8.947   6.782   1.288  0.4061  0.4737 -0.1214
  876MOL0     C15557   8.958   6.651   1.231  0.0034  0.1343 -0.3929
  876MOL0     O15558   9.069   6.564   1.247 -0.6096  0.6024 -0.6889
  876MOL0     C15559   9.178   6.598   1.337  0.0014  0.2063 -0.3757
  876MOL0     C15560   9.295   6.504   1.336  0.0700 -0.2260 -0.2393
  876MOL0     C15561   9.346   6.462   1.198 -0.5433  0.0595  0.5071
  876MOL0     C15562   9.451   6.346   1.184  0.1143 -0.0394  0.0297
  876MOL0     C15563   9.387   6.212   1.200 -0.7197 -0.2351 -0.0418
  876MOL0     C15564   9.324   6.104   1.200  0.5160 -0.6222 -0.3778
  876MOL0     C15565   8.860   6.604   1.146 -0.6569  0.3501 -0.4153
  876MOL0     C15566   8.745   6.677   1.119 -0.9736  0.6878 -0.0023
  876MOL0     H15567   8.629   7.273   1.076 -0.0160  1.3546  0.1608
  876MOL0     H15568   8.448   7.424   1.069  0.9638 -0.5795  0.7463
  876MOL0     H15569   8.112   7.375   1.346  0.4627 -0.1873 -0.9194
  876MOL0     H15570   8.058   7.280   1.214 -2.1674  0.5353  0.9054
  876MOL0     H15571   7.977   7.495   1.100 -3.1445 -0.1638  0.1220
  876MOL0     H15572   8.022   7.579   1.256 -1.0890  1.1480 -0.9205
  876MOL0     H15573   7.874   7.427   1.371  0.6540 -1.0442 -0.5573
  876MOL0     H15574   7.816   7.353   1.215  0.2589  0.6722 -1.7611
  876MOL0     H15575   7.760   7.653   1.296 -3.5934  2.6109 -1.4009
  876MOL0     H15576   7.734   7.579   1.143  0.6262  0.5073 -0.6281
  876MOL0     H15577   7.648   7.462   1.405 -3.3357  2.4447  2.2908
  876MOL0     H15578   7.601   7.400   1.244  3.6595  0.4963 -2.7423
  876MOL0     H15579   7.473   7.578   1.174 -0.6677  2.8851 -0.3287
  876MOL0     H15580   7.530   7.679   1.311 -0.0350 -1.2519  1.8613
  876MOL0     H15581   7.366   7.422   1.321  4.0337 -2.3170  3.5607
  876MOL0     H15582   7.430   7.501   1.454  1.8503 -3.7210 -1.3408
  876MOL0     H15583   7.248   7.661   1.249  2.2969 -0.3000 -0.2940
  876MOL0     H15584   7.296   7.701   1.420 -1.8725 -0.4072  2.1282
  876MOL0     H15585   7.224   7.473   1.591  0.1083 -0.3267  0.2834
  876MOL0     H15586   7.017   7.379   1.723 -2.3244  0.8108  0.9778
  876MOL0     H15587   7.026   7.240   1.615  0.7825 -0.1989 -1.5863
  876MOL0     H15588   6.795   7.278   1.520 -3.0967 -1.3124  1.3260
  876MOL0     H15589   6.772   7.406   1.651 -1.1939 -0.7471 -0.7970
  876MOL0     H15590   6.817   7.099   1.671 -0.1063 -0.9521  2.5957
  876MOL0     H15591   6.837   7.202   1.804  0.9871  0.8571 -1.2068
  876MOL0     H15592   6.595   7.170   1.616 -0.5293  2.0691  0.2102
  876MOL0     H15593   6.586   7.265   1.761 -1.3284 -1.4671  2.6729
  876MOL0     H15594   6.399   7.197   1.892  2.1579 -1.0670 -0.7394
  876MOL0     H15595   6.172   7.127   1.921  0.4762 -1.1461  0.2306
  876MOL0     H15596   5.762   6.961   1.789 -1.0700  0.1441  1.3490
  876MOL0     H15597   5.545   6.880   1.790 -1.3401 -0.7942 -0.3404
  876MOL0     H15598   5.344   6.778   1.702  0.2566 -0.3891 -1.7362
  876MOL0     H15599   5.406   6.698   1.861  1.0306 -0.6901 -0.1667
  876MOL0     H15600   5.265   6.508   1.813 -0.4832  0.7545  1.1572
  876MOL0     H15601   5.215   6.587   1.664 -1.0222 -1.5312 -0.0850
  876MOL0     H15602   5.114   6.771   1.788 -3.5144 -1.8159 -1.6654
  876MOL0     H15603   5.164   6.695   1.946  2.2043  0.4385 -0.2522
  876MOL0     H15604   5.020   6.534   1.734  0.9951 -0.7635  0.8438
  876MOL0     H15605   5.013   6.509   1.897  1.2627 -1.2751 -1.6702
  876MOL0     H15606   4.797   6.605   1.776  0.7039  0.2119 -0.4672
  876MOL0     H15607   4.896   6.740   1.739 -1.6910 -0.0964 -1.3206
  876MOL0     H15608   4.755   6.815   1.909 -2.6669 -2.2431  0.7123
  876MOL0     H15609   4.930   6.799   1.976  1.1654  0.4949 -5.0836
  876MOL0     H15610   4.672   6.636   2.029 -0.4837  1.9924  0.1138
  876MOL0     H15611   4.840   6.596   2.090 -0.2587 -0.5663 -0.3539
  876MOL0     H15612   4.677   6.852   2.133  0.4641 -1.1046  0.1817
  876MOL0     H15613   4.831   6.811   2.212 -0.6932  1.9449  1.4844
  876MOL0     H15614   5.685   6.502   1.632  0.8796  0.6073 -1.9154
  876MOL0     H15615   5.910   6.590   1.628  1.3171 -0.3443  2.4405
  876MOL0     H15616   6.245   6.790   1.654 -0.7746 -0.7374  1.1840
  876MOL0     H15617   6.489   6.847   1.659  1.9883  0.9544  0.9676
  876MOL0     H15618   8.205   7.135   1.283 -0.0267 -0.0170 -1.4770
  876MOL0     H15619   8.384   6.973   1.271 -0.1104  1.1265  2.3083
  876MOL0     H15620   8.815   6.949   1.319  0.4982 -0.4295  1.0642
  876MOL0     H15621   9.024   6.821   1.353  1.9692  0.6612 -2.0043
  876MOL0     H15622   9.146   6.601   1.441 -0.6191 -1.4842 -0.5001
  876MOL0     H15623   9.215   6.691   1.292 -3.1397  0.9913 -1.5694
  876MOL0     H15624   9.386   6.553   1.371  1.2310 -0.5631 -2.5731
  876MOL0     H15625   9.270   6.416   1.396  0.2840 -1.4925 -1.9300
  876MOL0     H15626   9.386   6.551   1.149 -0.2280  0.7254  1.9071
  876MOL0     H15627   9.252   6.433   1.150  0.7029 -1.8699 -0.8991
  876MOL0     H15628   9.499   6.356   1.086  1.2617  2.6322  0.7721
  876MOL0     H15629   9.525   6.365   1.262 -0.8069 -0.2061  0.9542
  876MOL0     H15630   9.277   6.009   1.209 -1.5413  0.3928  0.2617
  876MOL0     H15631   8.886   6.512   1.094 -0.4841  0.5460 -0.6791
  876MOL0     H15632   8.665   6.636   1.058 -0.0029 -1.1790 -0.0884
  877MOL0     O15633   6.382   2.620   1.616 -1.5264  0.2225 -0.8628
  877MOL0     C15634   6.465   2.645   1.529 -0.3531  0.3044 -0.0664
  877MOL0     O15635   6.441   2.638   1.394 -0.4662 -0.4121 -0.3974
  877MOL0     C15636   6.311   2.601   1.347  0.2303  0.3893 -0.2210
  877MOL0     C15637   6.260   2.473   1.304 -0.1450  0.4452  0.3195
  877MOL0     C15638   6.126   2.458   1.266 -0.0487 -0.6015  0.0664
  877MOL0     C15639   6.040   2.574   1.264  0.1006  0.4969  0.0736
  877MOL0     O15640   5.914   2.551   1.227  0.4340 -0.2357  0.1608
  877MOL0     C15641   5.803   2.643   1.267  0.0460 -0.2564  0.0358
  877MOL0     C15642   5.678   2.602   1.183 -0.2756  0.0125 -0.9873
  877MOL0     C15643   5.568   2.717   1.183 -0.6702  0.1212  0.4845
  877MOL0     C15644   5.458   2.686   1.286  0.1334 -1.1347 -1.3464
  877MOL0     C15645   5.365   2.810   1.292 -0.7798 -0.5931 -0.2455
  877MOL0     C15646   5.234   2.804   1.214  0.2602  0.8884 -0.3709
  877MOL0     C15647   5.150   2.694   1.272 -0.4056  0.1499 -0.6402
  877MOL0     C15648   5.003   2.694   1.215  0.5008  0.0847  0.8346
  877MOL0     N15649   4.908   2.628   1.310  0.0772  0.6058 -0.1615
  877MOL0     C15650   4.853   2.690   1.418 -0.7816 -0.6692  0.4824
  877MOL0     C15651   4.789   2.586   1.486 -0.0964 -1.0381  0.0561
  877MOL0     C15652   4.723   2.608   1.615  1.0094 -0.4352 -0.1116
  877MOL0     C15653   4.581   2.680   1.585 -0.1573  0.6670 -0.5359
  877MOL0     C15654   4.489   2.613   1.478 -0.1416 -0.3520 -0.3090
  877MOL0     C15655   4.355   2.677   1.502 -0.5509 -0.2868 -0.5746
  877MOL0     O15656   4.275   2.693   1.385 -0.3485  0.4288 -0.0989
  877MOL0     C15657   4.162   2.770   1.406 -1.2302  0.3379 -0.5236
  877MOL0     C15658   4.065   2.760   1.306 -0.5844 -0.7213  0.4887
  877MOL0     C15659   3.939   2.821   1.321  0.6943  0.6303 -0.2925
  877MOL0     C15660   3.907   2.880   1.445 -0.1066 -0.5487  0.5019
  877MOL0     C15661   3.776   2.952   1.459  0.3428 -0.1057 -0.0540
  877MOL0     O15662   3.706   2.984   1.345  0.3151 -0.2961 -0.2668
  877MOL0     C15663   3.580   3.027   1.365 -0.4926  0.0207  0.3065
  877MOL0     C15664   3.547   3.154   1.320  0.1771 -0.4201 -0.5959
  877MOL0     C15665   3.417   3.205   1.336  0.1953 -0.3186 -0.6295
  877MOL0     C15666   3.314   3.135   1.405 -1.4780  0.2769  0.9316
  877MOL0     O15667   3.187   3.176   1.418 -0.3941  0.0476 -0.1735
  877MOL0     C15668   3.152   3.303   1.369  0.0824  0.1434  0.2685
  877MOL0     C15669   2.996   3.324   1.365 -0.5520  1.3627  0.0832
  877MOL0     C15670   2.908   3.195   1.330 -0.0082 -0.5673  0.0263
  877MOL0     C15671   2.764   3.232   1.329 -0.1293  0.3185  0.4744
  877MOL0     C15672   2.679   3.116   1.278  0.2421  0.4444 -0.5119
  877MOL0     C15673   2.532   3.160   1.268 -0.1299 -0.0565  0.4935
  877MOL0     C15674   2.457   3.146   1.406 -0.4204  0.2199  0.7401
  877MOL0     C15675   2.425   2.998   1.446 -0.4882 -0.0481  0.2382
  877MOL0    Cl15676   2.343   2.999   1.608  0.1831  0.2575 -0.1442
  877MOL0     C15677   3.344   3.005   1.449 -0.3386  0.2100  0.3169
  877MOL0     C15678   3.477   2.955   1.425  0.2885  1.2172  0.2878
  877MOL0     O15679   3.740   2.976   1.572 -0.0714  0.6883  0.1928
  877MOL0     C15680   4.007   2.883   1.542  0.0311 -0.3051  0.3539
  877MOL0     C15681   4.121   2.818   1.526 -0.8257 -0.2663  0.0312
  877MOL0     N15682   4.809   2.473   1.410  0.4742  0.7161  0.0717
  877MOL0     N15683   4.883   2.500   1.312  0.5950 -0.1214  0.0250
  877MOL0     C15684   6.093   2.699   1.297 -0.6643  0.4515  0.3803
  877MOL0     C15685   6.222   2.708   1.332  0.0969  0.3443  0.1967
  877MOL0     C15686   6.605   2.687   1.565  0.1023  0.2119  0.8467
  877MOL0     C15687   6.691   2.739   1.469 -0.0592 -0.6875 -0.3120
  877MOL0     C15688   6.820   2.781   1.496  0.2360 -0.1470 -0.0060
  877MOL0     C15689   6.859   2.779   1.631  0.0445  0.1740 -0.2513
  877MOL0     O15690   6.973   2.831   1.681 -0.1311  1.0457 -0.5946
  877MOL0     C15691   7.077   2.865   1.597 -0.0355  0.1208  0.1936
  877MOL0     C15692   7.175   2.942   1.693 -0.1827 -0.4790 -0.1684
  877MOL0     C15693   7.270   3.044   1.623 -0.4345 -0.5250  0.1979
  877MOL0     C15694   7.381   2.983   1.532  0.1535 -0.1498  0.5069
  877MOL0     C15695   7.486   2.931   1.619  0.0917  0.8024  0.8025
  877MOL0     C15696   7.577   2.885   1.696 -0.0330 -0.4874  0.4668
  877MOL0     C15697   6.774   2.725   1.724  0.4934 -0.0518 -0.7590
  877MOL0     C15698   6.643   2.686   1.701 -0.4469  0.1636  0.5655
  877MOL0     H15699   6.332   2.391   1.301  1.3994  1.5498  3.0782
  877MOL0     H15700   6.087   2.360   1.240 -1.2272 -0.0574 -0.2882
  877MOL0     H15701   5.816   2.750   1.254  2.4646 -0.0874  2.8343
  877MOL0     H15702   5.789   2.632   1.375  1.6671  1.9529  0.5398
  877MOL0     H15703   5.640   2.510   1.227 -0.8235  0.5915 -0.2133
  877MOL0     H15704   5.720   2.582   1.084 -2.0783 -0.1858 -1.7440
  877MOL0     H15705   5.528   2.723   1.081  0.0168 -1.4102  0.0958
  877MOL0     H15706   5.615   2.813   1.205 -3.5554  1.9235 -0.6086
  877MOL0     H15707   5.415   2.587   1.266 -1.0933 -1.4403  2.1429
  877MOL0     H15708   5.505   2.663   1.382  1.5568  0.6525 -1.5627
  877MOL0     H15709   5.423   2.893   1.251 -1.4614 -0.0724 -0.1716
  877MOL0     H15710   5.335   2.833   1.395 -0.5599  2.0273 -0.6958
  877MOL0     H15711   5.259   2.780   1.111  2.4767  2.6567 -0.3262
  877MOL0     H15712   5.176   2.896   1.218 -1.2001  0.0119 -0.6237
  877MOL0     H15713   5.195   2.595   1.265 -0.7441 -0.2175  1.6581
  877MOL0     H15714   5.135   2.709   1.379  0.8804  1.4437 -0.6218
  877MOL0     H15715   4.996   2.657   1.112 -0.2777  2.0378  0.1244
  877MOL0     H15716   4.972   2.799   1.207 -0.2837 -0.1412  0.8759
  877MOL0     H15717   4.874   2.792   1.446 -0.5198 -0.9875  1.4870
  877MOL0     H15718   4.791   2.658   1.685  0.5666  0.0482 -0.0208
  877MOL0     H15719   4.712   2.509   1.661 -2.7027  0.0367  0.2919
  877MOL0     H15720   4.605   2.778   1.543 -1.9490  0.3022 -2.5773
  877MOL0     H15721   4.532   2.695   1.681  0.8795  0.6658  0.0099
  877MOL0     H15722   4.522   2.630   1.375 -0.1061 -3.3219 -0.8763
  877MOL0     H15723   4.482   2.505   1.495 -0.0861 -0.4245 -0.7387
  877MOL0     H15724   4.371   2.771   1.554  0.6679 -2.0231  2.4246
  877MOL0     H15725   4.303   2.614   1.575  0.1060 -0.6031 -0.3740
  877MOL0     H15726   4.086   2.707   1.214 -1.2742 -0.1794  0.0006
  877MOL0     H15727   3.860   2.811   1.248  0.5536  2.1171 -0.3692
  877MOL0     H15728   3.629   3.211   1.278 -0.1645  2.7900  2.5784
  877MOL0     H15729   3.395   3.305   1.302 -0.9148 -0.6665 -0.9913
  877MOL0     H15730   3.180   3.308   1.263 -1.0235 -1.6085 -0.1560
  877MOL0     H15731   3.201   3.378   1.430  1.5678 -0.3299 -0.2917
  877MOL0     H15732   2.988   3.408   1.296  0.3194  0.8276 -0.6818
  877MOL0     H15733   2.964   3.348   1.467 -3.6141 -0.8903 -0.2165
  877MOL0     H15734   2.923   3.113   1.401 -0.4031 -0.1594  0.5851
  877MOL0     H15735   2.939   3.152   1.234 -0.0016  2.8668 -1.6723
  877MOL0     H15736   2.726   3.266   1.426 -0.2631  2.2905 -0.2225
  877MOL0     H15737   2.762   3.321   1.265 -0.0436 -0.5713 -0.7954
  877MOL0     H15738   2.694   3.028   1.341 -2.3644 -1.0257 -1.7485
  877MOL0     H15739   2.721   3.089   1.181  2.3640 -1.7049  0.8705
  877MOL0     H15740   2.485   3.099   1.190  1.6846  0.7760 -1.3317
  877MOL0     H15741   2.522   3.260   1.226 -1.4817  0.9909  3.1269
  877MOL0     H15742   2.515   3.185   1.491 -0.8761  0.1467  1.0896
  877MOL0     H15743   2.361   3.197   1.391 -0.7183 -1.0141 -2.0969
  877MOL0     H15744   2.511   2.931   1.459 -1.5916 -1.9989 -1.9052
  877MOL0     H15745   2.363   2.959   1.365  2.2429  3.0756 -3.7864
  877MOL0     H15746   3.268   2.938   1.488  0.6564 -0.7745  0.6301
  877MOL0     H15747   3.493   2.851   1.452  1.4336  1.0161 -1.0536
  877MOL0     H15748   3.983   2.922   1.640  0.5131  0.0897  0.3127
  877MOL0     H15749   4.178   2.822   1.618 -0.6720  3.3766 -0.0663
  877MOL0     H15750   6.037   2.791   1.292  1.0319  1.5345  0.5471
  877MOL0     H15751   6.263   2.807   1.350  2.3836  0.3814 -3.8613
  877MOL0     H15752   6.657   2.719   1.368 -0.5132 -1.1746 -0.0694
  877MOL0     H15753   6.889   2.814   1.420  0.0734 -1.0719 -0.5741
  877MOL0     H15754   7.036   2.924   1.515 -1.7880 -2.6094 -1.0233
  877MOL0     H15755   7.138   2.785   1.553  0.4747  0.4365  0.3162
  877MOL0     H15756   7.121   2.993   1.774  0.4259  0.1069 -0.1274
  877MOL0     H15757   7.236   2.864   1.740  1.6327  0.4481 -0.9013
  877MOL0     H15758   7.305   3.113   1.700 -1.3896  1.2714 -0.8921
  877MOL0     H15759   7.214   3.108   1.554 -0.7183 -1.4313 -0.4304
  877MOL0     H15760   7.331   2.910   1.468  0.2990  1.1968 -1.2060
  877MOL0     H15761   7.424   3.060   1.468 -0.7080 -1.0102 -1.1536
  877MOL0     H15762   7.655   2.872   1.767  0.6350  2.0743  0.3219
  877MOL0     H15763   6.804   2.725   1.829 -0.8698  1.4270 -0.3423
  877MOL0     H15764   6.574   2.663   1.782  0.2405  1.1103  1.4456
  878MOL0     O15765   2.461  10.229  10.010  0.5460  0.3257  0.7030
  878MOL0     C15766   2.541  10.198   9.923  0.4593 -0.0271 -0.2560
  878MOL0     O15767   2.507  10.179   9.794 -1.0855 -0.2625  0.7301
  878MOL0     C15768   2.378  10.182   9.751 -0.0152 -0.8311  0.2766
  878MOL0     C15769   2.315  10.304   9.744 -0.0226 -0.0034 -1.4128
  878MOL0     C15770   2.188  10.321   9.714  1.0347 -0.3332 -0.3511
  878MOL0     C15771   2.100  10.213   9.705  0.2928  0.5761  0.3264
  878MOL0     O15772   1.966  10.215   9.697  0.1960  0.5300  0.2101
  878MOL0     C15773   1.918  10.329   9.629  0.5395  0.2380 -0.1866
  878MOL0     C15774   1.770  10.320   9.598 -0.9294  0.0961 -0.5501
  878MOL0     C15775   1.745  10.195   9.505 -0.4195  0.9741  0.1225
  878MOL0     C15776   1.681  10.077   9.582  0.3099 -0.7197  0.3078
  878MOL0     C15777   1.716   9.949   9.496  0.6477 -0.8393  0.5377
  878MOL0     C15778   1.642   9.944   9.355 -0.4901 -0.2200 -0.0933
  878MOL0     C15779   1.487   9.940   9.363  0.2964 -0.8429 -0.1440
  878MOL0     C15780   1.445   9.811   9.421  0.1555  1.1135 -0.7711
  878MOL0     N15781   1.299   9.809   9.422  0.3750 -0.3796 -0.4320
  878MOL0     C15782   1.223   9.852   9.527  0.0087  0.3686  0.7296
  878MOL0     C15783   1.097   9.825   9.479 -0.2682  0.3437 -0.5661
  878MOL0     C15784   0.977   9.864   9.560 -0.4657 -1.0050  1.2319
  878MOL0     C15785   0.935   9.751   9.653  0.0128 -0.4898 -0.3011
  878MOL0     C15786   0.790   9.764   9.686 -0.2452  1.0202 -0.9148
  878MOL0     C15787   0.745   9.635   9.762 -1.1775  0.2903  0.4118
  878MOL0     O15788   0.781   9.658   9.894 -0.0904  0.6384  0.1164
  878MOL0     C15789   0.676   9.653   9.981  0.2008 -0.5058  0.4623
  878MOL0     C15790   0.570   9.738   9.994  0.6182  0.7243 -0.5031
  878MOL0     C15791   0.462   9.717  10.078 -0.3807  0.3708  0.3648
  878MOL0     C15792   0.455   9.603  10.163  0.7279 -0.0553  0.7645
  878MOL0     C15793   0.332   9.601  10.245 -0.3624  0.7887 -0.3925
  878MOL0     O15794   0.214   9.669  10.208  0.0616  0.2163 -0.2812
  878MOL0     C15795   0.109   9.673  10.296 -0.0188 -0.0784 -0.2451
  878MOL0     C15796   0.078   9.572  10.387  0.8555  0.7332  0.0839
  878MOL0     C15797  -0.028   9.598  10.476  0.2454 -0.5267 -0.6719
  878MOL0     C15798  -0.108   9.708  10.485 -0.2643 -0.2200  0.8873
  878MOL0     O15799  -0.218   9.725  10.568 -0.1629  0.2034 -0.2726
  878MOL0     C15800  -0.278   9.607  10.639 -0.0329  0.0900  0.2038
  878MOL0     C15801  -0.405   9.649  10.688  0.0908  0.1358 -0.0498
  878MOL0     C15802  -0.389   9.752  10.812  0.4422 -0.0210 -0.1540
  878MOL0     C15803  -0.527   9.806  10.841 -0.1498 -0.0609 -0.3723
  878MOL0     C15804  -0.519   9.892  10.967  0.3757 -0.0409  0.3286
  878MOL0     C15805  -0.644   9.967  11.004 -0.5386 -0.4363  0.3082
  878MOL0     C15806  -0.619  10.078  11.109  0.4442  0.3434  0.1735
  878MOL0     C15807  -0.745  10.130  11.174 -0.1085 -0.4096 -0.7709
  878MOL0    Cl15808  -0.702  10.268  11.277  0.1670  0.0358 -0.0846
  878MOL0     C15809  -0.072   9.808  10.390  0.0125  0.1602 -0.2990
  878MOL0     C15810   0.035   9.790  10.304  0.2002 -0.3371 -0.3211
  878MOL0     O15811   0.357   9.542  10.349  0.0506  0.2132 -0.8310
  878MOL0     C15812   0.567   9.518  10.162  0.1367  0.5874  0.0582
  878MOL0     C15813   0.667   9.539  10.069  0.3160 -0.0366  0.5792
  878MOL0     N15814   1.102   9.764   9.348 -0.1643  0.1634  0.0913
  878MOL0     N15815   1.229   9.756   9.316  0.0196 -0.0420  0.1242
  878MOL0     C15816   2.160  10.082   9.707  0.4530 -0.4099 -0.7781
  878MOL0     C15817   2.303  10.069   9.729  0.8367 -0.2143 -0.0623
  878MOL0     C15818   2.681  10.186   9.951 -0.7777  0.1218 -0.2106
  878MOL0     C15819   2.729  10.203  10.082 -0.3196  0.8898 -0.0920
  878MOL0     C15820   2.860  10.182  10.111  0.1976 -0.3012 -0.2826
  878MOL0     C15821   2.956  10.171  10.016 -0.3672 -0.1128 -0.7358
  878MOL0     O15822   3.084  10.147  10.040 -0.1863 -0.2775  1.0348
  878MOL0     C15823   3.126  10.093  10.162 -0.3805 -0.2337 -0.6118
  878MOL0     C15824   3.281  10.083  10.164 -0.0389  0.0491  0.5151
  878MOL0     C15825   3.326  10.030  10.297  0.1448  0.0791  0.1833
  878MOL0     C15826   3.473  10.068  10.326 -0.6548  0.5913 -0.3589
  878MOL0     C15827   3.557  10.040  10.212 -0.4996 -0.0826  0.3429
  878MOL0     C15828   3.627  10.047  10.115 -0.2018  0.2913  0.1687
  878MOL0     C15829   2.918  10.176   9.887 -0.3850 -0.6820 -0.2244
  878MOL0     C15830   2.783  10.183   9.851  0.8268  0.0553  0.1134
  878MOL0     H15831   2.376  10.384   9.784 -0.3351  0.9274 -2.7282
  878MOL0     H15832   2.144  10.421   9.716  3.8254  1.0119 -0.2736
  878MOL0     H15833   1.976  10.335   9.537 -0.8614 -2.3056 -1.3470
  878MOL0     H15834   1.934  10.419   9.689 -0.2282 -1.2283  2.4096
  878MOL0     H15835   1.732  10.414   9.558 -3.7808 -1.2309 -1.2477
  878MOL0     H15836   1.724  10.311   9.697  1.4829 -1.1817  0.5479
  878MOL0     H15837   1.837  10.158   9.458 -0.8438  0.0219  0.0086
  878MOL0     H15838   1.681  10.231   9.424  0.6708  0.1453 -1.1585
  878MOL0     H15839   1.728  10.067   9.680  1.3164  2.8271  0.3213
  878MOL0     H15840   1.576  10.103   9.597  0.9696  1.0454  2.2876
  878MOL0     H15841   1.685   9.867   9.561 -0.9618 -0.0366  0.8322
  878MOL0     H15842   1.825   9.939   9.488  1.0300  2.4638  0.0396
  878MOL0     H15843   1.678   9.851   9.309  1.8316 -0.4905  2.0675
  878MOL0     H15844   1.672  10.025   9.288  1.0738 -0.1200  0.6878
  878MOL0     H15845   1.456  10.023   9.427  2.2038 -1.2858  1.4539
  878MOL0     H15846   1.443   9.955   9.264  0.1835 -0.0876  0.0214
  878MOL0     H15847   1.480   9.808   9.524 -0.8095 -3.3978 -0.3591
  878MOL0     H15848   1.485   9.722   9.370 -0.6728  1.2625 -1.7213
  878MOL0     H15849   1.257   9.886   9.625 -1.3554  1.1090  0.9768
  878MOL0     H15850   0.895   9.898   9.496  0.6531 -1.4156 -0.4730
  878MOL0     H15851   1.004   9.953   9.618  1.7270 -1.0901  0.4492
  878MOL0     H15852   0.994   9.764   9.744  1.0034  2.0758 -1.2299
  878MOL0     H15853   0.953   9.652   9.609 -0.3578 -1.0157  0.6896
  878MOL0     H15854   0.760   9.850   9.746 -2.5625 -0.0407 -0.4210
  878MOL0     H15855   0.733   9.763   9.593  2.0758 -0.9962 -2.4130
  878MOL0     H15856   0.792   9.544   9.723  0.6596  1.7042 -0.8458
  878MOL0     H15857   0.637   9.625   9.747 -1.2198  1.5832 -0.2181
  878MOL0     H15858   0.581   9.834   9.944  3.3756  0.7205 -0.0703
  878MOL0     H15859   0.386   9.795  10.079  0.6548  1.3931  0.9163
  878MOL0     H15860   0.126   9.476  10.370 -2.5139 -0.7949 -1.6133
  878MOL0     H15861  -0.056   9.509  10.531 -0.8630  0.3214  0.1655
  878MOL0     H15862  -0.211   9.579  10.721 -0.2649 -1.5120 -0.1167
  878MOL0     H15863  -0.285   9.514  10.582 -0.3459  1.0743 -1.4344
  878MOL0     H15864  -0.473   9.565  10.706 -1.3240  1.6076  2.0160
  878MOL0     H15865  -0.457   9.701  10.607  1.0430  0.8255 -0.2404
  878MOL0     H15866  -0.324   9.833  10.778 -2.5504  2.7051  0.1524
  878MOL0     H15867  -0.356   9.707  10.906  4.8764  3.3171  0.2387
  878MOL0     H15868  -0.567   9.862  10.756 -1.0743 -3.3000 -2.2366
  878MOL0     H15869  -0.595   9.722  10.858  0.0620 -0.4601 -1.4418
  878MOL0     H15870  -0.436   9.961  10.949  0.1006 -0.3891 -2.7853
  878MOL0     H15871  -0.484   9.826  11.047 -0.2905  0.4122  1.0014
  878MOL0     H15872  -0.720   9.897  11.040 -0.2849 -1.0167 -0.2556
  878MOL0     H15873  -0.673  10.017  10.911  0.6980  1.1728  0.7307
  878MOL0     H15874  -0.551  10.045  11.188  1.8060  2.6032  0.0093
  878MOL0     H15875  -0.565  10.165  11.072 -0.5220  1.1599  0.6372
  878MOL0     H15876  -0.792  10.058  11.242 -0.1503  1.8872  1.7916
  878MOL0     H15877  -0.815  10.176  11.104 -1.6005 -0.2243  0.7628
  878MOL0     H15878  -0.130   9.899  10.384  1.2555  1.0102  0.2629
  878MOL0     H15879   0.063   9.875  10.242 -3.3678  0.4534 -1.0467
  878MOL0     H15880   0.569   9.428  10.223  0.7057 -0.9178 -2.0767
  878MOL0     H15881   0.749   9.468  10.059  0.6788  0.3122  1.0372
  878MOL0     H15882   2.104   9.990   9.701  2.3804 -1.6601 -0.4909
  878MOL0     H15883   2.364   9.979   9.736 -0.9860 -1.4944  0.3291
  878MOL0     H15884   2.659  10.225  10.163  1.9199  1.3867  1.8241
  878MOL0     H15885   2.891  10.161  10.213 -0.3437 -4.0795 -0.7222
  878MOL0     H15886   3.071  10.001  10.183 -0.6308  0.1071  0.2856
  878MOL0     H15887   3.100  10.165  10.241  1.1532  2.8376 -2.6760
  878MOL0     H15888   3.313  10.022  10.080 -0.7532  3.0684 -2.1667
  878MOL0     H15889   3.317  10.186  10.156 -0.1691  0.0511 -0.1066
  878MOL0     H15890   3.312   9.922  10.286 -0.9707  0.0642  1.5728
  878MOL0     H15891   3.273  10.064  10.386 -1.3590 -0.1288 -0.5987
  878MOL0     H15892   3.480  10.170  10.364  1.7789 -0.3957  2.2150
  878MOL0     H15893   3.518  10.019  10.413  1.7347 -0.2781 -1.9890
  878MOL0     H15894   3.682  10.059  10.024 -0.5811 -0.4749 -0.1745
  878MOL0     H15895   3.000  10.171   9.816  1.0168  1.7223  1.1051
  878MOL0     H15896   2.764  10.179   9.744 -0.2344  4.1035  0.0142
  879MOL0     O15897   5.602   8.183  10.888 -0.6107  0.0992  0.1936
  879MOL0     C15898   5.637   8.066  10.917 -0.5971  0.6753 -0.2913
  879MOL0     O15899   5.542   7.964  10.927 -0.0521  0.0101 -0.7667
  879MOL0     C15900   5.407   7.984  10.900 -0.0971  0.1096  0.5746
  879MOL0     C15901   5.349   7.905  10.802  0.2369  0.0429 -0.1670
  879MOL0     C15902   5.208   7.908  10.778 -0.0262 -1.0258  0.1404
  879MOL0     C15903   5.127   7.996  10.854  0.2665 -0.2621  0.1638
  879MOL0     O15904   4.987   7.981  10.829 -0.6650  0.6298 -0.1845
  879MOL0     C15905   4.899   8.075  10.896 -0.0294 -0.0345  0.2846
  879MOL0     C15906   4.745   8.057  10.884  0.6233  0.6217  0.7519
  879MOL0     C15907   4.700   8.037  10.738  0.6279  0.1617  0.5532
  879MOL0     C15908   4.546   8.069  10.730 -0.0727  0.7664 -0.0258
  879MOL0     C15909   4.516   8.057  10.591  1.1153 -0.2768 -0.1890
  879MOL0     C15910   4.369   8.072  10.568  0.1262 -0.0966 -0.1815
  879MOL0     C15911   4.351   8.067  10.415  1.2170 -0.8258  0.1248
  879MOL0     C15912   4.240   8.163  10.372 -0.0853 -1.1348  0.0548
  879MOL0     N15913   4.108   8.105  10.381  0.3334 -0.0388  0.0577
  879MOL0     C15914   4.042   8.054  10.494 -0.1535  0.6414  0.8697
  879MOL0     C15915   3.923   7.999  10.442 -0.8881  0.2799  0.6086
  879MOL0     C15916   3.834   7.903  10.513 -0.6041 -0.1844  0.0538
  879MOL0     C15917   3.759   7.979  10.615  0.0257 -0.5465  0.7122
  879MOL0     C15918   3.662   8.084  10.569 -0.0277 -0.1373  0.6059
  879MOL0     C15919   3.536   8.014  10.516  0.2885 -0.8735 -0.0766
  879MOL0     O15920   3.433   8.106  10.472  0.3888  0.2382 -0.3769
  879MOL0     C15921   3.317   8.122  10.537 -0.0984  0.0709  0.4900
  879MOL0     C15922   3.297   8.079  10.671 -0.5968 -0.8106 -0.2863
  879MOL0     C15923   3.172   8.074  10.732 -0.0263  0.1826  0.0197
  879MOL0     C15924   3.060   8.121  10.663  0.1083  0.8669  0.3645
  879MOL0     C15925   2.923   8.103  10.718  0.3618  0.5504  0.7713
  879MOL0     O15926   2.908   8.084  10.848 -0.3375 -0.5925 -0.5817
  879MOL0     C15927   2.788   8.059  10.901  0.4163  0.3921  0.5134
  879MOL0     C15928   2.719   8.140  10.995  0.1961 -0.4336 -0.4580
  879MOL0     C15929   2.592   8.100  11.036  0.7235  0.0253 -0.5837
  879MOL0     C15930   2.535   7.978  10.998  0.0063  0.6170 -0.0582
  879MOL0     O15931   2.419   7.946  11.059 -0.1219 -0.3408  0.2676
  879MOL0     C15932   2.355   7.830  11.005  0.2852  0.0163 -0.2443
  879MOL0     C15933   2.223   7.804  11.091 -0.4094  0.0747 -1.0011
  879MOL0     C15934   2.160   7.667  11.059  0.5099  0.2110 -0.2187
  879MOL0     C15935   2.031   7.669  11.147 -0.5118 -0.2020  1.1428
  879MOL0     C15936   1.942   7.547  11.105 -0.4316  0.7227 -1.2437
  879MOL0     C15937   1.810   7.568  11.187  0.1781  0.4697  0.0159
  879MOL0     C15938   1.715   7.453  11.168  0.7127 -0.0061  0.4755
  879MOL0     C15939   1.581   7.472  11.233 -0.3370  0.7417 -0.1045
  879MOL0    Cl15940   1.456   7.393  11.140 -0.0058 -0.1268 -0.0542
  879MOL0     C15941   2.607   7.896  10.910  0.9969 -0.3526 -0.4347
  879MOL0     C15942   2.735   7.934  10.866 -0.4468  0.2926  0.1541
  879MOL0     O15943   2.832   8.080  10.636  0.5451 -0.3702 -0.1241
  879MOL0     C15944   3.073   8.167  10.532 -0.2235  0.2134 -0.2069
  879MOL0     C15945   3.205   8.164  10.472  0.5321  0.3076  0.3997
  879MOL0     N15946   3.926   8.015  10.303  0.5902 -0.2085  0.3641
  879MOL0     N15947   4.037   8.075  10.270 -0.1182 -0.0503 -0.5953
  879MOL0     C15948   5.186   8.080  10.946  0.5258 -0.7138 -0.1959
  879MOL0     C15949   5.325   8.073  10.974 -0.1351  0.3328 -0.3657
  879MOL0     C15950   5.776   8.040  10.961 -0.8976  0.2268 -1.0763
  879MOL0     C15951   5.875   8.139  10.968  0.0109  0.4221  0.6168
  879MOL0     C15952   6.010   8.112  10.982  0.7679  0.2891  0.3416
  879MOL0     C15953   6.051   7.974  10.989 -0.2597  0.0972 -0.5309
  879MOL0     O15954   6.189   7.953  10.995  0.3656  0.3468 -0.1377
  879MOL0     C15955   6.244   7.822  11.011 -0.0130  0.6897 -0.2527
  879MOL0     C15956   6.392   7.853  11.023  0.2873 -0.6005 -0.6923
  879MOL0     C15957   6.489   7.724  11.028 -0.6943 -0.8165 -0.1440
  879MOL0     C15958   6.635   7.778  10.988 -0.3511  0.6344  0.3865
  879MOL0     C15959   6.729   7.664  10.976 -1.0345 -1.2812 -1.1940
  879MOL0     C15960   6.808   7.574  10.972 -0.0151 -0.5013  0.1997
  879MOL0     C15961   5.951   7.873  11.003 -0.2107  0.2981 -0.1994
  879MOL0     C15962   5.815   7.908  10.994  0.3466  0.2104 -0.1523
  879MOL0     H15963   5.417   7.845  10.743  0.0771 -2.0989  1.6877
  879MOL0     H15964   5.153   7.857  10.700  1.0115  0.1179 -1.4030
  879MOL0     H15965   4.911   8.171  10.845  1.6206 -1.7014 -2.7094
  879MOL0     H15966   4.916   8.087  11.004 -0.5237 -0.9229  0.4673
  879MOL0     H15967   4.694   8.141  10.932 -1.0289 -0.0818  0.2813
  879MOL0     H15968   4.723   7.968  10.944  3.8759 -0.3579  0.7356
  879MOL0     H15969   4.733   7.938  10.706  0.6615  0.1658  0.5753
  879MOL0     H15970   4.754   8.114  10.682  0.8096 -0.2937  0.0951
  879MOL0     H15971   4.499   7.991  10.791  1.0751  1.8465  2.3918
  879MOL0     H15972   4.526   8.169  10.770  2.1883  2.0679 -1.9381
  879MOL0     H15973   4.542   7.958  10.553 -2.4668 -1.4112 -0.0280
  879MOL0     H15974   4.574   8.133  10.537 -1.1797  1.1537 -0.7808
  879MOL0     H15975   4.347   8.169  10.614  2.1005  0.4396 -0.2777
  879MOL0     H15976   4.300   8.000  10.615 -0.9700  2.1362  1.9081
  879MOL0     H15977   4.445   8.091  10.366  0.9445 -0.7257 -0.3565
  879MOL0     H15978   4.329   7.967  10.378 -2.5339  0.1275 -0.6911
  879MOL0     H15979   4.257   8.193  10.269  0.8163 -0.9963  0.2370
  879MOL0     H15980   4.242   8.257  10.428  1.9646 -0.8005 -0.5221
  879MOL0     H15981   4.091   8.055  10.591  1.4461  0.0551  0.1079
  879MOL0     H15982   3.892   7.824  10.562 -0.1318 -1.2700 -2.1357
  879MOL0     H15983   3.775   7.861  10.431  1.4868  0.7420 -2.0604
  879MOL0     H15984   3.834   8.044  10.662 -0.1702  0.2851 -0.0909
  879MOL0     H15985   3.705   7.914  10.683 -0.2377  1.0568  2.1177
  879MOL0     H15986   3.637   8.150  10.652 -1.5207  0.1523 -0.0302
  879MOL0     H15987   3.698   8.133  10.478 -0.7066 -3.2315 -1.4942
  879MOL0     H15988   3.495   7.946  10.592 -0.8890 -0.6459 -0.4850
  879MOL0     H15989   3.551   7.949  10.429  0.6358 -0.7528 -0.1050
  879MOL0     H15990   3.375   8.029  10.728  1.7497  0.2782 -2.3752
  879MOL0     H15991   3.164   8.033  10.833 -0.3496 -1.1523 -0.5220
  879MOL0     H15992   2.761   8.230  11.038 -2.1992  1.8092 -2.4968
  879MOL0     H15993   2.546   8.177  11.098  1.4331  0.4712 -0.5964
  879MOL0     H15994   2.412   7.737  11.018 -1.1735 -0.6972  1.6298
  879MOL0     H15995   2.332   7.853  10.901  1.0917  1.7790 -0.0544
  879MOL0     H15996   2.145   7.878  11.071 -0.7065 -0.3387 -1.3861
  879MOL0     H15997   2.261   7.803  11.194  1.2629 -2.1317 -1.5665
  879MOL0     H15998   2.231   7.586  11.075 -1.5217 -1.6178  0.0630
  879MOL0     H15999   2.127   7.659  10.955  2.4104 -2.4003 -0.7248
  879MOL0     H16000   2.043   7.667  11.255  0.7779 -0.1690  1.0078
  879MOL0     H16001   1.973   7.759  11.124 -2.1905 -1.4839  0.0888
  879MOL0     H16002   1.995   7.455  11.132 -1.4100  0.1355 -1.2878
  879MOL0     H16003   1.918   7.541  10.998  1.0211 -2.0671 -1.5176
  879MOL0     H16004   1.775   7.670  11.167  0.4796  1.1404  2.5178
  879MOL0     H16005   1.827   7.588  11.293  0.8815  2.8112 -0.4825
  879MOL0     H16006   1.695   7.455  11.060  1.9415 -0.7202  0.2090
  879MOL0     H16007   1.761   7.356  11.190 -0.3193 -0.4028  0.9301
  879MOL0     H16008   1.566   7.580  11.240  1.1672  1.0669 -1.3434
  879MOL0     H16009   1.585   7.435  11.336 -2.3818  0.2091 -0.1801
  879MOL0     H16010   2.574   7.796  10.884  1.0338 -0.4699 -0.0495
  879MOL0     H16011   2.796   7.863  10.811  0.7007  0.2228  1.4511
  879MOL0     H16012   2.993   8.208  10.471  0.1455  0.6894 -0.3873
  879MOL0     H16013   3.207   8.181  10.365 -0.3412  1.6837  0.5749
  879MOL0     H16014   5.129   8.143  11.014  3.2029  1.4917  0.1991
  879MOL0     H16015   5.376   8.124  11.055  1.4664 -2.6173  0.6297
  879MOL0     H16016   5.855   8.243  10.945 -0.0661 -0.0092 -1.4527
  879MOL0     H16017   6.083   8.190  10.967  2.1601 -0.8359  1.0061
  879MOL0     H16018   6.236   7.765  10.918 -1.3096 -0.7710  0.7031
  879MOL0     H16019   6.202   7.752  11.084 -1.5853  0.3150 -1.4654
  879MOL0     H16020   6.413   7.912  10.934 -3.3115 -1.0091 -1.9945
  879MOL0     H16021   6.404   7.910  11.116 -0.9121  1.5513 -1.7797
  879MOL0     H16022   6.461   7.662  10.942 -1.2043  1.4971 -1.7503
  879MOL0     H16023   6.487   7.671  11.123  1.1117  0.3930  0.6452
  879MOL0     H16024   6.624   7.831  10.893  3.2664  0.8434 -0.0476
  879MOL0     H16025   6.661   7.856  11.060  1.3023  0.1426  0.3649
  879MOL0     H16026   6.869   7.486  10.977  1.2671  0.4189  2.4934
  879MOL0     H16027   5.983   7.770  11.013 -1.9793 -0.1138  2.3901
  879MOL0     H16028   5.741   7.829  10.991  0.2764  0.1020  2.3448
  880MOL0     O16029   8.111   1.796   8.037  0.4763  0.2239  0.2133
  880MOL0     C16030   8.193   1.730   7.977  0.1973 -0.2445  0.3647
  880MOL0     O16031   8.168   1.627   7.903  0.5128 -0.3445 -0.3253
  880MOL0     C16032   8.081   1.531   7.942  0.6738  0.4622 -0.9658
  880MOL0     C16033   8.013   1.472   7.838  0.6506 -0.7542  0.3800
  880MOL0     C16034   7.918   1.367   7.859  0.1724  0.1259 -0.0518
  880MOL0     C16035   7.896   1.314   7.994 -0.1922  0.2722  0.7648
  880MOL0     O16036   7.811   1.217   8.035  0.1805  0.3692 -0.1377
  880MOL0     C16037   7.721   1.155   7.943  0.5681  0.3071  0.9683
  880MOL0     C16038   7.597   1.094   8.014 -0.2707 -0.1147  0.7502
  880MOL0     C16039   7.510   1.016   7.917  0.1975  0.8365 -0.4497
  880MOL0     C16040   7.377   0.955   7.982 -0.5058 -1.0569 -0.5506
  880MOL0     C16041   7.273   0.905   7.886  0.0589 -0.0561 -0.2298
  880MOL0     C16042   7.146   0.875   7.961 -0.0112 -0.1629 -0.2877
  880MOL0     C16043   7.041   0.836   7.859 -0.0181  0.0805 -0.2831
  880MOL0     C16044   6.967   0.942   7.796  0.4391  0.4004  0.0842
  880MOL0     N16045   6.833   0.906   7.730 -0.8011  0.4013  0.5521
  880MOL0     C16046   6.715   0.950   7.777  0.9592  0.2917  0.5190
  880MOL0     C16047   6.621   0.885   7.703  0.0826 -0.3890  0.8036
  880MOL0     C16048   6.479   0.909   7.693 -0.2413  0.0456 -0.2291
  880MOL0     C16049   6.401   0.800   7.758 -0.7178 -0.2326  0.1673
  880MOL0     C16050   6.419   0.806   7.912  0.0361  0.7033  0.2206
  880MOL0     C16051   6.406   0.941   7.983  1.0797  0.1800 -0.5436
  880MOL0     O16052   6.303   1.031   7.928  0.0151 -0.2765  0.1244
  880MOL0     C16053   6.166   1.003   7.939  0.2507 -0.0872  0.7555
  880MOL0     C16054   6.084   1.063   7.842  0.1922 -0.0555  0.2057
  880MOL0     C16055   5.945   1.027   7.842  0.6151 -0.2975 -0.6247
  880MOL0     C16056   5.887   0.953   7.942  0.6480  1.1682  0.0111
  880MOL0     C16057   5.745   0.929   7.948 -0.3739  0.0699  0.0900
  880MOL0     O16058   5.675   0.946   7.828 -0.3344 -0.0937 -0.3698
  880MOL0     C16059   5.540   0.908   7.822  1.0625  0.4517 -0.0898
  880MOL0     C16060   5.486   0.784   7.866  0.1063 -0.0097 -0.4652
  880MOL0     C16061   5.351   0.764   7.866 -0.1062 -0.8963  0.0056
  880MOL0     C16062   5.262   0.857   7.813 -0.5038  0.5438 -0.0245
  880MOL0     O16063   5.128   0.833   7.813  0.0920  0.3673  0.1498
  880MOL0     C16064   5.020   0.916   7.771  0.2910  0.9991  0.6908
  880MOL0     C16065   5.000   0.884   7.619  0.4276  0.0793  0.0594
  880MOL0     C16066   4.862   0.949   7.574 -0.4781  0.0965 -0.4183
  880MOL0     C16067   4.726   0.879   7.596 -0.6846 -0.6302 -0.1867
  880MOL0     C16068   4.602   0.962   7.561 -0.3759  0.2139  0.0525
  880MOL0     C16069   4.477   0.881   7.581 -0.0888  0.4329  0.1003
  880MOL0     C16070   4.351   0.969   7.550 -0.0560 -0.0564 -0.8869
  880MOL0     C16071   4.221   0.891   7.538  0.4637 -0.1748  0.3116
  880MOL0    Cl16072   4.210   0.774   7.668  0.0551 -0.0059  0.1391
  880MOL0     C16073   5.319   0.979   7.775  0.5242  0.4039 -0.1127
  880MOL0     C16074   5.451   1.008   7.773 -1.0597  1.1397 -0.6339
  880MOL0     O16075   5.702   0.884   8.049 -0.1130  1.2862  0.2444
  880MOL0     C16076   5.974   0.905   8.043 -0.2073  0.3930 -0.2603
  880MOL0     C16077   6.111   0.918   8.033  0.4352 -0.0834 -0.5836
  880MOL0     N16078   6.681   0.787   7.631 -0.3298  0.2376 -0.1434
  880MOL0     N16079   6.804   0.806   7.640 -0.4284 -0.6393 -0.1340
  880MOL0     C16080   7.972   1.366   8.097 -0.0681  0.0230 -0.8743
  880MOL0     C16081   8.065   1.474   8.073  0.5397 -0.1448  0.5766
  880MOL0     C16082   8.332   1.756   7.986 -0.9689  0.3581  0.6645
  880MOL0     C16083   8.423   1.692   7.898 -0.2284  0.2528  0.2575
  880MOL0     C16084   8.560   1.713   7.913  0.4585  0.1133 -0.4273
  880MOL0     C16085   8.609   1.803   8.011  0.5584  0.8950 -0.4495
  880MOL0     O16086   8.745   1.840   8.028 -0.1043  0.2994  0.2706
  880MOL0     C16087   8.843   1.809   7.926  0.1368 -0.6999  0.1007
  880MOL0     C16088   8.833   1.870   7.781  0.0622  0.6433  0.2742
  880MOL0     C16089   8.921   1.792   7.685  0.0461 -0.0844 -0.2584
  880MOL0     C16090   8.905   1.839   7.544 -0.3667  0.1497 -0.3911
  880MOL0     C16091   8.964   1.753   7.444  0.3696 -0.5727  1.9018
  880MOL0     C16092   9.016   1.695   7.348 -0.1200  0.4393 -0.0137
  880MOL0     C16093   8.522   1.873   8.099  0.1126 -0.3706  0.9103
  880MOL0     C16094   8.383   1.844   8.083 -0.2562  0.2209  0.4810
  880MOL0     H16095   8.022   1.507   7.736 -3.5459 -0.8611 -0.1692
  880MOL0     H16096   7.858   1.337   7.774 -1.3733  0.3243  0.9132
  880MOL0     H16097   7.789   1.090   7.888  0.6142 -1.0303  2.5418
  880MOL0     H16098   7.684   1.237   7.880  1.3213 -0.2894 -0.2915
  880MOL0     H16099   7.547   1.177   8.065 -0.4936 -0.3592  0.9296
  880MOL0     H16100   7.635   1.025   8.089  1.2482  0.0065  0.1317
  880MOL0     H16101   7.566   0.940   7.861 -0.6669 -0.1223 -0.0505
  880MOL0     H16102   7.479   1.081   7.834 -1.4241 -0.6339 -1.0769
  880MOL0     H16103   7.405   0.885   8.062  0.6108 -0.5654 -0.4970
  880MOL0     H16104   7.339   1.042   8.035  0.4564  0.0749 -1.6574
  880MOL0     H16105   7.307   0.810   7.841 -0.6947 -0.2195 -0.4597
  880MOL0     H16106   7.261   0.978   7.805 -0.4751 -0.4108 -0.4777
  880MOL0     H16107   7.107   0.959   8.019  0.5549 -0.1183  0.0401
  880MOL0     H16108   7.160   0.793   8.032 -0.4867 -0.2813 -0.3307
  880MOL0     H16109   7.093   0.774   7.785  3.5200  1.2423  0.9736
  880MOL0     H16110   6.972   0.774   7.918 -2.9293  1.7682 -1.7228
  880MOL0     H16111   7.035   0.988   7.725 -0.3094  1.4219  0.0051
  880MOL0     H16112   6.941   1.017   7.871 -0.1181  1.3544 -1.0437
  880MOL0     H16113   6.695   1.019   7.858 -0.7070  0.2087  0.2163
  880MOL0     H16114   6.442   0.918   7.591 -1.3484  0.1101  0.1654
  880MOL0     H16115   6.456   1.006   7.738 -0.1607 -0.1532  0.2530
  880MOL0     H16116   6.427   0.699   7.726 -0.9815 -0.0129 -0.7477
  880MOL0     H16117   6.298   0.817   7.728 -0.3773  1.6912 -0.0513
  880MOL0     H16118   6.356   0.731   7.961  1.0154  1.3264  2.5850
  880MOL0     H16119   6.519   0.767   7.930 -1.7448 -3.6709  1.9120
  880MOL0     H16120   6.500   0.995   7.975  0.2293  1.5176 -1.9942
  880MOL0     H16121   6.385   0.933   8.090  2.2216  1.6240 -0.1822
  880MOL0     H16122   6.120   1.133   7.768 -3.8700 -0.4465 -2.4472
  880MOL0     H16123   5.881   1.078   7.771  1.5546  1.9367  0.0431
  880MOL0     H16124   5.560   0.717   7.908 -2.6144 -0.7139  3.7630
  880MOL0     H16125   5.311   0.672   7.908  2.9371 -1.6642  1.4623
  880MOL0     H16126   5.036   1.021   7.794  1.3329  1.2647 -1.0282
  880MOL0     H16127   4.928   0.894   7.827 -1.2455  1.0971 -1.6585
  880MOL0     H16128   4.990   0.775   7.621  1.0786  0.0159  1.2061
  880MOL0     H16129   5.090   0.917   7.567  0.1009 -1.4605 -1.5687
  880MOL0     H16130   4.870   0.954   7.465 -3.2295 -2.8182 -0.9003
  880MOL0     H16131   4.855   1.049   7.618 -1.7035  1.6634 -3.8583
  880MOL0     H16132   4.737   0.791   7.532 -0.5622 -2.1539  1.8384
  880MOL0     H16133   4.728   0.845   7.700 -1.3598 -0.2024 -0.0310
  880MOL0     H16134   4.602   1.000   7.458  0.3787  2.7146  0.9009
  880MOL0     H16135   4.609   1.041   7.636 -1.4857 -2.6854  3.4750
  880MOL0     H16136   4.467   0.841   7.683 -1.4861 -2.2198 -0.9777
  880MOL0     H16137   4.466   0.792   7.519 -0.1654 -1.3218  2.4647
  880MOL0     H16138   4.340   1.039   7.632 -0.6512 -2.8002  1.5246
  880MOL0     H16139   4.364   1.020   7.454  0.3343  0.9382 -0.3224
  880MOL0     H16140   4.204   0.846   7.440  1.3389  0.2883 -0.0651
  880MOL0     H16141   4.145   0.968   7.551 -0.0895 -0.2605 -2.0960
  880MOL0     H16142   5.257   1.063   7.744  3.0051  3.0126  1.5610
  880MOL0     H16143   5.494   1.106   7.752  0.0006  0.5283 -1.4372
  880MOL0     H16144   5.922   0.856   8.125  2.0093 -2.0053 -0.1725
  880MOL0     H16145   6.176   0.872   8.107  0.3570  2.4848  1.2205
  880MOL0     H16146   7.964   1.319   8.194  1.3554  0.6242 -0.4390
  880MOL0     H16147   8.121   1.524   8.152  0.0290 -0.5578  1.2079
  880MOL0     H16148   8.398   1.618   7.822  1.9507  0.2670 -0.5340
  880MOL0     H16149   8.627   1.669   7.839  0.6796  0.1550 -0.2542
  880MOL0     H16150   8.842   1.700   7.927 -2.7734 -0.7555  1.2622
  880MOL0     H16151   8.938   1.842   7.969  0.8590  0.3579 -2.1430
  880MOL0     H16152   8.735   1.859   7.734  0.7081  1.9750 -1.5125
  880MOL0     H16153   8.863   1.975   7.789  0.6633  0.4215  1.0397
  880MOL0     H16154   8.905   1.683   7.684  1.3549 -0.2832 -0.1691
  880MOL0     H16155   9.026   1.801   7.712  0.9247 -2.9736 -2.2173
  880MOL0     H16156   8.800   1.865   7.528  0.0039  1.9996 -0.0412
  880MOL0     H16157   8.954   1.937   7.543 -1.5209  0.8374  2.4127
  880MOL0     H16158   9.057   1.637   7.267  0.7179  0.7682  0.1558
  880MOL0     H16159   8.554   1.935   8.182 -0.6181  0.6037  0.4931
  880MOL0     H16160   8.320   1.900   8.152  1.0526  2.4526 -0.0260
  881MOL0     O16161   3.312   1.310   3.485  0.0207  0.0241 -0.7471
  881MOL0     C16162   3.334   1.189   3.460  0.4259 -0.1802  0.5485
  881MOL0     O16163   3.237   1.092   3.448 -0.7075  0.3423 -0.3191
  881MOL0     C16164   3.114   1.130   3.476  0.6454  0.0978  0.1450
  881MOL0     C16165   3.032   1.195   3.381  0.5363 -0.2416  0.6360
  881MOL0     C16166   2.898   1.221   3.394  1.2513 -0.2176 -1.0987
  881MOL0     C16167   2.834   1.192   3.520  0.2133  0.1404 -0.2271
  881MOL0     O16168   2.699   1.208   3.561  0.3204  0.1237 -0.0877
  881MOL0     C16169   2.617   1.290   3.474  0.0788 -0.2151  0.2391
  881MOL0     C16170   2.480   1.318   3.541 -0.0994 -0.2172 -0.1273
  881MOL0     C16171   2.381   1.374   3.438  0.2485 -0.2716  0.0384
  881MOL0     C16172   2.250   1.418   3.498 -0.3640 -0.0277  0.5304
  881MOL0     C16173   2.173   1.491   3.385  0.0081 -0.1025  0.0864
  881MOL0     C16174   2.044   1.568   3.419 -0.0561  0.7724  0.1218
  881MOL0     C16175   2.010   1.669   3.311  0.0848  0.2144  0.0432
  881MOL0     C16176   1.925   1.782   3.360 -0.1690  0.0489 -0.7381
  881MOL0     N16177   1.783   1.758   3.384  0.2309  0.8712  0.0151
  881MOL0     C16178   1.697   1.842   3.454 -0.5169  0.8613  0.5937
  881MOL0     C16179   1.580   1.777   3.444 -0.3430  0.2055  0.3334
  881MOL0     C16180   1.456   1.833   3.507 -0.1626  0.1382  0.2524
  881MOL0     C16181   1.325   1.804   3.436 -0.0029 -0.3038 -0.0105
  881MOL0     C16182   1.210   1.870   3.519 -0.3092 -0.4671  0.1612
  881MOL0     C16183   1.067   1.837   3.471 -1.1190  0.2539  0.0497
  881MOL0     O16184   1.060   1.700   3.432 -0.0575  0.2205  0.1432
  881MOL0     C16185   0.938   1.636   3.418  0.5538  0.5308 -0.2749
  881MOL0     C16186   0.811   1.697   3.444  0.3324  0.0485 -0.1489
  881MOL0     C16187   0.684   1.640   3.441  0.0506  0.2182 -0.0182
  881MOL0     C16188   0.682   1.507   3.395 -0.3526  0.4115 -0.3766
  881MOL0     C16189   0.563   1.426   3.372 -0.0960 -0.5311 -0.7414
  881MOL0     O16190   0.579   1.341   3.270  0.0848 -0.3381  0.2918
  881MOL0     C16191   0.493   1.241   3.248  0.1915 -0.0587 -0.5815
  881MOL0     C16192   0.413   1.176   3.349 -0.9658  0.3625 -0.0367
  881MOL0     C16193   0.331   1.068   3.318  0.1517  0.0373  0.3349
  881MOL0     C16194   0.327   1.021   3.184  0.8683 -0.1710  0.8631
  881MOL0     O16195   0.229   0.927   3.163 -0.2324 -0.1467 -0.3726
  881MOL0     C16196   0.212   0.878   3.026 -0.6349 -0.0387 -0.4291
  881MOL0     C16197   0.106   0.775   3.016  0.4027 -0.0734 -0.2845
  881MOL0     C16198   0.154   0.644   3.093  0.7194  0.0819  0.8752
  881MOL0     C16199   0.057   0.537   3.072 -0.2659  0.1141  0.3882
  881MOL0     C16200   0.114   0.400   3.105  0.3336  0.0695  0.7776
  881MOL0     C16201  -0.009   0.309   3.103 -0.1930  0.6669 -0.4450
  881MOL0     C16202   0.015   0.163   3.144 -0.6979 -0.3249  0.0228
  881MOL0     C16203  -0.122   0.089   3.158 -0.2452  0.3034 -0.0017
  881MOL0    Cl16204  -0.193   0.027   3.007 -0.0929 -0.2065 -0.2739
  881MOL0     C16205   0.413   1.077   3.085  0.7607  0.2250  0.5566
  881MOL0     C16206   0.490   1.187   3.129 -0.4926  0.1961 -0.5565
  881MOL0     O16207   0.453   1.459   3.418  0.0445  0.3634 -0.5223
  881MOL0     C16208   0.808   1.442   3.358  0.3463 -0.3722  0.6659
  881MOL0     C16209   0.934   1.501   3.384  1.0554  0.1058  0.2173
  881MOL0     N16210   1.588   1.658   3.371  0.1966 -0.2002 -0.4593
  881MOL0     N16211   1.707   1.656   3.324 -0.3220  0.4287 -0.5098
  881MOL0     C16212   2.919   1.142   3.618 -0.4308  0.0657 -0.7008
  881MOL0     C16213   3.049   1.103   3.599 -0.1646 -0.0681 -0.5040
  881MOL0     C16214   3.482   1.163   3.465  0.9049  0.8363  0.4091
  881MOL0     C16215   3.580   1.269   3.470  0.3854 -0.0379  0.5129
  881MOL0     C16216   3.714   1.234   3.468  0.2582 -0.8561 -1.5511
  881MOL0     C16217   3.759   1.103   3.462  0.5885  0.0188  0.0951
  881MOL0     O16218   3.897   1.096   3.443 -0.2368  0.3889 -0.0583
  881MOL0     C16219   3.950   0.967   3.451 -0.3835  0.0826 -0.0083
  881MOL0     C16220   4.105   0.961   3.450  0.9226 -0.8749 -0.7029
  881MOL0     C16221   4.151   0.964   3.311  0.0301  0.0106  0.3295
  881MOL0     C16222   4.301   0.964   3.319 -0.6965  0.4362  0.6946
  881MOL0     C16223   4.369   0.980   3.187  0.2441  0.3620 -0.6750
  881MOL0     C16224   4.435   0.986   3.085 -0.5584 -0.1355  0.1066
  881MOL0     C16225   3.659   1.001   3.466  0.0255  0.4379  0.2564
  881MOL0     C16226   3.522   1.029   3.457 -0.2710 -1.2770 -0.1659
  881MOL0     H16227   3.073   1.219   3.283  1.1165 -0.4486  0.8246
  881MOL0     H16228   2.833   1.247   3.311 -2.0120 -1.0118  1.0306
  881MOL0     H16229   2.600   1.240   3.378 -0.7051  1.4072 -0.4971
  881MOL0     H16230   2.664   1.384   3.447 -0.1472 -0.3858 -0.7957
  881MOL0     H16231   2.492   1.387   3.625  1.4543  0.7724 -1.1190
  881MOL0     H16232   2.438   1.224   3.578 -1.5950 -0.2264 -1.7141
  881MOL0     H16233   2.350   1.285   3.383 -0.8515 -0.3691  0.7919
  881MOL0     H16234   2.418   1.450   3.368 -0.7279  0.3196  0.1422
  881MOL0     H16235   2.191   1.330   3.527 -3.0413  1.0413 -1.2687
  881MOL0     H16236   2.267   1.485   3.583 -0.5942  0.1267  0.4568
  881MOL0     H16237   2.145   1.419   3.308  0.4345  1.1481 -1.2890
  881MOL0     H16238   2.242   1.566   3.345 -1.1259 -0.5058 -2.9107
  881MOL0     H16239   2.066   1.623   3.511 -1.8317  0.4623  0.7722
  881MOL0     H16240   1.962   1.503   3.448 -1.8350  1.5710 -2.7831
  881MOL0     H16241   2.100   1.716   3.270 -1.3302  0.1361 -3.4874
  881MOL0     H16242   1.966   1.609   3.231 -0.4946  1.3762 -0.5383
  881MOL0     H16243   1.934   1.868   3.294  0.3761  0.9488  0.4801
  881MOL0     H16244   1.954   1.818   3.459 -1.4617 -2.7062  0.7672
  881MOL0     H16245   1.715   1.940   3.496 -0.9895  1.8204 -1.3127
  881MOL0     H16246   1.455   1.942   3.519  0.2466  0.2696 -0.7370
  881MOL0     H16247   1.453   1.787   3.606  2.2519 -1.3604 -0.2951
  881MOL0     H16248   1.315   1.696   3.418 -0.8722 -0.2801  0.2822
  881MOL0     H16249   1.313   1.855   3.340 -1.3894  0.0870  0.3416
  881MOL0     H16250   1.222   1.840   3.623  1.1851 -0.6677 -0.0501
  881MOL0     H16251   1.218   1.979   3.512 -0.9071 -0.1283  3.2883
  881MOL0     H16252   1.044   1.905   3.388 -0.2323 -0.5435 -0.8851
  881MOL0     H16253   0.999   1.857   3.554 -1.6031 -4.0669  0.9502
  881MOL0     H16254   0.810   1.804   3.463  0.0137 -0.1094  0.7798
  881MOL0     H16255   0.591   1.693   3.462 -0.7357 -1.7879  1.9403
  881MOL0     H16256   0.427   1.209   3.451 -0.6935  0.0663  0.0216
  881MOL0     H16257   0.279   1.003   3.388 -1.0474  0.4656 -0.1362
  881MOL0     H16258   0.300   0.823   2.992 -1.6552 -1.6828 -0.4709
  881MOL0     H16259   0.193   0.958   2.953  4.8825  0.2871 -1.9790
  881MOL0     H16260   0.072   0.756   2.914 -0.3900  2.0308 -0.4639
  881MOL0     H16261   0.024   0.816   3.076  0.5173 -0.5325  0.1911
  881MOL0     H16262   0.165   0.670   3.199  1.2919  0.0169  0.8354
  881MOL0     H16263   0.252   0.611   3.058  0.5773  3.0754 -2.9200
  881MOL0     H16264  -0.035   0.558   3.127 -1.0395  0.5818 -1.0195
  881MOL0     H16265   0.035   0.528   2.965  2.6486  0.6401 -0.3403
  881MOL0     H16266   0.171   0.395   3.198  0.8039 -1.3003  0.4308
  881MOL0     H16267   0.188   0.363   3.034 -0.2569 -0.1835  0.2804
  881MOL0     H16268  -0.042   0.306   2.999  0.5943 -0.3018 -0.6916
  881MOL0     H16269  -0.081   0.354   3.172  0.5116  1.6144 -0.2995
  881MOL0     H16270   0.074   0.119   3.063 -0.4962  0.6517 -0.3783
  881MOL0     H16271   0.063   0.153   3.242  0.7981 -2.6947 -0.8711
  881MOL0     H16272  -0.200   0.147   3.208 -1.2393 -0.9307 -0.0857
  881MOL0     H16273  -0.098   0.010   3.230  0.8308  2.5101  2.2160
  881MOL0     H16274   0.413   1.030   2.987 -1.7540 -1.7237  1.3865
  881MOL0     H16275   0.546   1.243   3.055  0.6669 -1.5306 -1.0396
  881MOL0     H16276   0.806   1.343   3.313  1.0518  0.8909 -2.3554
  881MOL0     H16277   1.028   1.451   3.364  0.2340 -0.8259 -1.4941
  881MOL0     H16278   2.880   1.127   3.719 -2.2366 -2.2389 -1.6353
  881MOL0     H16279   3.105   1.059   3.681 -0.2981  0.0184 -0.3673
  881MOL0     H16280   3.543   1.370   3.484 -1.1475 -0.7618  2.0443
  881MOL0     H16281   3.782   1.318   3.457  1.4515 -1.2252  1.6949
  881MOL0     H16282   3.901   0.902   3.379  1.3364  0.3665 -1.5026
  881MOL0     H16283   3.930   0.912   3.544 -1.3747 -2.0119 -1.4005
  881MOL0     H16284   4.136   1.051   3.503 -0.7879 -0.5080 -0.2520
  881MOL0     H16285   4.137   0.872   3.506 -0.3696 -0.2938  1.0694
  881MOL0     H16286   4.111   1.055   3.266 -0.7032  0.0202  0.9772
  881MOL0     H16287   4.111   0.883   3.248  0.2135  1.3952 -1.6419
  881MOL0     H16288   4.341   1.045   3.381  2.2206 -1.2310  1.1426
  881MOL0     H16289   4.334   0.870   3.364  1.7696  0.4748 -0.8653
  881MOL0     H16290   4.499   0.986   2.999 -0.7010  2.5427 -0.0934
  881MOL0     H16291   3.694   0.899   3.449 -2.3981 -0.0709 -2.4454
  881MOL0     H16292   3.449   0.948   3.457 -1.6675 -0.0626  0.0810
  882MOL0     O16293   0.338   6.031   4.471 -1.1232  0.0609  0.6154
  882MOL0     C16294   0.385   6.127   4.401 -0.2974  0.0765 -0.9464
  882MOL0     O16295   0.319   6.199   4.313 -0.1864 -0.5043  0.0023
  882MOL0     C16296   0.184   6.177   4.295  0.3490 -0.2101  0.6759
  882MOL0     C16297   0.127   6.059   4.251 -0.1105 -0.4983  0.1710
  882MOL0     C16298  -0.015   6.050   4.231  0.3004 -0.2798 -0.0192
  882MOL0     C16299  -0.102   6.146   4.273 -0.3241 -1.2074  0.2904
  882MOL0     O16300  -0.237   6.153   4.251 -0.5882 -0.6508  0.0386
  882MOL0     C16301  -0.314   6.045   4.199  0.2746 -0.8625 -0.2647
  882MOL0     C16302  -0.462   6.086   4.206  0.4990  0.4648  0.1783
  882MOL0     C16303  -0.514   6.093   4.353  0.2593  0.4084 -0.1094
  882MOL0     C16304  -0.637   6.188   4.352 -0.4166  0.9670 -0.2770
  882MOL0     C16305  -0.657   6.229   4.500  0.4249 -0.3932 -0.1327
  882MOL0     C16306  -0.790   6.298   4.519  0.0415 -0.9248 -1.0621
  882MOL0     C16307  -0.826   6.349   4.661  0.5521  0.4447 -0.1601
  882MOL0     C16308  -0.939   6.461   4.650 -0.1781 -0.7353 -0.4995
  882MOL0     N16309  -1.073   6.410   4.605 -0.0406  1.5487  0.5706
  882MOL0     C16310  -1.116   6.398   4.474  0.1138  0.7535  0.1460
  882MOL0     C16311  -1.238   6.328   4.485 -0.1881 -0.5777 -0.7615
  882MOL0     C16312  -1.314   6.274   4.371  0.9281  0.0732 -0.9753
  882MOL0     C16313  -1.457   6.331   4.369  0.3850 -0.1368 -0.4974
  882MOL0     C16314  -1.549   6.269   4.468  0.5836 -0.1065 -0.1420
  882MOL0     C16315  -1.690   6.326   4.445  0.1078  0.6917  0.4961
  882MOL0     O16316  -1.784   6.237   4.510  0.2305 -0.0438  0.4940
  882MOL0     C16317  -1.922   6.258   4.491 -0.4252 -0.5512  0.4817
  882MOL0     C16318  -2.009   6.162   4.530 -0.1187 -0.2452 -0.3931
  882MOL0     C16319  -2.144   6.176   4.529  0.3077  0.4561  0.9094
  882MOL0     C16320  -2.201   6.293   4.476  1.2056 -0.1403 -0.1046
  882MOL0     C16321  -2.347   6.318   4.470  0.1816  0.0814 -1.2235
  882MOL0     O16322  -2.397   6.417   4.391 -0.8600  0.0818  0.3383
  882MOL0     C16323  -2.528   6.464   4.403 -0.5967  0.6179 -0.5780
  882MOL0     C16324  -2.555   6.569   4.493 -0.2309  0.5541 -0.3938
  882MOL0     C16325  -2.678   6.621   4.510  0.6907  0.5068 -0.6673
  882MOL0     C16326  -2.783   6.580   4.420 -0.1084  0.2158  1.2063
  882MOL0     O16327  -2.909   6.636   4.437 -0.1156  0.0605 -0.6019
  882MOL0     C16328  -3.014   6.599   4.347 -0.7243  0.4877  0.4738
  882MOL0     C16329  -3.127   6.687   4.384 -0.6321 -0.3651  0.0920
  882MOL0     C16330  -3.241   6.656   4.285 -0.0456 -0.4123 -0.1728
  882MOL0     C16331  -3.359   6.755   4.317 -0.0958 -0.1925 -0.0606
  882MOL0     C16332  -3.344   6.896   4.266 -0.1573 -0.3596 -0.9486
  882MOL0     C16333  -3.329   6.903   4.119  0.1553  0.1930  0.3428
  882MOL0     C16334  -3.346   7.041   4.047 -0.4623 -0.3180  0.1763
  882MOL0     C16335  -3.327   7.022   3.900 -0.3064 -0.0681 -0.7307
  882MOL0    Cl16336  -3.159   6.950   3.852 -0.5277  0.0110  0.2383
  882MOL0     C16337  -2.755   6.491   4.311  0.6524  0.4297 -0.0926
  882MOL0     C16338  -2.630   6.427   4.310  0.1828 -0.3058 -0.4891
  882MOL0     O16339  -2.423   6.246   4.543 -0.3887 -0.6803 -0.9121
  882MOL0     C16340  -2.120   6.395   4.430 -0.6476  0.1057  0.2807
  882MOL0     C16341  -1.981   6.383   4.442  0.1310  0.5403 -1.0582
  882MOL0     N16342  -1.262   6.299   4.618  0.0489 -0.9344  0.3940
  882MOL0     N16343  -1.165   6.351   4.689  1.1016 -0.5491  0.5076
  882MOL0     C16344  -0.036   6.268   4.325  0.5708  0.0451 -0.3134
  882MOL0     C16345   0.106   6.282   4.334  0.2323  0.5267 -0.0920
  882MOL0     C16346   0.532   6.169   4.414  0.0849  0.4086 -0.0649
  882MOL0     C16347   0.622   6.094   4.482  0.1461  0.7233  0.1824
  882MOL0     C16348   0.760   6.115   4.480  0.2469  0.3337  0.4539
  882MOL0     C16349   0.808   6.227   4.413  0.7516  0.0301  0.2663
  882MOL0     O16350   0.941   6.254   4.407 -0.3620 -0.0114  0.4312
  882MOL0     C16351   1.002   6.387   4.405  0.5426 -0.0130  0.2691
  882MOL0     C16352   1.042   6.427   4.549 -0.0747 -0.3510  0.5455
  882MOL0     C16353   1.137   6.322   4.609 -1.0567  0.0024 -0.7231
  882MOL0     C16354   1.281   6.321   4.550  1.3017 -0.2226  0.0441
  882MOL0     C16355   1.353   6.439   4.613  0.3431 -0.5611 -0.0590
  882MOL0     C16356   1.413   6.537   4.652  0.0139  0.0723 -0.8139
  882MOL0     C16357   0.716   6.305   4.340 -0.3055 -0.3828 -0.0800
  882MOL0     C16358   0.586   6.269   4.334  0.5180  0.9483  0.3319
  882MOL0     H16359   0.197   5.981   4.221  3.0072  1.8818  0.7058
  882MOL0     H16360  -0.055   5.969   4.170 -0.0033  2.0152 -3.1425
  882MOL0     H16361  -0.297   5.959   4.264  1.9108  1.6934  3.0017
  882MOL0     H16362  -0.285   6.020   4.096  1.5692 -2.1821  0.3650
  882MOL0     H16363  -0.521   6.017   4.146 -0.6073  1.8927 -0.4215
  882MOL0     H16364  -0.476   6.183   4.158 -2.1291 -1.1512 -2.7140
  882MOL0     H16365  -0.437   6.132   4.420  2.8116 -2.3121 -1.2527
  882MOL0     H16366  -0.544   5.994   4.390  1.1601  0.0081 -0.4264
  882MOL0     H16367  -0.629   6.283   4.298  1.1696  0.6518 -0.6370
  882MOL0     H16368  -0.731   6.142   4.322  0.2115 -1.0225  0.6327
  882MOL0     H16369  -0.572   6.292   4.530  1.1309 -0.5350 -1.7332
  882MOL0     H16370  -0.651   6.141   4.565  4.0594  0.1257  0.4564
  882MOL0     H16371  -0.868   6.227   4.489 -3.1640  1.6531  0.4419
  882MOL0     H16372  -0.801   6.382   4.449  0.3793 -0.0182 -0.0500
  882MOL0     H16373  -0.860   6.271   4.730  0.2378  0.0720 -0.7309
  882MOL0     H16374  -0.742   6.404   4.703  1.7278 -0.9405 -0.6161
  882MOL0     H16375  -0.892   6.528   4.578  2.7792 -0.9624  1.0408
  882MOL0     H16376  -0.952   6.511   4.747 -0.0831 -1.3496 -0.1618
  882MOL0     H16377  -1.067   6.439   4.387  0.4024 -1.0047 -0.5709
  882MOL0     H16378  -1.328   6.165   4.374 -2.1464  0.2445 -3.4129
  882MOL0     H16379  -1.266   6.303   4.278  0.9708  1.0527 -0.6570
  882MOL0     H16380  -1.501   6.325   4.269 -0.6487 -0.2086 -0.0504
  882MOL0     H16381  -1.455   6.438   4.389  1.5706 -0.2164 -0.1120
  882MOL0     H16382  -1.547   6.160   4.453 -1.3046  0.2428 -4.5480
  882MOL0     H16383  -1.539   6.294   4.574 -0.4231 -0.7045  0.1140
  882MOL0     H16384  -1.713   6.317   4.339  0.2612 -1.5606  0.5968
  882MOL0     H16385  -1.703   6.427   4.483  0.8369  0.6360  0.9069
  882MOL0     H16386  -1.965   6.073   4.573  1.4599  0.3556 -0.6827
  882MOL0     H16387  -2.205   6.092   4.560  3.2737 -2.3830 -0.3433
  882MOL0     H16388  -2.476   6.606   4.557  1.6951  1.0365 -2.8770
  882MOL0     H16389  -2.704   6.690   4.589 -3.5379  1.7121 -2.7868
  882MOL0     H16390  -3.043   6.494   4.355 -0.1768  0.4379  2.0392
  882MOL0     H16391  -2.984   6.627   4.245 -2.1723  3.4393  0.7422
  882MOL0     H16392  -3.092   6.789   4.368 -0.5893 -0.1808  1.2854
  882MOL0     H16393  -3.156   6.681   4.489  0.2925  4.0566  0.8004
  882MOL0     H16394  -3.279   6.556   4.307  2.3448 -1.4761 -0.6716
  882MOL0     H16395  -3.206   6.662   4.182 -0.3034  3.4907 -0.1820
  882MOL0     H16396  -3.445   6.710   4.267 -1.2663 -0.7192  2.2758
  882MOL0     H16397  -3.386   6.750   4.423  0.1319 -2.5278 -0.0605
  882MOL0     H16398  -3.263   6.951   4.314  0.0546 -1.7257  0.3396
  882MOL0     H16399  -3.435   6.952   4.291  0.9346  0.3550  1.8109
  882MOL0     H16400  -3.418   6.851   4.083  1.4679  0.1883 -3.3167
  882MOL0     H16401  -3.242   6.851   4.079  0.6161  2.2684 -1.6403
  882MOL0     H16402  -3.449   7.074   4.065  0.0116  0.9178  0.7111
  882MOL0     H16403  -3.277   7.119   4.079 -0.9188  0.8384 -1.5302
  882MOL0     H16404  -3.353   7.113   3.846  0.1452  2.7111  3.3053
  882MOL0     H16405  -3.394   6.941   3.868  0.8316 -0.8703 -1.1573
  882MOL0     H16406  -2.840   6.455   4.253  1.0747 -0.4064 -0.2059
  882MOL0     H16407  -2.612   6.355   4.231  2.0896 -1.4077  0.9114
  882MOL0     H16408  -2.162   6.487   4.389 -0.2077 -1.1238 -3.3083
  882MOL0     H16409  -1.925   6.470   4.410  3.8505 -1.3125 -0.1978
  882MOL0     H16410  -0.110   6.345   4.344  1.2630  1.1403 -1.8239
  882MOL0     H16411   0.142   6.373   4.381 -0.0652  0.6050 -0.0182
  882MOL0     H16412   0.580   6.014   4.542  2.6389 -0.4672  0.4651
  882MOL0     H16413   0.841   6.069   4.535  1.0252 -0.1656 -1.0426
  882MOL0     H16414   0.943   6.468   4.361  1.0784 -0.5293 -1.4878
  882MOL0     H16415   1.086   6.370   4.336  0.8748  1.2414  0.3432
  882MOL0     H16416   1.093   6.524   4.543 -1.4742  0.3630 -0.2919
  882MOL0     H16417   0.955   6.443   4.613 -1.3158 -0.7593 -0.9823
  882MOL0     H16418   1.097   6.220   4.604  2.3282 -1.5607  0.9191
  882MOL0     H16419   1.152   6.345   4.715  0.7175 -0.8723 -0.7554
  882MOL0     H16420   1.342   6.232   4.568  3.9087  1.1191 -1.6002
  882MOL0     H16421   1.279   6.331   4.441  3.3852 -0.6381 -0.0727
  882MOL0     H16422   1.471   6.621   4.687  1.2062 -1.6459  1.6699
  882MOL0     H16423   0.750   6.394   4.287  0.2421 -0.9408 -0.6864
  882MOL0     H16424   0.518   6.315   4.263  0.8475 -0.4767 -0.9553
  883MOL0     O16425  10.045  10.809   7.650  0.0418  0.7077 -0.3207
  883MOL0     C16426  10.121  10.719   7.605  1.0039  0.2384 -0.3472
  883MOL0     O16427  10.081  10.600   7.580 -0.2703 -0.1732  0.3265
  883MOL0     C16428   9.959  10.555   7.614  0.1818  0.4141  0.0273
  883MOL0     C16429   9.896  10.488   7.511 -0.0229 -0.0279 -0.1227
  883MOL0     C16430   9.778  10.416   7.536 -0.2669  0.3331  0.5343
  883MOL0     C16431   9.709  10.427   7.657 -0.3926  0.2078 -0.7170
  883MOL0     O16432   9.584  10.375   7.659 -0.0214  0.3562  0.0633
  883MOL0     C16433   9.503  10.389   7.786 -0.6013 -0.5776  0.3661
  883MOL0     C16434   9.356  10.332   7.768  0.2251  0.0802 -0.4806
  883MOL0     C16435   9.280  10.333   7.896  0.1338 -0.5262 -0.2361
  883MOL0     C16436   9.288  10.456   7.980 -0.8146 -0.7200  0.3854
  883MOL0     C16437   9.186  10.457   8.099  0.9232  0.4128 -0.0660
  883MOL0     C16438   9.216  10.583   8.178  0.5120 -0.3460  0.1276
  883MOL0     C16439   9.146  10.588   8.320  0.1044 -0.4719 -0.2484
  883MOL0     C16440   8.996  10.575   8.302  0.3502  0.2932 -0.4524
  883MOL0     N16441   8.927  10.679   8.229  0.0153 -0.0629 -0.3411
  883MOL0     C16442   8.944  10.813   8.237  0.4959  0.1714  1.0598
  883MOL0     C16443   8.840  10.863   8.160 -0.6697 -0.5165  0.1616
  883MOL0     C16444   8.812  11.012   8.121 -0.1605  0.2090 -0.0511
  883MOL0     C16445   8.678  11.031   8.041 -0.1475 -0.7896 -0.6491
  883MOL0     C16446   8.684  11.176   7.990  0.6659  0.3616 -0.1087
  883MOL0     C16447   8.577  11.190   7.885 -0.0315 -0.2301 -0.0131
  883MOL0     O16448   8.447  11.195   7.944  0.0348 -0.2597 -0.5432
  883MOL0     C16449   8.340  11.127   7.884 -0.3345 -0.4867 -0.0412
  883MOL0     C16450   8.222  11.105   7.958 -0.4179 -1.0323  0.2507
  883MOL0     C16451   8.113  11.032   7.903 -0.5523 -0.4587  0.5022
  883MOL0     C16452   8.104  10.991   7.772  0.2931  0.2130  0.7806
  883MOL0     C16453   7.986  10.923   7.716  0.0117  0.1531  0.8680
  883MOL0     O16454   7.983  10.918   7.576 -0.0062  0.3889  0.2122
  883MOL0     C16455   7.882  10.857   7.514  0.1841  0.5455 -0.8110
  883MOL0     C16456   7.743  10.850   7.551 -0.1322  0.0833  0.5883
  883MOL0     C16457   7.648  10.783   7.471 -0.2805 -0.4989 -0.8185
  883MOL0     C16458   7.688  10.722   7.355  0.6596  0.4074  0.2138
  883MOL0     O16459   7.584  10.643   7.301  0.2268  0.2529  0.5496
  883MOL0     C16460   7.603  10.576   7.177  0.3712 -0.0807  0.2119
  883MOL0     C16461   7.468  10.538   7.113 -0.5520  1.2187 -0.7138
  883MOL0     C16462   7.384  10.658   7.074  0.2898 -0.0979  0.7740
  883MOL0     C16463   7.261  10.617   6.983  0.3915 -0.3405  0.6274
  883MOL0     C16464   7.175  10.724   6.925 -0.0838 -0.7789  0.7857
  883MOL0     C16465   7.041  10.677   6.867 -0.2882  0.5031  0.3103
  883MOL0     C16466   6.943  10.796   6.854 -0.2356 -0.1385 -0.2740
  883MOL0     C16467   6.812  10.749   6.788  0.5520 -0.4368 -0.3148
  883MOL0    Cl16468   6.838  10.739   6.610  0.2009  0.1164  0.0736
  883MOL0     C16469   7.825  10.719   7.326 -0.2424  0.0343 -0.2380
  883MOL0     C16470   7.919  10.787   7.404  0.5105  0.2568 -0.5983
  883MOL0     O16471   7.906  10.862   7.791 -0.1571 -0.1022 -0.2396
  883MOL0     C16472   8.226  11.010   7.706  0.1512 -0.3700  0.2863
  883MOL0     C16473   8.340  11.070   7.758 -0.1098  0.2690  0.3100
  883MOL0     N16474   8.763  10.764   8.117  0.1468  0.4622 -0.2992
  883MOL0     N16475   8.823  10.655   8.147  0.5403 -0.3392  0.6236
  883MOL0     C16476   9.776  10.488   7.761 -0.3995 -0.4583  0.2113
  883MOL0     C16477   9.899  10.549   7.741 -0.3188 -0.3768 -0.4980
  883MOL0     C16478  10.264  10.748   7.592 -0.0490 -0.1513 -0.5143
  883MOL0     C16479  10.345  10.665   7.518  0.6922  0.6583  0.5268
  883MOL0     C16480  10.480  10.694   7.506 -0.2887 -0.2538 -0.0093
  883MOL0     C16481  10.535  10.808   7.561 -0.8493 -0.1477 -0.4368
  883MOL0     O16482  10.669  10.825   7.546 -0.2618  0.6714 -0.3081
  883MOL0     C16483  10.722  10.957   7.580 -0.1878  0.1259 -0.1002
  883MOL0     C16484  10.875  10.948   7.566 -0.3680  0.8629 -0.2339
  883MOL0     C16485  10.932  10.876   7.443  0.3745 -0.0201  0.8009
  883MOL0     C16486  10.892  10.964   7.321  0.2900  0.4522  0.5535
  883MOL0     C16487  10.752  10.939   7.276 -1.1703  0.2231 -0.0091
  883MOL0     C16488  10.640  10.913   7.251 -1.3669  0.4789  0.9694
  883MOL0     C16489  10.454  10.894   7.634  0.7366  0.3079  0.1420
  883MOL0     C16490  10.321  10.862   7.645  0.0574 -0.2925 -0.0190
  883MOL0     H16491   9.936  10.489   7.410 -0.2462  1.7555 -0.2257
  883MOL0     H16492   9.735  10.352   7.460  0.0839  1.1543 -0.3893
  883MOL0     H16493   9.495  10.495   7.814 -1.8212 -0.4693 -0.3098
  883MOL0     H16494   9.559  10.335   7.862  0.7588 -1.1794 -1.0086
  883MOL0     H16495   9.370  10.236   7.716  2.8866  0.5522 -0.7665
  883MOL0     H16496   9.301  10.395   7.698  0.4242 -1.4012 -2.0233
  883MOL0     H16497   9.296  10.243   7.956 -0.6216 -0.7037 -0.2890
  883MOL0     H16498   9.173  10.331   7.870 -0.0572  0.0500  0.4790
  883MOL0     H16499   9.386  10.472   8.026 -1.3464 -0.6798  1.5506
  883MOL0     H16500   9.283  10.544   7.916  0.0174 -1.1420 -0.2799
  883MOL0     H16501   9.208  10.378   8.172 -0.1476  2.1499  2.2313
  883MOL0     H16502   9.083  10.466   8.064  0.7490  1.0606  0.5926
  883MOL0     H16503   9.183  10.672   8.122  0.3211 -0.1421  0.5624
  883MOL0     H16504   9.322  10.597   8.204  0.8125  1.2449 -1.7158
  883MOL0     H16505   9.186  10.512   8.388 -0.2982 -1.0280 -0.6257
  883MOL0     H16506   9.162  10.687   8.364 -2.3581 -0.3917  0.6177
  883MOL0     H16507   8.946  10.568   8.399  1.9482  0.7061  0.4488
  883MOL0     H16508   8.969  10.484   8.247 -0.0018 -0.1221  0.3835
  883MOL0     H16509   9.029  10.852   8.292  0.2811  0.6047  1.0868
  883MOL0     H16510   8.887  11.039   8.045 -2.0206  1.1751 -1.6161
  883MOL0     H16511   8.819  11.059   8.219  2.1242  2.7026 -1.2629
  883MOL0     H16512   8.589  11.016   8.104 -0.1548 -2.5573 -1.0292
  883MOL0     H16513   8.666  10.958   7.960 -0.5548 -1.1937 -0.2359
  883MOL0     H16514   8.672  11.239   8.078  0.7403 -2.0304  1.7376
  883MOL0     H16515   8.782  11.204   7.950  1.5239  0.3494  1.8671
  883MOL0     H16516   8.587  11.129   7.794 -1.9436 -1.0754  0.3153
  883MOL0     H16517   8.601  11.290   7.848 -2.0562  0.1623 -0.3821
  883MOL0     H16518   8.225  11.156   8.054  0.1748  0.6184 -0.6118
  883MOL0     H16519   8.024  11.010   7.962 -2.5495 -0.7377 -2.4214
  883MOL0     H16520   7.700  10.907   7.633 -1.2047  1.2780 -0.7465
  883MOL0     H16521   7.541  10.792   7.490 -0.5473 -1.1917 -1.8926
  883MOL0     H16522   7.674  10.496   7.197  1.6452  0.5202 -1.6256
  883MOL0     H16523   7.656  10.641   7.106  1.3262 -1.1576 -0.0981
  883MOL0     H16524   7.421  10.476   7.190  0.7516 -0.8160 -1.4599
  883MOL0     H16525   7.475  10.474   7.025 -0.1388  0.5688 -0.2196
  883MOL0     H16526   7.447  10.719   7.008  0.4499  0.6215  1.5737
  883MOL0     H16527   7.348  10.719   7.157  0.8490  0.8298  0.3548
  883MOL0     H16528   7.296  10.567   6.892 -1.5523 -0.9389  0.1428
  883MOL0     H16529   7.199  10.541   7.033 -1.9676  1.3485  0.4590
  883MOL0     H16530   7.234  10.770   6.845  0.4700 -0.2620  1.4787
  883MOL0     H16531   7.165  10.795   7.007 -1.3947  2.2622 -1.7821
  883MOL0     H16532   7.012  10.601   6.941  3.8272 -2.0137 -0.3585
  883MOL0     H16533   7.056  10.623   6.773  0.6147  1.9432 -0.4060
  883MOL0     H16534   6.925  10.823   6.959 -0.5203  0.8656 -0.5688
  883MOL0     H16535   6.982  10.879   6.794  1.0825  0.5759  1.4694
  883MOL0     H16536   6.740  10.831   6.798 -1.0029 -1.6839 -0.7929
  883MOL0     H16537   6.767  10.662   6.837  1.2002 -0.4912  0.1872
  883MOL0     H16538   7.862  10.655   7.246  0.9114 -0.4885  0.6816
  883MOL0     H16539   8.024  10.787   7.377  0.4049  1.8295 -1.0741
  883MOL0     H16540   8.241  10.963   7.609  0.9614 -0.5052  0.4681
  883MOL0     H16541   8.425  11.058   7.691  0.4794 -0.0147  1.0856
  883MOL0     H16542   9.737  10.487   7.862 -1.2298 -1.0334 -0.1068
  883MOL0     H16543   9.947  10.614   7.814 -2.2603  0.7282 -0.1190
  883MOL0     H16544  10.312  10.572   7.472  0.6234  1.0798 -0.2951
  883MOL0     H16545  10.545  10.650   7.431  0.4265  3.6044 -1.8780
  883MOL0     H16546  10.693  10.982   7.682  0.7985  0.7542  0.0309
  883MOL0     H16547  10.678  11.037   7.519  2.2112  2.6997  1.3606
  883MOL0     H16548  10.918  11.048   7.577 -3.1931  2.2228 -0.6452
  883MOL0     H16549  10.905  10.885   7.650 -1.0171  2.5434  1.3108
  883MOL0     H16550  10.897  10.773   7.433 -0.9582  0.5725 -1.8156
  883MOL0     H16551  11.041  10.869   7.450  0.7913  2.8485 -1.0185
  883MOL0     H16552  10.910  11.068   7.351 -0.2955  1.3825 -2.0693
  883MOL0     H16553  10.968  10.952   7.244 -1.9899 -0.2254 -1.7501
  883MOL0     H16554  10.542  10.877   7.225 -0.7302  0.0712 -1.0599
  883MOL0     H16555  10.485  10.982   7.690  1.3288 -0.6691  1.4050
  883MOL0     H16556  10.254  10.931   7.695  0.5395 -1.4157  2.3614
  884MOL0     O16557   0.581   0.417   4.856 -0.1383 -0.1327  0.1422
  884MOL0     C16558   0.578   0.491   4.757  0.8787 -0.2845 -0.4997
  884MOL0     O16559   0.467   0.542   4.700  0.3438  0.3545  0.0125
  884MOL0     C16560   0.345   0.500   4.747 -0.2555 -1.0472 -0.0112
  884MOL0     C16561   0.251   0.436   4.663 -0.6653  0.1072 -0.1780
  884MOL0     C16562   0.115   0.434   4.698 -0.2884 -0.2342 -0.5224
  884MOL0     C16563   0.069   0.494   4.819 -0.0821 -0.3483  0.6186
  884MOL0     O16564  -0.069   0.478   4.835  0.3337  0.2729  0.3566
  884MOL0     C16565  -0.121   0.493   4.969 -0.6832 -0.2591  0.9485
  884MOL0     C16566  -0.267   0.496   4.941 -0.2349  0.4719 -0.4738
  884MOL0     C16567  -0.360   0.466   5.063 -0.1181  0.6874 -0.3141
  884MOL0     C16568  -0.506   0.500   5.029  0.4340  0.5783 -0.4170
  884MOL0     C16569  -0.604   0.504   5.150  0.3273  0.3112  0.2597
  884MOL0     C16570  -0.618   0.379   5.233  0.0768 -0.1248  0.3765
  884MOL0     C16571  -0.716   0.402   5.356  0.3550 -0.3263  0.0481
  884MOL0     C16572  -0.858   0.372   5.316  0.5723  0.2690  0.2247
  884MOL0     N16573  -0.948   0.385   5.425  0.3985  0.3591 -0.3001
  884MOL0     C16574  -1.012   0.279   5.486 -0.2111 -0.6768 -0.2182
  884MOL0     C16575  -1.108   0.330   5.573 -0.6253  0.9183 -0.3332
  884MOL0     C16576  -1.183   0.243   5.671 -0.3280 -0.3896 -0.6316
  884MOL0     C16577  -1.295   0.313   5.754 -0.1378  0.3157  0.1507
  884MOL0     C16578  -1.347   0.228   5.869 -0.2987 -0.4874  0.1756
  884MOL0     C16579  -1.462   0.295   5.947  0.4982  0.1292  0.3572
  884MOL0     O16580  -1.521   0.190   6.025  0.7677 -0.7959 -0.6520
  884MOL0     C16581  -1.625   0.228   6.110  0.1299  0.4201  1.2895
  884MOL0     C16582  -1.665   0.139   6.205 -0.0085 -0.0097  0.3295
  884MOL0     C16583  -1.770   0.172   6.288  0.3729 -0.1520  0.4580
  884MOL0     C16584  -1.842   0.290   6.275 -0.6994  0.4609 -0.6945
  884MOL0     C16585  -1.958   0.306   6.354 -0.1420 -0.0998 -1.1313
  884MOL0     O16586  -1.976   0.426   6.418 -0.2918  0.0545  0.3582
  884MOL0     C16587  -2.085   0.452   6.487  0.9720 -0.2810 -0.1783
  884MOL0     C16588  -2.066   0.479   6.624  0.3234 -0.3714 -0.2181
  884MOL0     C16589  -2.168   0.520   6.707 -0.7242 -0.0535 -0.7766
  884MOL0     C16590  -2.297   0.539   6.652 -0.8753 -0.7908  0.1125
  884MOL0     O16591  -2.378   0.612   6.740  0.4230 -0.0213 -0.1647
  884MOL0     C16592  -2.491   0.683   6.687  0.0352 -0.0287  0.5613
  884MOL0     C16593  -2.580   0.750   6.790  1.3240  0.3562 -0.1365
  884MOL0     C16594  -2.492   0.844   6.868  0.3059  0.3137 -0.0639
  884MOL0     C16595  -2.556   0.875   7.006  0.2564 -0.3205 -0.2901
  884MOL0     C16596  -2.453   0.911   7.117 -0.5932  0.1824  0.2128
  884MOL0     C16597  -2.529   0.923   7.246 -0.2575  0.0051 -0.1887
  884MOL0     C16598  -2.437   0.949   7.357  0.4563  1.3383  0.1358
  884MOL0     C16599  -2.488   0.929   7.507  0.4393  0.0274  0.1987
  884MOL0    Cl16600  -2.632   1.030   7.533 -0.0211 -0.4888 -0.3960
  884MOL0     C16601  -2.320   0.512   6.514 -0.3608  0.2184 -0.5561
  884MOL0     C16602  -2.209   0.475   6.435 -0.1961 -0.7766  0.2166
  884MOL0     O16603  -2.031   0.213   6.366  0.7054  0.4453 -0.6488
  884MOL0     C16604  -1.797   0.391   6.187 -0.5777  0.4606  0.0035
  884MOL0     C16605  -1.690   0.353   6.097  0.0768 -0.3997 -0.1685
  884MOL0     N16606  -1.096   0.463   5.564 -0.2194  0.6618  0.2061
  884MOL0     N16607  -1.012   0.499   5.481 -1.0282 -0.2506  0.1293
  884MOL0     C16608   0.162   0.540   4.912  0.0449 -0.2029 -0.1276
  884MOL0     C16609   0.301   0.548   4.874 -0.5633 -0.9228  0.4680
  884MOL0     C16610   0.709   0.494   4.683  1.0050  0.0050  0.3827
  884MOL0     C16611   0.731   0.567   4.567 -0.3032  0.2391  0.3037
  884MOL0     C16612   0.848   0.562   4.493  0.3856 -0.3026 -0.6731
  884MOL0     C16613   0.955   0.482   4.539  0.2818  0.7498 -1.1347
  884MOL0     O16614   1.073   0.483   4.476  0.0612 -0.5763  0.6829
  884MOL0     C16615   1.189   0.410   4.520 -0.2021  0.1390  0.3787
  884MOL0     C16616   1.281   0.404   4.399 -0.0257  0.5166  0.0819
  884MOL0     C16617   1.344   0.535   4.348  0.1922  0.0850  0.0563
  884MOL0     C16618   1.382   0.539   4.202 -0.9056  0.5605  0.5797
  884MOL0     C16619   1.495   0.444   4.179  0.2012 -0.8042  0.4315
  884MOL0     C16620   1.578   0.361   4.159 -1.4363  0.3929 -0.3499
  884MOL0     C16621   0.938   0.408   4.660 -0.7161  0.5215  0.7360
  884MOL0     C16622   0.821   0.419   4.735  0.5920 -0.0727  1.0713
  884MOL0     H16623   0.284   0.400   4.567  0.2467 -1.5910  0.7384
  884MOL0     H16624   0.040   0.399   4.628  0.5467 -0.1870 -1.4635
  884MOL0     H16625  -0.083   0.583   5.017 -0.5103 -0.2327  0.7626
  884MOL0     H16626  -0.097   0.406   5.032  2.2396 -0.2822 -0.0310
  884MOL0     H16627  -0.295   0.429   4.860 -0.0476  0.6895 -0.7199
  884MOL0     H16628  -0.298   0.592   4.898  0.5579  1.8299  1.7725
  884MOL0     H16629  -0.322   0.510   5.156  1.3762 -0.4433 -0.3526
  884MOL0     H16630  -0.357   0.359   5.085  0.0116  1.1996  2.4978
  884MOL0     H16631  -0.523   0.598   4.985 -3.8599  0.9339  1.5019
  884MOL0     H16632  -0.562   0.433   4.963 -0.9886  0.0121  1.2875
  884MOL0     H16633  -0.699   0.545   5.115  0.9353  1.0674 -0.5819
  884MOL0     H16634  -0.558   0.585   5.208 -0.8043 -0.0154  1.6700
  884MOL0     H16635  -0.516   0.350   5.259 -0.6561 -0.6553  2.8986
  884MOL0     H16636  -0.662   0.309   5.161 -1.3918  0.3692  0.7587
  884MOL0     H16637  -0.685   0.332   5.434  1.4763 -0.2848 -0.3443
  884MOL0     H16638  -0.709   0.502   5.399  2.3451 -0.2890 -0.2459
  884MOL0     H16639  -0.868   0.274   5.269 -1.9938  1.0827 -1.1437
  884MOL0     H16640  -0.889   0.451   5.247 -3.6983  0.6663  2.2320
  884MOL0     H16641  -0.983   0.175   5.478 -0.8518 -0.7776 -1.3703
  884MOL0     H16642  -1.111   0.203   5.743 -0.7072  2.6606  1.7008
  884MOL0     H16643  -1.226   0.162   5.611 -0.5340 -0.8207  0.0850
  884MOL0     H16644  -1.368   0.336   5.675 -0.2859  3.1032  0.9945
  884MOL0     H16645  -1.250   0.403   5.797 -1.4360  0.2781  1.6774
  884MOL0     H16646  -1.390   0.139   5.822  0.8113  0.2033 -2.3395
  884MOL0     H16647  -1.272   0.200   5.943  0.4782 -0.7642 -0.7025
  884MOL0     H16648  -1.539   0.324   5.874  0.6907 -0.0066  0.1011
  884MOL0     H16649  -1.433   0.386   6.001 -0.7997  0.6910  0.1621
  884MOL0     H16650  -1.616   0.043   6.217  1.8812  0.8992  0.3176
  884MOL0     H16651  -1.795   0.097   6.363  0.6210 -1.1476 -0.4339
  884MOL0     H16652  -1.966   0.462   6.662  0.5201  1.1474  0.0006
  884MOL0     H16653  -2.144   0.533   6.813  0.4852  0.0713 -1.0515
  884MOL0     H16654  -2.551   0.626   6.615  2.6866 -1.5739 -0.5877
  884MOL0     H16655  -2.449   0.762   6.625 -2.4278  1.0313  0.1218
  884MOL0     H16656  -2.622   0.670   6.851  0.9881  0.6329  0.0028
  884MOL0     H16657  -2.668   0.800   6.747  0.7971 -2.0216 -2.0526
  884MOL0     H16658  -2.482   0.934   6.806 -1.8211  0.8548  0.2741
  884MOL0     H16659  -2.395   0.800   6.891  0.3127  0.8307  1.0082
  884MOL0     H16660  -2.637   0.947   6.997 -0.7988 -1.5553 -0.9389
  884MOL0     H16661  -2.590   0.780   7.049  0.5377  0.5967  2.1365
  884MOL0     H16662  -2.406   1.007   7.094  0.6534 -0.9096 -2.0709
  884MOL0     H16663  -2.379   0.831   7.113 -0.8969 -0.3223  2.8847
  884MOL0     H16664  -2.588   0.831   7.256 -0.7274  0.2837 -0.3397
  884MOL0     H16665  -2.601   1.005   7.240 -0.5186 -0.1457  0.6764
  884MOL0     H16666  -2.359   0.872   7.346 -0.1917  0.9008 -1.7126
  884MOL0     H16667  -2.401   1.052   7.346 -0.1670  1.3465 -2.2170
  884MOL0     H16668  -2.414   0.972   7.575  0.2330  1.1858 -0.2864
  884MOL0     H16669  -2.507   0.823   7.529 -0.2130 -0.7971 -3.6314
  884MOL0     H16670  -2.414   0.529   6.462 -0.7641 -2.3407 -0.7900
  884MOL0     H16671  -2.212   0.460   6.328  1.5650 -0.2768  0.0596
  884MOL0     H16672  -1.850   0.486   6.180 -3.7600 -1.2049 -0.3805
  884MOL0     H16673  -1.674   0.429   6.022 -0.2667  0.5945  0.7408
  884MOL0     H16674   0.134   0.572   5.012 -1.8282 -2.3091  0.0849
  884MOL0     H16675   0.374   0.592   4.942 -1.0024 -1.1113  1.0742
  884MOL0     H16676   0.653   0.639   4.545 -0.8253 -0.4047  0.0459
  884MOL0     H16677   0.862   0.628   4.408  0.5242 -0.7068 -0.9648
  884MOL0     H16678   1.162   0.308   4.547 -1.2251  0.6982  1.5980
  884MOL0     H16679   1.241   0.464   4.599 -0.1620  2.7070 -1.2725
  884MOL0     H16680   1.355   0.329   4.428  2.0199  2.8875  1.4304
  884MOL0     H16681   1.223   0.371   4.313  1.1370 -2.0967  0.2300
  884MOL0     H16682   1.427   0.561   4.414 -1.4004 -0.9202  2.6628
  884MOL0     H16683   1.265   0.610   4.362 -0.2583 -0.2196 -0.7824
  884MOL0     H16684   1.299   0.510   4.137  0.4376 -0.9289 -0.5645
  884MOL0     H16685   1.417   0.636   4.166  2.1788 -0.3462  0.8631
  884MOL0     H16686   1.640   0.274   4.163 -0.0150  1.4225  0.9884
  884MOL0     H16687   1.010   0.343   4.708 -0.9785 -0.0721  0.3340
  884MOL0     H16688   0.821   0.362   4.828  2.7703 -0.5382  0.8483
  885MOL0     O16689  10.351  10.059   7.514 -0.6454  1.0211 -0.0852
  885MOL0     C16690  10.258  10.134   7.544 -1.0752  0.6752 -0.6194
  885MOL0     O16691  10.215  10.234   7.463 -0.3718 -0.4476  0.1001
  885MOL0     C16692  10.303  10.246   7.359 -0.3946 -0.7140  0.0211
  885MOL0     C16693  10.411  10.342   7.369  0.1689  0.4575 -0.3447
  885MOL0     C16694  10.493  10.372   7.260  0.0417 -0.3123 -0.1320
  885MOL0     C16695  10.466  10.314   7.142 -0.5195  0.0504  0.4787
  885MOL0     O16696  10.552  10.357   7.038  0.5936  0.0615 -0.7398
  885MOL0     C16697  10.514  10.312   6.905 -0.4713 -0.8854 -0.6037
  885MOL0     C16698  10.615  10.366   6.809 -0.0397  1.2429  0.3366
  885MOL0     C16699  10.759  10.335   6.855  0.0677  0.4156 -0.2502
  885MOL0     C16700  10.863  10.383   6.752 -0.2631  0.1398  0.2404
  885MOL0     C16701  11.016  10.374   6.791  0.0060  0.2141 -0.0294
  885MOL0     C16702  11.101  10.460   6.691 -0.6081  1.0564 -0.4895
  885MOL0     C16703  11.246  10.421   6.716  0.1313  0.0350  0.4437
  885MOL0     C16704  11.335  10.488   6.604  0.3725 -0.2417  0.7148
  885MOL0     N16705  11.321  10.629   6.607 -0.4835  0.2064 -0.3275
  885MOL0     C16706  11.388  10.710   6.691  0.1021  0.1505 -0.5461
  885MOL0     C16707  11.350  10.835   6.654 -0.3161  0.4238  0.6925
  885MOL0     C16708  11.415  10.957   6.718 -0.1622  0.8552  0.8201
  885MOL0     C16709  11.308  11.040   6.779  0.4189 -0.6203 -1.1839
  885MOL0     C16710  11.224  10.966   6.887 -1.5539 -0.2694  0.5206
  885MOL0     C16711  11.105  11.048   6.937 -0.1190  0.0403 -0.7636
  885MOL0     O16712  11.156  11.164   7.002  1.0729 -0.0507  0.0714
  885MOL0     C16713  11.069  11.273   6.996 -0.0257 -0.2276 -0.4564
  885MOL0     C16714  10.962  11.309   7.082 -0.0262  0.4008  0.1816
  885MOL0     C16715  10.887  11.430   7.074 -0.4582  0.0149  0.1810
  885MOL0     C16716  10.915  11.524   6.968 -0.0575  0.0110 -0.4156
  885MOL0     C16717  10.846  11.650   6.952  0.1563 -0.0515  0.1221
  885MOL0     O16718  10.732  11.662   7.016  0.2400  0.0010 -0.0550
  885MOL0     C16719  10.660  11.779   6.997 -1.2722  0.6058 -0.2849
  885MOL0     C16720  10.560  11.789   6.903 -0.1373  1.2251  0.6773
  885MOL0     C16721  10.490  11.904   6.877  0.1884  0.2303  0.0559
  885MOL0     C16722  10.511  12.015   6.951 -0.3266  0.2944 -0.4896
  885MOL0     O16723  10.448  12.133   6.918  0.4495 -0.3036 -0.1662
  885MOL0     C16724  10.506  12.261   6.935  0.2552 -0.4366  0.4378
  885MOL0     C16725  10.606  12.269   6.820 -0.8511 -0.2886  0.2965
  885MOL0     C16726  10.668  12.405   6.787 -0.0394 -0.2601 -0.2003
  885MOL0     C16727  10.570  12.517   6.806  0.1110  0.4653  0.1420
  885MOL0     C16728  10.628  12.652   6.760 -0.7715 -0.0165 -0.2700
  885MOL0     C16729  10.532  12.774   6.772  0.7827  0.1164 -0.3097
  885MOL0     C16730  10.405  12.741   6.694 -0.4204 -0.5121  0.1284
  885MOL0     C16731  10.316  12.872   6.680 -0.4403  0.7344  0.7536
  885MOL0    Cl16732  10.279  12.936   6.839  0.3440  0.3115 -0.5404
  885MOL0     C16733  10.608  12.007   7.051 -0.5404  0.6202 -0.2207
  885MOL0     C16734  10.681  11.894   7.075 -0.1538 -0.5098  0.1379
  885MOL0     O16735  10.895  11.731   6.876  0.5374 -0.0563  0.2042
  885MOL0     C16736  11.025  11.495   6.885 -1.0986  0.3487  0.3592
  885MOL0     C16737  11.094  11.378   6.898 -0.0681 -0.2442 -0.4852
  885MOL0     N16738  11.247  10.824   6.559 -0.1917  0.5264  0.0791
  885MOL0     N16739  11.236  10.700   6.532  0.3930 -0.3135  0.1837
  885MOL0     C16740  10.372  10.215   7.132 -0.5341 -0.4039 -0.5213
  885MOL0     C16741  10.284  10.183   7.235  0.0532  0.1959  0.0750
  885MOL0     C16742  10.190  10.113   7.674 -0.5552  0.1367  1.1226
  885MOL0     C16743  10.237  10.025   7.776 -0.8874  0.1537  0.1534
  885MOL0     C16744  10.176  10.022   7.906 -0.0168 -0.3921  0.8171
  885MOL0     C16745  10.072  10.107   7.942  0.0705 -0.1230 -0.4653
  885MOL0     O16746  10.039  10.107   8.069  0.5112  0.0135 -0.5964
  885MOL0     C16747   9.920  10.168   8.101  0.7607 -0.3621 -0.6855
  885MOL0     C16748   9.788  10.101   8.054 -0.5237  0.5460  0.0391
  885MOL0     C16749   9.790   9.946   8.082  0.0359 -0.3181 -0.6649
  885MOL0     C16750   9.660   9.892   8.158 -1.2001 -0.1048  0.3548
  885MOL0     C16751   9.542   9.943   8.089 -0.4927  0.4823 -0.1007
  885MOL0     C16752   9.438   9.969   8.035 -0.0325 -0.3035  0.6239
  885MOL0     C16753  10.025  10.191   7.839  0.5905  0.7782  0.4361
  885MOL0     C16754  10.085  10.198   7.707 -1.0731  0.4874 -0.0052
  885MOL0     H16755  10.429  10.391   7.463 -0.2979 -0.8564  0.4578
  885MOL0     H16756  10.581  10.431   7.281 -0.7438  0.1262  2.1801
  885MOL0     H16757  10.414  10.350   6.881 -1.3330 -0.1479  3.4042
  885MOL0     H16758  10.513  10.203   6.901  2.9563 -1.2254  2.8239
  885MOL0     H16759  10.597  10.473   6.795 -0.2110  1.4945  2.2492
  885MOL0     H16760  10.603  10.312   6.714  1.3243  0.2691  0.6954
  885MOL0     H16761  10.767  10.226   6.858  0.0584  0.3440 -1.9484
  885MOL0     H16762  10.777  10.381   6.953 -0.0790 -2.3336  1.1734
  885MOL0     H16763  10.841  10.334   6.657 -4.1535  2.1193 -0.0404
  885MOL0     H16764  10.836  10.486   6.729  1.3032  0.4654 -0.2604
  885MOL0     H16765  11.049  10.270   6.791  1.0500  0.5035 -1.5342
  885MOL0     H16766  11.022  10.407   6.895 -1.7210 -0.5968  0.3697
  885MOL0     H16767  11.082  10.564   6.722 -1.3222  0.1741  2.3248
  885MOL0     H16768  11.073  10.451   6.586  1.3049 -0.6575 -0.8989
  885MOL0     H16769  11.286  10.435   6.816 -2.2247 -0.4194  1.5051
  885MOL0     H16770  11.265  10.315   6.696  1.9983  0.3978  0.0139
  885MOL0     H16771  11.301  10.458   6.505  0.7254 -0.3099  0.6124
  885MOL0     H16772  11.439  10.458   6.620  0.4768 -1.0501 -1.2109
  885MOL0     H16773  11.455  10.696   6.775  0.7094  2.6403 -0.5285
  885MOL0     H16774  11.461  11.015   6.637 -0.3080  1.1616  0.9554
  885MOL0     H16775  11.486  10.931   6.797 -1.0176  2.6710  2.2929
  885MOL0     H16776  11.250  11.090   6.701 -0.1913  1.0158  0.2383
  885MOL0     H16777  11.353  11.126   6.832 -3.4710  0.5862  0.5483
  885MOL0     H16778  11.185  10.875   6.841  0.8160  0.5713 -3.6510
  885MOL0     H16779  11.290  10.943   6.971  0.0091  5.0062  1.0855
  885MOL0     H16780  11.046  10.975   6.993  0.8308  0.1739  0.4450
  885MOL0     H16781  11.040  11.074   6.853  0.1551 -1.2804 -1.4068
  885MOL0     H16782  10.937  11.240   7.163  0.3586  0.0971  0.0484
  885MOL0     H16783  10.807  11.463   7.139  0.1662 -0.3320  1.1465
  885MOL0     H16784  10.554  11.706   6.833  0.4605  2.6945 -1.1771
  885MOL0     H16785  10.434  11.914   6.785  1.4975 -1.7233 -1.0293
  885MOL0     H16786  10.568  12.277   7.024  1.7895 -0.3054 -0.6241
  885MOL0     H16787  10.432  12.341   6.920 -0.9751 -1.8766 -1.6021
  885MOL0     H16788  10.569  12.237   6.722 -0.0929  0.6232 -0.3001
  885MOL0     H16789  10.687  12.200   6.844  0.4976  1.2624  0.3526
  885MOL0     H16790  10.709  12.394   6.686  2.0771  0.6072  0.5053
  885MOL0     H16791  10.755  12.421   6.851  0.9260  0.0200 -1.5322
  885MOL0     H16792  10.479  12.499   6.749 -0.3959  0.5002  0.9319
  885MOL0     H16793  10.537  12.528   6.910  1.1203  1.0194  0.4187
  885MOL0     H16794  10.665  12.646   6.657  0.3073  0.0224  0.0972
  885MOL0     H16795  10.707  12.683   6.829 -1.2862 -0.5072  0.5630
  885MOL0     H16796  10.572  12.867   6.731  1.5648  0.1262  0.4508
  885MOL0     H16797  10.505  12.798   6.876  2.0415 -1.4190  0.4194
  885MOL0     H16798  10.432  12.704   6.595  2.6625 -1.8482  1.3560
  885MOL0     H16799  10.351  12.673   6.761 -0.3905  0.3637  1.0767
  885MOL0     H16800  10.227  12.842   6.624  1.6691  0.0957 -2.5709
  885MOL0     H16801  10.381  12.943   6.630  1.2981 -2.8329 -2.6154
  885MOL0     H16802  10.631  12.096   7.109  4.3417 -0.4161 -0.1129
  885MOL0     H16803  10.744  11.888   7.163 -1.2615  0.0198  1.0014
  885MOL0     H16804  11.052  11.559   6.801  1.6207  2.1560  2.4162
  885MOL0     H16805  11.180  11.366   6.833  0.3060  2.9308 -0.7275
  885MOL0     H16806  10.348  10.172   7.035 -1.4038  0.1861 -0.5795
  885MOL0     H16807  10.197  10.123   7.209  0.8266 -0.7150 -0.5312
  885MOL0     H16808  10.323   9.962   7.755 -1.4032 -0.2730 -0.7651
  885MOL0     H16809  10.213   9.957   7.985  1.8115  1.7812  1.8351
  885MOL0     H16810   9.920  10.271   8.064 -1.0717 -0.0315  0.1008
  885MOL0     H16811   9.914  10.177   8.210  1.7328 -0.8136 -0.5884
  885MOL0     H16812   9.704  10.157   8.095  0.0460  1.9365 -0.6428
  885MOL0     H16813   9.775  10.109   7.946 -2.7801  0.2357  0.2262
  885MOL0     H16814   9.872   9.912   8.145  0.3852 -0.5836 -1.2563
  885MOL0     H16815   9.795   9.894   7.986 -1.9938 -0.8419 -0.5462
  885MOL0     H16816   9.666   9.783   8.152  1.3371  0.0709 -2.1077
  885MOL0     H16817   9.654   9.927   8.262  2.3952 -3.0004  1.7606
  885MOL0     H16818   9.344   9.984   7.987  0.7928  1.2546 -0.5916
  885MOL0     H16819   9.938  10.252   7.864  1.8692  1.3759  4.0543
  885MOL0     H16820  10.036  10.271   7.643 -0.6520 -0.7005 -1.7557
  886MOL0     O16821   9.881  10.523   1.435  0.1655 -0.3203  0.4954
  886MOL0     C16822   9.900  10.431   1.352 -0.5277 -1.1656 -0.1176
  886MOL0     O16823   9.805  10.348   1.304 -0.4944  0.1351  0.0611
  886MOL0     C16824   9.671  10.360   1.339  0.2872 -0.2476  0.7149
  886MOL0     C16825   9.576  10.339   1.241 -0.5223  0.8287 -0.3225
  886MOL0     C16826   9.443  10.354   1.276  0.0578 -0.2188 -0.0157
  886MOL0     C16827   9.398  10.383   1.403  0.2632 -0.6566 -0.7723
  886MOL0     O16828   9.258  10.392   1.417 -0.0022  0.6953 -0.5060
  886MOL0     C16829   9.207  10.353   1.542 -0.2534 -0.0297 -0.1678
  886MOL0     C16830   9.078  10.291   1.524 -0.1790 -0.0931  0.1687
  886MOL0     C16831   9.021  10.239   1.658 -0.1151 -0.1482  0.6170
  886MOL0     C16832   8.878  10.185   1.646  0.4278 -0.1761 -0.4923
  886MOL0     C16833   8.759  10.284   1.611 -1.1147  0.2488 -0.7565
  886MOL0     C16834   8.636  10.204   1.581  0.7611  0.4846 -0.1559
  886MOL0     C16835   8.520  10.282   1.512 -0.0434  0.3584  0.1363
  886MOL0     C16836   8.489  10.427   1.569  0.3819  0.1552  0.8335
  886MOL0     N16837   8.433  10.408   1.711 -0.2300  0.1680 -0.1721
  886MOL0     C16838   8.306  10.369   1.739  1.3148 -0.0891  0.6612
  886MOL0     C16839   8.296  10.390   1.874  0.4462  0.4381 -0.2738
  886MOL0     C16840   8.174  10.369   1.959  0.5954 -0.1130 -0.0478
  886MOL0     C16841   8.111  10.507   2.007  1.0141 -0.1328  0.1270
  886MOL0     C16842   8.016  10.570   1.897  0.5686  0.2110  0.3846
  886MOL0     C16843   7.925  10.683   1.944 -0.0929 -0.1120  0.4172
  886MOL0     O16844   7.890  10.749   1.822  0.0170 -0.1393 -0.4124
  886MOL0     C16845   7.825  10.866   1.839  0.7328  0.4229  0.5055
  886MOL0     C16846   7.703  10.867   1.907  0.0649  0.4687  0.5048
  886MOL0     C16847   7.627  10.982   1.898  0.0664 -0.3604 -0.0455
  886MOL0     C16848   7.664  11.097   1.828  0.0245 -1.0592  0.3446
  886MOL0     C16849   7.577  11.217   1.811  0.4051 -0.2626 -0.8186
  886MOL0     O16850   7.464  11.211   1.886  0.4596  0.3859  0.1100
  886MOL0     C16851   7.361  11.289   1.853  0.0505 -0.0744 -0.0862
  886MOL0     C16852   7.245  11.231   1.824 -0.2334  0.3117  0.0414
  886MOL0     C16853   7.123  11.306   1.800 -0.0833 -0.2157 -0.0727
  886MOL0     C16854   7.129  11.446   1.803 -0.0399 -0.4906  0.3215
  886MOL0     O16855   7.017  11.525   1.784  0.2317  0.4422 -0.2390
  886MOL0     C16856   6.894  11.458   1.778 -0.2690  0.0170 -0.1172
  886MOL0     C16857   6.793  11.572   1.780  0.6275  0.3128 -0.0280
  886MOL0     C16858   6.648  11.514   1.774  0.1102  0.2938  1.1459
  886MOL0     C16859   6.558  11.634   1.779 -0.2316  0.8791 -0.1153
  886MOL0     C16860   6.414  11.598   1.785  0.6879 -0.5030  0.1078
  886MOL0     C16861   6.343  11.731   1.791  0.3772 -0.3613  1.1456
  886MOL0     C16862   6.197  11.702   1.809  0.2706  0.3258 -0.0560
  886MOL0     C16863   6.127  11.634   1.692  0.2053  0.2896 -0.0058
  886MOL0    Cl16864   6.112  11.740   1.548 -0.2460  0.3124 -0.0065
  886MOL0     C16865   7.254  11.508   1.813 -0.6443 -0.6534  0.9019
  886MOL0     C16866   7.373  11.432   1.843  0.8518  0.4160 -0.5810
  886MOL0     O16867   7.603  11.304   1.732 -0.6334 -0.6262  0.4059
  886MOL0     C16868   7.784  11.089   1.757 -0.6653  0.2451  0.2494
  886MOL0     C16869   7.869  10.979   1.772  0.2770  0.4402  0.5140
  886MOL0     N16870   8.416  10.433   1.926 -0.2122  0.3183  0.0049
  886MOL0     N16871   8.499  10.440   1.825 -1.0595  0.0711 -0.5993
  886MOL0     C16872   9.495  10.394   1.505 -0.2140  0.9806  0.3541
  886MOL0     C16873   9.628  10.384   1.468  0.5825 -0.1815 -0.0168
  886MOL0     C16874  10.043  10.403   1.321  1.0303  0.0515 -0.6925
  886MOL0     C16875  10.139  10.487   1.360 -0.3020 -1.0339 -0.7350
  886MOL0     C16876  10.273  10.461   1.338 -0.1897 -0.5160  0.1537
  886MOL0     C16877  10.308  10.348   1.265  0.4389 -0.1110 -0.0069
  886MOL0     O16878  10.440  10.331   1.238  0.2395  0.2443 -0.0465
  886MOL0     C16879  10.478  10.235   1.135  0.1176  0.2197  0.6557
  886MOL0     C16880  10.626  10.246   1.099 -0.0486  0.8235  0.4576
  886MOL0     C16881  10.678  10.387   1.071 -0.5795  0.1992 -0.3349
  886MOL0     C16882  10.813  10.384   0.993  0.5599  0.2898 -0.5694
  886MOL0     C16883  10.928  10.350   1.078  0.7248  0.7219 -0.6220
  886MOL0     C16884  11.016  10.313   1.153 -0.0800 -0.0794 -0.6682
  886MOL0     C16885  10.208  10.254   1.231 -0.1034 -0.3797  0.3183
  886MOL0     C16886  10.075  10.279   1.268  1.2237  0.2501  0.5610
  886MOL0     H16887   9.600  10.322   1.137  0.2457 -2.0031  0.2064
  886MOL0     H16888   9.364  10.350   1.201 -0.3944  1.9850  0.2466
  886MOL0     H16889   9.198  10.432   1.618  0.8677  0.3743 -0.4357
  886MOL0     H16890   9.270  10.276   1.586 -0.9260 -0.1173  0.6615
  886MOL0     H16891   9.090  10.207   1.455  0.6261  0.8180 -0.8265
  886MOL0     H16892   9.011  10.365   1.480  0.0174  1.0141  1.6305
  886MOL0     H16893   9.033  10.319   1.731  1.1462 -0.4681  0.7754
  886MOL0     H16894   9.086  10.159   1.693 -0.8638 -2.2150 -2.2865
  886MOL0     H16895   8.875  10.098   1.580 -0.3622  1.3869 -2.6343
  886MOL0     H16896   8.850  10.157   1.748  1.4587  1.6522  0.3437
  886MOL0     H16897   8.789  10.335   1.519  2.0934  0.1967  0.1417
  886MOL0     H16898   8.741  10.352   1.695  4.3013 -0.6725  1.5906
  886MOL0     H16899   8.593  10.174   1.677 -1.3276  3.0971 -0.1551
  886MOL0     H16900   8.671  10.120   1.520 -0.2242  0.9991 -1.5017
  886MOL0     H16901   8.526  10.298   1.404 -3.7924 -0.6460 -0.3631
  886MOL0     H16902   8.428  10.223   1.514 -0.4098  0.4634 -4.2544
  886MOL0     H16903   8.412  10.482   1.515 -0.0089 -0.5642  0.6480
  886MOL0     H16904   8.580  10.488   1.564 -0.3471  1.1364 -1.2425
  886MOL0     H16905   8.234  10.329   1.668  1.0724  0.5265  0.5526
  886MOL0     H16906   8.209  10.322   2.051  0.5552  1.1439  0.6368
  886MOL0     H16907   8.096  10.310   1.909  0.6431 -0.0997 -0.1383
  886MOL0     H16908   8.187  10.584   2.025  1.0483 -0.7161  2.9837
  886MOL0     H16909   8.055  10.489   2.099 -1.3157 -0.9583 -1.3671
  886MOL0     H16910   8.079  10.607   1.816  0.8189 -1.2440 -0.1268
  886MOL0     H16911   7.962  10.490   1.846  0.4579 -0.4171  1.4561
  886MOL0     H16912   7.982  10.752   2.007  2.5657 -1.3827 -0.4551
  886MOL0     H16913   7.846  10.640   2.007  0.6466 -1.4153  0.4926
  886MOL0     H16914   7.659  10.778   1.951 -1.0658  1.0269  0.5585
  886MOL0     H16915   7.533  10.980   1.953  0.2595  2.5648  0.5622
  886MOL0     H16916   7.246  11.122   1.824  0.0991  0.3090 -0.3700
  886MOL0     H16917   7.039  11.240   1.782  0.6430 -1.5353  1.1997
  886MOL0     H16918   6.878  11.394   1.866  2.4896  2.4385  2.3748
  886MOL0     H16919   6.871  11.405   1.686  0.1110 -0.1006 -0.1442
  886MOL0     H16920   6.803  11.625   1.684 -1.0814  0.6290 -0.0579
  886MOL0     H16921   6.804  11.645   1.860  1.4241  0.3982 -0.2078
  886MOL0     H16922   6.648  11.457   1.867  1.5927  0.3129  1.1849
  886MOL0     H16923   6.630  11.458   1.682 -1.4155  1.9072  0.3895
  886MOL0     H16924   6.569  11.690   1.873 -4.7752  0.2679  1.0054
  886MOL0     H16925   6.577  11.702   1.695 -0.8165 -2.6517 -3.4093
  886MOL0     H16926   6.412  11.530   1.871 -0.5390 -1.0605 -0.3307
  886MOL0     H16927   6.398  11.546   1.690 -2.4066 -1.0480  0.8193
  886MOL0     H16928   6.361  11.797   1.705  0.5152  0.4802  1.8103
  886MOL0     H16929   6.372  11.788   1.879  1.7802 -1.3310  1.3497
  886MOL0     H16930   6.177  11.642   1.899  1.3135 -1.9007 -1.2221
  886MOL0     H16931   6.151  11.800   1.828 -0.0837 -0.0870  1.3391
  886MOL0     H16932   6.035  11.593   1.735  1.4150 -2.4292  0.2159
  886MOL0     H16933   6.185  11.548   1.659  0.0341 -0.2033  0.9345
  886MOL0     H16934   7.270  11.615   1.803 -1.3343 -0.7784 -2.9963
  886MOL0     H16935   7.469  11.474   1.871  1.5163 -1.9062  0.9496
  886MOL0     H16936   7.820  11.171   1.696  0.7526  0.8799  1.8376
  886MOL0     H16937   7.963  10.964   1.720 -0.4930 -2.5662 -0.2389
  886MOL0     H16938   9.452  10.407   1.604 -0.6228  1.3171  0.1346
  886MOL0     H16939   9.695  10.406   1.551  0.2469 -1.3634  0.6096
  886MOL0     H16940  10.112  10.575   1.418 -1.2505 -2.7369  1.5523
  886MOL0     H16941  10.350  10.529   1.373  0.3839 -1.7187  1.2809
  886MOL0     H16942  10.422  10.255   1.043 -0.7614  3.0031  1.6949
  886MOL0     H16943  10.463  10.133   1.169  2.7905 -1.2392 -2.0789
  886MOL0     H16944  10.683  10.187   1.172  3.2145 -0.2894 -2.6881
  886MOL0     H16945  10.634  10.187   1.007  0.5344 -0.2217  1.1576
  886MOL0     H16946  10.702  10.440   1.164 -0.7243 -0.2550 -0.0355
  886MOL0     H16947  10.592  10.434   1.023  0.0115  1.5904 -0.0893
  886MOL0     H16948  10.805  10.319   0.905  1.0951  2.3958 -2.2444
  886MOL0     H16949  10.835  10.486   0.960  1.1538 -0.5968 -3.0791
  886MOL0     H16950  11.097  10.284   1.217 -1.6211 -1.0522  0.9212
  886MOL0     H16951  10.232  10.177   1.159  2.2927  0.4131  0.1936
  886MOL0     H16952   9.997  10.208   1.242  2.2057 -0.1477 -1.5605
  887MOL0     O16953   0.861   3.271   1.316 -1.4015 -0.5636 -0.2360
  887MOL0     C16954   0.940   3.177   1.293 -1.4822 -0.1470 -1.0339
  887MOL0     O16955   0.912   3.053   1.301  1.3533  0.5305 -0.0100
  887MOL0     C16956   0.782   3.012   1.302  0.0300  0.2929  0.3604
  887MOL0     C16957   0.757   2.893   1.230  0.6067 -0.5251  0.1605
  887MOL0     C16958   0.635   2.827   1.229 -0.4840 -0.0572  0.1388
  887MOL0     C16959   0.526   2.883   1.299 -0.7816 -0.4232 -1.0022
  887MOL0     O16960   0.412   2.807   1.302  0.3378  0.9872 -0.1603
  887MOL0     C16961   0.300   2.834   1.394  0.7152  0.1550  0.3666
  887MOL0     C16962   0.178   2.733   1.352 -0.2756 -0.5417 -0.5741
  887MOL0     C16963   0.109   2.675   1.479  0.6166  0.1192  0.0254
  887MOL0     C16964  -0.026   2.616   1.433  0.1778  0.2439  0.0185
  887MOL0     C16965  -0.101   2.545   1.549 -0.1593 -0.5439 -0.2751
  887MOL0     C16966  -0.251   2.514   1.514  0.3289  0.1756  0.1823
  887MOL0     C16967  -0.296   2.403   1.614 -0.1220 -0.1553 -0.6426
  887MOL0     C16968  -0.441   2.354   1.593  0.6466  0.8361 -0.4607
  887MOL0     N16969  -0.462   2.297   1.461  0.9395 -0.0795 -0.0465
  887MOL0     C16970  -0.407   2.189   1.399  0.1965  0.0814  0.2031
  887MOL0     C16971  -0.459   2.189   1.267 -0.5332  0.0445 -0.6103
  887MOL0     C16972  -0.404   2.094   1.161  0.5600 -0.0184  0.2797
  887MOL0     C16973  -0.255   2.072   1.157  0.4467  0.5145  0.3190
  887MOL0     C16974  -0.170   2.202   1.159  0.5868  0.5361 -0.1233
  887MOL0     C16975  -0.018   2.171   1.175  1.0354  0.7827  0.6066
  887MOL0     O16976  -0.005   2.151   1.311  0.4453 -0.1997  0.2672
  887MOL0     C16977   0.114   2.187   1.367 -0.0508 -0.3486  0.8915
  887MOL0     C16978   0.121   2.207   1.499 -0.0635  0.7863 -0.1725
  887MOL0     C16979   0.236   2.241   1.570 -0.5490  0.4942  0.1515
  887MOL0     C16980   0.350   2.272   1.505 -0.1610 -1.1034  0.6456
  887MOL0     C16981   0.469   2.312   1.574 -0.2273  1.0468 -0.5080
  887MOL0     O16982   0.520   2.432   1.535 -0.5708  0.4112 -0.3143
  887MOL0     C16983   0.640   2.485   1.582  0.2985 -0.1711 -0.1495
  887MOL0     C16984   0.747   2.419   1.644 -0.1969 -0.0514 -0.6314
  887MOL0     C16985   0.868   2.486   1.677 -0.2071 -0.1545 -0.9385
  887MOL0     C16986   0.891   2.616   1.648  0.4199  0.3333  1.0804
  887MOL0     O16987   1.008   2.680   1.673 -0.2686  0.4924  0.3063
  887MOL0     C16988   1.131   2.611   1.630  0.3549  0.4369 -0.4144
  887MOL0     C16989   1.245   2.707   1.616  0.7286 -0.6652  0.7265
  887MOL0     C16990   1.365   2.608   1.579 -0.9029  0.4025 -0.1678
  887MOL0     C16991   1.485   2.709   1.561  0.7170 -0.4143  0.6413
  887MOL0     C16992   1.607   2.634   1.516 -0.4929  0.5015 -0.7163
  887MOL0     C16993   1.714   2.735   1.477 -1.1078  0.1082  0.3790
  887MOL0     C16994   1.846   2.666   1.444 -0.3477 -0.0842  0.1034
  887MOL0     C16995   1.965   2.757   1.431 -0.6134  0.0549 -0.4240
  887MOL0    Cl16996   1.933   2.928   1.401 -0.2127 -0.1025 -0.2486
  887MOL0     C16997   0.785   2.679   1.576  0.0674  0.2658  0.2272
  887MOL0     C16998   0.659   2.619   1.546  0.7529  0.2490 -0.8916
  887MOL0     O16999   0.489   2.247   1.676  0.1006 -0.0660  0.7604
  887MOL0     C17000   0.345   2.268   1.367  0.1641 -0.3042  0.1065
  887MOL0     C17001   0.232   2.219   1.297 -0.5770  0.1159  1.0550
  887MOL0     N17002  -0.553   2.287   1.258 -0.5573 -0.7980  0.2386
  887MOL0     N17003  -0.555   2.355   1.375  0.2347 -0.3837 -0.5046
  887MOL0     C17004   0.553   2.994   1.370 -0.3750 -0.3576 -0.2785
  887MOL0     C17005   0.677   3.057   1.373 -0.5795 -0.7185 -0.4899
  887MOL0     C17006   1.085   3.209   1.269 -0.4986 -0.1886 -0.1201
  887MOL0     C17007   1.185   3.122   1.296  0.1826  0.0409 -0.7719
  887MOL0     C17008   1.316   3.159   1.296 -0.3129 -0.0630  0.1320
  887MOL0     C17009   1.357   3.280   1.245 -0.4399 -0.3956 -0.4214
  887MOL0     O17010   1.488   3.313   1.236  0.5549  0.5442  0.2297
  887MOL0     C17011   1.533   3.428   1.170 -0.9457 -0.5218  0.3824
  887MOL0     C17012   1.689   3.421   1.142 -0.9336 -0.3036 -0.5646
  887MOL0     C17013   1.733   3.316   1.039  0.1649 -0.1980 -0.3220
  887MOL0     C17014   1.886   3.296   1.043  0.7435  0.1584  1.0664
  887MOL0     C17015   1.930   3.203   0.940 -0.5954 -0.4714  0.1543
  887MOL0     C17016   1.969   3.130   0.852 -1.2589 -0.3020  0.2181
  887MOL0     C17017   1.260   3.367   1.213 -0.6862 -0.1524 -0.4433
  887MOL0     C17018   1.126   3.341   1.228  0.1700  0.1955 -0.0282
  887MOL0     H17019   0.840   2.840   1.185  0.7653 -0.2951  0.1773
  887MOL0     H17020   0.618   2.737   1.171  0.4040 -0.0576 -0.1396
  887MOL0     H17021   0.274   2.939   1.408  0.9460 -0.0372  2.4512
  887MOL0     H17022   0.324   2.795   1.493  1.2666  0.9117  0.5389
  887MOL0     H17023   0.215   2.652   1.290 -1.0386 -0.3899 -1.2577
  887MOL0     H17024   0.108   2.791   1.291  1.4396  2.8246  0.3965
  887MOL0     H17025   0.099   2.756   1.552  1.5738  1.9540 -1.7931
  887MOL0     H17026   0.167   2.588   1.513 -0.0815 -0.9067 -1.3019
  887MOL0     H17027  -0.090   2.691   1.385 -1.2051 -1.7262 -1.4041
  887MOL0     H17028  -0.001   2.542   1.356 -1.3955  0.9643 -1.2534
  887MOL0     H17029  -0.094   2.603   1.641 -4.0717  0.5930 -0.5073
  887MOL0     H17030  -0.055   2.448   1.570 -1.7410 -2.0464 -3.1562
  887MOL0     H17031  -0.251   2.469   1.414  3.1616 -0.9444  0.5724
  887MOL0     H17032  -0.320   2.599   1.509  0.6845  0.4046 -2.5264
  887MOL0     H17033  -0.227   2.318   1.627  1.3700  1.1754  0.5313
  887MOL0     H17034  -0.301   2.450   1.712  2.7321  0.0335 -0.5234
  887MOL0     H17035  -0.500   2.445   1.606  0.6534  0.5160  2.2547
  887MOL0     H17036  -0.466   2.278   1.668  0.4372  0.3199 -1.0428
  887MOL0     H17037  -0.331   2.135   1.453  3.1328  1.5281 -2.1825
  887MOL0     H17038  -0.429   2.126   1.060  1.3208  0.2591  0.1758
  887MOL0     H17039  -0.451   1.997   1.181  0.3741  0.3243  1.5589
  887MOL0     H17040  -0.235   2.003   1.075  0.4280 -1.2302  1.7345
  887MOL0     H17041  -0.225   2.017   1.246 -1.3595 -0.3733  0.4285
  887MOL0     H17042  -0.191   2.263   1.070 -2.5109 -1.4717 -0.9215
  887MOL0     H17043  -0.204   2.253   1.250  2.0059 -1.4668  1.6155
  887MOL0     H17044   0.043   2.254   1.136  0.0928  0.7379 -1.0540
  887MOL0     H17045   0.009   2.075   1.132  2.9452  0.3261  2.6308
  887MOL0     H17046   0.035   2.180   1.560 -0.5679  0.8247 -0.8596
  887MOL0     H17047   0.229   2.220   1.677 -0.1704 -0.8435 -0.0676
  887MOL0     H17048   0.742   2.315   1.675 -0.7474  0.3286  0.5926
  887MOL0     H17049   0.942   2.439   1.741  2.4038  0.4556 -3.2886
  887MOL0     H17050   1.120   2.553   1.538  0.3508  0.1264 -0.2184
  887MOL0     H17051   1.152   2.539   1.710  1.3621 -0.3082 -1.3107
  887MOL0     H17052   1.255   2.757   1.713 -0.7698 -0.1583  0.6417
  887MOL0     H17053   1.232   2.781   1.537  2.0637 -1.3753 -0.2029
  887MOL0     H17054   1.344   2.546   1.491 -2.5729 -0.2233  0.6143
  887MOL0     H17055   1.391   2.546   1.666 -0.9193 -1.7807 -1.6438
  887MOL0     H17056   1.456   2.784   1.486  3.3214 -1.0462 -1.1002
  887MOL0     H17057   1.501   2.766   1.653 -0.1757  0.4873  0.2662
  887MOL0     H17058   1.588   2.566   1.432  2.6363 -1.3199 -0.0976
  887MOL0     H17059   1.647   2.574   1.598 -1.3044  0.6210 -0.2269
  887MOL0     H17060   1.733   2.808   1.556  1.3110  0.7499 -0.6866
  887MOL0     H17061   1.678   2.790   1.389  1.8335  2.6518  0.5942
  887MOL0     H17062   1.871   2.601   1.529 -0.2605 -0.7081 -0.3867
  887MOL0     H17063   1.830   2.599   1.359 -0.8329 -0.6369  0.6215
  887MOL0     H17064   2.029   2.715   1.353 -0.4722 -0.8542  0.1588
  887MOL0     H17065   2.017   2.756   1.527 -2.4081 -3.0391  0.6799
  887MOL0     H17066   0.803   2.778   1.533 -0.4814  1.6113  2.8799
  887MOL0     H17067   0.593   2.678   1.483  0.4332  2.0133  0.9827
  887MOL0     H17068   0.436   2.292   1.313  0.4151  0.7889  0.9946
  887MOL0     H17069   0.243   2.204   1.190 -2.0954  0.8153  0.7693
  887MOL0     H17070   0.472   3.028   1.433 -0.6849  0.6254 -1.1695
  887MOL0     H17071   0.688   3.146   1.436 -0.1344 -0.6250 -0.6938
  887MOL0     H17072   1.156   3.029   1.344 -1.3239 -0.4554 -2.5210
  887MOL0     H17073   1.391   3.086   1.324 -0.6513 -2.0213 -3.4852
  887MOL0     H17074   1.522   3.516   1.235 -0.3821 -1.3541  1.6388
  887MOL0     H17075   1.479   3.440   1.076  1.0520  0.6862 -0.6988
  887MOL0     H17076   1.729   3.513   1.100 -0.0354  0.9684  2.7884
  887MOL0     H17077   1.743   3.401   1.234  2.3813  0.1983 -2.2614
  887MOL0     H17078   1.723   3.353   0.937 -1.5339 -0.4140 -0.2750
  887MOL0     H17079   1.671   3.228   1.056 -1.4182  0.6286 -1.5598
  887MOL0     H17080   1.924   3.397   1.026  0.9633  0.2366  1.9445
  887MOL0     H17081   1.923   3.260   1.140  3.5930 -0.3600 -0.1158
  887MOL0     H17082   1.977   3.074   0.761  1.1610  0.6800 -0.2510
  887MOL0     H17083   1.285   3.470   1.190  0.5570 -0.5622 -1.0080
  887MOL0     H17084   1.051   3.419   1.234 -0.5530 -0.5515  1.5236
  888MOL0     O17085   8.427   5.513   4.552  0.2450 -0.3108 -0.1638
  888MOL0     C17086   8.452   5.399   4.524 -0.0085 -0.4184  1.3686
  888MOL0     O17087   8.365   5.292   4.548  1.1286 -0.6830  0.2814
  888MOL0     C17088   8.237   5.310   4.593 -0.2018 -0.1086 -0.6675
  888MOL0     C17089   8.128   5.240   4.538 -0.5941 -0.2104 -0.4557
  888MOL0     C17090   8.000   5.269   4.575 -0.2750 -0.4879  0.4703
  888MOL0     C17091   7.966   5.373   4.660 -0.7063 -0.0089 -0.0578
  888MOL0     O17092   7.839   5.408   4.683  0.4525  0.0950 -0.4025
  888MOL0     C17093   7.798   5.485   4.795  0.3740 -1.0262  0.6277
  888MOL0     C17094   7.646   5.498   4.788  0.4143 -0.7837 -0.0276
  888MOL0     C17095   7.595   5.607   4.883 -0.5769 -0.2430 -0.4728
  888MOL0     C17096   7.619   5.747   4.823  0.7366  0.0962  0.7520
  888MOL0     C17097   7.565   5.851   4.921  0.3190  0.9121  0.0892
  888MOL0     C17098   7.548   5.993   4.864  0.4931  0.3814 -0.8626
  888MOL0     C17099   7.412   6.018   4.791  0.5471  0.1799 -0.2836
  888MOL0     C17100   7.405   6.167   4.743 -0.0746 -0.3656  0.1281
  888MOL0     N17101   7.272   6.210   4.700  0.8729  0.4736  0.5661
  888MOL0     C17102   7.233   6.164   4.577  0.0658 -0.1204 -0.9166
  888MOL0     C17103   7.099   6.151   4.591  0.1622  0.3237  0.2414
  888MOL0     C17104   7.002   6.099   4.488  0.3774  0.1005 -0.1713
  888MOL0     C17105   7.012   5.945   4.484  0.3247  0.3981  0.5611
  888MOL0     C17106   6.946   5.868   4.596 -0.6482  0.3820  0.5448
  888MOL0     C17107   6.811   5.917   4.630 -0.6292 -0.2754  0.8074
  888MOL0     O17108   6.740   5.823   4.702  0.2408  0.0725 -0.1439
  888MOL0     C17109   6.613   5.852   4.749  0.6111  0.6001  0.5416
  888MOL0     C17110   6.543   5.744   4.808 -0.8232 -0.8870 -0.1752
  888MOL0     C17111   6.418   5.759   4.859  0.4725  0.0209 -0.1305
  888MOL0     C17112   6.355   5.884   4.859  0.1387  0.6455 -0.3459
  888MOL0     C17113   6.220   5.896   4.921 -0.8199  0.6855  0.7990
  888MOL0     O17114   6.161   5.768   4.939  0.1184 -0.3427 -0.4117
  888MOL0     C17115   6.025   5.758   4.982 -1.0739 -0.0641 -0.2758
  888MOL0     C17116   6.000   5.634   5.056  0.4945  0.3662 -0.5825
  888MOL0     C17117   5.869   5.611   5.111  0.4544  0.6740  0.3206
  888MOL0     C17118   5.772   5.699   5.093  0.3213  0.0207 -0.0098
  888MOL0     O17119   5.645   5.671   5.144  0.2133 -0.5461  0.0398
  888MOL0     C17120   5.541   5.661   5.045  0.5475 -0.3497 -0.0734
  888MOL0     C17121   5.411   5.693   5.126 -0.4736 -0.2145  0.3470
  888MOL0     C17122   5.286   5.739   5.049 -0.0286 -0.2383 -0.6341
  888MOL0     C17123   5.158   5.757   5.127  0.0666 -0.2759  1.3238
  888MOL0     C17124   5.111   5.637   5.207 -0.1745  0.0693 -0.2350
  888MOL0     C17125   5.091   5.510   5.115 -0.4347  0.7140  0.6136
  888MOL0     C17126   5.005   5.525   4.989 -1.3689  1.0351  0.1865
  888MOL0     C17127   4.950   5.393   4.943 -0.1217 -0.4157 -0.8168
  888MOL0    Cl17128   4.829   5.425   4.820  0.1051  0.1291 -0.0875
  888MOL0     C17129   5.798   5.827   5.030 -0.0008 -0.4969  0.2003
  888MOL0     C17130   5.921   5.847   4.965 -0.4319 -0.5793  0.3997
  888MOL0     O17131   6.173   6.004   4.954  0.5300 -0.7660  0.0686
  888MOL0     C17132   6.421   5.990   4.793 -0.3883 -0.5067 -0.4306
  888MOL0     C17133   6.544   5.974   4.738 -0.5039 -0.8015  0.9872
  888MOL0     N17134   7.058   6.187   4.710 -0.2511  0.5636 -0.1498
  888MOL0     N17135   7.159   6.225   4.775  0.5514  0.2232  0.0537
  888MOL0     C17136   8.075   5.445   4.714  0.1983 -0.0155  0.5281
  888MOL0     C17137   8.205   5.425   4.679 -0.0806  0.3004  0.0893
  888MOL0     C17138   8.573   5.380   4.450  0.0397  0.1169  0.1244
  888MOL0     C17139   8.624   5.251   4.431 -0.2350 -0.4253  0.1826
  888MOL0     C17140   8.737   5.232   4.357  0.2214  0.2020  0.8175
  888MOL0     C17141   8.812   5.338   4.305  0.1936 -0.3603  0.2062
  888MOL0     O17142   8.940   5.333   4.252 -0.2731  0.0162 -0.5021
  888MOL0     C17143   8.993   5.202   4.239 -0.4410 -0.0510 -0.3189
  888MOL0     C17144   9.135   5.213   4.185  0.7652  0.6262 -0.1553
  888MOL0     C17145   9.238   5.250   4.284 -1.0892 -0.3668  0.0598
  888MOL0     C17146   9.208   5.392   4.349  0.3843 -0.5380  0.2302
  888MOL0     C17147   9.318   5.438   4.437 -0.2805  0.6336  0.2911
  888MOL0     C17148   9.410   5.477   4.506  0.3352 -0.4092  0.0825
  888MOL0     C17149   8.762   5.469   4.327  0.3580 -0.4871  0.7050
  888MOL0     C17150   8.643   5.495   4.393 -0.4980 -0.0301  0.5609
  888MOL0     H17151   8.151   5.156   4.474  3.7351  1.3612 -1.3435
  888MOL0     H17152   7.925   5.197   4.542  0.8269 -2.2157  1.5519
  888MOL0     H17153   7.848   5.582   4.785 -0.4188 -0.7998 -1.9190
  888MOL0     H17154   7.841   5.447   4.888  0.7608  0.3633  1.0417
  888MOL0     H17155   7.609   5.400   4.817  0.2066 -0.4674  0.7775
  888MOL0     H17156   7.613   5.523   4.686  1.5822  0.1321 -0.2084
  888MOL0     H17157   7.646   5.602   4.979 -0.3295  1.9329 -0.4281
  888MOL0     H17158   7.491   5.593   4.912 -0.5902  2.9967  1.5629
  888MOL0     H17159   7.727   5.756   4.809  0.8449 -0.9523  0.8910
  888MOL0     H17160   7.569   5.749   4.726  0.0014 -0.7031  1.0957
  888MOL0     H17161   7.637   5.849   5.003  1.6281 -0.1789 -1.0205
  888MOL0     H17162   7.472   5.822   4.969  1.6039 -0.1217  2.0938
  888MOL0     H17163   7.628   6.000   4.790  2.2469 -1.9347  0.6578
  888MOL0     H17164   7.560   6.058   4.951 -1.3476  2.0669 -1.7988
  888MOL0     H17165   7.394   5.946   4.710 -1.4925  0.2594  0.0549
  888MOL0     H17166   7.334   5.999   4.864  1.7131 -2.6380  0.3484
  888MOL0     H17167   7.483   6.173   4.666 -0.5880  1.0009 -0.3124
  888MOL0     H17168   7.431   6.236   4.824  1.2006 -0.6831  0.0055
  888MOL0     H17169   7.298   6.140   4.494  2.6737  0.0871  0.9559
  888MOL0     H17170   7.029   6.138   4.389  1.7188  1.2925  0.6384
  888MOL0     H17171   6.897   6.121   4.507  0.4639  0.8061 -0.4693
  888MOL0     H17172   7.119   5.925   4.479 -0.0200 -1.1600 -2.0153
  888MOL0     H17173   6.965   5.904   4.395  0.9968  0.6952  0.0660
  888MOL0     H17174   6.949   5.761   4.574  1.5708  0.9388 -2.4025
  888MOL0     H17175   7.011   5.882   4.682  1.9123 -0.6108 -1.1255
  888MOL0     H17176   6.750   5.935   4.541 -1.9228 -3.7558  0.8202
  888MOL0     H17177   6.809   6.016   4.676 -1.7335  0.2707 -0.3520
  888MOL0     H17178   6.596   5.649   4.808  0.1669 -0.3684 -1.2206
  888MOL0     H17179   6.372   5.677   4.913  0.5900  1.8116  2.9163
  888MOL0     H17180   6.076   5.558   5.072 -0.7347 -1.3762 -2.5335
  888MOL0     H17181   5.840   5.527   5.172  0.6277 -0.5624 -1.2351
  888MOL0     H17182   5.530   5.559   5.007 -0.3672 -0.2107 -0.1917
  888MOL0     H17183   5.551   5.750   4.981 -0.3686  1.2461  1.8952
  888MOL0     H17184   5.434   5.764   5.207  0.9136 -1.7842  1.4031
  888MOL0     H17185   5.391   5.596   5.172 -0.0194 -0.2778  0.4244
  888MOL0     H17186   5.265   5.665   4.970 -4.3630 -1.1766  1.1425
  888MOL0     H17187   5.317   5.830   4.997 -1.4241 -0.8550 -2.6833
  888MOL0     H17188   5.178   5.841   5.193  0.0854  1.9538 -1.3575
  888MOL0     H17189   5.081   5.785   5.054  1.5970  0.7245  0.0425
  888MOL0     H17190   5.023   5.672   5.262  0.4077  2.3001 -0.6334
  888MOL0     H17191   5.189   5.627   5.283 -0.0163  0.2505 -0.3725
  888MOL0     H17192   5.050   5.435   5.185 -2.6109  2.6469  1.5632
  888MOL0     H17193   5.189   5.468   5.089 -0.8506  0.7258 -1.0663
  888MOL0     H17194   4.931   5.601   5.018 -0.6708  0.9800  2.2495
  888MOL0     H17195   5.068   5.568   4.910 -0.1905  0.8644  1.0160
  888MOL0     H17196   4.900   5.347   5.029 -0.8147  2.8201  0.6481
  888MOL0     H17197   5.030   5.333   4.898  3.8160  0.9888  3.4569
  888MOL0     H17198   5.723   5.903   5.014  1.1508  1.3767  2.9535
  888MOL0     H17199   5.930   5.943   4.916 -4.0771 -0.0344  0.5136
  888MOL0     H17200   6.391   6.094   4.784  0.0067 -0.4693 -1.4977
  888MOL0     H17201   6.589   6.056   4.684 -3.8473 -0.4489 -1.5611
  888MOL0     H17202   8.055   5.523   4.787  0.7766  0.8556 -0.2101
  888MOL0     H17203   8.286   5.468   4.737 -0.7607 -0.8196  1.9868
  888MOL0     H17204   8.569   5.170   4.477 -1.6233  0.8418  0.8656
  888MOL0     H17205   8.769   5.131   4.332 -1.3806 -0.1845  0.1683
  888MOL0     H17206   8.932   5.135   4.177 -0.4034  1.7212 -2.4021
  888MOL0     H17207   8.997   5.155   4.338  0.3385  0.4648 -0.1008
  888MOL0     H17208   9.156   5.114   4.143 -0.2711  0.8506 -1.2561
  888MOL0     H17209   9.135   5.281   4.099 -0.6571  2.1422  0.9625
  888MOL0     H17210   9.340   5.247   4.243 -0.3643  2.8587  1.2738
  888MOL0     H17211   9.240   5.174   4.363 -0.7348  1.3020  1.7287
  888MOL0     H17212   9.169   5.468   4.281 -2.3116 -0.6275  1.5334
  888MOL0     H17213   9.120   5.368   4.409  0.3444 -1.5720 -0.2230
  888MOL0     H17214   9.481   5.507   4.581  2.5049 -1.4604 -1.4305
  888MOL0     H17215   8.827   5.546   4.285  0.0206 -2.4004 -3.8791
  888MOL0     H17216   8.606   5.596   4.409 -2.0568 -0.4632 -0.1169
  889MOL0     O17217   0.761   6.964   9.596 -0.0754 -0.2293  0.2454
  889MOL0     C17218   0.788   7.068   9.650 -0.8752 -0.5647 -0.0958
  889MOL0     O17219   0.704   7.149   9.725  0.2755 -0.2693 -0.3862
  889MOL0     C17220   0.567   7.132   9.733  0.9150  0.1680 -0.2246
  889MOL0     C17221   0.505   7.242   9.793  0.9747  0.6676 -0.1767
  889MOL0     C17222   0.365   7.242   9.822  0.8062  0.1555 -0.0238
  889MOL0     C17223   0.289   7.133   9.771  0.3428  0.3333 -0.8645
  889MOL0     O17224   0.157   7.102   9.791 -0.0443  0.4021 -0.2295
  889MOL0     C17225   0.082   7.158   9.904 -0.4037 -0.4784 -0.1959
  889MOL0     C17226  -0.049   7.083   9.928 -0.6961  1.2838 -0.4657
  889MOL0     C17227  -0.013   6.939   9.968  0.3089  0.3581  0.9643
  889MOL0     C17228  -0.137   6.853   9.980  0.0719 -0.9110  0.1093
  889MOL0     C17229  -0.103   6.701   9.983  0.0441  0.2438 -0.4130
  889MOL0     C17230  -0.075   6.635   9.852 -0.7549  0.2784 -0.2671
  889MOL0     C17231  -0.189   6.581   9.772  0.5500 -0.2704 -0.3985
  889MOL0     C17232  -0.280   6.693   9.716 -0.3298 -0.1166 -0.1322
  889MOL0     N17233  -0.367   6.649   9.604  0.1585 -0.2241 -1.0890
  889MOL0     C17234  -0.500   6.602   9.619 -0.0140 -0.7737 -0.8300
  889MOL0     C17235  -0.538   6.570   9.491  0.0891 -0.2089  0.6698
  889MOL0     C17236  -0.670   6.519   9.449 -0.2739  1.2656 -0.2911
  889MOL0     C17237  -0.755   6.617   9.377 -0.5505 -0.6542 -0.9441
  889MOL0     C17238  -0.807   6.734   9.466  0.0150 -0.1738 -0.7619
  889MOL0     C17239  -0.931   6.681   9.543  0.2578  0.0287  0.6729
  889MOL0     O17240  -1.043   6.704   9.458 -0.9646  0.5018 -0.1540
  889MOL0     C17241  -1.161   6.753   9.503  0.2610  0.3400 -0.7866
  889MOL0     C17242  -1.210   6.751   9.638  0.3415 -0.8373 -0.3236
  889MOL0     C17243  -1.335   6.790   9.671  0.5179  0.0999 -0.4856
  889MOL0     C17244  -1.426   6.833   9.572 -0.0870  0.1553  0.0251
  889MOL0     C17245  -1.564   6.856   9.606  0.2514 -0.6753  0.2039
  889MOL0     O17246  -1.601   6.844   9.736 -0.1407  0.0761 -0.4013
  889MOL0     C17247  -1.731   6.877   9.771  0.4003  1.0254 -0.2780
  889MOL0     C17248  -1.767   7.010   9.797 -0.3651  0.3516 -0.0188
  889MOL0     C17249  -1.905   7.039   9.807 -0.7436  0.2061 -0.0300
  889MOL0     C17250  -2.006   6.937   9.812 -0.1702 -0.2104 -0.3996
  889MOL0     O17251  -2.133   6.981   9.826  0.4356 -0.0833 -0.8031
  889MOL0     C17252  -2.236   6.915   9.912  0.5262 -0.0861  0.4637
  889MOL0     C17253  -2.391   6.963   9.894  0.6971 -0.2038 -0.8254
  889MOL0     C17254  -2.485   6.859   9.955 -0.5199  0.8238 -0.8617
  889MOL0     C17255  -2.624   6.918   9.983  0.0145  0.2849 -1.0159
  889MOL0     C17256  -2.719   6.818  10.054 -0.0128  0.4402  0.5786
  889MOL0     C17257  -2.850   6.884  10.097 -0.1090 -0.5197 -0.5662
  889MOL0     C17258  -2.966   6.792  10.135  1.3366  0.1239 -0.1069
  889MOL0     C17259  -3.098   6.854  10.091  0.2252  0.7207  0.0958
  889MOL0    Cl17260  -3.237   6.734  10.102 -0.1886  0.2817  0.1796
  889MOL0     C17261  -1.970   6.795   9.806  0.1417 -0.3998 -0.3046
  889MOL0     C17262  -1.830   6.771   9.784  0.8036 -0.6926 -0.0157
  889MOL0     O17263  -1.637   6.881   9.513  0.1746 -0.2003  0.0380
  889MOL0     C17264  -1.384   6.833   9.437 -0.5740  0.5410  0.6937
  889MOL0     C17265  -1.255   6.783   9.406  0.4470  0.0561 -0.7905
  889MOL0     N17266  -0.437   6.600   9.403  0.5741  0.2007 -0.5208
  889MOL0     N17267  -0.334   6.646   9.474 -0.6786  0.3856 -0.4338
  889MOL0     C17268   0.357   7.036   9.702  0.1754  1.1273 -0.3678
  889MOL0     C17269   0.493   7.023   9.695 -0.4151 -0.3245 -0.1120
  889MOL0     C17270   0.925   7.109   9.638  0.1555 -0.6095  1.1240
  889MOL0     C17271   0.965   7.235   9.691  0.2246  0.3061  0.5611
  889MOL0     C17272   1.093   7.277   9.692 -1.0904  0.4245 -0.8358
  889MOL0     C17273   1.193   7.198   9.642 -0.6522 -0.7997  0.4175
  889MOL0     O17274   1.324   7.235   9.633 -0.7013  0.2370  0.3412
  889MOL0     C17275   1.407   7.210   9.743  0.3544  0.0304 -0.0339
  889MOL0     C17276   1.486   7.081   9.706  0.8952 -0.4760  0.5893
  889MOL0     C17277   1.560   7.079   9.570  0.7291 -0.7414 -0.7446
  889MOL0     C17278   1.699   7.132   9.595  0.5774 -0.7412  0.1978
  889MOL0     C17279   1.767   7.126   9.463 -1.2551 -0.5913  0.0266
  889MOL0     C17280   1.822   7.128   9.354 -0.0416 -0.1791 -0.6375
  889MOL0     C17281   1.163   7.077   9.584  0.8093  0.0389  0.0429
  889MOL0     C17282   1.030   7.035   9.587 -0.1601  0.5502  0.2855
  889MOL0     H17283   0.563   7.322   9.836  0.2737 -0.4889  3.2050
  889MOL0     H17284   0.328   7.335   9.865 -1.9071 -1.1093  0.5656
  889MOL0     H17285   0.051   7.258   9.874  0.9594  0.1191  0.2619
  889MOL0     H17286   0.147   7.158   9.993 -0.7532  1.1850  0.0897
  889MOL0     H17287  -0.099   7.095   9.831 -1.2416  3.7790  0.0483
  889MOL0     H17288  -0.123   7.128   9.994 -2.4455  0.3684 -1.6965
  889MOL0     H17289   0.046   6.941  10.060  2.2649  1.6849 -0.2409
  889MOL0     H17290   0.048   6.894   9.890 -0.3344 -0.7464  1.0712
  889MOL0     H17291  -0.189   6.863  10.076 -1.0161 -0.6064 -0.4989
  889MOL0     H17292  -0.211   6.873   9.902 -0.9352 -2.4766  0.6163
  889MOL0     H17293  -0.192   6.650  10.020 -1.1516 -0.2073 -3.6424
  889MOL0     H17294  -0.017   6.679  10.047  0.4716  1.4899 -0.5167
  889MOL0     H17295  -0.012   6.549   9.875  1.6251  1.9635 -0.1193
  889MOL0     H17296  -0.008   6.700   9.796  2.4878  0.4409  3.3834
  889MOL0     H17297  -0.161   6.514   9.690 -1.1877 -0.4237 -0.9308
  889MOL0     H17298  -0.244   6.512   9.837  2.5033 -2.2049 -0.6989
  889MOL0     H17299  -0.219   6.779   9.684 -1.9360  1.8232  1.6808
  889MOL0     H17300  -0.336   6.737   9.799 -0.1637 -1.3966  0.6825
  889MOL0     H17301  -0.562   6.599   9.708  1.2699  1.7729  0.2864
  889MOL0     H17302  -0.719   6.472   9.534  0.5065 -0.1307 -0.5799
  889MOL0     H17303  -0.665   6.434   9.380 -2.1735  0.7661  0.1247
  889MOL0     H17304  -0.835   6.559   9.329 -2.5003  2.3329 -1.6253
  889MOL0     H17305  -0.702   6.668   9.296  1.1307  1.1046  1.1231
  889MOL0     H17306  -0.736   6.762   9.545 -1.1980  0.4870  0.1385
  889MOL0     H17307  -0.832   6.828   9.415  1.7510  0.7626  0.0207
  889MOL0     H17308  -0.950   6.733   9.638 -2.2583 -2.2511  1.5475
  889MOL0     H17309  -0.912   6.576   9.568  1.6192 -0.2815 -1.3759
  889MOL0     H17310  -1.141   6.721   9.716 -0.6831 -0.3619  0.7990
  889MOL0     H17311  -1.365   6.783   9.775 -1.5983 -4.0140 -1.1762
  889MOL0     H17312  -1.706   7.099   9.803 -3.0337  2.3865 -0.8798
  889MOL0     H17313  -1.940   7.141   9.818 -0.3399  0.2120  1.3881
  889MOL0     H17314  -2.214   6.922  10.019  1.8784 -0.7704  0.2498
  889MOL0     H17315  -2.237   6.809   9.883  1.7487  0.5915 -2.4172
  889MOL0     H17316  -2.428   6.978   9.792 -1.8812  1.1994  0.2363
  889MOL0     H17317  -2.411   7.060   9.941 -0.6012 -0.0776 -1.5890
  889MOL0     H17318  -2.442   6.833  10.052  1.3302 -0.5687 -1.9876
  889MOL0     H17319  -2.489   6.771   9.891 -2.3234  0.1048  0.1632
  889MOL0     H17320  -2.600   7.003  10.048 -1.7549  0.5941 -0.7283
  889MOL0     H17321  -2.668   6.946   9.887 -1.4249 -3.3485 -1.5707
  889MOL0     H17322  -2.663   6.771  10.135 -1.6110  0.2749  1.6546
  889MOL0     H17323  -2.742   6.739   9.982  0.7513 -0.9292  1.7704
  889MOL0     H17324  -2.881   6.952  10.017  1.3875  1.8495  0.7400
  889MOL0     H17325  -2.831   6.945  10.186  0.2457 -0.0764 -0.9397
  889MOL0     H17326  -2.958   6.696  10.084 -2.4395 -0.2735 -0.2845
  889MOL0     H17327  -2.966   6.775  10.243  1.9966  3.0110  0.4225
  889MOL0     H17328  -3.090   6.883   9.986 -0.0139  1.8363  0.3676
  889MOL0     H17329  -3.114   6.944  10.151 -1.2732 -1.0561  2.5570
  889MOL0     H17330  -2.043   6.718   9.826 -0.6309  0.7024  1.3391
  889MOL0     H17331  -1.789   6.672   9.766  1.0334 -0.6577  0.3100
  889MOL0     H17332  -1.458   6.861   9.362 -2.8653 -0.1158  2.5795
  889MOL0     H17333  -1.228   6.760   9.303  1.5042  0.2658 -0.5746
  889MOL0     H17334   0.295   6.954   9.668  2.7658 -1.0488 -0.2336
  889MOL0     H17335   0.538   6.935   9.649  3.0692  1.2991 -0.1335
  889MOL0     H17336   0.908   7.312   9.742 -2.4431 -0.5507 -0.9627
  889MOL0     H17337   1.132   7.361   9.749  1.1186 -1.3251  0.3694
  889MOL0     H17338   1.352   7.196   9.836  2.5109  0.5768  1.4120
  889MOL0     H17339   1.479   7.289   9.766  2.8832 -1.9401 -0.6447
  889MOL0     H17340   1.556   7.068   9.789  1.4883 -0.0506  0.1646
  889MOL0     H17341   1.408   7.005   9.704 -3.3504  3.4727 -0.7787
  889MOL0     H17342   1.509   7.139   9.494 -1.4219 -2.6771 -0.9269
  889MOL0     H17343   1.552   6.979   9.524  1.3089 -0.1590 -2.1877
  889MOL0     H17344   1.702   7.227   9.650  1.9411 -0.2664 -0.6659
  889MOL0     H17345   1.746   7.059   9.662  1.9787  0.0228  0.0796
  889MOL0     H17346   1.853   7.123   9.251 -0.7869  1.4846 -0.9898
  889MOL0     H17347   1.246   7.016   9.550  1.0876  0.0496  0.6799
  889MOL0     H17348   1.007   6.936   9.551  0.6016  1.2786 -2.5375
  890MOL0     O17349   9.215   2.651   4.632  0.3142  0.8636  0.1019
  890MOL0     C17350   9.218   2.677   4.751 -0.0672  0.1480 -0.2860
  890MOL0     O17351   9.113   2.684   4.830  0.3124 -0.4431  0.8354
  890MOL0     C17352   8.994   2.680   4.767 -0.0191 -0.1493  0.0073
  890MOL0     C17353   8.939   2.766   4.674 -0.5388  0.2114  0.8585
  890MOL0     C17354   8.817   2.732   4.615 -0.0279  0.5730  0.5089
  890MOL0     C17355   8.743   2.616   4.653 -0.5755 -0.3806  0.3799
  890MOL0     O17356   8.622   2.593   4.588  0.1062  0.1130 -0.5096
  890MOL0     C17357   8.507   2.603   4.676  0.3510 -0.2002 -0.4431
  890MOL0     C17358   8.396   2.523   4.612  0.1824 -0.1973 -0.0990
  890MOL0     C17359   8.278   2.513   4.711  0.1477 -0.2815 -0.4903
  890MOL0     C17360   8.169   2.405   4.674 -0.2351 -0.1952  0.2693
  890MOL0     C17361   8.042   2.410   4.758 -0.2188 -0.4037 -0.4192
  890MOL0     C17362   7.972   2.275   4.769 -0.1273  0.5635  0.5365
  890MOL0     C17363   7.816   2.284   4.807 -1.0894  0.7054  0.2878
  890MOL0     C17364   7.744   2.141   4.784 -0.1212  0.3970 -0.8652
  890MOL0     N17365   7.633   2.120   4.876  0.2306  0.5150 -0.2870
  890MOL0     C17366   7.628   2.086   5.004 -0.7253  0.9180  0.4634
  890MOL0     C17367   7.498   2.072   5.043  0.1935  0.5682 -0.2809
  890MOL0     C17368   7.447   2.037   5.184  0.2261  0.3107 -0.2943
  890MOL0     C17369   7.499   1.902   5.252  0.2745  0.1392  0.2138
  890MOL0     C17370   7.479   1.882   5.403 -0.0674  0.1432  0.6155
  890MOL0     C17371   7.339   1.899   5.464 -0.4245 -0.7409  0.1695
  890MOL0     O17372   7.234   1.893   5.362 -0.1590 -0.9431 -0.3226
  890MOL0     C17373   7.105   1.932   5.402 -0.5790 -0.5727 -0.0581
  890MOL0     C17374   7.075   1.953   5.542  0.3286  0.4327 -0.4095
  890MOL0     C17375   6.951   2.003   5.585 -0.1243 -0.1804  0.4179
  890MOL0     C17376   6.853   2.037   5.488 -0.1944  0.4586 -0.4394
  890MOL0     C17377   6.727   2.099   5.522 -0.4629  0.3354 -0.4072
  890MOL0     O17378   6.629   2.119   5.427  0.5216 -0.1175 -0.1342
  890MOL0     C17379   6.513   2.183   5.471 -0.0299 -0.8301 -0.0837
  890MOL0     C17380   6.418   2.112   5.553 -0.2590 -0.0747  0.5701
  890MOL0     C17381   6.304   2.182   5.600  0.4903  0.0075 -0.5411
  890MOL0     C17382   6.291   2.315   5.562 -0.2407  0.1020 -0.4185
  890MOL0     O17383   6.175   2.382   5.612  0.1995  0.0730  0.1799
  890MOL0     C17384   6.108   2.474   5.517 -0.4128 -0.1949 -0.2117
  890MOL0     C17385   5.972   2.509   5.567  0.2154 -0.8818  1.2994
  890MOL0     C17386   5.884   2.396   5.605 -0.7877 -0.1094  0.8293
  890MOL0     C17387   5.749   2.440   5.675 -1.0601  0.0337  0.1717
  890MOL0     C17388   5.646   2.506   5.580 -0.4973  0.5063 -0.0384
  890MOL0     C17389   5.512   2.507   5.649 -0.0055 -0.0081 -0.0956
  890MOL0     C17390   5.397   2.510   5.543  0.4060  0.5035  0.5442
  890MOL0     C17391   5.389   2.638   5.449 -0.2239  0.1931 -0.6771
  890MOL0    Cl17392   5.309   2.774   5.526  0.3462  0.6494  0.0664
  890MOL0     C17393   6.382   2.384   5.475 -0.0784 -0.2590 -0.2343
  890MOL0     C17394   6.499   2.316   5.439  0.7135 -0.1398 -0.3396
  890MOL0     O17395   6.726   2.151   5.633  0.1228 -0.0802  0.1674
  890MOL0     C17396   6.886   2.035   5.348  0.2383 -0.4124  0.3249
  890MOL0     C17397   7.010   1.984   5.307 -0.1220 -0.2673  0.0378
  890MOL0     N17398   7.419   2.090   4.925  0.7805 -0.5437  0.3105
  890MOL0     N17399   7.502   2.115   4.826 -0.3987  0.5681 -0.1962
  890MOL0     C17400   8.806   2.525   4.739 -0.3486  0.0762 -0.0643
  890MOL0     C17401   8.930   2.558   4.800 -0.1470  0.0996  0.1149
  890MOL0     C17402   9.348   2.690   4.814 -0.5757  0.0447  1.1013
  890MOL0     C17403   9.471   2.709   4.737 -0.0409 -0.2211  0.1987
  890MOL0     C17404   9.595   2.725   4.802 -0.1626  0.2441  0.2458
  890MOL0     C17405   9.600   2.709   4.943  0.2247 -0.0072 -0.4544
  890MOL0     O17406   9.715   2.692   5.008 -0.2054  0.4244 -0.0297
  890MOL0     C17407   9.835   2.673   4.932 -0.3768  0.1969 -0.8564
  890MOL0     C17408   9.952   2.673   5.033 -0.1512  0.0551  0.9101
  890MOL0     C17409  10.081   2.636   4.966  0.1023 -0.1572  0.1472
  890MOL0     C17410  10.143   2.748   4.881  0.1521  0.5666  0.3973
  890MOL0     C17411  10.254   2.683   4.813 -0.3167 -0.3779 -0.1045
  890MOL0     C17412  10.348   2.612   4.786 -0.4271 -0.5590  0.5053
  890MOL0     C17413   9.481   2.690   5.010 -0.1979 -0.0288 -0.4295
  890MOL0     C17414   9.360   2.685   4.946  0.4508 -0.0847 -0.1520
  890MOL0     H17415   8.983   2.862   4.649 -0.7145  0.3806  1.1960
  890MOL0     H17416   8.769   2.802   4.547  1.9775  1.9130  0.3695
  890MOL0     H17417   8.484   2.710   4.678  2.9864  0.4332 -0.0355
  890MOL0     H17418   8.520   2.561   4.776  0.0119 -1.4123 -0.8854
  890MOL0     H17419   8.442   2.427   4.586  2.6150  0.9957 -0.4983
  890MOL0     H17420   8.379   2.582   4.522  0.3061  1.0198  0.6516
  890MOL0     H17421   8.229   2.609   4.694  0.3024  0.1472  1.3403
  890MOL0     H17422   8.315   2.499   4.812  0.1909  3.7741  0.2118
  890MOL0     H17423   8.144   2.409   4.568  0.5884 -3.7880 -0.1707
  890MOL0     H17424   8.222   2.310   4.677  1.2528  0.4706 -2.4705
  890MOL0     H17425   7.977   2.487   4.715  1.3802  1.6204  0.6206
  890MOL0     H17426   8.063   2.444   4.860  1.1229  0.7698 -1.0520
  890MOL0     H17427   8.033   2.199   4.819  1.1710  0.3347 -1.2850
  890MOL0     H17428   7.975   2.227   4.670  1.4486  1.7500 -0.0186
  890MOL0     H17429   7.815   2.314   4.912  0.0148  3.4789 -0.4118
  890MOL0     H17430   7.765   2.366   4.755  2.3440  2.5625 -0.4652
  890MOL0     H17431   7.820   2.063   4.789  1.2299  1.5420 -2.3156
  890MOL0     H17432   7.703   2.131   4.683 -0.7034 -0.9796 -0.5045
  890MOL0     H17433   7.718   2.070   5.062  0.7240  0.3333 -1.7973
  890MOL0     H17434   7.338   2.026   5.173  0.4292 -0.8526 -1.4616
  890MOL0     H17435   7.474   2.111   5.260 -3.1788 -0.1977  1.6118
  890MOL0     H17436   7.607   1.892   5.240  0.4958 -1.1634  2.7333
  890MOL0     H17437   7.447   1.829   5.188 -1.7169  2.2701 -0.7731
  890MOL0     H17438   7.516   1.779   5.411  1.7240  0.6844 -0.0800
  890MOL0     H17439   7.547   1.938   5.468 -1.2935  1.1988  1.0258
  890MOL0     H17440   7.332   2.000   5.505 -1.2892  0.3687 -2.4854
  890MOL0     H17441   7.327   1.829   5.547 -1.3715 -0.3568  0.3612
  890MOL0     H17442   7.146   1.916   5.615 -1.8687 -1.3369  0.9742
  890MOL0     H17443   6.941   2.027   5.691  2.8845  1.9037  0.3544
  890MOL0     H17444   6.419   2.007   5.578 -2.6923 -0.1646  0.5001
  890MOL0     H17445   6.224   2.131   5.653  0.4851  0.3180 -0.2509
  890MOL0     H17446   6.101   2.436   5.415 -2.2714  2.2641 -1.0945
  890MOL0     H17447   6.168   2.565   5.519 -0.4089 -0.2066  0.4599
  890MOL0     H17448   5.916   2.577   5.503  1.5841  1.6872  2.6455
  890MOL0     H17449   6.000   2.572   5.652 -1.1811  0.7367  0.6141
  890MOL0     H17450   5.943   2.347   5.683 -1.1360 -3.5207 -0.8597
  890MOL0     H17451   5.870   2.331   5.518  0.5325 -0.0856  0.5825
  890MOL0     H17452   5.694   2.354   5.716 -1.2440 -0.9498 -2.0221
  890MOL0     H17453   5.770   2.513   5.753 -0.7039  2.0780 -1.7514
  890MOL0     H17454   5.624   2.454   5.486  1.6511 -0.9730  0.2175
  890MOL0     H17455   5.674   2.610   5.561 -2.1263  1.0486  0.3612
  890MOL0     H17456   5.507   2.594   5.716  0.7318 -0.2459  0.2821
  890MOL0     H17457   5.494   2.418   5.709  0.7735 -1.5326 -2.0114
  890MOL0     H17458   5.407   2.419   5.484 -3.5766  1.3453 -1.7638
  890MOL0     H17459   5.305   2.493   5.600  1.5722  0.0465  2.3921
  890MOL0     H17460   5.333   2.606   5.361 -1.7067  0.1409  0.2537
  890MOL0     H17461   5.492   2.664   5.423  0.6154  1.7635  3.3457
  890MOL0     H17462   6.357   2.485   5.440 -1.0832 -0.2407  0.4987
  890MOL0     H17463   6.583   2.359   5.385  3.2046 -1.3260  2.2983
  890MOL0     H17464   6.821   2.079   5.272  0.5605 -2.4456 -1.2217
  890MOL0     H17465   7.050   2.002   5.207  2.1037  2.7399  1.3044
  890MOL0     H17466   8.759   2.433   4.772 -2.7526  1.0580 -0.5641
  890MOL0     H17467   8.981   2.482   4.858 -1.1748  0.1713  1.1461
  890MOL0     H17468   9.464   2.735   4.632 -0.5772 -0.2538  0.2252
  890MOL0     H17469   9.685   2.736   4.743 -0.4631 -2.3001 -0.8173
  890MOL0     H17470   9.857   2.745   4.853 -0.4531  0.6904 -0.4298
  890MOL0     H17471   9.834   2.576   4.881 -0.6280  0.2138 -0.8858
  890MOL0     H17472   9.957   2.767   5.088  1.9181 -0.8027  2.3661
  890MOL0     H17473   9.945   2.594   5.109  5.1157 -2.0222 -0.2689
  890MOL0     H17474  10.061   2.558   4.892 -2.4887  2.4064 -2.1112
  890MOL0     H17475  10.148   2.599   5.043 -1.9366 -0.9006  1.6672
  890MOL0     H17476  10.069   2.776   4.804  1.7382 -2.4405 -2.4886
  890MOL0     H17477  10.168   2.835   4.942  1.8211  0.7433 -0.4758
  890MOL0     H17478  10.428   2.547   4.756 -0.5491 -0.7360  0.5591
  890MOL0     H17479   9.486   2.685   5.118 -2.4744  0.4268 -0.2608
  890MOL0     H17480   9.273   2.677   5.011 -1.2066 -2.0280 -2.4125
  891MOL0     O17481   1.532   9.840  10.194 -0.6779  0.4221  0.0252
  891MOL0     C17482   1.607   9.908  10.118  0.6478  0.0958 -0.6312
  891MOL0     O17483   1.568  10.004  10.034 -0.2183  0.5778 -0.2604
  891MOL0     C17484   1.431  10.032  10.012  0.2182  0.4318  0.3968
  891MOL0     C17485   1.314   9.963  10.054  0.2734  0.4808 -0.3241
  891MOL0     C17486   1.196  10.007  10.014  0.3635 -0.4785  0.6725
  891MOL0     C17487   1.176  10.116   9.929  0.7944  0.0231 -0.1702
  891MOL0     O17488   1.049  10.168   9.890 -0.5914 -0.0214 -0.9834
  891MOL0     C17489   0.927  10.096   9.919  0.0646 -0.7208 -0.5925
  891MOL0     C17490   0.889  10.118  10.066 -0.1887  0.1892  0.0283
  891MOL0     C17491   0.759  10.052  10.101 -0.2813  0.0785 -0.7748
  891MOL0     C17492   0.716  10.086  10.249 -0.4111  0.4928 -0.3040
  891MOL0     C17493   0.620   9.982  10.311  0.0523 -0.5301 -0.1787
  891MOL0     C17494   0.593  10.000  10.458 -0.1884 -0.5592 -0.0739
  891MOL0     C17495   0.503   9.893  10.528 -0.2830 -0.1948  0.5707
  891MOL0     C17496   0.369   9.902  10.473 -0.4921 -0.1603 -0.6475
  891MOL0     N17497   0.282   9.959  10.573  0.7265 -0.5707  0.5866
  891MOL0     C17498   0.174   9.894  10.624 -0.5851  0.0209  0.4383
  891MOL0     C17499   0.113   9.977  10.707 -0.0502 -0.3242  0.5205
  891MOL0     C17500  -0.008   9.949  10.794 -0.3873 -0.1021 -0.7779
  891MOL0     C17501   0.009  10.003  10.939  0.0956  0.1066 -0.6745
  891MOL0     C17502   0.039  10.152  10.934 -0.5635  0.2110  0.2170
  891MOL0     C17503  -0.033  10.225  11.042 -0.0246 -0.2935 -0.4588
  891MOL0     O17504  -0.024  10.152  11.166 -0.2882 -0.3191 -0.1514
  891MOL0     C17505  -0.116  10.197  11.254  0.3410  0.9793 -0.7328
  891MOL0     C17506  -0.071  10.286  11.356  0.5136 -0.8760  0.1449
  891MOL0     C17507  -0.165  10.334  11.442 -0.0882 -0.0516  0.3515
  891MOL0     C17508  -0.296  10.285  11.454 -0.6248  0.6017  0.2875
  891MOL0     C17509  -0.386  10.339  11.561 -0.1866 -0.9680  1.2426
  891MOL0     O17510  -0.496  10.273  11.594 -0.0514  0.5542 -0.3239
  891MOL0     C17511  -0.576  10.344  11.680  0.4312  0.7934 -0.5326
  891MOL0     C17512  -0.583  10.314  11.817 -0.1161  0.0792  0.0309
  891MOL0     C17513  -0.663  10.380  11.908  0.4503  0.3359  0.5664
  891MOL0     C17514  -0.744  10.486  11.859  0.0997  0.0038 -0.1765
  891MOL0     O17515  -0.830  10.563  11.936 -0.0753 -0.2188  0.1658
  891MOL0     C17516  -0.880  10.505  12.054  0.8252 -0.2481  0.4137
  891MOL0     C17517  -1.005  10.424  12.006  0.0264 -0.6653  0.4986
  891MOL0     C17518  -1.092  10.360  12.111  0.1082 -0.4199 -0.8854
  891MOL0     C17519  -1.200  10.280  12.041  0.0491  0.5721  1.1873
  891MOL0     C17520  -1.316  10.263  12.137  0.3616  0.2625  0.2870
  891MOL0     C17521  -1.443  10.205  12.069 -0.1786 -0.2892 -0.2845
  891MOL0     C17522  -1.517  10.313  11.982 -0.5795 -1.1643 -0.5275
  891MOL0     C17523  -1.607  10.255  11.870  0.0571  0.2758  0.0755
  891MOL0    Cl17524  -1.754  10.359  11.822  0.3683 -0.4066  0.2233
  891MOL0     C17525  -0.735  10.515  11.725 -1.2371  0.3844 -0.6283
  891MOL0     C17526  -0.657  10.448  11.639 -0.0632 -0.0406  0.0122
  891MOL0     O17527  -0.346  10.450  11.605  0.7448 -0.1426 -0.6619
  891MOL0     C17528  -0.337  10.193  11.355 -1.3304  0.0400 -0.8404
  891MOL0     C17529  -0.249  10.157  11.250  0.1213  0.4147  0.2135
  891MOL0     N17530   0.181  10.104  10.687  0.1415  0.3358 -0.1285
  891MOL0     N17531   0.284  10.090  10.612 -0.0425  0.9785  0.5071
  891MOL0     C17532   1.293  10.188   9.894  0.2238 -0.2903  0.4193
  891MOL0     C17533   1.420  10.145   9.933  1.1863 -1.0678  0.3204
  891MOL0     C17534   1.751   9.877  10.124 -0.2073 -0.5399 -0.1867
  891MOL0     C17535   1.797   9.756  10.169 -0.5659  0.4988  0.1991
  891MOL0     C17536   1.931   9.734  10.195 -0.2369  0.5521 -0.2378
  891MOL0     C17537   2.030   9.821  10.166  0.2750 -0.3532  0.0779
  891MOL0     O17538   2.162   9.782  10.179 -0.3683 -0.1977  0.4177
  891MOL0     C17539   2.263   9.864  10.121  0.1206  0.4135 -0.6690
  891MOL0     C17540   2.307   9.967  10.227 -0.2900 -0.7074  0.9180
  891MOL0     C17541   2.435   9.922  10.303  0.0750  0.5125 -0.0029
  891MOL0     C17542   2.561   9.899  10.212 -0.3977  0.3212 -0.9785
  891MOL0     C17543   2.676   9.899  10.304 -0.1354  0.2601 -0.7500
  891MOL0     C17544   2.770   9.900  10.377  0.1339 -0.4899 -0.6415
  891MOL0     C17545   1.989   9.954  10.124  0.5213  0.0117  0.3449
  891MOL0     C17546   1.854   9.974  10.080  0.0252 -0.1673 -0.3154
  891MOL0     H17547   1.327   9.873  10.113  1.9017  0.5006 -0.6032
  891MOL0     H17548   1.117   9.938  10.040  1.5125 -2.9251 -1.8294
  891MOL0     H17549   0.939   9.989   9.898  4.2795 -0.1405 -2.0951
  891MOL0     H17550   0.843  10.135   9.860 -0.0051 -0.8000 -0.5464
  891MOL0     H17551   0.866  10.224  10.082 -0.4551  0.3300 -1.1860
  891MOL0     H17552   0.962  10.090  10.142 -0.7005 -0.4058  0.3139
  891MOL0     H17553   0.786   9.947  10.084  0.9060  0.3387 -0.6123
  891MOL0     H17554   0.670  10.078  10.044 -1.2934  1.4595  1.3178
  891MOL0     H17555   0.802  10.102  10.315 -1.0247  2.0564  0.1393
  891MOL0     H17556   0.657  10.177  10.240 -4.2209 -1.7265  0.0300
  891MOL0     H17557   0.657   9.879  10.305 -1.8252 -1.7290  4.6421
  891MOL0     H17558   0.520   9.980  10.266 -2.3369 -2.1381  4.6012
  891MOL0     H17559   0.543  10.095  10.483 -0.0479 -0.3220 -0.6609
  891MOL0     H17560   0.686  10.005  10.515 -0.6745 -2.5269  0.9587
  891MOL0     H17561   0.553   9.799  10.502 -0.4809 -0.2223  0.2888
  891MOL0     H17562   0.502   9.887  10.637  2.8975 -1.0613  0.6624
  891MOL0     H17563   0.338   9.802  10.441  1.8424 -0.3440 -2.6275
  891MOL0     H17564   0.355   9.972  10.390 -0.9767  2.7450  1.7173
  891MOL0     H17565   0.145   9.790  10.608  1.4405 -0.4998 -0.1257
  891MOL0     H17566  -0.030   9.842  10.799 -1.2627  0.1387  2.0160
  891MOL0     H17567  -0.092  10.001  10.748 -0.2548  0.2218 -0.6557
  891MOL0     H17568   0.078   9.946  11.001  1.5039 -0.2258 -2.4610
  891MOL0     H17569  -0.093   9.998  10.979  0.4386  3.4938  0.9485
  891MOL0     H17570   0.147  10.164  10.943 -0.5119 -0.1802  0.1181
  891MOL0     H17571  -0.000  10.190  10.839  0.5743 -1.4770 -0.9841
  891MOL0     H17572  -0.136  10.215  11.005 -0.1194 -0.9431 -0.0371
  891MOL0     H17573  -0.000  10.328  11.057  0.5459 -0.7683  1.8666
  891MOL0     H17574   0.031  10.319  11.347  0.3940 -0.6796 -0.5174
  891MOL0     H17575  -0.134  10.407  11.517 -0.0800 -0.0136  0.3107
  891MOL0     H17576  -0.525  10.233  11.860  0.7614  0.4457 -0.4512
  891MOL0     H17577  -0.664  10.347  12.011 -2.2971 -0.3170  0.4167
  891MOL0     H17578  -0.932  10.582  12.112  0.0300 -2.0002  2.1237
  891MOL0     H17579  -0.811  10.448  12.116  0.2488 -1.2892  0.1276
  891MOL0     H17580  -0.979  10.349  11.931 -1.4446 -1.3575  0.6502
  891MOL0     H17581  -1.065  10.503  11.962  2.0521  0.6473 -0.0412
  891MOL0     H17582  -1.134  10.436  12.177  0.0687 -0.7180 -0.5626
  891MOL0     H17583  -1.018  10.305  12.170  0.9026  0.9911 -0.5344
  891MOL0     H17584  -1.235  10.341  11.957 -0.5328 -1.6525 -0.2798
  891MOL0     H17585  -1.172  10.182  12.000  1.3017  0.6568  1.7942
  891MOL0     H17586  -1.337  10.356  12.190 -0.5085  0.5715 -0.5659
  891MOL0     H17587  -1.277  10.197  12.215  0.4953  0.8878  0.7540
  891MOL0     H17588  -1.513  10.176  12.148  0.8658  0.8903  1.1276
  891MOL0     H17589  -1.429  10.115  12.008  0.4236 -0.2431 -0.2172
  891MOL0     H17590  -1.569  10.383  12.048 -0.7817 -1.0595 -0.7958
  891MOL0     H17591  -1.449  10.382  11.931 -1.7834  0.7929  0.3827
  891MOL0     H17592  -1.646  10.160  11.907  0.6918  0.0187  0.1015
  891MOL0     H17593  -1.542  10.248  11.782  0.0218 -1.7446  0.1775
  891MOL0     H17594  -0.794  10.596  11.682 -1.6735  0.6572  0.4550
  891MOL0     H17595  -0.649  10.489  11.539 -0.4907  0.8481  0.3359
  891MOL0     H17596  -0.439  10.158  11.351 -2.0176  1.6814  0.6944
  891MOL0     H17597  -0.281  10.090  11.171  0.6872 -0.4125  0.6784
  891MOL0     H17598   1.276  10.273   9.829  1.5498 -1.7918 -2.0446
  891MOL0     H17599   1.501  10.206   9.893  1.9221 -2.2163  0.0073
  891MOL0     H17600   1.728   9.676  10.194  0.4079 -1.0219 -1.7217
  891MOL0     H17601   1.964   9.634  10.223  0.4457  0.2024 -2.1793
  891MOL0     H17602   2.228   9.906  10.026  1.7283  0.3823 -1.3047
  891MOL0     H17603   2.349   9.807  10.086 -0.0885  1.5868 -3.3909
  891MOL0     H17604   2.326  10.057  10.169 -2.1852 -0.5116  0.5518
  891MOL0     H17605   2.233   9.980  10.307  0.0303 -2.3949  1.5365
  891MOL0     H17606   2.415   9.831  10.361  3.7243  1.3422  2.9750
  891MOL0     H17607   2.463   9.998  10.376  2.2989  0.1213 -0.3807
  891MOL0     H17608   2.559   9.812  10.145 -0.7341  1.4664 -2.4912
  891MOL0     H17609   2.565   9.983  10.143  0.8393  0.8298 -0.3152
  891MOL0     H17610   2.846   9.907  10.452 -2.6960 -1.6889  2.5923
  891MOL0     H17611   2.063  10.026  10.090 -1.4212  1.2007 -1.5850
  891MOL0     H17612   1.832  10.070  10.034 -2.3210 -0.6755 -0.3431
  892MOL0     O17613   2.187   9.215   1.255 -0.1141  0.2140  0.3165
  892MOL0     C17614   2.217   9.225   1.375 -0.2277  0.2002  1.0282
  892MOL0     O17615   2.129   9.196   1.475  0.2934  0.5547 -0.6327
  892MOL0     C17616   1.997   9.165   1.441  0.0947  0.2295 -0.1959
  892MOL0     C17617   1.936   9.036   1.452 -0.0074  0.7520  0.9617
  892MOL0     C17618   1.796   9.028   1.423 -0.3789 -0.0636 -0.0966
  892MOL0     C17619   1.717   9.137   1.391 -0.4730 -0.2008 -0.3373
  892MOL0     O17620   1.579   9.109   1.374 -0.4876  0.0632  0.4043
  892MOL0     C17621   1.487   9.221   1.379 -0.8502  0.6269 -0.3995
  892MOL0     C17622   1.359   9.171   1.319 -0.1801  0.1081 -0.2548
  892MOL0     C17623   1.351   9.157   1.167  0.1729 -0.6877  0.8255
  892MOL0     C17624   1.206   9.169   1.123 -0.1178  0.7942 -0.2076
  892MOL0     C17625   1.187   9.147   0.975  0.0507 -0.0304  0.4918
  892MOL0     C17626   1.050   9.187   0.922 -0.1320 -0.7186 -0.2843
  892MOL0     C17627   1.049   9.333   0.869 -0.3288 -0.5495  0.1541
  892MOL0     C17628   0.914   9.356   0.791  0.1000 -0.4000 -0.3812
  892MOL0     N17629   0.798   9.357   0.885  0.0376 -0.7192 -0.3738
  892MOL0     C17630   0.763   9.458   0.970  0.5953  0.2806  0.6060
  892MOL0     C17631   0.654   9.419   1.033 -0.4375 -0.2429 -0.4897
  892MOL0     C17632   0.575   9.492   1.144  0.6980  0.3517  0.1795
  892MOL0     C17633   0.430   9.511   1.104 -0.3557  0.3328 -0.2952
  892MOL0     C17634   0.376   9.614   1.187  0.0661 -1.0177  0.2366
  892MOL0     C17635   0.234   9.656   1.159 -0.7455  0.4590  0.1389
  892MOL0     O17636   0.149   9.542   1.146 -0.1850 -0.3307 -0.4074
  892MOL0     C17637   0.045   9.545   1.060  0.3172  0.8079  0.3816
  892MOL0     C17638   0.012   9.632   0.951  0.0006 -0.2920 -0.1867
  892MOL0     C17639  -0.118   9.631   0.896 -0.0534 -0.5528 -0.1896
  892MOL0     C17640  -0.207   9.537   0.943  0.0480 -0.6486 -0.1609
  892MOL0     C17641  -0.338   9.531   0.877 -0.2847  0.9470  0.4124
  892MOL0     O17642  -0.447   9.502   0.962  0.7899  0.1546  0.1705
  892MOL0     C17643  -0.559   9.461   0.897  0.4856  0.2453  0.5122
  892MOL0     C17644  -0.600   9.329   0.888  0.1513 -0.7999 -1.3253
  892MOL0     C17645  -0.730   9.300   0.830  0.7668 -0.0228  0.1506
  892MOL0     C17646  -0.824   9.396   0.797 -0.7390 -0.5754 -0.1566
  892MOL0     O17647  -0.948   9.355   0.774 -0.4860 -0.7147  0.7048
  892MOL0     C17648  -1.058   9.443   0.811 -0.1469 -0.4255  0.4437
  892MOL0     C17649  -1.186   9.362   0.783 -0.2131 -0.2670 -0.5090
  892MOL0     C17650  -1.313   9.453   0.792 -0.6092 -0.4076 -0.2934
  892MOL0     C17651  -1.430   9.355   0.810 -0.6346 -0.5196 -0.5753
  892MOL0     C17652  -1.558   9.446   0.801 -0.2335  0.0488 -0.6268
  892MOL0     C17653  -1.687   9.369   0.795 -0.4121  0.7605  0.4140
  892MOL0     C17654  -1.806   9.461   0.800  0.0982 -0.2505 -0.1447
  892MOL0     C17655  -1.943   9.398   0.819  0.3183 -0.2461  0.8732
  892MOL0    Cl17656  -2.043   9.522   0.895 -0.1214 -0.8741 -0.6428
  892MOL0     C17657  -0.776   9.528   0.805 -0.4795  0.8701  0.4936
  892MOL0     C17658  -0.647   9.559   0.850  0.1834  0.0386  0.4092
  892MOL0     O17659  -0.348   9.548   0.754 -0.3829  0.3111  0.3700
  892MOL0     C17660  -0.180   9.457   1.050  0.1276 -0.3064  0.0339
  892MOL0     C17661  -0.049   9.451   1.100  1.2943 -0.4506 -0.2560
  892MOL0     N17662   0.617   9.299   0.981 -0.1459  0.5060 -0.5545
  892MOL0     N17663   0.703   9.261   0.899 -0.6946  0.4794 -0.7504
  892MOL0     C17664   1.778   9.262   1.392 -0.1277  0.2800 -0.4212
  892MOL0     C17665   1.916   9.276   1.425 -0.3178  0.1702  0.0121
  892MOL0     C17666   2.353   9.264   1.400 -0.4724  0.8092  0.3482
  892MOL0     C17667   2.408   9.245   1.528  0.0362  1.1284  0.5191
  892MOL0     C17668   2.536   9.272   1.565  0.8870  0.4762 -0.1924
  892MOL0     C17669   2.621   9.328   1.464  0.2447 -0.7809  0.3117
  892MOL0     O17670   2.748   9.347   1.499  0.1824 -0.1733  0.4160
  892MOL0     C17671   2.820   9.448   1.426  0.0700  0.1638 -0.9703
  892MOL0     C17672   2.954   9.473   1.508 -1.0080 -0.5647  0.0792
  892MOL0     C17673   3.087   9.422   1.440  0.3832  0.1184  0.4246
  892MOL0     C17674   3.143   9.529   1.348 -0.5598  0.1921 -0.3969
  892MOL0     C17675   3.270   9.483   1.294  0.3847 -0.9952 -0.4807
  892MOL0     C17676   3.377   9.468   1.237  0.0572  0.5793  0.3171
  892MOL0     C17677   2.567   9.355   1.336 -0.6829  0.3341 -0.1570
  892MOL0     C17678   2.431   9.327   1.306 -0.1685  0.4546  0.0280
  892MOL0     H17679   1.995   8.948   1.477 -2.8608 -2.0255 -1.2555
  892MOL0     H17680   1.758   8.928   1.438 -1.8029  0.5091  0.1932
  892MOL0     H17681   1.532   9.303   1.323  2.0458  0.3365  1.2939
  892MOL0     H17682   1.472   9.262   1.480 -0.8998 -2.7234  1.0793
  892MOL0     H17683   1.289   9.250   1.347  0.8346  0.5295  1.1609
  892MOL0     H17684   1.333   9.077   1.369 -0.9820  0.9044  0.8793
  892MOL0     H17685   1.404   9.067   1.136  1.4143  0.5231 -0.8128
  892MOL0     H17686   1.403   9.238   1.115 -1.1708 -1.9107 -2.7547
  892MOL0     H17687   1.143   9.100   1.180  0.5399  0.3623  0.0138
  892MOL0     H17688   1.173   9.269   1.151 -0.9081 -0.1264  2.3991
  892MOL0     H17689   1.191   9.038   0.963 -0.7724 -0.3219  2.4706
  892MOL0     H17690   1.271   9.198   0.927 -0.1659  3.6719  3.6137
  892MOL0     H17691   0.980   9.159   1.001  2.3414 -3.0963  1.2593
  892MOL0     H17692   1.017   9.118   0.843  1.0509 -1.1459 -0.4252
  892MOL0     H17693   1.060   9.397   0.957  1.6976 -2.2838  1.2386
  892MOL0     H17694   1.127   9.348   0.794  1.8342  0.9190  2.5597
  892MOL0     H17695   0.896   9.284   0.710  0.2941 -1.6448  0.6404
  892MOL0     H17696   0.929   9.454   0.746  0.1581 -0.0343  0.4166
  892MOL0     H17697   0.817   9.548   0.997  4.0987 -2.4020  3.6783
  892MOL0     H17698   0.631   9.580   1.177  2.2447 -0.2068 -0.8747
  892MOL0     H17699   0.577   9.424   1.230  0.1149 -1.1725 -0.9561
  892MOL0     H17700   0.378   9.417   1.120  0.3766  0.0077  0.2470
  892MOL0     H17701   0.421   9.540   0.999 -3.1317  0.5345 -0.0721
  892MOL0     H17702   0.379   9.582   1.292 -0.4439  0.5376  0.7524
  892MOL0     H17703   0.443   9.701   1.183  0.3404 -1.2632 -0.7274
  892MOL0     H17704   0.233   9.727   1.076 -4.4250  1.3184  0.7349
  892MOL0     H17705   0.199   9.719   1.242 -0.5580  3.1418 -1.6808
  892MOL0     H17706   0.083   9.704   0.912  2.3686 -1.9823  0.7426
  892MOL0     H17707  -0.131   9.698   0.812 -0.6727 -0.1918  0.1876
  892MOL0     H17708  -0.530   9.251   0.915  0.3930 -0.4051 -0.8006
  892MOL0     H17709  -0.757   9.196   0.818 -1.8648  0.7107 -1.0357
  892MOL0     H17710  -1.068   9.535   0.753  1.7665  1.3557  2.7439
  892MOL0     H17711  -1.052   9.474   0.916 -0.2804  0.5520  0.1700
  892MOL0     H17712  -1.190   9.291   0.866 -1.2650  1.7313  1.2439
  892MOL0     H17713  -1.176   9.311   0.687  0.1639 -2.2371  0.5218
  892MOL0     H17714  -1.321   9.529   0.715 -1.2815  1.5421  1.5932
  892MOL0     H17715  -1.304   9.509   0.886 -0.6590  1.5819 -1.4225
  892MOL0     H17716  -1.434   9.282   0.728 -0.6148  0.2219 -1.2472
  892MOL0     H17717  -1.415   9.295   0.901 -0.0180  0.8412  0.2439
  892MOL0     H17718  -1.552   9.507   0.710  1.3142 -0.1652 -0.6964
  892MOL0     H17719  -1.564   9.505   0.893 -5.2957  0.0036 -0.6741
  892MOL0     H17720  -1.695   9.295   0.876 -0.9745  0.2337 -0.1160
  892MOL0     H17721  -1.699   9.321   0.698  3.4274  0.2324  0.0693
  892MOL0     H17722  -1.787   9.529   0.883 -1.2277  2.2825 -1.7823
  892MOL0     H17723  -1.801   9.530   0.715  2.0154 -1.7984 -1.3836
  892MOL0     H17724  -1.944   9.308   0.881  0.3338 -0.9734 -0.1633
  892MOL0     H17725  -1.990   9.380   0.722  0.4380  2.3007  0.2898
  892MOL0     H17726  -0.848   9.607   0.787 -0.7316  0.3632 -0.8348
  892MOL0     H17727  -0.612   9.660   0.873  0.8908 -0.4769  1.6882
  892MOL0     H17728  -0.256   9.389   1.088 -0.1806  1.0887  2.0811
  892MOL0     H17729  -0.016   9.380   1.175  1.8905  1.5547  1.4989
  892MOL0     H17730   1.716   9.345   1.360 -1.8790 -0.9360 -0.3385
  892MOL0     H17731   1.963   9.373   1.438 -0.5507  0.2434  0.3382
  892MOL0     H17732   2.345   9.196   1.602 -0.4195  2.3439  0.9580
  892MOL0     H17733   2.581   9.255   1.662  2.0976  0.8909 -0.6708
  892MOL0     H17734   2.765   9.537   1.395  0.4701 -0.0562 -2.4289
  892MOL0     H17735   2.849   9.398   1.332 -1.8875 -2.1342 -0.4521
  892MOL0     H17736   2.964   9.575   1.547 -0.1875  0.5197 -2.7176
  892MOL0     H17737   2.945   9.414   1.599  0.2109  0.1998  0.7268
  892MOL0     H17738   3.081   9.330   1.380  0.8067  0.3159  0.0712
  892MOL0     H17739   3.163   9.401   1.516  0.2879  1.2277  0.8353
  892MOL0     H17740   3.077   9.569   1.269 -1.2818  0.5985  0.3925
  892MOL0     H17741   3.154   9.615   1.414 -1.7923 -0.1162  0.2411
  892MOL0     H17742   3.470   9.447   1.188  0.3284  1.6300  0.3621
  892MOL0     H17743   2.625   9.400   1.256 -0.2081  0.8158  0.4510
  892MOL0     H17744   2.386   9.363   1.214  1.3954 -0.3669 -1.1246
  893MOL0     O17745   5.306   8.018  10.176 -1.0859 -0.3650 -0.0619
  893MOL0     C17746   5.331   8.073  10.286 -0.2110  0.5495  0.6324
  893MOL0     O17747   5.245   8.142  10.365  0.6502  0.0648 -0.0313
  893MOL0     C17748   5.108   8.155  10.327 -0.2034 -0.3758 -0.3244
  893MOL0     C17749   5.057   8.182  10.198  0.1009 -0.2803  0.1183
  893MOL0     C17750   4.915   8.186  10.175  1.3066  0.6617  0.1592
  893MOL0     C17751   4.831   8.193  10.289 -0.2101 -0.6931 -0.8290
  893MOL0     O17752   4.696   8.215  10.284  0.0631 -0.3261  0.9714
  893MOL0     C17753   4.643   8.326  10.209  0.0144  0.8931 -0.7875
  893MOL0     C17754   4.517   8.285  10.145  0.0579 -0.3858  0.7637
  893MOL0     C17755   4.469   8.394  10.055  0.6300  0.0511  0.5736
  893MOL0     C17756   4.311   8.393  10.035 -0.3564 -0.3012 -1.0127
  893MOL0     C17757   4.266   8.517   9.969  0.1262 -0.6134  0.0713
  893MOL0     C17758   4.153   8.500   9.869  0.6196  0.0832  0.5150
  893MOL0     C17759   4.023   8.445   9.930  0.1245 -0.5992 -0.1295
  893MOL0     C17760   3.987   8.514  10.060 -0.1976 -0.2622  0.6062
  893MOL0     N17761   3.845   8.485  10.083 -0.0005 -0.0043  0.2222
  893MOL0     C17762   3.798   8.357  10.125 -1.0171 -0.1836  0.0224
  893MOL0     C17763   3.666   8.351  10.100 -1.1396 -0.0037  0.4230
  893MOL0     C17764   3.604   8.223  10.147  0.3396  0.0248 -0.2922
  893MOL0     C17765   3.458   8.235  10.158  0.0382 -0.2377 -0.2825
  893MOL0     C17766   3.378   8.282  10.038 -0.3326 -0.1735 -0.7086
  893MOL0     C17767   3.231   8.270  10.083  0.3209 -0.0858  1.2270
  893MOL0     O17768   3.200   8.129  10.081  0.6967 -0.4600  0.3935
  893MOL0     C17769   3.066   8.095  10.116 -0.5386  0.8113 -0.6430
  893MOL0     C17770   3.047   7.955  10.137  0.7376 -0.2302 -0.9972
  893MOL0     C17771   2.916   7.907  10.186  0.0245 -0.0470 -0.2955
  893MOL0     C17772   2.815   8.001  10.228  0.1087  0.0501  0.4010
  893MOL0     C17773   2.693   7.962  10.297 -0.5614 -0.4594 -0.0264
  893MOL0     O17774   2.602   8.070  10.323 -0.2159 -0.4433 -0.1429
  893MOL0     C17775   2.491   8.046  10.396  0.0321 -0.4793  0.4342
  893MOL0     C17776   2.389   7.983  10.324  0.3882  0.0603 -0.3586
  893MOL0     C17777   2.274   7.945  10.397  0.0462 -0.5064  0.3092
  893MOL0     C17778   2.259   7.972  10.545  0.1642 -0.2519 -0.1374
  893MOL0     O17779   2.145   7.955  10.614 -0.5347 -0.7891 -0.0062
  893MOL0     C17780   2.050   7.867  10.545 -0.7802  0.1061 -0.0423
  893MOL0     C17781   1.922   7.853  10.629 -0.0246  0.0997 -0.8457
  893MOL0     C17782   1.938   7.846  10.780  0.1620  0.2050 -0.0919
  893MOL0     C17783   1.803   7.872  10.849  0.5864  1.1740  1.3567
  893MOL0     C17784   1.685   7.788  10.794 -1.1270 -1.0556 -0.1108
  893MOL0     C17785   1.577   7.800  10.901 -0.1935  0.5542  0.2290
  893MOL0     C17786   1.457   7.717  10.848 -0.0954  0.3357 -0.4318
  893MOL0     C17787   1.360   7.700  10.962  0.3943  0.3765  0.4190
  893MOL0    Cl17788   1.294   7.852  11.015 -0.3196 -0.5783  0.2385
  893MOL0     C17789   2.367   8.041  10.601  0.6156 -0.1800 -0.5767
  893MOL0     C17790   2.482   8.068  10.531  0.2455  1.1955 -0.0852
  893MOL0     O17791   2.672   7.845  10.312 -0.5797  0.1842  0.4437
  893MOL0     C17792   2.834   8.137  10.204 -0.5793 -0.5008  1.0454
  893MOL0     C17793   2.961   8.179  10.142  1.0034  0.3523 -0.3308
  893MOL0     N17794   3.624   8.475  10.052 -0.2377  0.1809 -0.4209
  893MOL0     N17795   3.728   8.543  10.030  0.4199 -0.3630 -0.0461
  893MOL0     C17796   4.887   8.173  10.416 -0.2706 -0.1362 -0.3292
  893MOL0     C17797   5.021   8.148  10.436  0.4149 -0.4240  0.4788
  893MOL0     C17798   5.462   8.060  10.345 -0.3226 -0.1685 -0.1367
  893MOL0     C17799   5.487   8.075  10.482 -0.7818 -0.1639 -0.1541
  893MOL0     C17800   5.622   8.100  10.518 -0.4167  0.2460 -0.3660
  893MOL0     C17801   5.728   8.094  10.429 -0.4478 -0.5913 -0.3228
  893MOL0     O17802   5.866   8.107  10.458  0.2332 -1.4661  0.0515
  893MOL0     C17803   5.907   8.155  10.584  0.6300  0.4570 -0.2209
  893MOL0     C17804   6.043   8.215  10.576 -0.3736  0.3165 -0.4175
  893MOL0     C17805   6.039   8.329  10.468 -0.4151 -0.4668  0.1325
  893MOL0     C17806   6.185   8.381  10.432 -0.5026  0.7690 -0.0085
  893MOL0     C17807   6.174   8.491  10.337 -0.0477 -0.0467  0.1692
  893MOL0     C17808   6.178   8.586  10.264  0.9261 -0.5936  0.5102
  893MOL0     C17809   5.701   8.064  10.297 -0.0374 -0.5792 -0.6856
  893MOL0     C17810   5.568   8.053  10.256 -0.7684 -0.9119 -0.1189
  893MOL0     H17811   5.129   8.189  10.117  1.8135 -1.8545  1.4195
  893MOL0     H17812   4.878   8.201  10.074  1.2078  1.1749  0.2689
  893MOL0     H17813   4.706   8.361  10.127 -2.8892  0.6077 -3.3219
  893MOL0     H17814   4.635   8.408  10.280 -2.4090  0.7074 -0.7637
  893MOL0     H17815   4.444   8.272  10.226 -1.2048  1.8988  0.0907
  893MOL0     H17816   4.523   8.192  10.087  0.8695  1.0251 -1.5275
  893MOL0     H17817   4.517   8.386   9.957 -1.5100 -2.6233 -0.4126
  893MOL0     H17818   4.503   8.487  10.101 -2.3751  1.3165  0.4510
  893MOL0     H17819   4.298   8.300   9.979  0.1428  0.0486 -1.7312
  893MOL0     H17820   4.252   8.375  10.125  0.6850  0.2810 -0.1996
  893MOL0     H17821   4.348   8.550   9.905 -0.0968  2.9302  1.3647
  893MOL0     H17822   4.246   8.594  10.044 -0.6470 -1.3840  0.6677
  893MOL0     H17823   4.164   8.431   9.785 -1.7198  2.6910 -2.1893
  893MOL0     H17824   4.140   8.595   9.817  1.6961 -0.8160 -1.5227
  893MOL0     H17825   3.946   8.470   9.857 -1.5901  2.3000  2.4552
  893MOL0     H17826   4.036   8.337   9.943 -2.8658 -0.9528  0.6260
  893MOL0     H17827   3.992   8.622  10.046 -1.8101  0.3220  3.5491
  893MOL0     H17828   4.046   8.480  10.146  0.9517 -0.3293 -0.2006
  893MOL0     H17829   3.860   8.275  10.158 -0.2324  1.2578  2.3768
  893MOL0     H17830   3.636   8.207  10.251  1.2593  4.7281  0.3770
  893MOL0     H17831   3.634   8.139  10.084  0.0644 -0.2024 -0.1254
  893MOL0     H17832   3.433   8.305  10.238  0.8966 -0.0540 -0.1613
  893MOL0     H17833   3.416   8.137  10.183 -0.1449  0.0363  0.5280
  893MOL0     H17834   3.389   8.391  10.026  2.2546  0.0885  2.5500
  893MOL0     H17835   3.408   8.231   9.946  3.2996  1.0682 -0.3829
  893MOL0     H17836   3.166   8.322  10.013  0.6428  0.7258  1.5164
  893MOL0     H17837   3.219   8.313  10.183  3.4964 -0.5044  1.8847
  893MOL0     H17838   3.130   7.888  10.118  1.1240  0.3753 -1.4520
  893MOL0     H17839   2.897   7.801  10.199 -1.3385  0.2292  0.1660
  893MOL0     H17840   2.400   7.954  10.220  3.8090 -0.9010  0.1436
  893MOL0     H17841   2.194   7.896  10.343 -0.0185  1.0889 -1.1117
  893MOL0     H17842   2.086   7.767  10.522 -1.5289  0.4885 -3.3688
  893MOL0     H17843   2.017   7.909  10.450  0.7379  0.3489 -0.4799
  893MOL0     H17844   1.862   7.769  10.592  0.5140  0.3248 -2.2896
  893MOL0     H17845   1.866   7.943  10.603  2.0508  2.5944  2.5440
  893MOL0     H17846   2.009   7.925  10.809  0.4730 -0.0600 -0.1260
  893MOL0     H17847   1.981   7.753  10.818 -1.6982 -1.9608 -2.9186
  893MOL0     H17848   1.822   7.836  10.951  4.6252  3.5318  1.6712
  893MOL0     H17849   1.771   7.977  10.854 -1.2230  0.9636 -2.4773
  893MOL0     H17850   1.727   7.688  10.779 -0.0150 -0.6057 -0.1349
  893MOL0     H17851   1.650   7.830  10.700 -1.0059  1.5553  0.9228
  893MOL0     H17852   1.550   7.905  10.915 -1.1866  0.5363 -1.3392
  893MOL0     H17853   1.611   7.755  10.995 -1.7934 -2.5581 -0.5528
  893MOL0     H17854   1.405   7.756  10.760 -4.2845 -3.7500 -0.1735
  893MOL0     H17855   1.495   7.618  10.823  3.2000  1.2489  0.3868
  893MOL0     H17856   1.417   7.642  11.036  0.2531  0.1651  0.3603
  893MOL0     H17857   1.280   7.634  10.929  0.8315  0.1818 -0.2851
  893MOL0     H17858   2.375   8.063  10.706 -0.6769  0.3982 -0.5777
  893MOL0     H17859   2.572   8.109  10.574  0.1412  0.0964  1.2753
  893MOL0     H17860   2.762   8.212  10.234  0.0049 -0.3492  2.1068
  893MOL0     H17861   2.976   8.285  10.127  2.6182 -0.0605 -1.9832
  893MOL0     H17862   4.819   8.170  10.500 -0.4030 -0.4473 -0.4450
  893MOL0     H17863   5.076   8.127  10.528  0.0420  3.2573  1.6879
  893MOL0     H17864   5.415   8.078  10.563 -1.1576  2.1350 -0.5147
  893MOL0     H17865   5.653   8.116  10.621  0.4143  0.5093 -0.6495
  893MOL0     H17866   5.903   8.070  10.652  0.6248  0.5428 -0.1113
  893MOL0     H17867   5.841   8.236  10.616 -1.1493 -0.2853 -1.8450
  893MOL0     H17868   6.067   8.250  10.677  1.2812 -0.9514 -0.3275
  893MOL0     H17869   6.122   8.151  10.537  0.3945  0.3932  0.9432
  893MOL0     H17870   5.971   8.406  10.506 -0.1042 -1.3910  2.7546
  893MOL0     H17871   5.990   8.295  10.376 -0.2388 -2.1661  0.6494
  893MOL0     H17872   6.233   8.422  10.522 -0.6343 -1.9889  1.4324
  893MOL0     H17873   6.255   8.303  10.398 -1.8503  0.5170 -2.4059
  893MOL0     H17874   6.179   8.672  10.201 -0.1131 -1.9161 -1.4036
  893MOL0     H17875   5.792   8.035  10.245 -0.5609  0.1474 -2.0379
  893MOL0     H17876   5.553   8.037  10.150 -2.9947 -1.3314  0.1946
  894MOL0     O17877   5.083   9.504   3.852  0.2877 -0.3065 -0.2740
  894MOL0     C17878   5.089   9.606   3.922 -0.2396 -0.0490  0.4720
  894MOL0     O17879   4.997   9.645   4.012 -0.5784  0.0282 -0.2479
  894MOL0     C17880   4.880   9.581   4.037 -0.4050  0.6776  0.5059
  894MOL0     C17881   4.778   9.652   4.090 -1.3357  0.2491 -0.0422
  894MOL0     C17882   4.674   9.586   4.161 -0.4667 -0.3799  0.0239
  894MOL0     C17883   4.684   9.449   4.183 -0.7359  0.5973 -0.4616
  894MOL0     O17884   4.581   9.386   4.253 -0.1066  0.0240  0.3836
  894MOL0     C17885   4.610   9.391   4.393  0.4912 -0.3192 -0.7959
  894MOL0     C17886   4.479   9.386   4.469  0.1388  0.9505  0.4882
  894MOL0     C17887   4.399   9.512   4.468 -0.4004  0.2422  0.2628
  894MOL0     C17888   4.468   9.623   4.533  0.4927 -0.1645  0.4395
  894MOL0     C17889   4.368   9.743   4.559 -0.5145 -0.6394  0.0250
  894MOL0     C17890   4.460   9.866   4.562 -0.1248 -0.1761  0.0364
  894MOL0     C17891   4.378   9.996   4.595 -0.1904 -0.0878 -0.5346
  894MOL0     C17892   4.474  10.117   4.613 -0.7016  0.5108 -0.5056
  894MOL0     N17893   4.571  10.097   4.724 -0.0919  0.3384  0.2321
  894MOL0     C17894   4.533  10.087   4.858 -0.2860 -0.5912 -0.3326
  894MOL0     C17895   4.651  10.075   4.927  0.2061  0.1306  0.6285
  894MOL0     C17896   4.657  10.074   5.075  0.4872 -0.3427 -0.9080
  894MOL0     C17897   4.589   9.961   5.143 -0.1961 -0.3775  0.4307
  894MOL0     C17898   4.651   9.825   5.123  0.1806 -0.4486  0.1687
  894MOL0     C17899   4.800   9.811   5.084 -0.5287 -0.6172 -0.6776
  894MOL0     O17900   4.877   9.832   5.205  0.1238  0.1312 -0.0639
  894MOL0     C17901   5.016   9.821   5.203  0.2512 -0.0737 -0.6150
  894MOL0     C17902   5.075   9.848   5.328  0.6195 -1.1289 -0.5407
  894MOL0     C17903   5.213   9.831   5.344 -0.4506 -1.1070  0.7454
  894MOL0     C17904   5.290   9.766   5.240 -0.0765 -0.2821 -0.3122
  894MOL0     C17905   5.429   9.737   5.269  0.4408 -0.0398  0.2723
  894MOL0     O17906   5.474   9.768   5.401 -0.2648 -0.2673  0.3642
  894MOL0     C17907   5.608   9.741   5.415  0.1115 -0.4872 -0.0918
  894MOL0     C17908   5.710   9.833   5.397 -0.0976 -0.5845  0.1941
  894MOL0     C17909   5.841   9.791   5.419 -0.0233 -0.0756 -0.2770
  894MOL0     C17910   5.882   9.657   5.437 -0.2356  0.4924  0.1033
  894MOL0     O17911   6.012   9.618   5.445  0.1203 -0.0630  0.0765
  894MOL0     C17912   6.114   9.722   5.455 -0.6810  0.4673 -0.4225
  894MOL0     C17913   6.253   9.667   5.427  0.1398  0.3080  0.1800
  894MOL0     C17914   6.355   9.742   5.512 -0.6120  0.3630  0.6430
  894MOL0     C17915   6.502   9.689   5.518  1.0125  0.2902  0.0811
  894MOL0     C17916   6.595   9.783   5.595  0.0237  0.3137 -0.2796
  894MOL0     C17917   6.740   9.745   5.589  0.2909 -0.5010 -0.5741
  894MOL0     C17918   6.826   9.842   5.676  0.2944 -0.1802  0.7197
  894MOL0     C17919   6.976   9.817   5.638 -0.2789  0.2546  0.0631
  894MOL0    Cl17920   7.086   9.908   5.749 -0.4419 -0.0266  0.3755
  894MOL0     C17921   5.779   9.562   5.446  0.2939 -0.4170  0.1249
  894MOL0     C17922   5.641   9.608   5.449  0.4095 -0.9172  0.2562
  894MOL0     O17923   5.490   9.682   5.178 -0.6947  0.4019  0.1520
  894MOL0     C17924   5.225   9.753   5.118  0.0006 -0.0823 -0.5771
  894MOL0     C17925   5.092   9.777   5.097 -0.3094  0.1182 -0.2570
  894MOL0     N17926   4.749  10.051   4.837 -0.7443  0.1154  0.4796
  894MOL0     N17927   4.705  10.088   4.724 -0.2776  0.5138 -1.1012
  894MOL0     C17928   4.789   9.370   4.130 -0.4410 -0.1903 -0.8990
  894MOL0     C17929   4.884   9.439   4.049 -0.5806 -1.2293  1.0925
  894MOL0     C17930   5.200   9.701   3.901 -0.6205  0.7391  0.0701
  894MOL0     C17931   5.200   9.813   3.979 -0.3656 -0.3688 -0.3057
  894MOL0     C17932   5.309   9.903   3.989  0.3764 -0.9281 -0.5292
  894MOL0     C17933   5.428   9.865   3.933  0.2531  0.4899 -0.2690
  894MOL0     O17934   5.546   9.937   3.965 -0.0307  0.4667  0.4425
  894MOL0     C17935   5.669   9.900   3.902 -0.8004  0.1265 -0.3072
  894MOL0     C17936   5.672   9.965   3.762  1.3016  0.0939  0.7362
  894MOL0     C17937   5.665  10.121   3.769  0.1511  1.0239 -0.1817
  894MOL0     C17938   5.601  10.185   3.645  0.0562  0.0882 -0.1508
  894MOL0     C17939   5.455  10.191   3.647 -0.2953 -0.3611 -0.3413
  894MOL0     C17940   5.335  10.170   3.658 -0.0809  0.2713 -0.2244
  894MOL0     C17941   5.420   9.758   3.837 -0.7259 -0.1217 -0.6331
  894MOL0     C17942   5.304   9.688   3.816  0.2639  1.2806  0.0631
  894MOL0     H17943   4.785   9.760   4.075  3.7535  0.6171  2.7470
  894MOL0     H17944   4.587   9.636   4.203 -0.5266 -1.8013  1.7290
  894MOL0     H17945   4.677   9.472   4.425  0.3365  0.3933 -2.2077
  894MOL0     H17946   4.662   9.298   4.419  1.0589  0.6625  1.9501
  894MOL0     H17947   4.494   9.342   4.568 -1.2234  0.2321  0.4046
  894MOL0     H17948   4.413   9.314   4.419  0.0990  1.1969  0.1847
  894MOL0     H17949   4.309   9.485   4.524 -0.2595 -0.4062  0.1874
  894MOL0     H17950   4.386   9.537   4.362 -2.8565  1.2050  0.7205
  894MOL0     H17951   4.519   9.584   4.622  0.5883  0.3020  0.5951
  894MOL0     H17952   4.551   9.646   4.466  0.1168 -2.0019 -0.7242
  894MOL0     H17953   4.308   9.737   4.650 -1.3797 -0.3104 -0.5112
  894MOL0     H17954   4.298   9.746   4.475  1.0115 -1.8037 -1.3520
  894MOL0     H17955   4.511   9.888   4.468  0.8810  1.9616  1.0050
  894MOL0     H17956   4.531   9.855   4.645 -1.5157  1.5486  1.5475
  894MOL0     H17957   4.309  10.006   4.511 -1.7361 -1.0277  0.5545
  894MOL0     H17958   4.309   9.984   4.680  1.5734 -1.4428  0.7895
  894MOL0     H17959   4.420  10.210   4.631  0.1661  0.9271  0.0378
  894MOL0     H17960   4.529  10.136   4.521  1.2676  2.8211  1.0155
  894MOL0     H17961   4.436  10.095   4.907  0.7822 -1.6105  2.1631
  894MOL0     H17962   4.606  10.167   5.100 -4.4334 -2.3646 -2.2450
  894MOL0     H17963   4.764  10.069   5.096  0.3674 -3.1011 -0.6266
  894MOL0     H17964   4.488   9.958   5.102  0.2082  1.3695 -0.8427
  894MOL0     H17965   4.590   9.973   5.251 -0.4628 -1.3181  0.5506
  894MOL0     H17966   4.635   9.762   5.212 -0.9529 -1.5949 -0.8010
  894MOL0     H17967   4.593   9.772   5.047  0.2680  0.8860 -0.8577
  894MOL0     H17968   4.836   9.881   5.008  0.2799 -1.4243 -1.0524
  894MOL0     H17969   4.818   9.711   5.046 -0.7722 -1.4769  1.3452
  894MOL0     H17970   5.015   9.873   5.415  1.7296  2.2422 -0.5844
  894MOL0     H17971   5.248   9.856   5.443  1.5330  0.2223 -0.2036
  894MOL0     H17972   5.679   9.937   5.388 -2.0303 -1.2681 -2.6543
  894MOL0     H17973   5.907   9.876   5.405 -0.1235 -0.1329 -1.1476
  894MOL0     H17974   6.104   9.767   5.555  1.0900  1.1920 -0.5342
  894MOL0     H17975   6.103   9.807   5.387 -1.4466  0.5561 -0.2009
  894MOL0     H17976   6.277   9.671   5.320  0.1590 -0.3189  0.1530
  894MOL0     H17977   6.266   9.565   5.465  3.5081  0.2752 -0.7826
  894MOL0     H17978   6.310   9.729   5.611 -2.7460  1.9834 -0.0283
  894MOL0     H17979   6.344   9.845   5.475 -2.6614 -0.7531 -2.2218
  894MOL0     H17980   6.503   9.591   5.566  1.1593  0.3409  0.1866
  894MOL0     H17981   6.532   9.682   5.413 -1.4364 -0.5502 -0.6346
  894MOL0     H17982   6.563   9.778   5.700 -1.9299 -0.9300 -0.8898
  894MOL0     H17983   6.596   9.886   5.558  0.4046 -0.4102 -2.3995
  894MOL0     H17984   6.777   9.747   5.486 -2.2387  0.1189 -1.5573
  894MOL0     H17985   6.771   9.650   5.632 -2.1876  0.2809  3.4253
  894MOL0     H17986   6.793   9.946   5.661 -0.3688 -0.7468 -2.4480
  894MOL0     H17987   6.814   9.810   5.779 -0.8495  0.6998  0.8885
  894MOL0     H17988   6.985   9.834   5.530  0.5895 -1.8471 -0.2418
  894MOL0     H17989   7.004   9.714   5.658  1.5858  0.6332 -0.4339
  894MOL0     H17990   5.796   9.455   5.449  2.1528 -0.1841 -0.9464
  894MOL0     H17991   5.565   9.532   5.448 -0.6356 -0.0010 -3.5538
  894MOL0     H17992   5.281   9.703   5.039  0.0077 -0.8987 -0.0571
  894MOL0     H17993   5.058   9.759   4.995  0.9913  2.0847 -1.0936
  894MOL0     H17994   4.813   9.264   4.136 -0.6948 -0.3846 -2.8504
  894MOL0     H17995   4.970   9.380   4.020 -0.1830  0.5469 -1.7331
  894MOL0     H17996   5.106   9.848   4.021 -1.5136 -0.7172 -2.4520
  894MOL0     H17997   5.300  10.003   4.029 -0.0446 -0.5743 -1.4876
  894MOL0     H17998   5.691   9.793   3.900 -0.6679  0.1601 -0.9050
  894MOL0     H17999   5.750   9.949   3.957 -0.9437  0.1635 -0.1307
  894MOL0     H18000   5.769   9.944   3.717  0.3983 -2.4207 -0.2250
  894MOL0     H18001   5.593   9.920   3.701 -0.5987 -1.3450  3.9755
  894MOL0     H18002   5.769  10.150   3.785  0.5326 -0.3733  0.0601
  894MOL0     H18003   5.605  10.147   3.857 -2.5254 -1.3775 -1.1276
  894MOL0     H18004   5.637  10.287   3.631  0.4742 -0.2822 -2.0793
  894MOL0     H18005   5.629  10.131   3.554  1.9122 -1.5466  1.3244
  894MOL0     H18006   5.232  10.149   3.681 -1.4445  1.3877 -4.4133
  894MOL0     H18007   5.504   9.713   3.784 -3.2500 -3.0768 -2.4116
  894MOL0     H18008   5.302   9.607   3.743 -1.2888  0.3944  1.0558
  895MOL0     O18009  10.366   7.992   1.037 -0.0492 -0.0711  0.2689
  895MOL0     C18010  10.397   8.037   0.925  0.5543  0.0837 -0.9233
  895MOL0     O18011  10.317   8.121   0.849 -0.1284  0.3189  0.5182
  895MOL0     C18012  10.183   8.150   0.879  0.2552 -0.1660  0.5287
  895MOL0     C18013  10.119   8.257   0.810 -1.5523  0.3052 -0.8719
  895MOL0     C18014   9.984   8.276   0.812 -0.0580 -0.2671 -0.2918
  895MOL0     C18015   9.908   8.198   0.898 -0.5768 -0.2265 -0.2978
  895MOL0     O18016   9.778   8.216   0.900  0.7300  0.6021  0.3525
  895MOL0     C18017   9.715   8.329   0.833 -0.5325  0.7686  0.0031
  895MOL0     C18018   9.566   8.318   0.864  0.7618  0.4851  0.9163
  895MOL0     C18019   9.490   8.434   0.794 -0.1313  0.0992 -0.6291
  895MOL0     C18020   9.334   8.406   0.779  0.1929 -0.1835 -0.2457
  895MOL0     C18021   9.270   8.521   0.697 -0.1782  0.1729  0.8951
  895MOL0     C18022   9.127   8.500   0.674 -0.0923 -0.9541  0.3179
  895MOL0     C18023   9.036   8.531   0.787  0.7530  0.0433 -0.4108
  895MOL0     C18024   8.893   8.471   0.760 -0.0748  0.2426  0.4766
  895MOL0     N18025   8.857   8.381   0.868 -0.3310  0.0967 -0.7375
  895MOL0     C18026   8.734   8.380   0.925 -0.4083  0.5767 -0.2318
  895MOL0     C18027   8.748   8.321   1.045 -0.0734 -0.3906 -0.3036
  895MOL0     C18028   8.634   8.306   1.155  0.1052  0.1545 -0.0250
  895MOL0     C18029   8.499   8.302   1.089  0.9785  0.7730 -0.3444
  895MOL0     C18030   8.397   8.251   1.190  0.4375  0.4651  0.3994
  895MOL0     C18031   8.259   8.254   1.132 -0.1408  0.9257  0.1706
  895MOL0     O18032   8.181   8.195   1.236 -0.2901  0.3022  0.6619
  895MOL0     C18033   8.056   8.247   1.241  0.6051 -0.3770 -0.9684
  895MOL0     C18034   8.011   8.359   1.321  0.1215  0.6603 -0.3500
  895MOL0     C18035   7.883   8.407   1.314  0.0395  0.3679  0.3891
  895MOL0     C18036   7.778   8.332   1.248 -0.3241 -0.7138  0.1946
  895MOL0     C18037   7.642   8.382   1.243 -0.5900  0.8579 -0.0424
  895MOL0     O18038   7.550   8.309   1.175  0.3817 -0.3579  0.1530
  895MOL0     C18039   7.423   8.357   1.173 -0.1697 -0.0908  0.4358
  895MOL0     C18040   7.350   8.361   1.292  0.1745  0.6553  0.2823
  895MOL0     C18041   7.216   8.390   1.285  0.1897  1.1780 -0.0599
  895MOL0     C18042   7.157   8.428   1.169 -0.6599  0.5170 -0.2138
  895MOL0     O18043   7.023   8.465   1.161  0.1814 -0.1658  0.4448
  895MOL0     C18044   6.943   8.366   1.095  0.2151  0.0032 -0.0572
  895MOL0     C18045   6.794   8.417   1.059 -0.1789 -0.2390 -0.9201
  895MOL0     C18046   6.719   8.499   1.165 -0.4820  0.2766  0.3072
  895MOL0     C18047   6.754   8.463   1.310  0.8948  0.4623 -0.2079
  895MOL0     C18048   6.661   8.521   1.408  0.0413 -0.2231 -0.3016
  895MOL0     C18049   6.728   8.491   1.548 -0.0914 -0.2658 -0.0958
  895MOL0     C18050   6.637   8.526   1.665  0.5688 -0.4768 -0.0916
  895MOL0     C18051   6.553   8.412   1.714  0.3712  0.3519 -0.5371
  895MOL0    Cl18052   6.410   8.405   1.614 -0.0846  0.2484 -0.1128
  895MOL0     C18053   7.226   8.435   1.051  0.0322  0.2315  0.0498
  895MOL0     C18054   7.361   8.393   1.052  0.5438  0.2391  0.0309
  895MOL0     O18055   7.616   8.471   1.322 -0.3163 -1.2134 -0.3786
  895MOL0     C18056   7.818   8.214   1.183 -0.5036 -0.0467  0.2296
  895MOL0     C18057   7.952   8.176   1.183 -0.9626 -0.2549  1.4144
  895MOL0     N18058   8.883   8.273   1.055  0.0054  0.1078  0.0792
  895MOL0     N18059   8.942   8.304   0.944 -0.0615 -0.2613  0.6826
  895MOL0     C18060   9.966   8.099   0.976  0.1092  0.5188 -0.8249
  895MOL0     C18061  10.100   8.074   0.956 -0.2451 -0.1050  0.4770
  895MOL0     C18062  10.528   8.008   0.862 -0.0814 -0.3307  0.0037
  895MOL0     C18063  10.555   8.054   0.730  0.6581  0.3689 -0.0216
  895MOL0     C18064  10.683   8.023   0.672  0.5469  0.2502 -0.3354
  895MOL0     C18065  10.775   7.947   0.748 -0.4597 -0.4961  0.5683
  895MOL0     O18066  10.902   7.907   0.702  0.7250  0.0587  0.5019
  895MOL0     C18067  10.964   7.997   0.613  0.2845 -0.3856  0.3273
  895MOL0     C18068  11.106   7.955   0.583  0.5104 -1.2404 -0.7102
  895MOL0     C18069  11.195   7.953   0.714  0.2357 -0.0845  0.1885
  895MOL0     C18070  11.336   7.970   0.680 -0.0675 -0.0912 -0.7567
  895MOL0     C18071  11.385   7.878   0.578 -1.3225 -0.1810 -0.1615
  895MOL0     C18072  11.438   7.792   0.509 -0.1186 -0.0509 -0.5006
  895MOL0     C18073  10.740   7.906   0.872 -0.1798  0.0795  0.5873
  895MOL0     C18074  10.622   7.932   0.930  0.4358 -0.3346  0.0325
  895MOL0     H18075  10.187   8.312   0.745  0.3789 -1.1367 -0.1965
  895MOL0     H18076   9.947   8.359   0.753  1.0380  1.0640  0.8123
  895MOL0     H18077   9.749   8.340   0.729  0.9245 -0.3491  0.3177
  895MOL0     H18078   9.752   8.414   0.891  1.2341 -1.4602  2.4137
  895MOL0     H18079   9.548   8.337   0.970 -0.4554  0.0389  0.8034
  895MOL0     H18080   9.523   8.219   0.846  1.2990  0.7114 -2.0355
  895MOL0     H18081   9.528   8.440   0.691 -0.5757  3.2439 -0.7016
  895MOL0     H18082   9.497   8.527   0.850 -1.8219 -0.0918 -0.0619
  895MOL0     H18083   9.319   8.309   0.732  0.4364 -0.9735  1.2632
  895MOL0     H18084   9.285   8.396   0.877 -0.3913 -0.4070 -0.5542
  895MOL0     H18085   9.319   8.521   0.599 -1.4691  0.2901  0.2285
  895MOL0     H18086   9.284   8.618   0.745 -1.0929 -0.2689  2.0880
  895MOL0     H18087   9.105   8.393   0.664 -1.3536 -0.8059  1.2207
  895MOL0     H18088   9.098   8.553   0.582 -0.6273  0.5439  1.3204
  895MOL0     H18089   9.073   8.496   0.884  2.0862 -2.3892 -1.7264
  895MOL0     H18090   9.031   8.640   0.794  0.0760  0.1320 -1.8780
  895MOL0     H18091   8.886   8.425   0.660 -1.3835  2.3679 -0.4702
  895MOL0     H18092   8.823   8.554   0.754  0.3981  0.6939  1.0096
  895MOL0     H18093   8.641   8.424   0.890 -1.5285 -0.3279  1.4622
  895MOL0     H18094   8.627   8.392   1.222 -0.9649  1.4073 -1.6658
  895MOL0     H18095   8.663   8.212   1.204 -0.5812 -0.9196 -1.6001
  895MOL0     H18096   8.499   8.234   1.004  0.1077  0.0417  0.2223
  895MOL0     H18097   8.472   8.401   1.051 -1.6307  0.1392 -0.2645
  895MOL0     H18098   8.427   8.152   1.226 -0.9815  0.0435  0.4934
  895MOL0     H18099   8.408   8.317   1.276  0.5356  1.0955 -0.0927
  895MOL0     H18100   8.260   8.193   1.041  1.4758 -0.3831  1.0049
  895MOL0     H18101   8.219   8.354   1.113  2.6726  1.9844 -0.6594
  895MOL0     H18102   8.091   8.409   1.374  0.8042  0.1226 -0.8505
  895MOL0     H18103   7.874   8.503   1.364  2.7380  1.3380 -0.8012
  895MOL0     H18104   7.402   8.333   1.383  2.1601 -1.2815 -1.3495
  895MOL0     H18105   7.155   8.383   1.375  1.0256 -1.1227  0.3981
  895MOL0     H18106   6.921   8.280   1.158 -0.6198  1.7230  2.1097
  895MOL0     H18107   6.994   8.322   1.008  1.9458 -0.2230  1.0120
  895MOL0     H18108   6.738   8.324   1.048  1.0890 -1.5122  2.2941
  895MOL0     H18109   6.791   8.471   0.964  0.4307  0.9790 -0.2665
  895MOL0     H18110   6.611   8.489   1.155 -0.5422  1.7253 -0.8522
  895MOL0     H18111   6.753   8.602   1.152 -1.0529  0.4214 -0.0691
  895MOL0     H18112   6.760   8.355   1.323  0.2693  0.4723  0.2096
  895MOL0     H18113   6.856   8.492   1.336  0.7457  0.6789  0.1410
  895MOL0     H18114   6.561   8.477   1.407 -0.3698  0.6704  0.3059
  895MOL0     H18115   6.645   8.628   1.392 -0.4578 -0.5277 -2.1432
  895MOL0     H18116   6.823   8.543   1.556  0.2711 -0.6619 -1.6116
  895MOL0     H18117   6.756   8.386   1.554 -1.4027 -0.6896 -0.8719
  895MOL0     H18118   6.706   8.562   1.742 -1.7619  0.0972  1.8534
  895MOL0     H18119   6.568   8.610   1.649  0.5180 -0.0632  2.0340
  895MOL0     H18120   6.512   8.438   1.812 -1.9462  1.3339 -1.6891
  895MOL0     H18121   6.606   8.316   1.723 -2.6132 -1.2954  1.2423
  895MOL0     H18122   7.170   8.467   0.964  1.9242  0.1180 -1.2534
  895MOL0     H18123   7.423   8.380   0.965  1.1431  1.1356  0.3131
  895MOL0     H18124   7.754   8.154   1.119  1.0621 -1.2325 -0.2813
  895MOL0     H18125   7.958   8.082   1.129 -1.4238  0.8156 -0.6004
  895MOL0     H18126   9.894   8.040   1.032  0.9636 -0.4929 -0.7413
  895MOL0     H18127  10.131   7.980   0.999 -1.2556 -0.2605  0.8872
  895MOL0     H18128  10.476   8.102   0.673  0.4273  1.3545  1.0850
  895MOL0     H18129  10.705   8.061   0.573  1.6157  0.5420  0.0039
  895MOL0     H18130  10.954   8.101   0.646 -1.3529 -0.2925 -0.3356
  895MOL0     H18131  10.909   7.995   0.518  0.9145  0.1145 -0.0586
  895MOL0     H18132  11.093   7.853   0.544  2.9335 -1.6249 -0.6763
  895MOL0     H18133  11.153   8.022   0.510 -1.4947  1.0491 -0.0396
  895MOL0     H18134  11.184   7.857   0.766 -0.4482  0.0328  0.2755
  895MOL0     H18135  11.164   8.039   0.775 -0.1771  0.3144 -0.5768
  895MOL0     H18136  11.340   8.072   0.641 -0.0349  0.9897  1.8397
  895MOL0     H18137  11.399   7.952   0.768 -0.3505  0.5928 -0.4083
  895MOL0     H18138  11.485   7.716   0.449 -0.2116  1.1946 -2.2149
  895MOL0     H18139  10.800   7.836   0.929  2.7483  0.8504 -1.3691
  895MOL0     H18140  10.608   7.885   1.027  3.3246 -2.1816 -0.3348
  896MOL0     O18141   6.779   4.631  10.163 -0.2157 -0.4597  0.4531
  896MOL0     C18142   6.848   4.629  10.263  0.2002 -0.8115  0.1284
  896MOL0     O18143   6.807   4.593  10.387 -0.3277 -0.1192  0.4194
  896MOL0     C18144   6.687   4.533  10.401  0.3546 -0.4508  0.3883
  896MOL0     C18145   6.650   4.414  10.332 -0.5317 -0.4332 -1.1172
  896MOL0     C18146   6.517   4.371  10.329  0.2091 -0.1719  0.8941
  896MOL0     C18147   6.411   4.451  10.383 -0.0549 -0.7996 -0.0399
  896MOL0     O18148   6.283   4.405  10.356  0.7020  0.1190 -0.0552
  896MOL0     C18149   6.173   4.477  10.398  0.3420  0.1255  0.3432
  896MOL0     C18150   6.040   4.406  10.342  0.1186  0.6717  0.1182
  896MOL0     C18151   5.914   4.476  10.383 -0.3076 -0.4439  0.1118
  896MOL0     C18152   5.792   4.403  10.334 -0.3133  0.4558  0.1715
  896MOL0     C18153   5.664   4.474  10.372 -0.4849  0.0440 -0.6608
  896MOL0     C18154   5.547   4.395  10.322 -0.0772 -0.5728  0.1294
  896MOL0     C18155   5.410   4.469  10.350 -0.2464 -0.5863  0.5056
  896MOL0     C18156   5.369   4.462  10.493 -0.2185 -0.1457 -0.6592
  896MOL0     N18157   5.306   4.336  10.530 -0.3340 -0.1735 -0.2180
  896MOL0     C18158   5.183   4.299  10.484 -0.0229 -0.0918 -0.4855
  896MOL0     C18159   5.178   4.170  10.479 -0.0039 -0.3125  0.2337
  896MOL0     C18160   5.064   4.090  10.423  0.0154 -0.4025 -0.3049
  896MOL0     C18161   4.931   4.126  10.474  0.7480 -0.7399  0.2791
  896MOL0     C18162   4.819   4.066  10.384  0.1086  0.3844 -0.5335
  896MOL0     C18163   4.686   4.052  10.454 -0.8985 -0.3549  0.2263
  896MOL0     O18164   4.592   4.041  10.348  0.4619  0.1686 -0.4066
  896MOL0     C18165   4.467   3.995  10.369  0.6141  0.2326  0.3205
  896MOL0     C18166   4.406   3.959  10.487 -0.0756  0.2964 -0.8381
  896MOL0     C18167   4.276   3.900  10.488 -0.0295  0.5258 -0.3120
  896MOL0     C18168   4.212   3.874  10.367 -0.2207 -0.0602  0.8874
  896MOL0     C18169   4.071   3.840  10.361 -0.0777  0.0423 -0.1818
  896MOL0     O18170   3.996   3.888  10.251 -0.3618 -0.7746  0.3936
  896MOL0     C18171   3.862   3.865  10.241  0.2126 -0.3775  0.0902
  896MOL0     C18172   3.799   3.979  10.197  0.4953 -0.5623 -1.4029
  896MOL0     C18173   3.659   3.972  10.185 -0.7138 -0.6137 -0.4392
  896MOL0     C18174   3.589   3.859  10.225  0.9798  0.1876  0.4340
  896MOL0     O18175   3.448   3.847  10.226  0.0173  0.1523 -0.0523
  896MOL0     C18176   3.376   3.939  10.146 -0.4746 -0.4742  0.0500
  896MOL0     C18177   3.229   3.937  10.193  0.3025  0.2406  0.1913
  896MOL0     C18178   3.142   4.065  10.178 -0.6656  0.4152 -0.3650
  896MOL0     C18179   2.997   4.033  10.237  0.0654  0.4798 -0.2773
  896MOL0     C18180   2.878   4.084  10.148  0.0433 -0.1897 -0.1694
  896MOL0     C18181   2.736   4.080  10.214  0.6608  0.4224  0.4517
  896MOL0     C18182   2.631   4.130  10.117  0.2083  0.1525 -0.4392
  896MOL0     C18183   2.487   4.129  10.168 -0.2901  0.1480 -0.7784
  896MOL0    Cl18184   2.491   4.256  10.295 -0.1367  0.4372  0.4394
  896MOL0     C18185   3.660   3.743  10.255  1.0902  0.0969 -0.7944
  896MOL0     C18186   3.796   3.744  10.259  0.3055  0.4168 -0.2712
  896MOL0     O18187   4.024   3.777  10.454 -0.1951 -0.3746 -0.4670
  896MOL0     C18188   4.272   3.902  10.245 -1.0903 -0.4776  0.0215
  896MOL0     C18189   4.396   3.971  10.253  0.6075  0.4570 -0.6066
  896MOL0     N18190   5.296   4.120  10.532  0.1869  0.1696  0.6060
  896MOL0     N18191   5.362   4.220  10.567 -0.1938 -0.0420 -0.7608
  896MOL0     C18192   6.447   4.569  10.458 -0.7284 -0.4625  0.3825
  896MOL0     C18193   6.583   4.606  10.469  0.8723  0.9132 -0.0586
  896MOL0     C18194   6.983   4.693  10.242 -1.3116  0.0178 -0.1068
  896MOL0     C18195   7.001   4.770  10.131  0.3145 -0.5247  0.1151
  896MOL0     C18196   7.116   4.842  10.108  0.0386  0.6324 -0.3150
  896MOL0     C18197   7.228   4.832  10.188 -0.3804  1.0019  0.0706
  896MOL0     O18198   7.337   4.900  10.137  0.3938  0.4200 -0.0597
  896MOL0     C18199   7.428   4.954  10.242  0.1935  0.3333  0.5897
  896MOL0     C18200   7.537   5.047  10.186  0.3050 -0.4839 -0.5800
  896MOL0     C18201   7.478   5.186  10.159  0.9975 -0.6202  0.1688
  896MOL0     C18202   7.585   5.287  10.116  0.6977 -0.0131 -0.8847
  896MOL0     C18203   7.534   5.428  10.105 -0.5098 -0.4216 -0.3036
  896MOL0     C18204   7.466   5.532  10.092  0.5863 -0.0320 -0.5812
  896MOL0     C18205   7.213   4.762  10.310 -0.2435  0.0628 -0.1692
  896MOL0     C18206   7.089   4.699  10.336  0.0769  0.2889 -0.2357
  896MOL0     H18207   6.731   4.356  10.289 -0.9414 -0.8309 -1.3495
  896MOL0     H18208   6.496   4.282  10.271  2.1139 -1.0293  1.4580
  896MOL0     H18209   6.172   4.578  10.356 -0.6603  0.3615  0.8916
  896MOL0     H18210   6.175   4.482  10.508  0.4810 -2.3963  0.5170
  896MOL0     H18211   6.034   4.303  10.378  1.9370  0.3964 -0.2779
  896MOL0     H18212   6.049   4.393  10.234  0.4470  0.3439  0.1845
  896MOL0     H18213   5.923   4.579  10.345 -1.8658 -0.9929 -1.8857
  896MOL0     H18214   5.907   4.470  10.492  0.2969  0.2489  0.1988
  896MOL0     H18215   5.796   4.390  10.226  0.0071  0.2139  0.2131
  896MOL0     H18216   5.790   4.307  10.386 -0.3855  0.4099  0.0841
  896MOL0     H18217   5.674   4.577  10.338 -2.6371  1.7635  3.1997
  896MOL0     H18218   5.648   4.487  10.480 -2.0260  0.3161 -0.8991
  896MOL0     H18219   5.543   4.295  10.367 -0.9094 -0.5096  0.2001
  896MOL0     H18220   5.546   4.384  10.213 -0.4966  0.5455  0.0069
  896MOL0     H18221   5.415   4.578  10.336 -3.2776 -0.1526  2.0304
  896MOL0     H18222   5.327   4.435  10.288  0.3600 -1.9553  0.3909
  896MOL0     H18223   5.300   4.541  10.525 -0.3149 -1.3938  2.5930
  896MOL0     H18224   5.458   4.473  10.556 -1.1614  1.1350  0.5211
  896MOL0     H18225   5.105   4.368  10.451 -2.1862 -1.7240  0.9323
  896MOL0     H18226   5.079   3.983  10.443  1.2726 -0.0758  0.6475
  896MOL0     H18227   5.077   4.097  10.315  4.1880 -2.1188 -0.0876
  896MOL0     H18228   4.925   4.235  10.475 -0.4554 -0.7897  0.0850
  896MOL0     H18229   4.925   4.096  10.579  1.6388 -1.1633  0.2204
  896MOL0     H18230   4.807   4.123  10.291 -0.8141  0.2795 -0.4848
  896MOL0     H18231   4.858   3.967  10.356  2.0228  1.5772 -2.3943
  896MOL0     H18232   4.661   4.141  10.513 -1.9487 -0.5580  0.1040
  896MOL0     H18233   4.697   3.969  10.524  2.2025  0.3537  0.7702
  896MOL0     H18234   4.451   3.985  10.582 -2.1399 -0.3671  0.3673
  896MOL0     H18235   4.225   3.881  10.582 -3.8327  0.7932 -2.1337
  896MOL0     H18236   3.851   4.071  10.175 -0.3014  0.0671 -0.7230
  896MOL0     H18237   3.612   4.059  10.139  0.1649  0.0345 -0.1221
  896MOL0     H18238   3.390   3.908  10.042  0.7048  1.0386 -0.2858
  896MOL0     H18239   3.406   4.044  10.158 -0.2760 -0.1855 -2.4137
  896MOL0     H18240   3.228   3.912  10.300  0.0448 -1.1918 -0.1363
  896MOL0     H18241   3.182   3.859  10.133  2.0238  1.3387 -2.7920
  896MOL0     H18242   3.139   4.087  10.071 -0.9364  0.3556 -0.3707
  896MOL0     H18243   3.200   4.144  10.227 -2.0157  0.4920  1.1972
  896MOL0     H18244   2.977   3.926  10.253 -1.9266  1.2080  2.9761
  896MOL0     H18245   2.981   4.084  10.332 -2.0106  2.4368 -1.5766
  896MOL0     H18246   2.874   4.022  10.058  0.9084  0.7852 -0.9024
  896MOL0     H18247   2.905   4.186  10.119  1.2567 -0.2106  0.7698
  896MOL0     H18248   2.731   4.140  10.305 -1.2999  0.5767  0.2786
  896MOL0     H18249   2.714   3.974  10.231  0.0775  0.1864 -1.5112
  896MOL0     H18250   2.658   4.230  10.084  1.8493 -0.1644 -0.1341
  896MOL0     H18251   2.628   4.068  10.027 -1.9687  0.2446 -0.4743
  896MOL0     H18252   2.439   4.036  10.201 -0.9562  2.0273  4.5794
  896MOL0     H18253   2.423   4.172  10.090 -0.3564  3.1212  0.7717
  896MOL0     H18254   3.613   3.650  10.285  1.8700  0.8964  3.6630
  896MOL0     H18255   3.851   3.653  10.281 -1.0866 -0.6329 -0.9779
  896MOL0     H18256   4.228   3.890  10.146 -2.1053  0.3271  0.3529
  896MOL0     H18257   4.441   3.998  10.158  0.0106  1.6344 -0.5646
  896MOL0     H18258   6.370   4.633  10.500  0.4632  1.3904 -0.1486
  896MOL0     H18259   6.605   4.696  10.525 -0.7342  1.0363  0.4044
  896MOL0     H18260   6.925   4.771  10.053  1.9705 -2.1578 -1.6390
  896MOL0     H18261   7.110   4.896  10.014  0.8931  0.7580 -0.2985
  896MOL0     H18262   7.478   4.867  10.285  0.6486  0.2934 -0.0139
  896MOL0     H18263   7.367   5.001  10.320 -2.7881 -2.3266  0.0370
  896MOL0     H18264   7.607   5.054  10.270 -1.4067  1.9356  0.7697
  896MOL0     H18265   7.588   5.002  10.100  0.9585  0.5664 -0.7582
  896MOL0     H18266   7.422   5.228  10.242 -1.9006  1.1836 -2.4641
  896MOL0     H18267   7.406   5.183  10.077  2.1195  0.1111 -0.8820
  896MOL0     H18268   7.665   5.289  10.190  2.7816 -0.6297 -3.0078
  896MOL0     H18269   7.633   5.261  10.021  1.1064 -2.1554 -0.1534
  896MOL0     H18270   7.413   5.625  10.097  0.6639  0.0205  4.4822
  896MOL0     H18271   7.299   4.762  10.376  0.1604 -1.5509 -0.6386
  896MOL0     H18272   7.075   4.650  10.432 -0.6828 -0.9351 -0.9441
  897MOL0     O18273   5.295   5.350  10.735  0.0398 -0.3431  0.0557
  897MOL0     C18274   5.381   5.386  10.649 -0.2883 -0.5273 -0.2282
  897MOL0     O18275   5.357   5.388  10.515 -0.6938  0.0035 -0.4926
  897MOL0     C18276   5.239   5.348  10.474 -0.1607  0.2916  0.5822
  897MOL0     C18277   5.218   5.210  10.454  0.3605 -0.2195  0.3330
  897MOL0     C18278   5.094   5.171  10.411  0.3020  0.5528  0.5491
  897MOL0     C18279   4.988   5.258  10.379 -0.4065  1.0865 -0.1851
  897MOL0     O18280   4.874   5.202  10.326  0.1522 -0.3607 -0.3408
  897MOL0     C18281   4.767   5.302  10.300  0.2660  0.2731  0.3354
  897MOL0     C18282   4.657   5.237  10.212  0.3460  0.1953  0.2314
  897MOL0     C18283   4.658   5.275  10.058  0.0832  0.6000 -1.0221
  897MOL0     C18284   4.529   5.223   9.990  0.1575  0.6002 -0.1669
  897MOL0     C18285   4.405   5.310  10.011 -0.4307  0.3959  0.0702
  897MOL0     C18286   4.297   5.286   9.905  0.4000 -1.0308 -0.1775
  897MOL0     C18287   4.244   5.140   9.902 -0.4814  0.3612  0.0116
  897MOL0     C18288   4.122   5.135   9.998  0.0785 -0.2961  0.3330
  897MOL0     N18289   4.060   5.007   9.977 -0.3649 -0.1691  0.1712
  897MOL0     C18290   3.966   4.989   9.868 -0.2872 -0.2792  0.1879
  897MOL0     C18291   3.939   4.856   9.883  0.3207  0.3067 -0.6762
  897MOL0     C18292   3.854   4.781   9.785 -0.0491 -0.3460  0.6891
  897MOL0     C18293   3.703   4.792   9.824 -0.2096  0.5480 -0.9697
  897MOL0     C18294   3.611   4.772   9.709 -0.6763 -0.3633  0.3055
  897MOL0     C18295   3.476   4.712   9.741  0.0264 -0.6617 -0.5149
  897MOL0     O18296   3.401   4.815   9.810 -0.0079  0.8203  0.0253
  897MOL0     C18297   3.261   4.805   9.794 -0.2211  0.1370  0.5267
  897MOL0     C18298   3.188   4.778   9.908 -0.5910 -0.2754  0.1310
  897MOL0     C18299   3.044   4.784   9.906  0.4335 -0.0299 -0.3443
  897MOL0     C18300   2.969   4.789   9.784 -0.3232 -0.0588 -0.1900
  897MOL0     C18301   2.820   4.794   9.786 -0.2662 -0.4183 -0.5565
  897MOL0     O18302   2.764   4.773   9.662  0.1406 -0.0586  0.9715
  897MOL0     C18303   2.629   4.802   9.652  0.5377 -0.3579  0.3963
  897MOL0     C18304   2.550   4.724   9.578  0.4918 -0.2987  0.4913
  897MOL0     C18305   2.408   4.744   9.557  0.0145 -1.1454 -0.2854
  897MOL0     C18306   2.350   4.859   9.624 -0.1214 -0.5993  0.1652
  897MOL0     O18307   2.213   4.877   9.607  0.3830  0.1651 -0.1949
  897MOL0     C18308   2.165   5.010   9.638  0.1886  0.4357 -0.1300
  897MOL0     C18309   2.007   5.010   9.594  0.0449  0.6453 -0.4451
  897MOL0     C18310   1.979   4.991   9.445  0.0894  1.2909  0.5974
  897MOL0     C18311   1.835   5.015   9.415  0.1988 -0.1738 -0.6625
  897MOL0     C18312   1.818   5.058   9.268  0.6322  0.2414 -0.5315
  897MOL0     C18313   1.670   5.052   9.215  0.2886 -0.3458 -0.0504
  897MOL0     C18314   1.671   5.030   9.065 -0.6388 -0.2055  0.0064
  897MOL0     C18315   1.530   5.011   9.005 -0.3913  0.1184  0.0380
  897MOL0    Cl18316   1.426   5.156   9.046 -0.5373 -0.3877  0.1793
  897MOL0     C18317   2.430   4.940   9.704 -0.3353  0.0164 -0.6384
  897MOL0     C18318   2.568   4.912   9.720  0.0110 -0.2362  0.7061
  897MOL0     O18319   2.762   4.806   9.894  0.0447 -0.1973  0.4357
  897MOL0     C18320   3.049   4.798   9.669  0.0251  0.3623  0.4165
  897MOL0     C18321   3.189   4.820   9.674  0.9017  0.6906 -0.0196
  897MOL0     N18322   3.997   4.804   9.996 -0.7192 -0.8924  0.1089
  897MOL0     N18323   4.077   4.892  10.045  0.1156 -0.1688 -0.4547
  897MOL0     C18324   5.015   5.397  10.395 -0.2014 -1.2491  0.8112
  897MOL0     C18325   5.136   5.436  10.454  0.1359  0.4240  0.2799
  897MOL0     C18326   5.502   5.459  10.686 -0.1015  0.4723 -0.4289
  897MOL0     C18327   5.578   5.525  10.590 -0.9866  0.4451 -0.4471
  897MOL0     C18328   5.699   5.587  10.619  0.0230  0.1470 -0.1977
  897MOL0     C18329   5.746   5.597  10.748  0.0410  0.2277  0.0952
  897MOL0     O18330   5.849   5.662  10.796  0.0658 -0.9198 -0.2516
  897MOL0     C18331   5.953   5.698  10.704 -0.1214  0.1406  0.5701
  897MOL0     C18332   6.069   5.768  10.764 -0.6078 -0.3825 -0.0483
  897MOL0     C18333   6.037   5.899  10.840 -0.7050  1.0362  0.3865
  897MOL0     C18334   6.143   6.006  10.840  0.8079 -0.0496  0.0404
  897MOL0     C18335   6.279   5.950  10.856  0.1649 -0.7559  1.1700
  897MOL0     C18336   6.382   5.895  10.868 -0.8410 -0.1456 -0.0071
  897MOL0     C18337   5.663   5.551  10.847 -0.4433  0.4008 -0.0918
  897MOL0     C18338   5.548   5.481  10.816  0.5364 -0.0324  0.2558
  897MOL0     H18339   5.296   5.136  10.468  3.2912  1.6917 -3.7800
  897MOL0     H18340   5.079   5.067  10.382 -0.2311  0.5992  0.6450
  897MOL0     H18341   4.798   5.394  10.250 -1.0634  0.4093 -0.2594
  897MOL0     H18342   4.724   5.324  10.398 -0.7675 -1.4550  0.3046
  897MOL0     H18343   4.561   5.266  10.256 -0.8223 -4.2590  1.1263
  897MOL0     H18344   4.655   5.127  10.216  0.2995  0.1705 -0.5046
  897MOL0     H18345   4.748   5.230  10.015 -0.4796 -1.1771 -0.4187
  897MOL0     H18346   4.668   5.382  10.038  1.6931  0.7881  0.5650
  897MOL0     H18347   4.547   5.222   9.882 -0.4703  1.1516 -0.2796
  897MOL0     H18348   4.521   5.118  10.021 -0.2201  0.7711  0.3153
  897MOL0     H18349   4.437   5.414  10.006 -1.2432  0.6076 -0.9430
  897MOL0     H18350   4.367   5.291  10.111  2.3007 -0.0218  1.1230
  897MOL0     H18351   4.348   5.302   9.809  0.7100  0.9511  0.2815
  897MOL0     H18352   4.215   5.358   9.895  1.1192 -0.4583 -2.5542
  897MOL0     H18353   4.219   5.123   9.797  0.4174  1.0362 -0.3243
  897MOL0     H18354   4.320   5.067   9.931 -1.2222  0.2654  1.8410
  897MOL0     H18355   4.051   5.214   9.974 -0.5041 -1.8654 -3.8517
  897MOL0     H18356   4.165   5.143  10.099  0.9343  2.3887 -0.1704
  897MOL0     H18357   3.923   5.066   9.806 -0.4448  1.1786  2.0296
  897MOL0     H18358   3.890   4.677   9.782 -1.5466 -0.8869  0.2837
  897MOL0     H18359   3.867   4.820   9.684 -1.5432 -1.0736  0.1835
  897MOL0     H18360   3.685   4.888   9.873  1.5036 -0.2239  1.3021
  897MOL0     H18361   3.689   4.709   9.894 -1.3314  2.5277  1.2831
  897MOL0     H18362   3.586   4.867   9.660 -3.2480 -0.3128  1.5618
  897MOL0     H18363   3.663   4.707   9.638  1.2646 -0.1657  1.4614
  897MOL0     H18364   3.496   4.622   9.800  1.4518  1.1961  2.1043
  897MOL0     H18365   3.435   4.680   9.645 -1.4597  2.7303 -1.1477
  897MOL0     H18366   3.242   4.784  10.002  0.1955 -0.8097 -0.2742
  897MOL0     H18367   2.990   4.763   9.997 -1.2343  0.2174 -1.2494
  897MOL0     H18368   2.603   4.643   9.528  1.8778 -0.5165  2.2142
  897MOL0     H18369   2.345   4.673   9.504 -1.7835  0.2315 -0.0845
  897MOL0     H18370   2.221   5.083   9.581  3.6607 -1.7965  0.1476
  897MOL0     H18371   2.176   5.029   9.745  1.3296 -0.0831 -0.1491
  897MOL0     H18372   1.964   5.103   9.633  0.8050  1.9801 -2.6652
  897MOL0     H18373   1.950   4.927   9.638 -1.1212  1.2822 -0.7109
  897MOL0     H18374   2.012   4.893   9.408 -0.5396  0.5794  1.8298
  897MOL0     H18375   2.042   5.067   9.399 -0.2167  1.5665  0.6311
  897MOL0     H18376   1.780   4.923   9.431 -0.3306  0.1258 -0.7364
  897MOL0     H18377   1.788   5.092   9.478  2.9613 -1.2573  3.0728
  897MOL0     H18378   1.860   4.979   9.205  0.4896 -0.5846  0.3843
  897MOL0     H18379   1.852   5.160   9.251 -3.0148  1.4189 -1.7519
  897MOL0     H18380   1.616   5.144   9.236  1.4203  0.6726 -1.4058
  897MOL0     H18381   1.626   4.964   9.263  0.3143 -0.3694 -0.0702
  897MOL0     H18382   1.717   5.118   9.021  0.2222  0.1507  1.5314
  897MOL0     H18383   1.729   4.942   9.035 -2.9610 -1.1030 -2.1414
  897MOL0     H18384   1.483   4.918   9.040 -1.0983  0.6575  0.5370
  897MOL0     H18385   1.541   4.995   8.897 -2.2341 -1.7757  0.0616
  897MOL0     H18386   2.396   5.026   9.759  1.2072 -1.3454  2.7000
  897MOL0     H18387   2.614   4.975   9.795 -2.3199  0.1270  1.9209
  897MOL0     H18388   2.996   4.794   9.574  1.0957 -0.1427 -0.1794
  897MOL0     H18389   3.253   4.834   9.588  1.9936 -1.5745  0.3579
  897MOL0     H18390   4.946   5.475  10.368 -0.4962 -1.7476  0.1033
  897MOL0     H18391   5.159   5.538  10.482  1.5924 -0.3858  2.2605
  897MOL0     H18392   5.557   5.526  10.483 -0.3876 -2.5210 -0.6632
  897MOL0     H18393   5.753   5.630  10.535 -1.2655  2.0235 -0.1355
  897MOL0     H18394   5.918   5.767  10.627  0.5723 -0.7853 -0.6057
  897MOL0     H18395   5.991   5.608  10.656  1.7783  2.0266 -1.7153
  897MOL0     H18396   6.120   5.704  10.837 -1.4372 -1.4702 -0.3993
  897MOL0     H18397   6.149   5.776  10.690  2.0140  2.0215  2.7627
  897MOL0     H18398   6.019   5.871  10.944  0.7401  1.4986  0.7825
  897MOL0     H18399   5.953   5.951  10.794 -0.5764  1.2111  0.3473
  897MOL0     H18400   6.125   6.073  10.755  0.3560 -0.3595 -0.1096
  897MOL0     H18401   6.118   6.060  10.932 -0.0990  1.5522 -1.0887
  897MOL0     H18402   6.469   5.839  10.894 -1.1011 -0.6842 -0.2807
  897MOL0     H18403   5.698   5.559  10.949  2.1717 -1.6750 -0.7159
  897MOL0     H18404   5.488   5.442  10.898  0.8928 -2.2557 -0.4724
  898MOL0     O18405   2.754  10.032   7.955 -0.6925 -0.2571  0.8290
  898MOL0     C18406   2.773   9.964   8.057  0.5595  0.3277  0.2170
  898MOL0     O18407   2.681   9.864   8.100 -0.0425 -0.6872  0.4022
  898MOL0     C18408   2.554   9.859   8.045 -0.4001 -0.6807  0.7302
  898MOL0     C18409   2.514   9.855   7.908 -0.6118  0.2804  0.1300
  898MOL0     C18410   2.377   9.841   7.877 -0.1107 -0.1317  0.4252
  898MOL0     C18411   2.281   9.858   7.973  0.2829  0.1899  0.3158
  898MOL0     O18412   2.142   9.844   7.951 -0.4293 -0.0937 -0.2979
  898MOL0     C18413   2.079   9.749   8.042 -0.5557  0.5726 -0.8876
  898MOL0     C18414   1.924   9.777   8.046 -0.4724  0.2676 -0.2037
  898MOL0     C18415   1.852   9.749   7.905  0.0911 -0.2652  0.1945
  898MOL0     C18416   1.700   9.765   7.908  0.1620  0.1278  0.0612
  898MOL0     C18417   1.637   9.758   7.772 -0.2641  0.1907 -0.1161
  898MOL0     C18418   1.505   9.834   7.767 -0.4890  0.4518 -0.0471
  898MOL0     C18419   1.394   9.755   7.835 -0.4255 -0.2414 -0.1835
  898MOL0     C18420   1.254   9.813   7.853  0.3209  1.0677 -0.5462
  898MOL0     N18421   1.161   9.732   7.937 -0.6579  0.6990  0.4221
  898MOL0     C18422   1.087   9.632   7.886  0.3104  0.0694  0.3327
  898MOL0     C18423   1.021   9.585   7.991  0.7068 -0.1145 -1.0706
  898MOL0     C18424   0.918   9.472   7.991 -0.4508  0.0079 -0.8787
  898MOL0     C18425   0.826   9.462   7.864 -0.8604  0.4926 -0.6493
  898MOL0     C18426   0.692   9.381   7.904 -0.2405 -0.2928  0.7361
  898MOL0     C18427   0.602   9.486   7.976  0.3676  0.5458  0.1506
  898MOL0     O18428   0.476   9.423   7.969  0.0773 -0.1803 -0.6150
  898MOL0     C18429   0.377   9.474   8.050  0.3443 -1.4868 -0.0843
  898MOL0     C18430   0.370   9.614   8.095 -0.4180  0.2617 -0.0790
  898MOL0     C18431   0.273   9.658   8.186  0.3384  0.2240  0.3121
  898MOL0     C18432   0.173   9.569   8.228 -0.9794  0.4340  0.0209
  898MOL0     C18433   0.070   9.626   8.315  0.0378  0.9435  0.6493
  898MOL0     O18434  -0.005   9.535   8.377  0.5917  0.5493  0.1534
  898MOL0     C18435  -0.112   9.567   8.463  0.4458  0.3917  1.2275
  898MOL0     C18436  -0.246   9.589   8.425  1.2605  0.1492 -0.5898
  898MOL0     C18437  -0.345   9.592   8.527  0.2920  0.6778  0.4743
  898MOL0     C18438  -0.307   9.576   8.661  0.1868 -0.2445 -0.1413
  898MOL0     O18439  -0.417   9.594   8.740  0.5086 -0.1466  0.4226
  898MOL0     C18440  -0.408   9.543   8.873 -0.3041 -0.1130  0.1493
  898MOL0     C18441  -0.544   9.527   8.933  0.4817 -0.8878  0.2187
  898MOL0     C18442  -0.517   9.536   9.089  0.6660  0.1825 -0.6493
  898MOL0     C18443  -0.629   9.470   9.179 -0.1903  0.1556 -0.1961
  898MOL0     C18444  -0.570   9.427   9.314 -0.1841  0.0841  0.3710
  898MOL0     C18445  -0.674   9.383   9.419  0.1797 -0.4115  0.0867
  898MOL0     C18446  -0.603   9.314   9.532 -0.6982  0.2952  0.3083
  898MOL0     C18447  -0.682   9.271   9.652 -0.0958 -0.4003  0.3682
  898MOL0    Cl18448  -0.798   9.138   9.610 -0.2124 -0.2271  0.2290
  898MOL0     C18449  -0.179   9.567   8.695 -0.0361 -0.0832  0.3828
  898MOL0     C18450  -0.081   9.552   8.597 -0.7388  0.1073  0.1047
  898MOL0     O18451   0.038   9.741   8.310 -0.4162  0.1708 -0.5746
  898MOL0     C18452   0.173   9.439   8.169 -0.8643  0.3433  0.1404
  898MOL0     C18453   0.275   9.394   8.087 -0.5131  0.8456 -0.3821
  898MOL0     N18454   1.069   9.645   8.101  0.4908 -0.5096 -0.1180
  898MOL0     N18455   1.154   9.729   8.070  0.1003  1.0276 -0.1209
  898MOL0     C18456   2.317   9.892   8.104 -0.7740 -0.9792  0.8006
  898MOL0     C18457   2.454   9.885   8.138 -0.7423  0.3621  0.3694
  898MOL0     C18458   2.901   9.975   8.121 -0.0900  0.7840 -1.0505
  898MOL0     C18459   2.985  10.078   8.083 -0.6326 -0.7523 -0.1386
  898MOL0     C18460   3.119  10.069   8.116 -0.1491  0.3912  0.0099
  898MOL0     C18461   3.165   9.981   8.211  0.5521 -0.5487 -0.1868
  898MOL0     O18462   3.293   9.981   8.257 -0.5203  0.1670  0.3984
  898MOL0     C18463   3.393   9.914   8.168 -0.7001  0.0282 -0.2053
  898MOL0     C18464   3.366   9.760   8.158 -0.0036  0.1287 -0.6444
  898MOL0     C18465   3.493   9.705   8.099  0.1219  0.6613  0.3646
  898MOL0     C18466   3.501   9.550   8.060  0.4976  0.5669 -0.4817
  898MOL0     C18467   3.383   9.512   7.986  0.2870  0.6514  0.2602
  898MOL0     C18468   3.287   9.497   7.905 -0.6899 -0.1504 -0.1251
  898MOL0     C18469   3.083   9.879   8.257 -0.0519 -0.2237  0.5823
  898MOL0     C18470   2.951   9.869   8.207  0.3129  0.3697  0.0673
  898MOL0     H18471   2.596   9.845   7.838  0.1263 -0.1095  1.0251
  898MOL0     H18472   2.344   9.833   7.774 -2.6055 -1.6596  1.2600
  898MOL0     H18473   2.114   9.741   8.145 -1.1973 -1.9987 -0.8244
  898MOL0     H18474   2.101   9.647   8.010  4.0142  1.2004 -0.4849
  898MOL0     H18475   1.907   9.879   8.080  2.4843  1.5318 -2.1368
  898MOL0     H18476   1.879   9.701   8.112  1.0826  1.6878  2.6961
  898MOL0     H18477   1.879   9.650   7.868  1.8658 -1.2470  3.7583
  898MOL0     H18478   1.897   9.816   7.830 -0.9359 -0.4007 -0.5759
  898MOL0     H18479   1.671   9.684   7.977 -2.7388  1.1260  0.1340
  898MOL0     H18480   1.681   9.861   7.958  0.3553 -0.5846  1.5788
  898MOL0     H18481   1.629   9.650   7.754  1.8583 -0.5972  2.8028
  898MOL0     H18482   1.703   9.810   7.702 -1.8786  1.0475 -1.0581
  898MOL0     H18483   1.484   9.851   7.661  0.4432  0.8085 -0.1815
  898MOL0     H18484   1.518   9.933   7.812 -0.2573  0.8205 -0.9154
  898MOL0     H18485   1.385   9.665   7.773  3.3834 -1.8518  1.2502
  898MOL0     H18486   1.422   9.729   7.937  0.8375  1.5287 -0.0331
  898MOL0     H18487   1.210   9.832   7.754  1.1154  0.7139 -0.9833
  898MOL0     H18488   1.275   9.901   7.913  0.6533  0.9685 -0.5169
  898MOL0     H18489   1.078   9.589   7.787 -1.9362 -1.9107  1.3003
  898MOL0     H18490   0.858   9.485   8.082  1.2430 -1.7103  0.5595
  898MOL0     H18491   0.979   9.381   7.985 -1.1145 -0.5206  0.0785
  898MOL0     H18492   0.888   9.407   7.793  2.2994  3.5137 -0.4790
  898MOL0     H18493   0.806   9.559   7.817 -0.3548 -0.0404 -2.0075
  898MOL0     H18494   0.636   9.355   7.814 -1.0006  1.9619  0.4942
  898MOL0     H18495   0.707   9.288   7.960  0.0163  0.1822  1.4745
  898MOL0     H18496   0.609   9.587   7.934  0.4104  1.0830  1.3888
  898MOL0     H18497   0.647   9.489   8.076  1.5176 -2.4783 -0.1726
  898MOL0     H18498   0.442   9.680   8.048 -0.3660 -1.9526 -3.4710
  898MOL0     H18499   0.262   9.764   8.207 -0.6533 -0.0697  1.4266
  898MOL0     H18500  -0.273   9.592   8.320 -0.6221 -2.1543 -0.2515
  898MOL0     H18501  -0.448   9.617   8.503  0.5932  1.0621 -0.4460
  898MOL0     H18502  -0.356   9.619   8.933 -1.2107  1.1510 -0.6148
  898MOL0     H18503  -0.366   9.443   8.885 -0.4683  0.1754  4.3689
  898MOL0     H18504  -0.580   9.428   8.904 -2.9961  0.3408 -0.1022
  898MOL0     H18505  -0.617   9.597   8.893  0.6678 -0.0551  1.2809
  898MOL0     H18506  -0.508   9.642   9.116  0.6326  0.0439 -0.0927
  898MOL0     H18507  -0.421   9.491   9.119 -0.5163 -2.3221 -0.3727
  898MOL0     H18508  -0.713   9.539   9.178  0.5011  1.1325 -3.4860
  898MOL0     H18509  -0.679   9.387   9.128 -1.0322  0.4048  0.2048
  898MOL0     H18510  -0.504   9.502   9.357  0.7800 -1.5220  1.7705
  898MOL0     H18511  -0.500   9.345   9.296 -0.1458  0.8526 -4.5499
  898MOL0     H18512  -0.748   9.316   9.375  1.1387 -2.4375  1.4023
  898MOL0     H18513  -0.721   9.473   9.459  0.4834 -0.7702  1.2879
  898MOL0     H18514  -0.547   9.227   9.495  1.8496  0.8448  2.5112
  898MOL0     H18515  -0.535   9.384   9.582 -2.1059  1.0713  1.2005
  898MOL0     H18516  -0.743   9.359   9.674  0.3862  0.4324 -1.4114
  898MOL0     H18517  -0.621   9.238   9.736 -1.5899 -1.3218  1.1337
  898MOL0     H18518  -0.147   9.583   8.798 -2.4297  0.7499  1.0671
  898MOL0     H18519   0.020   9.541   8.636 -0.2413 -0.5826 -1.3203
  898MOL0     H18520   0.088   9.374   8.181 -1.1971  0.7778  0.1573
  898MOL0     H18521   0.265   9.291   8.053 -2.3358  0.4685  1.1799
  898MOL0     H18522   2.247   9.933   8.176 -2.8748 -1.4236 -0.8788
  898MOL0     H18523   2.474   9.896   8.244 -4.3976 -1.0867  1.3314
  898MOL0     H18524   2.954  10.162   8.021 -0.8792 -1.0612 -0.4352
  898MOL0     H18525   3.188  10.139   8.070  0.0501  1.2359  1.5226
  898MOL0     H18526   3.491   9.919   8.216 -1.5021 -0.5783  1.5817
  898MOL0     H18527   3.409   9.959   8.070  0.0231 -1.8392 -0.9872
  898MOL0     H18528   3.350   9.707   8.252 -1.7698 -1.5071 -1.7882
  898MOL0     H18529   3.282   9.737   8.092  0.4173 -0.2487 -1.0557
  898MOL0     H18530   3.578   9.720   8.167  2.0646  0.5434 -1.9110
  898MOL0     H18531   3.514   9.764   8.009 -0.7957  0.2294 -0.1467
  898MOL0     H18532   3.596   9.523   8.012  0.1822 -0.6906 -0.4197
  898MOL0     H18533   3.513   9.501   8.157  2.7992  0.3392 -0.8330
  898MOL0     H18534   3.212   9.488   7.829  0.1595 -1.0691 -0.8802
  898MOL0     H18535   3.129   9.820   8.336  1.2011  1.6180  1.3011
  898MOL0     H18536   2.884   9.793   8.245  0.0430  0.2623 -0.6160
  899MOL0     O18537   9.222   1.987  10.979 -0.2505  0.2693  0.2503
  899MOL0     C18538   9.257   1.962  11.092 -0.1661  0.4851  0.2340
  899MOL0     O18539   9.177   1.895  11.182  0.1465 -0.4511  0.2128
  899MOL0     C18540   9.046   1.886  11.145  0.3214 -0.9116  0.9631
  899MOL0     C18541   8.997   1.780  11.061 -0.2625 -0.2170  0.6286
  899MOL0     C18542   8.867   1.785  11.029  0.4757 -0.5021 -0.0842
  899MOL0     C18543   8.775   1.881  11.077 -0.0253  0.8675  0.1887
  899MOL0     O18544   8.641   1.877  11.048  0.3570  0.1552  0.0566
  899MOL0     C18545   8.590   1.771  10.958 -0.4772 -0.4371 -0.5150
  899MOL0     C18546   8.430   1.785  10.952 -0.2834  0.0779 -0.9568
  899MOL0     C18547   8.353   1.706  11.072 -0.0092 -0.8861  0.2356
  899MOL0     C18548   8.202   1.720  11.058 -0.3433  0.4133  0.1865
  899MOL0     C18549   8.134   1.637  11.173 -0.2293  0.1455  0.3098
  899MOL0     C18550   7.980   1.647  11.161 -0.9402  0.8258  0.4416
  899MOL0     C18551   7.908   1.584  11.281  0.7905 -0.0366 -1.0652
  899MOL0     C18552   7.762   1.541  11.253 -0.1690  0.3199 -0.2612
  899MOL0     N18553   7.760   1.412  11.175  0.2114  0.0916 -0.4137
  899MOL0     C18554   7.837   1.294  11.194 -0.4120  0.3490  0.0581
  899MOL0     C18555   7.803   1.207  11.097 -0.3645 -0.0691 -0.2239
  899MOL0     C18556   7.853   1.072  11.068  0.9386 -0.1968 -0.1504
  899MOL0     C18557   7.812   0.974  11.183 -0.6056  0.5896  0.2354
  899MOL0     C18558   7.897   0.829  11.175 -0.0006 -0.5927 -0.4099
  899MOL0     C18559   7.865   0.750  11.049  0.3308  0.5898  0.1535
  899MOL0     O18560   7.960   0.772  10.942  0.4709 -0.3130  0.7953
  899MOL0     C18561   7.905   0.755  10.822 -0.5994 -0.1092  0.4055
  899MOL0     C18562   7.896   0.629  10.777  0.6563  0.6261  0.1186
  899MOL0     C18563   7.836   0.581  10.651 -0.1029 -0.2266 -0.0746
  899MOL0     C18564   7.782   0.681  10.565 -0.3189 -0.0201  0.4930
  899MOL0     C18565   7.717   0.646  10.432  0.3567 -0.1139 -0.7070
  899MOL0     O18566   7.684   0.756  10.363  0.4283  0.0985  0.4451
  899MOL0     C18567   7.624   0.740  10.239 -0.0552 -0.3767 -0.3846
  899MOL0     C18568   7.691   0.780  10.130 -1.1447 -1.1261  0.4490
  899MOL0     C18569   7.640   0.764  10.001  0.2316  0.1553  0.0764
  899MOL0     C18570   7.512   0.706   9.982  0.0953  0.2405  0.8345
  899MOL0     O18571   7.448   0.678   9.863 -0.0731  0.0203  0.0464
  899MOL0     C18572   7.512   0.710   9.737 -0.7508 -0.0363 -0.2288
  899MOL0     C18573   7.433   0.639   9.629  0.6566 -0.0751  0.4501
  899MOL0     C18574   7.394   0.493   9.668  0.1152 -0.1947 -0.3815
  899MOL0     C18575   7.369   0.423   9.537  0.2983  0.5174 -0.5027
  899MOL0     C18576   7.286   0.293   9.563 -0.4820 -0.7193 -0.2819
  899MOL0     C18577   7.288   0.208   9.444 -0.5884 -0.5654 -0.1278
  899MOL0     C18578   7.241   0.072   9.461  0.3267 -0.1133 -0.0743
  899MOL0     C18579   7.229  -0.023   9.336  0.1944  0.2794  0.3612
  899MOL0    Cl18580   7.073  -0.014   9.262 -0.2654 -0.1776  0.0141
  899MOL0     C18581   7.451   0.660  10.100  0.5020 -0.3111  0.3125
  899MOL0     C18582   7.503   0.678  10.222 -0.6376 -0.3245 -0.2477
  899MOL0     O18583   7.706   0.532  10.393 -0.0308  0.3363 -0.0634
  899MOL0     C18584   7.780   0.813  10.619 -0.2362  0.2284  0.2729
  899MOL0     C18585   7.847   0.849  10.739 -0.2296 -1.1891  0.2022
  899MOL0     N18586   7.704   1.279  11.018 -0.5000 -0.1399 -0.2984
  899MOL0     N18587   7.683   1.393  11.064 -0.3887 -1.2693  0.3736
  899MOL0     C18588   8.824   1.978  11.165  0.0189  0.0884 -0.2093
  899MOL0     C18589   8.958   1.982  11.198 -0.1437  0.1345  0.1517
  899MOL0     C18590   9.394   2.007  11.123  0.3883  0.1390  0.1663
  899MOL0     C18591   9.478   2.068  11.025  0.2118  0.5598 -0.1820
  899MOL0     C18592   9.612   2.101  11.055  0.2094  0.2198  0.4319
  899MOL0     C18593   9.659   2.097  11.183 -0.0982 -0.2673  0.5263
  899MOL0     O18594   9.788   2.148  11.199  0.5194 -0.1907 -0.1359
  899MOL0     C18595   9.851   2.127  11.329 -0.5806  0.7826  0.2678
  899MOL0     C18596   9.993   2.175  11.313 -0.3147 -0.4181  0.1035
  899MOL0     C18597  10.076   2.121  11.200 -0.2949 -0.1716  0.3945
  899MOL0     C18598  10.177   2.233  11.143  0.0989 -0.1007  0.4911
  899MOL0     C18599  10.272   2.280  11.244  0.0360  0.1787  0.0622
  899MOL0     C18600  10.349   2.334  11.321 -0.1806  0.6886  0.1041
  899MOL0     C18601   9.564   2.054  11.289 -1.2348 -0.1593 -0.4676
  899MOL0     C18602   9.436   2.009  11.257 -0.0180  0.1315 -0.0930
  899MOL0     H18603   9.058   1.695  11.035 -1.5666 -0.6378 -1.2134
  899MOL0     H18604   8.835   1.704  10.965  1.1492 -0.0486 -1.0244
  899MOL0     H18605   8.621   1.676  11.003  0.0042  1.0788  2.5915
  899MOL0     H18606   8.634   1.782  10.858  3.7449 -3.5136  0.7639
  899MOL0     H18607   8.408   1.736  10.857  0.0816 -0.6794 -0.6622
  899MOL0     H18608   8.397   1.889  10.960  2.7427  1.0251  1.0630
  899MOL0     H18609   8.374   1.744  11.172 -0.7770 -1.5540  0.6617
  899MOL0     H18610   8.382   1.601  11.061  1.0246 -0.6399  0.4720
  899MOL0     H18611   8.179   1.827  11.060  0.0382  0.4855  1.2530
  899MOL0     H18612   8.172   1.691  10.957  0.6748  0.3597 -0.1075
  899MOL0     H18613   8.168   1.676  11.270 -0.7339  1.1275  0.1045
  899MOL0     H18614   8.150   1.530  11.155  1.0459  0.7580 -2.7754
  899MOL0     H18615   7.947   1.598  11.069 -0.3835  0.9515  0.1687
  899MOL0     H18616   7.970   1.755  11.149 -0.2107  0.7873 -0.6789
  899MOL0     H18617   7.957   1.498  11.325  2.0600  0.4813 -1.4244
  899MOL0     H18618   7.905   1.666  11.353 -1.0597  1.3243 -2.5753
  899MOL0     H18619   7.705   1.624  11.209  2.2884  2.6593  0.7201
  899MOL0     H18620   7.722   1.521  11.353  1.7606 -1.8263  0.1698
  899MOL0     H18621   7.906   1.274  11.276  1.0402  1.8888 -0.7289
  899MOL0     H18622   7.962   1.067  11.059  0.8106 -0.0231 -2.2633
  899MOL0     H18623   7.815   1.036  10.972  2.7856  0.0952 -1.0415
  899MOL0     H18624   7.707   0.944  11.174  0.2382 -2.8915  0.4902
  899MOL0     H18625   7.829   1.031  11.274  0.1108  1.6910 -0.5521
  899MOL0     H18626   8.004   0.844  11.194 -0.2591 -0.0979  0.7378
  899MOL0     H18627   7.860   0.772  11.261 -1.9737  1.9387  0.5289
  899MOL0     H18628   7.758   0.758  11.028  0.6008  0.9101 -1.1936
  899MOL0     H18629   7.885   0.644  11.069 -1.0474  0.7656  2.8521
  899MOL0     H18630   7.946   0.555  10.839  0.6415  1.9467  1.7844
  899MOL0     H18631   7.831   0.480  10.613  0.9454 -0.1445 -0.4672
  899MOL0     H18632   7.788   0.829  10.142 -2.3716  2.0217 -1.1955
  899MOL0     H18633   7.702   0.801   9.920 -1.2668 -2.6708 -2.5928
  899MOL0     H18634   7.612   0.667   9.730 -1.1021 -0.6266 -1.9838
  899MOL0     H18635   7.520   0.815   9.709 -0.2512 -0.5983 -2.3987
  899MOL0     H18636   7.502   0.634   9.544  1.0318  1.0987  0.6624
  899MOL0     H18637   7.349   0.700   9.595  0.2900  0.3538  2.0589
  899MOL0     H18638   7.300   0.493   9.724  0.7898 -3.4056  0.9776
  899MOL0     H18639   7.473   0.447   9.729 -1.6480 -0.1359  2.0518
  899MOL0     H18640   7.311   0.489   9.472 -2.6525  3.1789  4.2312
  899MOL0     H18641   7.465   0.400   9.491 -0.7990  2.0636 -3.9468
  899MOL0     H18642   7.185   0.320   9.595  0.7137  3.5510  0.4466
  899MOL0     H18643   7.336   0.240   9.645 -1.0796  0.2028  0.6986
  899MOL0     H18644   7.395   0.207   9.421 -0.3307  1.1720  0.7623
  899MOL0     H18645   7.237   0.260   9.362 -1.3024 -0.8180  0.1518
  899MOL0     H18646   7.305   0.014   9.528  0.1209 -0.3972 -0.1194
  899MOL0     H18647   7.146   0.070   9.515 -0.6470 -3.2104 -1.6793
  899MOL0     H18648   7.256  -0.128   9.354  1.8230  0.7060  0.5718
  899MOL0     H18649   7.306  -0.004   9.261  2.5807  0.3870  2.6943
  899MOL0     H18650   7.355   0.611  10.087 -0.2535  0.9202  1.0084
  899MOL0     H18651   7.460   0.643  10.315  1.0293  1.7601  1.4228
  899MOL0     H18652   7.735   0.890  10.557  2.3477  0.5804 -1.3122
  899MOL0     H18653   7.851   0.954  10.769  0.7959 -1.3128  0.5471
  899MOL0     H18654   8.758   2.042  11.222 -0.1090 -1.0621  1.0011
  899MOL0     H18655   8.997   2.056  11.267 -0.3502 -0.7300  1.2310
  899MOL0     H18656   9.437   2.065  10.925 -1.0812  1.5448  0.2876
  899MOL0     H18657   9.680   2.141  10.981 -0.9033  0.1095 -0.6916
  899MOL0     H18658   9.852   2.021  11.353  4.5206  0.6803  0.6047
  899MOL0     H18659   9.795   2.186  11.403 -1.8407 -0.4757  0.3637
  899MOL0     H18660   9.992   2.284  11.301 -1.7904 -0.0325  2.8182
  899MOL0     H18661  10.044   2.174  11.410  0.0402  0.2254 -0.0647
  899MOL0     H18662  10.011   2.092  11.118  1.1977 -0.0809 -0.8807
  899MOL0     H18663  10.136   2.034  11.228  0.3559 -0.8722 -2.7278
  899MOL0     H18664  10.245   2.189  11.068  0.0965  2.8899 -1.4174
  899MOL0     H18665  10.131   2.318  11.093  1.3731  0.0291 -0.5359
  899MOL0     H18666  10.427   2.384  11.374  0.4773  0.8888 -1.0302
  899MOL0     H18667   9.588   2.049  11.395 -2.4639 -2.1428 -0.2429
  899MOL0     H18668   9.377   1.966  11.337  2.3541 -1.3155  1.0132
  900MOL0     O18669  10.237   2.627   6.679 -0.9234 -0.4178 -0.0470
  900MOL0     C18670  10.201   2.603   6.563 -1.0017 -0.6203 -0.2896
  900MOL0     O18671  10.107   2.673   6.489  0.5306  0.3890 -0.3998
  900MOL0     C18672  10.063   2.786   6.548  0.0079 -0.3328  0.0090
  900MOL0     C18673  10.096   2.914   6.507  0.1083  0.8315 -0.1387
  900MOL0     C18674  10.027   3.023   6.560  1.0997  0.1494  0.1397
  900MOL0     C18675   9.932   3.013   6.665  1.2564 -0.1250 -0.2758
  900MOL0     O18676   9.839   3.103   6.717  0.1263 -0.4164  0.5405
  900MOL0     C18677   9.828   3.228   6.648  0.3318 -0.1346  0.5652
  900MOL0     C18678   9.744   3.332   6.719  0.8711 -0.0612 -0.4414
  900MOL0     C18679   9.589   3.302   6.744  0.2997  0.4420 -0.3429
  900MOL0     C18680   9.518   3.400   6.828 -0.2595  0.1621  0.7026
  900MOL0     C18681   9.377   3.362   6.855 -0.4367  0.0128 -0.0612
  900MOL0     C18682   9.297   3.479   6.918  0.9256 -0.1225  0.7120
  900MOL0     C18683   9.171   3.435   6.996  0.0472 -0.4476 -0.3135
  900MOL0     C18684   9.106   3.566   7.058  0.4871  0.4073  0.2148
  900MOL0     N18685   8.990   3.525   7.147 -0.0104  0.3457  0.1219
  900MOL0     C18686   8.882   3.449   7.107  0.7725  0.4375  0.2287
  900MOL0     C18687   8.793   3.452   7.206  0.8973  0.7394 -0.4952
  900MOL0     C18688   8.655   3.381   7.202  0.2637 -0.5284  0.4389
  900MOL0     C18689   8.549   3.475   7.252  0.0203 -0.5015 -0.3440
  900MOL0     C18690   8.419   3.393   7.271  0.3417 -0.6159 -0.1546
  900MOL0     C18691   8.310   3.490   7.327 -0.2697 -0.0344 -0.5969
  900MOL0     O18692   8.174   3.445   7.321 -0.5246 -0.3603  0.2775
  900MOL0     C18693   8.113   3.411   7.430  1.0764 -0.6344  0.4483
  900MOL0     C18694   8.168   3.359   7.552 -0.0386 -0.9341  0.2991
  900MOL0     C18695   8.089   3.296   7.646  0.2795  0.2943 -1.0090
  900MOL0     C18696   7.946   3.308   7.641  0.6776 -0.3021  0.3539
  900MOL0     C18697   7.862   3.247   7.748  0.6105  0.1664  0.1945
  900MOL0     O18698   7.919   3.168   7.840 -0.3624 -0.5883 -0.1979
  900MOL0     C18699   7.846   3.102   7.937  0.7295  0.0816 -0.4383
  900MOL0     C18700   7.708   3.079   7.955  0.5980  1.2395  0.9746
  900MOL0     C18701   7.663   2.996   8.055  0.0208  0.4536 -0.0280
  900MOL0     C18702   7.754   2.936   8.154  0.0798 -0.0834  0.3541
  900MOL0     O18703   7.711   2.840   8.240  0.1050  0.3911  0.1771
  900MOL0     C18704   7.690   2.891   8.379  0.1350  0.1386  0.3262
  900MOL0     C18705   7.593   2.811   8.459 -0.0121 -0.3743  0.7756
  900MOL0     C18706   7.449   2.812   8.406 -0.5397  0.3311  0.3774
  900MOL0     C18707   7.365   2.721   8.494  0.2539 -0.6282  0.0221
  900MOL0     C18708   7.224   2.699   8.426 -0.1267 -0.5942  0.8401
  900MOL0     C18709   7.127   2.632   8.526  0.5087  0.2210 -0.0597
  900MOL0     C18710   6.990   2.604   8.463  0.5981  0.7725  0.0123
  900MOL0     C18711   6.890   2.538   8.565  0.2386 -0.8311  0.8388
  900MOL0    Cl18712   6.892   2.360   8.544  0.0413 -0.4709 -0.1512
  900MOL0     C18713   7.890   2.963   8.137  0.7542 -0.0620  0.5533
  900MOL0     C18714   7.932   3.037   8.030 -0.5778  0.7528  0.2874
  900MOL0     O18715   7.742   3.263   7.731 -1.4798 -0.3088 -0.1885
  900MOL0     C18716   7.893   3.381   7.535  0.1184  0.3876 -0.1341
  900MOL0     C18717   7.970   3.424   7.425 -0.0718  0.0547  0.2554
  900MOL0     N18718   8.857   3.512   7.310  0.1162  0.0595 -0.2584
  900MOL0     N18719   8.977   3.552   7.281  0.2153 -0.4313 -0.2969
  900MOL0     C18720   9.910   2.881   6.714 -0.0735 -0.0325  0.1638
  900MOL0     C18721   9.976   2.771   6.654  0.0845 -0.6780  0.7166
  900MOL0     C18722  10.262   2.481   6.503 -0.7140 -0.4235 -0.0444
  900MOL0     C18723  10.231   2.441   6.373 -0.0918 -0.7008  0.0346
  900MOL0     C18724  10.279   2.327   6.321 -0.5195  0.5972  0.2501
  900MOL0     C18725  10.358   2.241   6.392 -0.2923 -0.0835 -0.1844
  900MOL0     O18726  10.406   2.124   6.341 -0.1816  0.5163  0.9291
  900MOL0     C18727  10.535   2.127   6.285  0.5947 -0.2798 -0.2541
  900MOL0     C18728  10.542   2.154   6.134  0.0863 -0.6118  0.4488
  900MOL0     C18729  10.683   2.138   6.093 -0.5911  0.4296 -0.0515
  900MOL0     C18730  10.708   2.182   5.942  0.1149 -0.6338  0.7535
  900MOL0     C18731  10.849   2.180   5.908 -0.6199 -0.0536  0.5093
  900MOL0     C18732  10.958   2.176   5.862  0.1678  0.7865  0.0635
  900MOL0     C18733  10.390   2.276   6.523  0.3026  0.0254 -0.6103
  900MOL0     C18734  10.339   2.394   6.581  0.0343 -0.5266  0.8325
  900MOL0     H18735  10.179   2.918   6.437 -0.0708  0.4625 -0.3751
  900MOL0     H18736  10.046   3.123   6.522 -1.0561  1.1804  1.5981
  900MOL0     H18737   9.791   3.206   6.547  1.0717  0.1475  0.2278
  900MOL0     H18738   9.931   3.261   6.630  0.0441 -0.9822 -3.4598
  900MOL0     H18739   9.740   3.428   6.666  1.3659  1.4538  2.1090
  900MOL0     H18740   9.789   3.355   6.816  1.4180 -0.9395 -0.4822
  900MOL0     H18741   9.575   3.204   6.790  1.0801  0.3868 -0.2160
  900MOL0     H18742   9.531   3.289   6.652 -0.5718  0.8150  0.1419
  900MOL0     H18743   9.568   3.402   6.925  0.3234 -2.3322  0.5368
  900MOL0     H18744   9.509   3.496   6.776 -2.7737 -0.9226 -1.0956
  900MOL0     H18745   9.394   3.284   6.930  4.2752  0.0350 -0.7549
  900MOL0     H18746   9.326   3.323   6.767  0.7283 -2.2564  0.1986
  900MOL0     H18747   9.265   3.546   6.839 -1.3423 -2.8197 -0.8424
  900MOL0     H18748   9.356   3.543   6.984 -1.4197  4.8081 -1.4858
  900MOL0     H18749   9.099   3.387   6.930  0.8341  0.4698 -1.8955
  900MOL0     H18750   9.192   3.363   7.075 -1.5311  0.0560  0.6131
  900MOL0     H18751   9.068   3.640   6.986 -0.5069  0.7320  1.0532
  900MOL0     H18752   9.184   3.609   7.121 -0.8917  0.7854  1.7199
  900MOL0     H18753   8.858   3.412   7.007 -0.8387 -0.8009  1.0262
  900MOL0     H18754   8.655   3.295   7.269  2.0401 -2.6978 -2.1290
  900MOL0     H18755   8.627   3.347   7.102 -3.2029  2.7571  0.0344
  900MOL0     H18756   8.537   3.557   7.181 -2.2128 -1.5642 -1.2951
  900MOL0     H18757   8.576   3.511   7.352 -0.6282 -2.7601  0.7194
  900MOL0     H18758   8.376   3.352   7.179  0.8386  0.4198 -0.8764
  900MOL0     H18759   8.436   3.317   7.348 -4.2346 -0.7223  1.0418
  900MOL0     H18760   8.316   3.579   7.263 -0.9300  1.9137  1.9213
  900MOL0     H18761   8.350   3.506   7.427 -0.7332 -2.2898  0.0117
  900MOL0     H18762   8.276   3.355   7.563  0.1517 -2.5728 -1.6807
  900MOL0     H18763   8.144   3.243   7.723  2.2416  1.5156 -1.5004
  900MOL0     H18764   7.635   3.106   7.880  4.1085  1.0752 -2.8816
  900MOL0     H18765   7.557   2.974   8.046 -0.2030  1.6948 -0.5739
  900MOL0     H18766   7.671   2.999   8.376  0.2079  0.1665  0.8343
  900MOL0     H18767   7.787   2.891   8.429 -0.4785  0.7076  1.5815
  900MOL0     H18768   7.592   2.842   8.564  0.5533 -0.7440  0.8939
  900MOL0     H18769   7.635   2.711   8.448 -0.2803 -0.3458 -0.7038
  900MOL0     H18770   7.445   2.791   8.299  1.0090  3.0232 -0.2902
  900MOL0     H18771   7.414   2.914   8.425 -2.3584 -0.5465  2.1743
  900MOL0     H18772   7.416   2.625   8.505  1.8273  0.3007  1.1824
  900MOL0     H18773   7.351   2.764   8.594  0.0629  0.0406 -0.2874
  900MOL0     H18774   7.233   2.633   8.339  2.1568 -1.5575  1.7268
  900MOL0     H18775   7.182   2.795   8.396  1.4294  0.3441  1.5267
  900MOL0     H18776   7.112   2.692   8.616 -1.9949  0.6063 -0.6657
  900MOL0     H18777   7.169   2.537   8.561  0.3835 -0.0116 -0.5313
  900MOL0     H18778   6.958   2.702   8.425  0.7032  0.4354 -0.9688
  900MOL0     H18779   7.004   2.534   8.380 -1.7042 -0.8585  0.9121
  900MOL0     H18780   6.791   2.574   8.537 -0.0873 -1.1728  1.5116
  900MOL0     H18781   6.920   2.562   8.667  4.2011  0.0824 -0.3805
  900MOL0     H18782   7.970   2.927   8.200  1.1441 -0.2926 -0.0680
  900MOL0     H18783   8.038   3.057   8.023 -0.5345  0.1778 -1.1826
  900MOL0     H18784   7.786   3.389   7.515 -0.6568 -3.5092  1.6477
  900MOL0     H18785   7.927   3.449   7.329 -0.7269 -0.7936  0.3189
  900MOL0     H18786   9.844   2.857   6.797  1.6410  0.9665  1.9094
  900MOL0     H18787   9.961   2.669   6.687  1.8508 -1.5750 -1.0403
  900MOL0     H18788  10.162   2.497   6.311  1.1510  2.8322  1.5641
  900MOL0     H18789  10.247   2.299   6.221 -0.0551 -0.4080  0.3678
  900MOL0     H18790  10.577   2.029   6.307  1.5962 -0.0421 -1.0373
  900MOL0     H18791  10.596   2.205   6.332 -2.7949  2.2639  0.2682
  900MOL0     H18792  10.476   2.078   6.090 -1.9714  1.3538 -0.0334
  900MOL0     H18793  10.500   2.252   6.112  0.4053 -0.6197 -0.2168
  900MOL0     H18794  10.715   2.034   6.104  1.6838  1.2037  1.5091
  900MOL0     H18795  10.745   2.203   6.156 -0.6541  0.7840 -0.3478
  900MOL0     H18796  10.650   2.121   5.872 -0.9050 -0.7267  1.6564
  900MOL0     H18797  10.679   2.287   5.932  2.9193  0.2222  0.6071
  900MOL0     H18798  11.059   2.195   5.831  0.5845 -0.0889  0.8458
  900MOL0     H18799  10.444   2.203   6.583 -1.2299 -1.6069 -1.1325
  900MOL0     H18800  10.362   2.430   6.680  2.3542  3.8475 -1.0228
  901MOL0     O18801  11.074   4.799   7.902  0.2661  0.3744 -0.0765
  901MOL0     C18802  11.120   4.682   7.894  0.8487 -0.5690 -0.6456
  901MOL0     O18803  11.063   4.587   7.818  0.2166  0.1126  0.0889
  901MOL0     C18804  10.945   4.617   7.762 -0.2142 -0.0281 -0.8437
  901MOL0     C18805  10.828   4.571   7.818 -0.7627 -0.0400 -0.2739
  901MOL0     C18806  10.704   4.603   7.762 -0.6165 -0.3147  0.1073
  901MOL0     C18807  10.696   4.673   7.639 -0.3617  0.2911 -0.8237
  901MOL0     O18808  10.574   4.703   7.579 -0.4033 -0.1096  0.2855
  901MOL0     C18809  10.580   4.739   7.439  0.4262 -0.2478 -0.2611
  901MOL0     C18810  10.440   4.714   7.382  0.2185  0.5147 -0.3833
  901MOL0     C18811  10.333   4.769   7.471  0.2398  0.2930  0.1828
  901MOL0     C18812  10.215   4.827   7.391 -0.9188 -0.4064  0.1829
  901MOL0     C18813  10.091   4.870   7.468  0.3436 -0.2841  0.5308
  901MOL0     C18814   9.979   4.906   7.371 -0.9574  0.1596 -0.7977
  901MOL0     C18815   9.861   4.984   7.423  0.2461  0.0599  0.7399
  901MOL0     C18816   9.796   4.924   7.545 -0.2916 -0.1430 -0.1403
  901MOL0     N18817   9.721   4.800   7.506  0.6476 -0.1581 -0.1922
  901MOL0     C18818   9.598   4.805   7.454  0.3603  0.5369  0.0927
  901MOL0     C18819   9.570   4.671   7.427  0.5611 -0.2590 -0.5590
  901MOL0     C18820   9.454   4.612   7.344  0.5577 -0.3162 -0.5221
  901MOL0     C18821   9.455   4.683   7.208 -0.1816 -0.2401 -0.0132
  901MOL0     C18822   9.543   4.623   7.094 -0.4883 -0.4484  0.1997
  901MOL0     C18823   9.692   4.602   7.122  0.3025 -0.3047 -0.7773
  901MOL0     O18824   9.759   4.564   6.997 -0.2441 -0.0763 -1.0224
  901MOL0     C18825   9.891   4.522   7.010 -0.5824  0.2721  0.4788
  901MOL0     C18826   9.954   4.480   6.886  0.4556 -0.8800  0.8788
  901MOL0     C18827  10.091   4.460   6.869  0.7762  0.3182 -0.0414
  901MOL0     C18828  10.177   4.466   6.982 -0.4615 -0.7777  0.1270
  901MOL0     C18829  10.320   4.430   6.964  0.0499  0.3302  0.5798
  901MOL0     O18830  10.403   4.424   7.069  0.3943  0.0093 -0.4807
  901MOL0     C18831  10.540   4.391   7.049  0.2341 -0.2212  0.3568
  901MOL0     C18832  10.626   4.484   6.999 -0.6139 -0.1759  0.5082
  901MOL0     C18833  10.766   4.455   6.979  0.3876 -0.1619 -0.6880
  901MOL0     C18834  10.810   4.325   7.008  0.3295 -0.2669  0.7170
  901MOL0     O18835  10.942   4.314   6.980 -0.1150  0.4622  0.0456
  901MOL0     C18836  11.021   4.204   7.031  0.7186 -0.4322 -0.4010
  901MOL0     C18837  11.166   4.203   6.974 -0.2369 -0.1341  0.0626
  901MOL0     C18838  11.237   4.069   7.035  0.3414  0.2567 -0.5305
  901MOL0     C18839  11.385   4.055   7.009 -0.1961 -0.4136 -0.0727
  901MOL0     C18840  11.402   4.057   6.853 -0.5176  0.1377 -0.5338
  901MOL0     C18841  11.552   4.051   6.809 -0.3223 -0.3689  0.2036
  901MOL0     C18842  11.607   3.919   6.863 -1.0785  0.5730  0.2583
  901MOL0     C18843  11.747   3.880   6.803  0.6845 -0.4425  0.2714
  901MOL0    Cl18844  11.782   3.715   6.833  0.6016 -0.4336 -0.4097
  901MOL0     C18845  10.729   4.226   7.063 -0.6212  0.4329 -0.6594
  901MOL0     C18846  10.594   4.260   7.081 -0.3263  0.3841  0.3233
  901MOL0     O18847  10.355   4.409   6.846  0.2104  0.0547 -0.2167
  901MOL0     C18848  10.118   4.492   7.106  0.0965  0.3145 -0.2110
  901MOL0     C18849   9.979   4.532   7.125 -0.0674 -0.1296  0.5366
  901MOL0     N18850   9.683   4.599   7.459 -0.2315  0.1179 -0.2064
  901MOL0     N18851   9.773   4.676   7.501  0.4286  0.8344 -0.2969
  901MOL0     C18852  10.820   4.711   7.581  0.0326  0.1866 -0.1217
  901MOL0     C18853  10.943   4.678   7.630 -0.2436  0.6040 -0.3367
  901MOL0     C18854  11.246   4.644   7.953  0.3479 -0.0343  0.2958
  901MOL0     C18855  11.314   4.736   8.041  1.1976  0.5417 -0.2318
  901MOL0     C18856  11.429   4.703   8.103 -0.1063  0.3236  0.2079
  901MOL0     C18857  11.479   4.573   8.083  0.4778  0.3475  0.0509
  901MOL0     O18858  11.601   4.507   8.132 -0.3611 -0.7604  0.5839
  901MOL0     C18859  11.673   4.594   8.221  0.1063 -0.4648 -0.8772
  901MOL0     C18860  11.801   4.512   8.245 -0.2196  0.4954  0.2696
  901MOL0     C18861  11.922   4.534   8.156  0.2571  0.2631 -0.2916
  901MOL0     C18862  12.030   4.434   8.194 -1.0080 -0.7323 -0.3919
  901MOL0     C18863  12.129   4.428   8.092  0.0139 -0.9619 -0.2946
  901MOL0     C18864  12.217   4.440   8.002  0.3424  0.1402  0.1080
  901MOL0     C18865  11.408   4.480   8.012 -0.3817  0.1614  0.5813
  901MOL0     C18866  11.285   4.513   7.956 -0.1745  0.8284 -0.5153
  901MOL0     H18867  10.842   4.506   7.904  2.4297 -2.3078 -2.3286
  901MOL0     H18868  10.611   4.583   7.815 -0.9851 -0.0310 -0.4245
  901MOL0     H18869  10.649   4.679   7.379 -1.2804 -0.6075 -1.9383
  901MOL0     H18870  10.601   4.845   7.422 -1.7954  0.0986 -1.1986
  901MOL0     H18871  10.428   4.606   7.365  1.8889  0.5404 -2.0319
  901MOL0     H18872  10.431   4.765   7.285  1.1424 -1.6863 -1.7155
  901MOL0     H18873  10.377   4.854   7.522  2.9825 -0.2093 -1.1676
  901MOL0     H18874  10.295   4.699   7.545  0.0198  0.0118 -0.1880
  901MOL0     H18875  10.235   4.903   7.316  0.7307 -1.8460 -0.9003
  901MOL0     H18876  10.192   4.746   7.322  1.5137  0.5739 -1.9172
  901MOL0     H18877  10.116   4.945   7.544  0.4952 -0.4634  0.6594
  901MOL0     H18878  10.064   4.779   7.523 -2.9077 -0.2129 -0.7757
  901MOL0     H18879   9.958   4.812   7.320 -2.0848 -0.3024  0.4575
  901MOL0     H18880  10.032   4.966   7.297  2.6260 -1.6747  0.0687
  901MOL0     H18881   9.887   5.087   7.451 -1.2236  1.0693 -1.3342
  901MOL0     H18882   9.791   4.994   7.340 -0.4892  0.8294  1.4354
  901MOL0     H18883   9.741   5.000   7.601  0.2989 -0.0536  0.3368
  901MOL0     H18884   9.869   4.893   7.620 -0.0189  1.4747  0.3026
  901MOL0     H18885   9.543   4.895   7.430 -1.8091 -0.2873  1.7227
  901MOL0     H18886   9.355   4.622   7.390 -0.1004  1.8566 -2.2769
  901MOL0     H18887   9.465   4.503   7.338 -1.6622 -0.6560  0.3342
  901MOL0     H18888   9.471   4.790   7.220 -1.7322 -0.0559  0.7086
  901MOL0     H18889   9.350   4.673   7.179 -1.2872  1.2445  3.0432
  901MOL0     H18890   9.503   4.526   7.063 -0.2554 -0.4120 -0.2155
  901MOL0     H18891   9.530   4.689   7.007  1.5850  0.9797  0.9077
  901MOL0     H18892   9.705   4.529   7.202 -2.2784 -0.7004 -0.6319
  901MOL0     H18893   9.729   4.701   7.151 -0.3303  0.0469 -1.1562
  901MOL0     H18894   9.886   4.468   6.802  2.2901 -1.7374 -0.5582
  901MOL0     H18895  10.136   4.421   6.778 -1.3569  1.5313 -1.6991
  901MOL0     H18896  10.608   4.588   6.974  2.1684  0.3477  0.3031
  901MOL0     H18897  10.831   4.530   6.935  2.3426 -1.7908 -0.7215
  901MOL0     H18898  10.969   4.112   7.003 -2.9811  1.6004 -0.8290
  901MOL0     H18899  11.010   4.201   7.140 -5.4994 -0.6307 -0.7029
  901MOL0     H18900  11.219   4.293   7.005  0.2195  0.0046 -1.0488
  901MOL0     H18901  11.166   4.207   6.865 -0.1625 -2.0616 -0.0547
  901MOL0     H18902  11.187   3.977   7.003  0.2375  0.6881 -1.6453
  901MOL0     H18903  11.214   4.067   7.142 -0.8783  0.4719 -0.7685
  901MOL0     H18904  11.437   4.138   7.057 -2.4036  0.5876  0.6876
  901MOL0     H18905  11.420   3.961   7.053  1.7752  0.6249  0.7044
  901MOL0     H18906  11.362   4.152   6.816  0.6824  1.3731  1.2369
  901MOL0     H18907  11.335   3.984   6.805 -1.5564  0.9437 -0.3450
  901MOL0     H18908  11.596   4.137   6.861  0.1810 -1.4321  1.6041
  901MOL0     H18909  11.561   4.066   6.701 -0.2896 -1.3939  0.0544
  901MOL0     H18910  11.629   3.935   6.969  1.7842 -3.3360  0.4607
  901MOL0     H18911  11.539   3.834   6.852 -1.6453  0.6795  2.4425
  901MOL0     H18912  11.823   3.955   6.829 -0.6856  0.6571  1.2916
  901MOL0     H18913  11.744   3.900   6.696  3.8254  0.7610  0.3059
  901MOL0     H18914  10.776   4.134   7.097  2.6295  0.9619 -3.2047
  901MOL0     H18915  10.537   4.181   7.129  0.8130  0.0421  1.1388
  901MOL0     H18916  10.187   4.498   7.189  0.1524 -0.7366 -0.1659
  901MOL0     H18917   9.954   4.571   7.223 -0.1804 -1.9396  1.2591
  901MOL0     H18918  10.820   4.772   7.491  0.4530  1.1586  0.5120
  901MOL0     H18919  11.039   4.710   7.592 -0.2165  4.4032  2.4356
  901MOL0     H18920  11.264   4.832   8.046 -2.9865 -1.3867 -0.6115
  901MOL0     H18921  11.482   4.779   8.160  1.3148 -0.7118  0.3121
  901MOL0     H18922  11.604   4.605   8.305 -1.6356 -3.8816 -1.6427
  901MOL0     H18923  11.682   4.697   8.187 -1.4572  0.4547  1.3373
  901MOL0     H18924  11.839   4.532   8.345  0.5885 -2.8638  0.7520
  901MOL0     H18925  11.779   4.405   8.242 -1.4827  0.6906  1.5612
  901MOL0     H18926  11.960   4.636   8.153  1.4235 -0.1644 -1.6538
  901MOL0     H18927  11.889   4.519   8.052 -0.3527  0.1668 -0.0913
  901MOL0     H18928  12.091   4.479   8.273  0.1784  1.4234 -2.4150
  901MOL0     H18929  11.990   4.335   8.219 -1.6568  0.0121  1.8215
  901MOL0     H18930  12.296   4.454   7.931 -0.0847  3.0055  0.0653
  901MOL0     H18931  11.443   4.377   8.012  1.5138  0.7303 -1.1331
  901MOL0     H18932  11.237   4.428   7.909  0.3132 -0.3631  1.0723
  902MOL0     O18933   6.055   7.717   9.554  0.0547  0.8811 -0.4211
  902MOL0     C18934   6.120   7.815   9.584 -0.1810  0.7933 -0.4479
  902MOL0     O18935   6.084   7.947   9.557  0.0486  0.4995 -0.0970
  902MOL0     C18936   5.952   7.981   9.533  0.0672 -0.6969  0.3411
  902MOL0     C18937   5.910   8.055   9.426 -0.1249 -0.5421 -0.5072
  902MOL0     C18938   5.775   8.094   9.413 -0.5347  0.5653 -0.3130
  902MOL0     C18939   5.679   8.059   9.508 -0.5088 -0.1962 -0.1766
  902MOL0     O18940   5.546   8.076   9.472 -1.0097 -0.0636 -0.0493
  902MOL0     C18941   5.442   8.002   9.533 -0.8553  0.2030  0.2712
  902MOL0     C18942   5.308   8.053   9.490  0.4244  0.6876  0.2485
  902MOL0     C18943   5.273   8.035   9.340 -0.2225 -0.3375  0.2662
  902MOL0     C18944   5.125   8.038   9.314  0.7144 -0.4750  0.7465
  902MOL0     C18945   5.100   8.013   9.161 -0.5080 -0.4977 -0.3837
  902MOL0     C18946   4.951   8.054   9.136 -0.0211  0.0103 -0.0736
  902MOL0     C18947   4.900   8.058   8.994  0.0452 -0.4396  0.2889
  902MOL0     C18948   4.882   7.919   8.935  0.1134  0.0930  0.1177
  902MOL0     N18949   4.835   7.901   8.795  1.4524  0.5647 -0.2780
  902MOL0     C18950   4.870   7.799   8.706  0.1391  0.2759 -0.7136
  902MOL0     C18951   4.825   7.830   8.587 -0.2130  0.5880  0.3517
  902MOL0     C18952   4.835   7.726   8.472  0.4577  0.5206  0.4435
  902MOL0     C18953   4.683   7.682   8.436 -0.6872 -1.1878 -0.3970
  902MOL0     C18954   4.672   7.632   8.289  0.7210  0.4358  0.0807
  902MOL0     C18955   4.521   7.623   8.245 -0.1619  0.2405  0.0046
  902MOL0     O18956   4.445   7.588   8.361  0.3237  0.1728  0.4535
  902MOL0     C18957   4.326   7.515   8.338  0.2363 -0.5064  0.3367
  902MOL0     C18958   4.213   7.580   8.294  1.0090 -0.1870 -0.3596
  902MOL0     C18959   4.093   7.507   8.281  0.4777  0.8566 -0.1423
  902MOL0     C18960   4.089   7.367   8.305  0.2633 -0.2252 -1.2491
  902MOL0     C18961   3.952   7.308   8.315 -0.0608  0.5986 -0.4026
  902MOL0     O18962   3.848   7.379   8.259  0.1081 -0.0172 -0.1684
  902MOL0     C18963   3.727   7.313   8.253  0.3267 -0.1502 -0.7916
  902MOL0     C18964   3.700   7.179   8.227 -0.2160  0.3284  0.0085
  902MOL0     C18965   3.564   7.137   8.229  0.4942  0.9802  0.1498
  902MOL0     C18966   3.454   7.213   8.262 -0.1056 -0.3632 -0.8682
  902MOL0     O18967   3.332   7.145   8.278  0.3348  0.2929  0.6906
  902MOL0     C18968   3.210   7.207   8.301  0.0119 -0.0753 -0.6758
  902MOL0     C18969   3.110   7.095   8.291 -0.2044 -0.5545  0.2425
  902MOL0     C18970   2.963   7.125   8.305  0.4670  0.0353  0.8465
  902MOL0     C18971   2.886   6.999   8.260  0.4847  0.4568  1.0304
  902MOL0     C18972   2.734   7.014   8.258 -1.1751  0.1069 -0.2816
  902MOL0     C18973   2.673   6.891   8.203 -0.0757  0.2150  0.2296
  902MOL0     C18974   2.520   6.900   8.200  0.3418  0.0488  0.7366
  902MOL0     C18975   2.460   6.766   8.192 -0.3453 -0.3281 -0.4280
  902MOL0    Cl18976   2.280   6.780   8.162  0.3007  0.1020  0.1493
  902MOL0     C18977   3.488   7.347   8.286 -0.5356 -0.1167  0.3483
  902MOL0     C18978   3.617   7.392   8.291 -1.0189  0.2119 -0.6066
  902MOL0     O18979   3.941   7.203   8.380 -0.3234 -0.2227  0.6368
  902MOL0     C18980   4.211   7.304   8.332 -0.1581  0.9509 -0.1669
  902MOL0     C18981   4.329   7.381   8.342  0.0324  0.4278 -0.6041
  902MOL0     N18982   4.764   7.954   8.604  0.3196 -0.6063 -0.7291
  902MOL0     N18983   4.764   7.991   8.723  0.2729 -0.5374 -0.6523
  902MOL0     C18984   5.722   7.974   9.613  0.4467  0.3754 -0.7828
  902MOL0     C18985   5.860   7.950   9.634 -0.4188  0.3589  0.6307
  902MOL0     C18986   6.249   7.785   9.645 -0.5271  0.8252  0.3498
  902MOL0     C18987   6.312   7.658   9.635  0.1805  0.2081 -0.4355
  902MOL0     C18988   6.446   7.642   9.693  0.7045 -0.0375  0.5801
  902MOL0     C18989   6.511   7.749   9.760  1.2524  0.5275  0.6715
  902MOL0     O18990   6.637   7.739   9.809 -0.2577  0.3885  0.2367
  902MOL0     C18991   6.640   7.713   9.953  0.3659  0.4056  1.1653
  902MOL0     C18992   6.677   7.835  10.030  0.1753 -0.7711 -0.2063
  902MOL0     C18993   6.829   7.855  10.015 -0.3624  0.0831 -0.5117
  902MOL0     C18994   6.887   7.987  10.073 -0.0984  1.0592  0.1935
  902MOL0     C18995   6.838   8.098   9.986 -0.4116 -0.0940  0.0369
  902MOL0     C18996   6.805   8.186   9.907 -0.1466  1.1614  0.3846
  902MOL0     C18997   6.438   7.869   9.767  0.1513 -0.0685 -0.1169
  902MOL0     C18998   6.310   7.887   9.720 -0.9450 -0.5738  0.3196
  902MOL0     H18999   5.979   8.069   9.344  0.1229 -3.4853 -0.8983
  902MOL0     H19000   5.744   8.147   9.323 -0.5359 -1.1772 -1.3901
  902MOL0     H19001   5.449   8.012   9.642  1.3702  0.5494  0.1497
  902MOL0     H19002   5.456   7.898   9.503 -0.0222 -0.6949  3.3832
  902MOL0     H19003   5.291   8.159   9.511 -0.4701  1.0938 -2.2670
  902MOL0     H19004   5.236   7.992   9.544  2.5154  0.0754  2.5490
  902MOL0     H19005   5.302   7.933   9.314  3.5368  0.4994  0.7353
  902MOL0     H19006   5.334   8.091   9.270  1.4329  0.1222  2.0095
  902MOL0     H19007   5.075   7.964   9.377 -2.7004  0.6763 -0.3733
  902MOL0     H19008   5.083   8.136   9.335  3.0662  0.5789  0.7970
  902MOL0     H19009   5.128   7.910   9.138  1.4292 -0.0416 -0.3005
  902MOL0     H19010   5.164   8.074   9.097 -3.5401 -0.5669 -3.8042
  902MOL0     H19011   4.935   8.155   9.176 -0.8894 -0.3427  0.4975
  902MOL0     H19012   4.878   7.990   9.187  0.1701  0.4200  0.7363
  902MOL0     H19013   4.814   8.125   8.990 -0.4414 -1.1112 -1.4054
  902MOL0     H19014   4.973   8.111   8.932  1.2403  0.4332  2.3430
  902MOL0     H19015   4.809   7.863   8.994 -1.5400 -0.3878 -2.2328
  902MOL0     H19016   4.969   7.854   8.951  0.0519 -0.2130 -0.7447
  902MOL0     H19017   4.903   7.698   8.730 -2.3159 -0.4222  0.0443
  902MOL0     H19018   4.905   7.644   8.492 -1.5536 -0.9458  1.7761
  902MOL0     H19019   4.891   7.777   8.393  0.9898  0.0973  0.5402
  902MOL0     H19020   4.608   7.760   8.451  0.5110 -0.1610  0.3877
  902MOL0     H19021   4.662   7.607   8.513 -1.1152  0.6124  1.3020
  902MOL0     H19022   4.727   7.694   8.217 -0.1391  0.4438 -0.5818
  902MOL0     H19023   4.713   7.531   8.294 -3.0282 -1.2142  0.5737
  902MOL0     H19024   4.520   7.546   8.167  1.0480  0.4203 -0.2035
  902MOL0     H19025   4.492   7.721   8.207  0.6890  0.1903 -0.8009
  902MOL0     H19026   4.212   7.689   8.286 -0.0132 -0.3209 -2.9321
  902MOL0     H19027   4.004   7.564   8.256 -0.5211  0.2987  1.9103
  902MOL0     H19028   3.769   7.104   8.190 -2.1271 -0.7647 -1.4821
  902MOL0     H19029   3.536   7.035   8.205 -0.1290  0.5936  2.2982
  902MOL0     H19030   3.194   7.282   8.223 -1.3041 -0.2315 -0.5690
  902MOL0     H19031   3.223   7.248   8.401  0.7064  0.5146 -0.9976
  902MOL0     H19032   3.136   7.028   8.373  1.4731  0.3306  0.4886
  902MOL0     H19033   3.145   7.050   8.198  0.2970 -0.5367  0.4179
  902MOL0     H19034   2.942   7.207   8.235 -1.8433 -0.0270  1.3773
  902MOL0     H19035   2.929   7.156   8.404 -0.8243  0.3213  0.3329
  902MOL0     H19036   2.923   6.967   8.163  0.0096  1.1061  0.6275
  902MOL0     H19037   2.906   6.918   8.331  1.6194  0.2886  0.5408
  902MOL0     H19038   2.708   7.100   8.195  2.7164  0.3080 -1.8361
  902MOL0     H19039   2.698   7.036   8.359 -0.7272 -1.9331  0.3523
  902MOL0     H19040   2.692   6.801   8.262 -0.5408 -0.4474 -0.6091
  902MOL0     H19041   2.713   6.863   8.105  2.9162  1.0297  1.1005
  902MOL0     H19042   2.491   6.955   8.290  1.9617  0.5849  0.9608
  902MOL0     H19043   2.484   6.962   8.117  0.4451  1.0212  1.4005
  902MOL0     H19044   2.478   6.720   8.290 -0.5016 -0.4087 -0.4366
  902MOL0     H19045   2.504   6.701   8.116 -1.7333 -1.1778 -0.5431
  902MOL0     H19046   3.401   7.412   8.299  0.1470  1.2221 -1.3623
  902MOL0     H19047   3.639   7.497   8.311 -0.5735  0.0049  0.0490
  902MOL0     H19048   4.201   7.196   8.345 -3.4918  0.8944 -2.1038
  902MOL0     H19049   4.430   7.342   8.353 -0.4627 -0.3962  1.4590
  902MOL0     H19050   5.651   7.922   9.678  1.3757 -1.1433 -0.9404
  902MOL0     H19051   5.885   7.888   9.720 -0.0512  0.7603  0.8104
  902MOL0     H19052   6.266   7.576   9.581 -1.1971  0.9186 -0.3925
  902MOL0     H19053   6.498   7.547   9.685  0.6070 -0.3034  2.6389
  902MOL0     H19054   6.714   7.634   9.968  3.8965  3.0285 -0.9749
  902MOL0     H19055   6.539   7.681   9.980  0.0124  1.1964  0.8166
  902MOL0     H19056   6.627   7.926   9.996 -0.5363 -1.8435 -2.1851
  902MOL0     H19057   6.636   7.820  10.131  0.9522  1.0402  0.4290
  902MOL0     H19058   6.858   7.849   9.909  0.2916  0.8218 -0.3845
  902MOL0     H19059   6.869   7.767  10.067  0.0060  0.8197  0.4759
  902MOL0     H19060   6.853   8.006  10.175 -1.1203 -1.8628  0.4982
  902MOL0     H19061   6.994   7.968  10.084 -0.7599 -4.1679  0.0661
  902MOL0     H19062   6.771   8.268   9.847  0.1304 -0.2646 -1.8731
  902MOL0     H19063   6.500   7.948   9.810  0.8798 -0.9504  0.4787
  902MOL0     H19064   6.267   7.986   9.728  0.8217  0.1256  2.0623
  903MOL0     O19065   5.897  11.181  10.837 -0.2353 -0.5714 -0.0963
  903MOL0     C19066   5.900  11.203  10.715  0.2034 -0.0175 -0.1356
  903MOL0     O19067   5.786  11.234  10.636  0.4971  0.4328  0.6181
  903MOL0     C19068   5.674  11.263  10.711  0.1932 -0.3634 -0.7419
  903MOL0     C19069   5.587  11.156  10.743  0.0920  0.1166 -0.0722
  903MOL0     C19070   5.485  11.173  10.839 -0.6354 -0.5705 -0.5125
  903MOL0     C19071   5.456  11.302  10.882  0.5541  0.1514 -0.2221
  903MOL0     O19072   5.356  11.325  10.973 -0.3350 -0.6394  0.2452
  903MOL0     C19073   5.287  11.226  11.048  0.3204 -0.2560  0.0360
  903MOL0     C19074   5.150  11.213  10.980 -0.7588 -0.5198  0.7443
  903MOL0     C19075   5.153  11.144  10.843  0.0874 -0.0143 -1.0580
  903MOL0     C19076   5.011  11.094  10.798  0.1001 -0.3325  1.1468
  903MOL0     C19077   5.015  11.089  10.641  0.9302 -0.0163 -0.0286
  903MOL0     C19078   4.875  11.053  10.589 -0.2154 -0.8713 -0.2151
  903MOL0     C19079   4.780  11.175  10.588 -0.1020  0.2840  0.0590
  903MOL0     C19080   4.627  11.143  10.597 -0.3766  0.0785  0.2339
  903MOL0     N19081   4.563  11.056  10.502  0.2496  0.7590 -0.4491
  903MOL0     C19082   4.479  11.110  10.408 -0.2336 -0.5430  0.2265
  903MOL0     C19083   4.416  11.007  10.353  0.6211  0.0170 -0.1416
  903MOL0     C19084   4.336  11.007  10.233 -0.1198  0.3223  0.2278
  903MOL0     C19085   4.178  11.016  10.262  0.6329 -0.0541  0.6125
  903MOL0     C19086   4.102  10.989  10.132  0.7059 -0.4210 -0.1699
  903MOL0     C19087   3.950  10.979  10.147  0.1784 -0.6443  0.0820
  903MOL0     O19088   3.905  10.925  10.021  0.7496 -0.2712  0.0476
  903MOL0     C19089   3.770  10.931   9.985 -0.3792  0.5749  0.2228
  903MOL0     C19090   3.737  10.921   9.853 -0.4635  0.2333  0.2564
  903MOL0     C19091   3.609  10.949   9.807 -0.0744  0.7356 -0.7237
  903MOL0     C19092   3.501  10.970   9.899 -0.0695 -0.3635  0.7094
  903MOL0     C19093   3.361  10.964   9.856 -0.5727  0.1198  0.0531
  903MOL0     O19094   3.266  11.044   9.923 -1.0114 -0.6582 -0.0091
  903MOL0     C19095   3.134  11.047   9.888  0.1686 -0.1528 -0.0504
  903MOL0     C19096   3.084  11.146   9.802  0.1030  0.8505 -0.2161
  903MOL0     C19097   2.953  11.143   9.764 -0.6541  0.1064 -0.0066
  903MOL0     C19098   2.868  11.042   9.797 -0.4878 -0.6587 -0.1750
  903MOL0     O19099   2.747  11.038   9.729  0.1202 -1.2059 -0.3009
  903MOL0     C19100   2.675  10.917   9.736 -0.2697  0.0683  0.5009
  903MOL0     C19101   2.554  10.925   9.646 -0.0042 -0.3064 -0.8246
  903MOL0     C19102   2.486  10.788   9.643 -0.6992  0.5919  0.3870
  903MOL0     C19103   2.393  10.781   9.512 -0.0109 -0.4232 -0.1809
  903MOL0     C19104   2.272  10.681   9.528 -0.5134 -0.0144  0.7072
  903MOL0     C19105   2.187  10.702   9.649 -0.1734  0.5278  0.4909
  903MOL0     C19106   2.112  10.841   9.664  0.1872 -0.3333  0.8374
  903MOL0     C19107   1.995  10.840   9.763  0.3994  0.1285  0.6769
  903MOL0    Cl19108   1.860  10.735   9.717 -0.1473 -0.0582 -0.1933
  903MOL0     C19109   2.909  10.950   9.885  0.0642  0.7858 -0.8788
  903MOL0     C19110   3.045  10.949   9.932  0.0635 -0.3180  0.1955
  903MOL0     O19111   3.345  10.892   9.756 -0.4016 -0.5912 -0.3000
  903MOL0     C19112   3.531  10.974  10.035  0.1300  0.0550  1.0905
  903MOL0     C19113   3.669  10.962  10.073  0.2218  0.1396  0.3269
  903MOL0     N19114   4.458  10.894  10.415 -0.2406 -0.2514 -0.0094
  903MOL0     N19115   4.547  10.917  10.505 -0.4358  0.5662 -0.9060
  903MOL0     C19116   5.533  11.409  10.842  1.1095 -0.6608  0.8867
  903MOL0     C19117   5.656  11.389  10.773 -0.3821  0.5670 -0.1830
  903MOL0     C19118   6.030  11.200  10.647  0.7649 -0.9446 -0.2365
  903MOL0     C19119   6.046  11.240  10.516  0.1255  0.2319  0.1802
  903MOL0     C19120   6.169  11.247  10.454 -0.1135  0.1259 -0.3599
  903MOL0     C19121   6.287  11.208  10.518  0.2967 -0.0445 -0.2869
  903MOL0     O19122   6.415  11.212  10.473 -0.2318  0.4128  0.2367
  903MOL0     C19123   6.430  11.237  10.334 -0.2595  0.0743  0.2440
  903MOL0     C19124   6.578  11.248  10.316  0.0531  1.0201 -0.4025
  903MOL0     C19125   6.648  11.368  10.394  0.5177  0.7073 -0.3564
  903MOL0     C19126   6.773  11.399  10.333 -1.0027  0.9390 -0.0676
  903MOL0     C19127   6.886  11.296  10.339 -0.0942 -0.2942 -0.0597
  903MOL0     C19128   6.966  11.207  10.333 -0.2085 -0.4334  0.6313
  903MOL0     C19129   6.274  11.172  10.647  0.0754  0.4694  0.5073
  903MOL0     C19130   6.149  11.164  10.712 -0.1184 -0.3892  0.4653
  903MOL0     H19131   5.598  11.051  10.716  0.2149 -0.7971  3.1212
  903MOL0     H19132   5.428  11.086  10.871 -0.4767 -1.6148 -2.8496
  903MOL0     H19133   5.273  11.269  11.147 -3.0347  1.1383 -0.8967
  903MOL0     H19134   5.336  11.129  11.063  2.7905  1.0682  1.0871
  903MOL0     H19135   5.101  11.310  10.967  1.8387  0.6535 -0.9108
  903MOL0     H19136   5.089  11.156  11.051 -2.2533  0.0610 -0.0190
  903MOL0     H19137   5.208  11.049  10.842 -1.8033 -1.1527 -1.3149
  903MOL0     H19138   5.190  11.225  10.779  0.8213  0.2411 -0.3233
  903MOL0     H19139   4.993  10.991  10.829 -1.3919  0.1764  2.0669
  903MOL0     H19140   4.933  11.159  10.839  0.2485  0.5559  0.0988
  903MOL0     H19141   5.090  11.017  10.609  0.7102 -0.0038 -0.5786
  903MOL0     H19142   5.045  11.187  10.603 -2.5930  1.3709  0.3064
  903MOL0     H19143   4.841  10.978  10.662  0.2798 -0.0530  0.8808
  903MOL0     H19144   4.879  11.016  10.487 -1.3498  2.3687 -1.5596
  903MOL0     H19145   4.797  11.240  10.674 -0.0598  0.5385 -0.1437
  903MOL0     H19146   4.802  11.235  10.499  2.6252 -0.8863 -0.1776
  903MOL0     H19147   4.564  11.232  10.610  0.2585  0.8193 -1.4640
  903MOL0     H19148   4.605  11.097  10.694 -0.8436  1.2241  0.6947
  903MOL0     H19149   4.466  11.214  10.379 -0.0328 -0.3007  0.9753
  903MOL0     H19150   4.358  10.912  10.183  0.7500  0.3934  0.4609
  903MOL0     H19151   4.370  11.089  10.169 -0.9330 -0.1829 -0.8795
  903MOL0     H19152   4.150  11.116  10.295 -1.1023  0.1670 -1.3477
  903MOL0     H19153   4.139  10.944  10.335 -1.8394 -0.3758 -0.8963
  903MOL0     H19154   4.111  11.072  10.060 -0.5572 -1.7730 -1.9887
  903MOL0     H19155   4.156  10.910  10.079  1.0245 -1.3736  1.5121
  903MOL0     H19156   3.904  11.078  10.154 -0.8156 -0.9557 -1.3906
  903MOL0     H19157   3.914  10.922  10.233  0.2814  4.0261  3.6307
  903MOL0     H19158   3.815  10.895   9.782 -1.8280 -0.0211 -1.2033
  903MOL0     H19159   3.592  10.928   9.702 -0.6211 -0.7044 -0.3847
  903MOL0     H19160   3.156  11.224   9.779  0.3347  0.9134  0.7019
  903MOL0     H19161   2.929  11.212   9.684  2.2518  3.4952  1.7573
  903MOL0     H19162   2.638  10.902   9.838 -0.8999 -0.2150  0.2388
  903MOL0     H19163   2.742  10.839   9.699  0.6678  1.5145 -1.0147
  903MOL0     H19164   2.582  10.965   9.549 -0.6915 -1.7502 -1.6659
  903MOL0     H19165   2.488  10.994   9.699  0.2512 -2.2302  2.2760
  903MOL0     H19166   2.428  10.778   9.736  0.6743 -1.1192  1.1385
  903MOL0     H19167   2.562  10.709   9.640 -0.3324  0.9467  0.2783
  903MOL0     H19168   2.359  10.882   9.489  1.7510 -0.0383 -1.2936
  903MOL0     H19169   2.446  10.745   9.423 -0.8369 -0.3234 -0.7156
  903MOL0     H19170   2.318  10.582   9.524 -0.4562  0.0556 -1.7856
  903MOL0     H19171   2.223  10.686   9.430 -0.3548  2.4281  0.6812
  903MOL0     H19172   2.247  10.679   9.738 -0.3115 -4.7599 -0.4422
  903MOL0     H19173   2.106  10.629   9.652  0.0165  0.3420  1.7716
  903MOL0     H19174   2.180  10.924   9.685 -0.0491  0.1408 -0.2327
  903MOL0     H19175   2.064  10.868   9.570  3.1270  1.3725 -0.3107
  903MOL0     H19176   1.973  10.947   9.768 -0.5255  0.1351 -1.9708
  903MOL0     H19177   2.030  10.822   9.865 -1.8227  1.5375  1.7752
  903MOL0     H19178   2.845  10.870   9.918  2.0692 -0.3065  0.6232
  903MOL0     H19179   3.089  10.873   9.996 -0.1824  0.3348  1.1620
  903MOL0     H19180   3.461  10.993  10.116 -0.8191 -2.3201  0.9106
  903MOL0     H19181   3.679  10.955  10.181 -1.4530 -0.5210  0.4753
  903MOL0     H19182   5.513  11.510  10.877  0.9682  0.1513 -1.3949
  903MOL0     H19183   5.729  11.469  10.763 -0.5256  0.6052 -1.0262
  903MOL0     H19184   5.961  11.267  10.454  0.2850  0.1170 -0.0877
  903MOL0     H19185   6.163  11.265  10.347 -0.5355  0.7017 -0.2445
  903MOL0     H19186   6.385  11.333  10.307  3.8839  2.7248  1.8244
  903MOL0     H19187   6.398  11.155  10.268 -0.0351  0.7320 -0.7050
  903MOL0     H19188   6.624  11.153  10.341 -0.9493  0.4853 -0.5170
  903MOL0     H19189   6.604  11.261  10.210 -1.5172 -1.4644 -1.1818
  903MOL0     H19190   6.668  11.333  10.496 -0.6154 -2.1962 -1.0371
  903MOL0     H19191   6.581  11.455  10.391  0.6149  0.8208  0.4244
  903MOL0     H19192   6.761  11.428  10.229  0.1510  5.4491  0.8595
  903MOL0     H19193   6.821  11.488  10.376  1.3889  1.3710 -3.2594
  903MOL0     H19194   7.049  11.140  10.338 -0.4645 -0.6794  3.3193
  903MOL0     H19195   6.356  11.132  10.706 -1.4606 -1.4424  1.5027
  903MOL0     H19196   6.161  11.129  10.814  1.6326 -0.5100  0.2435
  904MOL0     O19197   0.075   7.181   2.984 -0.2907 -0.0477 -0.3117
  904MOL0     C19198   0.187   7.162   3.034  1.0504  0.4071 -0.0374
  904MOL0     O19199   0.204   7.108   3.161  0.3467  0.0404 -0.6001
  904MOL0     C19200   0.095   7.081   3.242  0.5849 -0.5834  0.4778
  904MOL0     C19201   0.086   6.958   3.308 -0.5113 -0.5071  0.0184
  904MOL0     C19202  -0.028   6.943   3.398  0.6422 -0.2191  0.7300
  904MOL0     C19203  -0.124   7.044   3.410 -0.0886 -0.1531 -0.4791
  904MOL0     O19204  -0.234   7.029   3.490  0.0168 -0.6201 -0.0378
  904MOL0     C19205  -0.269   6.900   3.531  0.6542 -0.0198 -0.4847
  904MOL0     C19206  -0.402   6.913   3.604 -0.5332  0.5440  0.0324
  904MOL0     C19207  -0.452   6.770   3.651 -0.4568  0.8384  0.7534
  904MOL0     C19208  -0.565   6.784   3.748  0.0640  0.3467 -0.3420
  904MOL0     C19209  -0.611   6.657   3.814 -0.1013 -0.6831 -0.7050
  904MOL0     C19210  -0.731   6.683   3.917 -0.3237  0.4926 -1.0557
  904MOL0     C19211  -0.807   6.559   3.963  0.5880  0.8783  1.1259
  904MOL0     C19212  -0.710   6.473   4.057  0.0783 -0.1874  0.1005
  904MOL0     N19213  -0.792   6.360   4.106 -0.1303 -0.6829  0.3911
  904MOL0     C19214  -0.786   6.226   4.068 -0.1679  0.6886  0.3297
  904MOL0     C19215  -0.891   6.166   4.131  0.1125 -0.3204 -0.5182
  904MOL0     C19216  -0.913   6.013   4.132  0.2986 -0.5217  0.1455
  904MOL0     C19217  -1.059   5.978   4.159 -0.0316 -0.1195  0.3444
  904MOL0     C19218  -1.137   5.980   4.022 -0.2636 -0.1859  0.0250
  904MOL0     C19219  -1.285   6.010   4.034 -0.4622  0.5839 -0.1543
  904MOL0     O19220  -1.340   5.928   4.135  0.0625  0.1128  0.3611
  904MOL0     C19221  -1.473   5.946   4.172 -0.1534 -0.0129  0.1482
  904MOL0     C19222  -1.525   5.849   4.257  0.1232 -0.8047  0.0834
  904MOL0     C19223  -1.663   5.854   4.286 -0.3457  0.5699 -0.5147
  904MOL0     C19224  -1.743   5.952   4.237 -0.9236  0.0764 -0.0122
  904MOL0     C19225  -1.885   5.964   4.273 -0.8807  0.2352  0.3120
  904MOL0     O19226  -1.941   5.853   4.338 -0.1752 -0.1240  0.0040
  904MOL0     C19227  -2.071   5.832   4.374  0.5070 -0.3701 -0.8281
  904MOL0     C19228  -2.188   5.887   4.311  0.1038 -0.1921 -0.0611
  904MOL0     C19229  -2.313   5.878   4.363  0.4558  0.8402 -0.3047
  904MOL0     C19230  -2.332   5.808   4.484 -0.0642 -0.2289  0.3618
  904MOL0     O19231  -2.447   5.801   4.555 -0.4950 -0.1227 -0.3289
  904MOL0     C19232  -2.553   5.904   4.549  0.0248  0.3105 -0.1830
  904MOL0     C19233  -2.681   5.865   4.620  0.4468  0.1501  0.7527
  904MOL0     C19234  -2.803   5.963   4.609 -0.2450 -0.8365  0.3470
  904MOL0     C19235  -2.910   5.912   4.708  0.2962 -0.0360 -0.3506
  904MOL0     C19236  -3.041   5.995   4.727  0.4359  0.1009  1.1734
  904MOL0     C19237  -3.118   5.937   4.840  0.0282 -0.2133  0.3925
  904MOL0     C19238  -3.235   6.015   4.898 -0.1285  0.4557 -0.2316
  904MOL0     C19239  -3.299   5.921   4.999  0.3198 -1.7067  0.6978
  904MOL0    Cl19240  -3.386   6.036   5.117 -0.3301  0.0340 -0.0397
  904MOL0     C19241  -2.218   5.750   4.543 -0.3319 -0.1004 -0.8346
  904MOL0     C19242  -2.090   5.759   4.492 -0.3954 -0.1490  1.2910
  904MOL0     O19243  -1.946   6.064   4.240 -0.1324 -0.6766  0.2964
  904MOL0     C19244  -1.687   6.059   4.168  0.7941  0.2180  0.0430
  904MOL0     C19245  -1.556   6.050   4.119  0.2351 -0.1216  0.6585
  904MOL0     N19246  -0.958   6.260   4.210  0.0792  0.1201 -0.7049
  904MOL0     N19247  -0.901   6.373   4.193  0.0480  0.0855  0.6383
  904MOL0     C19248  -0.110   7.164   3.336  0.2631 -0.3129 -0.1553
  904MOL0     C19249   0.002   7.183   3.263 -0.0350  0.7226  0.1332
  904MOL0     C19250   0.306   7.201   2.952 -0.5950  0.4117 -0.1852
  904MOL0     C19251   0.435   7.158   2.985  0.7928 -0.6524 -0.7836
  904MOL0     C19252   0.540   7.172   2.892 -0.1139 -0.4776 -0.4048
  904MOL0     C19253   0.513   7.234   2.772 -0.1699  0.0848 -0.2573
  904MOL0     O19254   0.610   7.257   2.675 -0.5655  0.7376 -0.9880
  904MOL0     C19255   0.746   7.269   2.713 -0.0298  0.0511  0.6476
  904MOL0     C19256   0.832   7.269   2.591  0.2512  0.1090 -0.4396
  904MOL0     C19257   0.986   7.284   2.625  0.5474  0.0465  0.0923
  904MOL0     C19258   1.082   7.287   2.502 -0.6785  0.1790  0.2497
  904MOL0     C19259   1.027   7.365   2.382 -1.1216 -0.9159  0.0581
  904MOL0     C19260   0.993   7.422   2.278  0.1977  0.2558 -0.0697
  904MOL0     C19261   0.382   7.269   2.735 -0.3045 -0.0911  0.3303
  904MOL0     C19262   0.285   7.256   2.824 -0.5201 -0.4997 -0.2934
  904MOL0     H19263   0.166   6.886   3.299  1.9350  2.2548 -2.3259
  904MOL0     H19264  -0.033   6.860   3.467  1.6891 -0.4266  0.5634
  904MOL0     H19265  -0.194   6.870   3.605  0.0351 -1.8688 -0.5549
  904MOL0     H19266  -0.275   6.831   3.446  2.4940  1.0260 -1.5268
  904MOL0     H19267  -0.482   6.958   3.544 -0.2577  2.8949  1.3055
  904MOL0     H19268  -0.387   6.971   3.696  1.1209  2.1483 -1.1656
  904MOL0     H19269  -0.378   6.698   3.686 -0.4724  1.6195  2.5039
  904MOL0     H19270  -0.496   6.715   3.567  0.7026  0.4767  0.3674
  904MOL0     H19271  -0.532   6.854   3.825 -1.6485  0.6675  0.1415
  904MOL0     H19272  -0.654   6.822   3.697 -0.1078  0.2600 -0.1049
  904MOL0     H19273  -0.524   6.610   3.861  1.4360  1.3780 -1.3636
  904MOL0     H19274  -0.639   6.596   3.728  1.5712 -1.4053 -0.7748
  904MOL0     H19275  -0.805   6.736   3.857  0.3171  0.3788 -1.9644
  904MOL0     H19276  -0.706   6.738   4.009 -2.0236 -3.7232  2.2486
  904MOL0     H19277  -0.902   6.589   4.008 -1.0587 -0.0913 -1.4931
  904MOL0     H19278  -0.828   6.498   3.875  0.3051 -0.2249  1.9369
  904MOL0     H19279  -0.678   6.538   4.139  1.3501 -1.8953  1.0329
  904MOL0     H19280  -0.628   6.426   4.001 -0.8504 -2.3658  0.4811
  904MOL0     H19281  -0.707   6.172   4.016  0.5516 -0.9521  2.9290
  904MOL0     H19282  -0.845   5.963   4.202 -1.0173 -0.5357  1.4435
  904MOL0     H19283  -0.879   5.979   4.034  1.9197 -1.1755  0.8959
  904MOL0     H19284  -1.106   6.046   4.231 -2.0847 -1.2196  0.1211
  904MOL0     H19285  -1.073   5.878   4.200  0.7945 -1.3517 -2.1645
  904MOL0     H19286  -1.093   6.063   3.966  0.7299  1.0534  2.4610
  904MOL0     H19287  -1.121   5.881   3.978 -3.2588 -0.3500 -0.9033
  904MOL0     H19288  -1.330   5.990   3.936  0.9040 -3.3316 -0.1548
  904MOL0     H19289  -1.291   6.112   4.075 -1.0841  0.4191  0.1879
  904MOL0     H19290  -1.455   5.774   4.292  1.0465 -1.5746 -3.1042
  904MOL0     H19291  -1.696   5.773   4.351  0.0071  1.5559  0.9257
  904MOL0     H19292  -2.168   5.934   4.215  3.1604 -1.3754 -0.1420
  904MOL0     H19293  -2.397   5.915   4.305 -1.9841 -1.3781  1.5577
  904MOL0     H19294  -2.559   5.938   4.445  2.3917  0.0470 -0.4779
  904MOL0     H19295  -2.513   5.991   4.601  1.8579 -1.9209  2.4829
  904MOL0     H19296  -2.654   5.854   4.726  0.6935 -3.0916  0.4574
  904MOL0     H19297  -2.698   5.763   4.584 -0.0175  0.4064  0.2268
  904MOL0     H19298  -2.846   5.964   4.509 -1.1087  0.5684  0.7013
  904MOL0     H19299  -2.772   6.067   4.623  1.3910 -0.2936 -5.0793
  904MOL0     H19300  -2.936   5.811   4.672  1.4621  0.0865 -1.6353
  904MOL0     H19301  -2.868   5.905   4.808 -0.8833 -0.4479  0.1237
  904MOL0     H19302  -3.110   6.000   4.643 -1.6695  1.6789  2.9047
  904MOL0     H19303  -3.020   6.100   4.749  2.1564  0.0611 -0.0202
  904MOL0     H19304  -3.050   5.941   4.925 -0.1928  0.3793  0.5479
  904MOL0     H19305  -3.140   5.831   4.827 -2.6489  0.1688  1.2424
  904MOL0     H19306  -3.206   6.114   4.935  0.9221 -0.3469  1.1995
  904MOL0     H19307  -3.317   6.036   4.828 -0.2557  1.4536  0.2034
  904MOL0     H19308  -3.219   5.872   5.055  1.4467 -0.1723  0.5000
  904MOL0     H19309  -3.364   5.844   4.957 -0.1556 -1.8180  1.6084
  904MOL0     H19310  -2.231   5.696   4.636 -1.8862  1.3682 -0.1473
  904MOL0     H19311  -2.004   5.713   4.538  0.4109 -0.3353 -0.3225
  904MOL0     H19312  -1.753   6.137   4.132  2.9960  1.4370 -1.6265
  904MOL0     H19313  -1.536   6.131   4.049  0.0900  0.0092  0.7672
  904MOL0     H19314  -0.177   7.248   3.350  1.7581  1.3431 -2.2211
  904MOL0     H19315   0.009   7.272   3.201  0.7946  2.6253  2.7829
  904MOL0     H19316   0.454   7.109   3.080 -0.4764 -0.2271 -0.2876
  904MOL0     H19317   0.635   7.126   2.918 -0.1630 -0.3897 -0.0676
  904MOL0     H19318   0.773   7.178   2.767 -0.6732  0.8128  2.3147
  904MOL0     H19319   0.764   7.355   2.778 -0.9703 -0.6594  1.8838
  904MOL0     H19320   0.796   7.187   2.528  1.9216 -0.3989 -0.7587
  904MOL0     H19321   0.796   7.358   2.538 -0.9074 -1.6238 -2.7394
  904MOL0     H19322   1.005   7.204   2.697 -0.3904  1.9455  2.5951
  904MOL0     H19323   1.005   7.378   2.678 -0.4504  0.4623 -0.2761
  904MOL0     H19324   1.173   7.337   2.538  0.2561 -1.8701  0.8846
  904MOL0     H19325   1.109   7.185   2.476  0.6175  0.6939 -0.5662
  904MOL0     H19326   0.949   7.472   2.194 -0.1632  0.2072  0.0877
  904MOL0     H19327   0.370   7.334   2.649  1.8414 -3.2636 -2.6115
  904MOL0     H19328   0.183   7.281   2.794 -0.5051 -0.9733 -0.7487
  905MOL0     O19329   9.196  11.081   7.395  0.0956  0.5643  0.1277
  905MOL0     C19330   9.155  11.181   7.345  0.0037 -0.1548  0.0531
  905MOL0     O19331   9.207  11.304   7.368  0.3917 -0.2694  0.3719
  905MOL0     C19332   9.307  11.341   7.451 -1.0832  0.1525  0.2528
  905MOL0     C19333   9.333  11.475   7.454  0.3322  0.0803 -0.2095
  905MOL0     C19334   9.431  11.521   7.535  0.5091 -0.3373  0.2292
  905MOL0     C19335   9.511  11.443   7.617  0.3773  1.7123  0.5900
  905MOL0     O19336   9.608  11.497   7.689  0.4661 -0.2515  0.4944
  905MOL0     C19337   9.656  11.436   7.804 -0.2696  0.6558 -0.2745
  905MOL0     C19338   9.715  11.538   7.915  0.3593 -0.5569 -0.2606
  905MOL0     C19339   9.771  11.673   7.857  0.4624  0.0331  0.1188
  905MOL0     C19340   9.899  11.642   7.774 -0.1392 -0.4330  0.9661
  905MOL0     C19341   9.975  11.767   7.735 -0.1493  0.2889 -0.6965
  905MOL0     C19342  10.035  11.848   7.858 -0.3833  0.0713  0.8668
  905MOL0     C19343  10.133  11.949   7.819  0.4731  0.1880  0.0564
  905MOL0     C19344  10.199  12.029   7.937 -1.4963 -0.1260  0.2158
  905MOL0     N19345  10.117  12.135   7.997  0.1556  0.2207  0.1608
  905MOL0     C19346  10.150  12.266   8.008  0.2340  0.4627  0.4450
  905MOL0     C19347  10.045  12.326   8.067  0.1183  0.2557  0.3659
  905MOL0     C19348  10.044  12.475   8.087  0.6529  0.4168 -0.8051
  905MOL0     C19349  10.088  12.540   8.219 -0.3194  0.5133  0.4819
  905MOL0     C19350  10.008  12.491   8.342 -0.4171  0.2349  0.4351
  905MOL0     C19351   9.854  12.480   8.322 -0.2192 -0.0878 -0.6862
  905MOL0     O19352   9.796  12.579   8.236 -0.2968  1.0943  0.1733
  905MOL0     C19353   9.660  12.574   8.233 -1.5019 -0.3007 -0.3467
  905MOL0     C19354   9.605  12.482   8.146 -0.8793  0.7852 -0.3834
  905MOL0     C19355   9.470  12.461   8.150 -0.6917  0.5374 -0.4154
  905MOL0     C19356   9.385  12.536   8.232  0.8283  0.7417  0.3778
  905MOL0     C19357   9.241  12.524   8.218  0.2657  0.5789  0.5248
  905MOL0     O19358   9.164  12.591   8.306  0.0355  0.8581 -0.1057
  905MOL0     C19359   9.032  12.568   8.292  0.4634  0.4220  0.6296
  905MOL0     C19360   8.957  12.654   8.211  0.2426 -0.4406 -0.1986
  905MOL0     C19361   8.814  12.652   8.210 -0.7259 -0.9225  0.4818
  905MOL0     C19362   8.745  12.573   8.302  0.7003 -0.0283 -0.2238
  905MOL0     O19363   8.607  12.583   8.309  0.1678 -0.0783 -0.2851
  905MOL0     C19364   8.530  12.584   8.183 -0.1581 -0.1934  0.0400
  905MOL0     C19365   8.383  12.535   8.205  0.3198  0.0640  0.6716
  905MOL0     C19366   8.393  12.394   8.255  0.0279  0.2530 -0.0699
  905MOL0     C19367   8.255  12.337   8.290  1.1895 -0.3560  0.4990
  905MOL0     C19368   8.251  12.189   8.338  0.3819 -0.2705 -0.4250
  905MOL0     C19369   8.111  12.153   8.384  0.3019  0.7965 -0.3479
  905MOL0     C19370   8.105  12.019   8.468 -0.1087  0.1428 -0.1225
  905MOL0     C19371   8.100  11.899   8.379 -0.2137 -0.7236 -1.1648
  905MOL0    Cl19372   7.945  11.881   8.297 -0.0912 -0.8358 -0.5498
  905MOL0     C19373   8.816  12.478   8.379 -0.2797  0.4262 -0.1748
  905MOL0     C19374   8.958  12.467   8.362  0.1171  0.1947  1.2925
  905MOL0     O19375   9.200  12.443   8.132 -0.2628 -0.2869 -0.4287
  905MOL0     C19376   9.443  12.630   8.317  0.0746  0.5609  0.3460
  905MOL0     C19377   9.582  12.647   8.322  0.6924 -0.0153 -0.0282
  905MOL0     N19378   9.941  12.234   8.086 -0.0569 -0.2841  0.0403
  905MOL0     N19379   9.992  12.118   8.050 -0.2772 -0.2819  0.5914
  905MOL0     C19380   9.491  11.300   7.611 -1.1284 -0.2576  1.0724
  905MOL0     C19381   9.381  11.257   7.536 -0.1173  0.1830  0.0735
  905MOL0     C19382   9.025  11.173   7.272  0.3702 -0.2950  0.2564
  905MOL0     C19383   8.937  11.285   7.262 -0.9025 -0.0156 -0.3058
  905MOL0     C19384   8.826  11.272   7.178 -0.5461  0.7451 -0.0887
  905MOL0     C19385   8.787  11.151   7.125  0.1186 -0.0720  0.0027
  905MOL0     O19386   8.680  11.138   7.034  0.2766  0.1891 -0.7912
  905MOL0     C19387   8.571  11.233   7.046  0.5323  0.2275  0.0215
  905MOL0     C19388   8.472  11.211   6.932 -0.4528  0.2494  0.3004
  905MOL0     C19389   8.418  11.069   6.939 -0.1720 -0.6519  0.0644
  905MOL0     C19390   8.327  11.059   6.825  0.2023 -0.1988 -0.3896
  905MOL0     C19391   8.313  10.918   6.790  0.3078 -0.9068 -0.5808
  905MOL0     C19392   8.292  10.810   6.748 -0.0340  0.0476 -0.3232
  905MOL0     C19393   8.877  11.042   7.134 -0.2871 -0.4323 -0.2457
  905MOL0     C19394   8.988  11.056   7.208  0.1077  0.2053 -0.3778
  905MOL0     H19395   9.257  11.539   7.409 -0.4009 -0.5949  0.0336
  905MOL0     H19396   9.444  11.629   7.535  0.0234 -0.2704 -0.5762
  905MOL0     H19397   9.736  11.365   7.785 -0.2311  0.1647  1.6005
  905MOL0     H19398   9.581  11.377   7.857  0.7066 -2.2406 -1.9171
  905MOL0     H19399   9.795  11.493   7.976  3.5853  2.1684 -2.1750
  905MOL0     H19400   9.625  11.553   7.976 -1.3120 -1.5325 -2.3473
  905MOL0     H19401   9.795  11.737   7.942 -0.7989 -0.4509  0.8630
  905MOL0     H19402   9.707  11.726   7.786 -0.8824 -1.1046  0.4507
  905MOL0     H19403   9.971  11.580   7.827  0.1785 -1.1574 -0.2820
  905MOL0     H19404   9.877  11.585   7.683 -1.7953  1.8726 -0.1800
  905MOL0     H19405   9.912  11.836   7.679 -0.4484  1.0318  0.5142
  905MOL0     H19406  10.060  11.731   7.676 -0.1414 -1.7922  0.4731
  905MOL0     H19407  10.086  11.782   7.929 -1.1410 -2.1533 -0.5442
  905MOL0     H19408   9.954  11.905   7.905 -1.1836 -0.3043 -0.0452
  905MOL0     H19409  10.206  11.892   7.761  2.4457 -0.2344  2.7821
  905MOL0     H19410  10.084  12.027   7.760 -2.3242 -2.3158 -1.1705
  905MOL0     H19411  10.286  12.079   7.893 -2.3502  0.8035 -0.4687
  905MOL0     H19412  10.223  11.961   8.019  2.0633 -2.3330 -2.3466
  905MOL0     H19413  10.244  12.317   7.992  0.9010 -0.5676  1.0282
  905MOL0     H19414   9.940  12.501   8.065  0.6883  0.6106 -0.7454
  905MOL0     H19415  10.109  12.525   8.014 -0.9717  3.6521 -0.2525
  905MOL0     H19416  10.077  12.649   8.220 -0.3431  0.5142  1.6248
  905MOL0     H19417  10.193  12.518   8.236  0.1681  2.0088 -0.3423
  905MOL0     H19418  10.046  12.392   8.367 -0.7882 -0.1585 -0.5199
  905MOL0     H19419  10.021  12.562   8.425  1.5577  0.2207  0.1696
  905MOL0     H19420   9.821  12.499   8.425  1.2112  0.0120 -0.2222
  905MOL0     H19421   9.830  12.379   8.288  1.1433 -0.7261  0.1526
  905MOL0     H19422   9.675  12.418   8.092 -0.4761  0.7046  0.2270
  905MOL0     H19423   9.438  12.379   8.087  1.8865 -2.7006  2.0768
  905MOL0     H19424   9.014  12.716   8.142  0.7687 -1.3194 -0.5619
  905MOL0     H19425   8.767  12.713   8.134  0.5285  1.8207  1.7854
  905MOL0     H19426   8.581  12.516   8.113  1.5215  0.7202  0.3144
  905MOL0     H19427   8.539  12.678   8.128  2.2878  0.5428  1.5570
  905MOL0     H19428   8.336  12.526   8.106  2.4841  2.1559 -0.6534
  905MOL0     H19429   8.328  12.607   8.267  0.3941  1.4664 -0.8180
  905MOL0     H19430   8.454  12.374   8.344 -1.1762 -1.1309  0.4839
  905MOL0     H19431   8.440  12.340   8.173 -1.3916 -2.1601  0.6091
  905MOL0     H19432   8.223  12.400   8.374  1.1667 -2.6046  2.2700
  905MOL0     H19433   8.196  12.352   8.200  1.8537  0.0580  0.1204
  905MOL0     H19434   8.327  12.177   8.415 -0.7719 -0.1639  0.7665
  905MOL0     H19435   8.289  12.129   8.255  1.7191 -1.4618  0.9839
  905MOL0     H19436   8.049  12.138   8.295  0.1692 -2.3706  0.1443
  905MOL0     H19437   8.083  12.238   8.448  0.0155  1.6772 -1.6173
  905MOL0     H19438   8.197  12.008   8.527 -1.9088 -4.2530  2.3193
  905MOL0     H19439   8.021  12.035   8.536 -0.1922 -0.4250 -0.0896
  905MOL0     H19440   8.121  11.813   8.444 -4.2172 -0.1086  1.3026
  905MOL0     H19441   8.186  11.903   8.311  1.7714 -0.1369  1.2432
  905MOL0     H19442   8.770  12.408   8.448  0.3353 -1.2068 -1.3718
  905MOL0     H19443   9.017  12.403   8.427  0.6576 -1.2764 -0.5752
  905MOL0     H19444   9.385  12.674   8.398  0.0195 -0.5866  0.9444
  905MOL0     H19445   9.633  12.708   8.397  1.5445 -2.1457  1.2085
  905MOL0     H19446   9.561  11.230   7.656  1.1519  0.6888 -0.7658
  905MOL0     H19447   9.353  11.153   7.543 -2.5955  0.8075  0.6963
  905MOL0     H19448   8.954  11.380   7.311  0.8175 -0.0997 -0.6773
  905MOL0     H19449   8.780  11.369   7.160 -1.3267  1.1754  3.5018
  905MOL0     H19450   8.618  11.332   7.039 -1.8623  1.5712  1.7359
  905MOL0     H19451   8.521  11.225   7.143 -2.8235 -0.3578 -1.6237
  905MOL0     H19452   8.386  11.278   6.938 -0.5295  0.1090  0.8294
  905MOL0     H19453   8.516  11.232   6.834 -0.6635  1.0450  0.3640
  905MOL0     H19454   8.359  11.050   7.029 -3.3144 -0.6783 -1.8771
  905MOL0     H19455   8.501  10.997   6.938  0.7024  0.3301 -0.2196
  905MOL0     H19456   8.227  11.105   6.831  0.6752  0.7834  0.2585
  905MOL0     H19457   8.367  11.094   6.730 -2.1029 -1.0262 -1.7568
  905MOL0     H19458   8.281  10.710   6.711 -1.0070 -0.0652  0.2403
  905MOL0     H19459   8.860  10.951   7.077  0.7165  0.3147 -1.7913
  905MOL0     H19460   9.051  10.967   7.205 -0.8376 -0.4778 -0.4359
  906MOL0     O19461   9.573   7.199  11.186 -0.0957  0.6645  0.0758
  906MOL0     C19462   9.630   7.101  11.232 -0.4763 -0.0177  0.0337
  906MOL0     O19463   9.572   7.007  11.306  0.2823 -0.4092  0.6162
  906MOL0     C19464   9.436   6.983  11.318 -0.3616  0.2661  0.5311
  906MOL0     C19465   9.396   6.947  11.442 -0.0409  0.4884  0.3822
  906MOL0     C19466   9.264   6.913  11.470  0.4871 -0.0831  0.4192
  906MOL0     C19467   9.159   6.910  11.371 -0.4775 -0.2889 -1.0066
  906MOL0     O19468   9.028   6.884  11.392  0.1264  0.0610  0.1495
  906MOL0     C19469   8.981   6.823  11.520 -0.9618 -0.5220 -0.2149
  906MOL0     C19470   8.829   6.802  11.501 -0.5458 -0.0680 -0.0015
  906MOL0     C19471   8.762   6.710  11.607  0.0103 -0.3634  0.7047
  906MOL0     C19472   8.617   6.702  11.563  0.4223 -0.5008 -0.3847
  906MOL0     C19473   8.517   6.603  11.631 -0.3614  0.6235 -0.1510
  906MOL0     C19474   8.373   6.647  11.616 -0.6898  0.5443 -0.4657
  906MOL0     C19475   8.285   6.558  11.702  0.2620  0.6108 -0.8141
  906MOL0     C19476   8.136   6.567  11.670 -0.0953 -0.3329 -0.0996
  906MOL0     N19477   8.044   6.502  11.768 -0.1795 -0.4189  0.2402
  906MOL0     C19478   8.020   6.540  11.896 -0.2435  0.0606  0.0152
  906MOL0     C19479   7.944   6.440  11.952  0.0044  0.6761 -0.5868
  906MOL0     C19480   7.881   6.450  12.089  0.3910  0.2738 -0.0747
  906MOL0     C19481   7.730   6.419  12.072  0.6058 -0.7221 -0.4129
  906MOL0     C19482   7.647   6.545  12.007 -0.4908 -0.2555 -0.0790
  906MOL0     C19483   7.510   6.500  11.964  0.8311 -0.3036 -0.0151
  906MOL0     O19484   7.515   6.380  11.875  0.5436  0.3084 -0.0740
  906MOL0     C19485   7.472   6.252  11.932 -0.1956 -0.2325  0.0947
  906MOL0     C19486   7.420   6.231  12.066  0.5134  0.7578  0.4733
  906MOL0     C19487   7.397   6.098  12.101 -1.0444 -0.8359 -0.0428
  906MOL0     C19488   7.419   5.990  12.015 -0.2870  0.2897 -0.3147
  906MOL0     C19489   7.385   5.847  12.053  0.2342 -1.2389 -0.4671
  906MOL0     O19490   7.345   5.770  11.951  0.1002  0.3265 -0.0401
  906MOL0     C19491   7.320   5.634  11.959 -0.3060 -0.0990  0.6441
  906MOL0     C19492   7.202   5.583  11.905 -0.8521  0.0664 -0.1501
  906MOL0     C19493   7.187   5.447  11.908 -0.2400 -0.1464  0.2580
  906MOL0     C19494   7.287   5.355  11.945 -0.1202 -0.9357  0.4369
  906MOL0     O19495   7.288   5.222  11.920  0.4432  0.5176 -0.9061
  906MOL0     C19496   7.166   5.144  11.909  0.6502  0.2920  0.3333
  906MOL0     C19497   7.179   4.993  11.868 -0.2121 -0.4204  0.3829
  906MOL0     C19498   7.300   4.923  11.934 -0.1631  0.2732 -0.5168
  906MOL0     C19499   7.318   4.777  11.887  0.3029 -0.6251 -0.3712
  906MOL0     C19500   7.440   4.718  11.959  0.2269  0.2620  0.0695
  906MOL0     C19501   7.582   4.774  11.923 -0.0564 -0.1892  0.7136
  906MOL0     C19502   7.692   4.666  11.949  0.0607 -0.7719  0.0152
  906MOL0     C19503   7.831   4.709  11.916  0.4291 -0.5117  0.8763
  906MOL0    Cl19504   7.832   4.771  11.739 -0.0816  0.0988 -0.3738
  906MOL0     C19505   7.408   5.408  11.986  0.2460 -0.4185  0.2768
  906MOL0     C19506   7.422   5.547  11.998 -0.0154 -0.0562 -0.1990
  906MOL0     O19507   7.395   5.819  12.174 -0.4558  0.6635  1.2811
  906MOL0     C19508   7.449   6.015  11.881  0.5765 -0.1353  1.2252
  906MOL0     C19509   7.477   6.148  11.840 -0.0462  0.5743  0.1727
  906MOL0     N19510   7.921   6.346  11.849  0.0275  0.2475  0.2445
  906MOL0     N19511   7.973   6.385  11.741  0.2103 -0.2909 -0.2059
  906MOL0     C19512   9.205   6.942  11.245  0.5579 -0.3853  0.7056
  906MOL0     C19513   9.338   6.983  11.220 -0.8483  1.0561 -0.7752
  906MOL0     C19514   9.776   7.090  11.211 -0.8257 -0.1536 -0.1894
  906MOL0     C19515   9.851   6.998  11.288  0.2193 -0.4066 -0.3831
  906MOL0     C19516   9.993   7.000  11.279  0.8076  0.1479 -0.3012
  906MOL0     C19517  10.068   7.087  11.205 -0.2934 -0.4454 -0.2132
  906MOL0     O19518  10.203   7.087  11.214  0.0983  0.1528 -0.0005
  906MOL0     C19519  10.280   7.156  11.114  0.8596 -0.0692 -0.1470
  906MOL0     C19520  10.420   7.086  11.110 -0.4723  0.8001  0.2088
  906MOL0     C19521  10.528   7.125  10.999  0.1212  0.6113 -0.5307
  906MOL0     C19522  10.451   7.163  10.864  0.2112  0.5814 -0.0723
  906MOL0     C19523  10.538   7.164  10.740 -0.0654  0.1437  1.0627
  906MOL0     C19524  10.613   7.173  10.646 -0.5260 -1.1334 -1.0111
  906MOL0     C19525   9.997   7.188  11.140 -0.1572 -0.2407 -0.1868
  906MOL0     C19526   9.855   7.189  11.138  1.3590  0.6643  1.0658
  906MOL0     H19527   9.471   6.935  11.520  2.3177  1.2639 -1.6296
  906MOL0     H19528   9.240   6.872  11.567  0.4059 -0.5768  0.1943
  906MOL0     H19529   8.992   6.891  11.605  0.3100 -1.8494  0.7382
  906MOL0     H19530   9.040   6.735  11.547 -0.2916  0.2646  0.9619
  906MOL0     H19531   8.808   6.773  11.397 -2.1174  0.6745  0.0864
  906MOL0     H19532   8.789   6.902  11.520  0.8229  0.3614  0.7456
  906MOL0     H19533   8.764   6.736  11.713 -0.0568 -1.2507  0.9320
  906MOL0     H19534   8.802   6.610  11.591 -3.6116 -1.5701 -2.5436
  906MOL0     H19535   8.587   6.805  11.582  0.8584 -0.0191 -2.1898
  906MOL0     H19536   8.605   6.676  11.458 -3.7700 -0.8494 -0.0076
  906MOL0     H19537   8.544   6.599  11.737  0.6621 -0.0381 -0.4186
  906MOL0     H19538   8.544   6.503  11.593  0.5619  0.8861 -0.2104
  906MOL0     H19539   8.347   6.647  11.510  1.5127  1.6678 -1.0748
  906MOL0     H19540   8.376   6.748  11.657 -1.3489  0.6724 -0.7133
  906MOL0     H19541   8.317   6.456  11.682 -1.5360  0.3138 -2.4502
  906MOL0     H19542   8.307   6.575  11.808 -1.2234  2.5916 -0.7579
  906MOL0     H19543   8.126   6.513  11.575 -0.8010 -0.6623  0.1550
  906MOL0     H19544   8.090   6.665  11.659 -1.1000 -0.8168 -0.3475
  906MOL0     H19545   8.057   6.627  11.950 -0.6963 -0.0057  0.4470
  906MOL0     H19546   7.894   6.551  12.128  1.8740 -0.1796  0.6792
  906MOL0     H19547   7.926   6.378  12.158  0.3397  1.0686  0.8048
  906MOL0     H19548   7.693   6.411  12.175  3.1520 -0.0806  0.6331
  906MOL0     H19549   7.720   6.327  12.014  1.4085  0.0025 -1.7622
  906MOL0     H19550   7.664   6.631  12.072  2.1595  0.4420 -1.5681
  906MOL0     H19551   7.701   6.569  11.915 -0.8132  1.2465  0.0969
  906MOL0     H19552   7.452   6.573  11.907 -1.4467 -1.5662  0.5790
  906MOL0     H19553   7.450   6.490  12.055  1.5004 -0.3800  0.4243
  906MOL0     H19554   7.402   6.314  12.134  0.7527  1.4679 -0.3061
  906MOL0     H19555   7.370   6.084  12.205  0.9056  2.5230  1.0551
  906MOL0     H19556   7.122   5.642  11.861 -0.5799  0.1360 -0.5516
  906MOL0     H19557   7.091   5.418  11.867  0.5357  0.2724 -2.0244
  906MOL0     H19558   7.093   5.187  11.840  0.5321  0.0039  0.2745
  906MOL0     H19559   7.117   5.140  12.007  0.0133  0.9359  0.0460
  906MOL0     H19560   7.205   5.004  11.763  0.2335  3.0103  0.7216
  906MOL0     H19561   7.091   4.928  11.879 -0.6682 -0.1556 -1.4707
  906MOL0     H19562   7.286   4.921  12.042  1.0951 -1.0255 -0.3308
  906MOL0     H19563   7.391   4.980  11.912 -1.0133  1.8102 -0.1183
  906MOL0     H19564   7.226   4.723  11.913  0.2306  0.1004  0.9869
  906MOL0     H19565   7.339   4.777  11.780  0.8172  0.4471 -0.2798
  906MOL0     H19566   7.442   4.609  11.946 -0.9263  0.1383  0.8089
  906MOL0     H19567   7.435   4.738  12.066  1.8295 -0.2471  0.2682
  906MOL0     H19568   7.608   4.865  11.977 -1.1959  0.5807  0.0031
  906MOL0     H19569   7.573   4.794  11.816  1.0280  3.4827  1.1787
  906MOL0     H19570   7.693   4.651  12.057 -5.1536  0.2204  0.4663
  906MOL0     H19571   7.665   4.576  11.894  1.2693  0.7720 -3.4322
  906MOL0     H19572   7.901   4.630  11.943  2.1027  0.9312  0.9264
  906MOL0     H19573   7.858   4.792  11.982 -0.3232  0.2639  0.2305
  906MOL0     H19574   7.495   5.344  11.998 -0.0891 -0.8333  0.5423
  906MOL0     H19575   7.517   5.586  12.033 -1.6003  0.7918  3.5939
  906MOL0     H19576   7.453   5.931  11.812  2.0237  0.2151  0.8553
  906MOL0     H19577   7.516   6.175  11.742 -1.3680  3.2904  0.2848
  906MOL0     H19578   9.137   6.933  11.161  0.5471 -3.4662  0.9411
  906MOL0     H19579   9.375   7.019  11.125  2.4534  1.7048  0.6116
  906MOL0     H19580   9.807   6.922  11.353 -0.1147  1.3898  1.6039
  906MOL0     H19581  10.046   6.927  11.340 -2.6202 -1.7085  0.7199
  906MOL0     H19582  10.291   7.259  11.149  0.0403  0.1025 -0.3561
  906MOL0     H19583  10.242   7.150  11.012  0.6154 -0.0120 -0.0603
  906MOL0     H19584  10.464   7.113  11.206  1.2288  2.7545 -1.0240
  906MOL0     H19585  10.414   6.977  11.100  2.0092  0.2569  3.1110
  906MOL0     H19586  10.598   7.047  10.970  0.4560  0.5757  0.3509
  906MOL0     H19587  10.580   7.214  11.037  0.4445 -0.1610  0.8949
  906MOL0     H19588  10.385   7.078  10.844  2.8375 -1.4868 -0.5612
  906MOL0     H19589  10.391   7.253  10.875  1.6018  1.5446 -0.0475
  906MOL0     H19590  10.690   7.171  10.571  0.2720 -0.8446 -0.2097
  906MOL0     H19591  10.058   7.265  11.095  0.1224 -2.5759 -4.3147
  906MOL0     H19592   9.797   7.260  11.081  2.3570  1.1345  0.6019
  907MOL0     O19593   2.985   4.664   2.593 -0.3335  0.5351 -0.4345
  907MOL0     C19594   2.886   4.597   2.581 -0.1783 -0.3876 -0.0403
  907MOL0     O19595   2.885   4.461   2.603 -0.0898  0.0605 -0.1073
  907MOL0     C19596   3.005   4.400   2.628  0.6779 -0.4889  0.0594
  907MOL0     C19597   3.068   4.325   2.525  0.4508  0.8262  0.3022
  907MOL0     C19598   3.191   4.263   2.558  0.4533  0.3842  0.0155
  907MOL0     C19599   3.250   4.290   2.680 -1.1333 -0.2626  0.3720
  907MOL0     O19600   3.380   4.239   2.692  0.0989  0.0987 -0.1077
  907MOL0     C19601   3.437   4.218   2.825 -0.4771 -0.7680  0.3346
  907MOL0     C19602   3.517   4.341   2.877  0.2246  0.4308  0.3654
  907MOL0     C19603   3.591   4.312   3.009  0.3734 -0.5831  0.3510
  907MOL0     C19604   3.630   4.443   3.070  0.0503 -0.1981  0.3099
  907MOL0     C19605   3.737   4.417   3.188  0.4852 -0.2761 -0.0673
  907MOL0     C19606   3.793   4.553   3.231 -0.4527  0.4303  0.4375
  907MOL0     C19607   3.883   4.526   3.347  0.7133 -0.2184 -0.4039
  907MOL0     C19608   3.913   4.656   3.419 -0.6037 -0.0577 -0.1220
  907MOL0     N19609   4.036   4.649   3.503 -0.7096 -0.1220 -0.1181
  907MOL0     C19610   4.050   4.573   3.616  0.3546 -0.8064 -0.1127
  907MOL0     C19611   4.175   4.609   3.665  0.9289  0.4482 -1.0391
  907MOL0     C19612   4.262   4.575   3.779  0.6223  0.6837  0.0979
  907MOL0     C19613   4.277   4.431   3.817 -0.4141  0.0017  0.1136
  907MOL0     C19614   4.368   4.345   3.720  0.3151 -1.0213 -0.4037
  907MOL0     C19615   4.339   4.200   3.721 -0.2774  0.1836 -0.1734
  907MOL0     O19616   4.414   4.137   3.606  0.1316 -0.9465  0.8797
  907MOL0     C19617   4.341   4.090   3.499  0.2659  0.1089 -1.0407
  907MOL0     C19618   4.210   4.137   3.465  0.7898  0.4385  0.1358
  907MOL0     C19619   4.145   4.097   3.341 -0.4617  0.8193 -0.2177
  907MOL0     C19620   4.214   4.000   3.254  0.9817  1.3748 -0.2202
  907MOL0     C19621   4.153   3.953   3.131  0.3943  0.5544  0.2215
  907MOL0     O19622   4.223   3.871   3.046  0.2944  0.0682 -0.6701
  907MOL0     C19623   4.172   3.830   2.924 -0.3755 -0.2243 -0.4313
  907MOL0     C19624   4.110   3.924   2.839  0.1914 -0.6910  0.9314
  907MOL0     C19625   4.062   3.872   2.712  0.1751 -0.4338 -0.0045
  907MOL0     C19626   4.079   3.746   2.675  0.3547  0.5988  0.7657
  907MOL0     O19627   4.045   3.712   2.547  0.9685 -0.2027 -0.4408
  907MOL0     C19628   3.908   3.703   2.508  0.2709 -0.0245  0.3167
  907MOL0     C19629   3.909   3.657   2.360  0.4125  0.4052  0.2978
  907MOL0     C19630   3.785   3.575   2.324  0.0637 -0.0514  0.5733
  907MOL0     C19631   3.791   3.516   2.173  0.0451 -0.9216 -0.1305
  907MOL0     C19632   3.664   3.439   2.130 -0.2701  0.2445  0.2225
  907MOL0     C19633   3.534   3.525   2.114  0.2881 -0.2241 -0.0919
  907MOL0     C19634   3.554   3.659   2.050 -0.9353 -0.3043  0.6850
  907MOL0     C19635   3.427   3.700   1.970  0.5876 -0.5351 -0.2792
  907MOL0    Cl19636   3.466   3.838   1.872 -0.2840 -0.2505 -0.1114
  907MOL0     C19637   4.148   3.657   2.755  0.1977 -0.3457  0.3628
  907MOL0     C19638   4.200   3.699   2.880  0.6248 -0.2521 -0.2857
  907MOL0     O19639   4.042   3.995   3.106 -0.5735 -0.4450  0.3123
  907MOL0     C19640   4.333   3.950   3.294 -0.5765  0.5014 -0.3848
  907MOL0     C19641   4.398   3.989   3.417 -0.5408 -0.3589  0.6538
  907MOL0     N19642   4.220   4.720   3.596  0.0142  0.2380  0.9329
  907MOL0     N19643   4.145   4.727   3.486  0.2831 -0.3742  0.7851
  907MOL0     C19644   3.179   4.359   2.782 -0.3684  0.8462 -0.3279
  907MOL0     C19645   3.061   4.413   2.751 -0.1745 -0.3357  0.3086
  907MOL0     C19646   2.756   4.670   2.576  1.0152  0.0236  0.0593
  907MOL0     C19647   2.740   4.815   2.576 -0.1804  0.2189 -0.4543
  907MOL0     C19648   2.610   4.869   2.578 -0.6093 -0.1868 -0.1166
  907MOL0     C19649   2.495   4.785   2.577 -0.2731 -0.1392 -0.0185
  907MOL0     O19650   2.367   4.824   2.569  0.0840  0.6531 -0.6702
  907MOL0     C19651   2.328   4.962   2.538 -0.3377 -0.5142 -0.0790
  907MOL0     C19652   2.347   5.054   2.663 -0.0474  0.0405  0.0774
  907MOL0     C19653   2.255   5.175   2.669  0.1913 -0.1678  0.5061
  907MOL0     C19654   2.295   5.273   2.777 -0.0838  0.3087 -0.1067
  907MOL0     C19655   2.400   5.359   2.719 -0.2902  0.3734 -0.9155
  907MOL0     C19656   2.483   5.436   2.679  0.5719 -0.5592 -0.0920
  907MOL0     C19657   2.509   4.649   2.583  0.5117 -0.8632 -0.0505
  907MOL0     C19658   2.638   4.597   2.581  0.8821 -0.3937 -0.0759
  907MOL0     H19659   3.018   4.307   2.431 -1.9498  1.3108  1.3905
  907MOL0     H19660   3.235   4.189   2.493  0.7676 -0.4186  1.1069
  907MOL0     H19661   3.515   4.142   2.816  1.8073  1.0562  2.9227
  907MOL0     H19662   3.361   4.188   2.898 -3.6713 -0.0900 -2.4742
  907MOL0     H19663   3.446   4.423   2.877 -2.0057 -1.3557 -1.3678
  907MOL0     H19664   3.590   4.378   2.804  0.3824  0.7787  0.6950
  907MOL0     H19665   3.683   4.255   3.000  2.0507  1.3651  3.4909
  907MOL0     H19666   3.524   4.261   3.079 -0.6797 -0.6658 -0.6720
  907MOL0     H19667   3.684   4.493   2.990  0.3721  0.5114  0.9531
  907MOL0     H19668   3.542   4.504   3.093 -0.0795 -0.5257  0.7098
  907MOL0     H19669   3.814   4.342   3.166  2.2345  1.5662 -0.5449
  907MOL0     H19670   3.682   4.378   3.274 -0.1523 -2.0751 -1.2347
  907MOL0     H19671   3.723   4.626   3.273  1.0869  1.7852  0.7374
  907MOL0     H19672   3.843   4.613   3.155 -1.1470 -0.8075 -1.0518
  907MOL0     H19673   3.846   4.448   3.413  0.6336 -1.4838 -1.8857
  907MOL0     H19674   3.981   4.498   3.307  0.1520 -1.4008 -1.0098
  907MOL0     H19675   3.821   4.690   3.468 -0.1087  0.6045  0.3721
  907MOL0     H19676   3.932   4.738   3.350 -0.0982  0.6572  0.8443
  907MOL0     H19677   3.978   4.513   3.672 -2.3530  0.8287 -1.5829
  907MOL0     H19678   4.228   4.631   3.867 -1.9923  0.6309 -0.7822
  907MOL0     H19679   4.363   4.612   3.761  1.8090 -3.0695 -2.1821
  907MOL0     H19680   4.179   4.383   3.825 -0.5687 -0.7177 -3.9631
  907MOL0     H19681   4.336   4.434   3.909  0.5667 -0.3883 -0.4798
  907MOL0     H19682   4.341   4.367   3.616 -1.2964 -1.6159 -0.1443
  907MOL0     H19683   4.473   4.362   3.744  0.0473 -1.8200  1.4307
  907MOL0     H19684   4.234   4.173   3.731  0.5048 -3.8577 -1.0513
  907MOL0     H19685   4.390   4.164   3.811  0.0486 -0.5764 -0.6428
  907MOL0     H19686   4.175   4.219   3.527  3.7061  0.8034  1.4357
  907MOL0     H19687   4.042   4.131   3.331 -1.6768 -1.9235  1.5868
  907MOL0     H19688   4.095   4.027   2.870  0.6994 -0.1716 -0.4726
  907MOL0     H19689   4.024   3.938   2.635 -2.2534 -0.9419  0.6666
  907MOL0     H19690   3.851   3.794   2.531 -0.5784 -1.0220  2.3309
  907MOL0     H19691   3.867   3.620   2.565 -0.1344 -0.9453 -1.2674
  907MOL0     H19692   3.990   3.585   2.350 -0.0605 -0.0550 -0.3274
  907MOL0     H19693   3.919   3.747   2.299  2.1935 -0.4226 -0.7122
  907MOL0     H19694   3.699   3.642   2.329 -1.3017 -1.7048  0.2764
  907MOL0     H19695   3.760   3.502   2.401 -3.2924  1.7665  1.3829
  907MOL0     H19696   3.799   3.602   2.105  0.3321 -1.3565 -0.6530
  907MOL0     H19697   3.873   3.443   2.169  0.0929 -0.8265 -1.3177
  907MOL0     H19698   3.647   3.360   2.204 -0.2393  2.3256  2.5944
  907MOL0     H19699   3.690   3.394   2.034 -1.1495  1.7324 -0.7559
  907MOL0     H19700   3.498   3.535   2.217  0.4755 -3.0977  0.3203
  907MOL0     H19701   3.456   3.466   2.064 -0.2665  0.1814  0.2810
  907MOL0     H19702   3.587   3.730   2.127 -3.0283 -0.0503  1.4229
  907MOL0     H19703   3.636   3.650   1.978 -0.3306  0.7615  1.2132
  907MOL0     H19704   3.357   3.730   2.049  2.0601 -0.2991  0.9810
  907MOL0     H19705   3.382   3.614   1.919  0.3264  0.3868 -1.6545
  907MOL0     H19706   4.171   3.558   2.718 -0.6695  0.3045 -2.0789
  907MOL0     H19707   4.256   3.628   2.940  0.7694  1.2900  1.4822
  907MOL0     H19708   4.385   3.874   3.236 -0.0290  1.0578 -0.6226
  907MOL0     H19709   4.500   3.952   3.429  0.6010  1.7581 -1.5734
  907MOL0     H19710   3.215   4.382   2.882 -0.8751  3.0048 -0.5816
  907MOL0     H19711   3.021   4.483   2.823  3.3088  2.8798 -0.5612
  907MOL0     H19712   2.831   4.873   2.590 -0.7515  0.9943  0.0788
  907MOL0     H19713   2.610   4.977   2.577 -2.6091 -0.1548 -1.2526
  907MOL0     H19714   2.223   4.954   2.508 -0.7861 -0.1127  1.2979
  907MOL0     H19715   2.380   5.003   2.452 -1.7997  1.1784 -0.2105
  907MOL0     H19716   2.317   4.988   2.745 -0.8665 -2.5377 -2.1799
  907MOL0     H19717   2.452   5.085   2.664  0.4932 -1.5274 -1.9889
  907MOL0     H19718   2.153   5.149   2.699 -0.9815  2.8306 -0.5448
  907MOL0     H19719   2.243   5.218   2.570 -1.1175  0.5985  0.9745
  907MOL0     H19720   2.211   5.335   2.810  0.4248  1.1986 -0.4364
  907MOL0     H19721   2.335   5.214   2.860 -0.8303 -0.8133 -0.5266
  907MOL0     H19722   2.563   5.501   2.652  0.4148  0.1298  1.0359
  907MOL0     H19723   2.422   4.584   2.590  0.4438 -0.9105 -1.0953
  907MOL0     H19724   2.635   4.489   2.571  1.1210 -0.4614  0.5162
  908MOL0     O19725   7.232   3.867  10.814  0.8577 -0.1765  0.1640
  908MOL0     C19726   7.157   3.804  10.730  0.1474  0.5496 -0.5683
  908MOL0     O19727   7.042   3.729  10.757 -0.4774  0.2481 -0.3111
  908MOL0     C19728   7.000   3.736  10.890 -1.5532  0.0817 -0.6331
  908MOL0     C19729   7.054   3.654  10.989  0.4945  0.0593 -0.1547
  908MOL0     C19730   6.995   3.649  11.116  1.0268 -0.5709  0.0911
  908MOL0     C19731   6.889   3.733  11.139 -0.5640 -1.2681  0.0412
  908MOL0     O19732   6.832   3.751  11.264 -0.0642 -0.0414  0.7986
  908MOL0     C19733   6.870   3.666  11.375  0.3715  1.1016 -0.3390
  908MOL0     C19734   6.790   3.715  11.495  0.0181  0.0544 -0.2215
  908MOL0     C19735   6.835   3.642  11.618 -0.7195  0.2400  0.3961
  908MOL0     C19736   6.744   3.683  11.736  0.4780 -0.5686 -0.4958
  908MOL0     C19737   6.802   3.612  11.859  0.0330  0.3171 -0.3300
  908MOL0     C19738   6.689   3.563  11.951 -0.1213 -0.7338 -0.1993
  908MOL0     C19739   6.754   3.520  12.088  0.7674 -0.2743 -0.0551
  908MOL0     C19740   6.665   3.434  12.173  0.5066  0.4833 -0.7918
  908MOL0     N19741   6.567   3.511  12.246 -0.1523 -0.1397 -0.4205
  908MOL0     C19742   6.431   3.500  12.225  0.3333  0.1092 -0.4385
  908MOL0     C19743   6.373   3.543  12.340 -0.1014  0.0575  0.2768
  908MOL0     C19744   6.222   3.564  12.359  0.2315  0.4427 -0.1971
  908MOL0     C19745   6.156   3.662  12.262 -0.1713 -0.1381  0.5715
  908MOL0     C19746   6.011   3.684  12.276 -0.2575  0.3834  0.4037
  908MOL0     C19747   5.941   3.791  12.184  0.3830 -1.1849 -1.0981
  908MOL0     O19748   5.969   3.752  12.047  1.0788  0.6244  0.2878
  908MOL0     C19749   5.903   3.634  11.997 -0.1069 -0.5523 -0.1856
  908MOL0     C19750   5.799   3.566  12.063 -0.3386 -0.4670 -0.0834
  908MOL0     C19751   5.733   3.465  11.995  0.2571  0.9515  0.5501
  908MOL0     C19752   5.778   3.409  11.870 -0.5295  0.0068 -0.7400
  908MOL0     C19753   5.703   3.293  11.817  0.0421  0.0526  0.3718
  908MOL0     O19754   5.748   3.245  11.699 -0.1951  0.0032  0.3929
  908MOL0     C19755   5.678   3.154  11.632 -0.0145 -0.1936  0.1375
  908MOL0     C19756   5.634   3.025  11.679 -0.6040  0.3855 -0.8591
  908MOL0     C19757   5.547   2.950  11.601  0.6912  0.1282  1.3935
  908MOL0     C19758   5.499   3.000  11.473 -0.2981  0.0003  0.4685
  908MOL0     O19759   5.424   2.938  11.382 -0.6545 -0.3829 -0.2225
  908MOL0     C19760   5.389   2.804  11.421 -0.0805 -0.1040 -0.5072
  908MOL0     C19761   5.284   2.759  11.313 -0.1520 -0.1065 -0.1181
  908MOL0     C19762   5.139   2.818  11.339 -0.3737  0.0705  0.3923
  908MOL0     C19763   5.052   2.813  11.206  0.4623 -0.5185  0.7060
  908MOL0     C19764   4.903   2.819  11.214  1.2195 -0.2879  0.2307
  908MOL0     C19765   4.833   2.705  11.291  0.0964 -0.8893 -0.2933
  908MOL0     C19766   4.686   2.738  11.337 -0.4034  0.5131 -0.0361
  908MOL0     C19767   4.599   2.788  11.220 -0.3236 -0.1650  0.0347
  908MOL0    Cl19768   4.578   2.671  11.090  0.3092  0.2551  0.0104
  908MOL0     C19769   5.539   3.126  11.427 -0.7358  0.5537 -0.1973
  908MOL0     C19770   5.632   3.196  11.505 -0.1451  0.6325  0.2568
  908MOL0     O19771   5.601   3.257  11.877 -0.2996  0.0663  0.0496
  908MOL0     C19772   5.887   3.468  11.812  0.5341  0.0098  0.5466
  908MOL0     C19773   5.949   3.585  11.871 -0.7764  0.0616  0.1772
  908MOL0     N19774   6.467   3.588  12.421  0.5338  0.2160 -0.9699
  908MOL0     N19775   6.582   3.563  12.370  0.4743 -0.0150 -0.1231
  908MOL0     C19776   6.851   3.825  11.048 -0.5276 -0.3130  1.1314
  908MOL0     C19777   6.916   3.833  10.922 -0.6440 -0.5863 -0.3618
  908MOL0     C19778   7.205   3.812  10.585 -0.4908 -0.4699  0.7342
  908MOL0     C19779   7.342   3.840  10.568  0.9296  0.1733 -0.1805
  908MOL0     C19780   7.389   3.862  10.437  0.3901 -0.9325 -0.2540
  908MOL0     C19781   7.308   3.846  10.328  0.1762  0.2728 -0.0480
  908MOL0     O19782   7.362   3.843  10.201  0.3225  0.7418  0.2629
  908MOL0     C19783   7.414   3.710  10.172 -0.3281 -0.0506  1.2881
  908MOL0     C19784   7.564   3.689  10.182 -0.8534 -0.5771  0.1208
  908MOL0     C19785   7.633   3.794  10.089 -0.6649 -0.2720 -0.2937
  908MOL0     C19786   7.783   3.809  10.137  0.1336 -0.1285 -0.1722
  908MOL0     C19787   7.866   3.685  10.134 -0.0563 -0.0223 -0.6667
  908MOL0     C19788   7.919   3.574  10.152 -0.3006 -0.8204  0.1996
  908MOL0     C19789   7.171   3.811  10.346 -0.6297 -0.0679  0.5032
  908MOL0     C19790   7.125   3.791  10.471 -0.5719  0.4286 -1.6828
  908MOL0     H19791   7.133   3.586  10.959 -0.1335  0.1095 -1.9823
  908MOL0     H19792   7.033   3.576  11.187 -0.0538 -1.0605  0.1833
  908MOL0     H19793   6.976   3.683  11.392  0.4549  1.8970 -1.5587
  908MOL0     H19794   6.846   3.560  11.358  2.5056  0.0719  2.2930
  908MOL0     H19795   6.687   3.689  11.469 -0.9043  1.5428  1.6506
  908MOL0     H19796   6.816   3.819  11.516  3.1691 -0.4561 -1.0012
  908MOL0     H19797   6.939   3.667  11.640 -1.1608 -0.1827  3.3653
  908MOL0     H19798   6.834   3.534  11.601  1.6586 -0.1748  2.3595
  908MOL0     H19799   6.748   3.790  11.760 -0.5941 -0.4129 -0.9703
  908MOL0     H19800   6.642   3.652  11.714 -0.2701  1.5724 -0.3137
  908MOL0     H19801   6.882   3.664  11.912  1.6614 -1.5734 -0.8575
  908MOL0     H19802   6.856   3.520  11.839  0.2329  0.6506 -1.3914
  908MOL0     H19803   6.648   3.472  11.905 -0.5710 -3.0909  4.2008
  908MOL0     H19804   6.606   3.634  11.959 -0.0061 -0.3604 -2.0793
  908MOL0     H19805   6.849   3.470  12.069  1.7473  1.2863  0.5491
  908MOL0     H19806   6.771   3.607  12.152 -1.6735 -0.3978  0.8837
  908MOL0     H19807   6.736   3.388  12.243 -0.7692 -0.9436 -0.3680
  908MOL0     H19808   6.619   3.346  12.127  2.3404 -3.1944  3.6210
  908MOL0     H19809   6.388   3.460  12.134  1.6418  1.7541 -1.8509
  908MOL0     H19810   6.209   3.598  12.462 -0.6993 -2.4741  0.7271
  908MOL0     H19811   6.178   3.465  12.350  0.0755  0.6173 -1.6791
  908MOL0     H19812   6.166   3.618  12.162 -0.3208 -1.8756  1.2940
  908MOL0     H19813   6.204   3.761  12.256 -1.1850  0.3231 -0.2611
  908MOL0     H19814   5.968   3.584  12.262  2.3546 -0.9118  1.0064
  908MOL0     H19815   5.980   3.706  12.379 -0.8306 -2.0873  0.8423
  908MOL0     H19816   5.983   3.890  12.201 -1.2635 -0.5130 -0.7802
  908MOL0     H19817   5.835   3.814  12.199  0.9360  0.1438  1.1307
  908MOL0     H19818   5.763   3.609  12.156 -0.3014  2.3906 -1.3034
  908MOL0     H19819   5.642   3.422  12.036  0.6055 -0.5963 -0.2395
  908MOL0     H19820   5.669   2.986  11.774 -0.1513  2.3559 -0.1744
  908MOL0     H19821   5.524   2.855  11.648  0.6222  0.2823  1.6721
  908MOL0     H19822   5.339   2.805  11.519  0.3681 -1.5839 -0.2389
  908MOL0     H19823   5.481   2.746  11.428 -0.4308 -0.5949  0.2553
  908MOL0     H19824   5.268   2.651  11.316  2.1791 -0.5040  3.6643
  908MOL0     H19825   5.334   2.787  11.219  2.2401 -4.4801 -0.3863
  908MOL0     H19826   5.153   2.920  11.374  2.1236 -0.4026  0.9349
  908MOL0     H19827   5.089   2.756  11.414  0.9956 -2.6319 -0.7887
  908MOL0     H19828   5.084   2.900  11.149  1.2836 -1.9829 -1.1502
  908MOL0     H19829   5.091   2.728  11.149 -0.5391  0.0734 -0.9281
  908MOL0     H19830   4.856   2.831  11.116  1.1453 -2.1321  0.0126
  908MOL0     H19831   4.879   2.908  11.274  0.4957  0.4007 -1.0413
  908MOL0     H19832   4.894   2.698  11.381 -0.4442  3.8431  0.6802
  908MOL0     H19833   4.838   2.616  11.227  3.3305 -0.3598 -0.9711
  908MOL0     H19834   4.639   2.661  11.399  0.1952 -0.0529 -0.2777
  908MOL0     H19835   4.697   2.824  11.404 -0.5109 -0.8940  1.8794
  908MOL0     H19836   4.638   2.881  11.177 -2.7763  0.6655 -0.5476
  908MOL0     H19837   4.506   2.823  11.266 -1.7779  1.4410 -3.6612
  908MOL0     H19838   5.508   3.169  11.332  0.5507  4.0648  0.8195
  908MOL0     H19839   5.676   3.286  11.463  0.2052  2.0481  3.3628
  908MOL0     H19840   5.925   3.431  11.717 -0.1675 -1.0586  0.6718
  908MOL0     H19841   6.021   3.640  11.812 -0.4955 -1.6828 -1.1926
  908MOL0     H19842   6.783   3.904  11.079  2.3372  2.5708  0.6561
  908MOL0     H19843   6.886   3.910  10.852 -1.2509 -0.4855 -0.0014
  908MOL0     H19844   7.414   3.847  10.648  2.4377 -0.6512 -1.4151
  908MOL0     H19845   7.492   3.884  10.413  0.8184 -0.3973  1.8362
  908MOL0     H19846   7.384   3.673  10.074  2.4810 -0.7677  0.6156
  908MOL0     H19847   7.363   3.642  10.242 -2.3351 -0.5365 -0.5353
  908MOL0     H19848   7.590   3.697  10.288 -3.4315  1.1838  0.7054
  908MOL0     H19849   7.597   3.594  10.139 -2.9324 -0.9272 -0.8352
  908MOL0     H19850   7.584   3.892  10.092  0.4726  0.2984  2.3604
  908MOL0     H19851   7.637   3.760   9.985 -0.9084  0.4413 -0.5430
  908MOL0     H19852   7.833   3.876  10.066  1.8723 -1.1097  0.0660
  908MOL0     H19853   7.790   3.855  10.236 -2.4637 -0.5875  0.2957
  908MOL0     H19854   7.957   3.475  10.171 -2.6478 -1.9070 -0.3787
  908MOL0     H19855   7.111   3.787  10.259  1.9785  0.1876 -1.4626
  908MOL0     H19856   7.023   3.754  10.478  0.2495 -1.6769  1.4626
  909MOL0     O19857   0.749   1.407   8.202  0.0419  0.4296 -0.1256
  909MOL0     C19858   0.689   1.341   8.120 -0.2437 -0.8329  0.4917
  909MOL0     O19859   0.554   1.328   8.113 -0.7444  0.2059 -0.4055
  909MOL0     C19860   0.482   1.411   8.190  0.1331  0.9103  0.3493
  909MOL0     C19861   0.490   1.438   8.330  0.0870  0.0006  0.7440
  909MOL0     C19862   0.405   1.537   8.387 -0.1628  0.6040 -0.0044
  909MOL0     C19863   0.307   1.602   8.318 -0.7296 -0.2311  0.4756
  909MOL0     O19864   0.227   1.684   8.388 -0.3792 -0.0459 -0.1605
  909MOL0     C19865   0.167   1.798   8.320 -0.2813  0.7036 -0.3776
  909MOL0     C19866   0.013   1.790   8.310 -0.2777  0.0132 -0.4566
  909MOL0     C19867  -0.053   1.770   8.438 -0.0054 -0.7246  0.4900
  909MOL0     C19868  -0.208   1.789   8.432 -1.1930  0.1010  0.3605
  909MOL0     C19869  -0.260   1.796   8.576  0.4249  0.0431 -0.0957
  909MOL0     C19870  -0.409   1.789   8.573  0.6751  0.1226 -0.1525
  909MOL0     C19871  -0.480   1.783   8.704 -0.2438  0.1109 -0.4684
  909MOL0     C19872  -0.456   1.899   8.801 -0.1622  0.2934 -0.7829
  909MOL0     N19873  -0.542   1.892   8.921 -0.2342 -0.1784 -0.6422
  909MOL0     C19874  -0.527   1.820   9.031 -0.7706 -1.1645 -0.4564
  909MOL0     C19875  -0.645   1.843   9.095 -0.3354  0.7832 -0.4586
  909MOL0     C19876  -0.682   1.782   9.233 -0.0109  0.0437  0.6254
  909MOL0     C19877  -0.642   1.635   9.234 -0.5048  0.0292 -0.4365
  909MOL0     C19878  -0.763   1.548   9.185 -0.9189  0.0722 -0.1005
  909MOL0     C19879  -0.797   1.572   9.034  0.0539  0.0533 -0.0529
  909MOL0     O19880  -0.872   1.459   8.976  0.4453 -0.7951 -0.3713
  909MOL0     C19881  -0.985   1.410   9.036  1.3931 -0.4798 -0.3832
  909MOL0     C19882  -1.062   1.466   9.138  0.2369 -0.0601 -0.2453
  909MOL0     C19883  -1.187   1.412   9.176 -0.6092 -0.0385 -0.1016
  909MOL0     C19884  -1.220   1.284   9.127  0.6843  0.6993  0.5393
  909MOL0     C19885  -1.349   1.209   9.168  0.3997  0.3961 -0.1344
  909MOL0     O19886  -1.450   1.274   9.240 -0.0303 -0.0705 -0.0813
  909MOL0     C19887  -1.571   1.216   9.268 -0.0344 -0.1769 -0.4900
  909MOL0     C19888  -1.647   1.133   9.185  0.4428 -0.3663  0.3913
  909MOL0     C19889  -1.765   1.069   9.228 -0.1332  0.2504 -0.1787
  909MOL0     C19890  -1.796   1.071   9.360  0.5275 -0.5442 -0.5060
  909MOL0     O19891  -1.901   1.001   9.409 -0.1341  0.2647 -0.3172
  909MOL0     C19892  -2.017   0.970   9.329  0.0443 -0.0163 -0.1319
  909MOL0     C19893  -2.013   0.817   9.289 -0.0839  1.2463 -0.1828
  909MOL0     C19894  -2.044   0.722   9.410 -0.2812 -0.6864  0.1914
  909MOL0     C19895  -2.007   0.579   9.375  0.0510  0.1293  0.0899
  909MOL0     C19896  -1.859   0.563   9.350  0.5088 -0.2121  0.2863
  909MOL0     C19897  -1.829   0.410   9.351 -0.0974  1.0260 -0.3827
  909MOL0     C19898  -1.711   0.366   9.259  0.4265 -0.0608  0.2523
  909MOL0     C19899  -1.683   0.219   9.276 -0.4106 -0.1383 -0.1694
  909MOL0    Cl19900  -1.590   0.202   9.428 -0.3303 -0.3254 -0.3269
  909MOL0     C19901  -1.723   1.151   9.448 -1.0856 -1.1819  0.1348
  909MOL0     C19902  -1.615   1.223   9.400  0.5989  0.4861 -0.4247
  909MOL0     O19903  -1.358   1.084   9.146  0.7704 -0.3021  0.7935
  909MOL0     C19904  -1.134   1.220   9.035  0.1790 -0.1620 -0.0531
  909MOL0     C19905  -1.018   1.285   8.989 -0.1669 -0.5995  0.3348
  909MOL0     N19906  -0.731   1.912   9.018  0.4769  0.0330 -0.4125
  909MOL0     N19907  -0.665   1.955   8.920  0.6864 -0.3872 -0.2444
  909MOL0     C19908   0.293   1.565   8.191  0.1119  0.4389  0.3927
  909MOL0     C19909   0.373   1.470   8.127 -0.6697  0.5005  0.3152
  909MOL0     C19910   0.766   1.264   8.021 -0.3469 -0.5648  0.0946
  909MOL0     C19911   0.727   1.255   7.886  1.1590 -0.8947  0.0822
  909MOL0     C19912   0.805   1.174   7.796  0.8440  0.0331  0.4219
  909MOL0     C19913   0.912   1.110   7.831  0.3359 -0.3901  0.2692
  909MOL0     O19914   0.992   1.033   7.750 -0.4376 -0.2727  0.1611
  909MOL0     C19915   0.952   0.993   7.619 -0.4845 -0.2815 -0.3692
  909MOL0     C19916   1.047   0.900   7.546 -0.6088  0.1550  0.2828
  909MOL0     C19917   1.197   0.947   7.522  0.5966 -0.5097  0.5115
  909MOL0     C19918   1.303   0.843   7.503 -0.0716 -0.1103  0.1588
  909MOL0     C19919   1.292   0.772   7.380 -0.2345  0.4527  0.4073
  909MOL0     C19920   1.296   0.693   7.280  0.7119  0.3484 -0.5754
  909MOL0     C19921   0.953   1.121   7.963  0.2355 -0.5523 -0.5338
  909MOL0     C19922   0.880   1.195   8.057 -0.1990 -0.7352  0.6508
  909MOL0     H19923   0.563   1.388   8.393 -1.3410 -1.1181  1.5870
  909MOL0     H19924   0.423   1.563   8.491 -1.1853 -0.8890  0.5978
  909MOL0     H19925   0.219   1.805   8.224  1.8413  0.7404  0.7037
  909MOL0     H19926   0.200   1.884   8.380  2.6463  1.1435 -2.4094
  909MOL0     H19927   0.001   1.703   8.244  2.3568 -2.6621  2.2503
  909MOL0     H19928  -0.022   1.884   8.266  0.2760  1.8284  2.6745
  909MOL0     H19929  -0.009   1.846   8.502 -1.5443  0.0585  0.6626
  909MOL0     H19930  -0.022   1.671   8.474  0.6642  0.4817  3.5127
  909MOL0     H19931  -0.227   1.882   8.378  1.1060  2.5391  3.3604
  909MOL0     H19932  -0.245   1.697   8.385  1.9143 -1.1702  0.1759
  909MOL0     H19933  -0.227   1.885   8.632  0.9724 -1.1874  1.6172
  909MOL0     H19934  -0.231   1.708   8.634  0.0831 -0.1693 -0.2455
  909MOL0     H19935  -0.442   1.709   8.506 -1.0689  0.6545  0.0169
  909MOL0     H19936  -0.458   1.868   8.516  1.2486  1.9442  1.7586
  909MOL0     H19937  -0.583   1.781   8.668  0.3524 -0.0418 -2.2609
  909MOL0     H19938  -0.462   1.692   8.762  0.2649  0.3720 -0.2013
  909MOL0     H19939  -0.473   1.995   8.752 -2.0092  0.6225  0.4193
  909MOL0     H19940  -0.350   1.899   8.831  0.6165  2.7808 -3.1577
  909MOL0     H19941  -0.449   1.751   9.063  1.0895  0.5336 -1.0904
  909MOL0     H19942  -0.788   1.796   9.255 -0.0780 -1.2602  1.2031
  909MOL0     H19943  -0.628   1.836   9.311  1.0817 -2.5237  1.7783
  909MOL0     H19944  -0.620   1.600   9.335  0.4660  0.7105 -0.3976
  909MOL0     H19945  -0.549   1.612   9.180 -0.4375  1.1298 -0.8149
  909MOL0     H19946  -0.734   1.443   9.194  0.3873  0.2019 -2.1055
  909MOL0     H19947  -0.843   1.571   9.255 -1.7624  0.9367 -1.3192
  909MOL0     H19948  -0.718   1.604   8.964 -1.2331 -1.0553 -2.1301
  909MOL0     H19949  -0.865   1.657   9.033  2.2348  1.9094 -1.3967
  909MOL0     H19950  -1.033   1.563   9.176  3.7571 -0.7886 -0.7951
  909MOL0     H19951  -1.255   1.457   9.248 -2.6191 -1.1003 -1.2498
  909MOL0     H19952  -1.620   1.124   9.081 -2.7790  0.1354 -0.5996
  909MOL0     H19953  -1.813   1.010   9.150  2.2171  0.9759 -2.3258
  909MOL0     H19954  -2.035   1.030   9.239 -2.5004  2.3346  1.7553
  909MOL0     H19955  -2.104   1.003   9.386 -0.6042 -1.0170 -0.5334
  909MOL0     H19956  -1.917   0.802   9.238  0.7581 -0.7751  1.8323
  909MOL0     H19957  -2.085   0.796   9.209  0.4804  3.2374 -1.2810
  909MOL0     H19958  -2.150   0.721   9.434 -0.8672 -3.1475 -2.0320
  909MOL0     H19959  -1.988   0.751   9.500 -0.5006 -0.4415  0.2487
  909MOL0     H19960  -2.031   0.515   9.460  0.4368 -3.9767 -2.6178
  909MOL0     H19961  -2.061   0.536   9.290 -3.7257  0.8549  1.9307
  909MOL0     H19962  -1.798   0.612   9.427 -0.4153 -0.6497  1.3379
  909MOL0     H19963  -1.830   0.611   9.257 -0.6137 -0.3243 -0.1319
  909MOL0     H19964  -1.923   0.357   9.331  0.3322 -0.2753  0.8626
  909MOL0     H19965  -1.805   0.385   9.455 -2.8272 -1.1147 -0.1778
  909MOL0     H19966  -1.738   0.390   9.156  0.9933  2.1368  0.5634
  909MOL0     H19967  -1.624   0.433   9.266  0.6502  0.0383 -2.4166
  909MOL0     H19968  -1.616   0.169   9.206 -1.5328 -1.8295 -0.0951
  909MOL0     H19969  -1.778   0.164   9.278 -0.6425  0.2611 -0.0543
  909MOL0     H19970  -1.742   1.147   9.555 -2.8449  3.1283  0.1858
  909MOL0     H19971  -1.556   1.287   9.464  1.5628  0.1033 -0.9105
  909MOL0     H19972  -1.158   1.120   9.001  1.8654 -0.7976  0.5171
  909MOL0     H19973  -0.958   1.241   8.910  2.0215  1.3076  0.8395
  909MOL0     H19974   0.210   1.602   8.131  2.3863  0.4765 -3.0045
  909MOL0     H19975   0.353   1.453   8.022  2.4165 -1.6601 -0.0508
  909MOL0     H19976   0.639   1.302   7.844  0.9569 -0.7865  0.6253
  909MOL0     H19977   0.774   1.178   7.692  0.7633  2.8223  0.4857
  909MOL0     H19978   0.948   1.080   7.554 -0.1037 -1.7205 -2.4225
  909MOL0     H19979   0.854   0.945   7.634  0.2406 -2.1432 -1.2887
  909MOL0     H19980   1.049   0.801   7.593 -2.9517  0.2218  0.6613
  909MOL0     H19981   1.008   0.885   7.445  1.9389  0.1139 -0.7414
  909MOL0     H19982   1.227   1.001   7.613  1.2739  1.2777 -0.7238
  909MOL0     H19983   1.204   1.016   7.437 -4.6597  0.0966  0.2307
  909MOL0     H19984   1.400   0.892   7.507 -0.4761  0.6793  0.4381
  909MOL0     H19985   1.302   0.762   7.577  1.3512 -1.8325 -1.5913
  909MOL0     H19986   1.308   0.626   7.197  2.2369 -0.5815  0.3503
  909MOL0     H19987   1.043   1.075   8.003 -0.3721 -1.5949 -0.3302
  909MOL0     H19988   0.907   1.209   8.161 -1.7021 -1.1360  1.1118
  910MOL0     O19989   9.288   6.098   5.830  0.7173  0.1480 -0.0352
  910MOL0     C19990   9.357   6.006   5.793  0.1617  0.3798 -0.7041
  910MOL0     O19991   9.315   5.897   5.731 -0.7244  0.4750 -0.2037
  910MOL0     C19992   9.185   5.860   5.707  0.2775  0.1067  0.4233
  910MOL0     C19993   9.074   5.906   5.779 -0.8062 -0.2250 -0.4166
  910MOL0     C19994   8.941   5.863   5.755 -0.8502 -0.0235 -1.0384
  910MOL0     C19995   8.920   5.766   5.656 -0.1169  0.3962  0.6936
  910MOL0     O19996   8.802   5.713   5.619 -0.0058 -0.7235 -0.6143
  910MOL0     C19997   8.679   5.775   5.667  0.6633 -0.5775  0.1772
  910MOL0     C19998   8.555   5.737   5.575  0.1785 -0.3064 -0.1976
  910MOL0     C19999   8.512   5.597   5.592 -0.4988 -0.0372 -0.4923
  910MOL0     C20000   8.399   5.574   5.502  0.3725 -0.2304  0.2375
  910MOL0     C20001   8.350   5.427   5.514 -0.3247  0.1126 -0.8030
  910MOL0     C20002   8.221   5.386   5.444  0.0264 -0.2482  0.3002
  910MOL0     C20003   8.127   5.308   5.533  0.4466 -0.5981  0.0730
  910MOL0     C20004   8.007   5.266   5.454 -0.2705 -0.4204  0.4452
  910MOL0     N20005   7.898   5.210   5.532  0.1158 -0.4517 -0.2446
  910MOL0     C20006   7.900   5.094   5.620  0.4669 -0.0841 -0.1569
  910MOL0     C20007   7.774   5.092   5.673 -0.6717  0.0802  0.3078
  910MOL0     C20008   7.727   4.992   5.772  0.4631  0.3401  0.4961
  910MOL0     C20009   7.574   4.968   5.770  0.3978  0.1614 -0.2703
  910MOL0     C20010   7.531   4.901   5.898  0.8032  0.3839 -0.3170
  910MOL0     C20011   7.394   4.838   5.891  0.2440  0.0971  0.1989
  910MOL0     O20012   7.380   4.761   6.017 -0.6671 -0.1765 -0.3419
  910MOL0     C20013   7.261   4.687   6.032 -0.0657  0.1903 -0.1933
  910MOL0     C20014   7.259   4.617   6.148  0.5440 -0.1314 -0.2045
  910MOL0     C20015   7.146   4.532   6.163  0.3964  0.0393 -0.0025
  910MOL0     C20016   7.030   4.519   6.072 -0.4486 -0.4903 -0.5857
  910MOL0     C20017   6.913   4.434   6.097 -1.1004 -0.8790 -0.6464
  910MOL0     O20018   6.907   4.387   6.222 -0.7228  0.3110 -0.4416
  910MOL0     C20019   6.810   4.303   6.255  0.3033  0.6876  0.2604
  910MOL0     C20020   6.772   4.186   6.196  0.7960  0.2946 -0.9961
  910MOL0     C20021   6.670   4.099   6.248 -0.5532  0.6916  0.0022
  910MOL0     C20022   6.621   4.124   6.374 -0.2502 -0.3993 -0.0601
  910MOL0     O20023   6.515   4.064   6.439  0.1488 -0.0272  0.5090
  910MOL0     C20024   6.497   3.926   6.391 -0.0240 -0.0505  1.0049
  910MOL0     C20025   6.389   3.857   6.476 -0.3059  0.6667  0.4778
  910MOL0     C20026   6.461   3.783   6.593  0.5128  0.1147  1.0508
  910MOL0     C20027   6.356   3.722   6.694  0.1357 -0.0836  0.7280
  910MOL0     C20028   6.418   3.648   6.817 -0.3031 -0.5121  0.3226
  910MOL0     C20029   6.497   3.516   6.786 -0.1611 -0.4673 -0.1941
  910MOL0     C20030   6.571   3.471   6.913 -0.3799  0.4840  0.3823
  910MOL0     C20031   6.657   3.344   6.916 -0.3781 -0.5314  0.3579
  910MOL0    Cl20032   6.541   3.215   6.946  0.2237  0.0534 -0.1041
  910MOL0     C20033   6.684   4.230   6.446  0.5504  0.7222  0.2316
  910MOL0     C20034   6.775   4.318   6.392 -0.8980  0.7379  0.3043
  910MOL0     O20035   6.843   4.411   6.002  0.3457  0.0609  0.2549
  910MOL0     C20036   7.041   4.600   5.957 -0.1229 -0.2678  0.1248
  910MOL0     C20037   7.153   4.682   5.948 -1.2588  0.6604 -0.3698
  910MOL0     N20038   7.704   5.200   5.622 -0.5352 -0.2599  0.3185
  910MOL0     N20039   7.772   5.265   5.535 -0.4036 -0.1573 -0.4171
  910MOL0     C20040   9.038   5.714   5.591 -0.0344 -0.9860 -0.4433
  910MOL0     C20041   9.161   5.763   5.618 -0.9394  0.4536 -0.0378
  910MOL0     C20042   9.506   6.025   5.810 -0.4105 -0.4960  0.0405
  910MOL0     C20043   9.583   5.921   5.858 -0.7778 -0.3798  0.6414
  910MOL0     C20044   9.723   5.940   5.881 -0.3745  0.1427  0.6362
  910MOL0     C20045   9.790   6.054   5.838  0.1241  0.7884 -0.7737
  910MOL0     O20046   9.917   6.070   5.883  0.5122 -0.3614 -0.2185
  910MOL0     C20047   9.906   6.159   6.000 -0.2028 -0.2389  0.4147
  910MOL0     C20048  10.038   6.171   6.075  0.3741 -0.3623 -0.9473
  910MOL0     C20049  10.080   6.037   6.132  0.1251  0.3707  0.1177
  910MOL0     C20050  10.086   6.028   6.287  0.1587  0.6247  0.7435
  910MOL0     C20051   9.961   5.993   6.347 -0.6005 -0.9394  0.1054
  910MOL0     C20052   9.858   5.964   6.407  0.5229 -0.2327  0.3179
  910MOL0     C20053   9.711   6.153   5.775 -0.4077 -0.4618 -0.1111
  910MOL0     C20054   9.570   6.140   5.767  0.2861  0.7652 -0.5845
  910MOL0     H20055   9.098   5.978   5.857  1.7337  2.3173 -3.2719
  910MOL0     H20056   8.860   5.895   5.820  1.5475  1.4690  1.4058
  910MOL0     H20057   8.697   5.883   5.663 -0.9098 -0.3346 -1.9263
  910MOL0     H20058   8.661   5.768   5.774  0.6956 -0.3365  0.1986
  910MOL0     H20059   8.597   5.758   5.476  1.1537  2.1469  0.6365
  910MOL0     H20060   8.471   5.804   5.596  0.8007  0.3268  0.3453
  910MOL0     H20061   8.484   5.585   5.697  3.4609  3.1237  1.1937
  910MOL0     H20062   8.596   5.532   5.566  0.1360  1.1110 -1.4298
  910MOL0     H20063   8.317   5.642   5.526  1.1253 -0.0254  2.3693
  910MOL0     H20064   8.422   5.587   5.395 -0.5789 -1.6048 -0.1712
  910MOL0     H20065   8.333   5.417   5.622 -0.6780  2.3498 -0.6064
  910MOL0     H20066   8.426   5.350   5.495  0.2404  0.4780 -0.0966
  910MOL0     H20067   8.254   5.350   5.346  0.6353 -0.2537  0.5054
  910MOL0     H20068   8.159   5.471   5.413  0.5667  0.6545  1.6152
  910MOL0     H20069   8.180   5.221   5.571  0.0673 -0.3123  1.3031
  910MOL0     H20070   8.103   5.376   5.616  1.7233  1.4395 -1.1490
  910MOL0     H20071   8.048   5.189   5.388  2.1204  0.5412  0.7302
  910MOL0     H20072   7.975   5.352   5.395  2.4091 -0.4879 -1.3184
  910MOL0     H20073   7.978   5.034   5.665 -0.6141 -1.1110  0.3747
  910MOL0     H20074   7.752   5.036   5.869 -0.4259  1.6213  0.1768
  910MOL0     H20075   7.778   4.896   5.759  2.8476  1.3525  1.7014
  910MOL0     H20076   7.558   4.906   5.681 -0.4713  0.0820 -0.0695
  910MOL0     H20077   7.512   5.057   5.756 -1.5192 -1.0830 -0.0852
  910MOL0     H20078   7.603   4.825   5.929 -1.2428 -1.8448 -0.7576
  910MOL0     H20079   7.528   4.984   5.969 -0.4711  1.6085 -1.7177
  910MOL0     H20080   7.402   4.768   5.807  1.0850  0.2840  0.1137
  910MOL0     H20081   7.318   4.916   5.881  1.3568  1.4799  1.9924
  910MOL0     H20082   7.345   4.606   6.214  0.0613  0.7365  0.5994
  910MOL0     H20083   7.136   4.487   6.262 -1.7731  1.8793  0.7033
  910MOL0     H20084   6.810   4.157   6.098 -0.0624 -3.0764 -0.4627
  910MOL0     H20085   6.635   4.017   6.186 -2.5939 -1.2326  3.4339
  910MOL0     H20086   6.583   3.858   6.388 -1.5567 -2.1878  2.4119
  910MOL0     H20087   6.456   3.927   6.289 -0.9909  1.9770  1.3716
  910MOL0     H20088   6.349   3.778   6.411 -0.0993 -1.6130  2.9383
  910MOL0     H20089   6.313   3.928   6.510  0.4673  1.7804 -0.0498
  910MOL0     H20090   6.532   3.845   6.648  3.2402 -1.0926 -0.8693
  910MOL0     H20091   6.533   3.711   6.554  1.6092  1.4978  0.4560
  910MOL0     H20092   6.291   3.806   6.724  0.1504  0.0051  0.5115
  910MOL0     H20093   6.303   3.651   6.630  1.8754  0.5098 -1.5071
  910MOL0     H20094   6.332   3.614   6.876 -0.1687  1.1695  1.5515
  910MOL0     H20095   6.485   3.715   6.871 -2.1627  2.5895 -0.9105
  910MOL0     H20096   6.564   3.527   6.700  0.5459  0.2523  0.4248
  910MOL0     H20097   6.426   3.438   6.756 -0.6153  0.3250 -1.2362
  910MOL0     H20098   6.642   3.549   6.942  0.4757 -0.7081  1.6138
  910MOL0     H20099   6.492   3.466   6.989  0.4645  1.9915  1.4166
  910MOL0     H20100   6.732   3.346   6.996  1.0815 -3.1952 -0.8267
  910MOL0     H20101   6.708   3.332   6.820 -1.3254 -0.0731 -0.2106
  910MOL0     H20102   6.639   4.250   6.543 -0.3851  0.4291 -0.1275
  910MOL0     H20103   6.825   4.399   6.445 -0.2283 -0.2949  1.3245
  910MOL0     H20104   6.964   4.613   5.882 -1.5687  1.0714  1.7488
  910MOL0     H20105   7.159   4.730   5.850  1.2877  0.7098 -0.2384
  910MOL0     H20106   9.024   5.639   5.514 -1.7754 -0.2271 -0.9336
  910MOL0     H20107   9.245   5.710   5.574 -2.3586 -1.6557 -0.3834
  910MOL0     H20108   9.523   5.831   5.863 -1.8154 -0.0078 -2.5053
  910MOL0     H20109   9.785   5.866   5.930 -0.2975  1.3384  2.4878
  910MOL0     H20110   9.831   6.126   6.072 -0.6964  1.8520  0.9224
  910MOL0     H20111   9.870   6.259   5.976 -4.0787 -1.7808 -0.8968
  910MOL0     H20112  10.113   6.218   6.011  0.8328 -0.2348 -0.3293
  910MOL0     H20113  10.022   6.239   6.159 -2.6556 -0.2557 -1.5053
  910MOL0     H20114  10.185   6.026   6.102  1.6361  5.0298  2.6812
  910MOL0     H20115  10.025   5.953   6.089  2.1364 -0.5378 -0.8106
  910MOL0     H20116  10.153   5.949   6.321 -0.9479 -0.8985 -0.4780
  910MOL0     H20117  10.122   6.127   6.318 -0.0792  1.1791 -0.6559
  910MOL0     H20118   9.777   5.916   6.458 -0.0706  0.2775 -0.1264
  910MOL0     H20119   9.752   6.251   5.754  1.5276 -0.9975  0.8567
  910MOL0     H20120   9.515   6.227   5.733 -1.4789 -0.1494 -0.1909
  911MOL0     O20121   3.122   5.721   5.262  0.1301  0.2231  0.7242
  911MOL0     C20122   3.080   5.825   5.293  0.0003 -0.6325  0.9131
  911MOL0     O20123   2.950   5.856   5.311  0.2733 -0.4885 -0.3760
  911MOL0     C20124   2.859   5.757   5.306  0.0313  0.6642  0.4292
  911MOL0     C20125   2.814   5.693   5.421  0.2141  0.1417 -0.1424
  911MOL0     C20126   2.717   5.598   5.417 -0.2345 -0.7371 -0.3247
  911MOL0     C20127   2.650   5.564   5.299 -0.1571  0.0910  0.6388
  911MOL0     O20128   2.549   5.475   5.289 -0.4911  0.1119  0.0885
  911MOL0     C20129   2.539   5.381   5.385 -0.3721  0.5168 -0.8847
  911MOL0     C20130   2.427   5.273   5.360 -0.4639  0.1420  0.1640
  911MOL0     C20131   2.296   5.335   5.401  0.3767  0.1019 -0.1858
  911MOL0     C20132   2.166   5.264   5.352  0.4228  0.3893  0.7060
  911MOL0     C20133   2.043   5.352   5.347 -0.3325  0.2458 -0.7967
  911MOL0     C20134   2.017   5.412   5.480 -0.3122 -0.8744 -0.4279
  911MOL0     C20135   1.878   5.460   5.504 -0.8301 -0.4469 -0.1679
  911MOL0     C20136   1.847   5.495   5.656 -0.3259 -0.0674 -0.2083
  911MOL0     N20137   1.710   5.540   5.665  0.8159  0.1384 -0.6208
  911MOL0     C20138   1.612   5.468   5.728 -0.3152  0.3717  0.0914
  911MOL0     C20139   1.499   5.547   5.734  0.5529  0.3993  0.4909
  911MOL0     C20140   1.367   5.508   5.798  0.9928 -0.1159 -0.0625
  911MOL0     C20141   1.233   5.554   5.732  0.8129 -0.2906  0.4256
  911MOL0     C20142   1.115   5.499   5.813 -0.2527  0.0367 -0.7345
  911MOL0     C20143   0.985   5.557   5.774  0.1287 -0.2314 -0.2405
  911MOL0     O20144   0.970   5.542   5.627 -0.1736  0.8499  1.1277
  911MOL0     C20145   0.855   5.479   5.583 -0.6349 -0.5138  0.8999
  911MOL0     C20146   0.865   5.389   5.473 -0.1806 -0.6046 -0.4933
  911MOL0     C20147   0.749   5.327   5.430  0.2538 -0.3849  1.0508
  911MOL0     C20148   0.618   5.355   5.476  0.0195  0.1727  0.3692
  911MOL0     C20149   0.492   5.301   5.415  0.9165 -0.6522 -0.0315
  911MOL0     O20150   0.378   5.331   5.492  0.9155 -0.1934  0.6569
  911MOL0     C20151   0.247   5.285   5.455 -0.1250 -0.3768 -0.4147
  911MOL0     C20152   0.136   5.343   5.515 -0.2222 -0.2605 -1.2946
  911MOL0     C20153   0.010   5.297   5.507  0.4360  0.0976 -0.1850
  911MOL0     C20154  -0.017   5.181   5.433 -0.0633 -0.0168  0.9157
  911MOL0     O20155  -0.140   5.127   5.430 -0.5370 -0.3933  0.0853
  911MOL0     C20156  -0.247   5.180   5.499 -0.0853 -0.8587 -0.4654
  911MOL0     C20157  -0.375   5.115   5.459 -0.5363 -0.0957 -0.2983
  911MOL0     C20158  -0.488   5.185   5.540 -1.3997  0.3013 -0.3414
  911MOL0     C20159  -0.617   5.105   5.545  0.0172 -0.2604  0.3779
  911MOL0     C20160  -0.722   5.198   5.606  0.4709 -0.1743 -0.1518
  911MOL0     C20161  -0.856   5.122   5.623 -0.9708 -1.5025 -1.1463
  911MOL0     C20162  -0.979   5.215   5.673  0.3256  0.2597 -0.3235
  911MOL0     C20163  -1.115   5.150   5.650 -0.1970  0.4340  0.1147
  911MOL0    Cl20164  -1.105   4.968   5.683 -0.3135 -0.0727  0.3523
  911MOL0     C20165   0.088   5.125   5.361 -0.1631 -0.1984 -0.6823
  911MOL0     C20166   0.219   5.172   5.376  0.0261  0.1511 -0.6569
  911MOL0     O20167   0.493   5.238   5.310 -0.7661  0.2144  0.1989
  911MOL0     C20168   0.611   5.448   5.583  0.4328 -0.1173 -0.7104
  911MOL0     C20169   0.725   5.510   5.635 -0.4711  0.5482  0.2767
  911MOL0     N20170   1.537   5.670   5.689  0.1656 -0.2195  0.9920
  911MOL0     N20171   1.659   5.664   5.646  0.0011 -0.5193  0.1936
  911MOL0     C20172   2.684   5.627   5.185 -0.0934  0.5208  0.0612
  911MOL0     C20173   2.792   5.721   5.188  0.5543  0.1207  0.2078
  911MOL0     C20174   3.178   5.937   5.308 -0.9847 -0.7202 -0.3305
  911MOL0     C20175   3.135   6.073   5.326  0.9994 -0.2854 -0.2639
  911MOL0     C20176   3.223   6.176   5.331 -0.2076  0.0436  0.8466
  911MOL0     C20177   3.360   6.144   5.325  0.7205  0.2154  0.3848
  911MOL0     O20178   3.460   6.240   5.344 -1.0669  0.2194 -0.4898
  911MOL0     C20179   3.446   6.370   5.279 -0.4009 -0.4159 -0.2501
  911MOL0     C20180   3.561   6.462   5.328  0.6156  0.4597  0.7609
  911MOL0     C20181   3.553   6.501   5.478  0.2580  0.3654 -0.1592
  911MOL0     C20182   3.686   6.524   5.546  0.3878  0.5996 -0.2449
  911MOL0     C20183   3.758   6.639   5.492 -0.5607 -0.6524  0.3046
  911MOL0     C20184   3.818   6.741   5.455 -0.1168 -0.3400 -0.2773
  911MOL0     C20185   3.401   6.018   5.299  0.5433 -0.0621  0.9734
  911MOL0     C20186   3.320   5.913   5.287 -0.1999  0.4021 -0.1974
  911MOL0     H20187   2.876   5.704   5.509 -0.1906 -1.2862  0.3453
  911MOL0     H20188   2.693   5.548   5.511  1.2467  1.7884  1.5308
  911MOL0     H20189   2.514   5.436   5.476 -1.7096 -2.1111  0.4444
  911MOL0     H20190   2.633   5.329   5.407  0.2068  1.1167 -1.8661
  911MOL0     H20191   2.448   5.185   5.421  2.0415 -2.1198 -3.5731
  911MOL0     H20192   2.434   5.239   5.257  3.3873 -0.6768  0.5747
  911MOL0     H20193   2.291   5.440   5.369 -0.2144  0.6086  1.4397
  911MOL0     H20194   2.300   5.336   5.510 -0.5397 -2.6773 -0.0500
  911MOL0     H20195   2.192   5.222   5.254 -0.0089  1.4247  0.1266
  911MOL0     H20196   2.149   5.178   5.418  3.3725 -1.0723 -0.2537
  911MOL0     H20197   1.956   5.295   5.313  0.6038 -2.8605  1.6089
  911MOL0     H20198   2.073   5.431   5.277  0.2755  0.0052 -0.8104
  911MOL0     H20199   2.076   5.502   5.498 -0.4713 -0.8513  0.0073
  911MOL0     H20200   2.040   5.334   5.554 -0.7397 -0.0076  0.6493
  911MOL0     H20201   1.859   5.554   5.451 -1.3272  0.8221  2.1346
  911MOL0     H20202   1.811   5.380   5.473 -0.4244 -0.8791  0.0675
  911MOL0     H20203   1.924   5.565   5.690  1.3110 -1.7591 -0.2732
  911MOL0     H20204   1.857   5.398   5.705  0.1917  0.9257  1.7452
  911MOL0     H20205   1.613   5.362   5.753  1.7439  0.4357  0.4635
  911MOL0     H20206   1.371   5.554   5.897  0.1228 -0.9229  0.3653
  911MOL0     H20207   1.365   5.401   5.821 -0.3753  0.3144  2.1177
  911MOL0     H20208   1.223   5.509   5.633 -2.1087  0.2973  0.3709
  911MOL0     H20209   1.221   5.663   5.723 -0.2753 -0.5335 -2.1034
  911MOL0     H20210   1.113   5.391   5.793 -0.5278 -0.1670  0.3734
  911MOL0     H20211   1.131   5.509   5.920  1.5188  0.5839 -1.0072
  911MOL0     H20212   0.990   5.662   5.803  2.7599 -1.2409  3.7528
  911MOL0     H20213   0.902   5.511   5.828 -0.5204 -1.8465 -2.4332
  911MOL0     H20214   0.962   5.371   5.426 -0.1623 -3.3961  0.4088
  911MOL0     H20215   0.756   5.271   5.338  0.5551  1.1594  0.0867
  911MOL0     H20216   0.161   5.436   5.565 -1.7022 -0.9644  0.9354
  911MOL0     H20217  -0.071   5.350   5.556  0.4244 -0.5616  0.5087
  911MOL0     H20218  -0.254   5.286   5.473  1.9613 -0.8997 -1.4203
  911MOL0     H20219  -0.225   5.165   5.605  2.4996 -1.7498 -1.0527
  911MOL0     H20220  -0.387   5.008   5.481 -2.3322  0.3920  1.4041
  911MOL0     H20221  -0.390   5.118   5.351  1.2695  2.4025 -0.5506
  911MOL0     H20222  -0.500   5.288   5.506  1.4187  1.1264  0.8949
  911MOL0     H20223  -0.450   5.190   5.642  1.9335  1.0625 -1.5180
  911MOL0     H20224  -0.651   5.070   5.447 -0.9639 -2.0297  1.3077
  911MOL0     H20225  -0.596   5.024   5.615  0.7024  0.1159  0.6239
  911MOL0     H20226  -0.739   5.281   5.538  1.7632  1.9560  1.9485
  911MOL0     H20227  -0.689   5.255   5.693 -3.5960  1.8582  0.2838
  911MOL0     H20228  -0.828   5.053   5.704 -1.0738 -0.5820 -0.3013
  911MOL0     H20229  -0.881   5.069   5.531 -0.1008 -1.2618 -1.5270
  911MOL0     H20230  -0.961   5.247   5.776 -1.4572  3.9544 -0.9937
  911MOL0     H20231  -0.977   5.314   5.627 -0.0614  0.3855 -0.0673
  911MOL0     H20232  -1.138   5.171   5.545  0.1387 -1.5984 -0.4210
  911MOL0     H20233  -1.190   5.203   5.709  2.8761  3.8227  1.3744
  911MOL0     H20234   0.071   5.040   5.296 -1.0912 -1.2397  0.8809
  911MOL0     H20235   0.305   5.118   5.338  0.1480 -0.8539  0.9362
  911MOL0     H20236   0.511   5.467   5.621  0.9693  1.0188  0.1644
  911MOL0     H20237   0.718   5.577   5.720  0.5957  0.4055  0.4926
  911MOL0     H20238   2.638   5.612   5.087  0.4361  4.1892 -0.8827
  911MOL0     H20239   2.841   5.755   5.097  0.9333  0.2071  0.4388
  911MOL0     H20240   3.028   6.083   5.337  0.8745  0.1106 -1.7718
  911MOL0     H20241   3.178   6.274   5.335  1.8660  1.0998  0.0833
  911MOL0     H20242   3.350   6.420   5.292  0.7021  2.1328 -1.1821
  911MOL0     H20243   3.463   6.346   5.173  1.8159 -0.2358  0.0201
  911MOL0     H20244   3.652   6.403   5.312 -0.3514 -0.5823 -1.4386
  911MOL0     H20245   3.568   6.548   5.260  0.6951  0.9332  1.3585
  911MOL0     H20246   3.515   6.410   5.526  3.9292 -0.3757  1.6854
  911MOL0     H20247   3.495   6.593   5.480 -0.1781  0.1317 -1.1947
  911MOL0     H20248   3.669   6.543   5.652 -0.8358  1.0116 -0.4944
  911MOL0     H20249   3.748   6.435   5.532 -0.9972 -0.6067  0.9408
  911MOL0     H20250   3.860   6.835   5.427  2.7895 -1.5329 -0.1914
  911MOL0     H20251   3.508   6.002   5.286  0.6244  1.7777 -1.2293
  911MOL0     H20252   3.361   5.815   5.265 -2.1979 -0.4551 -0.3112
  912MOL0     O20253   6.230   1.859   5.616  0.3554 -0.7059 -0.0044
  912MOL0     C20254   6.241   1.789   5.716  0.1117  0.1739  0.3808
  912MOL0     O20255   6.144   1.773   5.811  0.6283  0.4672 -0.2851
  912MOL0     C20256   6.037   1.861   5.835 -1.0116 -0.3008 -0.5469
  912MOL0     C20257   6.062   1.991   5.843  0.0798 -0.3399  0.5937
  912MOL0     C20258   5.966   2.085   5.887 -0.5933 -0.5405  0.1868
  912MOL0     C20259   5.834   2.040   5.921  0.5650  0.1735 -0.5177
  912MOL0     O20260   5.751   2.136   5.976  1.0505 -0.5202  0.3127
  912MOL0     C20261   5.620   2.143   5.913 -1.0441 -0.3382  0.0298
  912MOL0     C20262   5.528   2.165   6.039  0.1798 -0.0748 -1.0073
  912MOL0     C20263   5.387   2.213   6.012  0.4350  0.3879  0.4626
  912MOL0     C20264   5.310   2.121   5.918 -0.2633 -0.9531  0.6591
  912MOL0     C20265   5.167   2.177   5.875 -0.8174 -0.0196 -0.0846
  912MOL0     C20266   5.070   2.191   5.998  0.4936 -0.1473  0.4272
  912MOL0     C20267   5.028   2.052   6.043 -0.0036 -1.0498 -0.3320
  912MOL0     C20268   4.929   2.067   6.163  0.4886  0.1453  0.2404
  912MOL0     N20269   4.790   2.083   6.112 -0.2734 -0.2559  0.3712
  912MOL0     C20270   4.741   2.201   6.067  0.2901  0.0222 -0.0101
  912MOL0     C20271   4.607   2.187   6.066 -0.0280  0.6806 -0.0073
  912MOL0     C20272   4.494   2.292   6.048  0.2204  0.0895  0.2980
  912MOL0     C20273   4.471   2.324   5.895  0.0138  0.2452 -0.2750
  912MOL0     C20274   4.382   2.220   5.837  0.4829 -0.3924  0.4866
  912MOL0     C20275   4.240   2.249   5.863 -0.7876  0.3258 -0.4794
  912MOL0     O20276   4.161   2.136   5.832 -0.4565 -0.1243  0.0334
  912MOL0     C20277   4.024   2.142   5.845 -0.4516 -0.5157  0.6735
  912MOL0     C20278   3.946   2.242   5.909  0.5685  0.2206  0.0098
  912MOL0     C20279   3.806   2.225   5.930  0.4681 -0.4219  0.1842
  912MOL0     C20280   3.743   2.106   5.888 -0.1575  0.2254 -0.6614
  912MOL0     C20281   3.602   2.078   5.912 -0.1923  0.3978  0.7339
  912MOL0     O20282   3.516   2.183   5.960 -0.0098  0.4314  0.2073
  912MOL0     C20283   3.388   2.152   6.003  0.3825 -0.4717 -0.4161
  912MOL0     C20284   3.361   2.142   6.143 -0.7951  0.2015  0.6003
  912MOL0     C20285   3.229   2.117   6.181 -0.1391  1.0481 -0.2922
  912MOL0     C20286   3.125   2.096   6.088 -0.7397 -0.2958  0.0639
  912MOL0     O20287   3.005   2.064   6.142 -0.0616 -1.1850  0.1097
  912MOL0     C20288   2.892   2.028   6.058 -0.3655 -1.3787 -0.3187
  912MOL0     C20289   2.778   1.972   6.136 -0.5072  0.1339  0.0832
  912MOL0     C20290   2.661   1.937   6.041 -0.0072  0.1226  0.1857
  912MOL0     C20291   2.546   1.882   6.122 -0.4738 -1.5538  0.4444
  912MOL0     C20292   2.433   1.812   6.044  0.3935  0.3621  0.3570
  912MOL0     C20293   2.320   1.788   6.142  0.4827  0.1770 -0.9230
  912MOL0     C20294   2.188   1.751   6.084  0.5432 -0.3702 -0.0649
  912MOL0     C20295   2.189   1.642   5.970 -0.0292 -0.3727 -0.6368
  912MOL0    Cl20296   2.027   1.607   5.926  0.0727  0.0484  0.1670
  912MOL0     C20297   3.160   2.106   5.945  0.7028  0.8043 -0.3462
  912MOL0     C20298   3.283   2.127   5.906  0.1460  0.3342  0.4007
  912MOL0     O20299   3.568   1.958   5.911  0.2987 -0.5824 -0.0818
  912MOL0     C20300   3.823   2.012   5.819 -0.3524 -0.2929 -0.3303
  912MOL0     C20301   3.961   2.032   5.791  0.4620 -0.5942  0.4366
  912MOL0     N20302   4.579   2.062   6.111  0.6318  0.6372 -0.0518
  912MOL0     N20303   4.692   2.005   6.148 -0.1235 -0.1421 -0.8009
  912MOL0     C20304   5.806   1.901   5.911 -0.8258  0.0592  0.0808
  912MOL0     C20305   5.905   1.812   5.869  0.4565 -0.6699 -0.7438
  912MOL0     C20306   6.372   1.731   5.742 -0.6232 -0.1759  0.0283
  912MOL0     C20307   6.485   1.751   5.653 -0.1729  0.5725 -0.2357
  912MOL0     C20308   6.609   1.697   5.678  0.8882 -0.9236  0.1722
  912MOL0     C20309   6.629   1.623   5.797  0.0174  0.2034 -0.3709
  912MOL0     O20310   6.740   1.556   5.825 -0.0224 -0.3978 -0.7758
  912MOL0     C20311   6.870   1.592   5.767  0.8828  0.3512 -0.0908
  912MOL0     C20312   6.975   1.527   5.855  0.9508 -0.1289  0.0707
  912MOL0     C20313   6.988   1.381   5.825 -0.4705  0.6983 -0.6098
  912MOL0     C20314   7.115   1.327   5.893  0.0212 -0.0945 -0.3143
  912MOL0     C20315   7.135   1.185   5.891  0.2056  0.0232  0.4040
  912MOL0     C20316   7.142   1.062   5.889  0.2839  0.3478 -0.7369
  912MOL0     C20317   6.520   1.589   5.873 -0.5944  0.9181 -0.2355
  912MOL0     C20318   6.397   1.649   5.858  0.3890 -0.2504 -0.1977
  912MOL0     H20319   6.157   2.033   5.813  0.4955 -0.4121  1.7455
  912MOL0     H20320   5.990   2.190   5.903 -0.8358 -0.5633  0.7210
  912MOL0     H20321   5.584   2.058   5.853 -1.3230 -0.2689  0.0960
  912MOL0     H20322   5.605   2.237   5.859 -1.6913 -0.3581  0.1629
  912MOL0     H20323   5.579   2.248   6.088 -1.1387  1.7468 -2.5573
  912MOL0     H20324   5.512   2.086   6.113 -1.1912  0.5861 -0.5658
  912MOL0     H20325   5.388   2.310   5.963  0.0914 -0.2597 -0.8682
  912MOL0     H20326   5.327   2.221   6.103  0.8491  0.3635  0.7432
  912MOL0     H20327   5.359   2.099   5.822  1.4668 -0.0243  1.2828
  912MOL0     H20328   5.289   2.023   5.962 -0.3510 -0.0134  2.8221
  912MOL0     H20329   5.119   2.114   5.800 -0.2266 -1.2621  0.5619
  912MOL0     H20330   5.178   2.273   5.823 -0.6524 -0.5581 -1.0753
  912MOL0     H20331   4.979   2.240   5.962  1.3259 -0.3659 -2.1711
  912MOL0     H20332   5.107   2.240   6.089  0.4320  2.7176 -0.9647
  912MOL0     H20333   4.985   1.998   5.958  1.0864 -3.7216  0.7273
  912MOL0     H20334   5.114   1.992   6.073  1.2995  0.8603 -0.0640
  912MOL0     H20335   4.962   2.150   6.225  1.3494  2.0842 -2.6618
  912MOL0     H20336   4.931   1.970   6.215  2.4515 -0.2750 -0.5490
  912MOL0     H20337   4.801   2.291   6.057 -2.1549  1.7501 -0.0186
  912MOL0     H20338   4.529   2.385   6.093  0.9302  0.1684 -0.3947
  912MOL0     H20339   4.400   2.262   6.093 -1.3106  3.7566 -0.1034
  912MOL0     H20340   4.566   2.316   5.841  0.4747 -2.1567  0.7645
  912MOL0     H20341   4.417   2.419   5.881 -3.2017 -1.7453 -3.0224
  912MOL0     H20342   4.402   2.218   5.730  2.4550  0.3756  0.7944
  912MOL0     H20343   4.416   2.126   5.881 -0.3462 -0.9526 -0.0551
  912MOL0     H20344   4.195   2.325   5.798 -1.0653  1.7530  1.3035
  912MOL0     H20345   4.221   2.277   5.967 -0.1481  0.8571 -0.4995
  912MOL0     H20346   3.983   2.337   5.944 -3.1710  1.0514  2.1636
  912MOL0     H20347   3.754   2.307   5.979  0.8778  1.6159 -2.5461
  912MOL0     H20348   3.441   2.168   6.211 -0.1135 -3.4340  1.3884
  912MOL0     H20349   3.199   2.104   6.284  0.1570 -0.7959 -0.4171
  912MOL0     H20350   2.932   1.960   5.982  0.6015 -1.2570  0.0781
  912MOL0     H20351   2.847   2.106   5.996 -1.0674 -0.2930  1.5006
  912MOL0     H20352   2.743   2.044   6.211  1.9975 -0.4323  1.9420
  912MOL0     H20353   2.806   1.881   6.190 -0.9742 -1.2641 -1.9517
  912MOL0     H20354   2.687   1.851   5.979  0.8708  1.0276 -0.7382
  912MOL0     H20355   2.636   2.018   5.971  2.5408  1.4683  0.7206
  912MOL0     H20356   2.591   1.806   6.188  0.1527 -0.7894  0.9097
  912MOL0     H20357   2.500   1.965   6.175 -0.5891 -0.5333 -1.1977
  912MOL0     H20358   2.473   1.717   6.007 -2.0331  0.0099 -1.6564
  912MOL0     H20359   2.394   1.866   5.957 -0.0274 -1.8089 -0.8951
  912MOL0     H20360   2.308   1.877   6.204  1.4291 -0.6624  0.5284
  912MOL0     H20361   2.338   1.718   6.224  0.6058 -0.4726 -1.5001
  912MOL0     H20362   2.121   1.729   6.168  0.3730  2.6771  0.7058
  912MOL0     H20363   2.142   1.839   6.038 -5.5458 -3.4055 -0.8019
  912MOL0     H20364   2.241   1.553   6.008  1.8470  1.0568  0.3174
  912MOL0     H20365   2.252   1.685   5.891  0.8745 -0.2390  0.1398
  912MOL0     H20366   3.074   2.101   5.879 -0.7239  3.9152  1.0507
  912MOL0     H20367   3.295   2.133   5.798 -0.8943  1.6680  0.3340
  912MOL0     H20368   3.784   1.919   5.779  2.6667 -1.2854 -1.2591
  912MOL0     H20369   4.011   1.960   5.727 -1.2300 -1.5863  0.1713
  912MOL0     H20370   5.702   1.883   5.933 -0.9359  0.7072  0.1053
  912MOL0     H20371   5.875   1.707   5.872 -0.2640 -0.4795  2.1342
  912MOL0     H20372   6.483   1.812   5.563  0.1688  0.8790 -0.0411
  912MOL0     H20373   6.689   1.727   5.611 -1.9675  2.5889 -2.0199
  912MOL0     H20374   6.883   1.701   5.779  1.5702 -0.0007  4.0073
  912MOL0     H20375   6.884   1.558   5.664  0.0175 -0.3358  0.0051
  912MOL0     H20376   7.073   1.575   5.843  1.2003 -0.5784  0.2807
  912MOL0     H20377   6.940   1.541   5.957  0.5433 -1.0073  0.0605
  912MOL0     H20378   6.993   1.363   5.718  1.8806  0.2973 -0.4840
  912MOL0     H20379   6.902   1.318   5.852  1.0740 -0.6779  1.4700
  912MOL0     H20380   7.203   1.367   5.842  1.6151  0.6175  2.7346
  912MOL0     H20381   7.110   1.355   5.999  1.3659  3.0994 -0.9771
  912MOL0     H20382   7.148   0.955   5.899  1.5731  0.3779 -0.9681
  912MOL0     H20383   6.545   1.517   5.951 -1.9261 -1.3487 -1.7919
  912MOL0     H20384   6.316   1.645   5.930  0.3945  1.6783 -0.0412
  913MOL0     O20385   5.242   8.561   1.172  0.4833 -0.0864 -0.1041
  913MOL0     C20386   5.197   8.519   1.281  0.1860  0.2572  1.1184
  913MOL0     O20387   5.061   8.501   1.309 -0.0755 -0.3211 -0.2385
  913MOL0     C20388   4.970   8.538   1.215 -0.2872  0.4649 -0.3524
  913MOL0     C20389   4.963   8.491   1.085 -0.1616  0.1800 -0.5771
  913MOL0     C20390   4.846   8.529   1.011  1.1329 -0.2407 -0.1990
  913MOL0     C20391   4.752   8.616   1.063  0.3081 -0.0767 -0.1023
  913MOL0     O20392   4.645   8.666   0.988  0.4294  0.0874 -0.5395
  913MOL0     C20393   4.582   8.574   0.902 -0.0832  0.5963 -0.3859
  913MOL0     C20394   4.434   8.563   0.946 -0.1720 -0.2690  0.8267
  913MOL0     C20395   4.354   8.480   0.848  0.2140  0.7784  0.2253
  913MOL0     C20396   4.212   8.457   0.902 -0.9921 -0.3773 -0.1888
  913MOL0     C20397   4.132   8.584   0.942  0.0647  0.1113 -0.0909
  913MOL0     C20398   3.986   8.554   0.948  0.2227 -0.3148 -0.7701
  913MOL0     C20399   3.910   8.687   0.960  0.1127 -0.4308  0.9394
  913MOL0     C20400   3.763   8.668   0.918 -0.2699 -0.1166 -0.0306
  913MOL0     N20401   3.683   8.796   0.929 -0.3086  0.0172 -0.1355
  913MOL0     C20402   3.577   8.830   1.012 -0.9007  0.6260  0.6489
  913MOL0     C20403   3.558   8.961   1.007  0.3606  0.6783  0.4142
  913MOL0     C20404   3.455   9.050   1.090 -0.5841 -0.0096 -0.2705
  913MOL0     C20405   3.320   9.062   1.019  0.8835 -0.0954  0.5575
  913MOL0     C20406   3.194   9.112   1.102 -0.1940  0.7976  0.7516
  913MOL0     C20407   3.090   9.200   1.031 -0.1597  0.2389  0.0304
  913MOL0     O20408   3.014   9.107   0.952  0.1987  0.5248 -0.2163
  913MOL0     C20409   2.905   9.042   1.008 -1.0402 -0.8072 -0.5751
  913MOL0     C20410   2.866   9.050   1.144 -0.4422  1.0493 -0.4150
  913MOL0     C20411   2.758   8.979   1.194 -0.8640  0.0903 -0.2266
  913MOL0     C20412   2.681   8.892   1.108  0.0004  0.3912  0.3680
  913MOL0     C20413   2.584   8.806   1.168  0.6001  0.1409 -0.2710
  913MOL0     O20414   2.512   8.864   1.266 -0.8611 -0.3863  0.5157
  913MOL0     C20415   2.441   8.793   1.360 -0.1882  0.8923  0.4448
  913MOL0     C20416   2.458   8.658   1.393  0.2674 -0.3277 -0.0843
  913MOL0     C20417   2.371   8.603   1.488  0.3287 -0.6525 -0.7154
  913MOL0     C20418   2.275   8.690   1.555 -0.6565  1.1155  0.3857
  913MOL0     O20419   2.178   8.656   1.641  0.6822 -0.2161  0.1996
  913MOL0     C20420   2.169   8.514   1.681 -0.0090  0.1456  0.5831
  913MOL0     C20421   2.050   8.484   1.783  0.1344 -0.3107 -0.0650
  913MOL0     C20422   2.019   8.341   1.798  0.1197 -0.2550 -0.2660
  913MOL0     C20423   1.914   8.303   1.902  0.4279 -0.0786  0.3337
  913MOL0     C20424   1.961   8.323   2.049  0.4714 -0.1244  0.0571
  913MOL0     C20425   1.853   8.272   2.152  0.9442 -0.4710 -0.0847
  913MOL0     C20426   1.721   8.354   2.123  0.2198 -0.2627 -0.3970
  913MOL0     C20427   1.631   8.328   2.235 -0.4549  0.3118  0.4714
  913MOL0    Cl20428   1.590   8.151   2.259  0.4033  0.1466 -0.7510
  913MOL0     C20429   2.272   8.827   1.528  0.3741  1.1441 -0.3148
  913MOL0     C20430   2.354   8.870   1.428 -0.1012 -0.1439 -0.4758
  913MOL0     O20431   2.553   8.702   1.116 -0.1682  0.5186 -0.4012
  913MOL0     C20432   2.718   8.883   0.976  0.6139  0.7431 -0.6652
  913MOL0     C20433   2.830   8.957   0.932  0.7522 -0.4562 -0.1398
  913MOL0     N20434   3.646   9.005   0.911  0.2676 -0.6542  1.2423
  913MOL0     N20435   3.713   8.911   0.866  0.1827 -0.6313 -0.5656
  913MOL0     C20436   4.767   8.658   1.196 -0.2026  0.2912  0.5419
  913MOL0     C20437   4.870   8.617   1.272 -0.0287 -0.0863  0.0088
  913MOL0     C20438   5.287   8.457   1.380 -0.9036 -0.0245 -0.4870
  913MOL0     C20439   5.243   8.421   1.512  0.6454 -0.5354 -0.6871
  913MOL0     C20440   5.326   8.355   1.597  0.7724 -0.0322 -0.6017
  913MOL0     C20441   5.459   8.333   1.565 -0.7631  0.4348 -0.5083
  913MOL0     O20442   5.532   8.283   1.672 -0.0037 -0.2967  0.6432
  913MOL0     C20443   5.670   8.271   1.664  0.5569  0.5804 -0.6266
  913MOL0     C20444   5.721   8.160   1.760 -0.2454  0.6671 -0.4253
  913MOL0     C20445   5.711   8.022   1.691  0.1970  0.1547  0.2391
  913MOL0     C20446   5.776   7.906   1.774 -0.3746  0.0553 -0.0977
  913MOL0     C20447   5.773   7.778   1.701  0.4671  0.6211  0.3487
  913MOL0     C20448   5.766   7.672   1.637 -0.3426 -0.0652 -0.1159
  913MOL0     C20449   5.501   8.363   1.433  0.4417 -0.4975 -0.2769
  913MOL0     C20450   5.415   8.416   1.341  0.0498 -0.8392  0.1413
  913MOL0     H20451   5.030   8.414   1.049 -2.3494 -1.8619 -0.5322
  913MOL0     H20452   4.826   8.496   0.910 -1.9191 -1.7154  0.7710
  913MOL0     H20453   4.629   8.476   0.894  1.4874  1.2833  0.0846
  913MOL0     H20454   4.593   8.613   0.801  3.8958 -0.5029 -0.5297
  913MOL0     H20455   4.395   8.664   0.958 -1.8542 -0.5985 -1.1876
  913MOL0     H20456   4.434   8.517   1.045  1.0122  0.0996  1.0057
  913MOL0     H20457   4.410   8.387   0.842 -0.0656  0.3503  2.9109
  913MOL0     H20458   4.334   8.521   0.749 -1.4249 -0.0683  0.1787
  913MOL0     H20459   4.160   8.398   0.826  0.7992  0.1352 -1.8904
  913MOL0     H20460   4.211   8.396   0.993  0.3654  1.0958  0.8786
  913MOL0     H20461   4.154   8.668   0.876  0.3887  1.0574  1.1592
  913MOL0     H20462   4.163   8.614   1.043  0.3397  1.5767 -0.5851
  913MOL0     H20463   3.970   8.502   1.043 -2.1112  2.4723  0.5281
  913MOL0     H20464   3.957   8.500   0.858  1.7583  1.2123 -2.2638
  913MOL0     H20465   3.914   8.721   1.064  0.3202 -0.1343  0.8350
  913MOL0     H20466   3.948   8.754   0.882 -0.9892 -1.0217 -0.1421
  913MOL0     H20467   3.714   8.591   0.977 -2.2052  2.8249  2.5448
  913MOL0     H20468   3.763   8.625   0.817  1.3449 -0.2442 -0.0061
  913MOL0     H20469   3.521   8.768   1.081 -0.7514 -0.9136 -0.5539
  913MOL0     H20470   3.498   9.150   1.105  1.4257 -0.7463 -0.8313
  913MOL0     H20471   3.428   9.010   1.188  0.5485 -0.4939 -0.1484
  913MOL0     H20472   3.301   8.967   0.968  1.1649 -0.2557  0.7440
  913MOL0     H20473   3.325   9.138   0.940  0.2504  1.1946  1.7148
  913MOL0     H20474   3.160   9.022   1.154  1.0692 -0.8596 -1.1435
  913MOL0     H20475   3.232   9.178   1.181 -2.2446  0.3251  2.2292
  913MOL0     H20476   3.146   9.267   0.966  0.2616  2.3572  2.3911
  913MOL0     H20477   3.030   9.262   1.099  0.7975  3.1348 -1.5995
  913MOL0     H20478   2.930   9.105   1.213 -0.1141  0.9579 -0.6464
  913MOL0     H20479   2.744   8.982   1.302  1.0116  3.2869  0.0389
  913MOL0     H20480   2.531   8.591   1.349  0.1550 -1.8895  1.9305
  913MOL0     H20481   2.375   8.504   1.533  1.4041  0.4348  1.7776
  913MOL0     H20482   2.262   8.466   1.713 -0.7176 -2.7918 -1.4500
  913MOL0     H20483   2.138   8.460   1.592 -0.8987 -2.7925  2.5236
  913MOL0     H20484   1.961   8.529   1.738  0.3191 -1.6065 -1.8174
  913MOL0     H20485   2.071   8.540   1.875 -0.9019  0.9943 -0.5898
  913MOL0     H20486   2.113   8.292   1.826  1.7418  2.2528 -0.9290
  913MOL0     H20487   1.998   8.305   1.697  0.9812 -0.7062 -0.2887
  913MOL0     H20488   1.816   8.348   1.885  0.0204 -0.1724  2.2752
  913MOL0     H20489   1.903   8.194   1.894  1.3660 -0.1494 -0.1643
  913MOL0     H20490   1.988   8.428   2.067  0.2231  0.0485 -0.5556
  913MOL0     H20491   2.052   8.265   2.069 -0.9013 -2.7541 -0.8444
  913MOL0     H20492   1.887   8.291   2.254 -1.1182  0.1780  0.5201
  913MOL0     H20493   1.844   8.164   2.137 -1.3415 -0.3694  0.2024
  913MOL0     H20494   1.733   8.460   2.097 -0.9397 -0.0376 -0.0945
  913MOL0     H20495   1.685   8.300   2.035  0.9159  0.9636 -1.4838
  913MOL0     H20496   1.537   8.378   2.211 -1.4289 -1.5097  0.3863
  913MOL0     H20497   1.666   8.365   2.332  0.3447 -0.2383  0.4022
  913MOL0     H20498   2.200   8.885   1.584 -2.0547 -1.4057 -0.6094
  913MOL0     H20499   2.341   8.976   1.408 -0.9751 -0.5534 -2.2954
  913MOL0     H20500   2.681   8.826   0.891  3.0775  0.3593 -1.5607
  913MOL0     H20501   2.849   8.950   0.825  1.4860  1.0816 -0.1376
  913MOL0     H20502   4.693   8.712   1.254 -0.0895 -0.9781  1.9263
  913MOL0     H20503   4.887   8.651   1.374  0.9721  1.3989 -0.6193
  913MOL0     H20504   5.142   8.455   1.531  1.0437  0.1973  0.1895
  913MOL0     H20505   5.293   8.333   1.698  0.4568  1.7640 -0.2778
  913MOL0     H20506   5.719   8.363   1.696 -2.1843  1.2485  2.2237
  913MOL0     H20507   5.704   8.257   1.561 -1.3910 -0.6376 -1.1575
  913MOL0     H20508   5.826   8.175   1.785  0.9685  0.6380 -4.7063
  913MOL0     H20509   5.668   8.163   1.855  0.9975 -0.7892  0.3614
  913MOL0     H20510   5.741   8.029   1.586 -0.7930 -1.0636 -0.1459
  913MOL0     H20511   5.603   8.004   1.688 -0.5248  3.3750  1.9309
  913MOL0     H20512   5.883   7.918   1.793 -0.4660 -2.3189  2.6745
  913MOL0     H20513   5.734   7.891   1.874 -1.4829 -1.4728 -0.7561
  913MOL0     H20514   5.748   7.582   1.582 -1.7505  0.4166 -0.4921
  913MOL0     H20515   5.600   8.351   1.390 -0.0141 -1.7948 -1.0050
  913MOL0     H20516   5.444   8.435   1.238 -1.3389  0.5233 -0.0550
  914MOL0     O20517   9.087   6.519   8.003 -0.0533  0.2131  0.4778
  914MOL0     C20518   9.098   6.628   8.052  0.4456 -0.3520 -0.5635
  914MOL0     O20519   8.991   6.699   8.100  0.4042 -1.2794 -0.2202
  914MOL0     C20520   8.864   6.651   8.094  0.0304  1.4935  0.4090
  914MOL0     C20521   8.811   6.580   7.982  0.8079  0.2496 -0.1878
  914MOL0     C20522   8.675   6.558   7.971  0.6992  0.2705 -0.1857
  914MOL0     C20523   8.597   6.564   8.079 -0.5130 -0.0765  0.1055
  914MOL0     O20524   8.477   6.498   8.069 -0.4803  0.6249 -0.9984
  914MOL0     C20525   8.414   6.454   8.194  0.5607  0.1352  0.5792
  914MOL0     C20526   8.279   6.389   8.144 -0.6568  0.2218  0.4499
  914MOL0     C20527   8.179   6.488   8.087  0.1238  0.2631 -0.1409
  914MOL0     C20528   8.053   6.394   8.055  0.9526 -0.4411  0.2658
  914MOL0     C20529   7.934   6.496   8.050  0.8430 -0.1240  0.6597
  914MOL0     C20530   7.804   6.454   7.982  0.7344  0.5462 -0.2766
  914MOL0     C20531   7.709   6.579   7.991  0.3136  0.2332  0.0850
  914MOL0     C20532   7.591   6.558   7.902  0.1044 -0.7807  0.0180
  914MOL0     N20533   7.483   6.494   7.966  0.2677  0.2675  0.2959
  914MOL0     C20534   7.446   6.363   7.942  0.3875 -0.5053  0.1257
  914MOL0     C20535   7.323   6.364   8.005  0.4724 -0.1622  0.8266
  914MOL0     C20536   7.234   6.241   7.997  0.5954 -0.3716  0.0487
  914MOL0     C20537   7.174   6.222   7.853 -0.1797 -0.1415 -0.2610
  914MOL0     C20538   7.062   6.331   7.843 -0.9475  0.8272  0.8984
  914MOL0     C20539   6.933   6.314   7.924 -0.2418  0.6141  0.3973
  914MOL0     O20540   6.831   6.401   7.870  0.0697 -0.3095 -0.3255
  914MOL0     C20541   6.705   6.391   7.919 -0.3387  0.0909 -0.0729
  914MOL0     C20542   6.606   6.464   7.857  0.8637  0.5493  0.4165
  914MOL0     C20543   6.467   6.447   7.882 -0.3195  0.2610 -0.0375
  914MOL0     C20544   6.436   6.375   7.989  0.1917 -0.4229  0.2103
  914MOL0     C20545   6.291   6.352   8.026 -0.1747  0.8744  0.7412
  914MOL0     O20546   6.189   6.406   7.949 -0.1363 -1.2272  0.0394
  914MOL0     C20547   6.061   6.382   7.987 -0.1208  0.5982 -0.8849
  914MOL0     C20548   6.018   6.391   8.120  0.1250  0.3455  0.1033
  914MOL0     C20549   5.885   6.364   8.151 -0.0225 -0.1422 -0.3725
  914MOL0     C20550   5.791   6.318   8.049  0.0575  0.1362 -0.5888
  914MOL0     O20551   5.661   6.275   8.070 -0.9232  0.3148  0.6407
  914MOL0     C20552   5.623   6.242   8.206  0.0197 -1.3658 -0.4382
  914MOL0     C20553   5.484   6.178   8.197 -0.0425  0.9300 -0.1728
  914MOL0     C20554   5.483   6.056   8.103 -0.0465 -0.4186 -0.4119
  914MOL0     C20555   5.335   6.005   8.109  0.0482  0.3792 -0.5863
  914MOL0     C20556   5.312   5.876   8.022  0.2294 -0.1550 -0.1481
  914MOL0     C20557   5.174   5.853   7.961 -0.0003 -0.2391 -0.9958
  914MOL0     C20558   5.058   5.853   8.057  0.0463  0.0405  0.1917
  914MOL0     C20559   4.924   5.870   7.977 -0.7088  0.0844  0.4164
  914MOL0    Cl20560   4.785   5.879   8.091  0.0165 -0.5189  0.1536
  914MOL0     C20561   5.835   6.319   7.917  0.4701  0.6341 -0.9154
  914MOL0     C20562   5.965   6.362   7.888  0.1182 -0.5224  1.3512
  914MOL0     O20563   6.270   6.264   8.109 -0.0853  0.0634 -0.2202
  914MOL0     C20564   6.528   6.301   8.064 -0.0448 -0.8702 -0.5813
  914MOL0     C20565   6.668   6.319   8.028  0.8877 -0.8508  0.3324
  914MOL0     N20566   7.286   6.486   8.055  0.2588  0.0202  0.0601
  914MOL0     N20567   7.379   6.568   8.022 -0.2420  0.7043 -0.0782
  914MOL0     C20568   8.646   6.626   8.202 -0.1732  0.6439  0.0628
  914MOL0     C20569   8.784   6.662   8.210 -0.7696  0.1161  0.4111
  914MOL0     C20570   9.229   6.686   8.050 -0.3665 -0.3556 -0.2560
  914MOL0     C20571   9.273   6.760   8.165  0.4786  0.6826 -0.5080
  914MOL0     C20572   9.406   6.797   8.179 -0.1413  0.1245 -0.1245
  914MOL0     C20573   9.503   6.777   8.082 -0.2853  0.1540 -0.9865
  914MOL0     O20574   9.628   6.819   8.117 -0.1271 -0.2478  0.2381
  914MOL0     C20575   9.745   6.790   8.025  0.2767 -0.1231  0.5383
  914MOL0     C20576   9.885   6.857   8.070  0.2137 -0.2427 -0.6580
  914MOL0     C20577   9.858   7.012   8.105 -0.2275  0.1218 -0.6827
  914MOL0     C20578   9.996   7.086   8.117  0.3276  1.0714  0.0386
  914MOL0     C20579   9.988   7.207   8.196  1.1101  0.5427  0.1880
  914MOL0     C20580   9.998   7.313   8.252  0.3964 -0.4584 -0.0012
  914MOL0     C20581   9.466   6.711   7.966  0.4630  0.5235  0.2358
  914MOL0     C20582   9.331   6.672   7.952 -0.5860 -0.1345  0.2475
  914MOL0     H20583   8.850   6.577   7.881 -0.5617 -0.9516 -0.7235
  914MOL0     H20584   8.642   6.510   7.879 -1.3147 -0.2951  0.7589
  914MOL0     H20585   8.388   6.546   8.248 -1.5514 -1.0040  1.6216
  914MOL0     H20586   8.455   6.379   8.261 -2.7109 -0.1438  2.5044
  914MOL0     H20587   8.228   6.339   8.227 -2.0042 -0.9476 -1.0202
  914MOL0     H20588   8.306   6.311   8.072  1.6846  0.3415  1.1019
  914MOL0     H20589   8.210   6.541   7.997  2.2440 -3.1291 -1.6381
  914MOL0     H20590   8.154   6.554   8.170 -1.3309  1.1680 -1.2486
  914MOL0     H20591   8.058   6.340   7.960  0.0886  0.4800 -0.3313
  914MOL0     H20592   8.026   6.325   8.136  0.6216  1.3152  1.7288
  914MOL0     H20593   7.966   6.593   8.012  1.3392 -0.3376  0.5282
  914MOL0     H20594   7.900   6.514   8.152 -1.4546  0.4012 -0.1237
  914MOL0     H20595   7.760   6.369   8.035 -0.5303  0.2652 -1.7155
  914MOL0     H20596   7.829   6.423   7.880 -0.7726 -1.8160  0.0008
  914MOL0     H20597   7.682   6.596   8.096  1.6716 -2.9611  1.0943
  914MOL0     H20598   7.759   6.670   7.958  0.9993 -0.2738 -0.2991
  914MOL0     H20599   7.603   6.513   7.803 -3.7795  1.1769 -1.5703
  914MOL0     H20600   7.562   6.661   7.878 -0.3805 -1.3279 -1.9248
  914MOL0     H20601   7.500   6.279   7.900  2.2580  1.1509 -0.9353
  914MOL0     H20602   7.152   6.254   8.069  0.2146  1.3954 -0.6466
  914MOL0     H20603   7.295   6.156   8.030  2.2111  0.8370  0.2834
  914MOL0     H20604   7.136   6.120   7.844  0.3550 -0.4092  0.4243
  914MOL0     H20605   7.260   6.235   7.787 -1.7273  1.3634 -2.0847
  914MOL0     H20606   7.091   6.434   7.866 -1.6613  1.5106 -1.0740
  914MOL0     H20607   7.031   6.342   7.739 -0.6677  0.3402  0.7597
  914MOL0     H20608   6.957   6.339   8.027  0.2771 -0.6603  0.6064
  914MOL0     H20609   6.898   6.210   7.931  0.6430  0.1051 -1.8233
  914MOL0     H20610   6.629   6.523   7.769  2.1103 -3.6185 -2.3532
  914MOL0     H20611   6.393   6.503   7.825 -1.0066 -0.5728  0.0102
  914MOL0     H20612   6.090   6.408   8.200  0.4872 -1.7344  0.2725
  914MOL0     H20613   5.853   6.367   8.255  0.8010  0.8986 -0.1367
  914MOL0     H20614   5.599   6.337   8.255 -3.8862 -1.7313 -1.3501
  914MOL0     H20615   5.692   6.176   8.260 -2.3972 -3.9479 -0.3050
  914MOL0     H20616   5.408   6.248   8.161 -1.5083 -0.7585 -0.5515
  914MOL0     H20617   5.456   6.158   8.301 -1.0352  2.2351 -0.1643
  914MOL0     H20618   5.553   5.976   8.128  0.7422 -0.5625 -2.8250
  914MOL0     H20619   5.517   6.081   8.002  3.8430 -4.7869 -0.5111
  914MOL0     H20620   5.323   5.992   8.216  0.5674  2.0774 -0.2815
  914MOL0     H20621   5.271   6.080   8.062  0.1290  0.6046 -0.3406
  914MOL0     H20622   5.352   5.795   8.083  0.6293  2.7725  3.8344
  914MOL0     H20623   5.372   5.891   7.932  1.2583 -1.2469  0.3274
  914MOL0     H20624   5.171   5.756   7.910  0.3135  0.2505 -1.9579
  914MOL0     H20625   5.147   5.923   7.882  1.0080 -0.3408 -1.4362
  914MOL0     H20626   5.050   5.760   8.116 -2.2952 -0.0469 -0.1922
  914MOL0     H20627   5.068   5.939   8.123 -0.2436  1.4685 -1.5684
  914MOL0     H20628   4.906   5.791   7.904 -1.6750  1.2937 -0.7038
  914MOL0     H20629   4.929   5.963   7.919 -0.5328 -0.0583  0.2022
  914MOL0     H20630   5.763   6.290   7.841 -0.1334  1.5378 -0.7016
  914MOL0     H20631   5.994   6.351   7.784 -1.4882 -0.5281  0.8669
  914MOL0     H20632   6.505   6.243   8.153  0.3230 -0.8939 -0.5002
  914MOL0     H20633   6.735   6.261   8.091 -0.6020 -3.3343 -0.2567
  914MOL0     H20634   8.590   6.628   8.295  0.5216 -0.5019  0.5367
  914MOL0     H20635   8.826   6.717   8.294  2.2651  1.0043 -1.5120
  914MOL0     H20636   9.203   6.775   8.248  0.4938 -3.0771  0.3641
  914MOL0     H20637   9.417   6.857   8.270  0.1131  0.0675 -0.1169
  914MOL0     H20638   9.718   6.832   7.927  0.1865 -1.5341 -0.0630
  914MOL0     H20639   9.761   6.684   8.004 -1.4606 -0.4058  0.4578
  914MOL0     H20640   9.933   6.806   8.154 -0.9115  0.3218  0.3600
  914MOL0     H20641   9.961   6.845   7.993  0.0627  0.1754 -0.8762
  914MOL0     H20642   9.802   7.005   8.199 -0.9386 -0.2936 -1.1261
  914MOL0     H20643   9.793   7.040   8.021 -0.0165 -1.8939 -1.5815
  914MOL0     H20644  10.070   7.014   8.154 -0.2833  0.1641 -0.4459
  914MOL0     H20645  10.032   7.103   8.015 -0.1558  1.3743 -0.0820
  914MOL0     H20646  10.025   7.406   8.297 -2.7271  1.2650 -1.3766
  914MOL0     H20647   9.532   6.688   7.883  2.7895  0.8595  1.8755
  914MOL0     H20648   9.298   6.630   7.857  0.2321  1.1768 -0.6458
  915MOL0     O20649   6.554   9.211   5.902 -0.5422  0.6344 -0.6327
  915MOL0     C20650   6.647   9.230   5.819  0.0218 -0.2202 -0.0391
  915MOL0     O20651   6.621   9.256   5.681  0.0348  0.2301  0.6077
  915MOL0     C20652   6.490   9.234   5.636 -0.4669  0.1831  0.2104
  915MOL0     C20653   6.391   9.332   5.662 -0.8299  0.1215  0.1448
  915MOL0     C20654   6.253   9.315   5.620  0.5888 -0.3595  0.5029
  915MOL0     C20655   6.226   9.185   5.555  0.8558  0.1341 -0.6631
  915MOL0     O20656   6.090   9.155   5.537 -0.1474  0.6721 -0.1537
  915MOL0     C20657   6.033   9.244   5.438 -0.5046  0.0481 -0.0099
  915MOL0     C20658   5.938   9.162   5.352  0.3079  0.5171 -0.6094
  915MOL0     C20659   5.807   9.127   5.420  0.8944  0.0870 -0.0667
  915MOL0     C20660   5.701   9.082   5.316 -0.7450 -0.4678  0.0093
  915MOL0     C20661   5.557   9.079   5.382  0.6512 -0.3094  0.7036
  915MOL0     C20662   5.527   8.939   5.439 -0.3524  0.7276 -0.4158
  915MOL0     C20663   5.389   8.938   5.496  0.7078 -0.0021 -0.5495
  915MOL0     C20664   5.284   8.910   5.384  0.1346  0.2123  0.4357
  915MOL0     N20665   5.150   8.917   5.437  0.1812  0.6291 -0.3138
  915MOL0     C20666   5.111   8.875   5.575 -0.2531  0.9669  0.7372
  915MOL0     C20667   4.977   8.869   5.584 -0.2610  0.2682  0.2713
  915MOL0     C20668   4.887   8.837   5.706 -0.0194  0.6461  0.0267
  915MOL0     C20669   4.735   8.857   5.687 -0.2483  0.5362  0.1638
  915MOL0     C20670   4.658   8.795   5.791  0.2564 -0.0505 -1.0025
  915MOL0     C20671   4.515   8.851   5.803 -0.6693 -0.3595 -1.0217
  915MOL0     O20672   4.438   8.801   5.917 -0.0667  0.3003  0.8011
  915MOL0     C20673   4.312   8.832   5.939  0.7457 -0.7079  0.3010
  915MOL0     C20674   4.252   8.780   6.048 -0.0660  0.2914  0.0558
  915MOL0     C20675   4.127   8.817   6.094 -0.0443 -0.4613  0.4513
  915MOL0     C20676   4.052   8.909   6.014  0.6821  0.4441 -0.0735
  915MOL0     C20677   3.908   8.933   6.031 -0.1061  0.6407  0.4789
  915MOL0     O20678   3.845   9.025   5.945  0.1552  0.7209 -0.0597
  915MOL0     C20679   3.710   9.051   5.980 -0.7526  0.4460  0.0752
  915MOL0     C20680   3.671   9.181   6.006 -1.2215 -0.0816 -0.5124
  915MOL0     C20681   3.542   9.214   6.025  0.1322 -0.0082  0.7243
  915MOL0     C20682   3.444   9.118   6.008  0.5845 -0.6651 -0.2042
  915MOL0     O20683   3.312   9.136   6.027  0.8741  0.6401 -0.5269
  915MOL0     C20684   3.264   9.264   5.981  0.7240 -0.2617  0.0194
  915MOL0     C20685   3.117   9.242   5.982  0.7732  0.4836 -0.1981
  915MOL0     C20686   3.050   9.353   5.912  0.6364  0.5159  0.8442
  915MOL0     C20687   2.896   9.328   5.904 -0.0207 -0.5445  0.8046
  915MOL0     C20688   2.834   9.339   6.044  0.5712 -0.1601  0.7698
  915MOL0     C20689   2.694   9.290   6.038 -0.0927 -0.4039 -0.4563
  915MOL0     C20690   2.620   9.316   6.168 -0.1814  0.4083 -0.2712
  915MOL0     C20691   2.480   9.260   6.179  0.0883 -0.2268  1.1822
  915MOL0    Cl20692   2.387   9.304   6.026 -0.3764  0.0052  0.0032
  915MOL0     C20693   3.476   8.987   5.981  0.5634 -0.9478 -0.0089
  915MOL0     C20694   3.607   8.951   5.971 -0.2812  0.6246 -0.8057
  915MOL0     O20695   3.857   8.880   6.133  0.2823 -0.2862 -0.2245
  915MOL0     C20696   4.123   8.974   5.900  0.6317 -0.0091  0.1114
  915MOL0     C20697   4.245   8.931   5.854 -0.4318 -0.0832  0.2023
  915MOL0     N20698   4.932   8.899   5.457 -0.7370 -0.1532  0.6453
  915MOL0     N20699   5.028   8.932   5.375 -0.9442 -0.7374  0.0848
  915MOL0     C20700   6.319   9.088   5.530  0.0953 -0.3103  0.2402
  915MOL0     C20701   6.453   9.126   5.552 -0.0904  0.3278 -0.5548
  915MOL0     C20702   6.794   9.239   5.871  0.0155 -0.1410 -0.1068
  915MOL0     C20703   6.888   9.290   5.787  0.5581 -0.0491  0.0509
  915MOL0     C20704   7.018   9.307   5.832  0.3711  0.3380  0.3515
  915MOL0     C20705   7.054   9.282   5.967 -0.8962  0.1273  0.3308
  915MOL0     O20706   7.186   9.299   6.003 -0.0172  0.6016  0.5483
  915MOL0     C20707   7.227   9.272   6.136  0.3492 -0.1448 -0.2783
  915MOL0     C20708   7.373   9.292   6.158 -0.7438 -0.0457 -0.4073
  915MOL0     C20709   7.448   9.179   6.091 -0.6861 -0.0998  0.0623
  915MOL0     C20710   7.603   9.178   6.106  0.0612  0.6864 -0.1138
  915MOL0     C20711   7.640   9.170   6.243  0.0492  0.3474  0.5659
  915MOL0     C20712   7.659   9.171   6.363 -0.1974  0.6062  0.1141
  915MOL0     C20713   6.955   9.232   6.055 -0.0377  0.0638 -0.3471
  915MOL0     C20714   6.825   9.204   6.005 -0.8599 -0.1850 -0.2558
  915MOL0     H20715   6.426   9.415   5.722 -2.2087 -0.0383  1.2090
  915MOL0     H20716   6.175   9.390   5.632  0.5490 -0.5195  1.3334
  915MOL0     H20717   6.109   9.294   5.377  0.1187 -0.7544  0.1018
  915MOL0     H20718   5.980   9.328   5.484  1.4359  2.7767 -2.4149
  915MOL0     H20719   5.987   9.069   5.323  0.6638  0.9431 -1.4035
  915MOL0     H20720   5.922   9.227   5.265 -2.1049 -0.5184 -1.0166
  915MOL0     H20721   5.758   9.203   5.481 -3.2236 -0.5167 -2.2028
  915MOL0     H20722   5.831   9.048   5.492  1.8628 -1.3160 -1.8465
  915MOL0     H20723   5.704   9.156   5.236 -0.8146  0.4479  0.8241
  915MOL0     H20724   5.732   8.985   5.275  1.5429  0.7536 -1.3131
  915MOL0     H20725   5.488   9.105   5.301  0.9529 -0.3316  0.4373
  915MOL0     H20726   5.550   9.165   5.448  3.0141  2.7797 -2.6837
  915MOL0     H20727   5.601   8.923   5.518  1.4888  2.8659 -1.5580
  915MOL0     H20728   5.543   8.860   5.365  4.6556 -0.6569  1.7402
  915MOL0     H20729   5.386   8.863   5.577  0.6800  0.0870 -0.4676
  915MOL0     H20730   5.356   9.032   5.540 -0.0369  0.9002 -2.9280
  915MOL0     H20731   5.301   8.825   5.317  1.3842  1.2239 -0.5647
  915MOL0     H20732   5.280   8.999   5.321  0.9038 -0.7202 -0.9735
  915MOL0     H20733   5.183   8.857   5.653 -0.3576 -0.8158  0.4686
  915MOL0     H20734   4.931   8.891   5.790  1.0483 -0.4132  0.1731
  915MOL0     H20735   4.889   8.732   5.737 -0.4804  0.5552 -0.2338
  915MOL0     H20736   4.693   8.820   5.593 -1.2094  2.0211 -0.0227
  915MOL0     H20737   4.713   8.963   5.671 -0.7945  0.4197  0.1202
  915MOL0     H20738   4.663   8.688   5.770 -1.3563 -1.0211  2.7169
  915MOL0     H20739   4.717   8.797   5.883  0.3939  0.3219 -1.0971
  915MOL0     H20740   4.456   8.838   5.711 -2.4655  0.6422 -0.0625
  915MOL0     H20741   4.530   8.955   5.830  1.1894 -1.3814  2.5119
  915MOL0     H20742   4.315   8.705   6.095 -2.4677 -2.1460 -0.3503
  915MOL0     H20743   4.085   8.764   6.179 -3.4176 -0.0865 -0.8510
  915MOL0     H20744   3.746   9.255   6.030 -0.8474 -0.4473 -0.5581
  915MOL0     H20745   3.533   9.318   6.056  3.9677  0.2022  1.5867
  915MOL0     H20746   3.291   9.282   5.876  0.0356  0.7978  0.0078
  915MOL0     H20747   3.303   9.351   6.036 -0.7635  1.0852 -0.9468
  915MOL0     H20748   3.087   9.238   6.087 -0.3358  3.0376 -0.3301
  915MOL0     H20749   3.095   9.142   5.945  2.2332  0.3309 -0.7343
  915MOL0     H20750   3.085   9.348   5.808 -0.1848  1.8062  0.4773
  915MOL0     H20751   3.067   9.448   5.963  0.4394  1.5862 -0.9890
  915MOL0     H20752   2.838   9.398   5.842 -0.7062 -1.0483  0.8592
  915MOL0     H20753   2.885   9.225   5.869  2.8415 -0.2498 -1.3468
  915MOL0     H20754   2.829   9.443   6.074  0.2529  0.3041 -0.7956
  915MOL0     H20755   2.892   9.285   6.120 -0.6237 -0.9476  1.1506
  915MOL0     H20756   2.684   9.185   6.012  2.2872 -0.7672 -0.1100
  915MOL0     H20757   2.651   9.352   5.958  2.0219  3.8825  1.3874
  915MOL0     H20758   2.683   9.275   6.248 -0.3754  0.2841 -0.1804
  915MOL0     H20759   2.619   9.425   6.174  1.6003  0.3995  0.7659
  915MOL0     H20760   2.427   9.310   6.260 -3.4346 -1.8848  0.1318
  915MOL0     H20761   2.476   9.151   6.192  1.7018 -0.6259 -1.0668
  915MOL0     H20762   3.393   8.919   5.969 -0.6769  0.6902 -1.0561
  915MOL0     H20763   3.645   8.850   5.961  2.2511  1.3331  0.7357
  915MOL0     H20764   4.071   9.047   5.840 -0.4855 -0.3196  0.6754
  915MOL0     H20765   4.294   8.995   5.782 -2.2546 -0.1654 -1.1845
  915MOL0     H20766   6.291   8.992   5.488  0.4013 -0.7026  0.9049
  915MOL0     H20767   6.537   9.063   5.525 -0.9158 -0.7276 -0.7245
  915MOL0     H20768   6.859   9.325   5.688  0.9590  0.3067  0.0530
  915MOL0     H20769   7.097   9.355   5.776 -1.4446  4.1530  0.7463
  915MOL0     H20770   7.205   9.171   6.171 -0.3841  0.3893  0.8450
  915MOL0     H20771   7.167   9.331   6.205 -1.3679 -0.1088 -1.7302
  915MOL0     H20772   7.413   9.385   6.116 -0.6946 -0.2160 -0.7381
  915MOL0     H20773   7.391   9.290   6.266 -1.1710 -1.1826 -0.3512
  915MOL0     H20774   7.431   9.184   5.983  2.4425 -0.0664 -0.5433
  915MOL0     H20775   7.422   9.075   6.112  0.6857 -0.9827 -2.2353
  915MOL0     H20776   7.665   9.104   6.054 -0.3037 -1.8436  2.7250
  915MOL0     H20777   7.627   9.276   6.063 -0.0465  0.4539 -0.7142
  915MOL0     H20778   7.672   9.176   6.469 -1.3037  1.9267  0.2129
  915MOL0     H20779   6.986   9.203   6.156 -1.5777 -0.8154 -0.0966
  915MOL0     H20780   6.742   9.175   6.068 -0.8569  0.7102  0.1786
  916MOL0     O20781   3.836   6.782   3.026  0.2197  0.2692  0.8313
  916MOL0     C20782   3.828   6.907   3.025 -0.2138  0.4805  0.3985
  916MOL0     O20783   3.716   6.981   3.001  0.8487 -0.4342 -0.0985
  916MOL0     C20784   3.597   6.911   2.995 -0.2918  0.7750  0.2312
  916MOL0     C20785   3.517   6.892   3.111  0.3408  0.5219 -0.2298
  916MOL0     C20786   3.392   6.828   3.104  0.0549 -0.3665  0.6588
  916MOL0     C20787   3.349   6.769   2.983  0.6921  1.0829 -0.7306
  916MOL0     O20788   3.227   6.705   2.986 -0.3338 -0.3466  0.1277
  916MOL0     C20789   3.124   6.800   2.935  0.0943 -0.2059  0.6280
  916MOL0     C20790   2.983   6.742   2.909 -0.4989  0.4843 -0.1313
  916MOL0     C20791   2.969   6.659   2.779 -0.2910 -0.1765  0.5090
  916MOL0     C20792   2.830   6.605   2.749 -0.3845  0.0476  0.5727
  916MOL0     C20793   2.830   6.470   2.676 -0.1539 -0.5191  0.1732
  916MOL0     C20794   2.911   6.461   2.544 -0.5548 -0.0975  0.1662
  916MOL0     C20795   2.853   6.340   2.470 -0.3960  0.3467 -0.8012
  916MOL0     C20796   2.894   6.366   2.329  0.3980  0.3662  0.6248
  916MOL0     N20797   2.841   6.262   2.238 -0.2394  0.4565 -0.2905
  916MOL0     C20798   2.759   6.288   2.131 -0.1840 -0.5842  0.0580
  916MOL0     C20799   2.747   6.174   2.058  0.0959  0.6049 -0.5104
  916MOL0     C20800   2.661   6.155   1.926 -0.2444 -0.4192 -0.0460
  916MOL0     C20801   2.508   6.165   1.929  0.1478  0.4430 -0.0928
  916MOL0     C20802   2.459   6.291   2.005  0.1639  0.3767 -0.0086
  916MOL0     C20803   2.310   6.305   1.962 -0.1669  0.7853 -0.7472
  916MOL0     O20804   2.238   6.183   2.012  0.4313 -0.7462 -0.2194
  916MOL0     C20805   2.109   6.169   1.984 -1.2157  0.5795  0.1885
  916MOL0     C20806   2.057   6.046   2.014  0.7849  0.4945 -0.3659
  916MOL0     C20807   1.922   6.019   1.983 -0.7409  0.0432  0.2756
  916MOL0     C20808   1.849   6.104   1.909 -0.7621  0.6679 -0.4513
  916MOL0     C20809   1.710   6.078   1.887 -0.2422 -0.8960  1.0337
  916MOL0     O20810   1.644   6.162   1.794 -1.0421  0.4317 -0.1443
  916MOL0     C20811   1.519   6.125   1.749 -0.0122 -0.5570  0.1820
  916MOL0     C20812   1.491   5.991   1.705  0.4422 -0.5863 -0.1424
  916MOL0     C20813   1.361   5.972   1.647 -0.8222 -0.1997  0.3957
  916MOL0     C20814   1.264   6.069   1.629  0.0297 -0.9759 -0.4653
  916MOL0     O20815   1.144   6.046   1.568 -0.1912  0.3977  0.1634
  916MOL0     C20816   1.026   6.033   1.655  0.4475 -0.1638 -0.3034
  916MOL0     C20817   0.899   5.980   1.581 -0.3993 -0.6651 -0.6972
  916MOL0     C20818   0.800   5.944   1.693 -0.2251 -0.2289 -0.1806
  916MOL0     C20819   0.686   5.863   1.642  0.6314  0.3181 -0.1759
  916MOL0     C20820   0.602   5.928   1.531  0.6551  0.7539  0.7709
  916MOL0     C20821   0.464   5.846   1.528  0.2179 -0.0504  0.3466
  916MOL0     C20822   0.366   5.896   1.417 -0.1366 -0.3714 -0.4264
  916MOL0     C20823   0.332   6.043   1.438 -0.2128 -0.4242 -0.5794
  916MOL0    Cl20824   0.194   6.090   1.331 -0.3390 -0.0889  0.1463
  916MOL0     C20825   1.302   6.194   1.677 -0.6003 -0.9685 -1.2338
  916MOL0     C20826   1.425   6.224   1.736 -0.8386 -0.7026  0.1581
  916MOL0     O20827   1.661   5.989   1.943  0.2226  0.6973 -0.4811
  916MOL0     C20828   1.908   6.220   1.870 -0.2774 -0.1858  1.0343
  916MOL0     C20829   2.036   6.261   1.911  0.0303  0.3800 -0.1184
  916MOL0     N20830   2.810   6.075   2.130 -0.2949 -0.0512 -0.4987
  916MOL0     N20831   2.850   6.129   2.243 -0.3847 -0.3656  0.6569
  916MOL0     C20832   3.429   6.785   2.871  0.4642  0.6685  0.0319
  916MOL0     C20833   3.544   6.859   2.880  0.2279 -0.1147  0.4528
  916MOL0     C20834   3.953   6.987   3.040 -0.6565  0.3214 -0.5474
  916MOL0     C20835   3.946   7.127   3.031 -0.4005 -0.1282 -0.8046
  916MOL0     C20836   4.062   7.208   3.019  0.3207 -0.5305  0.3394
  916MOL0     C20837   4.181   7.151   3.048 -0.1818  0.3826  0.1156
  916MOL0     O20838   4.286   7.237   3.048  1.2477  0.3476 -0.0847
  916MOL0     C20839   4.419   7.202   3.082  0.1050 -0.1567  0.3423
  916MOL0     C20840   4.495   7.121   2.978 -0.4783  0.6351  0.2985
  916MOL0     C20841   4.540   7.211   2.858 -0.4563 -0.4051 -0.3917
  916MOL0     C20842   4.417   7.256   2.771  0.1982  0.6203  0.3564
  916MOL0     C20843   4.456   7.306   2.639 -0.0084 -0.3689  1.7755
  916MOL0     C20844   4.468   7.339   2.525  0.1197 -0.3936  0.1357
  916MOL0     C20845   4.196   7.007   3.077 -0.4629 -0.5571 -0.5770
  916MOL0     C20846   4.077   6.929   3.076  0.5098  0.1661  0.2853
  916MOL0     H20847   3.541   6.936   3.208  0.5285  3.1861 -1.4043
  916MOL0     H20848   3.338   6.809   3.197  0.0695 -1.9515  0.3833
  916MOL0     H20849   3.151   6.849   2.841 -4.1692 -0.4229 -0.9144
  916MOL0     H20850   3.109   6.873   3.015  0.1925  1.3524 -0.7125
  916MOL0     H20851   2.907   6.820   2.896 -3.1213 -1.3745  2.8386
  916MOL0     H20852   2.948   6.683   2.994  1.1980  0.8394  0.8681
  916MOL0     H20853   3.025   6.569   2.807 -1.0534 -0.2681  1.8519
  916MOL0     H20854   3.018   6.708   2.695 -0.2485  0.5886  0.9652
  916MOL0     H20855   2.792   6.587   2.850  0.4099  0.6402  0.9886
  916MOL0     H20856   2.769   6.675   2.691  1.0471  1.9443  1.2210
  916MOL0     H20857   2.724   6.442   2.673 -0.4266  0.2248  1.8075
  916MOL0     H20858   2.865   6.390   2.742  0.2790 -0.0777  0.4813
  916MOL0     H20859   3.017   6.444   2.563 -1.0335 -1.8955  1.5782
  916MOL0     H20860   2.894   6.557   2.495 -2.0041 -0.1664  0.4778
  916MOL0     H20861   2.896   6.245   2.503  0.9801  1.2409  0.0849
  916MOL0     H20862   2.745   6.324   2.476 -0.2035 -0.7820  0.0417
  916MOL0     H20863   3.002   6.356   2.313  0.3333  1.2795 -0.5633
  916MOL0     H20864   2.845   6.459   2.298 -1.3065 -0.7228 -0.0905
  916MOL0     H20865   2.721   6.384   2.097  3.1811  0.8213 -0.1810
  916MOL0     H20866   2.687   6.055   1.890 -1.2971 -1.5339  2.1110
  916MOL0     H20867   2.706   6.227   1.857 -0.5989  1.0559  1.2101
  916MOL0     H20868   2.463   6.079   1.980  1.9089  0.8271  2.3194
  916MOL0     H20869   2.464   6.176   1.830 -0.4314 -0.6227  0.0302
  916MOL0     H20870   2.462   6.272   2.112  1.8771  1.8623  0.2517
  916MOL0     H20871   2.525   6.375   1.982  0.5530  0.6853  2.0335
  916MOL0     H20872   2.290   6.317   1.855  0.7211 -1.7592 -1.2667
  916MOL0     H20873   2.268   6.393   2.011  0.1391  0.9014 -0.6880
  916MOL0     H20874   2.118   5.979   2.074 -1.1251 -1.5909 -0.6451
  916MOL0     H20875   1.893   5.918   2.008  2.1850 -1.3177 -1.3009
  916MOL0     H20876   1.565   5.913   1.718  1.2979  0.1113 -0.7004
  916MOL0     H20877   1.345   5.872   1.608 -1.4586  0.2228 -0.4819
  916MOL0     H20878   1.003   6.133   1.694 -0.6641  0.7890 -3.1619
  916MOL0     H20879   1.049   5.970   1.742 -0.2301 -1.7351 -1.2239
  916MOL0     H20880   0.924   5.888   1.527 -1.8856 -0.4269 -1.8766
  916MOL0     H20881   0.864   6.053   1.507  0.6734  1.8865  1.1595
  916MOL0     H20882   0.760   6.032   1.745  2.3654  0.8137  0.1904
  916MOL0     H20883   0.852   5.882   1.767 -1.5940 -0.9170  0.2344
  916MOL0     H20884   0.725   5.769   1.601  0.2057  0.3720 -0.7039
  916MOL0     H20885   0.628   5.835   1.730  2.3479  0.6640  1.1362
  916MOL0     H20886   0.655   5.924   1.436 -1.1914  0.6471 -0.3137
  916MOL0     H20887   0.593   6.033   1.560  1.4634  1.2584 -0.7414
  916MOL0     H20888   0.425   5.843   1.630  0.3272 -0.8302  0.3666
  916MOL0     H20889   0.493   5.742   1.511 -0.5192 -0.2898  0.5164
  916MOL0     H20890   0.413   5.878   1.320 -0.5112  0.7699 -0.8363
  916MOL0     H20891   0.273   5.838   1.420 -0.7764  0.6547  0.6076
  916MOL0     H20892   0.417   6.110   1.420 -0.1546  0.1830  1.6203
  916MOL0     H20893   0.317   6.062   1.545  2.8544  0.1173 -0.1660
  916MOL0     H20894   1.239   6.282   1.669  0.3312 -0.3243 -1.7103
  916MOL0     H20895   1.454   6.318   1.782  1.2788 -1.7911  1.2062
  916MOL0     H20896   1.863   6.283   1.794  2.5605 -0.3577 -0.9383
  916MOL0     H20897   2.074   6.353   1.869  1.7221 -0.1365  0.2187
  916MOL0     H20898   3.386   6.754   2.776 -2.0693  0.3519  1.1813
  916MOL0     H20899   3.595   6.894   2.791 -0.2566 -0.4682  0.0295
  916MOL0     H20900   3.856   7.188   3.026  0.3071  0.8552 -2.6861
  916MOL0     H20901   4.055   7.311   2.988 -2.4398 -1.0560 -1.0548
  916MOL0     H20902   4.412   7.138   3.170 -0.0449 -1.9914 -0.9370
  916MOL0     H20903   4.473   7.295   3.102  1.5080 -0.2526 -2.4696
  916MOL0     H20904   4.581   7.073   3.027  0.8918  0.2672 -2.2855
  916MOL0     H20905   4.442   7.044   2.921  0.4936  0.1492  0.0295
  916MOL0     H20906   4.605   7.144   2.801 -1.5458 -1.2798 -0.6351
  916MOL0     H20907   4.600   7.294   2.897 -0.4680 -0.9142  0.7322
  916MOL0     H20908   4.363   7.166   2.744  0.4414  0.5692  0.0380
  916MOL0     H20909   4.341   7.320   2.817 -1.2365 -1.6935  1.3527
  916MOL0     H20910   4.473   7.372   2.424 -3.5275  0.6128  0.1622
  916MOL0     H20911   4.291   6.959   3.096 -0.6183  0.2343  2.8814
  916MOL0     H20912   4.080   6.823   3.100  0.8444  0.5864  2.3017
  917MOL0     O20913   8.227   9.245  10.827 -0.1630  0.7463  0.3988
  917MOL0     C20914   8.258   9.128  10.841 -0.8860 -0.3096  0.5771
  917MOL0     O20915   8.174   9.024  10.832  0.6013 -0.5804  0.4855
  917MOL0     C20916   8.050   9.062  10.796 -0.3552 -0.3739 -0.3005
  917MOL0     C20917   8.018   9.049  10.664 -0.0128  1.3001  0.8699
  917MOL0     C20918   7.888   9.061  10.623  0.1713 -0.5949  0.7042
  917MOL0     C20919   7.786   9.097  10.710 -0.3332 -0.5094  0.5698
  917MOL0     O20920   7.659   9.107  10.663  0.7406  0.6848 -0.4169
  917MOL0     C20921   7.557   9.145  10.756 -0.3804  0.6067 -0.2033
  917MOL0     C20922   7.433   9.197  10.687 -0.9676 -0.1044  0.2040
  917MOL0     C20923   7.309   9.235  10.770  0.4827 -0.6274 -0.0545
  917MOL0     C20924   7.182   9.206  10.687 -0.1878  0.1115  0.3352
  917MOL0     C20925   7.067   9.273  10.763  0.7890 -0.3669 -0.0177
  917MOL0     C20926   6.931   9.229  10.694  0.4848 -0.4250 -0.7688
  917MOL0     C20927   6.815   9.300  10.753 -1.0953 -1.2276 -0.1499
  917MOL0     C20928   6.688   9.263  10.680 -0.3352  0.3160  0.9497
  917MOL0     N20929   6.561   9.301  10.740  0.3919 -0.4983 -0.0562
  917MOL0     C20930   6.522   9.406  10.817 -0.4051 -0.1765 -0.1693
  917MOL0     C20931   6.387   9.401  10.828 -0.0867  0.0336  0.1142
  917MOL0     C20932   6.300   9.478  10.918 -0.0119 -0.1143  0.0845
  917MOL0     C20933   6.186   9.532  10.841 -0.0188 -0.3863  0.5015
  917MOL0     C20934   6.067   9.435  10.823 -0.5748 -0.6880  0.5429
  917MOL0     C20935   5.965   9.498  10.734  0.0564 -0.0637 -0.8529
  917MOL0     O20936   5.888   9.389  10.687  0.1234  0.4712 -0.3625
  917MOL0     C20937   5.762   9.414  10.658 -0.1113 -0.3538  0.6068
  917MOL0     C20938   5.659   9.374  10.737  0.5465  0.1050  0.2553
  917MOL0     C20939   5.522   9.387  10.692 -0.1482  0.6570 -0.6388
  917MOL0     C20940   5.493   9.460  10.581 -0.2433  0.6563 -0.3481
  917MOL0     C20941   5.352   9.480  10.539  0.1293  0.6577  0.4166
  917MOL0     O20942   5.341   9.556  10.424  0.2205  0.3476  0.6070
  917MOL0     C20943   5.213   9.576  10.375  0.0313 -0.4632  0.4845
  917MOL0     C20944   5.146   9.698  10.390  0.1829  0.3568  0.1777
  917MOL0     C20945   5.024   9.719  10.319  0.7584 -0.0296  0.8557
  917MOL0     C20946   4.956   9.610  10.265 -0.2217 -0.7259 -0.0069
  917MOL0     O20947   4.822   9.636  10.234  0.6656 -0.7060 -0.6812
  917MOL0     C20948   4.718   9.541  10.233  0.2240  0.8220  0.2294
  917MOL0     C20949   4.588   9.614  10.206 -1.1005 -0.2678  0.5306
  917MOL0     C20950   4.558   9.730  10.313 -0.3342  0.3236 -0.4885
  917MOL0     C20951   4.426   9.800  10.285  0.1738  0.0611  0.4560
  917MOL0     C20952   4.318   9.731  10.371  0.2874  0.0377  1.1768
  917MOL0     C20953   4.173   9.758  10.317 -0.0543 -0.2033 -0.3322
  917MOL0     C20954   4.129   9.906  10.312 -0.4415 -0.6899  0.4017
  917MOL0     C20955   3.979   9.931  10.290 -0.1985  0.0772  0.5727
  917MOL0    Cl20956   3.912   9.841  10.145 -0.5259  0.3382  0.1530
  917MOL0     C20957   5.018   9.491  10.260  0.3988  0.0828  0.6539
  917MOL0     C20958   5.151   9.476  10.313  0.4471  0.0055  0.0348
  917MOL0     O20959   5.265   9.449  10.615 -0.4092 -1.1125  0.6902
  917MOL0     C20960   5.597   9.512  10.510  0.6906 -0.5260 -0.0145
  917MOL0     C20961   5.729   9.493  10.541 -0.2831 -0.0824 -0.0379
  917MOL0     N20962   6.345   9.291  10.759 -0.6334  0.3856 -0.0444
  917MOL0     N20963   6.447   9.237  10.700 -0.0366  0.1680  0.4783
  917MOL0     C20964   7.822   9.114  10.843 -0.9371 -0.2162 -0.9556
  917MOL0     C20965   7.954   9.096  10.891  1.7084  0.0354 -0.1449
  917MOL0     C20966   8.403   9.093  10.870  0.1014  0.7660 -0.0845
  917MOL0     C20967   8.498   9.189  10.884  0.0377 -0.5613  0.1914
  917MOL0     C20968   8.633   9.152  10.910 -0.4253 -0.0970 -0.2895
  917MOL0     C20969   8.668   9.020  10.926 -1.0673  1.5341  0.4117
  917MOL0     O20970   8.788   8.969  10.962 -1.4775  0.0099 -0.1049
  917MOL0     C20971   8.904   9.049  10.920  0.4234 -0.2157  0.0052
  917MOL0     C20972   8.920   9.035  10.761  0.1254  0.0849 -0.1072
  917MOL0     C20973   9.052   9.103  10.732 -0.9040 -0.7544  0.5513
  917MOL0     C20974   9.089   9.087  10.587  0.1324  0.3527 -0.2339
  917MOL0     C20975   9.204   9.173  10.553  0.4123 -0.5003  0.1037
  917MOL0     C20976   9.288   9.249  10.500 -0.4446  0.4023  0.2627
  917MOL0     C20977   8.573   8.925  10.925 -0.3565 -0.0361  0.0239
  917MOL0     C20978   8.439   8.956  10.893 -0.0927 -0.3321 -0.2907
  917MOL0     H20979   8.098   9.026  10.595 -0.3373  0.2643  0.8133
  917MOL0     H20980   7.867   9.055  10.516 -0.5920  0.3912  0.7815
  917MOL0     H20981   7.599   9.221  10.822  2.3395 -0.8341 -0.1283
  917MOL0     H20982   7.529   9.057  10.813 -1.7500  0.2762 -1.3089
  917MOL0     H20983   7.405   9.107  10.631 -1.2979 -0.4212  0.8673
  917MOL0     H20984   7.469   9.280  10.625 -3.2286  0.6149 -0.2424
  917MOL0     H20985   7.307   9.341  10.798 -1.5819 -0.3749 -1.0175
  917MOL0     H20986   7.299   9.188  10.868 -2.0539  1.5342  0.8491
  917MOL0     H20987   7.188   9.245  10.585 -1.8257 -2.2712 -0.7536
  917MOL0     H20988   7.164   9.098  10.683  1.8179 -0.2598  0.4928
  917MOL0     H20989   7.077   9.381  10.754  0.3600 -0.2631  0.7054
  917MOL0     H20990   7.066   9.258  10.872 -0.3733  2.3999  0.4369
  917MOL0     H20991   6.910   9.122  10.704 -0.2382 -0.4723 -2.5642
  917MOL0     H20992   6.936   9.259  10.589  0.3396 -1.8050 -1.1871
  917MOL0     H20993   6.806   9.263  10.856 -2.4931 -1.1326 -0.2076
  917MOL0     H20994   6.829   9.409  10.760  2.2434 -1.5874  0.1462
  917MOL0     H20995   6.680   9.154  10.681 -1.2922  0.2752 -1.9650
  917MOL0     H20996   6.693   9.303  10.578  1.9956  2.7582  1.8947
  917MOL0     H20997   6.583   9.478  10.871  0.6377 -0.4103 -0.9918
  917MOL0     H20998   6.359   9.562  10.958 -0.1416 -0.7090  1.6118
  917MOL0     H20999   6.279   9.419  11.008  0.6439 -2.5460 -1.2906
  917MOL0     H21000   6.224   9.559  10.743  0.9584 -0.3400  0.8788
  917MOL0     H21001   6.141   9.617  10.893 -3.5415 -1.4877 -0.5010
  917MOL0     H21002   6.100   9.338  10.784  0.5895 -1.5806  3.4088
  917MOL0     H21003   6.020   9.425  10.921 -3.6932 -0.2255 -0.8137
  917MOL0     H21004   6.013   9.548  10.648  0.8295 -0.0871 -0.4431
  917MOL0     H21005   5.897   9.567  10.786 -0.6746 -1.6432  0.3617
  917MOL0     H21006   5.685   9.314  10.823 -0.4383  0.3356  0.7346
  917MOL0     H21007   5.444   9.345  10.755  0.2222  1.4697  0.4003
  917MOL0     H21008   5.190   9.782  10.441  0.7454  1.2598 -1.7018
  917MOL0     H21009   4.969   9.812  10.308 -0.3864 -0.9830 -3.5286
  917MOL0     H21010   4.702   9.491  10.330 -4.3239  5.2836  2.2151
  917MOL0     H21011   4.734   9.465  10.156  1.9760  0.6558  0.7013
  917MOL0     H21012   4.511   9.537  10.209 -1.7922  0.4465  1.7260
  917MOL0     H21013   4.593   9.660  10.107  2.3549  1.1730  1.2368
  917MOL0     H21014   4.640   9.802  10.310 -0.9774  1.2063  1.5515
  917MOL0     H21015   4.566   9.694  10.415  3.7949  1.8298 -0.1094
  917MOL0     H21016   4.419   9.907  10.307 -0.7927 -0.3972  2.6443
  917MOL0     H21017   4.394   9.793  10.181 -0.4082 -0.0208  0.6368
  917MOL0     H21018   4.325   9.762  10.476  1.3148  2.2329  0.5122
  917MOL0     H21019   4.333   9.622  10.365  0.5366  0.1544 -2.5292
  917MOL0     H21020   4.109   9.719  10.397  1.4159 -0.5677  0.7157
  917MOL0     H21021   4.162   9.700  10.225  1.6947 -0.1552 -0.6060
  917MOL0     H21022   4.169   9.949  10.404  1.5614  0.2917 -0.8626
  917MOL0     H21023   4.188   9.945  10.229 -0.2587  0.9420  1.2519
  917MOL0     H21024   3.969  10.040  10.281  1.1826  0.1645 -0.2391
  917MOL0     H21025   3.930   9.886  10.377  0.8653  1.2013  1.7940
  917MOL0     H21026   4.971   9.403  10.219 -3.1675  2.1349 -0.0814
  917MOL0     H21027   5.215   9.388  10.309  1.8018  0.7979  2.4064
  917MOL0     H21028   5.565   9.567  10.422 -1.3098  1.2166  1.7155
  917MOL0     H21029   5.808   9.523  10.474 -0.6201  0.9063 -0.0245
  917MOL0     H21030   7.743   9.143  10.912 -1.4113  0.0814 -1.6133
  917MOL0     H21031   7.968   9.092  10.998  0.0901 -1.6059  0.0555
  917MOL0     H21032   8.459   9.290  10.883 -0.4202 -0.7205  0.9145
  917MOL0     H21033   8.695   9.241  10.910  0.3541 -0.6388  0.1270
  917MOL0     H21034   8.983   9.008  10.982  0.4213 -1.1977 -0.6282
  917MOL0     H21035   8.873   9.148  10.955 -1.4128 -1.4051  1.9444
  917MOL0     H21036   8.937   8.935  10.717 -0.6121  0.2840 -0.8697
  917MOL0     H21037   8.831   9.078  10.715 -0.2542 -1.0871 -0.5272
  917MOL0     H21038   9.126   9.044  10.788 -1.9135 -3.4216 -0.7688
  917MOL0     H21039   9.050   9.207  10.764 -0.1943 -0.0851 -1.4398
  917MOL0     H21040   9.124   8.985  10.574  1.1174  0.2324  2.6050
  917MOL0     H21041   9.008   9.112  10.518 -1.2138  0.8205  1.4421
  917MOL0     H21042   9.354   9.312  10.445 -0.7496  0.1803 -0.3640
  917MOL0     H21043   8.597   8.821  10.943  0.2890  0.2345  0.7832
  917MOL0     H21044   8.373   8.870  10.888  0.3005 -0.6873  0.5647
  918MOL0     O21045   2.129   0.428   8.907  0.1837  0.6270  0.6710
  918MOL0     C21046   2.164   0.539   8.864 -0.5047  0.7900 -0.5131
  918MOL0     O21047   2.081   0.639   8.843 -0.1928 -0.5565  0.7867
  918MOL0     C21048   1.947   0.643   8.875 -0.5297 -0.5948 -0.4496
  918MOL0     C21049   1.884   0.580   8.988  0.6030 -0.1993  0.1637
  918MOL0     C21050   1.747   0.601   9.019 -0.4566  0.1357 -0.8819
  918MOL0     C21051   1.682   0.704   8.940  0.5300 -0.2122  0.1529
  918MOL0     O21052   1.548   0.734   8.955 -0.1596  0.6548 -0.0632
  918MOL0     C21053   1.466   0.659   9.040  0.0616 -0.4449  0.0553
  918MOL0     C21054   1.328   0.724   9.038 -0.3631  0.0495 -0.3904
  918MOL0     C21055   1.220   0.651   8.958 -0.2592 -0.2157 -0.4921
  918MOL0     C21056   1.083   0.709   9.010 -0.7913 -0.3278 -0.4308
  918MOL0     C21057   0.968   0.672   8.918  0.5560 -0.1970 -0.2173
  918MOL0     C21058   0.833   0.669   9.001  0.3132 -0.5235 -0.1246
  918MOL0     C21059   0.705   0.648   8.914 -0.2423  0.1133 -0.1129
  918MOL0     C21060   0.707   0.502   8.860 -0.2640 -0.3926  0.3739
  918MOL0     N21061   0.797   0.476   8.741 -0.8574  0.1797 -0.0138
  918MOL0     C21062   0.875   0.366   8.739 -0.4002 -0.0759  0.0983
  918MOL0     C21063   0.942   0.367   8.627  0.0512 -0.4487  1.2455
  918MOL0     C21064   1.028   0.258   8.589 -0.2558  0.5173 -0.1580
  918MOL0     C21065   1.007   0.220   8.441  0.1092 -0.4419  0.1040
  918MOL0     C21066   1.090   0.093   8.416 -0.5694  0.0228 -0.8310
  918MOL0     C21067   1.245   0.113   8.425  0.1695 -0.2473 -0.2799
  918MOL0     O21068   1.305  -0.012   8.382 -0.2107 -0.9477 -0.7667
  918MOL0     C21069   1.444  -0.010   8.374 -0.0458  0.1225  0.5550
  918MOL0     C21070   1.529   0.092   8.434  0.0988  0.2116 -0.2918
  918MOL0     C21071   1.669   0.085   8.420 -0.5836  0.3998  0.9652
  918MOL0     C21072   1.730  -0.026   8.348  0.2145 -0.2847 -0.2692
  918MOL0     C21073   1.873  -0.049   8.336  0.3331  0.4795  0.0402
  918MOL0     O21074   1.954   0.010   8.421  0.0482  0.3202  0.3612
  918MOL0     C21075   2.086  -0.008   8.423 -0.1568  0.4355  0.3100
  918MOL0     C21076   2.168   0.103   8.405  0.2012 -0.0452 -0.5152
  918MOL0     C21077   2.314   0.098   8.405  0.1513  0.1231  0.2068
  918MOL0     C21078   2.373  -0.033   8.404  0.1098  0.9218  0.0815
  918MOL0     O21079   2.502  -0.076   8.426  0.1016  0.2693  0.7928
  918MOL0     C21080   2.606   0.031   8.410  0.5571  0.0514 -0.0321
  918MOL0     C21081   2.750  -0.033   8.409  0.0272 -0.0042 -0.1616
  918MOL0     C21082   2.856   0.055   8.345 -0.3075  0.0197  0.0704
  918MOL0     C21083   2.995   0.035   8.408 -0.1420  0.4794  0.3818
  918MOL0     C21084   3.081   0.151   8.381 -0.4167 -0.4221 -0.1228
  918MOL0     C21085   3.222   0.146   8.443 -0.0645  0.2715 -0.1021
  918MOL0     C21086   3.310   0.256   8.380  0.0131  0.0285  0.4393
  918MOL0     C21087   3.455   0.259   8.426 -0.1596 -0.2070  0.0232
  918MOL0    Cl21088   3.458   0.292   8.603 -0.0665  0.0692  0.2718
  918MOL0     C21089   2.291  -0.143   8.415 -0.8064  0.1199  0.4363
  918MOL0     C21090   2.154  -0.128   8.425 -0.9665 -0.6990  0.8397
  918MOL0     O21091   1.905  -0.134   8.253  0.0649  0.3005  0.6278
  918MOL0     C21092   1.642  -0.121   8.297  0.1554 -0.1978  0.0520
  918MOL0     C21093   1.504  -0.108   8.296 -0.2078 -0.0326  0.2451
  918MOL0     N21094   0.915   0.503   8.572 -0.3438  0.8564  0.0005
  918MOL0     N21095   0.818   0.559   8.634 -0.2808 -0.1627 -0.3618
  918MOL0     C21096   1.737   0.772   8.832  0.4500  0.1927 -0.3204
  918MOL0     C21097   1.872   0.740   8.807 -0.3616  0.0536 -0.1714
  918MOL0     C21098   2.305   0.559   8.826 -0.0772 -0.6073 -0.2675
  918MOL0     C21099   2.364   0.686   8.826 -0.2800  0.4564 -0.3770
  918MOL0     C21100   2.493   0.705   8.794  0.2495  0.3939 -0.3255
  918MOL0     C21101   2.575   0.593   8.755 -0.8317 -0.5208  0.0980
  918MOL0     O21102   2.701   0.624   8.712 -0.3415 -0.0653  0.3145
  918MOL0     C21103   2.792   0.522   8.709 -0.0731 -0.2417  0.8361
  918MOL0     C21104   2.930   0.590   8.715 -0.3714  0.7882 -0.3501
  918MOL0     C21105   3.029   0.485   8.771 -0.4873 -0.0956  0.4690
  918MOL0     C21106   3.157   0.549   8.821  0.1516  0.0819  0.5203
  918MOL0     C21107   3.238   0.614   8.714 -0.1138 -0.3293  0.0251
  918MOL0     C21108   3.302   0.673   8.634 -0.3795  0.3155 -0.0633
  918MOL0     C21109   2.521   0.464   8.751  0.0777 -0.5612 -0.2218
  918MOL0     C21110   2.386   0.448   8.793 -0.7208 -0.4945 -0.1685
  918MOL0     H21111   1.928   0.493   9.035  0.7258  0.2911  0.9716
  918MOL0     H21112   1.697   0.550   9.101 -1.3017  0.9266 -0.8905
  918MOL0     H21113   1.503   0.661   9.143  0.6903 -4.6870  0.0697
  918MOL0     H21114   1.464   0.554   9.010  1.0924 -0.4913  0.0975
  918MOL0     H21115   1.336   0.829   9.008 -0.5406  0.1552 -0.0699
  918MOL0     H21116   1.295   0.729   9.142 -0.5784  1.6634 -0.5085
  918MOL0     H21117   1.225   0.546   8.989 -3.2131  0.5271  3.2826
  918MOL0     H21118   1.242   0.658   8.851  2.5576 -0.0157  0.0247
  918MOL0     H21119   1.073   0.665   9.110  1.0745  1.5052  0.6324
  918MOL0     H21120   1.087   0.818   9.019  0.3478 -0.0979 -2.9907
  918MOL0     H21121   0.992   0.574   8.877  1.4775 -0.6069  1.2292
  918MOL0     H21122   0.952   0.748   8.841 -0.9607  0.4444  0.6776
  918MOL0     H21123   0.810   0.770   9.037 -0.5922 -0.8094  0.1446
  918MOL0     H21124   0.837   0.597   9.083 -0.3797  0.1691  0.5302
  918MOL0     H21125   0.618   0.652   8.980 -0.8085 -3.5210 -0.4272
  918MOL0     H21126   0.689   0.725   8.838 -0.2434  0.6321  0.4078
  918MOL0     H21127   0.604   0.480   8.832 -0.7571  1.1193  0.8806
  918MOL0     H21128   0.732   0.439   8.946  1.9782  1.0620  0.8774
  918MOL0     H21129   0.876   0.282   8.807  4.3065  0.7315  1.3816
  918MOL0     H21130   0.997   0.178   8.656  0.1512 -0.1639 -0.7669
  918MOL0     H21131   1.132   0.292   8.598 -0.8590  2.7822 -0.8516
  918MOL0     H21132   1.038   0.296   8.369  0.6085 -2.3796 -1.8412
  918MOL0     H21133   0.899   0.211   8.426  0.2216 -0.8673 -0.5030
  918MOL0     H21134   1.057   0.012   8.481 -0.5079  0.7179  0.0764
  918MOL0     H21135   1.070   0.069   8.311 -0.5486  2.2284 -1.3950
  918MOL0     H21136   1.276   0.149   8.524 -0.1969  1.2977 -0.7036
  918MOL0     H21137   1.290   0.191   8.363  0.8470  0.3805  0.9714
  918MOL0     H21138   1.500   0.181   8.488  0.6037  0.1677  0.0574
  918MOL0     H21139   1.723   0.168   8.463 -0.6930  0.8421  0.2528
  918MOL0     H21140   2.130   0.203   8.387  2.3898  0.5012 -2.7387
  918MOL0     H21141   2.374   0.189   8.404 -1.7552  1.4630  1.3290
  918MOL0     H21142   2.605   0.110   8.486  1.2573 -0.8185  0.9003
  918MOL0     H21143   2.585   0.075   8.312  1.0543 -2.1569 -1.1954
  918MOL0     H21144   2.745  -0.131   8.360  0.3771 -1.1838  2.0253
  918MOL0     H21145   2.769  -0.042   8.516 -0.4924 -1.3570 -0.1598
  918MOL0     H21146   2.824   0.156   8.373  0.9471  0.4208  0.0988
  918MOL0     H21147   2.858   0.047   8.236  0.3290 -3.1691  0.1985
  918MOL0     H21148   2.972   0.034   8.515 -3.2895  1.8274 -0.1835
  918MOL0     H21149   3.036  -0.057   8.366  0.0620  0.9389 -0.4466
  918MOL0     H21150   3.031   0.240   8.422  1.3609 -0.3181  1.9871
  918MOL0     H21151   3.087   0.160   8.272 -2.3145  0.7550 -0.1689
  918MOL0     H21152   3.263   0.049   8.416 -1.3697 -0.4468  0.4016
  918MOL0     H21153   3.201   0.159   8.550 -1.4788  1.5242 -0.4898
  918MOL0     H21154   3.322   0.235   8.274  1.0967  0.6896  0.4154
  918MOL0     H21155   3.261   0.353   8.390  1.1387  0.7356 -0.6153
  918MOL0     H21156   3.508   0.336   8.369  1.4172 -1.0735  0.2822
  918MOL0     H21157   3.497   0.161   8.403 -1.5520 -1.3340  1.9657
  918MOL0     H21158   2.334  -0.243   8.422  1.3596  1.0356  0.7447
  918MOL0     H21159   2.086  -0.211   8.442 -0.3800 -1.7517 -1.4578
  918MOL0     H21160   1.680  -0.206   8.241  1.3845  0.3403  0.0388
  918MOL0     H21161   1.443  -0.176   8.238 -1.6085  2.1648 -1.0168
  918MOL0     H21162   1.674   0.837   8.772  0.1815  0.3279  0.0992
  918MOL0     H21163   1.915   0.775   8.713 -2.9728 -4.0861 -3.3052
  918MOL0     H21164   2.301   0.773   8.844 -1.4154 -0.2088 -1.0135
  918MOL0     H21165   2.530   0.807   8.797 -3.5320  1.9195  1.6945
  918MOL0     H21166   2.786   0.470   8.613  2.3316 -0.9188  0.9862
  918MOL0     H21167   2.785   0.448   8.789  0.9498 -1.0404  0.2192
  918MOL0     H21168   2.954   0.615   8.611 -1.3031 -1.9308 -1.3061
  918MOL0     H21169   2.925   0.679   8.778 -1.2231 -0.0928  0.8798
  918MOL0     H21170   3.052   0.423   8.685 -1.4062 -2.4398  1.8201
  918MOL0     H21171   2.983   0.432   8.855  0.3044 -0.7994  0.4667
  918MOL0     H21172   3.131   0.626   8.895  1.0593  0.3896  0.5324
  918MOL0     H21173   3.227   0.485   8.874 -0.3773 -1.3330 -0.4503
  918MOL0     H21174   3.345   0.715   8.545 -2.1078  0.2441 -0.9806
  918MOL0     H21175   2.581   0.382   8.713  3.0807  1.9361 -1.3202
  918MOL0     H21176   2.358   0.343   8.791 -0.0316 -0.6678 -1.0525
  919MOL0     O21177   9.693  11.172   7.980 -0.1109 -0.0341 -0.3202
  919MOL0     C21178   9.735  11.093   8.065  0.3080 -0.7006  0.0768
  919MOL0     O21179   9.681  10.976   8.089  0.2299  0.6909  0.4970
  919MOL0     C21180   9.619  10.904   7.985  0.7833 -0.3268  0.7925
  919MOL0     C21181   9.696  10.880   7.869  0.0567 -0.3118 -0.4005
  919MOL0     C21182   9.635  10.824   7.757  0.3287 -0.2364  0.7538
  919MOL0     C21183   9.496  10.794   7.748  0.6374  0.1666 -0.0778
  919MOL0     O21184   9.428  10.734   7.641 -0.2541  0.0811  0.3422
  919MOL0     C21185   9.472  10.770   7.503  0.1614 -0.1780 -0.6344
  919MOL0     C21186   9.409  10.681   7.403 -1.2529  0.3988  0.1398
  919MOL0     C21187   9.253  10.692   7.404 -0.3153  0.3439  0.0048
  919MOL0     C21188   9.185  10.566   7.352  0.1914 -0.2084 -0.1805
  919MOL0     C21189   9.037  10.598   7.335  0.2553 -0.2527 -0.2404
  919MOL0     C21190   8.956  10.481   7.288  0.2064  0.7873  0.3174
  919MOL0     C21191   8.801  10.491   7.308 -0.5384  0.0917 -0.0213
  919MOL0     C21192   8.715  10.385   7.230 -0.0410 -0.6952 -0.3855
  919MOL0     N21193   8.718  10.403   7.080  0.2509 -0.0959  0.4609
  919MOL0     C21194   8.746  10.523   7.016 -0.6925 -0.7094  0.4660
  919MOL0     C21195   8.754  10.489   6.885 -0.0852  0.1012 -0.0222
  919MOL0     C21196   8.766  10.594   6.773  0.4272 -0.3336  0.3759
  919MOL0     C21197   8.651  10.703   6.786 -0.6296  0.6382 -0.2565
  919MOL0     C21198   8.631  10.770   6.655 -0.0392  0.8318 -0.3597
  919MOL0     C21199   8.752  10.849   6.618 -0.3502 -0.2368 -0.4199
  919MOL0     O21200   8.849  10.770   6.553  0.3533  0.0467 -0.3835
  919MOL0     C21201   8.977  10.818   6.548 -0.6396 -0.5831  0.1980
  919MOL0     C21202   9.003  10.917   6.452 -0.9714  0.3566 -0.2405
  919MOL0     C21203   9.131  10.954   6.424  1.3503 -0.1864  0.1720
  919MOL0     C21204   9.235  10.905   6.505  0.5254 -0.2337  0.0014
  919MOL0     C21205   9.371  10.953   6.481  0.5790  0.5884  0.3312
  919MOL0     O21206   9.463  10.906   6.567  0.4400  0.6147 -0.3308
  919MOL0     C21207   9.591  10.958   6.565  0.6373  0.0575 -0.1301
  919MOL0     C21208   9.659  10.987   6.443 -1.1367  0.1283  0.7365
  919MOL0     C21209   9.797  11.019   6.443 -0.0123 -0.3516  0.3494
  919MOL0     C21210   9.870  11.029   6.562 -0.6159  0.3434  0.5002
  919MOL0     O21211   9.994  11.079   6.559 -0.4378  0.0475  0.5693
  919MOL0     C21212  10.087  10.993   6.487 -0.6527  0.5892 -0.0484
  919MOL0     C21213  10.225  11.059   6.497 -0.3484  0.5235 -0.6448
  919MOL0     C21214  10.338  10.966   6.442  0.2873  0.2588 -0.2794
  919MOL0     C21215  10.470  11.033   6.468  0.5780  0.4892  0.1602
  919MOL0     C21216  10.590  10.947   6.429  0.1912  0.3538 -0.8688
  919MOL0     C21217  10.711  11.043   6.412  0.4153  1.2491 -0.5206
  919MOL0     C21218  10.836  10.956   6.370  0.4385  0.1364 -0.2758
  919MOL0     C21219  10.918  10.893   6.485  0.0980 -0.7050 -0.5533
  919MOL0    Cl21220  10.958  11.023   6.604  0.1060 -0.0443  0.2803
  919MOL0     C21221   9.798  11.007   6.684 -0.3872  0.4950  0.3947
  919MOL0     C21222   9.663  10.957   6.690 -0.3083  0.7573  0.6061
  919MOL0     O21223   9.385  11.044   6.403  0.1506 -0.5596  0.4754
  919MOL0     C21224   9.210  10.809   6.601  0.0883  0.1281 -0.1205
  919MOL0     C21225   9.078  10.756   6.617  0.2516  1.0846  0.2214
  919MOL0     N21226   8.731  10.352   6.871  0.3265 -0.4735  0.5283
  919MOL0     N21227   8.720  10.304   6.990 -0.1504  0.5274  0.2887
  919MOL0     C21228   9.430  10.803   7.872 -0.1118  1.1456 -0.7094
  919MOL0     C21229   9.486  10.858   7.989  0.2625 -0.2804 -0.1037
  919MOL0     C21230   9.844  11.125   8.155  0.0478 -0.6098  0.1922
  919MOL0     C21231   9.939  11.218   8.123 -0.0520  0.7600  0.3044
  919MOL0     C21232  10.055  11.235   8.200  0.2311  0.6920  0.4920
  919MOL0     C21233  10.062  11.178   8.326  0.3705 -0.4236 -0.5424
  919MOL0     O21234  10.157  11.216   8.420 -0.0776  0.5708 -0.3255
  919MOL0     C21235  10.214  11.345   8.412 -0.2020 -1.0769 -0.1771
  919MOL0     C21236  10.280  11.360   8.551  0.1048 -0.5702 -0.1925
  919MOL0     C21237  10.405  11.275   8.573  0.6971 -0.2124  0.6072
  919MOL0     C21238  10.439  11.269   8.726  0.1314 -0.8027  0.1880
  919MOL0     C21239  10.557  11.195   8.741  0.0188  0.6646 -0.8389
  919MOL0     C21240  10.663  11.128   8.746 -0.8908  0.5100  0.3625
  919MOL0     C21241   9.961  11.096   8.367 -0.2404 -0.0833  0.5588
  919MOL0     C21242   9.853  11.071   8.282  0.2134 -0.4268 -0.4958
  919MOL0     H21243   9.799  10.913   7.870 -0.3689  1.0615 -0.5361
  919MOL0     H21244   9.692  10.811   7.666 -0.4150  1.1239  0.0657
  919MOL0     H21245   9.580  10.755   7.498 -0.0530 -2.2854 -0.1061
  919MOL0     H21246   9.443  10.873   7.483 -1.4476 -0.6548 -0.9753
  919MOL0     H21247   9.435  10.578   7.428 -0.1427  0.9766  1.4816
  919MOL0     H21248   9.446  10.715   7.305  1.2504  0.2374  0.9472
  919MOL0     H21249   9.221  10.779   7.345 -2.3973 -2.9690 -4.2649
  919MOL0     H21250   9.210  10.717   7.502  0.4948 -0.0640  0.4762
  919MOL0     H21251   9.217  10.529   7.254 -1.5589  2.4712 -1.9121
  919MOL0     H21252   9.196  10.487   7.426 -0.6707  0.1674  0.3700
  919MOL0     H21253   9.025  10.688   7.275  1.7866  0.3776  0.3426
  919MOL0     H21254   8.989  10.625   7.430  0.6944 -2.6539  0.7256
  919MOL0     H21255   8.997  10.392   7.338 -2.8409 -0.8253  0.2091
  919MOL0     H21256   8.970  10.466   7.181 -0.1960 -0.5922  0.4340
  919MOL0     H21257   8.783  10.480   7.415  1.6436 -3.5076  0.1410
  919MOL0     H21258   8.774  10.590   7.272  1.8509  0.3402 -1.3284
  919MOL0     H21259   8.613  10.389   7.269  0.3337  1.8170  0.4617
  919MOL0     H21260   8.752  10.288   7.264  0.9043 -0.7021 -1.3970
  919MOL0     H21261   8.758  10.623   7.055 -1.2186  0.0145 -1.1507
  919MOL0     H21262   8.745  10.539   6.681  0.7274 -0.2802  0.2750
  919MOL0     H21263   8.867  10.637   6.775  0.1837  0.3532  3.9775
  919MOL0     H21264   8.659  10.770   6.873  0.2187 -0.2749  0.3973
  919MOL0     H21265   8.556  10.656   6.815 -0.6323  1.3689  1.0273
  919MOL0     H21266   8.595  10.701   6.578 -1.4939  1.9038 -0.7004
  919MOL0     H21267   8.547  10.841   6.651 -1.1788 -0.5078 -1.9203
  919MOL0     H21268   8.806  10.883   6.707  0.8030  1.2228 -1.6308
  919MOL0     H21269   8.729  10.935   6.554  1.4610  1.6068  1.2649
  919MOL0     H21270   8.927  10.962   6.389 -1.9986  1.0214  1.3935
  919MOL0     H21271   9.139  11.019   6.337 -1.0516  0.3777  0.2974
  919MOL0     H21272   9.610  10.968   6.348  0.1052  1.5199 -0.2293
  919MOL0     H21273   9.856  11.047   6.357  0.4861 -1.3452  0.3596
  919MOL0     H21274  10.065  10.982   6.381 -0.0711  0.0443 -0.1196
  919MOL0     H21275  10.092  10.891   6.527  0.1984  0.9178  0.7177
  919MOL0     H21276  10.243  11.061   6.605 -0.2052 -2.1126 -0.5506
  919MOL0     H21277  10.228  11.160   6.457 -0.3630  1.3209  1.2555
  919MOL0     H21278  10.330  10.945   6.335  2.7426 -1.0068 -0.2893
  919MOL0     H21279  10.317  10.873   6.495 -3.2025  1.7009  1.1904
  919MOL0     H21280  10.466  11.129   6.415 -1.9292  0.0201 -0.6708
  919MOL0     H21281  10.476  11.065   6.572  2.1747  0.7257  0.0129
  919MOL0     H21282  10.591  10.898   6.332  4.8728 -0.6305 -0.5655
  919MOL0     H21283  10.607  10.873   6.509 -2.5072 -1.7653 -2.0791
  919MOL0     H21284  10.724  11.097   6.507 -0.9180 -0.2683  0.5798
  919MOL0     H21285  10.689  11.110   6.329 -0.4535 -0.1950 -1.4904
  919MOL0     H21286  10.816  10.877   6.298 -0.3674 -0.9846  1.1286
  919MOL0     H21287  10.901  11.023   6.314 -1.8370  1.3809 -1.5692
  919MOL0     H21288  11.011  10.851   6.445  2.4201  3.0933  0.3116
  919MOL0     H21289  10.856  10.815   6.531  2.1654 -0.7185  2.5304
  919MOL0     H21290   9.857  11.022   6.774  0.6623  2.0066 -0.5076
  919MOL0     H21291   9.615  10.927   6.782 -0.6322  1.1274  0.5601
  919MOL0     H21292   9.289  10.759   6.657 -2.8820 -1.6634  2.8566
  919MOL0     H21293   9.054  10.671   6.681 -0.9400  2.3647  1.5614
  919MOL0     H21294   9.327  10.770   7.880  0.4975 -1.0387 -1.1210
  919MOL0     H21295   9.431  10.870   8.082 -0.6303  2.4162 -0.8757
  919MOL0     H21296   9.937  11.257   8.021  0.2141 -1.8368 -0.7625
  919MOL0     H21297  10.140  11.299   8.176  0.4954  2.6173  5.2883
  919MOL0     H21298  10.137  11.423   8.407  1.2915  0.6812  2.0505
  919MOL0     H21299  10.293  11.358   8.337 -0.5360  0.9482 -0.2527
  919MOL0     H21300  10.306  11.466   8.564  1.1039 -0.8269  0.0222
  919MOL0     H21301  10.206  11.332   8.627  0.7497 -3.0792 -0.3983
  919MOL0     H21302  10.487  11.312   8.512 -2.4723  2.2759 -2.5169
  919MOL0     H21303  10.388  11.171   8.546  1.7341 -0.5388  1.1629
  919MOL0     H21304  10.454  11.369   8.768  2.1106 -1.0556  0.1817
  919MOL0     H21305  10.352  11.221   8.773 -2.1609 -0.6458 -3.4782
  919MOL0     H21306  10.755  11.075   8.763 -0.1889  1.1924 -1.1296
  919MOL0     H21307   9.977  11.038   8.458  0.0347 -1.3549 -0.2773
  919MOL0     H21308   9.788  10.994   8.322  1.0707 -0.7008  0.4285
  920MOL0     O21309   8.953   4.793   6.359  0.1243  0.3347  0.3416
  920MOL0     C21310   8.946   4.918   6.373  0.7939 -0.4151  0.6463
  920MOL0     O21311   8.839   4.996   6.415  0.3022 -0.5892  0.0091
  920MOL0     C21312   8.720   4.936   6.447 -0.1280 -0.4003 -0.0278
  920MOL0     C21313   8.657   4.954   6.569  0.1139 -0.0735 -0.2674
  920MOL0     C21314   8.546   4.880   6.602  0.4717 -0.4274 -0.1159
  920MOL0     C21315   8.495   4.787   6.509  0.7561  0.1626 -0.4222
  920MOL0     O21316   8.388   4.698   6.540 -0.2217  0.9628  0.0880
  920MOL0     C21317   8.282   4.778   6.597 -0.2811 -0.2228 -0.4825
  920MOL0     C21318   8.158   4.687   6.590  0.0780  1.0440 -0.6400
  920MOL0     C21319   8.055   4.757   6.675  0.3718 -0.3507  0.6780
  920MOL0     C21320   7.927   4.666   6.685  0.2366  0.6281 -0.0134
  920MOL0     C21321   7.799   4.739   6.731 -0.2480 -0.0546  0.3767
  920MOL0     C21322   7.686   4.629   6.731  0.6374  0.0446 -0.8927
  920MOL0     C21323   7.551   4.683   6.788  0.6500  0.8032 -0.6372
  920MOL0     C21324   7.507   4.815   6.726  0.3467  0.0656 -0.3853
  920MOL0     N21325   7.384   4.848   6.793  0.1655  0.2573  0.1456
  920MOL0     C21326   7.256   4.828   6.751  0.1362  0.9590  0.7135
  920MOL0     C21327   7.178   4.877   6.847  0.8502 -0.1800 -0.6560
  920MOL0     C21328   7.024   4.888   6.835  0.2005 -0.8721 -0.0307
  920MOL0     C21329   6.968   5.018   6.892 -1.1925  0.6831 -0.0058
  920MOL0     C21330   6.820   5.032   6.872  0.5630  0.4968 -0.2027
  920MOL0     C21331   6.734   4.944   6.961 -0.1219 -0.0808 -0.1858
  920MOL0     O21332   6.738   4.987   7.101  0.1580  0.2184 -0.1069
  920MOL0     C21333   6.631   5.063   7.158 -0.1023  0.6004 -0.1920
  920MOL0     C21334   6.539   5.132   7.088  0.1582 -0.5512  0.2561
  920MOL0     C21335   6.438   5.214   7.147 -0.2537 -0.3264  0.2349
  920MOL0     C21336   6.429   5.223   7.290  0.2035 -0.1802  0.5764
  920MOL0     C21337   6.307   5.280   7.360  0.4560  0.2382  0.7653
  920MOL0     O21338   6.297   5.254   7.499  0.0226 -0.0637  0.2529
  920MOL0     C21339   6.189   5.293   7.575  0.7772 -0.3279 -0.2324
  920MOL0     C21340   6.123   5.416   7.553 -0.4526  0.2557 -0.9222
  920MOL0     C21341   6.022   5.453   7.639 -0.2123  0.1164 -0.2710
  920MOL0     C21342   5.987   5.372   7.751  0.6688 -0.2336 -0.1440
  920MOL0     O21343   5.881   5.417   7.830 -0.0598  0.0229  0.1877
  920MOL0     C21344   5.855   5.347   7.955  0.3308 -0.8429  0.3768
  920MOL0     C21345   5.789   5.448   8.045 -0.1510 -0.2809  0.5035
  920MOL0     C21346   5.721   5.369   8.156 -0.0983 -0.9574 -0.3331
  920MOL0     C21347   5.659   5.465   8.258 -0.4392 -0.4081 -0.7648
  920MOL0     C21348   5.603   5.398   8.377  0.9546  0.0116  0.2881
  920MOL0     C21349   5.482   5.314   8.336 -0.2443  0.4565  0.5726
  920MOL0     C21350   5.413   5.262   8.459 -0.6330  0.6117  0.2404
  920MOL0     C21351   5.294   5.175   8.429  0.3092 -0.0795  0.5890
  920MOL0    Cl21352   5.154   5.289   8.385  0.5128  0.3808  0.3836
  920MOL0     C21353   6.054   5.246   7.773  0.4065  0.6898  0.3328
  920MOL0     C21354   6.154   5.213   7.683  0.3862 -0.2149  0.4444
  920MOL0     O21355   6.223   5.332   7.287  0.6896 -0.1556 -0.2647
  920MOL0     C21356   6.528   5.160   7.362  0.1984 -0.0670 -0.2522
  920MOL0     C21357   6.630   5.072   7.298 -0.5900 -0.9811  0.1245
  920MOL0     N21358   7.256   4.925   6.951 -0.2510 -0.7969 -0.9717
  920MOL0     N21359   7.375   4.909   6.915  0.1610 -0.2748  1.1486
  920MOL0     C21360   8.543   4.780   6.384 -0.1285 -0.2436  1.1224
  920MOL0     C21361   8.656   4.856   6.349 -0.0925  0.4318 -0.4023
  920MOL0     C21362   9.066   4.991   6.374  0.1955 -0.7376  0.4528
  920MOL0     C21363   9.073   5.124   6.415 -0.2375  0.1645  0.1305
  920MOL0     C21364   9.188   5.198   6.408  0.1945 -0.2733 -0.1594
  920MOL0     C21365   9.305   5.154   6.355 -0.3147  0.7405  0.0275
  920MOL0     O21366   9.420   5.233   6.363  0.0615 -0.0654  0.1459
  920MOL0     C21367   9.554   5.180   6.348  0.3003 -0.1734  0.5488
  920MOL0     C21368   9.606   5.199   6.200  0.0544  0.6728 -0.2229
  920MOL0     C21369   9.750   5.166   6.177 -1.0246 -0.2109 -0.4651
  920MOL0     C21370   9.817   5.205   6.046 -0.1266 -0.0117 -0.1646
  920MOL0     C21371   9.940   5.131   6.042 -0.8404 -0.3802  0.3090
  920MOL0     C21372  10.046   5.074   6.024  0.0393  0.8011  0.4481
  920MOL0     C21373   9.309   5.022   6.306 -0.3077 -0.2397 -0.1402
  920MOL0     C21374   9.189   4.943   6.316 -0.2787 -0.2470  0.2450
  920MOL0     H21375   8.702   5.024   6.640 -0.6145  0.9542 -0.8026
  920MOL0     H21376   8.503   4.895   6.701  3.0034  2.2747  0.7106
  920MOL0     H21377   8.266   4.865   6.531  1.5111 -0.4635 -1.2828
  920MOL0     H21378   8.312   4.814   6.696  0.7861  0.5632 -1.0642
  920MOL0     H21379   8.173   4.588   6.634 -0.2006  1.0372 -0.5555
  920MOL0     H21380   8.131   4.665   6.487 -0.3222 -0.9475 -0.1514
  920MOL0     H21381   8.027   4.846   6.618 -1.3101 -1.4892 -0.4108
  920MOL0     H21382   8.078   4.764   6.781 -1.6097 -1.1054  1.2143
  920MOL0     H21383   7.900   4.619   6.590 -2.9201 -0.9615  1.5165
  920MOL0     H21384   7.946   4.584   6.754  0.6452  0.6712 -0.0702
  920MOL0     H21385   7.772   4.821   6.664  0.4755  1.0726  1.4089
  920MOL0     H21386   7.801   4.784   6.831 -0.6746  1.2293 -0.1739
  920MOL0     H21387   7.714   4.540   6.786 -0.0612  1.0309  1.1502
  920MOL0     H21388   7.666   4.610   6.625 -0.2226  0.1639 -0.7609
  920MOL0     H21389   7.485   4.600   6.763  3.3191 -1.8124  0.3261
  920MOL0     H21390   7.562   4.685   6.897 -0.7013 -0.9658 -0.4212
  920MOL0     H21391   7.485   4.795   6.620 -0.3243 -0.8950 -0.0831
  920MOL0     H21392   7.578   4.894   6.751 -0.3846  0.1628  1.5029
  920MOL0     H21393   7.225   4.770   6.665 -0.4875 -1.0515  2.2510
  920MOL0     H21394   6.992   4.803   6.896 -3.0798 -0.3654 -0.8792
  920MOL0     H21395   6.991   4.871   6.733  1.1305 -3.9747  0.0624
  920MOL0     H21396   7.007   5.101   6.831 -0.0626  1.9482  2.3045
  920MOL0     H21397   6.990   5.052   6.993  1.8364  2.2066 -1.0620
  920MOL0     H21398   6.791   5.136   6.890  2.4784  0.7212  2.1926
  920MOL0     H21399   6.792   5.010   6.769  2.8659  1.5904 -1.1492
  920MOL0     H21400   6.769   4.841   6.959  0.7831  0.2138 -0.2689
  920MOL0     H21401   6.629   4.937   6.933 -0.6648 -0.5420  1.8059
  920MOL0     H21402   6.545   5.110   6.982  1.8789 -1.1829  0.4438
  920MOL0     H21403   6.373   5.257   7.071  1.6971 -0.0381 -1.3575
  920MOL0     H21404   6.156   5.483   7.474  1.4896 -1.8534 -2.0389
  920MOL0     H21405   5.975   5.548   7.618  2.2571  1.4256 -0.1965
  920MOL0     H21406   5.949   5.312   7.999  1.8109  4.0304  1.7706
  920MOL0     H21407   5.781   5.269   7.936 -0.9567  0.7530 -1.6180
  920MOL0     H21408   5.713   5.513   8.001  1.2231  2.1431  1.5337
  920MOL0     H21409   5.861   5.520   8.085  0.8009 -1.3650  0.8008
  920MOL0     H21410   5.800   5.302   8.192 -0.8164 -0.7864  1.6672
  920MOL0     H21411   5.636   5.314   8.116 -1.3322  0.0858  0.7629
  920MOL0     H21412   5.738   5.531   8.293 -1.6450  0.5389  0.2767
  920MOL0     H21413   5.584   5.526   8.207  0.2594  1.6536  0.5666
  920MOL0     H21414   5.577   5.469   8.455  1.7506 -1.8550  2.3477
  920MOL0     H21415   5.678   5.329   8.416 -0.4536 -1.9102 -0.2308
  920MOL0     H21416   5.502   5.230   8.270  0.4571  0.5444  0.6703
  920MOL0     H21417   5.413   5.373   8.275 -0.7590  0.7138  1.3896
  920MOL0     H21418   5.482   5.210   8.526 -1.2653 -0.3711  0.1434
  920MOL0     H21419   5.377   5.354   8.505 -0.4026  0.6327  0.3833
  920MOL0     H21420   5.260   5.129   8.522 -3.6965  2.1196  0.4391
  920MOL0     H21421   5.314   5.093   8.359  0.4324  0.2398  0.2469
  920MOL0     H21422   6.020   5.177   7.850 -0.8550  1.6396  0.6651
  920MOL0     H21423   6.216   5.124   7.692  1.0791  0.2310  0.1741
  920MOL0     H21424   6.535   5.187   7.467  0.6019  2.4150 -0.8513
  920MOL0     H21425   6.704   5.035   7.368 -0.6039 -0.7241  0.2779
  920MOL0     H21426   8.498   4.716   6.310  1.8955  1.0712 -1.4019
  920MOL0     H21427   8.696   4.865   6.248  1.3486  1.8879  0.2519
  920MOL0     H21428   8.989   5.180   6.454  0.9253  2.6349 -0.6700
  920MOL0     H21429   9.188   5.303   6.434  2.5511 -0.3541  0.4487
  920MOL0     H21430   9.549   5.078   6.388 -0.7105  0.2898  1.6524
  920MOL0     H21431   9.620   5.241   6.410  1.0475 -0.8084  0.3888
  920MOL0     H21432   9.545   5.139   6.132 -2.0153 -0.2350  2.2816
  920MOL0     H21433   9.605   5.302   6.165 -1.0706  0.3347 -1.2594
  920MOL0     H21434   9.756   5.056   6.181  0.3735 -0.1246  0.2035
  920MOL0     H21435   9.804   5.205   6.264 -0.8734 -0.0792 -0.6175
  920MOL0     H21436   9.760   5.174   5.958  0.0090 -2.3942  0.5160
  920MOL0     H21437   9.833   5.312   6.031  0.2153 -0.0137  0.1429
  920MOL0     H21438  10.134   5.013   6.026 -1.5021 -1.5546  1.4390
  920MOL0     H21439   9.397   4.986   6.253 -0.6796  1.4608 -2.0372
  920MOL0     H21440   9.183   4.845   6.270 -1.5735 -0.8438  1.5784
  921MOL0     O21441   8.921   5.724   0.719  0.3497  0.3046  0.0187
  921MOL0     C21442   8.913   5.830   0.659 -0.5390 -0.1694  0.9718
  921MOL0     O21443   8.815   5.875   0.573  0.1525  0.0469  0.1697
  921MOL0     C21444   8.691   5.808   0.591 -0.2986  0.4232  0.3897
  921MOL0     C21445   8.579   5.868   0.652  0.8133  0.0481 -0.6189
  921MOL0     C21446   8.454   5.801   0.666 -0.4682 -0.1636 -0.9779
  921MOL0     C21447   8.432   5.673   0.616 -0.3429 -0.0458 -0.2325
  921MOL0     O21448   8.323   5.601   0.624  0.2852  0.0936  0.0416
  921MOL0     C21449   8.216   5.666   0.550  0.3552  0.7193 -0.4323
  921MOL0     C21450   8.114   5.556   0.520 -0.1082  0.5376 -0.1977
  921MOL0     C21451   8.167   5.450   0.423 -0.1910 -0.1804  0.2094
  921MOL0     C21452   8.068   5.353   0.366 -0.5676  0.5008 -0.3474
  921MOL0     C21453   8.114   5.204   0.384 -0.3574 -0.7041 -0.1196
  921MOL0     C21454   8.116   5.164   0.532 -0.2474  0.2322  0.2548
  921MOL0     C21455   8.095   5.015   0.547 -0.6347 -0.6415  0.1077
  921MOL0     C21456   8.192   4.937   0.453  0.2536  0.4223 -0.1483
  921MOL0     N21457   8.215   4.802   0.507 -0.3633  0.8052 -0.2902
  921MOL0     C21458   8.141   4.686   0.467 -0.2808 -0.4234 -0.2036
  921MOL0     C21459   8.151   4.595   0.570 -0.3774 -0.3309 -0.2938
  921MOL0     C21460   8.084   4.463   0.560 -0.0459 -0.6556 -0.6173
  921MOL0     C21461   8.086   4.390   0.699  0.9562  0.2334 -0.2239
  921MOL0     C21462   8.012   4.261   0.707  0.8072  0.4938  0.3226
  921MOL0     C21463   7.859   4.278   0.675  0.3818  0.2395 -0.1194
  921MOL0     O21464   7.787   4.347   0.774  0.0214 -0.4827  0.4034
  921MOL0     C21465   7.721   4.284   0.874  0.1977 -0.4326 -0.1422
  921MOL0     C21466   7.744   4.156   0.914  0.7733 -0.4715 -0.1442
  921MOL0     C21467   7.691   4.097   1.034 -0.2824 -0.1793 -0.6336
  921MOL0     C21468   7.616   4.180   1.122 -0.9552  0.4464  0.5416
  921MOL0     C21469   7.551   4.125   1.243  0.4795 -0.2471  0.6062
  921MOL0     O21470   7.432   4.186   1.291  0.1275  0.1046 -0.3990
  921MOL0     C21471   7.349   4.136   1.385  0.3413 -0.1172  0.2669
  921MOL0     C21472   7.250   4.228   1.415  0.7150 -0.1753 -0.7659
  921MOL0     C21473   7.147   4.199   1.509  0.0066 -0.0268  0.1896
  921MOL0     C21474   7.140   4.071   1.558  0.8526 -0.7330 -0.5316
  921MOL0     O21475   7.026   4.036   1.633 -1.2352 -0.0087  0.0953
  921MOL0     C21476   6.999   4.125   1.742 -0.3762 -0.5020 -0.3794
  921MOL0     C21477   6.870   4.086   1.806 -0.9374  0.0422  0.3688
  921MOL0     C21478   6.744   4.128   1.730 -0.3223  0.0728 -0.2032
  921MOL0     C21479   6.682   4.015   1.640  0.2299  0.7846  0.2643
  921MOL0     C21480   6.541   4.028   1.576  0.3927  0.0939  0.5529
  921MOL0     C21481   6.501   3.932   1.469  0.1845  0.2188 -1.0314
  921MOL0     C21482   6.352   3.898   1.476 -0.3528  0.0053 -0.1590
  921MOL0     C21483   6.262   4.006   1.434  0.2555  0.3748 -0.2766
  921MOL0    Cl21484   6.294   4.037   1.260  0.1327 -0.3853  0.4418
  921MOL0     C21485   7.238   3.981   1.529  0.4939 -0.1177 -0.8717
  921MOL0     C21486   7.339   4.012   1.441 -0.6486 -0.0716  0.5123
  921MOL0     O21487   7.591   4.014   1.287  0.0081  0.5865 -0.0224
  921MOL0     C21488   7.581   4.309   1.075 -0.5427  0.6827 -0.0234
  921MOL0     C21489   7.638   4.359   0.955  0.9076  0.3784 -0.5822
  921MOL0     N21490   8.235   4.655   0.672  0.5442 -1.0936  0.3650
  921MOL0     N21491   8.277   4.770   0.625  1.3832 -0.5521  0.0761
  921MOL0     C21492   8.545   5.606   0.564 -0.3620  0.7578  0.5120
  921MOL0     C21493   8.672   5.675   0.544  1.1736  0.2643 -0.1919
  921MOL0     C21494   9.021   5.935   0.667  0.9178  0.6804 -0.5733
  921MOL0     C21495   9.122   5.921   0.767 -0.1212 -0.0465 -0.3685
  921MOL0     C21496   9.221   6.017   0.785 -0.5333 -0.0687  0.9931
  921MOL0     C21497   9.230   6.130   0.697  1.3226 -0.6926  0.2630
  921MOL0     O21498   9.330   6.223   0.694 -0.0299  0.0414  0.5452
  921MOL0     C21499   9.459   6.188   0.765  0.8215 -0.5425 -0.6547
  921MOL0     C21500   9.562   6.280   0.727 -0.0411 -0.2850  0.0270
  921MOL0     C21501   9.615   6.239   0.584  0.3372  0.8910  0.6563
  921MOL0     C21502   9.517   6.278   0.474 -0.1580 -0.3376 -0.0601
  921MOL0     C21503   9.587   6.274   0.343  0.4222 -0.8778 -0.2207
  921MOL0     C21504   9.647   6.278   0.240 -0.9196 -0.3756 -0.1890
  921MOL0     C21505   9.125   6.146   0.601  0.1882  0.6291 -0.1832
  921MOL0     C21506   9.021   6.051   0.583  0.1266  0.3658 -0.9928
  921MOL0     H21507   8.588   5.962   0.704  0.3572 -0.4333  0.3716
  921MOL0     H21508   8.377   5.850   0.726 -1.5362 -1.0492 -1.6041
  921MOL0     H21509   8.247   5.704   0.453  2.9260  0.0515  0.0742
  921MOL0     H21510   8.166   5.741   0.613 -2.4695 -2.3595  1.3375
  921MOL0     H21511   8.018   5.593   0.481 -0.3249 -1.2541 -1.4937
  921MOL0     H21512   8.079   5.500   0.608 -0.0669 -0.4389 -0.7845
  921MOL0     H21513   8.251   5.398   0.470  0.1718  0.5249  0.3544
  921MOL0     H21514   8.202   5.518   0.344  0.4737  0.1999  0.8211
  921MOL0     H21515   7.969   5.375   0.408  0.1236  2.6594  0.2487
  921MOL0     H21516   8.076   5.374   0.260 -1.5711  1.5189 -0.2398
  921MOL0     H21517   8.219   5.207   0.355 -0.5843  0.6985 -0.8965
  921MOL0     H21518   8.056   5.140   0.317 -0.4598 -0.0848 -0.6336
  921MOL0     H21519   8.034   5.212   0.588 -1.1118 -0.6989 -0.1752
  921MOL0     H21520   8.210   5.201   0.574  1.5491 -1.8166 -1.7607
  921MOL0     H21521   8.123   4.994   0.651 -0.8001  1.3564  0.5900
  921MOL0     H21522   7.992   4.989   0.519 -1.1015  0.3201  0.8828
  921MOL0     H21523   8.288   4.988   0.456 -0.1775  1.2597 -0.2690
  921MOL0     H21524   8.149   4.921   0.353 -0.8089  0.8219  0.2254
  921MOL0     H21525   8.079   4.677   0.377  1.3659 -1.4408 -1.2964
  921MOL0     H21526   8.143   4.406   0.487  1.1111  1.9266 -1.8320
  921MOL0     H21527   7.982   4.488   0.530 -2.3493 -3.0887  4.0298
  921MOL0     H21528   8.035   4.454   0.772  0.2259 -0.8014  0.1981
  921MOL0     H21529   8.187   4.374   0.739  0.4954 -2.7389 -0.0107
  921MOL0     H21530   8.064   4.200   0.632 -0.4001  2.3462 -2.1417
  921MOL0     H21531   8.015   4.218   0.808 -1.2938 -0.3246  0.0745
  921MOL0     H21532   7.820   4.180   0.649 -0.8352  0.4350  0.8754
  921MOL0     H21533   7.845   4.335   0.582 -0.5767  3.0280  1.5945
  921MOL0     H21534   7.808   4.090   0.856  1.5959 -0.5452  0.8284
  921MOL0     H21535   7.713   3.992   1.052 -0.2883 -0.0268  0.3049
  921MOL0     H21536   7.253   4.329   1.374 -1.8318 -0.0093 -0.6731
  921MOL0     H21537   7.085   4.285   1.533  0.7341  0.6721 -0.3596
  921MOL0     H21538   6.979   4.227   1.708 -0.3266 -0.6991 -1.0134
  921MOL0     H21539   7.078   4.131   1.817  0.2540  2.5781 -1.1881
  921MOL0     H21540   6.870   4.128   1.906  0.0912  1.7217 -0.3031
  921MOL0     H21541   6.869   3.978   1.823 -1.1958  0.1928  1.3509
  921MOL0     H21542   6.776   4.213   1.669  1.6552 -0.1312  0.4882
  921MOL0     H21543   6.669   4.160   1.803 -1.1656 -2.7769  0.3211
  921MOL0     H21544   6.753   3.996   1.558 -1.8013  0.1978 -1.4415
  921MOL0     H21545   6.684   3.925   1.702  0.9540  0.8285  0.3202
  921MOL0     H21546   6.551   4.126   1.528  6.1529 -0.8846 -0.8997
  921MOL0     H21547   6.465   4.023   1.655 -0.6150  1.8605 -0.2341
  921MOL0     H21548   6.552   3.837   1.486  0.0853  0.2878 -0.2783
  921MOL0     H21549   6.541   3.968   1.374  1.4481  2.6015  0.2989
  921MOL0     H21550   6.338   3.816   1.405 -1.1881  0.5382 -0.6180
  921MOL0     H21551   6.321   3.866   1.576 -0.4985  0.3006 -0.1080
  921MOL0     H21552   6.285   4.091   1.500  1.0324  0.8137 -1.0868
  921MOL0     H21553   6.164   3.967   1.463  1.8071 -4.2073 -0.4042
  921MOL0     H21554   7.227   3.881   1.570 -0.7155 -0.1977 -1.3525
  921MOL0     H21555   7.407   3.934   1.409 -2.2927 -0.5104 -2.3104
  921MOL0     H21556   7.515   4.372   1.134 -2.1270 -0.8592 -0.1007
  921MOL0     H21557   7.604   4.460   0.936  0.7956  0.1124 -1.8831
  921MOL0     H21558   8.547   5.501   0.537 -0.9758  0.5682  1.1912
  921MOL0     H21559   8.760   5.633   0.495  0.2918  0.9122 -2.4215
  921MOL0     H21560   9.110   5.840   0.839 -2.4694  1.4551  1.0394
  921MOL0     H21561   9.297   5.995   0.859 -0.0270 -0.8434  0.2668
  921MOL0     H21562   9.488   6.083   0.772  1.4404 -0.2676  1.9705
  921MOL0     H21563   9.430   6.204   0.869 -0.8045 -1.1391 -0.9859
  921MOL0     H21564   9.525   6.383   0.731  1.1508  0.1563  0.3761
  921MOL0     H21565   9.640   6.280   0.804 -0.2321  0.4681  0.2314
  921MOL0     H21566   9.617   6.130   0.585 -0.9821  0.8511  1.1786
  921MOL0     H21567   9.714   6.275   0.554  0.1695  0.1786 -0.8587
  921MOL0     H21568   9.432   6.208   0.470 -0.1830 -0.2907 -0.3568
  921MOL0     H21569   9.480   6.381   0.472  1.6822  0.3911  0.8412
  921MOL0     H21570   9.706   6.275   0.150  2.4406 -3.7073  1.8536
  921MOL0     H21571   9.133   6.238   0.543 -3.7321  1.9074  0.9897
  921MOL0     H21572   8.947   6.077   0.508  0.3584  0.4373 -1.1997
  922MOL0     O21573   7.011   6.340   2.266 -0.8115  1.0035  0.2568
  922MOL0     C21574   7.019   6.357   2.140 -0.0171 -0.0135 -0.0187
  922MOL0     O21575   6.911   6.370   2.060 -0.2120  0.0492 -0.5279
  922MOL0     C21576   6.793   6.406   2.123  0.1840  0.7555  0.1230
  922MOL0     C21577   6.681   6.328   2.091 -0.2809 -0.1707 -0.6855
  922MOL0     C21578   6.557   6.350   2.141  0.4928 -0.1119  0.3731
  922MOL0     C21579   6.536   6.460   2.233 -0.7621  0.1156  1.1120
  922MOL0     O21580   6.420   6.506   2.290  0.1589  0.3480  0.1164
  922MOL0     C21581   6.309   6.410   2.279  0.5069  0.8904 -0.2008
  922MOL0     C21582   6.204   6.460   2.386 -0.3828  0.3704  0.4736
  922MOL0     C21583   6.062   6.439   2.343 -0.0545  0.2175 -0.0298
  922MOL0     C21584   5.959   6.488   2.451 -0.2360 -0.0184  0.6277
  922MOL0     C21585   5.812   6.470   2.409 -0.1611 -0.0252  0.2392
  922MOL0     C21586   5.710   6.497   2.518 -0.0187  1.0786 -0.6489
  922MOL0     C21587   5.687   6.646   2.561 -0.1421  0.8026  0.2678
  922MOL0     C21588   5.541   6.681   2.552  0.5341 -0.0689 -0.4204
  922MOL0     N21589   5.456   6.607   2.645  0.9349 -0.5295  0.0703
  922MOL0     C21590   5.483   6.610   2.781  0.5058  0.3684 -0.2406
  922MOL0     C21591   5.372   6.556   2.831  0.2973 -0.5723 -0.3042
  922MOL0     C21592   5.323   6.553   2.973  0.5461  0.0557  0.1255
  922MOL0     C21593   5.359   6.434   3.057  0.0069  0.6465 -0.7288
  922MOL0     C21594   5.512   6.422   3.070  0.2459 -0.2540 -0.3258
  922MOL0     C21595   5.567   6.338   3.176 -0.4162 -0.8054 -0.0383
  922MOL0     O21596   5.517   6.201   3.169 -0.2200 -0.2555  0.5179
  922MOL0     C21597   5.599   6.112   3.109  0.0795  0.6571  0.4754
  922MOL0     C21598   5.719   6.077   3.174  0.4887 -0.3432  0.2097
  922MOL0     C21599   5.794   5.964   3.138 -0.6271  0.4399  0.5521
  922MOL0     C21600   5.754   5.900   3.020 -0.1671 -0.1120  0.2197
  922MOL0     C21601   5.837   5.793   2.958 -0.5466 -0.2976  0.6089
  922MOL0     O21602   5.823   5.773   2.821 -0.1794  0.7824 -0.2048
  922MOL0     C21603   5.914   5.697   2.759  0.5597 -0.3101  0.0873
  922MOL0     C21604   6.049   5.738   2.734 -0.3939  0.3121 -0.2203
  922MOL0     C21605   6.138   5.661   2.654 -0.2705  0.6562 -0.2116
  922MOL0     C21606   6.091   5.540   2.602  1.3307  0.7673 -0.1378
  922MOL0     O21607   6.166   5.462   2.515 -0.2108 -0.1114 -0.0438
  922MOL0     C21608   6.256   5.531   2.421 -0.4621  0.5241 -0.1800
  922MOL0     C21609   6.402   5.506   2.455  0.1466  0.3674 -0.3044
  922MOL0     C21610   6.500   5.575   2.365 -0.1086  0.2264  0.3435
  922MOL0     C21611   6.644   5.530   2.367 -0.2744  0.5115  0.2191
  922MOL0     C21612   6.708   5.567   2.232  0.2936 -0.1253  0.9038
  922MOL0     C21613   6.864   5.558   2.233  0.4195  0.9262  0.3647
  922MOL0     C21614   6.932   5.655   2.318 -0.6479  0.3925 -0.7811
  922MOL0     C21615   7.041   5.598   2.399  0.2656  0.3900 -0.3789
  922MOL0    Cl21616   7.165   5.508   2.302 -0.1515 -0.1537  0.1648
  922MOL0     C21617   5.956   5.496   2.632  0.2980 -0.0252 -0.5036
  922MOL0     C21618   5.879   5.571   2.715  0.5408  0.0147 -0.0726
  922MOL0     O21619   5.931   5.746   3.022  0.3848 -0.0123 -0.7383
  922MOL0     C21620   5.628   5.927   2.965 -0.6363 -0.1734  0.0901
  922MOL0     C21621   5.548   6.031   3.006  0.6253 -0.1575 -0.4408
  922MOL0     N21622   5.282   6.529   2.736  0.0822 -0.0900  0.1163
  922MOL0     N21623   5.332   6.540   2.618  0.0749 -0.1213  0.1614
  922MOL0     C21624   6.651   6.534   2.274 -0.5289  0.0740 -0.4030
  922MOL0     C21625   6.786   6.509   2.222 -0.0091 -0.3085  0.4507
  922MOL0     C21626   7.151   6.342   2.078  0.1670  0.1709  0.0144
  922MOL0     C21627   7.162   6.332   1.938 -0.0211 -0.1808  0.7267
  922MOL0     C21628   7.291   6.341   1.878  0.4702 -0.0131 -0.2700
  922MOL0     C21629   7.406   6.334   1.954 -0.5697 -0.2754 -0.2082
  922MOL0     O21630   7.524   6.323   1.883  0.3110  0.3196  0.4006
  922MOL0     C21631   7.646   6.293   1.955  0.8764 -0.5457  0.1255
  922MOL0     C21632   7.753   6.250   1.855  0.1272 -0.5808  0.5238
  922MOL0     C21633   7.736   6.331   1.723 -0.2743 -0.7101  0.4160
  922MOL0     C21634   7.861   6.347   1.636 -0.3203 -0.1348  0.1930
  922MOL0     C21635   7.935   6.224   1.592  0.4685  0.1818  0.2363
  922MOL0     C21636   8.015   6.132   1.571  0.8734  0.1407  0.0464
  922MOL0     C21637   7.397   6.331   2.092  0.1219  0.1463  0.3538
  922MOL0     C21638   7.269   6.342   2.152 -0.7085  0.9422 -0.1169
  922MOL0     H21639   6.700   6.233   2.043  0.5962 -0.4183  0.1090
  922MOL0     H21640   6.475   6.288   2.104  1.4054 -0.4874 -1.1076
  922MOL0     H21641   6.347   6.313   2.312 -0.5486  1.0498  1.6215
  922MOL0     H21642   6.262   6.406   2.181 -0.6418 -2.3709  0.3569
  922MOL0     H21643   6.223   6.565   2.411  2.1508 -0.2316  1.3703
  922MOL0     H21644   6.217   6.413   2.483 -2.2466  1.3753  1.2626
  922MOL0     H21645   6.049   6.334   2.317 -0.6964  0.4119 -0.5384
  922MOL0     H21646   6.035   6.490   2.250 -1.9011 -0.6553 -0.0074
  922MOL0     H21647   5.961   6.416   2.533 -4.8833 -0.6747  0.4755
  922MOL0     H21648   5.980   6.591   2.481  1.3203 -0.1919  0.2258
  922MOL0     H21649   5.799   6.370   2.366  2.9634 -0.4113 -0.0651
  922MOL0     H21650   5.794   6.535   2.323  2.9875  1.6769  0.7087
  922MOL0     H21651   5.738   6.442   2.608  1.0907  0.8960 -1.0981
  922MOL0     H21652   5.616   6.450   2.486 -0.0959  1.3135 -0.7738
  922MOL0     H21653   5.720   6.676   2.661 -1.8136  1.2812  0.7030
  922MOL0     H21654   5.745   6.708   2.492  1.3604 -1.3174 -0.4511
  922MOL0     H21655   5.505   6.663   2.450 -1.3873  2.5148 -0.3171
  922MOL0     H21656   5.532   6.789   2.562 -0.5452  0.0969 -2.5390
  922MOL0     H21657   5.563   6.663   2.831 -0.6479  2.3483 -0.3771
  922MOL0     H21658   5.214   6.563   2.972  0.5005  1.3387 -4.2321
  922MOL0     H21659   5.351   6.647   3.021  1.4427 -0.6839  1.0982
  922MOL0     H21660   5.313   6.347   3.009  0.5663  0.1057 -0.2976
  922MOL0     H21661   5.308   6.448   3.153 -0.2893  1.4432 -0.9927
  922MOL0     H21662   5.547   6.388   2.971  0.7287 -2.1334  0.4343
  922MOL0     H21663   5.549   6.522   3.094 -2.0441  0.3642  0.9167
  922MOL0     H21664   5.538   6.382   3.272 -0.5048  1.1299 -0.9196
  922MOL0     H21665   5.675   6.341   3.163 -0.2699 -0.3454  1.1457
  922MOL0     H21666   5.752   6.136   3.259  2.5040  0.2142 -0.9084
  922MOL0     H21667   5.891   5.942   3.182 -1.7659  0.1416  3.0318
  922MOL0     H21668   6.068   5.843   2.750 -0.8943  0.7866 -2.4622
  922MOL0     H21669   6.242   5.691   2.643  0.5852 -2.0911 -0.3622
  922MOL0     H21670   6.239   5.639   2.417  1.6148  0.8886  0.0435
  922MOL0     H21671   6.243   5.487   2.322 -2.0248 -0.8480  0.5701
  922MOL0     H21672   6.411   5.397   2.463 -0.2523  0.3923  0.6339
  922MOL0     H21673   6.413   5.530   2.562  1.0781  1.8889 -0.7137
  922MOL0     H21674   6.493   5.684   2.371 -0.2184  0.4593 -2.7885
  922MOL0     H21675   6.472   5.553   2.262  0.2984  1.4328 -0.0430
  922MOL0     H21676   6.684   5.587   2.451 -0.7452 -0.8069  1.3635
  922MOL0     H21677   6.666   5.424   2.384  0.5775  0.6823  0.1959
  922MOL0     H21678   6.677   5.667   2.200  2.1408  0.1769 -0.0853
  922MOL0     H21679   6.675   5.488   2.164 -1.2149 -0.3208  1.8301
  922MOL0     H21680   6.914   5.574   2.138  0.3332 -0.2759  0.0950
  922MOL0     H21681   6.889   5.453   2.252  0.1912  0.5019 -1.5591
  922MOL0     H21682   6.968   5.736   2.254 -1.0734  1.0371 -0.2142
  922MOL0     H21683   6.858   5.711   2.376 -1.3277 -0.7212 -0.5250
  922MOL0     H21684   7.002   5.533   2.478  1.6292 -1.0270 -0.8316
  922MOL0     H21685   7.087   5.682   2.452  0.0027 -1.0589  2.3139
  922MOL0     H21686   5.922   5.401   2.592 -1.1192  0.8850 -1.5217
  922MOL0     H21687   5.777   5.539   2.733 -0.2955  2.8190  0.5863
  922MOL0     H21688   5.601   5.873   2.875  1.4318  0.6316 -1.0835
  922MOL0     H21689   5.447   6.044   2.967  0.9232  0.5271 -0.9881
  922MOL0     H21690   6.623   6.604   2.352  1.9049  0.8859 -0.1651
  922MOL0     H21691   6.872   6.568   2.254 -0.9187  0.3987  1.6782
  922MOL0     H21692   7.074   6.343   1.875 -0.4169  0.4526  1.3847
  922MOL0     H21693   7.305   6.329   1.771 -0.3532  2.2785 -0.7030
  922MOL0     H21694   7.623   6.210   2.023  0.1005 -1.0282 -0.7124
  922MOL0     H21695   7.678   6.380   2.013 -0.6845 -0.5393  1.0493
  922MOL0     H21696   7.854   6.264   1.894  0.0054  0.2054  0.5793
  922MOL0     H21697   7.743   6.143   1.832 -1.9468 -0.7724  1.9767
  922MOL0     H21698   7.713   6.435   1.747  3.9800  0.1472  1.5368
  922MOL0     H21699   7.651   6.286   1.670 -2.0777  1.2748  1.4804
  922MOL0     H21700   7.838   6.409   1.549  2.5381  1.8830  0.7490
  922MOL0     H21701   7.930   6.407   1.697 -1.1522 -0.8515  1.8921
  922MOL0     H21702   8.072   6.041   1.568 -1.9190 -1.8754  2.4913
  922MOL0     H21703   7.491   6.337   2.145  0.2076  1.5344  0.0856
  922MOL0     H21704   7.268   6.331   2.260 -4.5222 -0.5422 -0.1704
  923MOL0     O21705   2.974   8.766   8.914  0.2612  0.1599 -0.5167
  923MOL0     C21706   2.937   8.719   9.024  0.5468 -0.0220 -0.0670
  923MOL0     O21707   2.815   8.683   9.055  0.0952  0.3641 -0.0885
  923MOL0     C21708   2.702   8.733   8.986  0.2369  0.3297 -0.1836
  923MOL0     C21709   2.595   8.639   8.969 -0.3874 -0.0345 -0.2534
  923MOL0     C21710   2.489   8.679   8.887  0.3991  0.0149 -0.4675
  923MOL0     C21711   2.479   8.806   8.827 -1.0792 -0.5839 -0.1199
  923MOL0     O21712   2.376   8.839   8.734  0.3391 -0.5405  0.5327
  923MOL0     C21713   2.252   8.788   8.781  0.2960  0.2077 -0.3620
  923MOL0     C21714   2.137   8.872   8.719 -0.6716 -0.0709 -0.7468
  923MOL0     C21715   2.000   8.830   8.749 -0.0074 -0.0725  0.3892
  923MOL0     C21716   1.903   8.897   8.660 -0.0795  0.1929  0.5031
  923MOL0     C21717   1.764   8.899   8.724  0.8835  0.7528 -0.5595
  923MOL0     C21718   1.696   8.764   8.701 -0.5717 -0.5137  0.0006
  923MOL0     C21719   1.560   8.766   8.771  0.5801  0.7310  0.0098
  923MOL0     C21720   1.445   8.869   8.722  0.9077  0.8277 -0.6497
  923MOL0     N21721   1.320   8.829   8.781  0.2864 -0.4864 -0.3991
  923MOL0     C21722   1.198   8.889   8.744 -1.0658  0.8101  1.0893
  923MOL0     C21723   1.113   8.864   8.842  0.5821 -0.2069 -0.5070
  923MOL0     C21724   0.963   8.886   8.833 -0.5158  0.3185 -0.7401
  923MOL0     C21725   0.927   9.026   8.880  0.1438  0.2880 -0.3969
  923MOL0     C21726   0.780   9.049   8.854  0.3974  0.4198 -0.1971
  923MOL0     C21727   0.733   9.192   8.870  0.0447 -0.3287 -0.2908
  923MOL0     O21728   0.597   9.193   8.810 -0.1189 -0.2765 -0.4473
  923MOL0     C21729   0.503   9.236   8.896 -0.1147 -0.2483  0.1021
  923MOL0     C21730   0.403   9.140   8.919  0.0952  0.3529 -0.8129
  923MOL0     C21731   0.307   9.153   9.027 -0.2675 -0.1772  0.6145
  923MOL0     C21732   0.306   9.276   9.102 -0.3248  0.3357  0.3686
  923MOL0     C21733   0.196   9.306   9.196  1.0603  1.5485  0.1792
  923MOL0     O21734   0.106   9.200   9.227 -0.1268 -0.3800 -0.1307
  923MOL0     C21735   0.028   9.228   9.339  0.1638  0.3333  1.3229
  923MOL0     C21736  -0.106   9.186   9.331  0.6670 -0.6064 -0.5696
  923MOL0     C21737  -0.188   9.190   9.447  0.4210 -0.2001 -0.6254
  923MOL0     C21738  -0.135   9.245   9.566  0.1527 -0.8390  0.6385
  923MOL0     O21739  -0.233   9.238   9.670 -0.8655  0.4135  0.0225
  923MOL0     C21740  -0.214   9.343   9.760  0.8188  0.0275 -0.2017
  923MOL0     C21741  -0.322   9.366   9.860  0.2515 -0.5676 -0.4387
  923MOL0     C21742  -0.376   9.239   9.928  0.3157 -0.1585 -0.3230
  923MOL0     C21743  -0.489   9.278  10.028  0.6576 -0.2232  0.4905
  923MOL0     C21744  -0.546   9.156  10.099  0.9192  0.5196  1.1378
  923MOL0     C21745  -0.656   9.172  10.197  0.1277 -0.3647  0.4225
  923MOL0     C21746  -0.789   9.227  10.146 -0.2676 -0.1770 -0.2668
  923MOL0     C21747  -0.908   9.198  10.241 -0.3266 -0.0575  0.8048
  923MOL0    Cl21748  -0.974   9.038  10.209  0.0846  0.0565 -0.7066
  923MOL0     C21749  -0.001   9.285   9.576  0.6739  0.1236  0.9296
  923MOL0     C21750   0.082   9.269   9.466 -0.0627  0.0917 -0.6213
  923MOL0     O21751   0.192   9.415   9.244  0.1198 -0.1830  0.1802
  923MOL0     C21752   0.403   9.372   9.070 -0.2957  0.6182  0.3436
  923MOL0     C21753   0.495   9.348   8.973 -0.6255  0.1278  0.3150
  923MOL0     N21754   1.176   8.788   8.936 -0.0625 -0.0963 -1.1597
  923MOL0     N21755   1.302   8.776   8.907  1.0870 -0.1102  0.0550
  923MOL0     C21756   2.581   8.905   8.862  0.1076  0.6023 -0.2892
  923MOL0     C21757   2.688   8.864   8.937 -0.4264  0.1206 -0.3185
  923MOL0     C21758   3.039   8.691   9.129  0.3014 -0.0404  0.0916
  923MOL0     C21759   3.032   8.589   9.225 -0.6062  0.7502  0.9312
  923MOL0     C21760   3.122   8.590   9.333 -0.2788 -0.1002 -0.0449
  923MOL0     C21761   3.226   8.685   9.352 -0.6174  0.2494 -0.4716
  923MOL0     O21762   3.316   8.657   9.456  0.2076 -0.2351 -0.8664
  923MOL0     C21763   3.426   8.744   9.461  0.1906  0.5581 -0.4198
  923MOL0     C21764   3.505   8.705   9.588 -0.2756  1.2619  1.1158
  923MOL0     C21765   3.590   8.572   9.564  0.0771 -0.3768  0.2119
  923MOL0     C21766   3.702   8.545   9.665  0.0680 -0.2019  0.8524
  923MOL0     C21767   3.797   8.652   9.669 -0.8753 -0.3402  0.2866
  923MOL0     C21768   3.876   8.747   9.680 -0.1995 -0.4904 -0.0330
  923MOL0     C21769   3.231   8.783   9.250 -0.1593 -0.1673 -0.2843
  923MOL0     C21770   3.143   8.788   9.147  0.8706 -0.3103  0.1192
  923MOL0     H21771   2.610   8.543   9.018  2.0504 -0.0265 -0.8451
  923MOL0     H21772   2.411   8.607   8.868 -0.9058  1.7675 -2.1005
  923MOL0     H21773   2.226   8.801   8.887 -4.6999 -0.9064 -1.2010
  923MOL0     H21774   2.247   8.684   8.747  0.0434  0.7039 -1.9403
  923MOL0     H21775   2.155   8.866   8.612  1.1313  0.9968 -0.5421
  923MOL0     H21776   2.155   8.977   8.747  1.2609 -0.4903 -0.2795
  923MOL0     H21777   1.988   8.849   8.856 -0.5637  1.7877  0.0283
  923MOL0     H21778   1.995   8.722   8.734  0.1112  0.0155 -0.3028
  923MOL0     H21779   1.940   8.992   8.619 -0.6582 -1.0187 -3.1811
  923MOL0     H21780   1.904   8.840   8.566 -0.4337  0.5506  0.2794
  923MOL0     H21781   1.700   8.980   8.688 -0.2690  0.5713  0.9517
  923MOL0     H21782   1.785   8.914   8.831 -1.0595 -1.0921  0.1454
  923MOL0     H21783   1.758   8.687   8.747 -1.5351 -0.0358  2.2146
  923MOL0     H21784   1.679   8.737   8.596 -0.2169  2.8192 -1.0376
  923MOL0     H21785   1.522   8.664   8.755  2.2718 -0.1171  1.0229
  923MOL0     H21786   1.576   8.774   8.879 -1.0567  1.9657  0.1912
  923MOL0     H21787   1.433   8.874   8.613 -2.5565  3.2615 -0.2941
  923MOL0     H21788   1.463   8.972   8.752 -0.2377  1.8386 -3.1172
  923MOL0     H21789   1.174   8.929   8.646  3.9899 -0.5603 -1.0339
  923MOL0     H21790   0.909   8.817   8.897 -0.6827 -0.1551 -1.3862
  923MOL0     H21791   0.935   8.869   8.729 -0.2808  0.3872 -0.8162
  923MOL0     H21792   0.989   9.102   8.831  0.6314  0.1188 -0.0506
  923MOL0     H21793   0.933   9.033   8.989 -1.0789 -0.8394 -0.2407
  923MOL0     H21794   0.752   9.007   8.758  1.1049 -0.0139 -0.2178
  923MOL0     H21795   0.723   8.984   8.921 -1.2142  0.6431 -1.3017
  923MOL0     H21796   0.797   9.263   8.817 -0.4742 -0.2208 -0.7840
  923MOL0     H21797   0.731   9.210   8.978  0.9575 -3.5988  0.3871
  923MOL0     H21798   0.416   9.048   8.864  2.6459  0.2840 -0.2324
  923MOL0     H21799   0.250   9.066   9.055  0.5504 -1.5110 -1.6233
  923MOL0     H21800  -0.153   9.142   9.243 -0.8376 -1.7379  0.7374
  923MOL0     H21801  -0.292   9.160   9.445 -0.1229  1.4332  0.4186
  923MOL0     H21802  -0.194   9.435   9.705  0.1102 -0.1165 -0.7209
  923MOL0     H21803  -0.130   9.328   9.828 -0.3703  0.5086  1.4490
  923MOL0     H21804  -0.401   9.418   9.805 -2.2320 -3.3442  0.2273
  923MOL0     H21805  -0.267   9.432   9.927  0.7123 -1.2966 -0.0912
  923MOL0     H21806  -0.290   9.200   9.984  1.9359 -2.6220 -4.1101
  923MOL0     H21807  -0.410   9.154   9.867 -1.4980 -0.6423  1.2485
  923MOL0     H21808  -0.433   9.348  10.091 -1.1734  1.7486  0.0620
  923MOL0     H21809  -0.573   9.331   9.983  2.2741  0.8600 -1.3838
  923MOL0     H21810  -0.459   9.110  10.148  1.1430  0.9131  1.1159
  923MOL0     H21811  -0.578   9.088  10.020 -1.2054 -0.6021  2.8830
  923MOL0     H21812  -0.618   9.234  10.279 -0.7273  1.6422 -0.6218
  923MOL0     H21813  -0.675   9.072  10.238  0.0664 -0.1695  0.8762
  923MOL0     H21814  -0.777   9.335  10.130  1.6732 -0.0822  1.4397
  923MOL0     H21815  -0.813   9.185  10.048 -1.7799  1.4371 -0.6271
  923MOL0     H21816  -0.989   9.271  10.229 -1.2156 -0.9912  1.0131
  923MOL0     H21817  -0.880   9.196  10.347 -0.4975 -0.1048  0.8502
  923MOL0     H21818   0.035   9.326   9.670  0.7154  1.3430  0.3985
  923MOL0     H21819   0.189   9.284   9.467  0.3857 -2.6724 -0.3724
  923MOL0     H21820   0.410   9.461   9.133 -2.4681 -0.5293  2.4072
  923MOL0     H21821   0.566   9.425   8.945 -0.1070 -0.1758  0.7748
  923MOL0     H21822   2.576   9.008   8.827 -0.7720  0.9937  0.9230
  923MOL0     H21823   2.768   8.935   8.955 -0.4289  0.2402 -0.7644
  923MOL0     H21824   2.955   8.515   9.205  0.9379 -0.9450  1.0824
  923MOL0     H21825   3.109   8.504   9.398 -0.5112 -0.2132 -0.2425
  923MOL0     H21826   3.396   8.848   9.472  0.5113  0.6405 -0.2975
  923MOL0     H21827   3.502   8.726   9.384  3.0698 -0.3390  2.3866
  923MOL0     H21828   3.585   8.777   9.611  0.4021  0.6115  0.8611
  923MOL0     H21829   3.446   8.683   9.677 -1.1329 -0.2863  0.2115
  923MOL0     H21830   3.632   8.557   9.464  1.3606 -3.1122  1.0776
  923MOL0     H21831   3.516   8.492   9.562 -0.2546 -0.1280  1.5077
  923MOL0     H21832   3.667   8.523   9.766  1.0706 -1.5242  0.9431
  923MOL0     H21833   3.759   8.459   9.628  2.7829  0.9253  2.1388
  923MOL0     H21834   3.951   8.823   9.691  0.2460 -1.0627  1.0875
  923MOL0     H21835   3.311   8.857   9.248 -1.7605  1.6422 -1.2364
  923MOL0     H21836   3.147   8.872   9.079  1.9139  0.4601  1.0925
  924MOL0     O21837   6.671  11.022  10.065  0.3302  0.6919 -0.3432
  924MOL0     C21838   6.708  10.942  10.148  0.5300  0.1784 -0.2408
  924MOL0     O21839   6.629  10.878  10.234  0.5634  0.3509 -0.0936
  924MOL0     C21840   6.491  10.862  10.211 -0.9943 -0.0918 -0.3171
  924MOL0     C21841   6.439  10.858  10.081  0.6016  0.4332 -0.2458
  924MOL0     C21842   6.293  10.851  10.067 -0.9671  0.7410 -0.1578
  924MOL0     C21843   6.215  10.846  10.184 -0.0669  0.1912  0.2061
  924MOL0     O21844   6.077  10.860  10.166 -0.3823  0.2677  0.2054
  924MOL0     C21845   6.043  10.995  10.205 -0.1173  0.3945  0.2222
  924MOL0     C21846   5.918  11.055  10.132 -0.5236  0.1259  1.1431
  924MOL0     C21847   5.901  10.997   9.987  0.1995 -0.4705  0.5185
  924MOL0     C21848   6.010  11.037   9.889 -0.0735 -0.8636  0.6293
  924MOL0     C21849   6.019  10.945   9.770 -0.3994  0.5320  0.3559
  924MOL0     C21850   6.128  10.974   9.684  0.6358  0.1709 -0.2576
  924MOL0     C21851   6.134  10.896   9.559  0.1627 -0.2789  0.1559
  924MOL0     C21852   6.245  10.955   9.466 -0.1192 -0.1148 -0.5237
  924MOL0     N21853   6.190  11.042   9.366 -0.1870  0.2084 -0.8826
  924MOL0     C21854   6.135  11.011   9.246 -0.1539 -0.0171  0.4057
  924MOL0     C21855   6.087  11.129   9.193  0.7525  0.1254  1.0667
  924MOL0     C21856   6.005  11.156   9.069  0.8173  0.3490  1.0571
  924MOL0     C21857   5.858  11.164   9.105  1.1357 -0.5040 -0.1220
  924MOL0     C21858   5.773  11.230   8.988 -0.2735  0.3580 -0.7715
  924MOL0     C21859   5.615  11.223   9.020 -0.0660  0.1668 -0.5780
  924MOL0     O21860   5.551  11.109   8.960 -0.1106  0.7612 -0.4970
  924MOL0     C21861   5.417  11.103   8.935  1.1621  0.0523 -0.2002
  924MOL0     C21862   5.363  11.020   8.831  0.1576  0.1286 -0.5418
  924MOL0     C21863   5.225  11.006   8.813 -0.0802  0.4647  0.5127
  924MOL0     C21864   5.139  11.078   8.900  0.5696  0.2502  0.6846
  924MOL0     C21865   4.995  11.052   8.881  0.7443 -0.7448 -0.5286
  924MOL0     O21866   4.967  10.968   8.787 -1.2236  0.1952  0.4437
  924MOL0     C21867   4.838  10.918   8.765 -0.1241 -0.5107 -0.6795
  924MOL0     C21868   4.771  10.839   8.852 -0.1915 -0.2483 -0.1165
  924MOL0     C21869   4.646  10.793   8.822  0.3766  0.4306 -0.1805
  924MOL0     C21870   4.576  10.828   8.708 -0.4202 -0.4700 -0.6603
  924MOL0     O21871   4.453  10.775   8.694 -0.5260 -0.5834 -0.1437
  924MOL0     C21872   4.370  10.846   8.606 -0.1194  0.0517  0.3821
  924MOL0     C21873   4.225  10.803   8.627 -0.5611 -0.5759  0.8671
  924MOL0     C21874   4.145  10.872   8.508 -0.6351  1.0981  0.5489
  924MOL0     C21875   4.009  10.804   8.519  0.3399  0.3402 -0.5177
  924MOL0     C21876   3.900  10.848   8.413  0.1145  0.9100 -0.5769
  924MOL0     C21877   3.753  10.812   8.446  0.1159  0.3961  0.2295
  924MOL0     C21878   3.646  10.888   8.363 -0.9789  0.3101  0.2348
  924MOL0     C21879   3.517  10.827   8.413 -0.3322  0.2250  0.5154
  924MOL0    Cl21880   3.381  10.888   8.317 -0.3199  0.1468  0.5735
  924MOL0     C21881   4.643  10.917   8.620 -0.5525  0.4081 -0.4434
  924MOL0     C21882   4.773  10.957   8.650  0.2208 -0.5261 -0.3377
  924MOL0     O21883   4.918  11.118   8.948 -0.2853 -0.1485 -0.3993
  924MOL0     C21884   5.192  11.176   8.990  0.1918 -0.2593 -0.2296
  924MOL0     C21885   5.331  11.181   9.012 -0.3928  0.6372 -0.1605
  924MOL0     N21886   6.119  11.227   9.286 -0.5554 -0.1963 -0.0212
  924MOL0     N21887   6.187  11.176   9.387  0.0169 -0.5941 -0.1010
  924MOL0     C21888   6.272  10.833  10.310  1.0440  0.4543  0.2509
  924MOL0     C21889   6.409  10.840  10.321 -0.8721 -0.0239 -0.2125
  924MOL0     C21890   6.855  10.921  10.160 -0.7740  0.2275 -0.5211
  924MOL0     C21891   6.943  10.971  10.071 -0.2217 -0.3235  0.6851
  924MOL0     C21892   7.079  10.928  10.063 -0.0048 -0.1152 -0.4079
  924MOL0     C21893   7.133  10.842  10.159  0.4006  0.0924  0.0653
  924MOL0     O21894   7.270  10.815  10.164 -0.1664 -0.6566  0.1644
  924MOL0     C21895   7.371  10.891  10.087  0.4813 -0.0866  1.0526
  924MOL0     C21896   7.501  10.814  10.086  0.3571 -0.4516 -0.5745
  924MOL0     C21897   7.609  10.920  10.055  1.0133  0.3247 -0.3405
  924MOL0     C21898   7.748  10.858  10.060  0.4759  0.9254 -0.2925
  924MOL0     C21899   7.790  10.821  10.194  0.6032  0.5388 -0.4698
  924MOL0     C21900   7.826  10.781  10.303  0.0123 -0.3438 -0.1763
  924MOL0     C21901   7.048  10.799  10.258  0.5441  0.4548  0.3732
  924MOL0     C21902   6.907  10.824  10.252  0.4205 -1.4279  0.2952
  924MOL0     H21903   6.490  10.859   9.985 -0.5458  0.8345 -0.8761
  924MOL0     H21904   6.237  10.843   9.974  0.3107 -0.6743 -0.8451
  924MOL0     H21905   6.133  11.057  10.198 -0.4673  0.9842  0.7570
  924MOL0     H21906   6.020  10.989  10.311 -0.3269  0.9674  0.2173
  924MOL0     H21907   5.922  11.165  10.128 -1.1101  0.1357 -1.8230
  924MOL0     H21908   5.833  11.017  10.188 -0.9599  0.6189  0.8177
  924MOL0     H21909   5.810  11.032   9.938  2.3988  2.7424 -1.7591
  924MOL0     H21910   5.885  10.889   9.996 -1.6534 -0.4290 -1.4071
  924MOL0     H21911   5.996  11.139   9.851  0.2080 -0.9163  0.3841
  924MOL0     H21912   6.108  11.044   9.937  0.4769 -0.2469 -0.5610
  924MOL0     H21913   5.919  10.948   9.725 -0.6681 -0.8648  0.7919
  924MOL0     H21914   6.028  10.842   9.806 -0.0515  0.3288 -0.2974
  924MOL0     H21915   6.223  10.956   9.735  1.1259 -1.3080 -1.6256
  924MOL0     H21916   6.110  11.077   9.654  0.8365 -0.4443 -2.6506
  924MOL0     H21917   6.161  10.791   9.577 -1.0885 -0.6220  0.1057
  924MOL0     H21918   6.036  10.903   9.512  0.8325  2.1077 -1.0113
  924MOL0     H21919   6.300  10.878   9.410  1.1668  0.4733 -0.1078
  924MOL0     H21920   6.319  11.010   9.525  2.5991 -0.6619 -3.1331
  924MOL0     H21921   6.111  10.911   9.210 -2.2926 -0.6563  3.1951
  924MOL0     H21922   6.016  11.080   8.991  1.1129  0.6260  0.8223
  924MOL0     H21923   6.039  11.255   9.036  1.3896  0.1043  0.8853
  924MOL0     H21924   5.850  11.221   9.198  0.2258 -3.9783  2.1372
  924MOL0     H21925   5.820  11.063   9.124  1.5794 -0.4423  1.2294
  924MOL0     H21926   5.794  11.336   8.976 -5.2396  1.7780  0.6249
  924MOL0     H21927   5.797  11.181   8.893  1.6309 -2.1207  0.8508
  924MOL0     H21928   5.571  11.315   8.981 -1.0124 -0.5623 -1.2655
  924MOL0     H21929   5.595  11.219   9.128 -2.3755 -0.4909 -0.9769
  924MOL0     H21930   5.437  10.973   8.768 -1.4062  0.7272 -2.9654
  924MOL0     H21931   5.188  10.950   8.728  0.7181  0.4091  0.1946
  924MOL0     H21932   4.820  10.811   8.944  0.1510 -2.0887 -0.8220
  924MOL0     H21933   4.592  10.740   8.899 -2.4729  1.7340 -1.1705
  924MOL0     H21934   4.401  10.831   8.502 -2.4367  0.8618 -0.4782
  924MOL0     H21935   4.372  10.955   8.610 -2.6662  0.2929 -2.0550
  924MOL0     H21936   4.185  10.835   8.724 -4.5587  2.3761 -1.4332
  924MOL0     H21937   4.215  10.696   8.607 -2.6197 -0.0722 -1.3882
  924MOL0     H21938   4.196  10.850   8.414  1.7840  1.7143  1.6207
  924MOL0     H21939   4.133  10.979   8.526 -2.2973  0.9287  0.5888
  924MOL0     H21940   4.033  10.699   8.504  2.6183  0.9608 -1.6890
  924MOL0     H21941   3.976  10.814   8.623  0.3426 -1.3937 -0.3279
  924MOL0     H21942   3.915  10.806   8.314 -3.3464 -0.9810 -0.4615
  924MOL0     H21943   3.912  10.957   8.409  0.7417  0.9935  1.9461
  924MOL0     H21944   3.728  10.833   8.550 -1.7967 -1.1394  0.1380
  924MOL0     H21945   3.759  10.704   8.428 -1.0759  0.2216  0.8119
  924MOL0     H21946   3.651  10.991   8.400 -0.1967  0.4926 -0.3618
  924MOL0     H21947   3.666  10.879   8.256 -0.8517  0.2432  0.2653
  924MOL0     H21948   3.507  10.855   8.518  2.8537  1.4070  0.6371
  924MOL0     H21949   3.527  10.719   8.399  1.9321  0.5006 -0.5535
  924MOL0     H21950   4.607  10.948   8.523  0.5413  3.5750  0.0286
  924MOL0     H21951   4.827  11.013   8.575  0.9408 -1.7539 -0.7643
  924MOL0     H21952   5.123  11.235   9.049  0.1341 -1.2366  0.6954
  924MOL0     H21953   5.370  11.259   9.077  3.0105  0.9575 -2.3138
  924MOL0     H21954   6.210  10.826  10.399  1.8123  0.1693  0.7705
  924MOL0     H21955   6.457  10.830  10.418 -0.0497  2.2100 -0.3338
  924MOL0     H21956   6.904  11.027   9.987 -1.1187 -2.5082 -0.4462
  924MOL0     H21957   7.127  10.965   9.973  2.4425 -4.8229 -1.3271
  924MOL0     H21958   7.380  10.993  10.125 -1.7742 -0.1757  1.9699
  924MOL0     H21959   7.335  10.898   9.984 -0.4794 -0.3727  1.3602
  924MOL0     H21960   7.516  10.764  10.181  1.0743 -0.3242 -0.6176
  924MOL0     H21961   7.491  10.730  10.017 -1.1653 -2.0411  1.4716
  924MOL0     H21962   7.612  11.006  10.123  0.4265 -0.3260  0.5264
  924MOL0     H21963   7.584  10.952   9.953 -2.1688  0.4384  0.3708
  924MOL0     H21964   7.743  10.770   9.995 -3.6853  1.1648 -0.5759
  924MOL0     H21965   7.815  10.937  10.026 -2.2718  2.6158 -2.1877
  924MOL0     H21966   7.855  10.753  10.403  0.2807 -0.7076 -0.3516
  924MOL0     H21967   7.100  10.740  10.332  0.7815  1.3778  0.9535
  924MOL0     H21968   6.844  10.784  10.331  1.5271  0.2301  2.1079
  925MOL0     O21969   1.360   2.986   1.936  0.2675  0.2609 -0.9459
  925MOL0     C21970   1.368   3.023   1.818  0.4823  0.0706 -0.5440
  925MOL0     O21971   1.275   3.048   1.732 -0.0836 -0.1157  0.0171
  925MOL0     C21972   1.143   3.025   1.761  0.5724  0.1630  0.2812
  925MOL0     C21973   1.058   3.063   1.658  0.8775 -0.1859  0.2657
  925MOL0     C21974   0.918   3.038   1.671 -0.5724 -0.7707 -0.1322
  925MOL0     C21975   0.859   2.978   1.783  0.1694  0.4161  0.1893
  925MOL0     O21976   0.717   2.966   1.796 -0.2992  0.4277 -0.0616
  925MOL0     C21977   0.662   2.854   1.852  0.7213  0.2916  0.1726
  925MOL0     C21978   0.521   2.848   1.796  0.2476 -0.4138 -0.8131
  925MOL0     C21979   0.440   2.730   1.844  0.5104  0.1242 -0.1022
  925MOL0     C21980   0.316   2.693   1.759 -0.1151  0.4414  0.1921
  925MOL0     C21981   0.213   2.606   1.835  0.7763  0.2249 -0.0140
  925MOL0     C21982   0.273   2.487   1.899  0.0165 -0.3896 -0.6489
  925MOL0     C21983   0.165   2.387   1.948 -0.0543 -0.2495 -0.0879
  925MOL0     C21984   0.071   2.448   2.052 -0.1018 -0.0070 -0.4995
  925MOL0     N21985  -0.062   2.380   2.052 -0.2304 -0.4539  0.2860
  925MOL0     C21986  -0.111   2.296   2.150 -0.1541 -0.4327  0.7366
  925MOL0     C21987  -0.220   2.252   2.098 -0.9315  0.3436  0.6357
  925MOL0     C21988  -0.297   2.135   2.157  0.4056 -0.0435  0.0703
  925MOL0     C21989  -0.349   2.158   2.301 -0.9598  0.1229  0.1839
  925MOL0     C21990  -0.453   2.267   2.325  0.2061 -0.7238 -0.6741
  925MOL0     C21991  -0.592   2.223   2.360 -0.2521 -0.1094 -0.1295
  925MOL0     O21992  -0.679   2.346   2.367  0.0661  0.0348  0.3419
  925MOL0     C21993  -0.813   2.317   2.370  0.1860  0.3687  0.6606
  925MOL0     C21994  -0.895   2.416   2.318  0.3248  0.4020  0.7513
  925MOL0     C21995  -1.032   2.396   2.317 -0.0326 -0.5359 -0.5496
  925MOL0     C21996  -1.094   2.287   2.386 -0.4255  0.1924 -0.1967
  925MOL0     C21997  -1.244   2.272   2.404 -0.4031 -0.1423  0.0287
  925MOL0     O21998  -1.287   2.168   2.467 -0.1219  0.0543 -0.2363
  925MOL0     C21999  -1.424   2.166   2.491  0.3507 -0.0163 -0.5426
  925MOL0     C22000  -1.524   2.160   2.394  0.1415  0.8566 -0.2594
  925MOL0     C22001  -1.657   2.123   2.436  0.3813  0.1939  0.3325
  925MOL0     C22002  -1.700   2.101   2.564  0.8043  0.1474 -0.2433
  925MOL0     O22003  -1.830   2.092   2.615  0.9774 -0.1184 -0.3335
  925MOL0     C22004  -1.943   2.061   2.524  0.0171  0.1692 -0.1884
  925MOL0     C22005  -2.074   2.032   2.594  0.3868  0.6408 -0.1779
  925MOL0     C22006  -2.079   1.904   2.681 -0.6006  1.0396 -0.2826
  925MOL0     C22007  -2.216   1.892   2.755 -0.3960 -0.5179 -0.3792
  925MOL0     C22008  -2.225   1.765   2.847  0.4503 -0.2219  0.8269
  925MOL0     C22009  -2.370   1.723   2.874  0.0397 -0.6256 -0.0719
  925MOL0     C22010  -2.460   1.839   2.913 -0.8970  1.0336  0.2836
  925MOL0     C22011  -2.600   1.809   2.968  0.1045 -0.7059 -0.1560
  925MOL0    Cl22012  -2.663   1.971   3.014 -0.0354 -0.0382  0.0984
  925MOL0     C22013  -1.603   2.109   2.660  0.1211  0.8867  0.0302
  925MOL0     C22014  -1.471   2.142   2.623 -0.1608 -0.5833 -0.4128
  925MOL0     O22015  -1.310   2.376   2.383 -0.4576  0.8052 -0.6203
  925MOL0     C22016  -1.010   2.195   2.456 -0.4101 -1.2671 -0.1186
  925MOL0     C22017  -0.865   2.210   2.444  0.3043 -0.5057  0.0150
  925MOL0     N22018  -0.242   2.299   1.970 -0.2108 -0.0933 -0.0458
  925MOL0     N22019  -0.145   2.380   1.943  0.0788  0.5698  0.7466
  925MOL0     C22020   0.941   2.923   1.875 -0.6363 -0.6033 -0.2038
  925MOL0     C22021   1.081   2.942   1.856 -0.0113  0.8411 -0.1124
  925MOL0     C22022   1.502   3.048   1.768 -0.2112  0.2273  0.4822
  925MOL0     C22023   1.543   3.042   1.633  0.3341  0.0564 -0.4937
  925MOL0     C22024   1.665   3.094   1.590 -0.4678  0.1974  0.0782
  925MOL0     C22025   1.754   3.149   1.689  0.4584  1.1153  0.5949
  925MOL0     O22026   1.867   3.207   1.637 -0.0798  0.2202 -0.1711
  925MOL0     C22027   1.968   3.254   1.723 -0.5350 -0.2540 -0.3621
  925MOL0     C22028   2.097   3.291   1.643  0.4901  0.5982 -0.2416
  925MOL0     C22029   2.178   3.408   1.702  0.2441  0.2445  0.5579
  925MOL0     C22030   2.321   3.441   1.647  0.0202  0.1218  0.7892
  925MOL0     C22031   2.435   3.360   1.686 -0.6458  0.4575  0.9876
  925MOL0     C22032   2.528   3.286   1.716 -0.2065  0.3842 -0.1659
  925MOL0     C22033   1.720   3.149   1.825 -0.1779  0.1578 -0.2779
  925MOL0     C22034   1.591   3.097   1.865 -0.7164 -0.6841 -0.0937
  925MOL0     H22035   1.081   3.110   1.563 -4.0953  0.8458 -0.7143
  925MOL0     H22036   0.854   3.079   1.594 -0.1971 -0.5555 -0.3279
  925MOL0     H22037   0.658   2.864   1.961 -2.9256 -2.1089  0.4309
  925MOL0     H22038   0.718   2.764   1.824  5.2166  3.0462 -0.6959
  925MOL0     H22039   0.533   2.836   1.688 -2.9842  0.4067 -1.3655
  925MOL0     H22040   0.462   2.937   1.817  2.1088  0.2685  2.0260
  925MOL0     H22041   0.405   2.743   1.947 -2.2905 -2.7108 -0.5404
  925MOL0     H22042   0.508   2.645   1.838  1.5280  0.8681  0.5428
  925MOL0     H22043   0.273   2.791   1.736 -1.3128  0.8216  3.4730
  925MOL0     H22044   0.341   2.641   1.666  2.3672  0.8829  0.5575
  925MOL0     H22045   0.137   2.563   1.769  1.7179 -2.3372  0.4215
  925MOL0     H22046   0.167   2.671   1.910 -2.6226  0.8988 -2.4724
  925MOL0     H22047   0.330   2.510   1.989  1.2332 -2.5012 -0.7914
  925MOL0     H22048   0.343   2.439   1.829  0.9092 -0.3533  0.1902
  925MOL0     H22049   0.106   2.375   1.856  1.3679  0.0856 -1.0740
  925MOL0     H22050   0.210   2.294   1.981  0.0149 -0.0200  0.4750
  925MOL0     H22051   0.053   2.555   2.056 -3.0741 -0.4657  1.2004
  925MOL0     H22052   0.115   2.425   2.149 -1.5574  0.5589  0.3180
  925MOL0     H22053  -0.074   2.274   2.249 -0.5336  1.8380  1.4435
  925MOL0     H22054  -0.223   2.055   2.165  1.1993  0.3661 -2.3508
  925MOL0     H22055  -0.378   2.099   2.093  0.2450 -0.0870  0.2978
  925MOL0     H22056  -0.257   2.184   2.355 -0.1014 -1.6119 -0.3566
  925MOL0     H22057  -0.380   2.062   2.343  0.9349 -0.4491  0.3494
  925MOL0     H22058  -0.420   2.321   2.414 -0.3627 -2.3043  0.5499
  925MOL0     H22059  -0.446   2.339   2.243 -0.0821 -0.0593 -0.1213
  925MOL0     H22060  -0.592   2.176   2.459 -2.5907  1.1869  0.5556
  925MOL0     H22061  -0.628   2.146   2.291  0.1111  2.2634 -3.1958
  925MOL0     H22062  -0.844   2.492   2.260 -1.8367 -0.1452 -2.0935
  925MOL0     H22063  -1.096   2.466   2.264 -1.3181 -2.0341 -1.0725
  925MOL0     H22064  -1.490   2.174   2.291 -0.3156 -0.4603 -0.6101
  925MOL0     H22065  -1.728   2.124   2.354  2.6307  3.7608 -1.8694
  925MOL0     H22066  -1.921   1.970   2.467  2.4572 -0.0264  0.9397
  925MOL0     H22067  -1.959   2.150   2.463 -0.5813  0.9358  1.0505
  925MOL0     H22068  -2.151   2.023   2.516  3.3800 -2.0283 -3.1542
  925MOL0     H22069  -2.087   2.116   2.662  2.6694 -0.7027  2.1174
  925MOL0     H22070  -1.995   1.913   2.751  0.0618 -2.4972 -0.4617
  925MOL0     H22071  -2.049   1.815   2.625  0.2594 -0.7494  2.7489
  925MOL0     H22072  -2.229   1.987   2.808  3.0888 -0.3066  0.3466
  925MOL0     H22073  -2.293   1.882   2.678  0.3507  1.5036 -1.4699
  925MOL0     H22074  -2.191   1.788   2.948 -1.5736  0.6681  1.3714
  925MOL0     H22075  -2.165   1.689   2.797  2.1288  2.3569 -1.4393
  925MOL0     H22076  -2.370   1.650   2.956 -0.9341 -0.8199 -0.2369
  925MOL0     H22077  -2.407   1.672   2.785 -2.3415 -0.8413  0.9670
  925MOL0     H22078  -2.407   1.896   2.990 -1.2776 -0.9064  2.0759
  925MOL0     H22079  -2.474   1.903   2.825 -0.9990 -0.1020 -0.5496
  925MOL0     H22080  -2.595   1.741   3.054 -0.2539  0.0017  0.4416
  925MOL0     H22081  -2.657   1.765   2.886  2.5826 -3.2332 -0.6577
  925MOL0     H22082  -1.635   2.098   2.763 -0.3827  1.4639 -0.0612
  925MOL0     H22083  -1.404   2.133   2.709 -1.8973 -2.6516  0.8257
  925MOL0     H22084  -1.062   2.132   2.527 -1.5966 -2.1103 -1.6680
  925MOL0     H22085  -0.799   2.148   2.503  0.0117  1.3842  2.5027
  925MOL0     H22086   0.910   2.860   1.957 -0.4084 -0.4738 -0.0190
  925MOL0     H22087   1.142   2.872   1.912 -1.7123  0.8253  1.8728
  925MOL0     H22088   1.474   2.998   1.562 -1.7841 -1.4321  2.2915
  925MOL0     H22089   1.712   3.092   1.492 -0.9308  1.7311 -0.2119
  925MOL0     H22090   1.993   3.181   1.800 -1.1944 -0.7557 -0.6147
  925MOL0     H22091   1.936   3.349   1.767 -0.1641  0.6284 -1.9277
  925MOL0     H22092   2.163   3.204   1.642 -0.2616  0.0107 -1.5582
  925MOL0     H22093   2.073   3.321   1.541 -3.0690 -0.2241  0.2344
  925MOL0     H22094   2.197   3.382   1.807 -1.4819 -1.3999  0.5275
  925MOL0     H22095   2.118   3.499   1.699 -1.4724 -0.8632 -2.0905
  925MOL0     H22096   2.310   3.443   1.538 -0.1906 -1.3570  0.7634
  925MOL0     H22097   2.358   3.538   1.680 -0.3490  0.5213  0.0483
  925MOL0     H22098   2.607   3.215   1.730 -0.9349 -0.6484 -1.0630
  925MOL0     H22099   1.787   3.180   1.904 -2.6222  2.8439  0.9565
  925MOL0     H22100   1.563   3.106   1.969 -0.6715 -2.9870  0.1554
  926MOL0     O22101   3.682   1.805   4.513 -0.2475 -0.7230 -0.2261
  926MOL0     C22102   3.672   1.715   4.597 -0.3932 -0.5554 -0.2955
  926MOL0     O22103   3.560   1.691   4.665  0.8847 -0.0410 -0.0975
  926MOL0     C22104   3.442   1.755   4.633 -0.8804 -0.1080 -0.0264
  926MOL0     C22105   3.392   1.773   4.505  0.0497  0.1047  0.4612
  926MOL0     C22106   3.267   1.832   4.490 -0.5715 -0.2399  0.2542
  926MOL0     C22107   3.192   1.884   4.588  0.0712  0.5547 -0.0385
  926MOL0     O22108   3.076   1.948   4.554 -0.0728  0.2010  0.2425
  926MOL0     C22109   2.958   1.874   4.575 -1.1330 -0.0713 -0.2179
  926MOL0     C22110   2.849   1.972   4.568  0.5968  0.4015  0.1489
  926MOL0     C22111   2.849   2.069   4.677  0.3861 -0.0937 -0.6907
  926MOL0     C22112   2.724   2.157   4.700 -0.7327 -0.4505  0.3963
  926MOL0     C22113   2.600   2.069   4.734 -1.0455 -0.7291 -0.8962
  926MOL0     C22114   2.473   2.154   4.761  0.0308  0.6312 -0.7238
  926MOL0     C22115   2.348   2.072   4.797  0.9792  0.7260 -0.2201
  926MOL0     C22116   2.220   2.149   4.760  0.1375 -0.0678  0.3908
  926MOL0     N22117   2.109   2.073   4.810  0.6983  0.7479 -0.6541
  926MOL0     C22118   2.080   2.064   4.943  0.2733  0.4010  0.1647
  926MOL0     C22119   1.989   1.957   4.945 -0.2517  0.0621 -0.5356
  926MOL0     C22120   1.934   1.891   5.070 -0.2202  0.5463 -0.5837
  926MOL0     C22121   1.805   1.960   5.123 -0.0309  0.2508  0.1680
  926MOL0     C22122   1.674   1.952   5.039  0.1548  0.0511  0.4481
  926MOL0     C22123   1.621   1.799   5.032  0.3679 -0.2445  1.0308
  926MOL0     O22124   1.491   1.779   4.977  0.8151  0.2758  0.0022
  926MOL0     C22125   1.377   1.815   5.044 -0.5697 -0.6660 -0.6627
  926MOL0     C22126   1.372   1.849   5.176  0.4937  0.6388  0.2629
  926MOL0     C22127   1.239   1.865   5.241 -0.3163  0.0939 -0.3144
  926MOL0     C22128   1.117   1.851   5.166  0.3131  0.2988 -0.9240
  926MOL0     C22129   0.984   1.859   5.226 -0.4217 -0.0177 -0.3916
  926MOL0     O22130   0.876   1.829   5.145 -0.6167 -0.2295 -0.0732
  926MOL0     C22131   0.744   1.828   5.196 -0.6561  0.1523 -0.0065
  926MOL0     C22132   0.666   1.719   5.152  0.0572  0.2192  0.1694
  926MOL0     C22133   0.528   1.712   5.173  0.5453 -0.2622  1.0690
  926MOL0     C22134   0.471   1.818   5.250  0.6015  0.2596  0.9251
  926MOL0     O22135   0.343   1.823   5.306  0.8283  0.3427  0.2380
  926MOL0     C22136   0.267   1.705   5.306  0.9003  0.6458  0.1709
  926MOL0     C22137   0.143   1.737   5.395  0.6752 -0.4224 -0.2552
  926MOL0     C22138   0.168   1.737   5.542  1.1845 -0.2703 -0.0865
  926MOL0     C22139   0.048   1.773   5.632 -0.1790 -0.1548  0.1064
  926MOL0     C22140   0.088   1.785   5.769 -0.1149  0.6588  0.2302
  926MOL0     C22141  -0.035   1.820   5.856  0.3897 -0.8736 -0.5035
  926MOL0     C22142  -0.005   1.817   6.007 -0.1905 -0.6885  0.1833
  926MOL0     C22143  -0.112   1.902   6.080 -0.3955  0.2881 -0.6112
  926MOL0    Cl22144  -0.268   1.840   6.035  0.2072 -0.2894 -0.5188
  926MOL0     C22145   0.546   1.931   5.283  0.2546 -0.0142  0.4725
  926MOL0     C22146   0.681   1.937   5.257 -0.4865 -0.5327 -1.0316
  926MOL0     O22147   0.983   1.898   5.344  0.3361  0.1724  0.6821
  926MOL0     C22148   1.134   1.825   5.033  0.7964 -0.3839  0.4421
  926MOL0     C22149   1.255   1.804   4.969 -0.3252 -0.7133 -0.3653
  926MOL0     N22150   1.950   1.927   4.823  0.4626  0.7352 -0.1731
  926MOL0     N22151   2.031   1.994   4.737 -0.0231  0.6449  0.0296
  926MOL0     C22152   3.249   1.897   4.715  0.3272  0.6446  0.1638
  926MOL0     C22153   3.370   1.817   4.734 -0.0222 -1.0636  0.3941
  926MOL0     C22154   3.791   1.636   4.604 -0.2375 -0.5821 -0.4286
  926MOL0     C22155   3.916   1.687   4.579  0.3581 -1.0511  0.7824
  926MOL0     C22156   4.025   1.596   4.589 -0.0531 -0.6825  0.0064
  926MOL0     C22157   4.007   1.464   4.627 -0.6102 -0.1129  0.1073
  926MOL0     O22158   4.114   1.382   4.622  0.1218  0.0972 -0.5646
  926MOL0     C22159   4.112   1.249   4.682 -0.4851  0.0241 -0.5337
  926MOL0     C22160   4.240   1.180   4.659 -0.2233 -0.1694 -0.1890
  926MOL0     C22161   4.364   1.271   4.665  0.5886  0.4210 -0.7561
  926MOL0     C22162   4.488   1.192   4.640  0.0664  0.0450  1.0255
  926MOL0     C22163   4.608   1.276   4.649  0.2820  0.7202 -0.1730
  926MOL0     C22164   4.714   1.335   4.640  0.1471 -0.1294 -0.7833
  926MOL0     C22165   3.879   1.423   4.664  0.7332  0.4944  0.3515
  926MOL0     C22166   3.776   1.510   4.649 -0.2712  0.1517 -0.6229
  926MOL0     H22167   3.446   1.732   4.421  0.2674 -2.1476  1.6231
  926MOL0     H22168   3.229   1.844   4.389  2.4729  0.4322 -0.9239
  926MOL0     H22169   2.952   1.835   4.677 -1.6760  1.6045  0.4367
  926MOL0     H22170   2.951   1.797   4.498 -3.4793  0.6340 -0.7747
  926MOL0     H22171   2.748   1.931   4.573 -0.0812  1.9979  0.2708
  926MOL0     H22172   2.842   2.020   4.469  0.3422  4.8141  2.0710
  926MOL0     H22173   2.931   2.137   4.654 -1.9078  3.0512 -0.2075
  926MOL0     H22174   2.876   2.022   4.772 -0.2189 -1.9992 -1.4175
  926MOL0     H22175   2.742   2.241   4.767 -3.1959  1.5435 -1.2939
  926MOL0     H22176   2.709   2.212   4.607  1.1132  0.0138  0.3326
  926MOL0     H22177   2.631   2.023   4.829  2.5511  2.2839 -0.3787
  926MOL0     H22178   2.582   1.987   4.665 -1.2123 -0.6252 -0.9774
  926MOL0     H22179   2.454   2.198   4.663  0.7418 -0.0921 -1.2103
  926MOL0     H22180   2.496   2.240   4.824 -1.3130  0.3431  0.1874
  926MOL0     H22181   2.341   1.969   4.761  0.0358 -0.6615  3.4702
  926MOL0     H22182   2.350   2.053   4.904 -3.1565 -0.9732 -0.2761
  926MOL0     H22183   2.220   2.152   4.650 -3.2755  1.7815  0.2994
  926MOL0     H22184   2.227   2.253   4.793 -1.5459 -0.1210  0.9979
  926MOL0     H22185   2.130   2.112   5.026  0.6166  0.8787 -0.3162
  926MOL0     H22186   2.010   1.881   5.148  2.7752  2.1819 -3.0933
  926MOL0     H22187   1.915   1.789   5.037  0.9654 -0.0826  0.6134
  926MOL0     H22188   1.824   2.063   5.153 -1.7848  0.5035  0.5029
  926MOL0     H22189   1.787   1.920   5.223  1.8959  1.5803  1.1132
  926MOL0     H22190   1.601   2.006   5.099 -1.8826 -1.9642 -0.0679
  926MOL0     H22191   1.678   1.995   4.938 -1.0821 -1.0919 -0.1303
  926MOL0     H22192   1.625   1.760   5.135 -2.0687  2.1218  2.1556
  926MOL0     H22193   1.696   1.750   4.970 -0.7918 -0.1068 -0.5195
  926MOL0     H22194   1.461   1.853   5.239 -0.6046  1.4451  1.8300
  926MOL0     H22195   1.233   1.896   5.345 -2.8739  2.8211 -1.1298
  926MOL0     H22196   0.728   1.657   5.088  1.7430  0.7987  1.1689
  926MOL0     H22197   0.476   1.623   5.138  2.7300 -0.4048 -2.2854
  926MOL0     H22198   0.314   1.623   5.360 -1.6451  0.5196  2.3760
  926MOL0     H22199   0.230   1.680   5.206 -1.2971 -1.8411  1.5127
  926MOL0     H22200   0.062   1.665   5.378  1.1130 -2.1213  3.7760
  926MOL0     H22201   0.100   1.832   5.365  0.4877 -0.1874  0.7315
  926MOL0     H22202   0.245   1.812   5.564 -0.6743  0.9908  2.7669
  926MOL0     H22203   0.209   1.638   5.564 -0.9077 -1.1822 -0.0800
  926MOL0     H22204   0.004   1.867   5.598  2.1349  1.8472  2.3497
  926MOL0     H22205  -0.030   1.700   5.607  0.5697 -0.9311 -0.0086
  926MOL0     H22206   0.169   1.856   5.789 -0.1831  0.8510 -0.1706
  926MOL0     H22207   0.131   1.690   5.803  1.6073  0.4266 -2.3624
  926MOL0     H22208  -0.105   1.738   5.836 -0.2507 -0.3655 -0.3651
  926MOL0     H22209  -0.080   1.914   5.825  0.9163 -0.6049 -0.4612
  926MOL0     H22210   0.000   1.710   6.032  1.0761 -0.8182 -0.5376
  926MOL0     H22211   0.092   1.866   6.020 -0.8202  0.5386  0.3176
  926MOL0     H22212  -0.105   2.007   6.052  3.4149  1.5637  3.8335
  926MOL0     H22213  -0.092   1.904   6.187  0.0665  0.7136 -0.7038
  926MOL0     H22214   0.493   2.008   5.337  1.9335  2.8899 -1.7404
  926MOL0     H22215   0.731   2.026   5.295  2.3327 -2.0327 -0.9910
  926MOL0     H22216   1.040   1.809   4.982 -0.1711 -0.2067  2.0782
  926MOL0     H22217   1.254   1.772   4.865 -2.7103 -1.2250 -0.2355
  926MOL0     H22218   3.192   1.959   4.782  0.0172  0.5550 -0.0148
  926MOL0     H22219   3.416   1.815   4.833  2.2186  2.5014 -0.4056
  926MOL0     H22220   3.938   1.783   4.535  3.2946 -2.4834 -1.2244
  926MOL0     H22221   4.126   1.634   4.573 -1.0954  2.1861 -0.3547
  926MOL0     H22222   4.035   1.194   4.628 -1.7194 -1.2316  2.3184
  926MOL0     H22223   4.089   1.262   4.788  0.9505 -0.0061 -0.1953
  926MOL0     H22224   4.256   1.107   4.739  0.7997 -0.7610 -0.9065
  926MOL0     H22225   4.233   1.121   4.567  1.1325 -3.2469  1.4964
  926MOL0     H22226   4.374   1.308   4.768  1.2130  1.2139 -1.0824
  926MOL0     H22227   4.348   1.358   4.601  1.3936  1.5521  0.5013
  926MOL0     H22228   4.501   1.111   4.712 -1.5496 -1.9133 -0.7472
  926MOL0     H22229   4.483   1.150   4.539  0.1631 -1.0249  1.4519
  926MOL0     H22230   4.813   1.374   4.642  0.3124 -0.5445 -0.8638
  926MOL0     H22231   3.846   1.325   4.696  2.1823 -0.0119  0.4033
  926MOL0     H22232   3.681   1.463   4.670  1.0347 -3.7142 -2.2762
  927MOL0     O22233   1.072   3.518   9.313 -0.1319 -0.3335  0.1581
  927MOL0     C22234   1.139   3.616   9.338  0.1460 -0.6101 -0.1370
  927MOL0     O22235   1.099   3.738   9.362 -0.1192 -0.0700 -0.1317
  927MOL0     C22236   0.959   3.767   9.359 -0.6822  0.6162 -0.6372
  927MOL0     C22237   0.942   3.901   9.318  0.6853  0.0899  0.3216
  927MOL0     C22238   0.811   3.951   9.306 -0.2405 -0.0868  0.1534
  927MOL0     C22239   0.705   3.877   9.357 -0.6426  1.0200  0.1690
  927MOL0     O22240   0.584   3.926   9.342 -0.0538  0.3956  0.8433
  927MOL0     C22241   0.561   4.035   9.435  0.1707 -0.0023  0.2639
  927MOL0     C22242   0.419   4.081   9.428 -0.0732  0.5037  0.5670
  927MOL0     C22243   0.325   3.964   9.414  0.4737 -0.5374 -0.4375
  927MOL0     C22244   0.176   3.997   9.443 -0.4644 -0.1816  0.2400
  927MOL0     C22245   0.108   4.093   9.343  0.1422  0.6337 -0.4661
  927MOL0     C22246  -0.035   4.135   9.392  0.2541 -0.1101 -0.0196
  927MOL0     C22247  -0.101   4.237   9.299  0.4056  0.3880 -0.0532
  927MOL0     C22248  -0.225   4.296   9.371  0.0120  0.2508  0.7264
  927MOL0     N22249  -0.189   4.376   9.483 -0.7437 -0.6386 -0.1854
  927MOL0     C22250  -0.084   4.466   9.477 -0.2558 -0.4108 -0.9984
  927MOL0     C22251  -0.104   4.543   9.592 -0.4199  0.7589 -0.1041
  927MOL0     C22252  -0.019   4.660   9.621 -0.8699  0.3384  0.4225
  927MOL0     C22253  -0.068   4.778   9.535 -0.2068  0.7824  0.5644
  927MOL0     C22254  -0.210   4.802   9.563  0.2045 -0.4792  0.0503
  927MOL0     C22255  -0.240   4.838   9.713 -0.0044  0.1035  0.2456
  927MOL0     O22256  -0.376   4.890   9.718  0.0242  0.5276  0.1936
  927MOL0     C22257  -0.434   4.929   9.837  0.6728 -0.8582  1.1287
  927MOL0     C22258  -0.555   5.007   9.825 -0.2861 -0.2450 -0.0564
  927MOL0     C22259  -0.615   5.064   9.938 -0.4612 -0.4500  0.4343
  927MOL0     C22260  -0.558   5.050  10.063 -0.1619  0.0291  0.0465
  927MOL0     C22261  -0.630   5.096  10.177  0.1987  0.0987 -0.1811
  927MOL0     O22262  -0.722   5.197  10.158 -0.5428  0.3048 -0.0292
  927MOL0     C22263  -0.807   5.231  10.255 -0.5901  0.3309  0.4481
  927MOL0     C22264  -0.936   5.170  10.267  1.0143 -0.1595 -0.6888
  927MOL0     C22265  -1.024   5.188  10.372 -0.2925  0.5262 -0.3016
  927MOL0     C22266  -0.984   5.284  10.477  0.2903  0.8712  0.5070
  927MOL0     O22267  -1.061   5.312  10.588 -0.0569  0.4944  0.1823
  927MOL0     C22268  -1.177   5.232  10.621  0.1780 -0.5981  0.7960
  927MOL0     C22269  -1.304   5.276  10.542 -0.0016 -0.0978 -0.3468
  927MOL0     C22270  -1.428   5.189  10.583 -0.1630 -0.9967 -0.1279
  927MOL0     C22271  -1.560   5.257  10.528  0.1947 -0.0068  0.1793
  927MOL0     C22272  -1.676   5.155  10.508  0.4978 -0.1056  0.0969
  927MOL0     C22273  -1.775   5.155  10.624  0.6451  0.6811 -0.1431
  927MOL0     C22274  -1.863   5.281  10.651  1.2491  0.7965  0.5747
  927MOL0     C22275  -1.968   5.255  10.759  0.0929 -0.3621 -0.8696
  927MOL0    Cl22276  -2.101   5.156  10.698  0.3348 -0.6592 -0.0430
  927MOL0     C22277  -0.858   5.341  10.462 -0.7931  0.6229 -0.1424
  927MOL0     C22278  -0.766   5.311  10.358  0.1206  0.5324 -0.8947
  927MOL0     O22279  -0.611   5.033  10.283  0.2603 -0.2315  0.1758
  927MOL0     C22280  -0.436   4.978  10.072 -0.8161 -0.4795  0.3548
  927MOL0     C22281  -0.379   4.910   9.959  0.2833  0.7648 -0.9803
  927MOL0     N22282  -0.202   4.485   9.671 -0.3289  0.8420 -0.2943
  927MOL0     N22283  -0.262   4.391   9.595  0.1688 -0.5547 -0.7551
  927MOL0     C22284   0.724   3.750   9.401  0.2718  0.5276 -0.7924
  927MOL0     C22285   0.850   3.690   9.413 -0.0071  0.4409  0.0394
  927MOL0     C22286   1.289   3.603   9.311  0.2368  0.4321  0.0432
  927MOL0     C22287   1.380   3.702   9.364  0.4598  0.1681  0.2638
  927MOL0     C22288   1.516   3.680   9.336 -0.0576 -0.3232 -0.8830
  927MOL0     C22289   1.559   3.575   9.257  0.4119  0.0413 -0.3815
  927MOL0     O22290   1.691   3.543   9.219  0.0840  1.0154  0.1536
  927MOL0     C22291   1.790   3.615   9.283 -0.1010  0.0688 -1.5592
  927MOL0     C22292   1.921   3.585   9.219  0.0022  0.7467  0.4456
  927MOL0     C22293   2.047   3.635   9.305  0.0444 -0.4743 -0.2205
  927MOL0     C22294   2.178   3.607   9.223  0.2310 -0.3833 -0.4835
  927MOL0     C22295   2.292   3.612   9.312  0.4820 -0.8824 -0.3152
  927MOL0     C22296   2.393   3.629   9.370 -0.7154  0.0096 -1.1727
  927MOL0     C22297   1.466   3.488   9.195 -0.3376 -0.3551 -0.7146
  927MOL0     C22298   1.336   3.497   9.232  0.9591  0.1778 -0.3383
  927MOL0     H22299   1.032   3.960   9.301 -0.5267  2.5413  1.7488
  927MOL0     H22300   0.792   4.049   9.264 -1.4615 -1.1116 -1.8286
  927MOL0     H22301   0.632   4.115   9.416  0.8326 -0.4644  0.7412
  927MOL0     H22302   0.582   3.996   9.536  2.1048 -1.0896 -0.5090
  927MOL0     H22303   0.405   4.148   9.342  1.0759 -0.0516 -0.0647
  927MOL0     H22304   0.399   4.133   9.523 -2.7693  1.1286 -0.2636
  927MOL0     H22305   0.357   3.896   9.493  0.5042  2.2321  2.1140
  927MOL0     H22306   0.336   3.934   9.309 -1.7075 -0.5070 -0.7257
  927MOL0     H22307   0.121   3.903   9.445  1.3192 -1.2780  0.1392
  927MOL0     H22308   0.183   4.042   9.543  0.1341 -0.6906  0.4386
  927MOL0     H22309   0.097   4.043   9.247  2.3670 -2.7322  0.8386
  927MOL0     H22310   0.171   4.181   9.329  0.8449  0.2202 -0.0029
  927MOL0     H22311  -0.032   4.173   9.495 -0.0122 -0.2455  0.0389
  927MOL0     H22312  -0.100   4.048   9.401  1.4510 -1.1954 -1.3402
  927MOL0     H22313  -0.027   4.309   9.263 -0.7633  1.8732  0.4117
  927MOL0     H22314  -0.124   4.185   9.205  1.1979  0.7652 -0.4664
  927MOL0     H22315  -0.281   4.206   9.396  0.0182  0.4279  1.3941
  927MOL0     H22316  -0.280   4.355   9.297  1.9340 -2.1540 -2.9555
  927MOL0     H22317  -0.010   4.485   9.400  0.4525 -1.5283 -0.6135
  927MOL0     H22318   0.083   4.636   9.587 -0.6680 -1.2809  2.0351
  927MOL0     H22319  -0.021   4.690   9.726  2.0296  0.2814  0.5936
  927MOL0     H22320  -0.051   4.757   9.429  0.0677  0.5957  0.6447
  927MOL0     H22321  -0.010   4.870   9.553  1.9550 -0.7282  1.7811
  927MOL0     H22322  -0.243   4.887   9.503 -0.4045 -1.2324 -0.7235
  927MOL0     H22323  -0.278   4.720   9.536  1.0921 -1.5791  1.0677
  927MOL0     H22324  -0.170   4.916   9.745  4.6011 -3.8379  0.9662
  927MOL0     H22325  -0.228   4.763   9.791 -2.0640  0.5373  1.0576
  927MOL0     H22326  -0.600   5.024   9.727  1.2168  0.1998 -0.7007
  927MOL0     H22327  -0.702   5.127   9.920  0.0453  0.2810  0.4893
  927MOL0     H22328  -0.974   5.107  10.187 -0.9742 -0.9999  0.8263
  927MOL0     H22329  -1.114   5.127  10.371  0.1637 -0.1514 -0.6662
  927MOL0     H22330  -1.193   5.238  10.729 -0.3887 -0.3217  0.7011
  927MOL0     H22331  -1.155   5.125  10.610  0.5355 -0.4230 -0.2770
  927MOL0     H22332  -1.293   5.271  10.434  0.4639 -0.3949 -0.2873
  927MOL0     H22333  -1.329   5.379  10.571  1.0027  0.0366  0.0752
  927MOL0     H22334  -1.445   5.181  10.691 -3.0162  0.5387 -0.3571
  927MOL0     H22335  -1.409   5.090  10.541  0.9040 -2.0940  2.6782
  927MOL0     H22336  -1.597   5.346  10.580 -1.3758  0.6300 -1.8698
  927MOL0     H22337  -1.536   5.299  10.429 -0.1029 -0.2075  0.0205
  927MOL0     H22338  -1.638   5.054  10.491 -1.5812 -0.9512  0.2483
  927MOL0     H22339  -1.735   5.179  10.419  1.8466 -2.9887 -1.7288
  927MOL0     H22340  -1.730   5.128  10.720  1.1526 -0.5018 -0.6903
  927MOL0     H22341  -1.840   5.068  10.605 -1.0930  1.4650  1.7441
  927MOL0     H22342  -1.804   5.368  10.679  3.8891 -0.3709 -1.0102
  927MOL0     H22343  -1.904   5.302  10.552  1.7410 -0.3178  0.1224
  927MOL0     H22344  -2.010   5.349  10.795 -1.6991 -2.0688  1.9858
  927MOL0     H22345  -1.926   5.204  10.847 -1.9947  0.1084  0.4875
  927MOL0     H22346  -0.830   5.414  10.538 -1.5303  1.3936 -0.5823
  927MOL0     H22347  -0.673   5.364  10.340 -0.0745  1.4308  0.5453
  927MOL0     H22348  -0.392   4.958  10.170  0.4841  0.8694  0.0764
  927MOL0     H22349  -0.301   4.837   9.979  1.3277  1.8634 -0.9262
  927MOL0     H22350   0.653   3.683   9.449  3.7872 -1.9611  1.4388
  927MOL0     H22351   0.852   3.588   9.450 -1.9966  0.5630  0.5979
  927MOL0     H22352   1.359   3.794   9.418  0.4135  0.6469 -0.5501
  927MOL0     H22353   1.582   3.763   9.358 -0.1768 -0.5471  0.4101
  927MOL0     H22354   1.787   3.587   9.389 -0.4030 -0.6534 -1.7459
  927MOL0     H22355   1.772   3.722   9.268 -0.1771  0.0316 -1.7322
  927MOL0     H22356   1.912   3.476   9.217 -0.3749  0.7754 -2.1015
  927MOL0     H22357   1.930   3.634   9.122  0.3380  3.5370  1.7780
  927MOL0     H22358   2.048   3.579   9.398  0.6961  1.1255  0.7748
  927MOL0     H22359   2.026   3.740   9.327 -0.1736 -0.7519  0.9665
  927MOL0     H22360   2.172   3.499   9.206  1.5043 -0.5583  0.0180
  927MOL0     H22361   2.188   3.671   9.134 -1.7578 -0.1269 -0.5518
  927MOL0     H22362   2.476   3.654   9.432  0.1779 -1.1592 -1.8457
  927MOL0     H22363   1.505   3.413   9.127  0.8729  0.5321 -1.0223
  927MOL0     H22364   1.264   3.436   9.179  1.8510  0.4778 -1.9673
  928MOL0     O22365  10.945   0.772   4.444  0.1386  0.8763 -0.0331
  928MOL0     C22366  10.989   0.662   4.481 -0.0384  0.0787 -0.0965
  928MOL0     O22367  10.927   0.567   4.564  0.0988 -0.1041 -0.2373
  928MOL0     C22368  10.806   0.583   4.616 -0.1154 -0.1278 -0.3609
  928MOL0     C22369  10.765   0.708   4.679  0.3310  0.0643  0.4243
  928MOL0     C22370  10.640   0.715   4.745 -0.6613 -0.3327 -0.1099
  928MOL0     C22371  10.559   0.600   4.740  0.4634 -0.4749  0.1027
  928MOL0     O22372  10.436   0.625   4.799  0.5669 -0.1156  0.9908
  928MOL0     C22373  10.350   0.509   4.812  0.0472  0.9382 -1.0920
  928MOL0     C22374  10.236   0.537   4.908  0.5375  0.5529 -0.0780
  928MOL0     C22375  10.140   0.416   4.937  0.3308 -0.3402  0.2319
  928MOL0     C22376  10.004   0.468   4.978 -0.6343  0.4084  0.4099
  928MOL0     C22377   9.900   0.361   5.004 -0.1234 -0.1331  0.2279
  928MOL0     C22378   9.932   0.258   5.111 -0.4890  0.0566 -0.2637
  928MOL0     C22379   9.965   0.324   5.246 -0.3837 -0.1187 -0.3556
  928MOL0     C22380   9.848   0.392   5.311  0.0564 -0.6259  0.1934
  928MOL0     N22381   9.726   0.307   5.342  0.0948  0.4108 -0.1925
  928MOL0     C22382   9.604   0.327   5.276  0.0190  0.4247 -0.4193
  928MOL0     C22383   9.514   0.250   5.340 -0.9346 -0.0360  0.4149
  928MOL0     C22384   9.372   0.220   5.305 -1.0673 -0.1252 -1.0539
  928MOL0     C22385   9.291   0.221   5.435  0.5636  0.7073 -0.4859
  928MOL0     C22386   9.145   0.184   5.406 -0.2373 -0.5820 -0.0807
  928MOL0     C22387   9.052   0.205   5.520  0.8367  0.0606 -0.4461
  928MOL0     O22388   8.920   0.157   5.471 -0.4990  1.4733 -0.4911
  928MOL0     C22389   8.823   0.143   5.564  0.5356 -0.0109 -0.3037
  928MOL0     C22390   8.701   0.093   5.528 -0.0585 -0.6756  0.2051
  928MOL0     C22391   8.586   0.084   5.615 -0.7754  0.1184  0.5350
  928MOL0     C22392   8.599   0.135   5.748  1.2735 -0.2165  0.8255
  928MOL0     C22393   8.486   0.149   5.839  0.1598  0.5585 -0.3977
  928MOL0     O22394   8.510   0.188   5.967 -0.2622 -0.0176 -0.6712
  928MOL0     C22395   8.403   0.163   6.056  0.3747 -0.8007 -0.0383
  928MOL0     C22396   8.297   0.256   6.074  1.0463  0.0603 -0.3163
  928MOL0     C22397   8.178   0.218   6.140 -0.7319  0.6911 -0.7725
  928MOL0     C22398   8.169   0.097   6.208  0.4120  0.1500  0.3713
  928MOL0     O22399   8.061   0.055   6.279  0.4484 -0.1303 -0.5693
  928MOL0     C22400   7.977   0.155   6.339 -0.4286  0.7646  0.1681
  928MOL0     C22401   7.885   0.077   6.432 -0.5418 -0.3228 -0.3012
  928MOL0     C22402   7.758   0.150   6.488 -0.3981 -0.6306  0.1684
  928MOL0     C22403   7.664   0.059   6.570 -0.0484  0.3106  0.4083
  928MOL0     C22404   7.570   0.146   6.663  0.5152  0.3018  0.6011
  928MOL0     C22405   7.454   0.053   6.715 -0.5325 -0.1711  0.1631
  928MOL0     C22406   7.359   0.114   6.818 -0.3255 -0.1211 -0.1856
  928MOL0     C22407   7.305   0.259   6.791  0.0571 -0.3354  0.2422
  928MOL0    Cl22408   7.148   0.272   6.878  0.1553  0.4224 -0.3516
  928MOL0     C22409   8.273   0.006   6.190  0.1273 -0.0109 -0.5187
  928MOL0     C22410   8.392   0.045   6.127 -0.4008  0.2852  0.0276
  928MOL0     O22411   8.377   0.107   5.800 -0.7767 -0.0231 -0.5477
  928MOL0     C22412   8.720   0.187   5.784 -0.9530  0.8433 -0.2682
  928MOL0     C22413   8.829   0.193   5.691 -0.1704  0.5831  0.4947
  928MOL0     N22414   9.584   0.185   5.449 -0.3630 -0.8483 -0.3870
  928MOL0     N22415   9.708   0.221   5.446 -0.2810 -0.6934  1.0024
  928MOL0     C22416  10.598   0.479   4.676 -0.3839 -0.4309  0.0834
  928MOL0     C22417  10.727   0.472   4.628  0.0080  0.1461 -0.2692
  928MOL0     C22418  11.112   0.612   4.414 -0.0770  0.3403  0.3520
  928MOL0     C22419  11.200   0.703   4.353 -0.5505  0.6523 -0.8553
  928MOL0     C22420  11.318   0.662   4.291  0.3265 -0.9738 -0.8775
  928MOL0     C22421  11.344   0.525   4.267 -0.5500 -0.5636  0.7333
  928MOL0     O22422  11.451   0.482   4.196 -0.6540 -0.4245 -0.3255
  928MOL0     C22423  11.553   0.573   4.161  0.3838 -1.9464 -0.8712
  928MOL0     C22424  11.682   0.511   4.118  0.4394 -0.3627  0.2117
  928MOL0     C22425  11.759   0.470   4.233  0.5628 -0.4343  1.2115
  928MOL0     C22426  11.876   0.383   4.189 -1.0408  0.3136  0.2541
  928MOL0     C22427  12.002   0.448   4.159  0.2938 -0.3781  1.3393
  928MOL0     C22428  12.111   0.500   4.135  1.1010 -0.4260  0.4420
  928MOL0     C22429  11.253   0.432   4.310  1.3947 -0.2884 -0.1618
  928MOL0     C22430  11.139   0.475   4.385  0.0707  0.1210  0.3336
  928MOL0     H22431  10.828   0.796   4.669 -0.5715  0.7504  0.5955
  928MOL0     H22432  10.610   0.804   4.800 -0.4460 -0.2516 -0.1225
  928MOL0     H22433  10.402   0.423   4.855 -2.3943  0.7409  1.8001
  928MOL0     H22434  10.306   0.485   4.715  1.1280 -0.3098 -1.2886
  928MOL0     H22435  10.180   0.612   4.851  0.6436 -0.4898 -1.6076
  928MOL0     H22436  10.277   0.572   5.003  0.7391 -2.3457  0.9747
  928MOL0     H22437  10.184   0.358   5.018 -1.0543 -0.1733  1.1276
  928MOL0     H22438  10.133   0.363   4.841 -1.3796  2.8160 -1.5626
  928MOL0     H22439  10.012   0.530   5.068  3.0931  1.2417 -0.3293
  928MOL0     H22440   9.969   0.541   4.905  0.6774  0.0731 -0.5989
  928MOL0     H22441   9.890   0.321   4.903  0.1798  4.2036 -1.7453
  928MOL0     H22442   9.804   0.402   5.037  0.0551  0.6212 -0.1650
  928MOL0     H22443  10.014   0.193   5.079  0.1602 -0.2046  1.7969
  928MOL0     H22444   9.841   0.199   5.127 -1.3822  1.5978  0.5551
  928MOL0     H22445  10.001   0.246   5.313 -1.8534 -0.3530  0.2134
  928MOL0     H22446  10.043   0.400   5.236  0.6496 -0.9552  1.1508
  928MOL0     H22447   9.816   0.478   5.252  2.4364 -0.3326 -0.7793
  928MOL0     H22448   9.881   0.440   5.403 -3.6023 -0.2727  1.4845
  928MOL0     H22449   9.572   0.384   5.189  1.3487  0.4845 -0.8971
  928MOL0     H22450   9.362   0.123   5.256  0.7034 -2.3747  2.5767
  928MOL0     H22451   9.344   0.302   5.238  1.4468  2.6200  0.9608
  928MOL0     H22452   9.283   0.322   5.477 -1.1710 -0.5610  2.5184
  928MOL0     H22453   9.339   0.156   5.508 -0.1609  0.7260  0.0124
  928MOL0     H22454   9.107   0.246   5.325 -1.2401 -1.8421 -0.6030
  928MOL0     H22455   9.133   0.079   5.378  0.9722 -0.9979  0.8748
  928MOL0     H22456   9.043   0.313   5.537  1.4834  0.2901 -1.4963
  928MOL0     H22457   9.090   0.155   5.610  0.0563 -1.0595 -0.7187
  928MOL0     H22458   8.688   0.059   5.426 -1.9693  0.1928  0.1147
  928MOL0     H22459   8.491   0.047   5.579 -1.0055 -0.6494  1.8830
  928MOL0     H22460   8.302   0.350   6.020 -0.9056  0.4437  0.1137
  928MOL0     H22461   8.091   0.282   6.139 -1.9341 -0.7778  1.2982
  928MOL0     H22462   7.919   0.214   6.267 -0.8963  0.3372  0.1964
  928MOL0     H22463   8.039   0.222   6.399  1.8198 -0.1653 -0.9781
  928MOL0     H22464   7.947   0.045   6.516 -0.5943 -0.8070 -0.4432
  928MOL0     H22465   7.855  -0.016   6.384 -4.0627 -0.2569  1.4405
  928MOL0     H22466   7.695   0.193   6.410 -0.7462 -1.7611 -0.1883
  928MOL0     H22467   7.789   0.237   6.547 -0.5536  0.9768 -1.9839
  928MOL0     H22468   7.606  -0.003   6.502 -0.5966 -1.4665  2.3790
  928MOL0     H22469   7.717  -0.015   6.631  0.1403 -0.7082 -0.9644
  928MOL0     H22470   7.516   0.224   6.608 -0.0257 -0.0468  0.6357
  928MOL0     H22471   7.611   0.188   6.755 -1.3544 -0.5632  1.8993
  928MOL0     H22472   7.499  -0.031   6.767 -1.7107 -0.8798  0.0777
  928MOL0     H22473   7.405   0.028   6.620  3.2423 -1.3567 -1.6438
  928MOL0     H22474   7.275   0.045   6.818  0.1785 -0.7697  1.3931
  928MOL0     H22475   7.404   0.101   6.917  0.7120  0.1444 -0.6031
  928MOL0     H22476   7.275   0.271   6.686 -1.0400 -2.9396  0.1681
  928MOL0     H22477   7.372   0.338   6.826 -2.8077  3.1501 -1.4647
  928MOL0     H22478   8.265  -0.090   6.240  0.3927  0.6431  0.8316
  928MOL0     H22479   8.470  -0.030   6.122  2.5297  3.0435  0.6776
  928MOL0     H22480   8.724   0.238   5.880  0.7203  0.2086  0.0336
  928MOL0     H22481   8.924   0.235   5.723 -0.6731  1.4015  0.9560
  928MOL0     H22482  10.543   0.386   4.667  0.7638 -1.1348  0.0912
  928MOL0     H22483  10.758   0.394   4.560 -1.3604  0.9729 -1.9308
  928MOL0     H22484  11.173   0.806   4.371 -0.9031  0.3830  0.2960
  928MOL0     H22485  11.388   0.741   4.264  0.1927 -0.7146 -0.4848
  928MOL0     H22486  11.581   0.651   4.232 -0.1553 -2.1904 -0.3830
  928MOL0     H22487  11.505   0.628   4.080 -1.5721  1.0381  2.0843
  928MOL0     H22488  11.652   0.429   4.052 -4.0982  1.2534 -0.1493
  928MOL0     H22489  11.746   0.574   4.056 -1.2523 -0.8275 -2.1711
  928MOL0     H22490  11.702   0.395   4.288 -0.1142  0.0761  1.2181
  928MOL0     H22491  11.793   0.559   4.287  0.4671  0.6130 -0.4002
  928MOL0     H22492  11.890   0.308   4.268 -2.1847  1.5896  1.7314
  928MOL0     H22493  11.854   0.323   4.100 -1.6022 -0.6685  1.0219
  928MOL0     H22494  12.207   0.541   4.109  0.9398 -0.9926 -1.1654
  928MOL0     H22495  11.279   0.327   4.299  2.4118 -0.1410  0.6244
  928MOL0     H22496  11.067   0.397   4.410 -0.7514  0.6621 -0.2802
  929MOL0     O22497   7.960  10.053   0.618  0.5319  0.0145 -0.6721
  929MOL0     C22498   8.008  10.167   0.636 -0.2159  0.4708  0.2164
  929MOL0     O22499   7.951  10.287   0.614 -0.7599 -0.0402  0.5033
  929MOL0     C22500   7.842  10.279   0.532 -0.4407 -0.5212  0.0590
  929MOL0     C22501   7.720  10.249   0.585 -0.0106 -0.0870  0.3945
  929MOL0     C22502   7.604  10.257   0.507 -0.2464  0.3748  0.2082
  929MOL0     C22503   7.615  10.288   0.369 -0.2021 -0.6043 -0.5043
  929MOL0     O22504   7.499  10.308   0.288  0.7980 -0.4772 -0.1948
  929MOL0     C22505   7.517  10.251   0.153 -0.2954 -0.3862  0.3670
  929MOL0     C22506   7.390  10.270   0.065 -0.5955 -0.5432  0.8460
  929MOL0     C22507   7.281  10.183   0.109  0.1706  0.0299  0.1817
  929MOL0     C22508   7.146  10.209   0.038 -0.3030  0.1329  0.0723
  929MOL0     C22509   7.040  10.095   0.059 -0.7412 -0.8055  0.0478
  929MOL0     C22510   6.942  10.091  -0.056  0.5165 -0.6679  0.3086
  929MOL0     C22511   6.859  10.219  -0.072 -0.1742  0.4476  0.7440
  929MOL0     C22512   6.788  10.220  -0.213 -0.2271  0.5864  0.3388
  929MOL0     N22513   6.652  10.176  -0.216 -0.2690 -0.7383 -0.0417
  929MOL0     C22514   6.570  10.186  -0.322  0.4540  0.6371 -0.3391
  929MOL0     C22515   6.442  10.186  -0.278 -0.3720 -0.6001  0.4996
  929MOL0     C22516   6.307  10.207  -0.340 -0.0244  0.3287  0.4557
  929MOL0     C22517   6.268  10.359  -0.346  0.0838 -0.4056  0.9844
  929MOL0     C22518   6.124  10.376  -0.392 -0.1180  0.4185  0.1118
  929MOL0     C22519   6.025  10.371  -0.284 -0.2848 -0.2269  0.5574
  929MOL0     O22520   5.898  10.420  -0.332 -0.6982 -0.0854  0.4298
  929MOL0     C22521   5.808  10.345  -0.403  0.3182  0.6685  0.8667
  929MOL0     C22522   5.806  10.214  -0.423  0.5638 -0.1929  0.0487
  929MOL0     C22523   5.704  10.152  -0.481 -0.2077 -0.5294  0.1308
  929MOL0     C22524   5.598  10.227  -0.536  0.1836 -0.0542  0.2047
  929MOL0     C22525   5.487  10.162  -0.606  0.4074  0.3479  0.3615
  929MOL0     O22526   5.370  10.242  -0.636  1.0229  0.1120  0.1600
  929MOL0     C22527   5.254  10.186  -0.686 -0.5182  0.3810 -0.1561
  929MOL0     C22528   5.196  10.250  -0.793 -0.6867 -0.4606 -0.1246
  929MOL0     C22529   5.069  10.206  -0.849 -0.3572  0.6445 -0.0579
  929MOL0     C22530   4.999  10.097  -0.793  0.2953 -0.0241 -0.4538
  929MOL0     O22531   4.880  10.049  -0.834 -0.1082  0.2487  0.2779
  929MOL0     C22532   4.846  10.059  -0.977  0.2255 -0.0179 -0.4383
  929MOL0     C22533   4.720  10.153  -0.987 -0.0409  0.1912  0.7796
  929MOL0     C22534   4.676  10.144  -1.133  0.5567 -0.7565  0.6349
  929MOL0     C22535   4.541  10.214  -1.149  0.3024 -0.7117  0.5769
  929MOL0     C22536   4.460  10.148  -1.258  1.0075 -0.9555 -0.4685
  929MOL0     C22537   4.307  10.181  -1.233 -0.2084  0.6100  0.3140
  929MOL0     C22538   4.206  10.082  -1.306 -0.4967  0.2421 -0.2226
  929MOL0     C22539   4.066  10.118  -1.257 -0.4591  0.5846  0.1524
  929MOL0    Cl22540   3.936  10.009  -1.314 -0.0542 -0.3090  0.3522
  929MOL0     C22541   5.063  10.035  -0.679 -0.7521  0.3153  0.1756
  929MOL0     C22542   5.185  10.081  -0.620  0.3733  0.2357 -0.2124
  929MOL0     O22543   5.499  10.041  -0.629 -0.8400  0.1076  0.0060
  929MOL0     C22544   5.594  10.364  -0.521  0.4717  0.4688  0.5402
  929MOL0     C22545   5.700  10.426  -0.453 -0.4477  0.6066 -0.2384
  929MOL0     N22546   6.451  10.163  -0.142 -1.2484 -0.6414  0.2019
  929MOL0     N22547   6.575  10.153  -0.107  0.4640 -0.6337  0.5387
  929MOL0     C22548   7.734  10.327   0.325  0.4822 -0.7921  0.1222
  929MOL0     C22549   7.857  10.314   0.400  0.4403  0.3444  0.2931
  929MOL0     C22550   8.134  10.170   0.703 -0.5502  0.0681 -0.5122
  929MOL0     C22551   8.205  10.052   0.729 -0.0157 -0.6307  1.4139
  929MOL0     C22552   8.322  10.049   0.800  0.6910 -0.4461 -0.5747
  929MOL0     C22553   8.377  10.172   0.842 -0.3000 -0.2624 -0.2463
  929MOL0     O22554   8.491  10.188   0.907 -0.2050 -0.0184  0.4223
  929MOL0     C22555   8.584  10.080   0.922 -0.7987 -0.1964 -0.5932
  929MOL0     C22556   8.714  10.135   0.991  0.4298 -0.4736  0.4770
  929MOL0     C22557   8.683  10.199   1.130  0.0700 -0.5365  0.4256
  929MOL0     C22558   8.757  10.327   1.167 -0.2206 -0.5803  0.0720
  929MOL0     C22559   8.904  10.302   1.163 -0.9428 -0.3247  0.0218
  929MOL0     C22560   9.032  10.278   1.151  0.2035  0.4071  0.2452
  929MOL0     C22561   8.298  10.290   0.834 -0.1016 -0.8385  0.3818
  929MOL0     C22562   8.173  10.293   0.765  0.7271 -0.3958 -1.0526
  929MOL0     H22563   7.718  10.225   0.690  0.7838 -1.5530  0.0998
  929MOL0     H22564   7.512  10.219   0.549 -0.6648 -0.1295 -1.1148
  929MOL0     H22565   7.557  10.150   0.162  1.0442 -0.0829 -1.6049
  929MOL0     H22566   7.595  10.304   0.097 -2.4610  1.0967 -1.4415
  929MOL0     H22567   7.412  10.249  -0.040 -2.6946  1.5264 -0.0960
  929MOL0     H22568   7.352  10.373   0.065 -1.6242 -0.8848 -0.8696
  929MOL0     H22569   7.258  10.198   0.215 -0.2019 -0.6238  0.1964
  929MOL0     H22570   7.304  10.077   0.093  0.6171  0.4682 -2.6993
  929MOL0     H22571   7.111  10.308   0.070  2.6301  1.0181  0.8529
  929MOL0     H22572   7.158  10.213  -0.071  3.0672 -2.3029  0.1907
  929MOL0     H22573   6.980  10.121   0.146  0.2607 -1.0601  0.8294
  929MOL0     H22574   7.091   9.999   0.069  1.2780 -0.1010 -2.3233
  929MOL0     H22575   6.878  10.002  -0.048  1.1303 -1.2207 -0.6996
  929MOL0     H22576   7.003  10.060  -0.142  0.9615  1.3766 -0.1554
  929MOL0     H22577   6.778  10.215   0.001 -1.2664  0.5114 -0.4247
  929MOL0     H22578   6.920  10.309  -0.067  1.5379 -0.3736 -2.5788
  929MOL0     H22579   6.835  10.149  -0.282 -2.3374  1.9903 -2.7476
  929MOL0     H22580   6.796  10.319  -0.260  0.7427  0.6163  0.5408
  929MOL0     H22581   6.605  10.186  -0.425  0.3631  0.0073 -0.3732
  929MOL0     H22582   6.240  10.152  -0.274  2.2524 -1.4998  1.3914
  929MOL0     H22583   6.290  10.158  -0.436 -1.5168 -1.1452  1.4186
  929MOL0     H22584   6.327  10.410  -0.422  0.9086 -0.7890  1.3566
  929MOL0     H22585   6.292  10.411  -0.253  1.1787  2.5909 -0.8233
  929MOL0     H22586   6.118  10.471  -0.445 -1.3226 -1.2403 -3.0151
  929MOL0     H22587   6.098  10.309  -0.475  0.7885  1.2904 -0.8956
  929MOL0     H22588   6.051  10.429  -0.195 -2.3041  0.8727  0.5013
  929MOL0     H22589   6.023  10.270  -0.242 -0.1178 -1.3633 -2.0278
  929MOL0     H22590   5.882  10.153  -0.376 -0.7729 -0.6004  1.7990
  929MOL0     H22591   5.711  10.044  -0.493 -0.6523 -0.4306 -1.1981
  929MOL0     H22592   5.249  10.333  -0.839 -2.6978  0.2108 -1.3743
  929MOL0     H22593   5.027  10.254  -0.937  0.2145 -0.6974 -1.0845
  929MOL0     H22594   4.798   9.965  -1.009  1.0206 -0.6598  0.2027
  929MOL0     H22595   4.932  10.077  -1.042 -1.2732 -0.8360 -2.8047
  929MOL0     H22596   4.746  10.258  -0.973 -1.4070  0.3525  2.4130
  929MOL0     H22597   4.655  10.113  -0.909  3.0700  0.0056  3.4887
  929MOL0     H22598   4.663  10.045  -1.177  2.5857 -1.6522  1.9009
  929MOL0     H22599   4.747  10.193  -1.200 -2.0286  0.2453 -1.5414
  929MOL0     H22600   4.487  10.184  -1.058 -2.5547 -3.6111 -1.8018
  929MOL0     H22601   4.556  10.319  -1.174  3.5017 -0.7479  1.9277
  929MOL0     H22602   4.476  10.040  -1.259 -0.9286 -1.3543  2.0732
  929MOL0     H22603   4.495  10.183  -1.356 -1.6791 -0.5953 -1.3891
  929MOL0     H22604   4.280  10.282  -1.264 -1.6788 -0.0593 -0.6710
  929MOL0     H22605   4.294  10.170  -1.125  1.5113  1.7238  0.6776
  929MOL0     H22606   4.224  10.090  -1.414 -2.3038 -2.2250 -0.7857
  929MOL0     H22607   4.235   9.981  -1.275  1.4225  1.3710  1.9853
  929MOL0     H22608   4.040  10.225  -1.265 -0.1067  1.0502  3.7030
  929MOL0     H22609   4.064  10.109  -1.148 -2.2492  2.4386  0.3543
  929MOL0     H22610   5.013   9.943  -0.650  0.9501 -0.0362  2.2357
  929MOL0     H22611   5.237  10.031  -0.540  2.9033  0.0636 -1.8696
  929MOL0     H22612   5.512  10.422  -0.561  0.0317 -0.3089  0.2760
  929MOL0     H22613   5.698  10.532  -0.427  0.8808  0.3758  0.9335
  929MOL0     H22614   7.754  10.374   0.229 -0.1028  0.4366  0.5657
  929MOL0     H22615   7.953  10.346   0.361  1.2109 -1.0241  0.9983
  929MOL0     H22616   8.180   9.959   0.678  3.9803 -0.9265 -0.4393
  929MOL0     H22617   8.374   9.954   0.804  1.7799  0.1361 -0.6219
  929MOL0     H22618   8.612  10.029   0.829  0.0533 -2.0121  0.5916
  929MOL0     H22619   8.536  10.000   0.979  0.6197 -1.6217 -1.2878
  929MOL0     H22620   8.788  10.056   1.008  1.2097  0.5245  2.0462
  929MOL0     H22621   8.762  10.209   0.926 -0.7695  2.7104  2.9367
  929MOL0     H22622   8.697  10.125   1.209 -0.4531 -1.1398 -0.0434
  929MOL0     H22623   8.580  10.234   1.134 -0.0270 -0.8691  0.9053
  929MOL0     H22624   8.730  10.406   1.096 -0.4586 -0.0969  0.6990
  929MOL0     H22625   8.731  10.364   1.267 -3.2941  0.0306 -0.8402
  929MOL0     H22626   9.137  10.265   1.136  0.0075 -4.2609  1.3524
  929MOL0     H22627   8.331  10.387   0.870 -0.5803 -0.9567  1.1495
  929MOL0     H22628   8.102  10.375   0.767  0.4421 -0.6535 -0.0350
  930MOL0     O22629   5.847   5.308   5.508  0.8864  0.6788 -0.0842
  930MOL0     C22630   5.871   5.430   5.489 -0.0604  0.9183 -0.5404
  930MOL0     O22631   5.780   5.532   5.515 -0.6448 -0.4783 -0.4665
  930MOL0     C22632   5.657   5.493   5.537  1.2752  0.6755 -0.5028
  930MOL0     C22633   5.603   5.511   5.664  0.2612 -0.0809  0.7748
  930MOL0     C22634   5.461   5.484   5.678 -0.3696  0.1004  0.3987
  930MOL0     C22635   5.380   5.444   5.575  0.7555 -0.0709 -0.2192
  930MOL0     O22636   5.245   5.426   5.597  0.2606 -0.1249  0.2017
  930MOL0     C22637   5.159   5.545   5.588  0.5895 -0.0046  0.0568
  930MOL0     C22638   5.020   5.506   5.546  0.6433  0.2544  0.4322
  930MOL0     C22639   4.920   5.625   5.566 -0.4078  0.1186 -0.5482
  930MOL0     C22640   4.789   5.605   5.504  0.2447 -0.7778  0.0675
  930MOL0     C22641   4.712   5.739   5.510  0.3467  0.3383 -0.5559
  930MOL0     C22642   4.734   5.820   5.381  0.2036  0.1680 -0.1162
  930MOL0     C22643   4.658   5.747   5.264 -0.0092 -0.7944 -0.0962
  930MOL0     C22644   4.644   5.839   5.145  0.2058  0.0037 -0.0916
  930MOL0     N22645   4.561   5.773   5.045 -0.2067  0.5251 -0.0972
  930MOL0     C22646   4.585   5.655   4.974 -0.0735 -0.1619  0.7488
  930MOL0     C22647   4.465   5.619   4.929 -0.5746 -0.0742  0.0642
  930MOL0     C22648   4.453   5.496   4.835  0.3678 -0.1207 -0.5264
  930MOL0     C22649   4.450   5.535   4.687 -0.5399  0.2817  0.1896
  930MOL0     C22650   4.469   5.408   4.602 -0.2395  0.4866  0.0134
  930MOL0     C22651   4.349   5.315   4.610  0.0156 -0.6970  0.1833
  930MOL0     O22652   4.222   5.383   4.573  0.0709  0.5824  0.1768
  930MOL0     C22653   4.108   5.308   4.597 -0.4681 -0.4003  0.8995
  930MOL0     C22654   4.097   5.178   4.629 -0.8159 -0.0163  0.7396
  930MOL0     C22655   3.979   5.108   4.640  0.3943 -0.6847  0.0593
  930MOL0     C22656   3.855   5.176   4.628 -1.1461  0.9635  0.5397
  930MOL0     C22657   3.729   5.107   4.629  0.6481  1.2263  0.7094
  930MOL0     O22658   3.626   5.180   4.590 -0.3658 -0.3619  0.7585
  930MOL0     C22659   3.505   5.121   4.588  0.1603 -0.0290 -0.1172
  930MOL0     C22660   3.437   5.078   4.702  0.2758  0.9634 -0.1468
  930MOL0     C22661   3.313   5.010   4.697  0.7232  0.4733  0.9063
  930MOL0     C22662   3.247   4.994   4.567 -0.4863  0.3711 -0.7525
  930MOL0     O22663   3.124   4.945   4.558  0.0508  0.2588 -0.1241
  930MOL0     C22664   3.022   5.011   4.640  0.3611 -0.5364 -0.4291
  930MOL0     C22665   2.896   4.945   4.602  0.6768  0.5627  0.0261
  930MOL0     C22666   2.776   5.037   4.628 -0.1946 -0.4241 -0.8310
  930MOL0     C22667   2.642   4.956   4.590 -0.0571 -1.1849  0.0075
  930MOL0     C22668   2.522   5.030   4.646  0.1467 -0.6790  0.1060
  930MOL0     C22669   2.410   4.929   4.642 -0.5088 -0.5937 -0.0089
  930MOL0     C22670   2.286   4.998   4.704 -0.4565  0.4745 -0.5573
  930MOL0     C22671   2.171   4.905   4.673 -0.5028  0.0389  0.2492
  930MOL0    Cl22672   2.026   4.960   4.758  0.0259  0.4759 -0.2393
  930MOL0     C22673   3.321   5.031   4.450  0.2871 -0.4969 -0.0707
  930MOL0     C22674   3.445   5.092   4.468  0.1641  0.2301  0.5263
  930MOL0     O22675   3.724   4.991   4.674  0.1039 -0.5676  0.2320
  930MOL0     C22676   3.864   5.307   4.591  0.4460 -0.2405  0.0939
  930MOL0     C22677   3.986   5.376   4.579  0.2707  0.1799 -0.8663
  930MOL0     N22678   4.366   5.706   4.972  0.5094 -0.1939 -0.0324
  930MOL0     N22679   4.425   5.800   5.042  0.0747  0.2736  0.5273
  930MOL0     C22680   5.435   5.424   5.453  0.4570 -0.3706  0.2518
  930MOL0     C22681   5.573   5.446   5.434  0.3642 -0.3452 -0.0434
  930MOL0     C22682   6.004   5.476   5.448  0.4532  0.9443 -0.3777
  930MOL0     C22683   6.093   5.394   5.371  0.7393 -0.4546 -0.1831
  930MOL0     C22684   6.222   5.446   5.343 -0.1270  0.3340  0.5629
  930MOL0     C22685   6.255   5.581   5.365 -0.9861 -0.0199 -0.3475
  930MOL0     O22686   6.381   5.629   5.332  0.3422  0.1258  0.3604
  930MOL0     C22687   6.379   5.764   5.270 -0.1773  0.8994 -0.5376
  930MOL0     C22688   6.513   5.802   5.218 -0.3777  0.0679  0.5651
  930MOL0     C22689   6.501   5.946   5.181 -1.3647  0.5527 -0.8497
  930MOL0     C22690   6.631   5.994   5.122 -0.0275  0.2793  0.5321
  930MOL0     C22691   6.623   6.132   5.063 -0.2983 -0.0858 -0.0603
  930MOL0     C22692   6.620   6.240   4.995  0.3384  0.4202 -0.4036
  930MOL0     C22693   6.169   5.657   5.438  0.2702  0.2061  0.0502
  930MOL0     C22694   6.050   5.606   5.481  0.4307  0.3905  0.3623
  930MOL0     H22695   5.659   5.551   5.748  0.9285  1.1627 -0.2337
  930MOL0     H22696   5.410   5.493   5.773 -2.3678 -0.5893 -0.5552
  930MOL0     H22697   5.189   5.618   5.513 -1.0844  0.4673 -0.2082
  930MOL0     H22698   5.145   5.590   5.687 -1.4327 -0.6611  0.1231
  930MOL0     H22699   4.981   5.419   5.600 -0.1167 -1.5331 -2.7319
  930MOL0     H22700   5.031   5.469   5.444 -2.2810  0.6908 -0.1254
  930MOL0     H22701   4.969   5.717   5.533 -0.4531  0.6884  0.9238
  930MOL0     H22702   4.900   5.643   5.672 -2.1306 -1.3510 -0.5758
  930MOL0     H22703   4.800   5.575   5.399  2.6217  0.6172 -0.1486
  930MOL0     H22704   4.735   5.528   5.561 -1.8584  0.9217  0.4780
  930MOL0     H22705   4.743   5.791   5.601 -0.6124  1.4780 -0.8452
  930MOL0     H22706   4.605   5.720   5.528  0.5380  0.2984  0.5960
  930MOL0     H22707   4.841   5.841   5.370  0.4540 -1.1082 -0.2823
  930MOL0     H22708   4.679   5.913   5.398 -0.3247  0.0718 -1.2189
  930MOL0     H22709   4.718   5.662   5.229 -0.8964 -1.7003  0.5326
  930MOL0     H22710   4.558   5.716   5.297 -0.5161 -1.8739 -2.4666
  930MOL0     H22711   4.743   5.857   5.102  0.4344 -3.6574 -1.5051
  930MOL0     H22712   4.599   5.933   5.178  1.1660  0.0909  1.0304
  930MOL0     H22713   4.683   5.611   4.954 -1.2818 -1.4963 -3.1971
  930MOL0     H22714   4.370   5.435   4.872  0.0576  0.4095 -0.3262
  930MOL0     H22715   4.543   5.439   4.859  1.7729  2.9585  2.5275
  930MOL0     H22716   4.534   5.603   4.668 -1.3973  1.0877 -0.7991
  930MOL0     H22717   4.355   5.584   4.666  1.2373  4.0667  0.1365
  930MOL0     H22718   4.486   5.445   4.500  1.1812  0.0614  0.0735
  930MOL0     H22719   4.561   5.357   4.630 -0.9042 -1.1135 -0.5674
  930MOL0     H22720   4.325   5.290   4.714 -1.0045  1.8226  0.6153
  930MOL0     H22721   4.367   5.226   4.548 -0.1925  2.3870 -4.8880
  930MOL0     H22722   4.191   5.127   4.645 -0.3475  0.4364 -0.4827
  930MOL0     H22723   3.981   5.002   4.664  2.3420 -0.5396  0.6849
  930MOL0     H22724   3.477   5.111   4.797  0.0696  2.0451 -0.4198
  930MOL0     H22725   3.259   5.004   4.791 -1.3220  1.4698 -0.1272
  930MOL0     H22726   3.017   5.118   4.616 -0.7658 -0.1829  1.1839
  930MOL0     H22727   3.052   5.000   4.744 -0.7815 -1.4818 -0.1781
  930MOL0     H22728   2.886   4.851   4.658  0.8819 -0.3238 -1.3840
  930MOL0     H22729   2.900   4.926   4.495 -1.3762 -1.5572  0.2407
  930MOL0     H22730   2.800   5.125   4.568  0.6828  0.8614  1.3359
  930MOL0     H22731   2.769   5.066   4.733 -0.0022  1.3338 -1.2841
  930MOL0     H22732   2.643   4.941   4.482  0.2360  2.4446 -0.6297
  930MOL0     H22733   2.649   4.855   4.632 -2.3099 -2.0592 -1.5587
  930MOL0     H22734   2.490   5.105   4.573  0.1196  0.2474  1.0442
  930MOL0     H22735   2.530   5.073   4.746  0.9831  1.5820 -0.8520
  930MOL0     H22736   2.438   4.850   4.712  0.8186  1.5595  2.0011
  930MOL0     H22737   2.402   4.890   4.540  0.7486  1.7988 -1.1015
  930MOL0     H22738   2.306   5.003   4.811  1.3634  0.3907 -0.8701
  930MOL0     H22739   2.264   5.099   4.668 -1.4043  1.7093  3.0507
  930MOL0     H22740   2.190   4.808   4.719  1.2693  0.0444 -0.4203
  930MOL0     H22741   2.146   4.903   4.567 -0.6797  0.7114  0.2720
  930MOL0     H22742   3.279   5.012   4.352  1.0082  1.5557 -0.8369
  930MOL0     H22743   3.505   5.131   4.386  0.5002 -1.4060 -0.0483
  930MOL0     H22744   3.776   5.365   4.566 -0.9652 -2.1930  0.3197
  930MOL0     H22745   3.986   5.475   4.536  2.7941  0.5843 -0.1007
  930MOL0     H22746   5.368   5.392   5.373  1.8171 -0.4285 -0.9099
  930MOL0     H22747   5.617   5.430   5.336  0.5784  1.6898 -0.3141
  930MOL0     H22748   6.051   5.298   5.342 -1.6997  0.1722  1.0019
  930MOL0     H22749   6.286   5.376   5.290 -1.7241  0.6072 -1.8934
  930MOL0     H22750   6.346   5.835   5.345 -0.9171 -0.3975  0.4019
  930MOL0     H22751   6.306   5.779   5.190  0.4914  3.3190 -0.7629
  930MOL0     H22752   6.605   5.787   5.274 -0.3704 -1.9712  0.0685
  930MOL0     H22753   6.524   5.750   5.122 -3.4637 -0.3169  0.2936
  930MOL0     H22754   6.472   6.006   5.268 -0.0215  0.5241 -0.3680
  930MOL0     H22755   6.418   5.961   5.111 -2.8436 -0.3563  0.6131
  930MOL0     H22756   6.720   5.993   5.185  0.6691 -0.3355 -0.4336
  930MOL0     H22757   6.658   5.930   5.037 -1.4014  0.4397 -0.0615
  930MOL0     H22758   6.620   6.327   4.932 -5.7839  2.3477  1.5807
  930MOL0     H22759   6.198   5.753   5.480  0.7470 -1.0491  2.8417
  930MOL0     H22760   5.982   5.668   5.539 -2.0457 -2.3911  0.6561
  931MOL0     O22761   3.070   9.604   5.087 -0.3134  0.3770  0.0458
  931MOL0     C22762   3.125   9.511   5.153  0.2119 -1.1622  0.6013
  931MOL0     O22763   3.062   9.400   5.198  0.9386  0.0089  0.1559
  931MOL0     C22764   2.925   9.414   5.204 -0.6182 -0.0723  0.5868
  931MOL0     C22765   2.846   9.470   5.302 -0.8040  0.2792 -0.1607
  931MOL0     C22766   2.708   9.463   5.305  0.2510 -0.8364 -0.2605
  931MOL0     C22767   2.635   9.402   5.200  0.1920  0.2851  0.6900
  931MOL0     O22768   2.499   9.402   5.199 -0.0621  0.3889  0.0399
  931MOL0     C22769   2.433   9.374   5.077 -0.2176 -0.0195  0.1345
  931MOL0     C22770   2.282   9.363   5.106 -0.2779 -0.0354  0.2801
  931MOL0     C22771   2.247   9.232   5.174 -0.5234  0.4521  0.2723
  931MOL0     C22772   2.099   9.221   5.220  0.3231  0.0995  0.6618
  931MOL0     C22773   2.001   9.226   5.101  0.1082  0.1701  0.4544
  931MOL0     C22774   1.873   9.149   5.143 -0.2958 -0.1490 -0.7090
  931MOL0     C22775   1.805   9.216   5.263  0.2878 -0.0245  0.0353
  931MOL0     C22776   1.754   9.361   5.236 -0.7153  0.3059  0.2230
  931MOL0     N22777   1.672   9.410   5.342  0.2058  0.1465  0.3115
  931MOL0     C22778   1.539   9.373   5.375  0.2937  0.1635  0.9135
  931MOL0     C22779   1.517   9.448   5.484 -0.1636  0.5682  0.0246
  931MOL0     C22780   1.396   9.448   5.577  0.1389  0.3467  0.6635
  931MOL0     C22781   1.275   9.503   5.498 -0.4312  0.2229  0.5457
  931MOL0     C22782   1.153   9.553   5.589  0.2179 -0.3898  0.1134
  931MOL0     C22783   1.133   9.485   5.729  0.1297 -0.6825  0.0429
  931MOL0     O22784   1.096   9.349   5.707  0.7810 -0.7115 -0.2744
  931MOL0     C22785   0.964   9.313   5.721 -1.1006  1.0755 -0.0435
  931MOL0     C22786   0.946   9.183   5.758 -0.9206 -0.8103 -0.3590
  931MOL0     C22787   0.817   9.130   5.763  0.3763 -0.5405  0.1830
  931MOL0     C22788   0.697   9.209   5.747 -0.7333  0.1772 -0.6970
  931MOL0     C22789   0.563   9.149   5.756  0.1553  0.1319 -0.0108
  931MOL0     O22790   0.464   9.245   5.749  0.0865 -0.6257 -0.3664
  931MOL0     C22791   0.337   9.196   5.796 -0.3861 -0.9329 -0.7537
  931MOL0     C22792   0.334   9.158   5.929  0.0741 -0.1509 -0.1842
  931MOL0     C22793   0.213   9.092   5.977 -0.0845 -0.8384  0.3766
  931MOL0     C22794   0.101   9.085   5.901 -0.6102 -1.0434 -0.5799
  931MOL0     O22795  -0.005   9.015   5.946 -1.0756  0.3216 -0.3954
  931MOL0     C22796  -0.023   9.006   6.091  0.8644  1.3886 -0.3338
  931MOL0     C22797  -0.162   8.953   6.124 -0.1840  0.5161 -0.7664
  931MOL0     C22798  -0.169   8.926   6.272 -0.2995  0.0556  0.1144
  931MOL0     C22799  -0.296   8.859   6.315  0.3820  0.7684 -0.1304
  931MOL0     C22800  -0.413   8.953   6.288  0.2105 -0.0221 -0.1130
  931MOL0     C22801  -0.537   8.895   6.355 -0.5252 -0.1277  0.1989
  931MOL0     C22802  -0.656   8.981   6.317 -0.1038 -0.0512 -0.3976
  931MOL0     C22803  -0.777   8.894   6.357  0.0484  0.6578  0.1665
  931MOL0    Cl22804  -0.907   9.002   6.329  0.1666  0.5699  0.4164
  931MOL0     C22805   0.094   9.154   5.782  0.4632 -1.1240  0.0918
  931MOL0     C22806   0.213   9.200   5.721  0.6271  0.1543  0.5473
  931MOL0     O22807   0.546   9.029   5.770  0.2050 -0.7367  0.7549
  931MOL0     C22808   0.723   9.343   5.709 -0.3905  0.5981  1.1217
  931MOL0     C22809   0.848   9.391   5.694  0.1667 -0.0955 -0.0187
  931MOL0     N22810   1.621   9.539   5.506  0.0067  0.4878  0.2148
  931MOL0     N22811   1.714   9.508   5.426  0.0091  0.0164  0.0479
  931MOL0     C22812   2.717   9.327   5.112  0.5680  0.2775  0.3537
  931MOL0     C22813   2.861   9.336   5.108  0.6515  0.9898  0.0645
  931MOL0     C22814   3.270   9.517   5.182 -0.1443 -0.5153  0.1116
  931MOL0     C22815   3.350   9.601   5.096 -0.3267  0.1908 -0.1810
  931MOL0     C22816   3.490   9.610   5.109  0.2772  0.4305  0.1605
  931MOL0     C22817   3.561   9.546   5.211 -0.4750  0.9768 -0.3883
  931MOL0     O22818   3.696   9.558   5.238  1.0625 -0.3263  0.4183
  931MOL0     C22819   3.785   9.613   5.144 -0.0737 -0.0771  0.1460
  931MOL0     C22820   3.924   9.611   5.197 -0.1953  0.8855 -0.1229
  931MOL0     C22821   4.030   9.637   5.088  1.2555 -0.2762 -0.3901
  931MOL0     C22822   4.174   9.642   5.131  0.2463  0.2226  0.0205
  931MOL0     C22823   4.254   9.717   5.043 -0.6018 -0.7502 -0.1966
  931MOL0     C22824   4.298   9.782   4.953 -0.5140 -0.1806  0.4161
  931MOL0     C22825   3.484   9.463   5.296  0.1340 -0.4263 -0.3928
  931MOL0     C22826   3.345   9.446   5.274  0.4507  0.6298 -0.6630
  931MOL0     H22827   2.896   9.524   5.382 -1.8353  0.8573  0.1097
  931MOL0     H22828   2.663   9.516   5.388  0.0530  0.0328 -0.9090
  931MOL0     H22829   2.462   9.281   5.027 -2.8919 -1.0219  0.2749
  931MOL0     H22830   2.442   9.459   5.007 -2.4741 -0.9415 -1.4015
  931MOL0     H22831   2.219   9.384   5.020 -3.3401  2.3759  2.8428
  931MOL0     H22832   2.259   9.449   5.170  0.4659 -0.8595  1.7279
  931MOL0     H22833   2.312   9.216   5.260  2.5855 -1.6335 -2.2327
  931MOL0     H22834   2.279   9.154   5.104  0.4132  0.1673  0.9940
  931MOL0     H22835   2.085   9.138   5.289  0.5345 -0.9031 -0.4686
  931MOL0     H22836   2.070   9.308   5.279  2.6641  0.6238  1.1630
  931MOL0     H22837   2.042   9.187   5.007  1.1108 -0.1997  1.0313
  931MOL0     H22838   1.978   9.332   5.087  0.2481  0.6065  3.1146
  931MOL0     H22839   1.887   9.044   5.173  2.4129 -0.2487 -2.0224
  931MOL0     H22840   1.805   9.153   5.058 -1.4713  1.7693  0.2521
  931MOL0     H22841   1.717   9.163   5.302  0.6080  1.0508  2.3513
  931MOL0     H22842   1.875   9.216   5.347  0.0918  1.0399  0.2155
  931MOL0     H22843   1.713   9.366   5.135  0.0262 -1.2263 -0.1715
  931MOL0     H22844   1.840   9.427   5.224 -0.7443  0.7357  2.0840
  931MOL0     H22845   1.474   9.299   5.329  0.5490  0.7571 -0.4189
  931MOL0     H22846   1.425   9.502   5.667  0.6228  0.1249  0.6431
  931MOL0     H22847   1.376   9.349   5.619  0.9428  1.0009  2.6820
  931MOL0     H22848   1.242   9.422   5.432  2.8755 -0.5524 -0.3927
  931MOL0     H22849   1.302   9.587   5.433 -1.0402 -0.8506 -1.1644
  931MOL0     H22850   1.157   9.662   5.598 -2.0735 -0.1786 -0.7720
  931MOL0     H22851   1.062   9.531   5.533 -0.1505  0.4768  0.3527
  931MOL0     H22852   1.058   9.544   5.782 -1.1941 -0.4955 -1.9408
  931MOL0     H22853   1.224   9.491   5.789  0.3563  2.6104 -0.4101
  931MOL0     H22854   1.031   9.121   5.785 -0.5403  0.8654  2.8241
  931MOL0     H22855   0.804   9.027   5.794 -0.8006 -0.1234  1.2068
  931MOL0     H22856   0.425   9.167   5.986  0.4216 -1.9314 -0.3875
  931MOL0     H22857   0.212   9.056   6.080 -2.5994 -1.5409  0.1616
  931MOL0     H22858  -0.008   9.102   6.141 -0.5142  1.2585  0.3677
  931MOL0     H22859   0.047   8.935   6.135  2.4955  2.9233 -0.3492
  931MOL0     H22860  -0.182   8.857   6.076 -3.5111 -0.3231  1.9015
  931MOL0     H22861  -0.239   9.020   6.087 -2.3813 -2.1014 -1.2780
  931MOL0     H22862  -0.159   9.021   6.325  3.5802 -0.7498  1.1193
  931MOL0     H22863  -0.080   8.867   6.295  0.4034  0.9622 -0.2237
  931MOL0     H22864  -0.294   8.765   6.260  0.5339  0.1998  0.8095
  931MOL0     H22865  -0.285   8.834   6.422  3.4915 -1.6049 -0.8561
  931MOL0     H22866  -0.431   8.984   6.185 -1.4857  1.4132  0.5639
  931MOL0     H22867  -0.394   9.047   6.340 -1.0010  1.3611 -2.0247
  931MOL0     H22868  -0.519   8.897   6.463  3.4939  0.6835 -0.3147
  931MOL0     H22869  -0.548   8.790   6.327  0.9566 -0.1527 -0.3575
  931MOL0     H22870  -0.666   9.075   6.371 -0.6819  1.4493 -2.9235
  931MOL0     H22871  -0.653   9.008   6.211  0.4836  0.6980 -0.1956
  931MOL0     H22872  -0.785   8.883   6.466 -2.7824  1.2856  0.1057
  931MOL0     H22873  -0.793   8.796   6.310  0.8140  0.8323 -0.4823
  931MOL0     H22874   0.011   9.161   5.713  0.0623 -0.4452  0.6347
  931MOL0     H22875   0.214   9.223   5.615  1.6904  0.1673  0.5468
  931MOL0     H22876   0.644   9.417   5.704  0.5493  1.6078  1.0150
  931MOL0     H22877   0.846   9.496   5.666  0.1448 -0.5762 -2.0273
  931MOL0     H22878   2.676   9.261   5.037 -0.8811 -0.5733  1.8344
  931MOL0     H22879   2.914   9.271   5.039 -0.3168 -0.4403  0.6083
  931MOL0     H22880   3.305   9.649   5.009  0.0206 -0.4656 -0.7354
  931MOL0     H22881   3.546   9.670   5.038 -1.4127  1.3025 -0.4881
  931MOL0     H22882   3.761   9.713   5.107  1.0998 -0.2863 -1.2759
  931MOL0     H22883   3.770   9.549   5.056  0.6437  2.0200 -1.5878
  931MOL0     H22884   3.929   9.694   5.268  2.7376 -0.9227  2.0334
  931MOL0     H22885   3.942   9.514   5.245 -1.7317 -0.0966 -1.4363
  931MOL0     H22886   3.999   9.732   5.043 -0.2784 -1.2093 -1.4059
  931MOL0     H22887   4.018   9.565   5.006 -1.8230 -2.4488  1.7362
  931MOL0     H22888   4.184   9.679   5.233  0.5041  0.6066 -0.1413
  931MOL0     H22889   4.209   9.539   5.122  0.5139  0.2948  0.2596
  931MOL0     H22890   4.328   9.847   4.873 -3.0740 -0.2054 -0.6930
  931MOL0     H22891   3.544   9.412   5.371  1.6104  2.3686  0.4975
  931MOL0     H22892   3.295   9.381   5.345  3.4919 -0.2712  0.8144
  932MOL0     O22893   1.061   9.304   0.530  0.0691  0.0192 -0.1526
  932MOL0     C22894   1.063   9.300   0.405 -0.1278 -1.3120  0.0876
  932MOL0     O22895   0.958   9.268   0.320 -0.1823 -0.7596 -0.0699
  932MOL0     C22896   0.827   9.261   0.369 -0.2235  0.4273  0.9237
  932MOL0     C22897   0.783   9.184   0.472 -0.2689 -1.0035 -0.5086
  932MOL0     C22898   0.650   9.178   0.518  0.8007  0.5329  0.3637
  932MOL0     C22899   0.552   9.244   0.440  0.2491 -0.2434 -0.4271
  932MOL0     O22900   0.418   9.240   0.455 -0.6036  0.7744 -0.4463
  932MOL0     C22901   0.365   9.181   0.577 -0.6177 -0.1055  0.0426
  932MOL0     C22902   0.377   9.274   0.696  0.7186 -0.4899  0.5741
  932MOL0     C22903   0.289   9.237   0.806  0.7786  0.5759 -0.2564
  932MOL0     C22904   0.332   9.108   0.884  0.3356  0.6703 -0.6480
  932MOL0     C22905   0.221   9.076   0.987 -1.0040  0.2022  0.2644
  932MOL0     C22906   0.102   8.992   0.916  0.1468  0.7502 -0.7508
  932MOL0     C22907  -0.008   8.952   1.023 -0.4347 -0.4822  0.3067
  932MOL0     C22908  -0.090   9.073   1.069 -0.7309  0.8913  0.4631
  932MOL0     N22909  -0.227   9.040   1.115  0.3103  0.0893 -0.0980
  932MOL0     C22910  -0.253   8.952   1.220  0.4440 -0.2937 -0.5098
  932MOL0     C22911  -0.392   8.933   1.218 -0.4975  0.2841  0.4605
  932MOL0     C22912  -0.450   8.836   1.317 -0.1776  0.1865  0.1261
  932MOL0     C22913  -0.523   8.725   1.241  1.1105 -0.2394 -0.6695
  932MOL0     C22914  -0.583   8.615   1.343 -0.7020 -0.1703  0.7189
  932MOL0     C22915  -0.614   8.482   1.262 -0.4099  0.8297 -0.5161
  932MOL0     O22916  -0.692   8.515   1.151 -0.2668 -0.5895 -0.0003
  932MOL0     C22917  -0.825   8.521   1.183  0.2495 -0.2992  0.1763
  932MOL0     C22918  -0.885   8.646   1.179  0.7654  0.5458 -0.2349
  932MOL0     C22919  -1.022   8.666   1.190 -0.9230  0.0070  1.4798
  932MOL0     C22920  -1.102   8.553   1.202  0.1175  0.6552 -0.3342
  932MOL0     C22921  -1.252   8.565   1.206 -0.1584 -0.9116 -0.7614
  932MOL0     O22922  -1.328   8.455   1.215 -0.1325  0.0473 -0.4194
  932MOL0     C22923  -1.467   8.456   1.224  0.2888 -0.0337  0.7199
  932MOL0     C22924  -1.530   8.327   1.249 -0.5830 -0.4430 -0.3173
  932MOL0     C22925  -1.666   8.311   1.262 -0.1560  1.0679  0.1585
  932MOL0     C22926  -1.757   8.412   1.247 -0.4805 -0.4525 -0.6046
  932MOL0     O22927  -1.888   8.387   1.272  0.4428  0.2629  0.1364
  932MOL0     C22928  -1.984   8.462   1.197 -0.4916 -0.3824 -0.2957
  932MOL0     C22929  -2.119   8.398   1.241  0.4844 -0.0933 -0.2565
  932MOL0     C22930  -2.143   8.414   1.391  0.4702 -0.2546  0.7333
  932MOL0     C22931  -2.284   8.342   1.426 -0.0206  0.1373 -0.4035
  932MOL0     C22932  -2.315   8.349   1.577 -0.5389 -0.8490 -0.3294
  932MOL0     C22933  -2.356   8.499   1.632 -0.3031  0.7231 -0.5955
  932MOL0     C22934  -2.501   8.517   1.606  0.6381 -0.1761  0.3053
  932MOL0     C22935  -2.548   8.659   1.656  1.2165  0.0657  0.3204
  932MOL0    Cl22936  -2.732   8.659   1.668 -0.0611  0.0809  0.0310
  932MOL0     C22937  -1.705   8.543   1.234 -0.2388 -0.7963 -0.3989
  932MOL0     C22938  -1.565   8.562   1.216  0.1975 -0.2623  0.3543
  932MOL0     O22939  -1.293   8.679   1.202  0.3982 -0.1011 -0.3036
  932MOL0     C22940  -1.044   8.422   1.209  0.1950  0.1534  0.0105
  932MOL0     C22941  -0.903   8.409   1.198  0.3634 -1.5205 -0.3542
  932MOL0     N22942  -0.446   9.009   1.115  0.4279 -0.3897  0.6163
  932MOL0     N22943  -0.346   9.067   1.055 -0.1523  0.5567 -0.0953
  932MOL0     C22944   0.596   9.319   0.332 -0.0238  0.2629 -0.3110
  932MOL0     C22945   0.730   9.325   0.297  0.0590  0.3351 -0.1951
  932MOL0     C22946   1.191   9.341   0.345 -0.8387  0.3454  0.1911
  932MOL0     C22947   1.207   9.356   0.205 -0.2923  0.0158 -0.8332
  932MOL0     C22948   1.334   9.372   0.152  0.8841 -0.3624 -0.0804
  932MOL0     C22949   1.442   9.394   0.235  0.8136  0.5280 -0.4865
  932MOL0     O22950   1.562   9.400   0.175 -0.2829 -0.0744 -0.3352
  932MOL0     C22951   1.691   9.344   0.233 -0.0528 -0.0100 -0.4527
  932MOL0     C22952   1.800   9.451   0.237  1.2834  0.3010 -0.6237
  932MOL0     C22953   1.934   9.399   0.286  0.5326 -0.3395  0.0134
  932MOL0     C22954   2.026   9.512   0.306  0.3542  0.0680  0.1111
  932MOL0     C22955   1.980   9.625   0.392  0.3904 -0.2893  0.9812
  932MOL0     C22956   1.938   9.710   0.463 -0.2822  0.2438  0.5731
  932MOL0     C22957   1.427   9.386   0.376 -0.2293  0.4002  0.2943
  932MOL0     C22958   1.304   9.358   0.427 -0.6529  0.5866 -0.5003
  932MOL0     H22959   0.858   9.133   0.531  1.0770  1.4163 -0.0052
  932MOL0     H22960   0.632   9.128   0.612 -0.3235 -2.3561 -1.2542
  932MOL0     H22961   0.400   9.079   0.594  2.1123  0.6654 -0.5097
  932MOL0     H22962   0.259   9.168   0.550 -0.4752  1.0465 -1.1974
  932MOL0     H22963   0.360   9.375   0.657  0.0070 -0.0715  1.8812
  932MOL0     H22964   0.479   9.289   0.735  0.7494  1.9791 -0.2879
  932MOL0     H22965   0.190   9.224   0.763  0.3275 -1.5469  1.2491
  932MOL0     H22966   0.283   9.316   0.882  0.5271 -0.2603  0.6166
  932MOL0     H22967   0.349   9.023   0.818 -1.5155  0.1139 -0.4647
  932MOL0     H22968   0.420   9.131   0.945 -0.4567 -1.1230  1.2945
  932MOL0     H22969   0.187   9.171   1.030  0.6423  1.2913 -0.7268
  932MOL0     H22970   0.267   9.015   1.064 -0.6931 -1.4984 -1.2077
  932MOL0     H22971   0.148   8.899   0.881 -0.3454 -0.0786  0.7068
  932MOL0     H22972   0.058   9.042   0.829  0.1083 -1.1963 -1.9324
  932MOL0     H22973  -0.068   8.872   0.977 -0.0259 -0.0881 -0.9566
  932MOL0     H22974   0.046   8.902   1.104  0.7411  0.4588  0.1264
  932MOL0     H22975  -0.091   9.146   0.988  3.4095 -0.2496 -0.9039
  932MOL0     H22976  -0.036   9.117   1.153 -0.4794  0.0786  0.7343
  932MOL0     H22977  -0.187   8.904   1.291  0.4551  3.8500  2.7225
  932MOL0     H22978  -0.515   8.888   1.387 -0.7534 -2.4704  1.6998
  932MOL0     H22979  -0.369   8.801   1.382 -0.0001 -0.9506 -0.6704
  932MOL0     H22980  -0.456   8.677   1.169 -0.5279 -1.9137 -1.1609
  932MOL0     H22981  -0.601   8.777   1.185  0.0119  1.3397  2.1417
  932MOL0     H22982  -0.516   8.594   1.427 -0.5088 -0.2270  0.5510
  932MOL0     H22983  -0.679   8.642   1.386 -1.2117 -1.2317  0.2760
  932MOL0     H22984  -0.662   8.406   1.325 -0.5206  1.2414 -0.0988
  932MOL0     H22985  -0.523   8.432   1.229 -0.3835  0.7788 -0.3644
  932MOL0     H22986  -0.822   8.735   1.177  0.7117  0.5840 -0.2626
  932MOL0     H22987  -1.054   8.769   1.183  4.0251  1.7289 -1.0892
  932MOL0     H22988  -1.475   8.234   1.243 -0.5034 -0.4939  0.9229
  932MOL0     H22989  -1.700   8.210   1.279  0.7975  0.6764 -0.2029
  932MOL0     H22990  -1.963   8.454   1.090  2.5562  0.1199  0.1885
  932MOL0     H22991  -1.974   8.569   1.216 -0.7014 -0.7975  2.5678
  932MOL0     H22992  -2.123   8.292   1.215 -0.2416  0.3551 -2.1051
  932MOL0     H22993  -2.190   8.461   1.188  0.7833 -1.1217 -1.9485
  932MOL0     H22994  -2.148   8.519   1.422  0.5142 -0.0039 -0.0945
  932MOL0     H22995  -2.062   8.372   1.451 -2.1529 -1.2285  3.9333
  932MOL0     H22996  -2.366   8.389   1.371 -0.4850 -0.9602 -0.6714
  932MOL0     H22997  -2.274   8.239   1.390  0.8833  0.3885 -0.9079
  932MOL0     H22998  -2.232   8.318   1.640 -0.4304 -0.4208 -0.2576
  932MOL0     H22999  -2.404   8.287   1.596 -0.1294 -1.7526 -1.2466
  932MOL0     H23000  -2.306   8.573   1.569  1.2747  0.4648  0.2998
  932MOL0     H23001  -2.324   8.499   1.736  1.2935 -0.7084 -1.0296
  932MOL0     H23002  -2.522   8.498   1.500 -2.2856  0.3339  0.6990
  932MOL0     H23003  -2.555   8.433   1.651  1.9512 -1.1596  0.1205
  932MOL0     H23004  -2.511   8.734   1.586  0.4278  0.5067  0.3716
  932MOL0     H23005  -2.509   8.676   1.756  1.0551  0.2816  0.3474
  932MOL0     H23006  -1.759   8.637   1.238  0.3832 -0.4666  0.5640
  932MOL0     H23007  -1.540   8.665   1.191  1.9607 -0.7821 -0.1936
  932MOL0     H23008  -1.102   8.330   1.211  1.8991 -1.0106 -1.3910
  932MOL0     H23009  -0.850   8.315   1.202  0.9024 -1.2014  0.4567
  932MOL0     H23010   0.514   9.364   0.277 -0.5255 -1.3891 -0.9893
  932MOL0     H23011   0.758   9.379   0.207  3.5385  1.1678  1.2302
  932MOL0     H23012   1.123   9.345   0.137  0.8209  0.9309 -2.4162
  932MOL0     H23013   1.346   9.397   0.047 -0.9900 -0.7994 -0.4325
  932MOL0     H23014   1.726   9.258   0.175 -2.5823 -2.1323  0.9412
  932MOL0     H23015   1.680   9.304   0.334  1.2826  2.1351  0.6243
  932MOL0     H23016   1.806   9.495   0.138  1.1716  2.7416  0.3890
  932MOL0     H23017   1.750   9.524   0.302 -0.4482 -0.7691 -0.6798
  932MOL0     H23018   1.982   9.335   0.212 -1.9037 -0.1030 -1.8893
  932MOL0     H23019   1.915   9.358   0.386  0.6010 -0.6640 -0.1055
  932MOL0     H23020   2.115   9.478   0.360 -0.2209  0.0995  1.1134
  932MOL0     H23021   2.054   9.542   0.205  1.9114  1.3458  0.8846
  932MOL0     H23022   1.898   9.774   0.539 -0.5999  0.2383  0.4110
  932MOL0     H23023   1.506   9.379   0.449 -0.4923 -2.3453  0.4309
  932MOL0     H23024   1.298   9.344   0.534  2.1689  2.7392  0.0736
  933MOL0     O23025   1.908  10.290   5.199  0.6394  0.1209  0.3289
  933MOL0     C23026   1.901  10.266   5.324  0.7485  0.1356  0.3943
  933MOL0     O23027   1.786  10.275   5.400  0.2403  0.1835  0.1663
  933MOL0     C23028   1.666  10.314   5.353  0.3624 -0.4962  0.4928
  933MOL0     C23029   1.560  10.272   5.430  0.5022  0.2683 -0.1290
  933MOL0     C23030   1.431  10.289   5.384 -0.4486 -0.4839  0.1564
  933MOL0     C23031   1.411  10.358   5.261 -0.0194 -0.2708 -0.1827
  933MOL0     O23032   1.286  10.383   5.214 -0.2281 -0.2016 -0.0784
  933MOL0     C23033   1.257  10.365   5.072  0.0320 -0.4898 -0.4346
  933MOL0     C23034   1.102  10.385   5.057 -0.3089  0.4856  0.2860
  933MOL0     C23035   1.014  10.259   5.102 -0.1543  0.5161 -0.1127
  933MOL0     C23036   1.046  10.176   5.229  0.2276 -0.4153  0.1587
  933MOL0     C23037   0.934  10.070   5.236 -0.4361  0.0964  0.1650
  933MOL0     C23038   0.941   9.990   5.364 -0.5417 -0.5541 -0.1503
  933MOL0     C23039   0.816   9.901   5.382  0.4958  0.6548  0.6993
  933MOL0     C23040   0.830   9.818   5.515  0.1151  0.1690  0.7620
  933MOL0     N23041   0.721   9.721   5.524  0.0275  0.0931 -0.2026
  933MOL0     C23042   0.699   9.615   5.441 -0.6303 -0.2173  0.3432
  933MOL0     C23043   0.573   9.565   5.461 -0.0203 -0.3576  0.0326
  933MOL0     C23044   0.519   9.438   5.403  0.1915 -0.1481  1.0750
  933MOL0     C23045   0.367   9.467   5.378 -0.2031 -0.2422  0.2950
  933MOL0     C23046   0.311   9.383   5.268 -0.1524  0.2196  0.7574
  933MOL0     C23047   0.159   9.404   5.250 -0.2814  0.0071 -0.0850
  933MOL0     O23048   0.075   9.318   5.341 -0.5208  0.1749 -0.0906
  933MOL0     C23049  -0.057   9.347   5.356 -0.4320 -0.6094 -0.5777
  933MOL0     C23050  -0.130   9.428   5.265  0.0596 -0.2224 -0.1163
  933MOL0     C23051  -0.254   9.469   5.301  0.5235  0.5463  0.5326
  933MOL0     C23052  -0.315   9.421   5.417 -0.1418 -0.4707 -0.1841
  933MOL0     C23053  -0.454   9.476   5.460  0.5935  0.1748  0.3781
  933MOL0     O23054  -0.503   9.441   5.588 -0.0377 -1.1460 -0.2606
  933MOL0     C23055  -0.620   9.498   5.633 -0.0324  0.2921 -0.4604
  933MOL0     C23056  -0.736   9.501   5.553 -1.0548  0.1385  0.0968
  933MOL0     C23057  -0.858   9.556   5.598 -0.0258 -0.7154 -0.3092
  933MOL0     C23058  -0.864   9.609   5.730 -0.1889  0.9743 -0.1326
  933MOL0     O23059  -0.983   9.645   5.791 -0.1337  0.2527 -0.1847
  933MOL0     C23060  -1.111   9.583   5.765  1.2579 -0.1824  0.1607
  933MOL0     C23061  -1.212   9.621   5.872 -0.1379  0.3980  1.0671
  933MOL0     C23062  -1.336   9.530   5.841 -0.1231  0.0324 -0.1660
  933MOL0     C23063  -1.433   9.506   5.960 -0.2444 -0.0778  0.0803
  933MOL0     C23064  -1.503   9.640   5.997  0.1841 -0.1540 -0.8736
  933MOL0     C23065  -1.597   9.623   6.114 -0.0133  0.8435  0.5449
  933MOL0     C23066  -1.677   9.744   6.139 -0.1945 -0.0177 -0.4027
  933MOL0     C23067  -1.783   9.721   6.250 -0.3171  0.3785  0.5863
  933MOL0    Cl23068  -1.940   9.809   6.219  0.0087  0.7103  0.1803
  933MOL0     C23069  -0.746   9.613   5.806  0.5496 -0.2919 -0.0095
  933MOL0     C23070  -0.632   9.552   5.762 -0.2677 -0.7743 -0.0656
  933MOL0     O23071  -0.508   9.553   5.378 -0.2016  0.6141  0.0698
  933MOL0     C23072  -0.244   9.341   5.506  0.1483 -0.3681 -0.5714
  933MOL0     C23073  -0.110   9.308   5.471  0.8542 -0.0821 -0.1524
  933MOL0     N23074   0.527   9.641   5.566 -0.2378 -0.3450  0.8622
  933MOL0     N23075   0.607   9.739   5.598  0.4277  0.2284 -0.4386
  933MOL0     C23076   1.529  10.404   5.190  0.3503 -1.0326  0.6283
  933MOL0     C23077   1.651  10.386   5.233 -0.2683  0.1094  0.7644
  933MOL0     C23078   2.019  10.227   5.394 -0.2179  0.0414  0.7635
  933MOL0     C23079   2.029  10.256   5.531  0.4110 -0.7813  0.2263
  933MOL0     C23080   2.148  10.234   5.606  0.3956 -0.5843 -0.4773
  933MOL0     C23081   2.255  10.162   5.549  0.4772  0.1978  0.6566
  933MOL0     O23082   2.375  10.143   5.617  0.2743  0.4296  0.1721
  933MOL0     C23083   2.373  10.156   5.760 -0.1050  0.4281  1.0176
  933MOL0     C23084   2.514  10.113   5.809  0.4176 -0.3824 -0.6445
  933MOL0     C23085   2.628  10.227   5.791  0.8839  0.6369  0.0113
  933MOL0     C23086   2.758  10.171   5.735 -0.6652  0.2117  0.0026
  933MOL0     C23087   2.847  10.291   5.719  0.2289  0.1063 -0.0202
  933MOL0     C23088   2.912  10.394   5.723 -1.1559 -0.4588 -0.1448
  933MOL0     C23089   2.244  10.128   5.408 -0.5142  0.0036 -0.0494
  933MOL0     C23090   2.125  10.155   5.336  0.5154 -0.1532 -0.4735
  933MOL0     H23091   1.566  10.230   5.530 -2.0682  0.1700  0.0624
  933MOL0     H23092   1.348  10.261   5.448 -0.5326 -0.7188 -0.0532
  933MOL0     H23093   1.278  10.263   5.040  1.5461  0.1682 -1.6372
  933MOL0     H23094   1.307  10.439   5.009 -0.0689 -1.7580 -2.0526
  933MOL0     H23095   1.082  10.406   4.952 -0.6281  0.1777  0.2817
  933MOL0     H23096   1.067  10.465   5.123  1.4907  0.6190  1.1393
  933MOL0     H23097   1.027  10.193   5.016 -0.5698 -0.4283  0.5323
  933MOL0     H23098   0.910  10.293   5.093 -0.3726 -0.0949  0.0477
  933MOL0     H23099   1.146  10.131   5.226  0.5029  0.2400 -1.1606
  933MOL0     H23100   1.043  10.247   5.312  1.4256  1.0465 -0.9708
  933MOL0     H23101   0.946   9.992   5.161  0.9449  0.5808 -0.1503
  933MOL0     H23102   0.836  10.119   5.233  0.3004  1.7234  1.4517
  933MOL0     H23103   0.955  10.055   5.451  1.5018  1.3551 -1.7842
  933MOL0     H23104   1.033   9.931   5.362 -0.5968 -0.6288 -1.4125
  933MOL0     H23105   0.725   9.959   5.392  2.3208  5.1232 -4.3185
  933MOL0     H23106   0.813   9.832   5.298  2.1914  0.5120  0.7035
  933MOL0     H23107   0.858   9.874   5.605 -0.9114 -1.1682  1.9683
  933MOL0     H23108   0.924   9.765   5.504  1.4570  1.8662  3.1364
  933MOL0     H23109   0.765   9.581   5.362 -0.0619  1.5935 -0.0035
  933MOL0     H23110   0.527   9.350   5.467  0.5796 -1.1727 -0.3390
  933MOL0     H23111   0.574   9.402   5.316  0.3360  0.5729  0.8585
  933MOL0     H23112   0.352   9.574   5.357 -0.2605 -0.2525  0.2841
  933MOL0     H23113   0.307   9.439   5.465  1.7813 -0.7156  1.5594
  933MOL0     H23114   0.360   9.415   5.176 -3.1609  1.4848 -0.5403
  933MOL0     H23115   0.331   9.278   5.291  0.3847  0.5987  2.1803
  933MOL0     H23116   0.129   9.387   5.146  1.7241 -0.8306 -0.5890
  933MOL0     H23117   0.134   9.509   5.263 -1.9577 -0.1362 -1.7020
  933MOL0     H23118  -0.089   9.451   5.167  1.5623  0.2859  0.5946
  933MOL0     H23119  -0.313   9.522   5.227 -1.1491 -1.1951  0.5283
  933MOL0     H23120  -0.731   9.454   5.455  1.1295 -1.7240  0.9995
  933MOL0     H23121  -0.945   9.567   5.534 -0.0555  2.2021  0.0976
  933MOL0     H23122  -1.105   9.474   5.753  1.7697 -0.1689  0.2525
  933MOL0     H23123  -1.146   9.620   5.669  0.4122 -2.1071 -0.3205
  933MOL0     H23124  -1.239   9.727   5.873  0.3728  0.5444  0.3731
  933MOL0     H23125  -1.183   9.595   5.974 -0.7782 -1.7343  0.7541
  933MOL0     H23126  -1.293   9.429   5.833  1.9096  0.3725  3.8073
  933MOL0     H23127  -1.393   9.546   5.749  0.5875 -1.0550 -0.8154
  933MOL0     H23128  -1.505   9.427   5.937  2.2363 -2.5763  0.3569
  933MOL0     H23129  -1.370   9.461   6.036  0.3257 -0.5900 -0.6785
  933MOL0     H23130  -1.562   9.691   5.920 -2.7960 -3.5207 -1.0802
  933MOL0     H23131  -1.427   9.707   6.038 -0.4036 -1.2685  2.3079
  933MOL0     H23132  -1.535   9.593   6.199  2.5025 -1.7811 -1.9995
  933MOL0     H23133  -1.667   9.539   6.102  0.3019  0.3333  2.0541
  933MOL0     H23134  -1.607   9.824   6.165  1.4260 -1.2196 -0.9043
  933MOL0     H23135  -1.715   9.789   6.047  0.6482 -1.5588 -1.5473
  933MOL0     H23136  -1.749   9.753   6.349 -2.6739  0.9357  1.2775
  933MOL0     H23137  -1.815   9.617   6.251 -1.0272  0.5911  1.1661
  933MOL0     H23138  -0.752   9.659   5.904 -0.2321  1.3066 -0.7712
  933MOL0     H23139  -0.545   9.547   5.827 -1.9790 -0.3568  2.4109
  933MOL0     H23140  -0.295   9.306   5.595 -0.3449  2.1062  0.1890
  933MOL0     H23141  -0.043   9.252   5.536  0.9688  2.4652  2.1025
  933MOL0     H23142   1.502  10.459   5.100  1.0289  0.4858  1.3214
  933MOL0     H23143   1.726  10.427   5.165 -0.9153  0.7231  0.4019
  933MOL0     H23144   1.942  10.309   5.567  1.7680  3.0780 -1.6657
  933MOL0     H23145   2.137  10.256   5.712 -3.7171 -0.4725 -0.7818
  933MOL0     H23146   2.286  10.106   5.803 -0.3339 -0.4310 -0.3924
  933MOL0     H23147   2.370  10.259   5.797 -0.4162  0.2336  1.5411
  933MOL0     H23148   2.502  10.096   5.917 -1.8968 -0.1411 -0.8096
  933MOL0     H23149   2.543  10.013   5.777 -0.1250 -1.1167  1.0476
  933MOL0     H23150   2.649  10.285   5.882 -0.6531  1.1668  0.0605
  933MOL0     H23151   2.588  10.300   5.720  0.4960  0.0086 -0.4296
  933MOL0     H23152   2.804  10.098   5.802 -1.3185  0.5890  0.8783
  933MOL0     H23153   2.753  10.124   5.636  0.1217  0.2445 -0.0599
  933MOL0     H23154   2.959  10.490   5.730  0.7303 -1.3557  0.2182
  933MOL0     H23155   2.325  10.082   5.352  1.2933  1.2441  1.4196
  933MOL0     H23156   2.110  10.130   5.232  0.5472 -1.9445 -0.0913
  934MOL0     O23157   2.725   3.085   8.491 -0.3796 -0.3573  0.1892
  934MOL0     C23158   2.728   3.050   8.375 -0.0063  0.1716  0.2339
  934MOL0     O23159   2.626   3.005   8.303  0.1197 -0.5439 -0.2983
  934MOL0     C23160   2.497   3.018   8.355  0.7660 -0.3276  0.3811
  934MOL0     C23161   2.450   3.132   8.423 -0.3488 -0.1127  0.1458
  934MOL0     C23162   2.308   3.152   8.452 -0.1756 -1.1319  0.2202
  934MOL0     C23163   2.210   3.046   8.428  0.0300  0.0501  0.1691
  934MOL0     O23164   2.074   3.050   8.454  1.1347 -0.1997 -0.1343
  934MOL0     C23165   2.018   3.168   8.524 -0.0014  0.2295 -0.5732
  934MOL0     C23166   1.864   3.145   8.517 -0.4139 -0.4535 -0.8611
  934MOL0     C23167   1.821   3.149   8.368  0.0219  0.1440 -0.4692
  934MOL0     C23168   1.860   3.282   8.301 -0.0867 -0.4328 -0.1808
  934MOL0     C23169   1.764   3.316   8.190 -0.7754  0.5435 -0.3466
  934MOL0     C23170   1.821   3.428   8.092  1.2766  0.5187  0.0907
  934MOL0     C23171   1.698   3.490   8.022  0.2011 -0.0902 -0.5622
  934MOL0     C23172   1.742   3.583   7.912 -0.0377 -0.3574  0.2504
  934MOL0     N23173   1.630   3.634   7.826 -0.0567 -0.6848 -0.1485
  934MOL0     C23174   1.548   3.562   7.748 -0.3072  0.2847  0.2533
  934MOL0     C23175   1.467   3.654   7.695 -0.2691 -0.2796  0.0464
  934MOL0     C23176   1.345   3.622   7.622 -0.2176  0.4672  0.4577
  934MOL0     C23177   1.230   3.731   7.638  0.5567 -0.4915 -0.7556
  934MOL0     C23178   1.099   3.671   7.586  0.1292  0.6519  0.8423
  934MOL0     C23179   0.980   3.751   7.641 -0.0351 -0.1723  0.4890
  934MOL0     O23180   0.958   3.862   7.557 -0.4029 -0.1925  0.0513
  934MOL0     C23181   0.835   3.906   7.526 -0.3798  0.2342  0.9126
  934MOL0     C23182   0.821   3.968   7.404  0.2277  0.3448 -0.4581
  934MOL0     C23183   0.690   4.010   7.367  0.4165  0.0240 -0.2275
  934MOL0     C23184   0.581   4.004   7.457  0.0654 -0.1394  0.1163
  934MOL0     C23185   0.449   4.062   7.419 -1.5599 -0.3444  0.5058
  934MOL0     O23186   0.350   4.023   7.495 -0.5405 -0.7495  0.6087
  934MOL0     C23187   0.225   4.078   7.482 -0.2771  0.6898  0.1171
  934MOL0     C23188   0.125   4.005   7.427  0.6599  0.3172 -0.6393
  934MOL0     C23189  -0.012   4.040   7.453 -0.2441 -0.2800  0.0228
  934MOL0     C23190  -0.042   4.171   7.489  0.1745 -0.5684 -0.1369
  934MOL0     O23191  -0.178   4.200   7.494 -0.1790 -0.3524  0.0644
  934MOL0     C23192  -0.215   4.334   7.470 -1.0920 -0.8438 -0.5565
  934MOL0     C23193  -0.356   4.349   7.413  0.2432 -0.5438 -0.1064
  934MOL0     C23194  -0.465   4.308   7.511 -1.1252  0.0725 -1.0106
  934MOL0     C23195  -0.605   4.322   7.450 -0.2102 -0.3408  0.6202
  934MOL0     C23196  -0.712   4.294   7.560  0.6286 -1.4018  1.2470
  934MOL0     C23197  -0.857   4.315   7.506  0.4627  0.6023 -0.9733
  934MOL0     C23198  -0.955   4.265   7.613 -0.1821 -0.2498 -0.6132
  934MOL0     C23199  -1.096   4.245   7.548 -0.3689  0.7243 -0.9993
  934MOL0    Cl23200  -1.154   4.394   7.461 -0.0944  0.6128  0.4766
  934MOL0     C23201   0.069   4.258   7.516 -0.7964  0.4524 -0.1742
  934MOL0     C23202   0.198   4.206   7.522  0.2650 -0.8195  0.4118
  934MOL0     O23203   0.440   4.149   7.328 -0.0625  0.4725 -0.0023
  934MOL0     C23204   0.598   3.924   7.571 -0.2950 -0.0784  0.7769
  934MOL0     C23205   0.723   3.880   7.599 -0.0247 -0.6042  0.1625
  934MOL0     N23206   1.499   3.780   7.741 -0.2898 -0.1682  0.0992
  934MOL0     N23207   1.602   3.772   7.822 -0.0179 -0.0304 -0.1862
  934MOL0     C23208   2.262   2.932   8.374  0.3216  0.1102  0.4227
  934MOL0     C23209   2.399   2.920   8.334  0.6666 -0.6076  0.9198
  934MOL0     C23210   2.858   3.058   8.309 -0.2067  0.1721  1.0950
  934MOL0     C23211   2.869   3.017   8.175 -0.1057 -0.5058  1.3277
  934MOL0     C23212   2.988   3.033   8.100 -0.0060  0.2625  0.1194
  934MOL0     C23213   3.102   3.089   8.165 -0.6061  0.0319  0.2384
  934MOL0     O23214   3.221   3.119   8.104 -0.0798 -0.5246 -0.4248
  934MOL0     C23215   3.244   3.098   7.964  0.8272 -0.2240 -0.1275
  934MOL0     C23216   3.381   3.153   7.931  0.1261  0.0331  0.7236
  934MOL0     C23217   3.505   3.106   8.007 -0.1394 -0.2735 -0.4789
  934MOL0     C23218   3.559   3.231   8.084 -0.4661 -0.4306  0.1276
  934MOL0     C23219   3.684   3.199   8.163 -0.2349 -0.2683 -0.3075
  934MOL0     C23220   3.777   3.156   8.227  0.2694 -0.8063 -0.2999
  934MOL0     C23221   3.094   3.109   8.296  0.4967 -1.0104 -0.2547
  934MOL0     C23222   2.980   3.092   8.369 -0.0158  0.9139 -0.4812
  934MOL0     H23223   2.515   3.215   8.447  0.9530  0.0121 -3.2530
  934MOL0     H23224   2.265   3.233   8.510 -1.3096 -0.5618 -1.3596
  934MOL0     H23225   2.043   3.264   8.478  1.1677  0.2100 -0.0172
  934MOL0     H23226   2.053   3.175   8.627 -1.0258 -1.4333 -0.0657
  934MOL0     H23227   1.803   3.210   8.580 -2.2264 -0.5169 -2.4442
  934MOL0     H23228   1.842   3.042   8.548  2.9362 -1.2757 -0.7777
  934MOL0     H23229   1.714   3.129   8.366  0.4986 -3.2122  1.2106
  934MOL0     H23230   1.869   3.071   8.309 -2.1927 -0.3888 -1.6474
  934MOL0     H23231   1.867   3.367   8.369  0.8652  1.2608 -2.2744
  934MOL0     H23232   1.959   3.270   8.256  0.2049  1.0763  0.0016
  934MOL0     H23233   1.661   3.334   8.224 -1.5453 -2.5857 -0.7717
  934MOL0     H23234   1.754   3.230   8.124 -2.7762  1.1680 -0.9353
  934MOL0     H23235   1.897   3.394   8.022  1.2776 -0.2682  0.4654
  934MOL0     H23236   1.870   3.500   8.157  0.3027 -0.4117  1.9341
  934MOL0     H23237   1.647   3.397   7.993 -0.3527 -0.8289  2.4583
  934MOL0     H23238   1.636   3.537   8.099  2.7490 -1.8145  2.8175
  934MOL0     H23239   1.812   3.526   7.850  0.0460 -0.0083  0.0214
  934MOL0     H23240   1.796   3.663   7.964 -0.9845 -0.7953  1.9542
  934MOL0     H23241   1.553   3.454   7.736 -2.0647 -0.0703  2.2025
  934MOL0     H23242   1.304   3.527   7.658  1.9991 -1.2365 -1.1671
  934MOL0     H23243   1.369   3.614   7.515 -2.1015 -0.4282  0.0629
  934MOL0     H23244   1.260   3.826   7.593  2.6113  0.7477  2.8223
  934MOL0     H23245   1.213   3.750   7.745  0.6670  4.1279 -1.3346
  934MOL0     H23246   1.093   3.685   7.477  0.8948  0.8237  0.8144
  934MOL0     H23247   1.076   3.566   7.609  1.5912  0.2885  0.7427
  934MOL0     H23248   0.985   3.776   7.747  1.8819 -1.1887  0.6787
  934MOL0     H23249   0.893   3.688   7.620 -1.7306  2.5586 -1.3913
  934MOL0     H23250   0.908   3.984   7.340  0.3792 -0.6102 -0.5044
  934MOL0     H23251   0.680   4.060   7.272  0.5446 -2.5877 -1.6995
  934MOL0     H23252   0.135   3.902   7.394 -1.9416 -0.2226 -0.0237
  934MOL0     H23253  -0.095   3.979   7.421 -0.5601  0.0505  0.2084
  934MOL0     H23254  -0.140   4.385   7.408  0.1164  3.7167  4.0212
  934MOL0     H23255  -0.213   4.390   7.563 -1.7710 -0.7828 -0.5740
  934MOL0     H23256  -0.363   4.287   7.323 -0.8903 -3.0048  1.5594
  934MOL0     H23257  -0.366   4.455   7.390  0.6133 -0.0829  1.7466
  934MOL0     H23258  -0.458   4.365   7.604  1.0056 -0.0269 -1.0699
  934MOL0     H23259  -0.452   4.201   7.527 -1.0654  0.3253  0.7512
  934MOL0     H23260  -0.614   4.420   7.401 -0.0977 -1.7991 -2.6167
  934MOL0     H23261  -0.621   4.246   7.373  0.4786  0.3968 -0.2750
  934MOL0     H23262  -0.709   4.358   7.649 -0.5300  1.5454 -0.6886
  934MOL0     H23263  -0.688   4.194   7.597  1.3879 -0.8893  2.1931
  934MOL0     H23264  -0.881   4.254   7.418  1.7590  1.1639 -1.7610
  934MOL0     H23265  -0.871   4.419   7.475 -2.2778  0.6818  0.3032
  934MOL0     H23266  -0.924   4.176   7.669 -1.7660 -1.0655 -0.9710
  934MOL0     H23267  -0.968   4.334   7.696  1.5548 -0.3665 -0.2105
  934MOL0     H23268  -1.168   4.222   7.627 -0.9723  1.9530 -1.1573
  934MOL0     H23269  -1.092   4.170   7.469 -1.6564  0.9624 -1.3084
  934MOL0     H23270   0.046   4.362   7.538 -0.9654  0.9029 -2.3080
  934MOL0     H23271   0.272   4.273   7.563 -0.5397  0.3894 -0.0530
  934MOL0     H23272   0.519   3.908   7.644  1.1543  2.0513  3.0215
  934MOL0     H23273   0.742   3.835   7.696 -0.1051 -0.1818  0.3795
  934MOL0     H23274   2.200   2.844   8.364  0.3000 -0.5057  4.3711
  934MOL0     H23275   2.431   2.839   8.268  1.7770  0.9530 -0.5437
  934MOL0     H23276   2.788   2.959   8.131  0.9957 -1.2428  0.2126
  934MOL0     H23277   2.992   3.000   7.997 -0.5839 -0.5101  0.3287
  934MOL0     H23278   3.174   3.152   7.901  2.2129  3.3751  1.1529
  934MOL0     H23279   3.239   2.991   7.940 -0.0408 -0.8806  2.5761
  934MOL0     H23280   3.386   3.123   7.826 -0.8407  1.4567  0.2360
  934MOL0     H23281   3.383   3.262   7.928  3.9273  0.1116  0.8057
  934MOL0     H23282   3.574   3.064   7.934 -0.3079 -2.0576  0.3432
  934MOL0     H23283   3.474   3.032   8.081 -3.7711  0.3791 -1.1698
  934MOL0     H23284   3.590   3.299   8.004  2.4808 -1.7759  0.0007
  934MOL0     H23285   3.486   3.277   8.152 -1.5583 -1.5983 -0.2093
  934MOL0     H23286   3.852   3.121   8.295 -0.2722 -0.4124  0.5202
  934MOL0     H23287   3.183   3.148   8.346 -0.2146  0.2338  0.0836
  934MOL0     H23288   2.981   3.122   8.473 -1.0269 -1.6083  0.3283
  935MOL0     O23289   9.395   1.619   1.800  0.7883 -0.1223  0.2555
  935MOL0     C23290   9.364   1.699   1.712 -0.7964 -1.1006 -0.6414
  935MOL0     O23291   9.236   1.719   1.670 -0.7119 -0.0791  0.2843
  935MOL0     C23292   9.125   1.641   1.700  0.0395  0.2704 -1.1787
  935MOL0     C23293   9.016   1.636   1.605  0.1420 -0.5673 -0.4191
  935MOL0     C23294   8.914   1.546   1.628 -0.9678  0.4733 -0.0805
  935MOL0     C23295   8.907   1.465   1.744 -0.3762  0.2204  0.3863
  935MOL0     O23296   8.808   1.377   1.774  0.2067  0.1478  0.2287
  935MOL0     C23297   8.681   1.366   1.699 -0.2199 -0.0319  0.6922
  935MOL0     C23298   8.596   1.259   1.767  1.3254  0.0028  0.0973
  935MOL0     C23299   8.453   1.249   1.717 -0.5248 -0.3398  0.3660
  935MOL0     C23300   8.444   1.228   1.570 -0.2579  0.3354  0.5228
  935MOL0     C23301   8.294   1.225   1.529 -0.0325  0.2742  0.1803
  935MOL0     C23302   8.271   1.221   1.377  0.4079 -0.3652  0.5101
  935MOL0     C23303   8.129   1.187   1.344  0.6301  0.0102  0.7624
  935MOL0     C23304   8.110   1.163   1.192 -0.6045 -0.9760 -0.3141
  935MOL0     N23305   8.128   1.283   1.109  0.7664  0.0940 -0.5403
  935MOL0     C23306   8.030   1.385   1.120 -0.0976  0.5849  0.0441
  935MOL0     C23307   8.069   1.480   1.031  0.9311  0.2477  0.0098
  935MOL0     C23308   8.012   1.619   1.035  0.4331  0.3753 -0.3003
  935MOL0     C23309   7.905   1.634   0.920 -0.7579  0.1981 -0.4524
  935MOL0     C23310   7.773   1.560   0.941 -0.1922 -0.1740  0.5573
  935MOL0     C23311   7.656   1.598   0.848 -0.4999  0.6562  0.6450
  935MOL0     O23312   7.606   1.738   0.887 -0.3833 -0.2794  0.9546
  935MOL0     C23313   7.469   1.764   0.854 -0.6228  0.1107 -0.3017
  935MOL0     C23314   7.435   1.884   0.784  0.0162 -0.4735 -0.7385
  935MOL0     C23315   7.303   1.912   0.761  0.8243  0.0729  1.1908
  935MOL0     C23316   7.200   1.835   0.812 -0.1848 -0.7014 -0.2329
  935MOL0     C23317   7.058   1.874   0.783  0.5047  0.8836 -0.2477
  935MOL0     O23318   6.962   1.803   0.846 -0.4453 -0.2284 -0.1972
  935MOL0     C23319   6.837   1.779   0.792 -0.0296  0.9517 -0.0287
  935MOL0     C23320   6.744   1.727   0.883 -0.0442  0.0402 -0.1402
  935MOL0     C23321   6.620   1.675   0.829 -0.0887  0.0741 -0.5762
  935MOL0     C23322   6.580   1.714   0.701  0.0833 -0.0049 -0.6357
  935MOL0     O23323   6.454   1.685   0.645  0.0707 -0.1441 -0.1867
  935MOL0     C23324   6.342   1.652   0.733 -0.0619 -0.1791 -0.8910
  935MOL0     C23325   6.213   1.616   0.658  0.4888  0.0340 -0.1363
  935MOL0     C23326   6.174   1.705   0.545  0.4161  0.0904 -0.1124
  935MOL0     C23327   6.073   1.640   0.445  0.6890 -0.3087  0.1182
  935MOL0     C23328   5.939   1.713   0.442  0.1715  0.0110 -1.0480
  935MOL0     C23329   5.832   1.603   0.447 -0.3716 -0.7141 -0.4597
  935MOL0     C23330   5.695   1.644   0.408 -0.5311 -0.0785 -0.7721
  935MOL0     C23331   5.618   1.507   0.398  0.0747  0.0241  0.7357
  935MOL0    Cl23332   5.656   1.396   0.254 -0.0482 -0.0508 -0.5004
  935MOL0     C23333   6.667   1.776   0.619 -0.3183  1.1537 -0.3008
  935MOL0     C23334   6.798   1.799   0.665 -0.0544 -0.5348 -0.6668
  935MOL0     O23335   7.040   1.972   0.712 -0.8169 -0.2403 -0.2500
  935MOL0     C23336   7.233   1.717   0.874  0.0736 -0.2621  0.1792
  935MOL0     C23337   7.364   1.683   0.896  0.2843 -0.4900  0.1804
  935MOL0     N23338   8.188   1.436   0.972  0.1591 -0.2468 -0.6340
  935MOL0     N23339   8.223   1.320   1.017 -0.4068  0.7146 -0.6844
  935MOL0     C23340   9.002   1.492   1.845  0.0318  0.0839  0.9461
  935MOL0     C23341   9.109   1.571   1.821 -0.0409  0.8224  0.4824
  935MOL0     C23342   9.474   1.794   1.663 -0.5576 -0.6477  0.2873
  935MOL0     C23343   9.608   1.786   1.708  0.4581 -0.1860  0.3955
  935MOL0     C23344   9.706   1.874   1.661 -0.1632  0.5237  0.3701
  935MOL0     C23345   9.683   1.959   1.550  1.2150 -0.3304 -0.2649
  935MOL0     O23346   9.779   2.047   1.508 -0.5542  0.4007  0.2232
  935MOL0     C23347   9.743   2.171   1.449  0.0148 -0.2879  0.1993
  935MOL0     C23348   9.650   2.269   1.537 -0.5280 -0.9248 -0.2537
  935MOL0     C23349   9.593   2.358   1.431 -0.3339  0.2858  0.3675
  935MOL0     C23350   9.507   2.468   1.491 -0.3030  1.1122  0.4471
  935MOL0     C23351   9.590   2.581   1.518 -0.2436  0.3267 -0.2913
  935MOL0     C23352   9.655   2.681   1.531 -0.9617 -0.9563  0.2178
  935MOL0     C23353   9.547   1.965   1.509  0.3684 -0.2019 -0.0783
  935MOL0     C23354   9.450   1.883   1.559 -0.4296 -0.3098 -0.2722
  935MOL0     H23355   9.022   1.691   1.512 -2.2803 -1.1217 -0.9518
  935MOL0     H23356   8.844   1.537   1.546 -1.3971  3.5326 -0.1522
  935MOL0     H23357   8.703   1.344   1.595  1.6698 -3.1444  1.6427
  935MOL0     H23358   8.627   1.461   1.703 -2.9752 -1.4607 -0.1757
  935MOL0     H23359   8.594   1.286   1.873 -1.2447  0.5939 -0.0483
  935MOL0     H23360   8.646   1.161   1.764  0.1794 -0.7305  2.4759
  935MOL0     H23361   8.403   1.341   1.745  1.2835  0.6310  0.5742
  935MOL0     H23362   8.401   1.168   1.769 -0.5127 -0.5595  0.0385
  935MOL0     H23363   8.490   1.312   1.517  1.0674 -0.7747 -0.1380
  935MOL0     H23364   8.491   1.139   1.529 -2.5410  0.2937 -2.3556
  935MOL0     H23365   8.240   1.315   1.562 -0.0506  0.2406  0.2420
  935MOL0     H23366   8.247   1.144   1.585  3.0261  0.0372  2.6101
  935MOL0     H23367   8.340   1.145   1.339  0.4514 -0.8998  1.6207
  935MOL0     H23368   8.301   1.318   1.336 -0.8843  0.0300  0.4610
  935MOL0     H23369   8.109   1.100   1.407 -2.0111  0.5886  0.8272
  935MOL0     H23370   8.057   1.264   1.371  1.0393  0.9417 -0.6474
  935MOL0     H23371   8.010   1.124   1.174 -1.3711  1.3389 -1.4990
  935MOL0     H23372   8.189   1.095   1.159 -1.4753 -2.5452  0.7206
  935MOL0     H23373   7.955   1.406   1.195 -0.2310  0.7208 -0.1251
  935MOL0     H23374   8.090   1.693   1.015  1.8138 -0.2084  2.4296
  935MOL0     H23375   7.972   1.648   1.132 -1.1798  1.6217 -1.2732
  935MOL0     H23376   7.950   1.620   0.821  1.8701  1.6756  0.4225
  935MOL0     H23377   7.880   1.741   0.918 -1.7483  0.0270 -3.7861
  935MOL0     H23378   7.789   1.454   0.921 -0.8691 -0.9503  3.6342
  935MOL0     H23379   7.742   1.566   1.046  0.2035 -0.8844  0.7161
  935MOL0     H23380   7.576   1.524   0.845 -0.6382  0.8468 -0.6988
  935MOL0     H23381   7.697   1.599   0.747  0.6862  3.2642  1.0739
  935MOL0     H23382   7.512   1.953   0.752 -0.2227  1.2380  1.9905
  935MOL0     H23383   7.276   2.006   0.715 -0.2508  0.1909  2.0131
  935MOL0     H23384   6.765   1.711   0.988 -1.1427 -0.7917 -0.0392
  935MOL0     H23385   6.556   1.624   0.900 -0.1004 -0.0657 -0.6874
  935MOL0     H23386   6.330   1.735   0.803 -1.1407  1.0443 -2.4421
  935MOL0     H23387   6.364   1.557   0.782 -1.6491 -0.1995 -0.1560
  935MOL0     H23388   6.127   1.601   0.724  0.9392  0.6036  0.5987
  935MOL0     H23389   6.244   1.525   0.607  0.1391 -0.1918  0.0554
  935MOL0     H23390   6.260   1.735   0.485 -0.7696  0.9013 -1.4818
  935MOL0     H23391   6.130   1.798   0.582 -2.6682 -1.1974 -0.2282
  935MOL0     H23392   6.116   1.647   0.345  0.5126 -2.8164 -0.1927
  935MOL0     H23393   6.070   1.532   0.459  2.3438 -0.1800  1.6867
  935MOL0     H23394   5.927   1.766   0.347 -1.5546  0.6524 -0.5139
  935MOL0     H23395   5.926   1.781   0.527  2.1314  0.3504 -0.9906
  935MOL0     H23396   5.840   1.570   0.551  1.9432 -5.0942 -1.7863
  935MOL0     H23397   5.863   1.518   0.386 -3.4432 -1.7925 -0.6915
  935MOL0     H23398   5.654   1.716   0.479  1.9913  1.2052 -0.5161
  935MOL0     H23399   5.683   1.684   0.306 -1.6823 -1.3565 -1.1699
  935MOL0     H23400   5.512   1.533   0.398  0.1268  0.3347  2.5152
  935MOL0     H23401   5.628   1.440   0.484 -1.8929 -1.5508 -0.1867
  935MOL0     H23402   6.652   1.794   0.513 -0.3100 -2.1376 -0.9828
  935MOL0     H23403   6.857   1.841   0.584 -1.3330  1.6424 -0.5526
  935MOL0     H23404   7.168   1.642   0.917 -0.2340  0.8452  1.7396
  935MOL0     H23405   7.392   1.587   0.938 -0.6773 -2.8646 -4.1093
  935MOL0     H23406   8.980   1.441   1.938 -3.1115 -1.9470 -0.7007
  935MOL0     H23407   9.179   1.589   1.902 -1.5680 -0.7058  2.2297
  935MOL0     H23408   9.637   1.709   1.780 -1.0080  0.2527  1.4947
  935MOL0     H23409   9.805   1.875   1.707  0.1462  0.5335 -0.2807
  935MOL0     H23410   9.699   2.157   1.350 -1.3273 -2.5984  1.0409
  935MOL0     H23411   9.836   2.222   1.426 -0.1975 -0.0437 -0.1345
  935MOL0     H23412   9.577   2.232   1.610 -0.8108  0.5722  0.2618
  935MOL0     H23413   9.725   2.325   1.594  0.1909 -1.9375 -0.1823
  935MOL0     H23414   9.526   2.303   1.364 -0.5213  0.5149  0.3643
  935MOL0     H23415   9.662   2.409   1.364 -0.7844  1.5713  0.8558
  935MOL0     H23416   9.434   2.487   1.411 -0.2873 -1.6018 -0.3093
  935MOL0     H23417   9.456   2.422   1.576 -0.5192 -1.0339 -0.7556
  935MOL0     H23418   9.729   2.758   1.527 -0.5045 -1.3282  1.1607
  935MOL0     H23419   9.518   2.050   1.447  3.0959  2.2195  1.6979
  935MOL0     H23420   9.349   1.888   1.519 -0.3764 -3.0943 -0.8981
  936MOL0     O23421   9.667   8.497   2.290 -0.0552  0.5477  0.7389
  936MOL0     C23422   9.634   8.596   2.226 -0.5498 -0.2439 -0.0578
  936MOL0     O23423   9.521   8.666   2.246 -0.2379  0.2112  0.0184
  936MOL0     C23424   9.418   8.620   2.329  0.8921 -0.8993  0.3151
  936MOL0     C23425   9.384   8.488   2.366  0.1527  0.4960  0.1259
  936MOL0     C23426   9.276   8.463   2.454  0.6463 -0.4001 -0.4472
  936MOL0     C23427   9.191   8.565   2.488  0.1992  0.6684 -0.0683
  936MOL0     O23428   9.094   8.545   2.585  0.2763 -0.5058  0.4574
  936MOL0     C23429   9.031   8.423   2.603 -0.3774  0.6766 -0.0556
  936MOL0     C23430   8.931   8.402   2.724  0.5064 -0.3576  0.7054
  936MOL0     C23431   8.834   8.518   2.748 -0.3315  0.5097 -0.2299
  936MOL0     C23432   8.724   8.475   2.841  0.0259  0.6749  0.2003
  936MOL0     C23433   8.625   8.585   2.879  0.2607  1.1691 -0.3415
  936MOL0     C23434   8.535   8.638   2.773 -0.1145  0.1278  0.8044
  936MOL0     C23435   8.422   8.732   2.823  0.3222  0.9799  0.5535
  936MOL0     C23436   8.302   8.731   2.727 -0.5890 -0.4702 -0.0994
  936MOL0     N23437   8.207   8.841   2.748 -0.8313 -0.4023  0.1575
  936MOL0     C23438   8.076   8.849   2.721  0.3152 -0.0503  0.0823
  936MOL0     C23439   8.039   8.963   2.782  0.3494 -1.0991 -0.9091
  936MOL0     C23440   7.906   9.034   2.787  0.1004  0.1485  0.1965
  936MOL0     C23441   7.898   9.122   2.655  0.3525 -0.5331  0.3433
  936MOL0     C23442   7.749   9.178   2.641  1.1230 -0.3197  0.4753
  936MOL0     C23443   7.711   9.266   2.760 -0.5255 -0.1647 -0.1560
  936MOL0     O23444   7.584   9.331   2.750 -0.0092 -0.0166 -0.6730
  936MOL0     C23445   7.544   9.417   2.644 -0.4422 -0.1994 -0.5218
  936MOL0     C23446   7.642   9.501   2.592 -0.7452 -0.4280 -0.1658
  936MOL0     C23447   7.607   9.613   2.516  0.3360  0.9514  0.1255
  936MOL0     C23448   7.472   9.634   2.478 -0.8323 -0.3356 -0.5378
  936MOL0     C23449   7.426   9.744   2.387  0.4906 -0.7614  0.2925
  936MOL0     O23450   7.523   9.826   2.326  0.4394 -0.2642  0.4466
  936MOL0     C23451   7.481   9.954   2.304  0.3523 -0.8257  1.0992
  936MOL0     C23452   7.495  10.006   2.169  0.7921  0.6088  0.1883
  936MOL0     C23453   7.442  10.134   2.142 -1.2615  0.2516 -0.3204
  936MOL0     C23454   7.377  10.209   2.232  0.1343  0.3325  0.1997
  936MOL0     O23455   7.313  10.330   2.194 -0.4262  0.6455  0.8290
  936MOL0     C23456   7.223  10.329   2.085  0.2170 -0.6053  0.6965
  936MOL0     C23457   7.174  10.471   2.060 -0.5016 -0.5146  0.2581
  936MOL0     C23458   7.103  10.470   1.929  0.3184 -0.5459  1.0357
  936MOL0     C23459   6.960  10.431   1.922  0.1318 -0.8645  0.1473
  936MOL0     C23460   6.896  10.443   1.782  0.2261  0.1788 -0.1107
  936MOL0     C23461   6.846  10.308   1.733 -0.3095  0.1029 -0.4661
  936MOL0     C23462   6.753  10.328   1.619 -0.1295  1.0127  0.3986
  936MOL0     C23463   6.687  10.206   1.556  0.2347 -0.0036 -0.5543
  936MOL0    Cl23464   6.651  10.091   1.685  0.2289  0.0271 -0.1538
  936MOL0     C23465   7.363  10.161   2.361  0.3879 -0.2796  0.8599
  936MOL0     C23466   7.417  10.039   2.396 -0.2119 -0.8416  0.0767
  936MOL0     O23467   7.305   9.755   2.373  0.2013  0.3479 -0.1001
  936MOL0     C23468   7.375   9.541   2.524 -0.6167 -1.3088  0.0100
  936MOL0     C23469   7.417   9.437   2.595 -0.7515 -0.2009 -0.8567
  936MOL0     N23470   8.145   9.017   2.849 -0.6857 -0.5249 -0.0334
  936MOL0     N23471   8.247   8.943   2.830 -0.9661 -0.8376 -0.1915
  936MOL0     C23472   9.220   8.694   2.446  0.2434  0.6614 -0.6000
  936MOL0     C23473   9.333   8.722   2.375 -0.2135  0.4710  0.2335
  936MOL0     C23474   9.726   8.651   2.128  0.1570  0.1180  0.2326
  936MOL0     C23475   9.831   8.742   2.168 -0.5202  0.7075 -0.6150
  936MOL0     C23476   9.925   8.780   2.068 -0.1602 -0.1943  0.4117
  936MOL0     C23477   9.918   8.732   1.939  0.4011  0.6674 -0.3257
  936MOL0     O23478  10.006   8.761   1.842  0.3519 -0.2778 -0.0738
  936MOL0     C23479  10.136   8.713   1.874 -0.5306 -0.9400 -0.5145
  936MOL0     C23480  10.232   8.716   1.755  0.3191  0.0981 -0.0290
  936MOL0     C23481  10.185   8.602   1.660 -0.3144  0.0894  0.4501
  936MOL0     C23482  10.283   8.570   1.547  0.4778 -0.5371 -0.0439
  936MOL0     C23483  10.389   8.490   1.608 -0.7131 -0.4668  0.3077
  936MOL0     C23484  10.482   8.421   1.642  0.4573  0.0951 -0.8320
  936MOL0     C23485   9.805   8.649   1.911  0.2866 -0.9163  0.2392
  936MOL0     C23486   9.716   8.601   2.003  0.1145 -0.5157 -0.0881
  936MOL0     H23487   9.437   8.398   2.336  1.6718  0.9586  1.2942
  936MOL0     H23488   9.239   8.361   2.459 -1.5338  0.1331 -2.9578
  936MOL0     H23489   9.103   8.342   2.617 -1.1273 -0.3506 -1.8421
  936MOL0     H23490   8.975   8.398   2.513 -2.0100 -0.7340  1.2989
  936MOL0     H23491   8.993   8.390   2.813  1.3353  0.6614  0.2918
  936MOL0     H23492   8.872   8.313   2.699 -1.7703  1.3226 -0.3426
  936MOL0     H23493   8.795   8.551   2.651 -0.9165 -1.9623 -0.9042
  936MOL0     H23494   8.887   8.597   2.802 -0.4659  0.2886  0.2253
  936MOL0     H23495   8.668   8.402   2.781  0.8514 -1.0616  1.4413
  936MOL0     H23496   8.765   8.425   2.929 -1.8780 -2.0353 -0.2978
  936MOL0     H23497   8.683   8.666   2.925  3.7604 -1.1506 -0.2801
  936MOL0     H23498   8.566   8.544   2.962  1.7503 -3.0234 -1.0974
  936MOL0     H23499   8.479   8.553   2.734  2.2867 -0.1387 -2.4373
  936MOL0     H23500   8.588   8.678   2.687  0.5292 -1.0649  0.6302
  936MOL0     H23501   8.376   8.699   2.917 -0.0338  1.1197  0.4338
  936MOL0     H23502   8.456   8.834   2.843  2.9551  0.0961  0.9058
  936MOL0     H23503   8.235   8.645   2.738  0.0858 -0.7492  2.3176
  936MOL0     H23504   8.353   8.738   2.630 -1.0609  0.4314 -0.2952
  936MOL0     H23505   8.014   8.785   2.659  0.5960  0.1368 -0.3943
  936MOL0     H23506   7.911   9.097   2.876  0.0874 -1.3643  1.2943
  936MOL0     H23507   7.831   8.955   2.792  1.2247 -1.1116 -1.6657
  936MOL0     H23508   7.927   9.058   2.571  0.3781  1.0910 -0.9412
  936MOL0     H23509   7.969   9.206   2.650  0.7810 -0.9557 -1.7065
  936MOL0     H23510   7.749   9.240   2.551  1.9118 -1.2788 -0.2126
  936MOL0     H23511   7.675   9.098   2.630  1.5784 -0.4998 -1.9725
  936MOL0     H23512   7.782   9.346   2.784 -2.3310  1.7480 -0.8352
  936MOL0     H23513   7.698   9.199   2.845 -2.4697 -2.7071 -2.2930
  936MOL0     H23514   7.746   9.490   2.621 -0.6230 -1.7003 -0.9822
  936MOL0     H23515   7.685   9.675   2.472  1.1508 -0.0158  0.1804
  936MOL0     H23516   7.540   9.935   2.100 -2.7888 -2.9498  1.1273
  936MOL0     H23517   7.451  10.160   2.037 -0.9225  2.5068  0.2283
  936MOL0     H23518   7.138  10.262   2.104  0.7940 -1.1937  1.2451
  936MOL0     H23519   7.277  10.281   2.004  0.6366  0.0893  0.5594
  936MOL0     H23520   7.267  10.525   2.037 -0.0214 -2.1321 -1.8674
  936MOL0     H23521   7.122  10.522   2.142  2.5490  1.9323  0.8448
  936MOL0     H23522   7.156  10.410   1.855  0.3785 -0.3145  0.8899
  936MOL0     H23523   7.106  10.572   1.890 -0.3503 -1.1947 -0.7946
  936MOL0     H23524   6.957  10.328   1.960 -0.7483 -1.5577 -1.6995
  936MOL0     H23525   6.907  10.487   2.000  0.1801 -2.0569  1.0704
  936MOL0     H23526   6.976  10.491   1.725  2.5672 -1.3667  1.6767
  936MOL0     H23527   6.806  10.503   1.796 -0.1530 -0.8541  2.4660
  936MOL0     H23528   6.803  10.257   1.819  0.0328 -1.8766 -1.4005
  936MOL0     H23529   6.926  10.238   1.706 -0.2696 -1.1131  2.4989
  936MOL0     H23530   6.668  10.389   1.652 -1.3296 -0.3507 -0.0817
  936MOL0     H23531   6.816  10.374   1.543  2.0598 -0.0385  1.4896
  936MOL0     H23532   6.757  10.169   1.481  0.1337 -0.5818 -0.3632
  936MOL0     H23533   6.594  10.227   1.504 -0.9707  0.5170  1.6831
  936MOL0     H23534   7.308  10.217   2.435 -0.0159 -1.7838  1.7375
  936MOL0     H23535   7.410  10.014   2.501 -0.7131  1.1108  0.5439
  936MOL0     H23536   7.273   9.545   2.488 -0.3907 -0.3869 -0.5499
  936MOL0     H23537   7.333   9.369   2.605 -2.4602  1.9297  0.1466
  936MOL0     H23538   9.155   8.779   2.466  0.0252  0.4469 -0.3917
  936MOL0     H23539   9.356   8.825   2.348 -0.3454  0.5565  0.4491
  936MOL0     H23540   9.837   8.765   2.274  1.5736  1.4666 -0.8527
  936MOL0     H23541  10.004   8.852   2.085 -1.6987  1.8096 -0.4975
  936MOL0     H23542  10.138   8.613   1.917  0.5918 -0.8264 -0.2762
  936MOL0     H23543  10.168   8.782   1.953 -2.0534  0.5436 -1.1204
  936MOL0     H23544  10.229   8.813   1.704 -0.7366  0.9234  1.5089
  936MOL0     H23545  10.332   8.686   1.785 -0.9378 -4.6250  0.1701
  936MOL0     H23546  10.089   8.622   1.612  1.0088 -0.5033 -2.6278
  936MOL0     H23547  10.168   8.511   1.719 -2.9260 -0.8030 -1.4995
  936MOL0     H23548  10.223   8.516   1.473 -0.0368 -0.4726  0.3243
  936MOL0     H23549  10.319   8.661   1.499  1.6318 -1.3834 -0.8292
  936MOL0     H23550  10.559   8.359   1.685 -0.7838  0.4530  2.1517
  936MOL0     H23551   9.796   8.607   1.812  1.4499 -0.1982 -0.1947
  936MOL0     H23552   9.640   8.525   1.986 -1.8637  0.9655  1.6565
  937MOL0     O23553   4.435   2.007   6.939 -0.4598 -0.7589 -0.3500
  937MOL0     C23554   4.445   2.003   6.818  1.3376  0.1633  0.2322
  937MOL0     O23555   4.342   1.965   6.735 -0.2485  0.1043  0.1728
  937MOL0     C23556   4.227   1.935   6.799  0.3645  0.8195  0.8083
  937MOL0     C23557   4.117   2.014   6.793  0.1487 -1.6152  0.2750
  937MOL0     C23558   3.997   1.981   6.859 -0.3240  0.2705  0.1378
  937MOL0     C23559   3.988   1.859   6.932  0.6502 -0.2925  0.1214
  937MOL0     O23560   3.878   1.835   7.007  0.2058 -0.2568 -0.7593
  937MOL0     C23561   3.762   1.795   6.930 -0.1756 -0.2132 -0.6310
  937MOL0     C23562   3.630   1.865   6.978  0.1638  0.6076 -0.1474
  937MOL0     C23563   3.588   1.795   7.107 -0.3682 -0.3117 -0.4416
  937MOL0     C23564   3.521   1.658   7.081  0.0848 -0.4381 -0.0809
  937MOL0     C23565   3.456   1.615   7.210 -0.2485 -0.5965  0.7184
  937MOL0     C23566   3.493   1.473   7.247 -0.4605  0.2528 -0.2063
  937MOL0     C23567   3.402   1.417   7.352  0.4130  0.7601 -0.4945
  937MOL0     C23568   3.452   1.290   7.428  0.0464 -0.4019  0.0903
  937MOL0     N23569   3.568   1.323   7.505  0.6622  0.2740  0.1048
  937MOL0     C23570   3.684   1.248   7.502 -0.3467 -0.5046 -0.8343
  937MOL0     C23571   3.767   1.312   7.591 -0.1665 -0.0534  0.6556
  937MOL0     C23572   3.906   1.272   7.610  0.1921  0.0648  0.1959
  937MOL0     C23573   3.990   1.297   7.486 -0.1347  0.8408 -0.2547
  937MOL0     C23574   4.137   1.309   7.520 -0.4449 -0.9041 -0.6420
  937MOL0     C23575   4.230   1.337   7.401 -0.2265 -0.2501  0.6315
  937MOL0     O23576   4.364   1.312   7.453  0.4682  0.3195  0.3500
  937MOL0     C23577   4.470   1.329   7.371  0.2967  0.1001 -0.2715
  937MOL0     C23578   4.589   1.323   7.441 -0.2161  0.2710 -0.5501
  937MOL0     C23579   4.709   1.343   7.371  0.5393 -0.2944 -0.0052
  937MOL0     C23580   4.708   1.381   7.233 -0.2195  0.1127 -0.3965
  937MOL0     C23581   4.835   1.400   7.162 -0.1829 -0.3313  0.3573
  937MOL0     O23582   4.947   1.424   7.244  0.0778  0.0072  0.6044
  937MOL0     C23583   5.069   1.422   7.183  0.4555 -0.5264 -0.0514
  937MOL0     C23584   5.141   1.541   7.182 -0.2760 -0.6713 -0.2413
  937MOL0     C23585   5.274   1.553   7.138 -0.6896  0.2928  0.6407
  937MOL0     C23586   5.328   1.443   7.072 -0.8754 -0.3616 -0.1385
  937MOL0     O23587   5.457   1.446   7.021  0.5560 -0.7060  0.0514
  937MOL0     C23588   5.564   1.519   7.089 -0.3616 -0.5398  0.1445
  937MOL0     C23589   5.699   1.461   7.055 -0.2950  0.5467 -0.1635
  937MOL0     C23590   5.815   1.550   7.100 -0.3777  0.4481  0.7139
  937MOL0     C23591   5.939   1.455   7.100  0.0952  0.2673 -0.1697
  937MOL0     C23592   6.066   1.530   7.147 -0.1004 -0.0213 -0.1254
  937MOL0     C23593   6.187   1.445   7.170  0.0154  0.0654 -0.5997
  937MOL0     C23594   6.237   1.356   7.059  0.2858  0.8080  0.1783
  937MOL0     C23595   6.325   1.249   7.126  0.4298 -1.0088  0.1915
  937MOL0    Cl23596   6.494   1.314   7.168 -0.2997 -0.4237  0.2636
  937MOL0     C23597   5.261   1.323   7.061  0.3356  0.6073 -0.5247
  937MOL0     C23598   5.128   1.313   7.118 -0.3145  0.3605 -0.5189
  937MOL0     O23599   4.848   1.403   7.038 -0.3794  0.4744  0.1659
  937MOL0     C23600   4.587   1.384   7.164  0.4758  0.1486  0.0909
  937MOL0     C23601   4.468   1.361   7.235 -0.6326 -0.7025 -0.6327
  937MOL0     N23602   3.698   1.417   7.645 -0.6359 -0.7791 -0.1118
  937MOL0     N23603   3.576   1.414   7.601 -0.7169 -0.7890 -0.0381
  937MOL0     C23604   4.093   1.765   6.927 -0.1961 -0.8534  0.1930
  937MOL0     C23605   4.209   1.811   6.860 -0.1003 -0.1412  0.8308
  937MOL0     C23606   4.577   2.021   6.758  0.6255 -0.2513 -0.1599
  937MOL0     C23607   4.594   2.035   6.619 -0.8385 -0.1351  0.3955
  937MOL0     C23608   4.725   2.054   6.560 -0.3903 -0.0313  0.9923
  937MOL0     C23609   4.838   2.062   6.631  0.8388  0.4852  0.2006
  937MOL0     O23610   4.954   2.073   6.563  0.1232  0.2026  0.3511
  937MOL0     C23611   5.070   2.110   6.648  0.7725  0.1403 -0.6943
  937MOL0     C23612   5.195   2.145   6.563 -0.5937  0.2965  0.2491
  937MOL0     C23613   5.177   2.274   6.469  1.3965  0.7084  0.0525
  937MOL0     C23614   5.307   2.322   6.410  0.4837  0.6850  1.4141
  937MOL0     C23615   5.371   2.412   6.511 -0.0903  0.3449  0.7186
  937MOL0     C23616   5.421   2.497   6.580 -0.3267  0.3457 -0.0080
  937MOL0     C23617   4.820   2.037   6.774 -0.5663 -0.2571  0.4196
  937MOL0     C23618   4.695   2.023   6.831  0.1150 -0.2061  0.0688
  937MOL0     H23619   4.130   2.113   6.750 -1.4584 -0.2981  2.5922
  937MOL0     H23620   3.912   2.046   6.878 -1.5871 -1.3837  0.3968
  937MOL0     H23621   3.754   1.686   6.936 -0.2114 -0.1415  1.3343
  937MOL0     H23622   3.776   1.824   6.826  2.7707  1.0102  0.0110
  937MOL0     H23623   3.554   1.862   6.899  0.1659 -0.6245 -0.1151
  937MOL0     H23624   3.650   1.968   7.008 -0.3337  0.7016 -0.1389
  937MOL0     H23625   3.513   1.855   7.159  0.1086 -0.4516  0.4419
  937MOL0     H23626   3.673   1.784   7.175 -1.0005 -0.4617  0.3399
  937MOL0     H23627   3.442   1.681   7.008 -0.3846 -2.3614 -0.2303
  937MOL0     H23628   3.594   1.581   7.052 -1.8248 -2.9474  1.3333
  937MOL0     H23629   3.351   1.644   7.201 -0.2960 -1.2046 -1.1343
  937MOL0     H23630   3.496   1.676   7.290 -1.1208  0.7479  0.1615
  937MOL0     H23631   3.598   1.466   7.279 -0.0049  1.1732 -1.4053
  937MOL0     H23632   3.492   1.402   7.163 -0.0755  1.1923 -1.0232
  937MOL0     H23633   3.370   1.492   7.425 -2.1325 -1.6827  1.0900
  937MOL0     H23634   3.304   1.383   7.316  0.0761 -1.0290  1.8630
  937MOL0     H23635   3.488   1.216   7.356 -0.1834 -2.7578  2.2410
  937MOL0     H23636   3.391   1.227   7.494  2.5901 -2.9376  0.2220
  937MOL0     H23637   3.694   1.161   7.438 -2.8500 -2.0682  0.7339
  937MOL0     H23638   3.903   1.172   7.655 -0.0016 -0.4706 -0.9829
  937MOL0     H23639   3.953   1.342   7.680 -3.1886  0.0252  2.7497
  937MOL0     H23640   3.957   1.393   7.445 -0.1279  0.4487 -1.1998
  937MOL0     H23641   3.963   1.215   7.419 -0.8341 -0.1951  1.2505
  937MOL0     H23642   4.163   1.395   7.583  0.8116 -1.5002 -0.3274
  937MOL0     H23643   4.160   1.217   7.574 -2.6018  0.0305  2.1579
  937MOL0     H23644   4.208   1.438   7.367  1.1094  0.3815  1.5853
  937MOL0     H23645   4.198   1.267   7.323  0.0996 -0.3407  0.5765
  937MOL0     H23646   4.586   1.303   7.548 -1.6939  3.5389  0.1163
  937MOL0     H23647   4.800   1.326   7.428  1.3026  1.5515 -0.6244
  937MOL0     H23648   5.094   1.636   7.206 -0.8168 -1.2919  1.3564
  937MOL0     H23649   5.332   1.645   7.140  0.7626 -0.5245 -1.0859
  937MOL0     H23650   5.553   1.518   7.198  4.0193  0.4706  0.7611
  937MOL0     H23651   5.563   1.622   7.053 -0.3844 -1.1750 -1.8100
  937MOL0     H23652   5.714   1.439   6.949  1.7272 -1.3094  0.4448
  937MOL0     H23653   5.705   1.369   7.114 -1.5990 -0.9123 -2.1967
  937MOL0     H23654   5.792   1.579   7.203  1.8404 -1.8106  1.9572
  937MOL0     H23655   5.838   1.629   7.027  2.1758 -2.9808 -2.6186
  937MOL0     H23656   5.921   1.371   7.167  0.1872  1.5966  1.5918
  937MOL0     H23657   5.955   1.432   6.994 -0.3664  1.0493 -0.4151
  937MOL0     H23658   6.032   1.572   7.242  0.2983 -0.5424  0.2523
  937MOL0     H23659   6.080   1.614   7.078 -0.7881  0.8837  0.8137
  937MOL0     H23660   6.173   1.397   7.267  0.9159  0.4207 -0.2861
  937MOL0     H23661   6.271   1.511   7.194  0.1503 -0.0568 -0.7322
  937MOL0     H23662   6.153   1.301   7.015 -0.2408 -1.7519  3.8802
  937MOL0     H23663   6.281   1.422   6.984  0.6335  1.0664  0.6095
  937MOL0     H23664   6.343   1.159   7.066  2.5902 -1.0980  0.8533
  937MOL0     H23665   6.285   1.200   7.216  1.7505 -1.4018  0.5922
  937MOL0     H23666   5.316   1.238   7.023  0.2620  0.2094  0.2547
  937MOL0     H23667   5.086   1.214   7.127 -0.6323  0.4968 -0.4980
  937MOL0     H23668   4.587   1.407   7.058 -0.7670  0.0282  0.0468
  937MOL0     H23669   4.374   1.375   7.183  1.0385 -1.4461 -4.1940
  937MOL0     H23670   4.084   1.667   6.973  0.5357 -0.8575  0.3559
  937MOL0     H23671   4.298   1.750   6.849  0.0368  0.3147 -1.0402
  937MOL0     H23672   4.506   2.043   6.556 -1.9969 -0.5345  1.9054
  937MOL0     H23673   4.729   2.067   6.453  1.0474  0.0428  1.0260
  937MOL0     H23674   5.097   2.032   6.720 -0.6973  0.7447  0.5841
  937MOL0     H23675   5.045   2.200   6.705  1.1710  1.6680 -2.8154
  937MOL0     H23676   5.279   2.159   6.631  0.9139  1.6948 -1.7706
  937MOL0     H23677   5.212   2.052   6.507 -0.2519  0.9121 -0.7020
  937MOL0     H23678   5.116   2.347   6.523 -0.2919 -0.2006 -0.5314
  937MOL0     H23679   5.107   2.241   6.391  2.3520 -0.0689 -0.4940
  937MOL0     H23680   5.372   2.238   6.386  1.4727  1.5204  1.0917
  937MOL0     H23681   5.300   2.391   6.325 -0.2527  1.5212  2.1251
  937MOL0     H23682   5.470   2.567   6.646 -1.8014  1.1723  0.2418
  937MOL0     H23683   4.903   2.011   6.839 -3.3308 -4.6829  2.6756
  937MOL0     H23684   4.685   2.030   6.939 -0.2075  0.7834 -0.0164
  938MOL0     O23685   2.245   6.393   5.629  0.3163 -0.7150  0.7225
  938MOL0     C23686   2.294   6.456   5.720 -0.0333 -0.7933  0.0825
  938MOL0     O23687   2.225   6.536   5.814  0.3649  0.1742 -0.1211
  938MOL0     C23688   2.090   6.559   5.818 -0.2264  0.3043  0.0234
  938MOL0     C23689   2.026   6.588   5.939 -0.2301 -0.2524  0.9077
  938MOL0     C23690   1.894   6.627   5.943  0.1226 -0.1199 -0.9419
  938MOL0     C23691   1.810   6.615   5.835 -0.2798 -0.2582 -0.5934
  938MOL0     O23692   1.678   6.641   5.864 -0.2886  0.0100  0.1595
  938MOL0     C23693   1.599   6.665   5.758  0.3764  0.7369  0.6576
  938MOL0     C23694   1.455   6.693   5.804 -0.4758  0.1064  0.7630
  938MOL0     C23695   1.372   6.764   5.697  0.4619 -1.0166  0.0289
  938MOL0     C23696   1.222   6.775   5.748 -1.0978 -0.6540  0.8132
  938MOL0     C23697   1.135   6.848   5.655  0.8630  0.4804 -0.3755
  938MOL0     C23698   0.991   6.857   5.716 -0.4474 -0.1731 -0.3323
  938MOL0     C23699   0.927   6.991   5.682 -0.4766 -0.3273 -0.3416
  938MOL0     C23700   0.780   6.993   5.736 -0.2917  0.1127  0.5649
  938MOL0     N23701   0.697   6.890   5.680  0.0393  0.1428 -0.2935
  938MOL0     C23702   0.662   6.893   5.549  0.9379  0.1327 -0.3316
  938MOL0     C23703   0.568   6.794   5.539  0.2781  0.3119  0.6332
  938MOL0     C23704   0.477   6.756   5.426  0.1037  0.1480 -0.3587
  938MOL0     C23705   0.373   6.859   5.376  0.1771  0.4004  0.1014
  938MOL0     C23706   0.262   6.880   5.487 -0.0238  0.4865  0.5675
  938MOL0     C23707   0.155   6.962   5.445  1.1818 -0.1440  0.8725
  938MOL0     O23708   0.039   6.947   5.528  0.3881 -0.5113 -0.0457
  938MOL0     C23709  -0.054   7.048   5.523  0.9584 -1.1764 -0.3991
  938MOL0     C23710  -0.049   7.175   5.450  0.0141 -0.8781 -0.8290
  938MOL0     C23711  -0.149   7.274   5.474 -0.2047  0.0804 -0.0595
  938MOL0     C23712  -0.263   7.245   5.553  0.1307  0.1262  0.3098
  938MOL0     C23713  -0.369   7.352   5.554 -0.3365  0.2422 -0.8821
  938MOL0     O23714  -0.475   7.330   5.641  1.2276 -0.6273 -0.0620
  938MOL0     C23715  -0.574   7.436   5.648  0.3912  0.5849 -0.3762
  938MOL0     C23716  -0.607   7.529   5.547 -0.0573 -0.1339  0.2316
  938MOL0     C23717  -0.723   7.603   5.556 -0.1149 -0.1166 -0.3651
  938MOL0     C23718  -0.813   7.599   5.669 -0.5055  0.0125 -0.1371
  938MOL0     O23719  -0.923   7.685   5.687  0.0496  0.5986  1.1723
  938MOL0     C23720  -0.952   7.769   5.579  0.3580  0.4621  0.0436
  938MOL0     C23721  -1.073   7.850   5.619 -0.8303  1.2084 -0.2081
  938MOL0     C23722  -1.110   7.932   5.491  0.4832  0.1674  0.3275
  938MOL0     C23723  -1.153   7.863   5.360  0.2200  0.1725 -0.2446
  938MOL0     C23724  -1.235   7.738   5.387 -0.5784 -0.1835  1.0514
  938MOL0     C23725  -1.375   7.767   5.439 -0.7702  0.3154 -0.4836
  938MOL0     C23726  -1.448   7.629   5.463 -0.4351  0.5887  1.3097
  938MOL0     C23727  -1.563   7.669   5.546 -0.0271  0.5288 -0.0813
  938MOL0    Cl23728  -1.656   7.520   5.585  0.1106 -0.0510 -0.4895
  938MOL0     C23729  -0.775   7.510   5.770 -0.0323 -0.5976 -0.5582
  938MOL0     C23730  -0.666   7.419   5.755 -0.1858 -0.3908 -0.1969
  938MOL0     O23731  -0.350   7.455   5.483  0.4714  0.3087  0.1419
  938MOL0     C23732  -0.270   7.121   5.617  0.7787 -1.0402  0.2234
  938MOL0     C23733  -0.160   7.032   5.614 -0.1364  0.0341  0.0924
  938MOL0     N23734   0.556   6.730   5.661 -0.0720  0.2164  0.3437
  938MOL0     N23735   0.628   6.793   5.744 -0.7666  0.0905  0.2379
  938MOL0     C23736   1.863   6.584   5.716 -0.1065 -0.0886  0.7962
  938MOL0     C23737   2.013   6.570   5.697 -0.2556  0.5626 -0.8172
  938MOL0     C23738   2.435   6.427   5.749  0.2142  0.8857  0.5483
  938MOL0     C23739   2.520   6.519   5.810 -0.2426  0.6094 -0.7825
  938MOL0     C23740   2.655   6.481   5.833 -0.1079 -0.0131 -0.3613
  938MOL0     C23741   2.709   6.362   5.786  0.0857 -0.3575  0.7827
  938MOL0     O23742   2.848   6.350   5.815  0.1083  0.3552  0.2184
  938MOL0     C23743   2.917   6.234   5.768 -1.1650 -0.7784  0.6313
  938MOL0     C23744   3.069   6.260   5.792  0.0296 -0.0245  0.0687
  938MOL0     C23745   3.150   6.152   5.716 -0.1275 -0.7448 -0.0787
  938MOL0     C23746   3.301   6.186   5.686  0.3828  0.2661  0.3569
  938MOL0     C23747   3.372   6.196   5.811 -0.1906 -0.3406 -0.8324
  938MOL0     C23748   3.432   6.195   5.916 -0.1438  0.3427  0.2038
  938MOL0     C23749   2.622   6.273   5.721  0.8717  0.6660  0.3466
  938MOL0     C23750   2.489   6.303   5.702  0.0120 -0.2254  0.0414
  938MOL0     H23751   2.086   6.571   6.028  0.3990 -2.0333  0.1830
  938MOL0     H23752   1.844   6.649   6.036 -2.6189 -1.1310 -2.0691
  938MOL0     H23753   1.593   6.589   5.680  0.9268  2.5186 -1.2234
  938MOL0     H23754   1.644   6.750   5.705 -4.9461  2.7096 -1.4640
  938MOL0     H23755   1.452   6.748   5.898  0.7891  0.2993  0.7127
  938MOL0     H23756   1.406   6.597   5.823 -3.0395  1.3180  0.6631
  938MOL0     H23757   1.383   6.711   5.602 -0.2774 -1.1628  0.0211
  938MOL0     H23758   1.404   6.867   5.678  0.3533 -0.6338  1.7804
  938MOL0     H23759   1.180   6.676   5.770 -1.3587 -0.3911  1.5076
  938MOL0     H23760   1.220   6.833   5.841 -0.8476 -1.7392  1.5136
  938MOL0     H23761   1.133   6.787   5.564 -1.9593 -2.8275  1.6748
  938MOL0     H23762   1.176   6.948   5.636  2.9493  0.0795  1.6223
  938MOL0     H23763   1.000   6.862   5.825  0.8863 -3.5989 -0.1555
  938MOL0     H23764   0.932   6.769   5.689  1.4558 -1.0044 -2.0500
  938MOL0     H23765   0.986   7.075   5.721  1.0750 -2.7145  2.8310
  938MOL0     H23766   0.927   6.997   5.572 -0.0645 -2.9263 -0.5355
  938MOL0     H23767   0.731   7.081   5.694 -1.1084 -0.5508  0.0862
  938MOL0     H23768   0.780   6.996   5.845  1.3971  3.6985  0.5766
  938MOL0     H23769   0.679   6.955   5.462 -0.9371 -0.9597 -1.5470
  938MOL0     H23770   0.420   6.672   5.466  1.4211  0.3002  2.0517
  938MOL0     H23771   0.530   6.715   5.340  1.8306 -0.3754  0.9009
  938MOL0     H23772   0.325   6.821   5.286  1.0627 -1.5575  0.4112
  938MOL0     H23773   0.414   6.959   5.357  1.1117 -0.1767 -1.0119
  938MOL0     H23774   0.228   6.785   5.528  0.9001 -0.2707 -0.3684
  938MOL0     H23775   0.313   6.936   5.566  2.0503  1.2602 -1.1907
  938MOL0     H23776   0.124   6.944   5.342  2.3312 -1.8176  0.7851
  938MOL0     H23777   0.190   7.066   5.450  1.3905 -0.1938  0.4760
  938MOL0     H23778   0.029   7.194   5.377 -1.2534 -2.9573 -2.8281
  938MOL0     H23779  -0.130   7.368   5.425  1.0051 -1.8252 -3.6379
  938MOL0     H23780  -0.555   7.538   5.452  1.2504  1.8850  1.0615
  938MOL0     H23781  -0.732   7.673   5.474 -0.3988 -1.3842 -1.4329
  938MOL0     H23782  -0.980   7.697   5.501  2.1262 -0.8100  0.5024
  938MOL0     H23783  -0.868   7.835   5.560 -0.3604  2.9013  4.0376
  938MOL0     H23784  -1.051   7.909   5.708 -1.4130 -0.3934  1.0438
  938MOL0     H23785  -1.155   7.783   5.647 -2.2123  2.5907 -0.7456
  938MOL0     H23786  -1.019   7.986   5.466  0.5890  0.3718  1.1243
  938MOL0     H23787  -1.189   8.004   5.516  0.0682  1.8895 -4.8221
  938MOL0     H23788  -1.206   7.929   5.291 -0.5664 -0.5506 -0.3430
  938MOL0     H23789  -1.058   7.835   5.313 -0.0733 -0.6131 -0.3911
  938MOL0     H23790  -1.184   7.665   5.452 -0.9986 -0.0346  1.5544
  938MOL0     H23791  -1.235   7.682   5.293  2.6679 -0.1757  0.9234
  938MOL0     H23792  -1.415   7.835   5.363  2.7647 -0.4175 -3.2938
  938MOL0     H23793  -1.378   7.830   5.529 -2.7352  1.3800 -1.2382
  938MOL0     H23794  -1.480   7.593   5.365  1.1452  2.5454 -0.0108
  938MOL0     H23795  -1.382   7.554   5.507  2.0420  0.5660 -2.0339
  938MOL0     H23796  -1.643   7.730   5.502 -2.3707 -3.0003 -1.1806
  938MOL0     H23797  -1.525   7.708   5.641  0.4787  2.1677 -0.8994
  938MOL0     H23798  -0.819   7.512   5.869  1.2792  1.9363  0.0335
  938MOL0     H23799  -0.646   7.352   5.837 -0.0953  2.9218  2.7344
  938MOL0     H23800  -0.360   7.105   5.675 -0.2182 -0.6545 -1.1719
  938MOL0     H23801  -0.158   6.944   5.678 -0.8404  0.1603  0.2860
  938MOL0     H23802   1.808   6.578   5.623  0.0329  0.2965  0.6856
  938MOL0     H23803   2.055   6.540   5.601 -1.9227 -1.9352 -0.8647
  938MOL0     H23804   2.484   6.614   5.847  1.0350 -0.3549  3.6131
  938MOL0     H23805   2.733   6.552   5.862 -2.6483  3.0323 -0.5014
  938MOL0     H23806   2.910   6.240   5.659  0.2877 -0.7811  0.5116
  938MOL0     H23807   2.885   6.135   5.803 -2.4701 -1.4767 -2.2317
  938MOL0     H23808   3.087   6.362   5.759 -5.1414  1.2820  0.3525
  938MOL0     H23809   3.103   6.253   5.896  2.8999 -1.0188 -0.8545
  938MOL0     H23810   3.106   6.131   5.618  1.3734 -0.9092 -0.7546
  938MOL0     H23811   3.151   6.062   5.778  1.0714 -0.2948  0.5859
  938MOL0     H23812   3.336   6.104   5.622 -1.6020 -0.7899  0.5498
  938MOL0     H23813   3.299   6.279   5.628  1.2658 -0.6065 -1.1523
  938MOL0     H23814   3.494   6.186   6.002  1.5821  0.4285 -0.9702
  938MOL0     H23815   2.661   6.175   5.694 -0.4023 -0.1558  1.3286
  938MOL0     H23816   2.417   6.235   5.657 -2.5321  1.8220  0.7943
  939MOL0     O23817   3.498   3.022   6.750 -0.2583  0.2763  0.3110
  939MOL0     C23818   3.570   2.923   6.745  0.1208  1.2517 -0.0040
  939MOL0     O23819   3.519   2.796   6.739  0.1668  0.7062  0.2720
  939MOL0     C23820   3.399   2.775   6.790  0.4190 -0.4020 -0.0476
  939MOL0     C23821   3.361   2.767   6.925 -0.1004 -0.2472  0.3459
  939MOL0     C23822   3.228   2.734   6.956 -0.2115  0.3307 -0.3617
  939MOL0     C23823   3.126   2.709   6.862  0.4222 -0.0160  0.3712
  939MOL0     O23824   2.998   2.682   6.904 -0.7655 -0.3975 -0.1054
  939MOL0     C23825   2.896   2.713   6.803 -0.5910  0.1258 -0.1374
  939MOL0     C23826   2.760   2.672   6.857  0.4182  0.0244 -0.4035
  939MOL0     C23827   2.725   2.521   6.862 -0.1842  0.4104 -0.5243
  939MOL0     C23828   2.821   2.445   6.952  0.8260  0.4875 -0.1543
  939MOL0     C23829   2.784   2.297   6.933  0.2593 -1.2552 -0.3276
  939MOL0     C23830   2.680   2.251   7.037 -0.0070  0.2548  0.4732
  939MOL0     C23831   2.624   2.111   7.009 -0.6916 -0.3546 -0.9759
  939MOL0     C23832   2.733   2.013   7.054  0.2783 -0.5929  0.0099
  939MOL0     N23833   2.680   1.877   7.011 -0.7317  0.3834 -0.5153
  939MOL0     C23834   2.577   1.809   7.074  0.0913 -0.5264 -0.0164
  939MOL0     C23835   2.562   1.699   7.009  0.6264  0.4134 -0.4006
  939MOL0     C23836   2.447   1.597   7.022 -0.6103  0.4828 -0.4772
  939MOL0     C23837   2.320   1.650   7.094  0.3242 -0.5588 -0.4092
  939MOL0     C23838   2.208   1.545   7.089 -0.1769 -0.2606  0.2720
  939MOL0     C23839   2.068   1.619   7.108  0.5733 -0.0156  0.4072
  939MOL0     O23840   2.022   1.684   6.986  0.2196 -0.2223  0.6363
  939MOL0     C23841   1.910   1.765   6.984  0.5193  0.8592  0.4493
  939MOL0     C23842   1.820   1.764   7.089  0.1966  0.0149 -0.7837
  939MOL0     C23843   1.700   1.835   7.082 -0.6087 -0.1383 -1.1942
  939MOL0     C23844   1.674   1.905   6.963  0.0992 -0.0562  0.7190
  939MOL0     C23845   1.551   1.983   6.945  0.1217  0.1297 -0.6851
  939MOL0     O23846   1.458   1.963   7.047  0.3089  0.5236 -0.4336
  939MOL0     C23847   1.341   2.028   7.070 -0.9429  0.2959 -0.8482
  939MOL0     C23848   1.266   1.977   7.183 -0.2387 -0.9345  0.1812
  939MOL0     C23849   1.143   2.030   7.220  0.2095 -0.5484  0.4424
  939MOL0     C23850   1.076   2.121   7.140 -0.5148 -1.1365  1.0078
  939MOL0     O23851   0.956   2.169   7.175  0.6214  0.3517  0.9365
  939MOL0     C23852   0.859   2.211   7.075 -0.6968 -0.0717 -0.6325
  939MOL0     C23853   0.721   2.228   7.137  0.2729  0.6827  0.5003
  939MOL0     C23854   0.705   2.308   7.266 -0.0308  0.1060  0.2626
  939MOL0     C23855   0.585   2.400   7.269  0.2114 -0.1568 -0.0574
  939MOL0     C23856   0.551   2.455   7.412 -0.7120  0.2674  0.0778
  939MOL0     C23857   0.415   2.523   7.410  0.2672 -0.3442 -0.5440
  939MOL0     C23858   0.411   2.607   7.540 -0.4931 -0.3806  0.0781
  939MOL0     C23859   0.263   2.664   7.557  0.2630  0.3423  0.7464
  939MOL0    Cl23860   0.248   2.791   7.429 -0.2069 -0.1222 -0.4586
  939MOL0     C23861   1.149   2.175   7.029  0.0927 -0.6281 -0.7238
  939MOL0     C23862   1.282   2.134   6.999 -0.2171 -0.0647 -0.2903
  939MOL0     O23863   1.536   2.065   6.855  0.4621  0.1080  0.1274
  939MOL0     C23864   1.768   1.910   6.864  0.6662  0.2185  0.2672
  939MOL0     C23865   1.888   1.846   6.879  0.4100  0.0610  0.7032
  939MOL0     N23866   2.656   1.694   6.901 -0.4261  0.1665 -1.0968
  939MOL0     N23867   2.728   1.806   6.904 -0.0301 -0.3258  0.8640
  939MOL0     C23868   3.169   2.717   6.729  0.4403  0.0723 -0.1875
  939MOL0     C23869   3.303   2.742   6.695 -0.1942 -0.0613 -0.0612
  939MOL0     C23870   3.724   2.938   6.726  0.4459  0.4568  0.2837
  939MOL0     C23871   3.782   3.061   6.709  0.0129  0.3191  0.0323
  939MOL0     C23872   3.920   3.073   6.692 -0.5310  0.2898  0.1773
  939MOL0     C23873   4.002   2.963   6.691 -0.0301 -0.0380 -0.0992
  939MOL0     O23874   4.140   2.983   6.668  0.2031 -0.2557  0.0467
  939MOL0     C23875   4.196   3.099   6.734 -0.1345 -0.2024 -0.0701
  939MOL0     C23876   4.195   3.102   6.884  0.0474 -0.0768  0.0883
  939MOL0     C23877   4.255   3.229   6.944 -0.0318  0.1473  0.3033
  939MOL0     C23878   4.376   3.289   6.876 -0.9428  0.5760 -0.1483
  939MOL0     C23879   4.494   3.203   6.898 -0.0765  0.1474  0.3142
  939MOL0     C23880   4.580   3.118   6.913  0.2249 -0.1388  0.1356
  939MOL0     C23881   3.944   2.832   6.704  0.2096 -0.2416  0.3710
  939MOL0     C23882   3.808   2.826   6.724  0.1570 -0.3698  1.2881
  939MOL0     H23883   3.431   2.795   7.003  1.5839 -3.1194  0.0150
  939MOL0     H23884   3.205   2.757   7.059  0.8774 -0.0597 -0.0164
  939MOL0     H23885   2.915   2.666   6.706 -1.0002 -0.8297  0.2363
  939MOL0     H23886   2.882   2.821   6.789 -1.4255  0.1095  0.4502
  939MOL0     H23887   2.680   2.719   6.799 -0.5372 -0.2034  0.6703
  939MOL0     H23888   2.752   2.707   6.960  2.1005 -0.6444 -0.0212
  939MOL0     H23889   2.732   2.476   6.762 -0.6543  1.0094 -0.8290
  939MOL0     H23890   2.620   2.506   6.889 -0.5907 -2.1341 -3.0098
  939MOL0     H23891   2.924   2.456   6.920  0.5799 -0.0836 -1.1881
  939MOL0     H23892   2.805   2.476   7.056 -0.5145  0.1563 -0.2337
  939MOL0     H23893   2.874   2.236   6.941 -0.0512 -1.9018 -1.5143
  939MOL0     H23894   2.747   2.266   6.835  0.9910 -3.8349  0.1392
  939MOL0     H23895   2.587   2.307   7.035 -0.0736  0.1661  0.9145
  939MOL0     H23896   2.705   2.265   7.143  0.7561  3.6331 -0.0462
  939MOL0     H23897   2.542   2.087   7.076  0.5382 -1.4105  0.1950
  939MOL0     H23898   2.586   2.091   6.908 -0.2717 -1.9498 -0.8377
  939MOL0     H23899   2.745   2.004   7.163 -2.6989  1.0412  0.5707
  939MOL0     H23900   2.822   2.047   7.001  1.1037 -0.5307  1.3916
  939MOL0     H23901   2.520   1.832   7.163  0.4554 -0.4971  0.2095
  939MOL0     H23902   2.496   1.507   7.061  1.5441  0.8448 -2.1700
  939MOL0     H23903   2.420   1.564   6.921  2.2030  0.6637 -1.3843
  939MOL0     H23904   2.285   1.742   7.045  2.9583  0.1482 -1.1293
  939MOL0     H23905   2.339   1.677   7.199  1.8146  0.1724 -0.8491
  939MOL0     H23906   2.211   1.482   7.000  1.6033  0.9075 -0.5462
  939MOL0     H23907   2.225   1.476   7.173 -2.0940 -0.6869  0.3405
  939MOL0     H23908   2.073   1.700   7.181 -1.1572  1.5162 -1.0839
  939MOL0     H23909   1.992   1.550   7.146 -0.8113  2.2804  2.0155
  939MOL0     H23910   1.838   1.703   7.176 -2.2140 -1.1180 -0.9749
  939MOL0     H23911   1.642   1.852   7.172  1.4062 -0.5168  0.2389
  939MOL0     H23912   1.314   1.906   7.250  2.2968  0.7507  0.3020
  939MOL0     H23913   1.095   2.005   7.314 -1.3928 -1.5370 -0.5844
  939MOL0     H23914   0.845   2.148   6.987 -0.1903 -0.7572 -0.2308
  939MOL0     H23915   0.896   2.308   7.038 -0.4533  0.0879  0.0249
  939MOL0     H23916   0.677   2.128   7.146 -4.4039  2.3494 -1.0711
  939MOL0     H23917   0.669   2.272   7.051  0.2385  1.3036  0.8353
  939MOL0     H23918   0.790   2.374   7.285  0.3608 -0.1915 -0.4417
  939MOL0     H23919   0.697   2.228   7.342  0.0830 -2.9129 -2.6676
  939MOL0     H23920   0.594   2.478   7.193  1.0042 -2.8295 -2.9103
  939MOL0     H23921   0.493   2.347   7.242 -1.7141  3.4544 -1.1582
  939MOL0     H23922   0.619   2.537   7.432 -0.9640 -0.1520  3.1710
  939MOL0     H23923   0.553   2.380   7.492  1.3211 -2.2844 -2.1726
  939MOL0     H23924   0.340   2.444   7.397  1.4035 -1.1719 -2.6661
  939MOL0     H23925   0.401   2.592   7.327 -0.5123 -3.3525 -3.1433
  939MOL0     H23926   0.445   2.550   7.627  3.2881  1.1305 -0.2477
  939MOL0     H23927   0.482   2.689   7.525  0.7530 -0.5458  3.9938
  939MOL0     H23928   0.262   2.713   7.655 -0.5483  0.8591  0.4824
  939MOL0     H23929   0.183   2.589   7.555 -0.2106  0.8508 -0.4254
  939MOL0     H23930   1.124   2.263   6.970 -0.0885 -0.6978 -0.7519
  939MOL0     H23931   1.334   2.194   6.925  0.2570  1.3097  1.0886
  939MOL0     H23932   1.743   1.969   6.776 -1.0810  2.5677  2.1896
  939MOL0     H23933   1.971   1.872   6.813 -1.1184  0.8258 -1.0282
  939MOL0     H23934   3.104   2.712   6.642  1.3441  1.8719 -1.0176
  939MOL0     H23935   3.332   2.744   6.590  4.5794  3.1416  0.9799
  939MOL0     H23936   3.720   3.150   6.706 -0.9217 -0.3302 -0.3973
  939MOL0     H23937   3.944   3.178   6.680  1.2513 -0.3516 -3.1701
  939MOL0     H23938   4.158   3.196   6.700 -1.5913 -0.5661  0.4342
  939MOL0     H23939   4.295   3.107   6.690  0.2645 -1.7837  0.4790
  939MOL0     H23940   4.090   3.095   6.913  0.4278 -1.7892  1.2343
  939MOL0     H23941   4.259   3.020   6.920 -0.6262  0.2853  2.2521
  939MOL0     H23942   4.276   3.207   7.049  2.1601 -0.0544 -0.1286
  939MOL0     H23943   4.181   3.308   6.926  0.1657  0.7780  2.0643
  939MOL0     H23944   4.357   3.304   6.770  0.5321  3.3962 -0.1159
  939MOL0     H23945   4.383   3.393   6.908  0.6337 -0.7006  4.4591
  939MOL0     H23946   4.657   3.044   6.922 -2.0104 -2.4879  1.3224
  939MOL0     H23947   4.009   2.746   6.693 -1.1539 -1.3310  0.4260
  939MOL0     H23948   3.755   2.732   6.741  0.0217 -0.4509  0.4495
  940MOL0     O23949   4.857   0.093   7.527  0.5598  0.1343  0.1487
  940MOL0     C23950   4.921  -0.014   7.537  0.7055 -0.0326  0.4844
  940MOL0     O23951   4.870  -0.130   7.588 -0.7571 -0.4600  1.1922
  940MOL0     C23952   4.738  -0.149   7.620 -0.2599 -0.1886  0.4630
  940MOL0     C23953   4.693  -0.281   7.625  0.0012  0.3905 -0.4957
  940MOL0     C23954   4.565  -0.317   7.652 -0.2622  0.4841 -0.6273
  940MOL0     C23955   4.474  -0.213   7.672  0.5596  1.0876  0.1906
  940MOL0     O23956   4.338  -0.253   7.678 -0.2232 -0.1080  0.0159
  940MOL0     C23957   4.238  -0.158   7.660 -0.2445  0.3846 -0.5340
  940MOL0     C23958   4.101  -0.221   7.658 -0.3859 -0.7704  0.9156
  940MOL0     C23959   4.000  -0.112   7.658  0.3352  0.0934 -0.1588
  940MOL0     C23960   3.862  -0.164   7.674  0.7290  0.8785  0.3286
  940MOL0     C23961   3.795  -0.176   7.532  0.7373  0.1044 -0.0560
  940MOL0     C23962   3.665  -0.253   7.551  0.0536 -0.1188  0.0689
  940MOL0     C23963   3.608  -0.295   7.416 -0.0358 -0.7877 -0.2691
  940MOL0     C23964   3.467  -0.344   7.428  0.0985  0.4008  0.3757
  940MOL0     N23965   3.451  -0.478   7.489  0.4878 -0.4926 -0.4419
  940MOL0     C23966   3.402  -0.582   7.413  0.5126 -0.8089 -1.2682
  940MOL0     C23967   3.395  -0.695   7.494  0.0762  0.9328  0.4633
  940MOL0     C23968   3.359  -0.831   7.451  0.1772 -0.1026  0.4975
  940MOL0     C23969   3.238  -0.828   7.355  0.0625  0.0425 -1.0122
  940MOL0     C23970   3.109  -0.758   7.417  0.4877 -0.1003 -0.0076
  940MOL0     C23971   2.979  -0.837   7.365 -0.2399  0.1730 -0.6446
  940MOL0     O23972   2.982  -0.977   7.401  0.1302 -0.3160 -0.3635
  940MOL0     C23973   2.867  -1.046   7.413 -0.8145 -0.1859  1.4464
  940MOL0     C23974   2.737  -1.013   7.373  0.3679 -0.6439  0.0315
  940MOL0     C23975   2.628  -1.095   7.400  0.3034 -0.4239 -0.0336
  940MOL0     C23976   2.649  -1.219   7.466 -0.1359  0.3676  0.8450
  940MOL0     C23977   2.534  -1.316   7.478 -0.5082 -0.7157 -0.9233
  940MOL0     O23978   2.408  -1.258   7.466 -0.0930 -0.0992  0.7305
  940MOL0     C23979   2.307  -1.347   7.445  0.1552  0.6901  1.0213
  940MOL0     C23980   2.306  -1.457   7.346  0.1683 -0.2761 -0.2531
  940MOL0     C23981   2.194  -1.540   7.349 -0.1864  0.6083  0.5990
  940MOL0     C23982   2.093  -1.523   7.451  0.4583  1.1321 -0.0364
  940MOL0     O23983   1.981  -1.606   7.472  0.5122  0.3353 -0.0979
  940MOL0     C23984   1.964  -1.717   7.377 -0.1698 -0.6267 -0.0913
  940MOL0     C23985   1.826  -1.774   7.410  0.2477  0.9073 -0.4421
  940MOL0     C23986   1.826  -1.838   7.558 -0.0596 -0.1011 -0.6462
  940MOL0     C23987   1.695  -1.905   7.601  0.0156  0.3812  0.1172
  940MOL0     C23988   1.576  -1.805   7.611 -0.8841  0.3716  0.7719
  940MOL0     C23989   1.442  -1.863   7.592 -0.5860 -0.6854  0.1319
  940MOL0     C23990   1.418  -1.982   7.679  0.1799  0.4865 -0.3070
  940MOL0     C23991   1.265  -2.012   7.682  0.3546 -0.4789 -0.6431
  940MOL0    Cl23992   1.194  -1.878   7.786 -0.5676  0.3447 -0.0370
  940MOL0     C23993   2.104  -1.425   7.541  1.0247 -0.3280  0.2185
  940MOL0     C23994   2.204  -1.328   7.540  0.1605  0.9726  0.6560
  940MOL0     O23995   2.559  -1.439   7.497 -0.4087  0.5902  0.0495
  940MOL0     C23996   2.782  -1.248   7.497  0.1630  0.1461  0.0674
  940MOL0     C23997   2.891  -1.166   7.473  0.2134 -0.4688  0.8699
  940MOL0     N23998   3.430  -0.649   7.619 -0.1916 -0.0857  0.3779
  940MOL0     N23999   3.455  -0.518   7.619 -0.0088  0.0428  0.1620
  940MOL0     C24000   4.513  -0.081   7.660 -0.3562 -0.0206 -0.5553
  940MOL0     C24001   4.641  -0.048   7.646  0.4088  0.2671 -0.3619
  940MOL0     C24002   5.063  -0.011   7.506 -0.2260 -0.9148 -0.5706
  940MOL0     C24003   5.122   0.098   7.448 -0.6458  0.1212  0.3975
  940MOL0     C24004   5.261   0.121   7.445  0.5329  0.1310  0.3242
  940MOL0     C24005   5.339   0.018   7.504  0.6171 -0.7665 -0.4731
  940MOL0     O24006   5.471   0.048   7.503  0.3683  0.2599  0.2649
  940MOL0     C24007   5.553  -0.070   7.522  0.4048  0.8574  0.0333
  940MOL0     C24008   5.703  -0.070   7.481 -0.6531 -0.7178  0.0020
  940MOL0     C24009   5.793   0.028   7.557 -0.0317 -0.0818 -0.2915
  940MOL0     C24010   5.814  -0.028   7.707  0.3399 -0.0584  0.3487
  940MOL0     C24011   5.910  -0.138   7.701  1.4858  0.4100  0.2319
  940MOL0     C24012   5.982  -0.235   7.673  0.5192 -0.3287 -0.3997
  940MOL0     C24013   5.287  -0.103   7.556 -0.8361 -0.1325 -0.0245
  940MOL0     C24014   5.149  -0.119   7.559 -0.1742 -0.3714  0.5817
  940MOL0     H24015   4.771  -0.357   7.620 -0.0512  0.0486  2.4992
  940MOL0     H24016   4.532  -0.420   7.656 -0.1990  0.4802 -0.0268
  940MOL0     H24017   4.257  -0.107   7.565  1.1853 -1.2326 -1.1622
  940MOL0     H24018   4.255  -0.095   7.748  3.1610  2.8965 -2.7177
  940MOL0     H24019   4.092  -0.275   7.753  1.5577 -0.7963  1.1295
  940MOL0     H24020   4.090  -0.299   7.582  1.7373  0.1997 -0.4833
  940MOL0     H24021   4.016  -0.054   7.567  0.7859  3.3731  1.8356
  940MOL0     H24022   4.021  -0.041   7.738  1.4893  1.1247 -1.3324
  940MOL0     H24023   3.856  -0.261   7.723 -0.1032  0.0776 -1.2600
  940MOL0     H24024   3.806  -0.098   7.741 -3.7419 -0.3155 -1.7996
  940MOL0     H24025   3.858  -0.230   7.460  0.0018 -0.4035 -0.3320
  940MOL0     H24026   3.777  -0.079   7.486  1.4439 -0.5701 -1.8265
  940MOL0     H24027   3.590  -0.192   7.603  0.7710  0.5518  0.3383
  940MOL0     H24028   3.689  -0.341   7.611  0.6615  0.9579  1.4695
  940MOL0     H24029   3.630  -0.221   7.339  0.2325 -0.3501  0.2224
  940MOL0     H24030   3.664  -0.382   7.379  1.5598  0.5448 -1.1051
  940MOL0     H24031   3.421  -0.347   7.329  3.1981  1.6056 -1.2545
  940MOL0     H24032   3.419  -0.271   7.494 -0.5209  0.2721  0.0715
  940MOL0     H24033   3.377  -0.585   7.308 -1.3012  0.8327 -0.9607
  940MOL0     H24034   3.333  -0.897   7.535  0.3033 -3.6220 -2.0145
  940MOL0     H24035   3.445  -0.882   7.406  3.0356  3.5632  1.3077
  940MOL0     H24036   3.221  -0.935   7.344 -1.3302 -0.0077  1.1159
  940MOL0     H24037   3.262  -0.777   7.261 -0.3324  2.2230 -0.0015
  940MOL0     H24038   3.110  -0.748   7.526 -1.3948 -4.6014  0.6321
  940MOL0     H24039   3.104  -0.656   7.379 -0.4341 -0.0009  0.3465
  940MOL0     H24040   2.967  -0.824   7.257  1.6215 -1.2627 -1.0724
  940MOL0     H24041   2.897  -0.782   7.411  1.3135  1.2853  0.9069
  940MOL0     H24042   2.721  -0.914   7.331 -1.6737  0.4146  3.0367
  940MOL0     H24043   2.527  -1.064   7.376 -0.0570  0.3488  2.2393
  940MOL0     H24044   2.395  -1.475   7.286  1.3874  2.4521  0.5927
  940MOL0     H24045   2.193  -1.626   7.282 -0.6738 -0.7932  2.3509
  940MOL0     H24046   2.047  -1.788   7.382  0.6217  0.1028 -1.9743
  940MOL0     H24047   1.966  -1.678   7.274 -2.3208 -0.6605 -0.1848
  940MOL0     H24048   1.789  -1.855   7.346  0.6544  0.1566  0.2584
  940MOL0     H24049   1.753  -1.693   7.396 -2.7604 -1.4490  0.5624
  940MOL0     H24050   1.841  -1.762   7.635 -1.7353 -0.7500  0.3858
  940MOL0     H24051   1.911  -1.903   7.582  0.2893  1.0271  1.4177
  940MOL0     H24052   1.679  -1.983   7.526  0.2883 -0.6714  1.1251
  940MOL0     H24053   1.697  -1.949   7.701 -0.0442  1.5634  0.6515
  940MOL0     H24054   1.588  -1.726   7.537  0.9872 -0.4242  0.1627
  940MOL0     H24055   1.590  -1.758   7.709  3.5581  0.5867  0.2438
  940MOL0     H24056   1.434  -1.893   7.488 -1.2677  0.2808 -0.1088
  940MOL0     H24057   1.368  -1.787   7.621  1.3886  1.3154  0.2226
  940MOL0     H24058   1.473  -2.069   7.641  2.8255  1.2268  1.4862
  940MOL0     H24059   1.451  -1.972   7.782 -1.5666  1.2626  0.2157
  940MOL0     H24060   1.244  -2.113   7.718  0.6088 -0.3756 -0.2045
  940MOL0     H24061   1.226  -2.008   7.579  0.2923 -2.6479 -0.7442
  940MOL0     H24062   2.021  -1.400   7.606 -1.0059 -0.9957 -1.9723
  940MOL0     H24063   2.217  -1.236   7.596  4.3384  0.7898  0.3376
  940MOL0     H24064   2.802  -1.335   7.560  1.0139  1.5163  1.7948
  940MOL0     H24065   2.987  -1.189   7.519  0.5505  0.5026  0.6820
  940MOL0     H24066   4.443   0.002   7.659  0.8789  1.0461 -1.4243
  940MOL0     H24067   4.659   0.059   7.655 -2.6879  0.7345  1.8423
  940MOL0     H24068   5.055   0.174   7.410  0.1065 -0.0951 -1.4586
  940MOL0     H24069   5.300   0.209   7.396  0.3485  0.8660  1.4453
  940MOL0     H24070   5.512  -0.153   7.463  0.0166  2.4902 -2.1347
  940MOL0     H24071   5.556  -0.109   7.624 -0.4907 -1.4984 -0.7841
  940MOL0     H24072   5.744  -0.168   7.506  0.3739 -0.4940 -0.7566
  940MOL0     H24073   5.715  -0.048   7.375  0.2488 -0.4298  0.1501
  940MOL0     H24074   5.748   0.127   7.543 -1.3712 -0.3078  2.0717
  940MOL0     H24075   5.894   0.024   7.515  0.5993  1.0886  1.0236
  940MOL0     H24076   5.865   0.056   7.755 -0.5791  1.4960 -1.3257
  940MOL0     H24077   5.721  -0.050   7.760  1.0829 -0.5300  1.4944
  940MOL0     H24078   6.038  -0.326   7.659  2.4172  0.6487  0.5180
  940MOL0     H24079   5.346  -0.181   7.604 -0.6228  0.1451  0.1703
  940MOL0     H24080   5.113  -0.216   7.594  1.6855 -1.0526  0.7133
  941MOL0     O24081   1.972   5.499   2.663 -0.3042 -0.6909 -0.1982
  941MOL0     C24082   1.929   5.593   2.587  0.5876  0.1372 -0.4560
  941MOL0     O24083   1.804   5.619   2.548  0.6933 -0.7797 -0.4780
  941MOL0     C24084   1.703   5.528   2.577  0.5232  0.1490 -0.0535
  941MOL0     C24085   1.719   5.386   2.574 -0.4372  0.2565  1.1452
  941MOL0     C24086   1.606   5.303   2.602 -0.0863 -0.2405 -0.1113
  941MOL0     C24087   1.476   5.357   2.626  0.3878 -0.1147 -0.2178
  941MOL0     O24088   1.372   5.257   2.629  0.1580  0.8250 -0.4481
  941MOL0     C24089   1.237   5.297   2.613 -0.5103 -0.1124  0.2083
  941MOL0     C24090   1.138   5.182   2.636 -0.5284  1.3404  0.5820
  941MOL0     C24091   1.123   5.149   2.783 -0.6759  0.4858  0.2492
  941MOL0     C24092   1.046   5.029   2.821 -0.0519  0.4354  0.2194
  941MOL0     C24093   0.899   5.023   2.790 -0.3712 -0.2777 -0.2579
  941MOL0     C24094   0.816   5.123   2.876 -0.3913 -1.3057 -0.1445
  941MOL0     C24095   0.668   5.111   2.856  0.1472 -0.3463 -0.1097
  941MOL0     C24096   0.611   5.137   2.714 -0.3752 -0.3760 -0.3008
  941MOL0     N24097   0.642   5.283   2.684  0.7186  0.2877 -0.2938
  941MOL0     C24098   0.690   5.334   2.567 -0.3114  0.2492 -0.9934
  941MOL0     C24099   0.682   5.464   2.589  0.0543 -0.6958  0.4080
  941MOL0     C24100   0.692   5.584   2.488  0.3203  0.1962  0.9121
  941MOL0     C24101   0.803   5.562   2.389  0.2020  0.6669  0.7134
  941MOL0     C24102   0.949   5.589   2.433  0.1239  0.3711 -0.1827
  941MOL0     C24103   1.039   5.559   2.318 -0.1772  0.1618  0.0185
  941MOL0     O24104   1.166   5.615   2.361 -0.4369 -0.3821 -0.4387
  941MOL0     C24105   1.271   5.580   2.281  0.5862 -0.2867  0.4370
  941MOL0     C24106   1.275   5.494   2.175  0.1534  0.1089  0.6026
  941MOL0     C24107   1.391   5.486   2.094  0.0236  0.3752 -0.1840
  941MOL0     C24108   1.509   5.542   2.134  0.4836 -0.0751  1.0141
  941MOL0     C24109   1.639   5.517   2.056  0.5346 -0.4569  0.4423
  941MOL0     O24110   1.749   5.553   2.119 -0.1284 -0.2985 -0.3385
  941MOL0     C24111   1.860   5.597   2.050 -0.3599  0.0516  0.0627
  941MOL0     C24112   1.984   5.592   2.113 -0.9163 -0.6375 -0.2948
  941MOL0     C24113   2.113   5.642   2.060  0.1999  0.8959 -0.3938
  941MOL0     C24114   2.111   5.693   1.930  0.6702 -0.4027 -0.2796
  941MOL0     O24115   2.219   5.730   1.852 -0.1058 -0.2853 -0.6471
  941MOL0     C24116   2.341   5.719   1.921  0.3646  0.0284  0.2652
  941MOL0     C24117   2.442   5.780   1.832 -0.5835  0.6999  1.2984
  941MOL0     C24118   2.444   5.720   1.689  0.4748 -0.8585 -0.8282
  941MOL0     C24119   2.453   5.567   1.693 -0.3852 -0.9754 -0.8152
  941MOL0     C24120   2.461   5.505   1.548 -0.5074 -0.0799 -0.2781
  941MOL0     C24121   2.544   5.373   1.528  0.4585  0.1894 -0.6314
  941MOL0     C24122   2.471   5.263   1.597 -0.1298  0.1659  0.1178
  941MOL0     C24123   2.549   5.132   1.605 -0.0642 -0.2843  0.7584
  941MOL0    Cl24124   2.517   5.040   1.458 -0.1020  0.1897 -0.0145
  941MOL0     C24125   1.988   5.696   1.864 -1.0087 -0.1429 -0.1823
  941MOL0     C24126   1.870   5.662   1.927  0.2084 -0.9395 -0.5180
  941MOL0     O24127   1.639   5.465   1.945  0.2343 -0.2855  0.2571
  941MOL0     C24128   1.499   5.630   2.243 -0.6696  0.6232  0.6899
  941MOL0     C24129   1.384   5.646   2.315 -0.1488  0.1280  0.4013
  941MOL0     N24130   0.630   5.489   2.711 -0.2620  0.4833  0.5029
  941MOL0     N24131   0.594   5.382   2.768  0.1246 -0.1186  0.2202
  941MOL0     C24132   1.462   5.495   2.623 -0.3278  0.4854 -0.0557
  941MOL0     C24133   1.572   5.571   2.598 -0.4649  0.2442  0.0461
  941MOL0     C24134   2.024   5.675   2.513 -0.2492  0.1676  1.0107
  941MOL0     C24135   1.980   5.744   2.399  0.3769 -0.7505  0.4902
  941MOL0     C24136   2.077   5.817   2.326  0.3839 -0.5529  0.2854
  941MOL0     C24137   2.217   5.804   2.342  0.7000 -0.2327 -0.3453
  941MOL0     O24138   2.301   5.860   2.256 -0.0462 -0.2519 -0.2513
  941MOL0     C24139   2.428   5.914   2.301 -1.0536  0.1698  0.4406
  941MOL0     C24140   2.411   6.043   2.378 -0.1828 -0.4348  0.1635
  941MOL0     C24141   2.541   6.101   2.418  0.1787 -0.2375 -0.3994
  941MOL0     C24142   2.551   6.126   2.567  0.2237  0.1712  0.0743
  941MOL0     C24143   2.524   6.014   2.662  0.1846  0.0476 -0.2218
  941MOL0     C24144   2.514   5.905   2.724 -0.0396  0.2240  0.1899
  941MOL0     C24145   2.256   5.734   2.450 -0.6477 -0.3980 -0.8624
  941MOL0     C24146   2.160   5.674   2.534  0.4904 -0.1828 -1.2404
  941MOL0     H24147   1.806   5.342   2.528 -0.4676  1.7165 -0.4040
  941MOL0     H24148   1.617   5.195   2.605  0.0110 -0.2111  1.8012
  941MOL0     H24149   1.223   5.344   2.515 -0.1204  2.8679  1.4719
  941MOL0     H24150   1.213   5.378   2.683  0.2504  0.5826 -0.3058
  941MOL0     H24151   1.171   5.091   2.585  1.5606  0.1502  3.7616
  941MOL0     H24152   1.039   5.209   2.597 -0.6615 -3.5351 -3.5659
  941MOL0     H24153   1.073   5.230   2.836 -1.6251 -0.7572  1.3226
  941MOL0     H24154   1.223   5.132   2.822 -0.8887 -0.8826  0.2494
  941MOL0     H24155   1.085   4.941   2.768  1.0589  0.2171  1.3326
  941MOL0     H24156   1.065   5.002   2.925  3.6940 -2.0895 -0.9014
  941MOL0     H24157   0.866   4.922   2.813  3.3626 -2.0205 -1.6494
  941MOL0     H24158   0.886   5.044   2.684  1.3486  0.1348 -0.4321
  941MOL0     H24159   0.847   5.224   2.848 -2.8560 -0.0105  1.4429
  941MOL0     H24160   0.844   5.106   2.981 -0.1383  2.1252  0.4574
  941MOL0     H24161   0.646   5.008   2.885 -1.0162 -0.1139 -0.1261
  941MOL0     H24162   0.631   5.180   2.933 -1.7195  0.0052 -1.2725
  941MOL0     H24163   0.502   5.122   2.716 -1.0447  2.1416 -4.3876
  941MOL0     H24164   0.651   5.071   2.637  1.2673 -1.7404  1.6346
  941MOL0     H24165   0.697   5.272   2.478 -2.0761 -1.1636 -0.2270
  941MOL0     H24166   0.712   5.676   2.544 -2.2029  1.4595 -0.1205
  941MOL0     H24167   0.593   5.598   2.443  0.3400 -0.5449  0.6124
  941MOL0     H24168   0.776   5.622   2.302  0.9783  3.4242  2.2405
  941MOL0     H24169   0.787   5.459   2.356  0.4695  0.8897 -0.1274
  941MOL0     H24170   0.947   5.695   2.460 -2.0405  0.6361 -1.1447
  941MOL0     H24171   0.971   5.520   2.515  0.3728  0.8552  0.1604
  941MOL0     H24172   1.001   5.594   2.222 -1.2915 -0.7419  0.1101
  941MOL0     H24173   1.040   5.450   2.306 -0.0135  0.3164 -1.7339
  941MOL0     H24174   1.187   5.439   2.143 -0.7083  0.9520  1.4389
  941MOL0     H24175   1.388   5.425   2.005 -2.1350  0.9856 -0.5947
  941MOL0     H24176   1.996   5.542   2.208  2.0776 -1.6000 -1.0720
  941MOL0     H24177   2.200   5.630   2.124 -0.7220 -1.3350  0.5423
  941MOL0     H24178   2.373   5.620   1.953 -1.4157 -0.5143  0.4585
  941MOL0     H24179   2.356   5.785   2.007  3.6714 -0.5377  0.2619
  941MOL0     H24180   2.538   5.763   1.881 -1.0414  1.0129  2.3319
  941MOL0     H24181   2.413   5.885   1.818 -3.0942 -0.0498  0.2447
  941MOL0     H24182   2.532   5.757   1.635 -0.2230 -0.5376 -1.7646
  941MOL0     H24183   2.353   5.753   1.639 -0.9799  2.8989  3.5821
  941MOL0     H24184   2.538   5.533   1.752 -2.4494  0.4570  3.3882
  941MOL0     H24185   2.372   5.526   1.754 -1.4487 -2.5429 -3.1499
  941MOL0     H24186   2.508   5.587   1.493  0.8304  0.6374  1.8247
  941MOL0     H24187   2.364   5.491   1.499 -1.4430 -1.4585  1.8420
  941MOL0     H24188   2.646   5.391   1.563  1.3581 -2.0321 -1.9097
  941MOL0     H24189   2.556   5.351   1.421  4.1330  0.4065 -0.3690
  941MOL0     H24190   2.436   5.295   1.696 -0.4994 -0.3120  0.1483
  941MOL0     H24191   2.373   5.251   1.549 -2.6585  0.6783  4.5449
  941MOL0     H24192   2.504   5.071   1.683  0.5866 -0.8432  0.7058
  941MOL0     H24193   2.657   5.147   1.608  0.1613 -1.8005  4.1959
  941MOL0     H24194   1.972   5.736   1.764 -1.8813 -0.1031 -0.0323
  941MOL0     H24195   1.779   5.674   1.869 -0.3838  2.6906  0.8865
  941MOL0     H24196   1.580   5.690   2.283 -0.4304  1.4873 -0.9874
  941MOL0     H24197   1.396   5.708   2.404 -0.2486 -1.2307  1.3899
  941MOL0     H24198   1.363   5.538   2.629 -0.5930 -0.3376  2.0821
  941MOL0     H24199   1.556   5.679   2.594 -0.5120  0.2457  0.2562
  941MOL0     H24200   1.877   5.757   2.367  0.6534  1.1103  0.2851
  941MOL0     H24201   2.044   5.886   2.250 -1.7349  1.0503  2.5113
  941MOL0     H24202   2.481   5.932   2.207 -1.4383  2.3843  0.5970
  941MOL0     H24203   2.480   5.841   2.365 -0.8208 -0.1950 -0.1512
  941MOL0     H24204   2.361   6.132   2.339  0.9423  1.3732  2.5992
  941MOL0     H24205   2.357   6.020   2.471  3.1739  1.9794  2.9755
  941MOL0     H24206   2.559   6.197   2.368 -1.5844  0.3375 -0.0252
  941MOL0     H24207   2.627   6.038   2.397  0.2019 -0.1708 -0.5007
  941MOL0     H24208   2.657   6.149   2.579  1.0095  0.9844 -5.6738
  941MOL0     H24209   2.497   6.215   2.603  1.3262  1.4863 -1.4008
  941MOL0     H24210   2.504   5.804   2.758 -1.1148  0.3492  0.2736
  941MOL0     H24211   2.361   5.721   2.475 -0.8103 -2.0295 -0.9549
  941MOL0     H24212   2.209   5.619   2.615  0.7658  1.5563 -0.1566
  942MOL0     O24213   7.071  10.854   0.925 -0.2570 -0.0832 -0.1077
  942MOL0     C24214   7.131  10.745   0.916  0.2713  0.1483 -0.3703
  942MOL0     O24215   7.106  10.634   0.992  0.3546 -0.9077 -0.0030
  942MOL0     C24216   7.011  10.637   1.092  0.0909  0.3427 -0.4317
  942MOL0     C24217   6.881  10.679   1.065 -1.3349 -0.2282 -0.0957
  942MOL0     C24218   6.786  10.664   1.164  0.4734  0.3433  0.0675
  942MOL0     C24219   6.819  10.607   1.287 -0.1017 -0.0563  0.6017
  942MOL0     O24220   6.726  10.587   1.387  0.3944  0.0686 -0.1328
  942MOL0     C24221   6.595  10.656   1.383 -0.9406  0.1882  0.4196
  942MOL0     C24222   6.493  10.545   1.350 -0.7908 -0.7478 -0.1167
  942MOL0     C24223   6.497  10.486   1.210  0.2654 -0.1615  0.2043
  942MOL0     C24224   6.384  10.391   1.178 -0.4413 -0.3139  0.0274
  942MOL0     C24225   6.394  10.336   1.036 -0.4691  0.0767 -0.3564
  942MOL0     C24226   6.287  10.232   0.997  0.3152 -0.0878  0.1317
  942MOL0     C24227   6.270  10.113   1.093 -0.3391 -0.2008  0.0115
  942MOL0     C24228   6.169  10.026   1.016 -0.0269  0.3431 -0.7741
  942MOL0     N24229   6.037  10.073   1.030  0.3011  0.5211 -0.4397
  942MOL0     C24230   5.969  10.113   0.923  0.2242  0.3928  0.4077
  942MOL0     C24231   5.845  10.144   0.955 -0.8519  0.0983  0.3988
  942MOL0     C24232   5.726  10.159   0.870  0.4846  0.2359  0.1402
  942MOL0     C24233   5.655  10.023   0.865 -0.1394  0.4157 -0.8301
  942MOL0     C24234   5.556  10.015   0.751 -0.1151  0.5277 -0.8893
  942MOL0     C24235   5.438   9.917   0.763 -0.6154 -0.1125 -0.5058
  942MOL0     O24236   5.351   9.970   0.669  0.4870  0.0014  0.3162
  942MOL0     C24237   5.224   9.910   0.667  0.6519  0.7652 -0.6241
  942MOL0     C24238   5.201   9.802   0.585 -0.1002 -1.4026 -0.3540
  942MOL0     C24239   5.073   9.752   0.580 -0.1743  0.4963  0.0774
  942MOL0     C24240   4.966   9.798   0.660  0.7184  0.6807  0.8664
  942MOL0     C24241   4.833   9.722   0.667  0.5125 -0.2064  0.4314
  942MOL0     O24242   4.731   9.781   0.739 -0.1644 -0.3056  0.4676
  942MOL0     C24243   4.608   9.733   0.753 -0.1345 -0.2862  0.5232
  942MOL0     C24244   4.582   9.596   0.781  1.1849  0.0238  0.2236
  942MOL0     C24245   4.444   9.548   0.779  0.1668 -0.7572 -0.2236
  942MOL0     C24246   4.336   9.640   0.764  0.3008  0.8417 -0.0072
  942MOL0     O24247   4.212   9.580   0.752  0.3378 -0.1800  0.5499
  942MOL0     C24248   4.102   9.652   0.815 -0.3232  0.3517  0.5795
  942MOL0     C24249   3.990   9.637   0.714  0.8469  0.4100 -0.2422
  942MOL0     C24250   4.024   9.714   0.585  0.9237 -0.1231  0.6047
  942MOL0     C24251   3.904   9.700   0.490  0.0070  0.0949  0.7956
  942MOL0     C24252   3.925   9.733   0.345 -0.3755  0.5753 -0.9942
  942MOL0     C24253   3.811   9.686   0.269 -0.0724  0.6105 -0.1940
  942MOL0     C24254   3.851   9.690   0.119  0.0324 -0.0663 -0.1312
  942MOL0     C24255   3.720   9.675   0.034 -0.1319 -0.2705 -0.7192
  942MOL0    Cl24256   3.666   9.506   0.049  0.2097  0.4051 -0.0291
  942MOL0     C24257   4.360   9.772   0.746  0.3783  0.7211  0.5179
  942MOL0     C24258   4.493   9.821   0.734  0.2799 -0.1102 -0.1328
  942MOL0     O24259   4.811   9.639   0.582 -0.2072  0.0983  0.1946
  942MOL0     C24260   4.987   9.914   0.741  0.1721 -0.3920 -0.3251
  942MOL0     C24261   5.117   9.968   0.744 -0.6810 -0.0774 -0.8973
  942MOL0     N24262   5.835  10.125   1.093  0.5010  0.4823  0.0109
  942MOL0     N24263   5.955  10.082   1.140 -0.3006  0.2410  0.2236
  942MOL0     C24264   6.949  10.562   1.313 -1.1085 -0.8048 -1.1038
  942MOL0     C24265   7.042  10.575   1.214  0.2956  0.0970 -0.4690
  942MOL0     C24266   7.250  10.734   0.829  0.3347  0.3499  0.3559
  942MOL0     C24267   7.316  10.612   0.802  0.1362  0.1744 -0.2693
  942MOL0     C24268   7.431  10.612   0.722 -0.8766  1.1765 -1.0093
  942MOL0     C24269   7.489  10.726   0.673  0.6666  0.1518  0.2752
  942MOL0     O24270   7.602  10.740   0.594  0.1588 -0.0382 -0.0605
  942MOL0     C24271   7.698  10.640   0.586 -0.2583 -0.0479 -0.4244
  942MOL0     C24272   7.761  10.604   0.721  0.0327  0.9020 -0.4912
  942MOL0     C24273   7.820  10.717   0.801 -0.1250  0.1783  0.5859
  942MOL0     C24274   7.935  10.679   0.904  0.6484 -0.4856 -0.2309
  942MOL0     C24275   7.974  10.796   0.980  0.5687  0.0808 -0.3853
  942MOL0     C24276   8.013  10.895   1.035  0.1555 -0.5194 -0.4410
  942MOL0     C24277   7.422  10.844   0.694 -0.4853  1.1546  0.2375
  942MOL0     C24278   7.308  10.849   0.770 -0.1847 -0.6036 -0.3099
  942MOL0     H24279   6.845  10.728   0.974 -0.2020 -0.8891 -0.9252
  942MOL0     H24280   6.688  10.700   1.136  0.9982 -0.0588 -2.5494
  942MOL0     H24281   6.601  10.738   1.311  0.1871  2.8345  3.3015
  942MOL0     H24282   6.572  10.694   1.483  2.2023 -1.9901  2.1363
  942MOL0     H24283   6.392  10.582   1.374  0.9425  3.6670  1.3323
  942MOL0     H24284   6.512  10.470   1.428  1.3091  2.8689  3.2087
  942MOL0     H24285   6.595  10.441   1.192 -0.2299 -0.5074 -1.8823
  942MOL0     H24286   6.496  10.555   1.125  1.5567 -2.2167 -1.6214
  942MOL0     H24287   6.384  10.310   1.251 -1.8325  0.7640  1.2922
  942MOL0     H24288   6.288  10.442   1.194 -0.6477 -0.7361  0.1377
  942MOL0     H24289   6.492  10.288   1.033 -1.4903 -2.2465  0.8728
  942MOL0     H24290   6.394  10.421   0.967 -0.4109  2.5699  2.5087
  942MOL0     H24291   6.310  10.206   0.894  0.7288  2.3985 -0.4858
  942MOL0     H24292   6.190  10.280   1.008  0.6021  0.4575  0.3334
  942MOL0     H24293   6.367  10.070   1.119 -0.5769 -1.3346 -0.9000
  942MOL0     H24294   6.224  10.152   1.184  1.7307 -2.1219  1.9755
  942MOL0     H24295   6.177   9.924   1.054 -0.0614  0.2923 -0.9017
  942MOL0     H24296   6.190  10.015   0.909 -0.5777 -3.8654 -0.6154
  942MOL0     H24297   6.000  10.093   0.821  3.3326 -3.8370  1.8517
  942MOL0     H24298   5.747  10.187   0.766 -1.7404 -0.5570 -0.5804
  942MOL0     H24299   5.655  10.236   0.903  1.5842  1.5484 -0.4531
  942MOL0     H24300   5.609  10.005   0.963  1.9102  0.1204  0.1324
  942MOL0     H24301   5.733   9.950   0.841 -0.0519 -0.4433  1.7989
  942MOL0     H24302   5.517  10.118   0.750 -1.1325  0.4709  4.3706
  942MOL0     H24303   5.609   9.990   0.658  1.3065 -1.6575  0.4315
  942MOL0     H24304   5.396   9.908   0.864  0.6116 -1.6079 -0.0855
  942MOL0     H24305   5.478   9.821   0.728  1.4941  0.2226  0.8099
  942MOL0     H24306   5.284   9.768   0.525  0.7180 -2.7158  1.4593
  942MOL0     H24307   5.062   9.669   0.511 -0.1542 -0.9519  1.7384
  942MOL0     H24308   4.658   9.519   0.782  1.7854  0.4287 -2.8588
  942MOL0     H24309   4.407   9.446   0.778 -1.6922 -0.1624  1.1225
  942MOL0     H24310   4.124   9.758   0.829 -1.1078  0.2525  2.8503
  942MOL0     H24311   4.080   9.604   0.910 -1.3909 -1.4024 -0.4974
  942MOL0     H24312   3.894   9.679   0.744  1.6884  1.3564  1.2367
  942MOL0     H24313   3.973   9.530   0.699 -0.3929  0.6850 -0.9393
  942MOL0     H24314   4.115   9.674   0.541  0.3754 -1.2197  0.4435
  942MOL0     H24315   4.036   9.818   0.619 -0.6072 -0.4676  2.3217
  942MOL0     H24316   3.875   9.595   0.496 -0.0744 -0.1745 -2.4021
  942MOL0     H24317   3.824   9.765   0.527 -1.4306 -0.9720 -0.3163
  942MOL0     H24318   4.011   9.682   0.303  1.2686  1.5810  0.9759
  942MOL0     H24319   3.930   9.842   0.336 -0.0750  0.5740 -0.8464
  942MOL0     H24320   3.724   9.750   0.288 -2.1594 -1.8773 -0.7849
  942MOL0     H24321   3.785   9.583   0.295 -0.1249  0.7315  0.2408
  942MOL0     H24322   3.902   9.784   0.093  1.4821 -0.8353 -0.2094
  942MOL0     H24323   3.928   9.615   0.098  0.6834  0.2197  1.1336
  942MOL0     H24324   3.752   9.692  -0.069  1.0724  0.3256 -0.2733
  942MOL0     H24325   3.641   9.745   0.062  0.4479 -0.0827  0.5199
  942MOL0     H24326   4.282   9.846   0.732 -0.5689  0.1155  2.3101
  942MOL0     H24327   4.520   9.925   0.722  2.4743 -0.3136  2.3027
  942MOL0     H24328   4.918   9.951   0.816  0.1765 -0.3830 -0.3261
  942MOL0     H24329   5.153  10.049   0.807  0.8944  0.2369 -2.1279
  942MOL0     H24330   6.974  10.517   1.408  1.2129 -0.3288 -1.4346
  942MOL0     H24331   7.144  10.542   1.227  0.7772  1.9647  0.9718
  942MOL0     H24332   7.270  10.521   0.840  1.5581 -0.0366  1.0708
  942MOL0     H24333   7.483  10.522   0.690 -0.6741  1.1667 -0.6601
  942MOL0     H24334   7.766  10.696   0.521  1.1750 -2.8023 -1.4837
  942MOL0     H24335   7.641  10.562   0.536  0.3188 -0.6733 -0.1233
  942MOL0     H24336   7.688  10.547   0.779 -0.1266  0.5721 -1.0070
  942MOL0     H24337   7.848  10.541   0.702  1.3408  1.3076  3.2272
  942MOL0     H24338   7.741  10.771   0.856  0.4765  1.7431 -0.0463
  942MOL0     H24339   7.861  10.797   0.739  0.1699  1.2564  2.1194
  942MOL0     H24340   7.890  10.600   0.965 -2.3324 -1.0227 -2.8138
  942MOL0     H24341   8.013  10.630   0.845 -0.2815 -1.7438 -0.4582
  942MOL0     H24342   8.055  10.991   1.059  0.9255 -0.7349 -0.8738
  942MOL0     H24343   7.460  10.938   0.655  0.3135  0.8607  0.2805
  942MOL0     H24344   7.260  10.945   0.789  1.0228  0.2199 -1.2166
  943MOL0     O24345   5.612   0.873   4.553 -0.1969 -0.3516 -0.7149
  943MOL0     C24346   5.612   0.810   4.660  0.0216 -0.4781  0.9676
  943MOL0     O24347   5.499   0.749   4.719  0.5317 -0.1421 -0.1589
  943MOL0     C24348   5.369   0.789   4.693  0.6666 -0.0274  0.2413
  943MOL0     C24349   5.290   0.849   4.795  0.1768 -0.5729 -0.1574
  943MOL0     C24350   5.170   0.904   4.763  0.6294 -0.0663  0.1904
  943MOL0     C24351   5.111   0.893   4.636  0.5388 -0.2472 -0.0638
  943MOL0     O24352   4.989   0.957   4.621  0.0673  0.3724  0.5793
  943MOL0     C24353   4.906   0.924   4.504 -0.3183 -0.2777  0.0303
  943MOL0     C24354   4.785   1.017   4.488 -0.1805 -0.0543 -0.1943
  943MOL0     C24355   4.684   0.990   4.377  0.1962 -0.1283 -0.6998
  943MOL0     C24356   4.577   0.879   4.397 -0.1061  0.3160  0.8415
  943MOL0     C24357   4.496   0.866   4.264  0.3856 -0.1893  0.9184
  943MOL0     C24358   4.380   0.768   4.278  0.5144 -0.0420  0.4853
  943MOL0     C24359   4.307   0.753   4.146 -0.0757 -0.1517  0.0519
  943MOL0     C24360   4.216   0.872   4.113 -0.7996  0.0633  0.8829
  943MOL0     N24361   4.128   0.922   4.226 -0.4069  0.0513 -0.1912
  943MOL0     C24362   4.017   0.859   4.277  0.1638  0.4349  0.0103
  943MOL0     C24363   3.981   0.927   4.386 -0.5061  0.4847  0.6014
  943MOL0     C24364   3.861   0.909   4.471  0.4150 -0.3776  0.5299
  943MOL0     C24365   3.873   0.808   4.581 -0.0253 -0.3379 -0.1538
  943MOL0     C24366   3.969   0.832   4.691 -0.2842 -0.0602 -0.5071
  943MOL0     C24367   4.109   0.772   4.659 -0.6234 -0.4930  0.0689
  943MOL0     O24368   4.211   0.827   4.738  0.6578  0.3699  0.5133
  943MOL0     C24369   4.332   0.767   4.739  0.0474  0.2760 -0.0841
  943MOL0     C24370   4.423   0.810   4.836 -0.0625 -0.3346  0.5892
  943MOL0     C24371   4.558   0.753   4.836 -0.0988 -0.6274  0.2506
  943MOL0     C24372   4.599   0.656   4.739  0.9509 -0.3532  0.8600
  943MOL0     C24373   4.731   0.595   4.746 -0.0894  0.5408  0.6056
  943MOL0     O24374   4.797   0.613   4.862 -0.1008  0.4045  0.0545
  943MOL0     C24375   4.925   0.565   4.877  0.9620  0.8067 -0.1818
  943MOL0     C24376   5.028   0.602   4.798  0.5718  0.5516 -1.0804
  943MOL0     C24377   5.156   0.552   4.827  0.8061  0.1156  0.2620
  943MOL0     C24378   5.188   0.465   4.934  0.2655  0.6538 -0.0300
  943MOL0     O24379   5.308   0.406   4.970  0.9109 -1.1242 -0.3140
  943MOL0     C24380   5.409   0.462   4.893 -0.3328 -0.1801  0.1040
  943MOL0     C24381   5.533   0.378   4.915  0.2491  0.3838 -0.5753
  943MOL0     C24382   5.604   0.400   5.049 -0.7181  0.4371  0.0999
  943MOL0     C24383   5.710   0.285   5.062  0.5505  0.0859 -0.0375
  943MOL0     C24384   5.844   0.351   5.113  0.0984  1.1674 -0.2385
  943MOL0     C24385   5.957   0.242   5.106  0.3709 -0.8146  0.2140
  943MOL0     C24386   6.098   0.302   5.136  0.1976 -0.5772  0.4072
  943MOL0     C24387   6.142   0.403   5.029 -0.4225 -0.7664  0.3861
  943MOL0    Cl24388   6.153   0.318   4.869  0.1635 -0.4603  0.2237
  943MOL0     C24389   5.079   0.441   5.022  0.1935  0.8066  0.9707
  943MOL0     C24390   4.950   0.484   4.993  0.6316  0.0510  1.0400
  943MOL0     O24391   4.772   0.527   4.650 -0.0654  0.1703 -0.5791
  943MOL0     C24392   4.504   0.627   4.639  0.1002 -0.8465 -0.3449
  943MOL0     C24393   4.374   0.678   4.638  0.7707  0.2282  0.0250
  943MOL0     N24394   4.060   1.039   4.397 -1.3048 -0.7769  0.8857
  943MOL0     N24395   4.145   1.042   4.295  0.9623  0.4162 -0.1387
  943MOL0     C24396   5.183   0.814   4.535  0.1153  0.4591  0.6671
  943MOL0     C24397   5.305   0.764   4.570  0.1437  1.0314 -0.5314
  943MOL0     C24398   5.743   0.787   4.715 -0.3956  0.0421  0.5709
  943MOL0     C24399   5.748   0.735   4.842 -0.2723 -0.2666  0.9652
  943MOL0     C24400   5.872   0.724   4.917  0.5955  0.2196 -0.5590
  943MOL0     C24401   5.984   0.778   4.857  0.0753 -0.4362 -0.1232
  943MOL0     O24402   6.099   0.765   4.931  0.0641 -0.5129 -0.6104
  943MOL0     C24403   6.168   0.891   4.954  0.3547  0.2107  0.7761
  943MOL0     C24404   6.294   0.870   5.033  0.3904  0.0499 -0.2358
  943MOL0     C24405   6.386   0.767   4.965 -0.3018  0.3755 -0.5011
  943MOL0     C24406   6.529   0.763   5.022  0.5869  0.5098  0.1631
  943MOL0     C24407   6.610   0.669   4.947 -0.4750 -0.6121 -0.6039
  943MOL0     C24408   6.683   0.595   4.885  0.1169  0.3113 -0.3349
  943MOL0     C24409   5.985   0.825   4.722  0.7221 -0.5246  0.4940
  943MOL0     C24410   5.864   0.828   4.656  0.5119  0.5995 -0.1274
  943MOL0     H24411   5.339   0.849   4.892 -2.9974  1.0383  1.6229
  943MOL0     H24412   5.106   0.951   4.837  0.1510  2.3745 -1.6513
  943MOL0     H24413   4.867   0.823   4.514 -2.5664  0.6471  1.0768
  943MOL0     H24414   4.967   0.929   4.413  0.0222 -3.2350  0.0078
  943MOL0     H24415   4.837   1.109   4.461  0.1096 -0.0363  0.4143
  943MOL0     H24416   4.744   1.047   4.585 -0.2026  1.8013 -0.7285
  943MOL0     H24417   4.729   0.961   4.281 -0.1261 -0.1181 -0.8555
  943MOL0     H24418   4.625   1.081   4.366 -0.1802  0.0144  1.9043
  943MOL0     H24419   4.636   0.792   4.427  0.3611  0.4233  0.2557
  943MOL0     H24420   4.513   0.915   4.479 -2.4242  2.0727 -1.5653
  943MOL0     H24421   4.560   0.826   4.184 -0.6201 -1.5415  0.7571
  943MOL0     H24422   4.463   0.967   4.238 -2.5290 -1.5681 -1.3604
  943MOL0     H24423   4.314   0.811   4.355  1.5462 -1.4080  2.2060
  943MOL0     H24424   4.422   0.674   4.315  1.2430 -1.0337 -2.6012
  943MOL0     H24425   4.372   0.751   4.058 -0.0782  1.8983 -0.0415
  943MOL0     H24426   4.249   0.660   4.142 -1.2997  0.6062 -0.4250
  943MOL0     H24427   4.146   0.846   4.034 -0.0223 -1.1267  0.5485
  943MOL0     H24428   4.290   0.945   4.080  1.1669 -2.6365 -1.1503
  943MOL0     H24429   3.978   0.763   4.245 -0.8849  1.2385 -1.2389
  943MOL0     H24430   3.767   0.882   4.422  0.9228 -0.2763 -0.5194
  943MOL0     H24431   3.851   1.009   4.514  1.8059  1.0472 -2.2127
  943MOL0     H24432   3.894   0.708   4.541 -0.5641 -0.4658 -0.1297
  943MOL0     H24433   3.775   0.787   4.626 -0.3221 -3.0431 -1.8201
  943MOL0     H24434   3.971   0.941   4.704 -1.6590  0.2950 -2.7101
  943MOL0     H24435   3.930   0.788   4.783 -0.4409 -2.5887 -1.6935
  943MOL0     H24436   4.139   0.790   4.556  2.1522 -0.1102  0.8528
  943MOL0     H24437   4.108   0.665   4.684 -0.5841 -0.4175  0.4095
  943MOL0     H24438   4.395   0.879   4.914 -1.2001 -2.8381  2.5653
  943MOL0     H24439   4.629   0.789   4.910  0.6043 -1.3245 -0.0709
  943MOL0     H24440   5.008   0.669   4.715 -0.2573 -1.5590 -2.6798
  943MOL0     H24441   5.233   0.575   4.755  1.9808 -0.0701  1.4251
  943MOL0     H24442   5.420   0.568   4.918  0.9827  0.5260 -3.0014
  943MOL0     H24443   5.391   0.444   4.787 -1.3984  0.0064  0.2481
  943MOL0     H24444   5.601   0.385   4.829 -0.9587  0.5259 -1.5605
  943MOL0     H24445   5.503   0.273   4.916 -1.1055  0.7622  0.7255
  943MOL0     H24446   5.536   0.407   5.134 -3.4455 -1.2338 -1.7932
  943MOL0     H24447   5.657   0.495   5.048 -1.1290  0.6882 -1.8430
  943MOL0     H24448   5.661   0.215   5.129  0.3187  1.6916  1.5469
  943MOL0     H24449   5.734   0.234   4.968  2.7466  0.1255  0.4713
  943MOL0     H24450   5.841   0.392   5.214  1.8554  2.5785 -0.7047
  943MOL0     H24451   5.875   0.425   5.039  1.5933  1.2021  0.3945
  943MOL0     H24452   5.955   0.191   5.009  2.3883 -1.4452  0.4549
  943MOL0     H24453   5.938   0.151   5.164 -1.2094 -1.5024 -1.2845
  943MOL0     H24454   6.087   0.347   5.236 -0.9598 -0.9907  0.4908
  943MOL0     H24455   6.171   0.222   5.133  0.2095 -0.5224 -1.7865
  943MOL0     H24456   6.245   0.428   5.055 -0.6574  0.2205  0.4191
  943MOL0     H24457   6.083   0.495   5.022 -1.8501 -1.6077  0.8791
  943MOL0     H24458   5.088   0.384   5.114 -1.4570  0.1502  0.7646
  943MOL0     H24459   4.862   0.465   5.054  0.0751 -0.2925  0.1417
  943MOL0     H24460   4.516   0.557   4.557 -0.8213  1.2145 -2.3696
  943MOL0     H24461   4.294   0.655   4.569 -0.4732  1.1202  1.1153
  943MOL0     H24462   5.133   0.790   4.441  2.0566 -0.8383 -0.1026
  943MOL0     H24463   5.354   0.692   4.505 -0.4458 -1.2846  1.4544
  943MOL0     H24464   5.654   0.696   4.881 -1.2530 -1.0872 -1.9843
  943MOL0     H24465   5.894   0.685   5.016 -1.3031 -1.8647 -0.8752
  943MOL0     H24466   6.103   0.968   4.998 -2.7383  0.5545 -3.7346
  943MOL0     H24467   6.211   0.934   4.862  3.2776  1.5777  2.6222
  943MOL0     H24468   6.347   0.966   5.033  2.0192 -0.7936 -1.9567
  943MOL0     H24469   6.276   0.838   5.136  1.1751  0.3857  0.0095
  943MOL0     H24470   6.397   0.796   4.861 -0.9808  0.6130 -0.5164
  943MOL0     H24471   6.339   0.668   4.962 -3.7029  1.7862  0.8247
  943MOL0     H24472   6.569   0.865   5.017 -1.4936  1.5501  2.8830
  943MOL0     H24473   6.529   0.731   5.126 -0.0032 -0.5495 -0.1432
  943MOL0     H24474   6.742   0.534   4.820  3.7339 -0.0735  2.9534
  943MOL0     H24475   6.079   0.850   4.674  1.3247 -1.2818  1.2498
  943MOL0     H24476   5.868   0.872   4.557  3.9186  0.6108 -0.0702
  944MOL0     O24477   4.221   4.963   7.950  0.0333 -0.1569  0.8484
  944MOL0     C24478   4.152   4.888   7.883 -0.2060 -0.3836  0.9208
  944MOL0     O24479   4.200   4.810   7.784  0.5510  0.4961  0.4949
  944MOL0     C24480   4.336   4.789   7.784  0.0998 -0.6139 -0.3639
  944MOL0     C24481   4.418   4.811   7.671  0.1229  0.0529  0.6458
  944MOL0     C24482   4.556   4.783   7.666  0.4055 -0.1436  0.1267
  944MOL0     C24483   4.621   4.737   7.781  0.3427 -0.1147  0.8212
  944MOL0     O24484   4.757   4.704   7.787 -0.5402 -0.0711 -0.3574
  944MOL0     C24485   4.840   4.704   7.674  0.3126  0.3839  0.1696
  944MOL0     C24486   4.979   4.670   7.722  0.2446 -0.2556 -0.4724
  944MOL0     C24487   5.079   4.681   7.615  0.0136  0.6031 -0.0204
  944MOL0     C24488   5.224   4.644   7.666  0.1977 -0.7944  0.3501
  944MOL0     C24489   5.332   4.685   7.560  0.1258  0.2938 -0.7267
  944MOL0     C24490   5.476   4.680   7.629 -0.2066 -0.8941 -0.1434
  944MOL0     C24491   5.589   4.711   7.536  0.1836  0.2207  0.0914
  944MOL0     C24492   5.660   4.591   7.467  0.7259 -0.2083  0.0454
  944MOL0     N24493   5.576   4.507   7.374  0.2676 -1.0566  0.6029
  944MOL0     C24494   5.480   4.553   7.283  0.4942 -0.9818  0.5729
  944MOL0     C24495   5.412   4.439   7.245 -0.4069 -0.1980 -0.8087
  944MOL0     C24496   5.317   4.430   7.134  0.0012 -0.3339 -0.6816
  944MOL0     C24497   5.176   4.466   7.174  0.5454  0.3786  0.0103
  944MOL0     C24498   5.094   4.450   7.048 -0.2931 -0.3780  0.7761
  944MOL0     C24499   4.943   4.475   7.066 -0.8200  0.7306 -0.3899
  944MOL0     O24500   4.887   4.363   7.135  0.5439 -0.1158 -0.1026
  944MOL0     C24501   4.747   4.350   7.154  0.0571  0.4981  0.2246
  944MOL0     C24502   4.697   4.244   7.226  0.3484  0.2212  0.8916
  944MOL0     C24503   4.566   4.221   7.242  0.3282  0.2002  0.2650
  944MOL0     C24504   4.467   4.308   7.188 -0.1472 -0.4847 -0.6146
  944MOL0     C24505   4.323   4.281   7.202  0.1419 -0.4995 -1.1191
  944MOL0     O24506   4.233   4.384   7.178  0.2540 -0.1147 -0.4772
  944MOL0     C24507   4.097   4.382   7.208 -0.1782 -0.2987  0.0149
  944MOL0     C24508   4.026   4.305   7.305  0.2012  0.8988  1.0643
  944MOL0     C24509   3.886   4.299   7.316  0.6333 -0.8815  0.3394
  944MOL0     C24510   3.808   4.372   7.224  0.8648  0.5835 -0.5163
  944MOL0     O24511   3.671   4.360   7.215  0.3150 -0.3688  0.4795
  944MOL0     C24512   3.599   4.330   7.332 -0.2546  0.6920  0.3996
  944MOL0     C24513   3.460   4.370   7.302  0.1128  0.2030 -0.9322
  944MOL0     C24514   3.370   4.299   7.404 -0.2172  1.2251 -0.3462
  944MOL0     C24515   3.235   4.358   7.435  0.2358  0.1247  0.4284
  944MOL0     C24516   3.168   4.285   7.547 -1.1526  0.7331  1.1572
  944MOL0     C24517   3.026   4.341   7.560 -0.3200 -0.0221 -0.1173
  944MOL0     C24518   2.952   4.275   7.675 -0.2684  0.3496 -0.0966
  944MOL0     C24519   2.800   4.306   7.655  0.3330  0.2017  0.6336
  944MOL0    Cl24520   2.766   4.476   7.608  0.0007  0.3820 -0.9888
  944MOL0     C24521   3.877   4.470   7.148  0.2789 -0.1382  1.4092
  944MOL0     C24522   4.013   4.464   7.130 -0.5996 -0.4161  0.0612
  944MOL0     O24523   4.290   4.174   7.240  0.1534 -0.1534 -0.1330
  944MOL0     C24524   4.518   4.421   7.119  0.4014  0.1574 -0.4811
  944MOL0     C24525   4.656   4.444   7.101 -0.5040 -0.5918 -0.6911
  944MOL0     N24526   5.466   4.339   7.322  0.7912  1.5430 -0.3193
  944MOL0     N24527   5.553   4.377   7.406  0.1227 -0.4453  0.3413
  944MOL0     C24528   4.537   4.716   7.898 -0.3648 -0.2156 -0.5647
  944MOL0     C24529   4.403   4.748   7.900  0.7331  0.1118 -0.1380
  944MOL0     C24530   4.006   4.902   7.904  0.0093  1.0103 -0.2095
  944MOL0     C24531   3.919   4.845   7.807 -0.2207  0.5405 -0.5791
  944MOL0     C24532   3.786   4.868   7.828  0.3970 -0.4502 -0.4696
  944MOL0     C24533   3.737   4.938   7.951 -0.1521  0.9930  0.2886
  944MOL0     O24534   3.604   4.943   7.987  0.3127  0.2683 -0.3971
  944MOL0     C24535   3.542   5.068   7.976 -0.0304 -1.3149  0.3490
  944MOL0     C24536   3.399   5.070   7.979  0.1397 -1.0232  0.0401
  944MOL0     C24537   3.333   4.985   7.873  0.5114 -0.2053  0.7957
  944MOL0     C24538   3.174   4.986   7.864 -0.4567 -0.0683  0.6655
  944MOL0     C24539   3.125   5.096   7.786  0.3755  0.3878 -0.2255
  944MOL0     C24540   3.078   5.186   7.724  0.6773 -0.2036  0.2695
  944MOL0     C24541   3.829   4.990   8.036 -0.1004 -1.1599 -0.3784
  944MOL0     C24542   3.967   4.972   8.013  1.6409 -0.3648 -0.5851
  944MOL0     H24543   4.363   4.858   7.590 -0.5111 -0.9308  0.4988
  944MOL0     H24544   4.614   4.793   7.575 -0.8789 -1.1048 -0.8227
  944MOL0     H24545   4.839   4.801   7.622 -1.7349 -0.6458 -1.8861
  944MOL0     H24546   4.794   4.625   7.615 -3.0919 -0.5814  3.6898
  944MOL0     H24547   4.984   4.569   7.764 -1.2080  0.0535  0.5336
  944MOL0     H24548   5.019   4.736   7.798  0.1049  0.3059 -0.8824
  944MOL0     H24549   5.079   4.786   7.586 -2.3397  0.7047  0.1390
  944MOL0     H24550   5.055   4.624   7.525  0.5573  2.1631 -1.2010
  944MOL0     H24551   5.245   4.698   7.758  1.4438  1.2176 -1.0413
  944MOL0     H24552   5.237   4.540   7.698 -0.5926 -1.2708 -0.7823
  944MOL0     H24553   5.316   4.778   7.504  1.4612  1.1358  0.2227
  944MOL0     H24554   5.323   4.616   7.476 -1.6028  0.3385 -0.6222
  944MOL0     H24555   5.478   4.576   7.663  1.0181 -0.4083  1.3793
  944MOL0     H24556   5.487   4.743   7.718  1.8869 -2.3844  0.7317
  944MOL0     H24557   5.542   4.781   7.467 -0.5246  0.5582  0.8922
  944MOL0     H24558   5.661   4.768   7.596  0.7261  0.4161 -0.7353
  944MOL0     H24559   5.700   4.527   7.546 -1.0198 -1.8311 -0.3311
  944MOL0     H24560   5.741   4.636   7.408 -0.8439 -1.0248 -2.9140
  944MOL0     H24561   5.484   4.645   7.225 -0.6176 -1.6402 -0.5695
  944MOL0     H24562   5.328   4.330   7.091  0.4924 -1.1655  1.2411
  944MOL0     H24563   5.348   4.507   7.063 -0.6944  2.5009  1.8753
  944MOL0     H24564   5.174   4.574   7.191  3.2256  0.2411  1.9087
  944MOL0     H24565   5.132   4.392   7.242  1.9962 -0.7844 -0.2677
  944MOL0     H24566   5.129   4.529   6.981 -1.2984 -1.8615 -1.6149
  944MOL0     H24567   5.119   4.356   6.997  1.3795  0.5540 -0.2139
  944MOL0     H24568   4.900   4.477   6.965 -4.5800 -0.9319  1.0259
  944MOL0     H24569   4.923   4.570   7.116  0.6880  0.8835 -0.0350
  944MOL0     H24570   4.765   4.166   7.259  0.6399 -0.2299 -0.6762
  944MOL0     H24571   4.536   4.134   7.299 -0.1702  1.0029  1.2764
  944MOL0     H24572   4.081   4.235   7.366  0.7699 -0.7284 -1.1725
  944MOL0     H24573   3.840   4.234   7.390 -0.8782  1.8860  1.9874
  944MOL0     H24574   3.642   4.388   7.415  1.2019 -1.6879  1.4332
  944MOL0     H24575   3.607   4.225   7.361  1.4913  0.5828 -0.3430
  944MOL0     H24576   3.427   4.356   7.199  1.6039  1.4756 -1.6216
  944MOL0     H24577   3.457   4.480   7.308  2.6663  0.4269 -2.1517
  944MOL0     H24578   3.433   4.310   7.492 -0.4518  2.9631 -0.3581
  944MOL0     H24579   3.360   4.196   7.368  2.7142  0.6412  0.3033
  944MOL0     H24580   3.243   4.466   7.451  1.2587  0.6926 -3.1738
  944MOL0     H24581   3.175   4.343   7.345 -0.3476 -0.9044  0.9678
  944MOL0     H24582   3.228   4.301   7.638  3.5584 -2.3656 -0.9884
  944MOL0     H24583   3.159   4.177   7.533  2.2531  0.6425 -1.5225
  944MOL0     H24584   2.973   4.350   7.465 -0.7270  2.7302  0.2773
  944MOL0     H24585   3.033   4.444   7.597  0.0019 -1.1293  3.1857
  944MOL0     H24586   2.968   4.167   7.683 -1.1974  0.1840 -0.3800
  944MOL0     H24587   2.990   4.314   7.770 -0.7366  1.8330 -0.4901
  944MOL0     H24588   2.741   4.267   7.738 -0.0471 -2.5077 -0.7758
  944MOL0     H24589   2.770   4.237   7.575  2.6147 -1.0287  0.7571
  944MOL0     H24590   3.825   4.537   7.080  1.5914 -0.0664  0.4471
  944MOL0     H24591   4.056   4.523   7.049  0.5769  0.0411  0.9791
  944MOL0     H24592   4.441   4.482   7.074 -0.4586 -1.1364 -0.8138
  944MOL0     H24593   4.683   4.542   7.064  0.8559  0.3311  2.4563
  944MOL0     H24594   4.596   4.683   7.983  1.9876  2.9383 -0.7764
  944MOL0     H24595   4.340   4.739   7.988 -0.9272 -1.7757 -1.4313
  944MOL0     H24596   3.954   4.795   7.717 -1.3750 -1.7636  0.1732
  944MOL0     H24597   3.705   4.833   7.763 -0.2788 -0.5643  0.4146
  944MOL0     H24598   3.576   5.136   7.897 -3.2868  1.2351  0.9405
  944MOL0     H24599   3.569   5.119   8.069 -0.7639  0.5978 -0.4479
  944MOL0     H24600   3.365   5.035   8.077  0.2961  2.0509  1.3277
  944MOL0     H24601   3.362   5.172   7.961  1.3622 -1.0567 -3.2593
  944MOL0     H24602   3.360   4.882   7.898  1.2087  0.2789  2.1654
  944MOL0     H24603   3.378   5.001   7.775  2.3242 -2.8796  1.0956
  944MOL0     H24604   3.150   4.892   7.813  0.1068 -0.0140  0.2901
  944MOL0     H24605   3.125   4.984   7.962 -2.2337  1.9067 -0.1034
  944MOL0     H24606   3.038   5.271   7.673  1.2744 -0.0417  0.0535
  944MOL0     H24607   3.804   5.048   8.124 -1.5416 -0.2276 -1.3592
  944MOL0     H24608   4.037   5.013   8.084  0.0414  0.8288  0.3755
  945MOL0     O24609   5.755   8.314   2.233  0.1733  0.3000 -0.6398
  945MOL0     C24610   5.853   8.388   2.259 -0.1595 -0.0367  0.5863
  945MOL0     O24611   5.863   8.525   2.232  0.5891  0.4445  0.0495
  945MOL0     C24612   5.741   8.566   2.192  1.1656 -0.1942 -0.2523
  945MOL0     C24613   5.666   8.637   2.295 -0.6759  0.4369  0.2620
  945MOL0     C24614   5.534   8.674   2.257 -0.9894 -0.1135 -0.3691
  945MOL0     C24615   5.482   8.659   2.124  0.0683  0.4066 -0.3237
  945MOL0     O24616   5.354   8.684   2.078 -0.0955 -0.5609 -0.4320
  945MOL0     C24617   5.302   8.808   2.129 -0.2896 -0.8189  0.1853
  945MOL0     C24618   5.199   8.872   2.029 -0.2124  0.1822 -0.2836
  945MOL0     C24619   5.073   8.784   2.027 -1.1676 -0.3447  0.3589
  945MOL0     C24620   4.958   8.858   1.950  0.0528 -0.0902  0.3475
  945MOL0     C24621   4.835   8.775   1.944  0.5793  0.8719 -0.0932
  945MOL0     C24622   4.776   8.730   2.078 -0.4740  0.4146 -0.5541
  945MOL0     C24623   4.629   8.681   2.051 -0.0484 -0.4833 -0.2254
  945MOL0     C24624   4.605   8.535   2.078 -0.2068 -0.2654  0.4707
  945MOL0     N24625   4.474   8.492   2.018  0.0586  1.5062  0.0348
  945MOL0     C24626   4.351   8.555   2.011  0.1641  0.1469 -0.0120
  945MOL0     C24627   4.266   8.459   1.965 -0.8398 -0.1475  0.1362
  945MOL0     C24628   4.118   8.471   1.957  0.1393  0.6557 -0.1664
  945MOL0     C24629   4.079   8.409   1.823 -0.1589  1.3680  0.7127
  945MOL0     C24630   3.931   8.445   1.809  0.7234  0.1432 -0.4044
  945MOL0     C24631   3.859   8.389   1.695 -0.4481  0.4262 -0.5224
  945MOL0     O24632   3.736   8.455   1.690 -0.1740  0.3166 -0.3699
  945MOL0     C24633   3.628   8.390   1.747  0.0483  0.3156  0.1191
  945MOL0     C24634   3.513   8.469   1.744 -0.0437 -0.1322  0.0598
  945MOL0     C24635   3.397   8.415   1.796 -0.8877 -0.2240  0.5352
  945MOL0     C24636   3.383   8.283   1.833  0.0420  0.0493  0.3431
  945MOL0     C24637   3.246   8.227   1.875 -0.3936  0.1527  0.0722
  945MOL0     O24638   3.151   8.315   1.911 -0.1082 -0.5710  0.4466
  945MOL0     C24639   3.023   8.262   1.918  0.4499  0.3764 -0.0588
  945MOL0     C24640   2.954   8.212   1.816 -0.1622 -0.2719 -0.3093
  945MOL0     C24641   2.832   8.149   1.836 -0.8576  0.1565  0.1378
  945MOL0     C24642   2.771   8.158   1.957  0.4107  0.3003  0.7108
  945MOL0     O24643   2.658   8.089   1.966 -0.1301  0.5138  0.5747
  945MOL0     C24644   2.603   8.059   2.095 -0.8612 -0.1594 -0.1551
  945MOL0     C24645   2.507   7.939   2.095  0.1977  0.5161 -0.4370
  945MOL0     C24646   2.360   7.962   2.055  1.2381 -0.3717  0.8255
  945MOL0     C24647   2.279   8.027   2.159  0.4517 -0.0223 -0.1995
  945MOL0     C24648   2.128   7.996   2.159  0.2259 -0.5576  0.2945
  945MOL0     C24649   2.090   7.877   2.234 -0.2645  0.3751 -1.1972
  945MOL0     C24650   1.934   7.859   2.235  0.1544  0.1854 -0.3677
  945MOL0     C24651   1.888   7.747   2.340 -0.2914  0.6611 -0.7042
  945MOL0    Cl24652   1.711   7.713   2.349 -0.2834 -0.0499  0.2784
  945MOL0     C24653   2.838   8.212   2.068 -0.0610  0.8432  0.0499
  945MOL0     C24654   2.965   8.263   2.045  0.6758 -0.0766 -0.1951
  945MOL0     O24655   3.239   8.104   1.871 -0.1102 -0.5282 -0.3796
  945MOL0     C24656   3.496   8.206   1.834 -0.9000 -0.6066 -0.3671
  945MOL0     C24657   3.621   8.259   1.801  0.0385 -0.2709  0.6273
  945MOL0     N24658   4.337   8.349   1.943  0.4810 -0.1330 -0.1459
  945MOL0     N24659   4.464   8.367   1.969  0.9774 -0.1729  0.5064
  945MOL0     C24660   5.562   8.592   2.033 -0.2633  0.2352  0.4371
  945MOL0     C24661   5.686   8.549   2.063  0.2143  0.5866 -0.0731
  945MOL0     C24662   5.964   8.328   2.328  0.3840 -0.3720  0.0447
  945MOL0     C24663   5.967   8.202   2.385 -0.0315 -0.1144 -1.0801
  945MOL0     C24664   6.074   8.155   2.460 -0.1483  0.6047  0.0245
  945MOL0     C24665   6.189   8.229   2.482  0.2503  0.0892 -0.0974
  945MOL0     O24666   6.298   8.194   2.561  0.1944  0.2828 -0.5076
  945MOL0     C24667   6.295   8.064   2.616  1.3895 -0.0645 -0.5300
  945MOL0     C24668   6.437   8.039   2.660 -0.5974 -0.6623 -0.9810
  945MOL0     C24669   6.510   8.148   2.747  0.9420 -0.8111 -0.0464
  945MOL0     C24670   6.650   8.093   2.782  0.2813 -0.2136  0.0786
  945MOL0     C24671   6.654   7.983   2.885  0.4130 -0.7333  0.0184
  945MOL0     C24672   6.671   7.895   2.965 -0.1930 -0.2430  0.3150
  945MOL0     C24673   6.195   8.345   2.412 -0.4957 -0.2643 -0.2374
  945MOL0     C24674   6.093   8.388   2.327 -0.4429  0.3349  0.7817
  945MOL0     H24675   5.698   8.654   2.398 -3.3313 -1.4587  1.5306
  945MOL0     H24676   5.478   8.717   2.339 -0.1430 -3.3795  2.0950
  945MOL0     H24677   5.389   8.872   2.148 -0.1811 -0.4199 -1.4743
  945MOL0     H24678   5.256   8.785   2.225  0.4592 -5.3141 -0.2852
  945MOL0     H24679   5.232   8.887   1.926 -2.0858  0.3591 -0.9052
  945MOL0     H24680   5.163   8.971   2.057 -0.8954  0.5263 -2.2240
  945MOL0     H24681   5.048   8.772   2.133 -1.1688  1.1312  0.5567
  945MOL0     H24682   5.098   8.688   1.982  1.7018  0.2725  0.4227
  945MOL0     H24683   4.937   8.949   2.007 -1.9819 -0.2556 -0.0667
  945MOL0     H24684   5.000   8.871   1.849 -0.2956 -0.6936  0.1192
  945MOL0     H24685   4.851   8.687   1.881  0.6792 -0.3103  1.5276
  945MOL0     H24686   4.757   8.836   1.898 -0.8458 -0.2178  0.7860
  945MOL0     H24687   4.768   8.813   2.148 -0.2280 -1.1807  1.4598
  945MOL0     H24688   4.832   8.649   2.125  0.0309  2.0607  1.8535
  945MOL0     H24689   4.567   8.744   2.116  2.7993  1.6933  0.5868
  945MOL0     H24690   4.597   8.691   1.947 -0.4859 -1.7541 -0.2217
  945MOL0     H24691   4.589   8.515   2.185 -1.7973 -1.8776 -0.0192
  945MOL0     H24692   4.685   8.470   2.041 -1.2000 -1.5252  0.4767
  945MOL0     H24693   4.326   8.654   2.046 -0.8550  0.4440 -1.4947
  945MOL0     H24694   4.095   8.577   1.963  1.3927  0.9878 -0.8426
  945MOL0     H24695   4.082   8.411   2.041  1.5608  0.8565  0.6174
  945MOL0     H24696   4.087   8.301   1.840 -2.5415  1.3854  2.4522
  945MOL0     H24697   4.142   8.449   1.743  0.2857  2.7012  1.7011
  945MOL0     H24698   3.875   8.397   1.890 -0.2413 -0.9538 -1.6752
  945MOL0     H24699   3.905   8.551   1.816 -1.7111 -0.5068  1.9972
  945MOL0     H24700   3.850   8.280   1.701  0.2040  0.2640 -1.9019
  945MOL0     H24701   3.922   8.413   1.609  2.3718 -0.7349  1.0787
  945MOL0     H24702   3.514   8.568   1.700 -0.1677 -0.7431 -1.3981
  945MOL0     H24703   3.316   8.487   1.800 -0.3233  0.5218 -0.8650
  945MOL0     H24704   2.996   8.199   1.716  0.3986  0.9351 -0.2466
  945MOL0     H24705   2.787   8.100   1.750 -0.4411  0.4817 -0.2652
  945MOL0     H24706   2.551   8.146   2.136 -2.9097 -0.2740 -2.3169
  945MOL0     H24707   2.676   8.027   2.170 -3.1587  0.7762  2.6636
  945MOL0     H24708   2.513   7.887   2.191  0.8635 -1.5433 -1.5375
  945MOL0     H24709   2.546   7.868   2.022  1.1896  0.3319  0.2429
  945MOL0     H24710   2.312   7.865   2.039  0.0726  0.2899  0.1972
  945MOL0     H24711   2.346   8.017   1.962 -0.2142  1.0973  1.8782
  945MOL0     H24712   2.313   7.998   2.258  0.3063  2.2247  0.5762
  945MOL0     H24713   2.294   8.135   2.152  2.4494 -0.1974  0.7497
  945MOL0     H24714   2.087   7.985   2.058  2.4121  0.1156 -0.7233
  945MOL0     H24715   2.071   8.075   2.208  1.1600 -0.4253  1.1896
  945MOL0     H24716   2.126   7.877   2.337  3.2111 -1.6203 -2.2647
  945MOL0     H24717   2.131   7.783   2.196 -0.3816  0.4270 -1.4551
  945MOL0     H24718   1.886   7.953   2.264 -1.6796 -0.4935 -1.0818
  945MOL0     H24719   1.896   7.832   2.136 -1.1127 -3.2359  0.9188
  945MOL0     H24720   1.927   7.777   2.438 -0.4905  0.7496 -0.6521
  945MOL0     H24721   1.927   7.649   2.310  3.4161  2.0914 -1.1071
  945MOL0     H24722   2.790   8.219   2.165  3.7311  0.3731  2.1539
  945MOL0     H24723   3.023   8.301   2.128 -1.0278  2.4248 -0.0465
  945MOL0     H24724   3.488   8.103   1.867 -0.8313 -0.9660 -1.4450
  945MOL0     H24725   3.706   8.192   1.813 -0.3704 -0.9023  0.0994
  945MOL0     H24726   5.522   8.569   1.935  0.5062  1.3745 -0.1735
  945MOL0     H24727   5.750   8.501   1.991 -0.4050  1.1706 -1.0335
  945MOL0     H24728   5.870   8.154   2.387 -0.1061  0.0411 -0.8924
  945MOL0     H24729   6.060   8.059   2.508  1.2597  0.8590  0.9898
  945MOL0     H24730   6.252   7.991   2.547  1.6644 -0.4797 -0.2601
  945MOL0     H24731   6.234   8.063   2.706 -1.1522  0.5707 -2.1313
  945MOL0     H24732   6.438   7.947   2.718  2.3160 -0.1304 -0.0273
  945MOL0     H24733   6.484   8.008   2.567 -0.7555 -2.4714 -0.4893
  945MOL0     H24734   6.458   8.163   2.842  2.1764  0.9556  0.3849
  945MOL0     H24735   6.514   8.239   2.687 -0.2208 -2.2577 -2.5033
  945MOL0     H24736   6.705   8.070   2.690  0.4435  1.9617 -0.4237
  945MOL0     H24737   6.701   8.181   2.823  0.2140  0.6417 -1.5858
  945MOL0     H24738   6.674   7.812   3.034  4.7468 -0.1040  0.6145
  945MOL0     H24739   6.278   8.415   2.416 -1.4908  1.0467 -1.5154
  945MOL0     H24740   6.106   8.487   2.283  1.6075 -0.5169 -0.6591
  946MOL0     O24741   7.154   5.922   9.516 -0.1586  0.4207 -0.5429
  946MOL0     C24742   7.164   5.802   9.497 -0.5164 -0.0401 -0.1465
  946MOL0     O24743   7.273   5.742   9.444 -0.2036  0.1762  0.4111
  946MOL0     C24744   7.381   5.814   9.401  0.2173 -1.0979  0.4549
  946MOL0     C24745   7.451   5.906   9.470 -0.5405 -1.0611 -0.0692
  946MOL0     C24746   7.565   5.971   9.412  0.4692 -0.0656 -0.3320
  946MOL0     C24747   7.604   5.940   9.281  0.6718  0.4238  1.5820
  946MOL0     O24748   7.704   6.010   9.212 -0.6173  0.2574 -0.2187
  946MOL0     C24749   7.815   6.059   9.288 -0.0743 -0.0489 -0.2050
  946MOL0     C24750   7.908   6.126   9.195  0.1791  0.3996  0.1998
  946MOL0     C24751   8.017   6.191   9.267 -0.4201 -0.2528 -0.0436
  946MOL0     C24752   8.108   6.274   9.179  0.3724 -0.0043 -0.1569
  946MOL0     C24753   8.206   6.361   9.250  0.0917 -0.0737  0.8404
  946MOL0     C24754   8.337   6.301   9.296 -0.0623 -0.6443  0.1212
  946MOL0     C24755   8.341   6.165   9.372 -0.5859 -0.2517  0.3501
  946MOL0     C24756   8.480   6.105   9.400  0.5926  0.2704  0.0435
  946MOL0     N24757   8.560   6.192   9.490  0.1628  0.2289 -0.4760
  946MOL0     C24758   8.622   6.308   9.458 -0.1904 -0.7466  0.0993
  946MOL0     C24759   8.697   6.353   9.564  0.5389 -0.1673  0.0548
  946MOL0     C24760   8.786   6.476   9.569 -0.1212  1.0707  0.3973
  946MOL0     C24761   8.922   6.422   9.595 -0.0704 -0.6855 -1.0778
  946MOL0     C24762   9.018   6.534   9.559  0.1790  0.5491 -0.0317
  946MOL0     C24763   9.158   6.475   9.576 -0.6560  0.1522 -0.2223
  946MOL0     O24764   9.190   6.461   9.724  0.0904  0.1936  0.2859
  946MOL0     C24765   9.317   6.418   9.759  0.1632 -0.7339 -0.3155
  946MOL0     C24766   9.428   6.397   9.674  0.2722  0.1113  0.6128
  946MOL0     C24767   9.556   6.369   9.720 -0.5623  0.2734  0.1496
  946MOL0     C24768   9.577   6.367   9.857 -0.0898 -0.6335 -0.4026
  946MOL0     C24769   9.712   6.339   9.926  0.2570  0.1588 -0.1564
  946MOL0     O24770   9.799   6.267   9.852  0.0752  0.3892  0.5829
  946MOL0     C24771   9.926   6.271   9.896 -0.3078  0.0512 -0.5139
  946MOL0     C24772  10.027   6.332   9.820 -0.3858 -0.1351  0.1623
  946MOL0     C24773  10.160   6.328   9.857 -0.1769  0.2129 -0.2643
  946MOL0     C24774  10.195   6.255   9.970 -0.2814  0.0050  0.5366
  946MOL0     O24775  10.323   6.274  10.014  0.0223 -0.2218  0.1294
  946MOL0     C24776  10.401   6.182  10.096 -0.1373  0.0096 -0.5173
  946MOL0     C24777  10.443   6.084   9.984 -0.1121 -0.1621 -0.2412
  946MOL0     C24778  10.565   6.004  10.029  0.2000  0.1020 -0.0740
  946MOL0     C24779  10.601   5.910   9.916  0.0623  0.8553 -0.6625
  946MOL0     C24780  10.706   5.806   9.962 -0.1277  0.0506 -0.2903
  946MOL0     C24781  10.835   5.871  10.014  0.0646 -0.0186 -0.1796
  946MOL0     C24782  10.934   5.762  10.069 -0.0436  0.0368  0.0554
  946MOL0     C24783  11.017   5.688   9.960 -0.1470  0.1550  0.5295
  946MOL0    Cl24784  11.168   5.645  10.031 -0.4693  0.3852 -0.0950
  946MOL0     C24785  10.097   6.189  10.047  1.1845 -0.1742 -0.4769
  946MOL0     C24786   9.959   6.197  10.013 -0.7355 -0.1756  0.3265
  946MOL0     O24787   9.732   6.387  10.040 -0.4902  0.1825  0.5153
  946MOL0     C24788   9.466   6.394   9.945  0.1392 -0.2975  0.0038
  946MOL0     C24789   9.339   6.417   9.898  0.4880 -0.4117 -0.6539
  946MOL0     N24790   8.696   6.249   9.658  0.5427 -0.0513  0.3759
  946MOL0     N24791   8.604   6.157   9.618 -0.7777  0.0435 -0.6694
  946MOL0     C24792   7.527   5.841   9.214  0.4149  0.3557  0.8719
  946MOL0     C24793   7.417   5.773   9.272 -0.3781  1.3427  0.0671
  946MOL0     C24794   7.058   5.713   9.553 -0.0186 -0.4214 -0.4464
  946MOL0     C24795   6.956   5.759   9.640 -0.3719 -0.2801 -1.0723
  946MOL0     C24796   6.848   5.676   9.677  0.0384  0.6064 -0.8087
  946MOL0     C24797   6.851   5.538   9.652 -1.0111  0.0767  0.4362
  946MOL0     O24798   6.751   5.448   9.678 -0.5687 -0.4211 -0.9385
  946MOL0     C24799   6.621   5.501   9.697  0.2887 -0.4497 -0.4208
  946MOL0     C24800   6.590   5.504   9.847  0.1630 -0.2789 -0.1497
  946MOL0     C24801   6.441   5.533   9.876 -0.0786  0.3764 -0.1080
  946MOL0     C24802   6.348   5.417   9.848 -0.2938 -0.0360  1.1683
  946MOL0     C24803   6.395   5.289   9.894 -0.6331  0.9357 -0.1598
  946MOL0     C24804   6.409   5.177   9.935  0.1050 -0.1260 -0.2718
  946MOL0     C24805   6.963   5.489   9.571 -0.2032 -0.1607 -0.7955
  946MOL0     C24806   7.057   5.575   9.519 -0.0921 -0.2817  0.5850
  946MOL0     H24807   7.436   5.926   9.576 -0.4533  1.3620 -0.4526
  946MOL0     H24808   7.624   6.046   9.464  1.4365  0.1755 -1.7380
  946MOL0     H24809   7.863   5.973   9.336 -1.0183 -0.8742 -0.6887
  946MOL0     H24810   7.791   6.130   9.368  1.4016  1.8285 -1.3367
  946MOL0     H24811   7.859   6.211   9.148  2.0520  2.2158  1.3622
  946MOL0     H24812   7.955   6.053   9.128  2.6533  1.7233  0.3391
  946MOL0     H24813   8.070   6.120   9.332 -1.3470  0.7010  1.8613
  946MOL0     H24814   7.970   6.259   9.339  0.6220  1.5591 -1.0125
  946MOL0     H24815   8.175   6.203   9.130 -0.0493 -2.0064  1.9657
  946MOL0     H24816   8.048   6.341   9.117  2.0993  0.8053 -1.0097
  946MOL0     H24817   8.159   6.410   9.335  1.2350  0.8000  0.9995
  946MOL0     H24818   8.209   6.443   9.179 -1.2784  0.0387  0.8981
  946MOL0     H24819   8.373   6.372   9.372 -0.4951 -0.5268  0.2163
  946MOL0     H24820   8.402   6.307   9.207 -2.7762 -1.0156 -2.0103
  946MOL0     H24821   8.287   6.175   9.467  1.6794  1.2823  1.5515
  946MOL0     H24822   8.283   6.094   9.313 -0.2632  0.5105 -0.9342
  946MOL0     H24823   8.523   6.087   9.302  1.5528  2.0887  0.0841
  946MOL0     H24824   8.472   6.009   9.452 -2.4943  2.3921  4.1323
  946MOL0     H24825   8.589   6.357   9.367  0.1293 -2.2499 -0.8550
  946MOL0     H24826   8.741   6.544   9.642  1.1699  0.8874  1.3980
  946MOL0     H24827   8.783   6.529   9.473 -0.2733 -0.3127 -0.3842
  946MOL0     H24828   8.944   6.336   9.531  1.0429 -1.1619 -0.0919
  946MOL0     H24829   8.931   6.395   9.701 -3.3730  0.4116 -0.3843
  946MOL0     H24830   9.007   6.574   9.458 -1.6190  1.4584  0.4713
  946MOL0     H24831   8.997   6.623   9.620 -0.8979 -0.6242  1.3973
  946MOL0     H24832   9.237   6.535   9.532  1.4157 -0.7499  2.0183
  946MOL0     H24833   9.160   6.374   9.535 -0.6557  0.9412 -2.2760
  946MOL0     H24834   9.421   6.407   9.566  0.3015 -1.1142  0.4865
  946MOL0     H24835   9.648   6.349   9.666  1.4994  1.3207  3.0302
  946MOL0     H24836  10.003   6.391   9.732  0.1250 -2.1678 -1.4187
  946MOL0     H24837  10.239   6.376   9.800  0.6964  1.2274  1.7226
  946MOL0     H24838  10.343   6.151  10.183 -0.8194  0.5491 -0.7758
  946MOL0     H24839  10.487   6.237  10.136 -0.2101  2.5806 -3.5103
  946MOL0     H24840  10.467   6.140   9.893  1.0818  1.6271  1.1188
  946MOL0     H24841  10.356   6.022   9.958  0.5446 -1.0268 -0.4088
  946MOL0     H24842  10.533   5.938  10.110 -1.8744 -1.3338 -1.9364
  946MOL0     H24843  10.649   6.066  10.062  0.5713 -0.8286  0.8118
  946MOL0     H24844  10.508   5.860   9.890  0.4460 -1.8958  2.6421
  946MOL0     H24845  10.649   5.971   9.838  2.1264  1.7879  1.2029
  946MOL0     H24846  10.735   5.738   9.881 -0.6972  0.6649 -1.0308
  946MOL0     H24847  10.668   5.740  10.041  0.1092  0.1876 -0.0615
  946MOL0     H24848  10.806   5.928  10.103 -1.1250 -1.9638  0.7340
  946MOL0     H24849  10.889   5.941   9.950  0.1898  0.0995  0.0528
  946MOL0     H24850  10.999   5.816  10.138 -0.1873 -0.0232  0.2398
  946MOL0     H24851  10.876   5.692  10.129  0.6959  1.3957  2.5160
  946MOL0     H24852  11.032   5.759   9.878 -0.3031 -0.5756 -0.1441
  946MOL0     H24853  10.958   5.604   9.923 -2.1167  0.3321  3.0232
  946MOL0     H24854  10.122   6.129  10.133 -1.2945  0.3940  0.7310
  946MOL0     H24855   9.886   6.151  10.078  2.3408  1.0586  5.1874
  946MOL0     H24856   9.484   6.385  10.052  2.6765  2.3344 -0.0751
  946MOL0     H24857   9.255   6.437   9.964  1.5586  2.4972 -0.0337
  946MOL0     H24858   7.547   5.826   9.108 -2.7374 -1.2497  0.4014
  946MOL0     H24859   7.359   5.704   9.210  0.0891  0.1999  0.8555
  946MOL0     H24860   6.953   5.863   9.672 -1.1574 -0.9379  1.1852
  946MOL0     H24861   6.765   5.710   9.737  0.5296 -3.0203  2.2969
  946MOL0     H24862   6.550   5.433   9.650  0.8587 -0.9448 -0.5755
  946MOL0     H24863   6.608   5.599   9.650  1.6288 -1.0083 -2.0253
  946MOL0     H24864   6.627   5.411   9.892  2.9170  1.1522  0.8344
  946MOL0     H24865   6.647   5.588   9.890  0.6381 -0.8165  0.2857
  946MOL0     H24866   6.411   5.612   9.807 -1.2083  0.5145  0.5237
  946MOL0     H24867   6.427   5.568   9.978  3.6814 -0.4699  0.8503
  946MOL0     H24868   6.249   5.447   9.884 -0.3224  2.7899 -0.8571
  946MOL0     H24869   6.326   5.411   9.741 -0.9211 -1.9992  1.3621
  946MOL0     H24870   6.398   5.080   9.980  2.9794  0.7934  2.7638
  946MOL0     H24871   6.966   5.385   9.541 -1.1566 -0.6046  0.5148
  946MOL0     H24872   7.130   5.537   9.448  0.9149 -0.2578  1.5663
  947MOL0     O24873  10.479   2.976  10.941  0.2259  0.6792  0.0427
  947MOL0     C24874  10.496   3.010  10.821 -0.1794 -0.5974 -0.1145
  947MOL0     O24875  10.399   3.042  10.731 -0.2208  0.1705 -0.6915
  947MOL0     C24876  10.269   3.063  10.769 -0.5879  1.1889 -0.3125
  947MOL0     C24877  10.174   2.979  10.705 -0.3723 -0.5953  0.9739
  947MOL0     C24878  10.040   2.977  10.740  0.7364 -0.2823  0.0407
  947MOL0     C24879   9.993   3.074  10.834 -0.1628 -0.2029  0.0592
  947MOL0     O24880   9.865   3.079  10.870 -0.2039 -0.3964  0.0796
  947MOL0     C24881   9.767   3.061  10.766 -0.1312 -0.5820 -0.2638
  947MOL0     C24882   9.641   3.127  10.824 -1.0355 -0.0474  0.7902
  947MOL0     C24883   9.580   3.058  10.948 -0.0221 -0.0528  0.4924
  947MOL0     C24884   9.464   3.150  11.003  0.9198  0.4325 -1.3806
  947MOL0     C24885   9.413   3.113  11.140 -0.5055  0.0484  0.5468
  947MOL0     C24886   9.306   3.213  11.180 -0.8858  0.0894  0.9615
  947MOL0     C24887   9.215   3.173  11.289  0.2880 -0.1567  0.5193
  947MOL0     C24888   9.277   3.185  11.429  0.4299  0.4838 -0.6768
  947MOL0     N24889   9.201   3.109  11.534  0.3707  0.0405 -0.3425
  947MOL0     C24890   9.061   3.085  11.539 -0.2988  0.3807  0.5197
  947MOL0     C24891   9.035   3.034  11.665 -0.2983  0.5237 -0.3628
  947MOL0     C24892   8.904   2.977  11.715 -0.0525  0.0067  0.8899
  947MOL0     C24893   8.878   3.035  11.854 -1.1588  0.5505 -0.1485
  947MOL0     C24894   8.754   2.975  11.909  0.3460 -0.6277 -1.0457
  947MOL0     C24895   8.727   3.030  12.044 -0.1976  0.4570 -0.3336
  947MOL0     O24896   8.617   2.954  12.103 -0.2212  0.0013 -0.3378
  947MOL0     C24897   8.553   3.002  12.212  0.9415 -0.2379 -0.1192
  947MOL0     C24898   8.613   3.089  12.307  0.0873 -0.2538  0.4927
  947MOL0     C24899   8.540   3.121  12.423  0.6509  0.6849 -0.2017
  947MOL0     C24900   8.409   3.078  12.447  0.3897  0.0265 -0.2824
  947MOL0     C24901   8.332   3.107  12.571  0.5829 -0.1318 -0.0479
  947MOL0     O24902   8.195   3.093  12.568  0.2441 -0.0486 -0.2442
  947MOL0     C24903   8.121   3.122  12.681  0.3246 -0.4911 -0.9030
  947MOL0     C24904   8.004   3.049  12.708  0.0992  0.3721  0.1791
  947MOL0     C24905   7.916   3.088  12.812  0.1800 -0.2910  0.3642
  947MOL0     C24906   7.936   3.193  12.892 -0.0857 -0.7899  0.0608
  947MOL0     O24907   7.846   3.225  12.989  0.2115 -0.3263 -0.4244
  947MOL0     C24908   7.846   3.357  13.044  0.6032 -0.2358  0.3012
  947MOL0     C24909   7.733   3.369  13.151 -0.7742  0.0411 -0.0409
  947MOL0     C24910   7.595   3.379  13.083  0.8426 -0.4198 -0.0019
  947MOL0     C24911   7.486   3.388  13.196  0.2248  0.1732 -0.4576
  947MOL0     C24912   7.345   3.371  13.139  0.0076 -0.1656 -0.7268
  947MOL0     C24913   7.233   3.396  13.240  0.3011  0.5307 -0.2705
  947MOL0     C24914   7.107   3.308  13.206  0.7180  0.1836 -0.4270
  947MOL0     C24915   7.042   3.334  13.072  0.2879  0.5598  0.1195
  947MOL0    Cl24916   6.875   3.286  13.090 -0.3033 -0.2585  0.0310
  947MOL0     C24917   8.050   3.269  12.865 -0.0411  1.1119 -0.8963
  947MOL0     C24918   8.143   3.229  12.771  0.5879  0.1745  0.5094
  947MOL0     O24919   8.397   3.139  12.676  0.5829 -0.3427  0.2530
  947MOL0     C24920   8.342   3.004  12.343 -0.2866  0.6229  0.0649
  947MOL0     C24921   8.416   2.964  12.229 -0.5049  0.1183 -0.4083
  947MOL0     N24922   9.160   3.028  11.726  1.1819 -0.5928  0.0247
  947MOL0     N24923   9.254   3.067  11.653  0.5626 -0.2590 -0.8688
  947MOL0     C24924  10.081   3.170  10.883  0.6485  0.0289  0.2676
  947MOL0     C24925  10.217   3.164  10.852  0.4720  0.1966 -0.2394
  947MOL0     C24926  10.639   3.029  10.780  0.3057  0.0349 -0.3398
  947MOL0     C24927  10.677   3.100  10.669 -0.4743 -0.1238  0.1022
  947MOL0     C24928  10.808   3.112  10.628 -0.0087 -0.1105  0.5743
  947MOL0     C24929  10.912   3.052  10.695 -0.7095  0.5276  0.1062
  947MOL0     O24930  11.048   3.054  10.674 -0.7470  0.5681  0.5121
  947MOL0     C24931  11.083   3.120  10.548 -0.2026  0.4843  0.2162
  947MOL0     C24932  11.232   3.088  10.510 -0.4328  0.2210  0.3778
  947MOL0     C24933  11.307   3.195  10.428  0.7619  0.1597  0.4902
  947MOL0     C24934  11.447   3.139  10.404  0.9686 -0.1296 -0.4150
  947MOL0     C24935  11.523   3.235  10.324 -0.7180  0.0762  0.9221
  947MOL0     C24936  11.595   3.303  10.253 -0.2576 -0.3906 -0.9970
  947MOL0     C24937  10.879   2.985  10.817  0.4048 -0.4478  0.5319
  947MOL0     C24938  10.745   2.967  10.854  0.4983 -0.3910  0.0367
  947MOL0     H24939  10.211   2.918  10.623 -3.5752  3.5963 -4.2549
  947MOL0     H24940   9.976   2.899  10.702 -0.8176 -0.4392  2.7261
  947MOL0     H24941   9.737   2.960  10.737 -3.4024 -0.0609  0.8000
  947MOL0     H24942   9.795   3.121  10.679 -0.9601  1.7588  0.9703
  947MOL0     H24943   9.561   3.126  10.749 -2.3783  3.1176  1.9995
  947MOL0     H24944   9.667   3.227  10.859 -0.1769 -0.8778  2.6296
  947MOL0     H24945   9.656   3.046  11.026 -0.1225  1.5854  0.8872
  947MOL0     H24946   9.546   2.958  10.921  0.7773 -0.2990  0.3689
  947MOL0     H24947   9.501   3.252  11.012 -0.1707  0.6628  1.3771
  947MOL0     H24948   9.375   3.155  10.938  0.6575  0.4113 -1.0257
  947MOL0     H24949   9.491   3.116  11.217 -1.4886 -2.3683  1.7385
  947MOL0     H24950   9.374   3.010  11.139 -0.4226  0.0008 -1.6529
  947MOL0     H24951   9.248   3.227  11.088  1.3132  0.1153 -0.4807
  947MOL0     H24952   9.345   3.311  11.209 -1.2843  0.6630 -0.3843
  947MOL0     H24953   9.132   3.244  11.286 -0.4856 -1.0433  0.3955
  947MOL0     H24954   9.177   3.072  11.271  1.7336 -0.9629  1.7851
  947MOL0     H24955   9.284   3.286  11.471 -0.8102 -0.4944  2.0646
  947MOL0     H24956   9.371   3.129  11.418  0.7467  1.1230 -1.3095
  947MOL0     H24957   8.992   3.108  11.459  0.9534  0.0334 -0.7126
  947MOL0     H24958   8.922   2.869  11.718  2.9359  0.4448  2.4690
  947MOL0     H24959   8.824   3.013  11.648  2.6948  1.4504 -1.8924
  947MOL0     H24960   8.853   3.141  11.848  2.7446  1.6109 -0.1258
  947MOL0     H24961   8.965   3.019  11.919 -0.9720  1.6356 -0.1049
  947MOL0     H24962   8.671   2.994  11.841 -1.6786  0.2684  1.5180
  947MOL0     H24963   8.760   2.866  11.913 -2.6126 -0.8587 -0.9114
  947MOL0     H24964   8.692   3.133  12.040 -2.1969 -0.1767  0.0016
  947MOL0     H24965   8.822   3.023  12.099 -1.2842 -2.2248  1.3828
  947MOL0     H24966   8.711   3.132  12.284 -0.2083 -0.4541 -1.2903
  947MOL0     H24967   8.583   3.180  12.503 -1.4955  0.2732  1.3526
  947MOL0     H24968   7.991   2.957  12.652 -2.4285  1.9266 -2.0106
  947MOL0     H24969   7.831   3.023  12.831  0.3762 -0.6037  0.1796
  947MOL0     H24970   7.831   3.431  12.965 -0.6046 -2.1495 -1.3604
  947MOL0     H24971   7.940   3.376  13.096  0.3510  0.2826  0.5788
  947MOL0     H24972   7.747   3.458  13.213  1.3971 -0.1204 -0.2144
  947MOL0     H24973   7.726   3.279  13.213  2.5012 -1.4072 -1.5035
  947MOL0     H24974   7.566   3.292  13.023  0.5710 -0.3704  0.0578
  947MOL0     H24975   7.590   3.462  13.012 -0.2676  0.2167  0.7844
  947MOL0     H24976   7.502   3.313  13.274 -0.8758 -0.9498 -1.2671
  947MOL0     H24977   7.480   3.489  13.237  0.0514  0.2854 -0.7520
  947MOL0     H24978   7.314   3.271  13.108 -1.3937  0.0131  0.0381
  947MOL0     H24979   7.333   3.435  13.051  0.9285 -0.1484 -0.8580
  947MOL0     H24980   7.198   3.499  13.251 -1.9369 -0.4408  3.4752
  947MOL0     H24981   7.272   3.372  13.339  0.6119  2.2306  0.0667
  947MOL0     H24982   7.135   3.203  13.208  0.1677  0.0498  0.7816
  947MOL0     H24983   7.036   3.312  13.289  2.9335 -1.2377  1.6530
  947MOL0     H24984   7.095   3.284  12.992  0.5750  1.7020 -0.4179
  947MOL0     H24985   7.041   3.440  13.045 -0.9579  0.4679 -0.2909
  947MOL0     H24986   8.078   3.342  12.940  1.4263 -3.0288  3.0633
  947MOL0     H24987   8.235   3.285  12.755 -0.2482  0.9077 -2.4656
  947MOL0     H24988   8.238   2.972  12.349 -0.7700  2.2410  1.0124
  947MOL0     H24989   8.369   2.900  12.155 -2.0149  1.3967 -0.6148
  947MOL0     H24990  10.032   3.251  10.936  0.0502  2.0253 -3.0593
  947MOL0     H24991  10.291   3.226  10.902 -0.2943  1.7343 -0.9435
  947MOL0     H24992  10.596   3.134  10.605 -0.5495 -0.5138 -0.0150
  947MOL0     H24993  10.827   3.170  10.538 -0.5085 -3.4266 -1.8870
  947MOL0     H24994  11.066   3.226  10.565  0.1403  0.5925 -0.1071
  947MOL0     H24995  11.014   3.089  10.469 -0.7932 -0.8035  1.1858
  947MOL0     H24996  11.296   3.061  10.594  1.7573  2.1637 -0.5488
  947MOL0     H24997  11.228   3.000  10.446 -0.3115  0.8467 -0.5104
  947MOL0     H24998  11.302   3.283  10.492 -1.6902 -0.2280  0.9228
  947MOL0     H24999  11.266   3.217  10.330  0.1749  0.3017  0.7658
  947MOL0     H25000  11.506   3.134  10.496  1.3496  0.4760 -0.6158
  947MOL0     H25001  11.447   3.040  10.358 -2.8843 -0.8157  0.7346
  947MOL0     H25002  11.654   3.349  10.176  0.6426  0.1242 -0.0350
  947MOL0     H25003  10.960   2.945  10.876  0.0975 -2.0923 -0.1022
  947MOL0     H25004  10.718   2.924  10.949  2.2519  2.5714  2.0653
  948MOL0     O25005   6.855   9.740   7.225  0.2582  0.2555 -0.5619
  948MOL0     C25006   6.885   9.686   7.337 -0.8840  0.3274 -0.9962
  948MOL0     O25007   6.813   9.580   7.397  0.0291 -0.0698  0.0963
  948MOL0     C25008   6.692   9.539   7.345  1.4176  0.3744 -0.2900
  948MOL0     C25009   6.587   9.508   7.432 -0.3715 -0.3087 -0.1602
  948MOL0     C25010   6.467   9.449   7.391  0.1210  0.3230  0.8569
  948MOL0     C25011   6.448   9.421   7.256 -0.0717  0.8559  0.3645
  948MOL0     O25012   6.332   9.370   7.208 -0.1318 -0.2450 -0.2256
  948MOL0     C25013   6.212   9.386   7.287 -0.2486  0.7499  0.2995
  948MOL0     C25014   6.089   9.359   7.196 -0.8820 -0.0467  0.6906
  948MOL0     C25015   5.979   9.433   7.255 -0.4329 -0.2071  0.3112
  948MOL0     C25016   5.851   9.416   7.170 -0.2890  0.8653 -0.0461
  948MOL0     C25017   5.728   9.463   7.242  0.2246 -0.5208  0.3091
  948MOL0     C25018   5.605   9.430   7.158  0.1624  0.1116  0.9624
  948MOL0     C25019   5.473   9.465   7.219 -0.0227 -0.4155 -0.4134
  948MOL0     C25020   5.366   9.473   7.105  0.1506 -0.0740 -0.0356
  948MOL0     N25021   5.235   9.512   7.157 -0.8515 -0.0854 -0.4786
  948MOL0     C25022   5.150   9.617   7.135  0.0027  0.3832 -0.4067
  948MOL0     C25023   5.053   9.606   7.228  1.1186 -0.4900  0.4831
  948MOL0     C25024   4.939   9.698   7.239  0.9054  0.2377 -0.4581
  948MOL0     C25025   4.839   9.674   7.128 -0.8361 -0.3947  0.3716
  948MOL0     C25026   4.723   9.775   7.139 -0.2955 -0.9341  0.9038
  948MOL0     C25027   4.594   9.737   7.072 -0.8494 -0.0321  0.1758
  948MOL0     O25028   4.541   9.635   7.161  0.1269 -0.3579 -0.4925
  948MOL0     C25029   4.403   9.632   7.164  0.1202 -0.1499 -0.1130
  948MOL0     C25030   4.315   9.671   7.065  0.2385  0.3255  0.9463
  948MOL0     C25031   4.184   9.628   7.069 -0.0607  0.0465  0.1081
  948MOL0     C25032   4.128   9.558   7.177 -0.2232  0.2059 -0.1818
  948MOL0     C25033   3.989   9.523   7.163 -0.7758 -0.2988 -0.0831
  948MOL0     O25034   3.930   9.538   7.038 -0.2585  0.0671 -0.5409
  948MOL0     C25035   3.813   9.466   7.007 -0.4890 -0.6764  0.6229
  948MOL0     C25036   3.779   9.342   7.064 -0.5085  0.4336  0.4818
  948MOL0     C25037   3.658   9.280   7.031  0.0630 -0.0663  0.8520
  948MOL0     C25038   3.570   9.339   6.932 -0.3374 -0.9850 -0.0958
  948MOL0     O25039   3.445   9.291   6.895 -0.3952 -0.2142  0.4013
  948MOL0     C25040   3.385   9.184   6.977  0.4883 -0.2772  0.4787
  948MOL0     C25041   3.242   9.148   6.940 -0.6168  0.4541 -0.8677
  948MOL0     C25042   3.135   9.248   6.991  0.1250  0.8841 -0.3775
  948MOL0     C25043   2.995   9.187   6.966  0.0282  0.2759  0.1751
  948MOL0     C25044   2.891   9.288   6.995 -0.6954  0.1899 -0.4405
  948MOL0     C25045   2.761   9.259   6.929  0.3345  0.1664  0.3758
  948MOL0     C25046   2.681   9.135   6.988  1.1742 -0.4817  0.0185
  948MOL0     C25047   2.548   9.143   6.916  0.0347 -0.0319  0.1534
  948MOL0    Cl25048   2.564   9.121   6.741 -0.3945 -0.3627 -0.1307
  948MOL0     C25049   3.616   9.461   6.869  0.6886  0.8807 -0.6612
  948MOL0     C25050   3.730   9.521   6.905 -0.1961 -0.4218 -0.0040
  948MOL0     O25051   3.927   9.488   7.267 -0.0126  0.7132  0.5950
  948MOL0     C25052   4.211   9.534   7.285  0.6627  0.3174 -0.3513
  948MOL0     C25053   4.344   9.569   7.276 -0.7942 -0.0635 -0.6994
  948MOL0     N25054   5.065   9.483   7.298 -0.0367 -0.5561  0.7873
  948MOL0     N25055   5.165   9.422   7.235 -0.0284  0.6213  0.0674
  948MOL0     C25056   6.553   9.451   7.167  0.7363  0.2931 -0.9836
  948MOL0     C25057   6.667   9.516   7.207  0.5230  0.1256  0.1029
  948MOL0     C25058   7.013   9.706   7.402  0.1733 -0.4555  0.0956
  948MOL0     C25059   7.056   9.626   7.506 -0.0418  0.0713 -0.8837
  948MOL0     C25060   7.181   9.653   7.556 -0.3721 -0.1584  0.0305
  948MOL0     C25061   7.276   9.745   7.499 -0.0822 -0.1825 -1.3845
  948MOL0     O25062   7.394   9.756   7.557 -0.1523 -0.8474  0.8439
  948MOL0     C25063   7.482   9.854   7.505  0.7865  0.3924 -0.0969
  948MOL0     C25064   7.631   9.827   7.545  0.5058 -0.6272 -0.5282
  948MOL0     C25065   7.724   9.953   7.537 -0.1289  0.0486  0.1309
  948MOL0     C25066   7.871   9.904   7.568  0.3004  0.2281  0.6083
  948MOL0     C25067   7.950  10.009   7.637 -0.9375  0.3042 -0.6268
  948MOL0     C25068   8.020  10.095   7.691  0.4087  0.5025 -0.4022
  948MOL0     C25069   7.223   9.828   7.400  0.0743 -0.4644 -0.5179
  948MOL0     C25070   7.096   9.805   7.353 -0.0891 -0.4208 -0.1146
  948MOL0     H25071   6.593   9.516   7.540  0.9021  1.0938 -0.2988
  948MOL0     H25072   6.392   9.419   7.463 -2.0744  0.1662 -1.3777
  948MOL0     H25073   6.208   9.487   7.330  1.0548  2.0432 -2.4033
  948MOL0     H25074   6.216   9.306   7.362 -1.9424 -1.0907 -1.4928
  948MOL0     H25075   6.064   9.253   7.188 -2.8781  0.4970 -1.2398
  948MOL0     H25076   6.111   9.396   7.095  2.2399  0.6522  1.5020
  948MOL0     H25077   5.997   9.541   7.256  0.2145 -0.2427 -1.9514
  948MOL0     H25078   5.962   9.397   7.357  1.1129  2.5384  1.6539
  948MOL0     H25079   5.868   9.480   7.083  2.0437  0.1037 -0.2362
  948MOL0     H25080   5.843   9.309   7.152  0.7111  0.8221 -0.3288
  948MOL0     H25081   5.734   9.572   7.257 -1.6824 -0.5181  1.3478
  948MOL0     H25082   5.717   9.409   7.336  0.5077  0.4171  0.8929
  948MOL0     H25083   5.592   9.324   7.133  1.2567  0.0228  0.7113
  948MOL0     H25084   5.630   9.490   7.070 -0.3153  0.1980  0.8833
  948MOL0     H25085   5.437   9.394   7.295  0.1887  1.4668  1.5505
  948MOL0     H25086   5.486   9.565   7.262  0.9945 -1.7380  2.5991
  948MOL0     H25087   5.360   9.370   7.067 -1.9837 -0.2959  0.7634
  948MOL0     H25088   5.384   9.550   7.029 -4.1366  2.7255  1.4177
  948MOL0     H25089   5.172   9.702   7.073 -1.6238 -0.7305 -2.6396
  948MOL0     H25090   4.983   9.797   7.224  0.2651  0.2216 -2.7664
  948MOL0     H25091   4.894   9.683   7.338  1.6099 -1.7838 -0.4206
  948MOL0     H25092   4.796   9.575   7.150  2.1258 -2.0843 -0.9388
  948MOL0     H25093   4.884   9.676   7.029 -0.3213  2.8304  0.5814
  948MOL0     H25094   4.708   9.796   7.245 -5.9493 -0.3918  0.2601
  948MOL0     H25095   4.763   9.867   7.097  0.8633 -1.9705 -0.3564
  948MOL0     H25096   4.599   9.704   6.968  0.8544 -1.1000  0.5683
  948MOL0     H25097   4.521   9.819   7.068  1.2026  1.8636 -1.0684
  948MOL0     H25098   4.347   9.732   6.981  2.8302  0.9014  2.2431
  948MOL0     H25099   4.120   9.649   6.984 -2.8109  1.6524  2.3890
  948MOL0     H25100   3.839   9.290   7.138 -2.0924  1.5081  2.6189
  948MOL0     H25101   3.627   9.191   7.086 -1.9803  1.2862  2.0359
  948MOL0     H25102   3.394   9.204   7.085 -1.8252  0.8514  0.5261
  948MOL0     H25103   3.450   9.097   6.968  0.9200  0.1483 -0.7544
  948MOL0     H25104   3.214   9.046   6.969 -0.7001  0.7503  0.1170
  948MOL0     H25105   3.246   9.146   6.830  2.5615  2.5783 -0.9149
  948MOL0     H25106   3.131   9.342   6.936 -1.9276 -0.3362 -2.4949
  948MOL0     H25107   3.146   9.295   7.089 -0.3729  0.7589 -0.2544
  948MOL0     H25108   2.980   9.177   6.858 -0.6392  1.2404  0.1606
  948MOL0     H25109   2.984   9.093   7.021 -5.0716  1.6643  2.1188
  948MOL0     H25110   2.924   9.387   6.961  1.5468  0.2869  1.6854
  948MOL0     H25111   2.873   9.286   7.103 -1.7166  0.2858 -0.6035
  948MOL0     H25112   2.778   9.248   6.822  2.5363 -0.4570  0.7302
  948MOL0     H25113   2.698   9.347   6.945 -0.6927 -0.2701 -1.1544
  948MOL0     H25114   2.724   9.035   6.978  0.5737 -0.6922 -0.5100
  948MOL0     H25115   2.653   9.149   7.093  1.4677  2.2488 -0.1921
  948MOL0     H25116   2.505   9.241   6.936 -0.7485  0.2427 -2.4975
  948MOL0     H25117   2.489   9.065   6.965  0.6243 -0.4803  0.1759
  948MOL0     H25118   3.561   9.506   6.787 -0.4877  1.4073  0.3919
  948MOL0     H25119   3.763   9.612   6.856  0.4840 -0.5762  0.1488
  948MOL0     H25120   4.176   9.469   7.364  0.1831 -0.7668 -1.4170
  948MOL0     H25121   4.417   9.544   7.353 -2.4376  1.6137  1.5474
  948MOL0     H25122   6.536   9.421   7.065  1.7141  0.9650 -1.3640
  948MOL0     H25123   6.745   9.536   7.134  1.2955 -1.4499  0.4567
  948MOL0     H25124   6.992   9.548   7.545 -1.6204  1.7406  0.0313
  948MOL0     H25125   7.228   9.591   7.631  1.8798  1.0617 -0.2918
  948MOL0     H25126   7.446   9.952   7.537  1.3032 -0.1666  2.4323
  948MOL0     H25127   7.466   9.860   7.397  0.4534  1.6920  0.0172
  948MOL0     H25128   7.639   9.794   7.649 -1.5342  0.5801  0.0543
  948MOL0     H25129   7.658   9.750   7.472  0.0987  0.6079 -2.0299
  948MOL0     H25130   7.693  10.025   7.613 -3.1634 -1.2916  0.3198
  948MOL0     H25131   7.708   9.991   7.436  1.2668  1.5843  0.4558
  948MOL0     H25132   7.868   9.816   7.634  0.5232 -0.3457 -0.1289
  948MOL0     H25133   7.922   9.869   7.478  0.3931  0.9016  0.3984
  948MOL0     H25134   8.078  10.160   7.752  0.1544 -1.1115  1.6636
  948MOL0     H25135   7.265   9.920   7.359 -1.5558 -0.5773 -2.6068
  948MOL0     H25136   7.047   9.870   7.281  0.9258  0.0514 -0.4032
  949MOL0     O25137   0.532   8.019   3.874 -0.0281  0.2787 -0.0489
  949MOL0     C25138   0.612   8.091   3.942  0.0866 -0.0869  0.2148
  949MOL0     O25139   0.582   8.143   4.069  0.3483 -1.2018  0.3898
  949MOL0     C25140   0.456   8.148   4.120  0.3998  0.0520  0.4432
  949MOL0     C25141   0.357   8.246   4.096 -0.5853 -0.4685  0.2533
  949MOL0     C25142   0.236   8.247   4.170  0.4345 -0.4796 -0.5993
  949MOL0     C25143   0.204   8.137   4.252 -0.2044  1.1403  0.1040
  949MOL0     O25144   0.088   8.142   4.327 -0.5962 -0.1540  0.8593
  949MOL0     C25145   0.031   8.021   4.381 -0.3586  0.4774  0.1306
  949MOL0     C25146  -0.082   8.019   4.482 -0.0037 -0.1040 -0.4993
  949MOL0     C25147  -0.211   8.076   4.414 -0.8011  0.6796 -0.6215
  949MOL0     C25148  -0.328   8.083   4.517  0.1473  0.4033  0.1770
  949MOL0     C25149  -0.453   8.140   4.452 -0.1855  0.3964  0.2387
  949MOL0     C25150  -0.575   8.126   4.542  0.2256  0.3731 -0.6457
  949MOL0     C25151  -0.709   8.171   4.486 -0.2219 -0.2722  1.3022
  949MOL0     C25152  -0.712   8.315   4.425 -0.8453  0.8932 -0.0773
  949MOL0     N25153  -0.849   8.361   4.394 -0.1906  0.0188  0.7389
  949MOL0     C25154  -0.916   8.353   4.272  0.9459  0.1835  0.1546
  949MOL0     C25155  -1.038   8.402   4.297 -0.7083 -0.2285 -0.0684
  949MOL0     C25156  -1.150   8.414   4.195  0.3575  0.2890 -0.6812
  949MOL0     C25157  -1.204   8.276   4.149 -0.3500  0.0318 -0.4356
  949MOL0     C25158  -1.341   8.289   4.079  0.3557 -0.4052 -0.0809
  949MOL0     C25159  -1.408   8.153   4.044  0.5661 -0.1020  0.4254
  949MOL0     O25160  -1.511   8.170   3.942  0.1419  0.1731 -0.5891
  949MOL0     C25161  -1.630   8.238   3.984  0.4637 -0.2582  0.6109
  949MOL0     C25162  -1.679   8.339   3.904  0.7010  0.2524  0.3715
  949MOL0     C25163  -1.795   8.418   3.945 -0.0983 -0.4449 -0.0402
  949MOL0     C25164  -1.871   8.390   4.056 -0.2420  0.4648 -0.0252
  949MOL0     C25165  -2.005   8.452   4.082  0.4196  0.1692  0.1394
  949MOL0     O25166  -2.089   8.376   4.162 -0.5169 -0.2880  0.4440
  949MOL0     C25167  -2.222   8.422   4.170 -0.6022 -0.4001  0.0840
  949MOL0     C25168  -2.310   8.438   4.057 -1.2054  0.1897 -0.2420
  949MOL0     C25169  -2.442   8.480   4.079  0.3417  1.0501 -0.1391
  949MOL0     C25170  -2.491   8.506   4.207 -0.1738  0.1387  0.1705
  949MOL0     O25171  -2.623   8.547   4.236 -0.2131  0.1078 -0.6499
  949MOL0     C25172  -2.675   8.653   4.155  0.3270  0.4497 -0.1958
  949MOL0     C25173  -2.806   8.714   4.218 -0.3464 -0.2117  0.2972
  949MOL0     C25174  -2.904   8.604   4.224  1.0985 -0.1301 -0.6550
  949MOL0     C25175  -3.023   8.642   4.302 -0.1290  0.3400 -0.4203
  949MOL0     C25176  -3.143   8.547   4.269 -0.0347 -0.2106  0.2495
  949MOL0     C25177  -3.213   8.601   4.149 -0.5544 -0.2612  0.3451
  949MOL0     C25178  -3.329   8.516   4.100  0.8201 -0.8251 -0.9844
  949MOL0     C25179  -3.464   8.575   4.147  0.2036  0.7665  0.0516
  949MOL0    Cl25180  -3.604   8.534   4.041 -0.1501 -0.1327 -0.0163
  949MOL0     C25181  -2.410   8.476   4.318 -0.0739  0.2139  0.2799
  949MOL0     C25182  -2.277   8.442   4.299 -0.4260  0.7298 -0.7980
  949MOL0     O25183  -2.045   8.546   4.014 -0.0410  0.0844 -0.5058
  949MOL0     C25184  -1.819   8.283   4.141 -0.0711 -0.5334 -0.5330
  949MOL0     C25185  -1.699   8.216   4.107 -0.2312  0.5302  0.0934
  949MOL0     N25186  -1.047   8.445   4.426  0.4107  0.3377 -0.5822
  949MOL0     N25187  -0.931   8.424   4.479  0.3476 -0.2092 -0.0689
  949MOL0     C25188   0.304   8.044   4.277  0.1535  0.7452  0.2602
  949MOL0     C25189   0.425   8.050   4.217 -0.2374  0.6279  0.1326
  949MOL0     C25190   0.743   8.113   3.874 -0.8267  0.2601 -0.8223
  949MOL0     C25191   0.750   8.100   3.735  0.5511 -0.4485 -0.0216
  949MOL0     C25192   0.875   8.098   3.673 -0.4230  0.3720 -0.6230
  949MOL0     C25193   0.996   8.139   3.734  0.0219  0.3024 -0.7023
  949MOL0     O25194   1.111   8.131   3.665 -0.3216 -0.4448 -0.6356
  949MOL0     C25195   1.232   8.152   3.742 -0.5642 -0.5534  0.3826
  949MOL0     C25196   1.348   8.112   3.646  0.7607 -0.3964 -0.4763
  949MOL0     C25197   1.486   8.128   3.714 -0.2882 -0.4249  0.2237
  949MOL0     C25198   1.590   8.087   3.603 -0.2768 -0.4103  0.5243
  949MOL0     C25199   1.730   8.078   3.650 -0.1294 -0.5118  0.2114
  949MOL0     C25200   1.842   8.079   3.695  0.5001  0.3355 -0.1951
  949MOL0     C25201   0.974   8.178   3.877  0.1978  0.2471  0.0476
  949MOL0     C25202   0.850   8.163   3.943  0.0062  0.2791  0.2532
  949MOL0     H25203   0.386   8.331   4.035  0.4003 -2.5368 -2.3549
  949MOL0     H25204   0.157   8.321   4.165 -3.2711 -4.1027 -1.5101
  949MOL0     H25205   0.109   7.971   4.439  0.5907  0.1726 -1.3533
  949MOL0     H25206   0.007   7.953   4.299 -1.1522  1.1568 -0.2153
  949MOL0     H25207  -0.062   8.093   4.559  0.6075 -0.0482 -0.7086
  949MOL0     H25208  -0.089   7.922   4.533  0.2692 -1.1926 -2.4112
  949MOL0     H25209  -0.229   8.006   4.332  2.3377 -0.9313 -0.0901
  949MOL0     H25210  -0.184   8.175   4.377  0.1354  0.8190  0.3772
  949MOL0     H25211  -0.359   7.982   4.547 -3.9441  1.5877  0.4811
  949MOL0     H25212  -0.296   8.134   4.608  1.1307 -0.1426  0.1593
  949MOL0     H25213  -0.463   8.093   4.354  3.4347  0.8231 -0.4938
  949MOL0     H25214  -0.428   8.244   4.430  0.4301 -0.0314 -1.2420
  949MOL0     H25215  -0.566   8.189   4.631 -0.1884  1.0577 -1.0816
  949MOL0     H25216  -0.590   8.020   4.567 -1.7117  0.8602  0.5352
  949MOL0     H25217  -0.739   8.114   4.398  0.1417  1.0482  0.2987
  949MOL0     H25218  -0.778   8.151   4.569 -0.4179 -1.8287  0.7977
  949MOL0     H25219  -0.653   8.327   4.334  1.1662 -1.0350  0.8889
  949MOL0     H25220  -0.661   8.375   4.501  0.7418 -2.5707  1.7929
  949MOL0     H25221  -0.885   8.311   4.177 -2.6382 -1.7302 -0.3579
  949MOL0     H25222  -1.133   8.482   4.110 -2.0064  0.7102 -0.8712
  949MOL0     H25223  -1.238   8.461   4.240 -0.1586 -1.4526  0.1954
  949MOL0     H25224  -1.221   8.205   4.230 -2.4433  1.0394  0.0560
  949MOL0     H25225  -1.122   8.231   4.091  1.5157  0.3227  1.8004
  949MOL0     H25226  -1.409   8.333   4.153  1.7812 -1.2610  1.8298
  949MOL0     H25227  -1.333   8.346   3.986 -0.1886  1.0221  0.7164
  949MOL0     H25228  -1.454   8.110   4.133  1.0010  2.5162  2.0216
  949MOL0     H25229  -1.332   8.090   3.997  2.4818  2.4068 -0.0079
  949MOL0     H25230  -1.606   8.365   3.829 -2.6205 -1.6889 -3.9780
  949MOL0     H25231  -1.828   8.502   3.884 -2.1250  0.2825  1.9219
  949MOL0     H25232  -2.265   8.404   3.964  3.8813  0.2180  1.8468
  949MOL0     H25233  -2.511   8.474   3.995  1.0194 -2.2499 -0.5930
  949MOL0     H25234  -2.704   8.610   4.059 -0.8735 -1.0110  0.7585
  949MOL0     H25235  -2.595   8.720   4.125 -0.8642  0.9160 -2.6155
  949MOL0     H25236  -2.841   8.808   4.175 -0.0318 -1.4367 -2.8345
  949MOL0     H25237  -2.784   8.739   4.323 -0.5158 -1.3380  0.6219
  949MOL0     H25238  -2.863   8.520   4.281  2.1182  0.4747 -0.4706
  949MOL0     H25239  -2.931   8.590   4.120 -0.7604  0.1897 -0.2382
  949MOL0     H25240  -2.998   8.638   4.409 -0.5280 -0.9156 -0.3546
  949MOL0     H25241  -3.046   8.747   4.280  0.0553  0.8807  1.7277
  949MOL0     H25242  -3.212   8.544   4.354  0.9650 -2.1560  1.0833
  949MOL0     H25243  -3.120   8.442   4.247 -0.6668 -0.5037  0.9487
  949MOL0     H25244  -3.138   8.606   4.069  0.2353  3.9859  1.1154
  949MOL0     H25245  -3.234   8.708   4.163 -1.5639 -0.5518  1.1423
  949MOL0     H25246  -3.322   8.510   3.991  1.9725 -0.5515 -0.9410
  949MOL0     H25247  -3.324   8.415   4.140  0.4408 -1.1074 -1.6321
  949MOL0     H25248  -3.457   8.683   4.160  1.2712  0.7545 -0.3653
  949MOL0     H25249  -3.488   8.536   4.246  1.1467  1.4794  0.5741
  949MOL0     H25250  -2.448   8.478   4.420 -0.7593 -0.3447  0.0404
  949MOL0     H25251  -2.231   8.420   4.395  1.5969  1.0092 -1.6461
  949MOL0     H25252  -1.872   8.248   4.229 -0.7584  0.1322 -0.6728
  949MOL0     H25253  -1.666   8.137   4.174 -1.2915 -0.7720 -0.8582
  949MOL0     H25254   0.295   7.961   4.347 -1.1024  0.8549  0.2575
  949MOL0     H25255   0.495   7.972   4.246 -0.3675 -0.1167 -1.4785
  949MOL0     H25256   0.665   8.064   3.678 -0.1627 -1.5728  1.6635
  949MOL0     H25257   0.882   8.060   3.571  0.3114 -4.6534  1.0122
  949MOL0     H25258   1.228   8.081   3.825  1.2393  0.6586  1.5729
  949MOL0     H25259   1.231   8.256   3.775 -0.3956  0.4673 -2.5536
  949MOL0     H25260   1.331   8.008   3.615  0.5198 -0.2501 -0.8405
  949MOL0     H25261   1.346   8.180   3.560 -1.0678  0.2206  0.0274
  949MOL0     H25262   1.487   8.059   3.798 -3.0668 -0.6425  0.1883
  949MOL0     H25263   1.516   8.230   3.741 -0.5001 -0.3152  0.0528
  949MOL0     H25264   1.567   7.992   3.554 -0.1854  0.9785 -2.4662
  949MOL0     H25265   1.589   8.160   3.521  1.8854  1.2454  1.8890
  949MOL0     H25266   1.948   8.077   3.710  0.4446 -1.1068  0.1776
  949MOL0     H25267   1.064   8.198   3.934  0.4925  2.5646 -1.1271
  949MOL0     H25268   0.848   8.182   4.050 -0.7239  1.0382  0.1106
  950MOL0     O25269   6.299   9.735   5.034  0.3869  0.4378 -0.4838
  950MOL0     C25270   6.359   9.842   5.061  0.4986  0.1303  0.0810
  950MOL0     O25271   6.296   9.965   5.060 -0.4901  0.1047  0.3075
  950MOL0     C25272   6.166   9.971   5.035 -0.0636 -0.2529 -0.0224
  950MOL0     C25273   6.071  10.000   5.131 -0.0184 -0.2741 -0.2143
  950MOL0     C25274   5.937  10.013   5.099  0.0064  0.2345  0.6040
  950MOL0     C25275   5.891   9.991   4.969 -0.2910  0.0396 -0.3708
  950MOL0     O25276   5.755   9.991   4.935 -0.1307 -0.2870  0.1012
  950MOL0     C25277   5.674  10.082   5.012 -0.7790  0.3319  0.9491
  950MOL0     C25278   5.540  10.106   4.947 -0.0698 -0.3740  0.0549
  950MOL0     C25279   5.459   9.980   4.910  0.5211  0.4394 -0.2475
  950MOL0     C25280   5.315  10.005   4.859 -0.8935  0.0378 -0.7173
  950MOL0     C25281   5.316  10.027   4.712  0.4259 -0.5105  0.4689
  950MOL0     C25282   5.176  10.059   4.666 -0.0919  0.2799 -0.2730
  950MOL0     C25283   5.175  10.099   4.519  0.7471  0.8791  0.5939
  950MOL0     C25284   5.233  10.241   4.495  0.1257 -1.0457  0.3127
  950MOL0     N25285   5.157  10.352   4.551 -0.4080  0.3695  0.2010
  950MOL0     C25286   5.200  10.483   4.555  0.4378 -0.6303 -0.6553
  950MOL0     C25287   5.086  10.553   4.590  0.4296 -0.0651  0.1498
  950MOL0     C25288   5.068  10.706   4.614 -0.1020  0.0039  0.1481
  950MOL0     C25289   5.056  10.780   4.480  0.7093 -0.8275 -0.8049
  950MOL0     C25290   4.914  10.783   4.411  0.6177 -0.4129 -0.5962
  950MOL0     C25291   4.809  10.840   4.505  0.9371  0.0874 -0.7825
  950MOL0     O25292   4.687  10.868   4.438  0.1595 -0.0358  0.4989
  950MOL0     C25293   4.566  10.893   4.507 -0.0820  0.3568 -0.5905
  950MOL0     C25294   4.554  10.910   4.648  0.4178 -0.3451 -0.0876
  950MOL0     C25295   4.433  10.936   4.702  0.3232 -0.7594  0.3434
  950MOL0     C25296   4.319  10.946   4.619  0.9317 -0.1362 -0.0875
  950MOL0     C25297   4.182  10.966   4.681 -0.5365 -0.7004  0.6202
  950MOL0     O25298   4.089  10.992   4.589 -0.2340 -0.4166  0.4910
  950MOL0     C25299   3.961  11.030   4.613 -0.1125 -0.5215  0.3762
  950MOL0     C25300   3.931  11.128   4.708  0.7540 -0.0126  0.0402
  950MOL0     C25301   3.795  11.166   4.734  0.0051  0.2925  0.7862
  950MOL0     C25302   3.688  11.120   4.648  0.2613  0.8297 -0.2772
  950MOL0     O25303   3.554  11.137   4.666  0.0518 -0.7569 -0.0220
  950MOL0     C25304   3.516  11.224   4.772  0.5503 -0.1146  0.0347
  950MOL0     C25305   3.364  11.198   4.789 -0.0933 -0.0947 -0.4702
  950MOL0     C25306   3.303  11.317   4.871  0.0366 -0.3230  0.5888
  950MOL0     C25307   3.144  11.323   4.862 -0.2897 -0.0315  0.0767
  950MOL0     C25308   3.082  11.406   4.983  0.1181  0.6721  0.1788
  950MOL0     C25309   2.927  11.415   4.988  0.4300 -0.3954 -0.0884
  950MOL0     C25310   2.847  11.288   4.982  0.6806 -0.1225 -0.5771
  950MOL0     C25311   2.707  11.305   5.036  0.2810  0.4611  0.0966
  950MOL0    Cl25312   2.604  11.198   4.944 -0.0126  0.2878 -0.3196
  950MOL0     C25313   3.725  11.029   4.543  0.0698 -0.7177 -0.6292
  950MOL0     C25314   3.858  10.988   4.534  0.2598  0.8017  0.2289
  950MOL0     O25315   4.164  10.955   4.799  0.4002 -0.1897  0.3183
  950MOL0     C25316   4.331  10.927   4.483 -0.6753 -0.3663  0.3628
  950MOL0     C25317   4.453  10.906   4.427 -0.2866 -0.5724  0.1409
  950MOL0     N25318   4.978  10.469   4.605  0.1165  0.2281  0.1396
  950MOL0     N25319   5.021  10.349   4.569 -0.6270 -0.6682  0.0309
  950MOL0     C25320   5.985   9.965   4.869 -0.4172 -0.4812  0.4692
  950MOL0     C25321   6.123   9.948   4.905  0.6732  0.2422  0.1437
  950MOL0     C25322   6.492   9.844   5.111 -0.0499 -0.4418  0.8046
  950MOL0     C25323   6.565   9.730   5.159 -0.3224 -1.1344 -0.5289
  950MOL0     C25324   6.689   9.739   5.213  0.7743 -0.1166  0.3061
  950MOL0     C25325   6.751   9.865   5.223 -0.3004 -0.1731  0.0339
  950MOL0     O25326   6.876   9.878   5.279 -0.2847 -0.2415 -0.0376
  950MOL0     C25327   6.979   9.799   5.214 -0.3476 -0.3452 -0.2079
  950MOL0     C25328   7.117   9.852   5.249  0.1084  0.6248 -0.4414
  950MOL0     C25329   7.138   9.987   5.179 -0.1723 -0.3157  0.4461
  950MOL0     C25330   7.280  10.031   5.168 -0.3589  0.6595 -0.1316
  950MOL0     C25331   7.321  10.076   5.300  0.4941 -0.1311  0.5909
  950MOL0     C25332   7.347  10.104   5.411  0.5439  0.4478 -0.1543
  950MOL0     C25333   6.686   9.982   5.183  0.2680 -0.0170  0.5644
  950MOL0     C25334   6.554   9.974   5.130  0.2042 -0.7033 -0.3596
  950MOL0     H25335   6.102  10.013   5.234 -0.4767  0.3913 -0.1558
  950MOL0     H25336   5.871  10.030   5.183 -0.6311 -1.0587  0.3808
  950MOL0     H25337   5.733  10.172   5.030  0.0213 -0.1815  0.9611
  950MOL0     H25338   5.649  10.046   5.112 -1.7588  0.6008  0.8125
  950MOL0     H25339   5.542  10.161   4.853 -0.4229  2.4139  1.5920
  950MOL0     H25340   5.482  10.168   5.016 -0.5674 -1.3956  0.5870
  950MOL0     H25341   5.446   9.919   5.000 -0.7668 -1.0804 -1.4215
  950MOL0     H25342   5.512   9.915   4.840  0.6505 -0.0008  0.2440
  950MOL0     H25343   5.261   9.912   4.879 -2.3592  0.9581 -0.2418
  950MOL0     H25344   5.269  10.087   4.914 -2.9077 -1.4856 -0.0198
  950MOL0     H25345   5.352   9.937   4.661  0.9996  1.1815 -2.2958
  950MOL0     H25346   5.390  10.105   4.693  0.8254 -0.9115  0.3577
  950MOL0     H25347   5.135  10.142   4.724 -1.3939 -0.3809 -0.2176
  950MOL0     H25348   5.106   9.979   4.691  0.1652  0.2990  0.5329
  950MOL0     H25349   5.221  10.026   4.452  0.5900  0.3803  1.0316
  950MOL0     H25350   5.071  10.110   4.486  1.0525  2.3109  0.0242
  950MOL0     H25351   5.245  10.256   4.387  0.2884  1.8255  0.6565
  950MOL0     H25352   5.333  10.252   4.539 -0.2177  2.3717  0.4999
  950MOL0     H25353   5.290  10.530   4.518  0.2120  0.3841  0.0440
  950MOL0     H25354   5.154  10.738   4.673  1.4919 -3.2804 -0.1716
  950MOL0     H25355   4.982  10.723   4.679  0.5055  0.8510  0.7537
  950MOL0     H25356   5.121  10.735   4.404  0.1730 -0.9176 -1.2134
  950MOL0     H25357   5.081  10.886   4.485  2.5375 -1.1831 -1.6164
  950MOL0     H25358   4.915  10.838   4.317  1.8409  1.8110  0.6293
  950MOL0     H25359   4.882  10.679   4.399 -2.2991  0.1983  0.7937
  950MOL0     H25360   4.852  10.929   4.552  0.5060 -0.1498  0.0852
  950MOL0     H25361   4.790  10.765   4.582 -0.7667 -0.0395 -1.2770
  950MOL0     H25362   4.641  10.900   4.711  0.1425  0.4412  0.4407
  950MOL0     H25363   4.433  10.959   4.808  1.0928 -0.0340  0.1954
  950MOL0     H25364   4.018  11.160   4.765  1.4859 -0.9413 -0.5157
  950MOL0     H25365   3.768  11.223   4.823 -1.9088  1.0146 -0.2065
  950MOL0     H25366   3.531  11.330   4.746  1.7292 -0.2792 -0.0051
  950MOL0     H25367   3.570  11.196   4.863  1.5769  0.4552 -0.3845
  950MOL0     H25368   3.353  11.100   4.838  2.3766 -0.8377 -1.2764
  950MOL0     H25369   3.313  11.191   4.693 -2.0482 -3.3554  0.6141
  950MOL0     H25370   3.331  11.419   4.843 -1.6564  0.5889  1.9705
  950MOL0     H25371   3.337  11.307   4.975 -1.1069  3.1846  1.4315
  950MOL0     H25372   3.101  11.352   4.765 -0.2341  0.7727  0.2854
  950MOL0     H25373   3.106  11.222   4.876  2.2947 -1.2932 -1.2405
  950MOL0     H25374   3.132  11.503   4.983  2.5304 -0.4418  2.1999
  950MOL0     H25375   3.114  11.358   5.077  0.7124 -2.4077 -1.4423
  950MOL0     H25376   2.889  11.474   4.905  0.1293  0.9853  0.9793
  950MOL0     H25377   2.897  11.460   5.084  0.8784  3.9297 -1.7422
  950MOL0     H25378   2.837  11.255   4.879  1.5265  0.8282 -0.9765
  950MOL0     H25379   2.892  11.202   5.033 -1.4246 -1.2153 -0.4426
  950MOL0     H25380   2.675  11.407   5.012  1.4766  0.4989 -1.5601
  950MOL0     H25381   2.687  11.289   5.142 -1.3250  1.3317 -0.0428
  950MOL0     H25382   3.647  10.976   4.489  0.7894 -0.2844 -2.1505
  950MOL0     H25383   3.871  10.905   4.466  0.4572  1.9542 -1.1838
  950MOL0     H25384   4.246  10.931   4.415  0.0656  0.0241 -0.5644
  950MOL0     H25385   4.464  10.900   4.319  0.2735 -0.5031  0.1910
  950MOL0     H25386   5.953   9.936   4.770 -0.1135 -2.6540  0.9489
  950MOL0     H25387   6.193   9.914   4.830  0.6338 -0.5286  0.4487
  950MOL0     H25388   6.508   9.638   5.151 -2.9115  0.1434  1.6610
  950MOL0     H25389   6.728   9.645   5.253 -2.9718 -1.6069  0.9046
  950MOL0     H25390   6.955   9.810   5.108  0.1788  1.2049 -0.1997
  950MOL0     H25391   6.969   9.693   5.240 -0.8124 -0.4629 -0.8359
  950MOL0     H25392   7.130   9.853   5.358 -0.8499  0.5497 -0.3146
  950MOL0     H25393   7.185   9.781   5.203 -0.0498  1.6369 -2.3679
  950MOL0     H25394   7.091  10.070   5.231  2.0526  3.0743 -2.4939
  950MOL0     H25395   7.094   9.972   5.080  0.4206  0.2086  0.0935
  950MOL0     H25396   7.348   9.947   5.148 -1.3687 -0.4470  0.9045
  950MOL0     H25397   7.294  10.110   5.094 -0.3701 -0.2342 -1.1251
  950MOL0     H25398   7.367  10.131   5.513  1.0541  3.0390 -0.8881
  950MOL0     H25399   6.736  10.077   5.198 -1.8786  1.0892  1.1557
  950MOL0     H25400   6.514  10.068   5.092  0.0878  0.9832  3.3975
  951MOL0     O25401   4.482   3.706   8.480  0.4516  0.4266  0.4618
  951MOL0     C25402   4.505   3.810   8.423 -0.4292 -0.5002 -0.1242
  951MOL0     O25403   4.422   3.919   8.416 -0.3762 -0.0834 -0.3000
  951MOL0     C25404   4.310   3.903   8.493 -0.6467  0.5973  0.6011
  951MOL0     C25405   4.315   3.911   8.633 -0.0337 -1.2460  0.1594
  951MOL0     C25406   4.190   3.894   8.706  0.8156 -0.2673  0.5739
  951MOL0     C25407   4.069   3.889   8.637 -0.1131 -0.2285  0.1239
  951MOL0     O25408   3.955   3.878   8.709  0.6663 -0.0089  0.4357
  951MOL0     C25409   3.826   3.867   8.643  0.4488  0.7881 -0.4613
  951MOL0     C25410   3.721   3.867   8.752  0.3612 -0.2495  0.2791
  951MOL0     C25411   3.592   3.936   8.705  0.0983 -0.1787  0.5005
  951MOL0     C25412   3.477   3.896   8.803  0.4355  0.1453 -1.0706
  951MOL0     C25413   3.341   3.946   8.769  0.6427 -0.4181  0.4971
  951MOL0     C25414   3.287   3.871   8.648  0.8494 -0.3596 -0.2244
  951MOL0     C25415   3.141   3.885   8.626 -0.7233 -0.3422 -0.1533
  951MOL0     C25416   3.088   4.028   8.586 -0.4579  0.2074 -0.2780
  951MOL0     N25417   3.159   4.109   8.490 -0.6575 -0.2333  0.0676
  951MOL0     C25418   3.259   4.194   8.526  0.0223 -0.2191 -0.6970
  951MOL0     C25419   3.288   4.273   8.418  0.3432  0.3656 -0.8989
  951MOL0     C25420   3.369   4.395   8.427  0.4766 -1.2668  0.1201
  951MOL0     C25421   3.302   4.529   8.450  0.0233  0.5675  0.3659
  951MOL0     C25422   3.393   4.651   8.475 -0.1123  0.1721  0.2960
  951MOL0     C25423   3.311   4.772   8.519 -0.1825  0.4773  0.2630
  951MOL0     O25424   3.192   4.800   8.439  0.1855  0.2914 -0.7119
  951MOL0     C25425   3.065   4.744   8.462 -0.7257 -0.5266  0.0381
  951MOL0     C25426   3.026   4.686   8.586  0.1333  0.4861  1.1698
  951MOL0     C25427   2.887   4.656   8.606  0.4282  0.4189 -0.2853
  951MOL0     C25428   2.791   4.693   8.503 -0.4366  0.9215  0.8724
  951MOL0     C25429   2.646   4.669   8.507  0.6532  0.3019 -0.0763
  951MOL0     O25430   2.580   4.648   8.390  0.2158 -0.1165  0.1438
  951MOL0     C25431   2.456   4.593   8.399 -0.6339  0.3221 -1.0800
  951MOL0     C25432   2.439   4.456   8.442  0.4915 -0.1925  0.3230
  951MOL0     C25433   2.308   4.409   8.450  0.0040 -0.0211 -0.0370
  951MOL0     C25434   2.194   4.491   8.431 -1.2014 -0.1485 -0.1592
  951MOL0     O25435   2.070   4.445   8.446 -0.4907 -0.5481  0.4595
  951MOL0     C25436   2.034   4.331   8.368  0.6348  0.0129 -0.3726
  951MOL0     C25437   1.896   4.337   8.311  0.2721 -0.3048 -0.2732
  951MOL0     C25438   1.878   4.470   8.227 -0.5291 -0.2616  0.2475
  951MOL0     C25439   1.985   4.496   8.119  0.2788 -0.0927  0.0064
  951MOL0     C25440   1.933   4.581   8.002  0.4673 -0.3069 -0.1320
  951MOL0     C25441   1.871   4.719   8.035 -0.0884 -1.0799 -0.2975
  951MOL0     C25442   1.968   4.809   8.103 -0.6785 -0.0223 -0.5844
  951MOL0     C25443   1.921   4.954   8.120 -0.1527 -0.5996 -0.9362
  951MOL0    Cl25444   1.787   4.973   8.233 -0.2372 -0.0147  0.0996
  951MOL0     C25445   2.212   4.626   8.395 -0.6756  0.4545 -0.3102
  951MOL0     C25446   2.342   4.669   8.383 -0.1297 -0.3074  0.5995
  951MOL0     O25447   2.594   4.653   8.622  0.0639  0.0289 -0.2135
  951MOL0     C25448   2.843   4.758   8.387 -0.9536 -0.7643  0.1412
  951MOL0     C25449   2.981   4.785   8.369  0.8574  0.4408 -0.3450
  951MOL0     N25450   3.206   4.225   8.314  1.0913 -0.5717 -0.5688
  951MOL0     N25451   3.129   4.133   8.363 -0.0010 -0.6143  0.4335
  951MOL0     C25452   4.078   3.885   8.497  0.3189  0.1603 -0.2950
  951MOL0     C25453   4.193   3.896   8.426 -0.9682  0.7666  0.3136
  951MOL0     C25454   4.634   3.809   8.343 -0.3616 -0.4851  0.7776
  951MOL0     C25455   4.719   3.692   8.343  0.3439 -0.0967 -0.5468
  951MOL0     C25456   4.845   3.702   8.290 -0.0949  1.0360  0.0183
  951MOL0     C25457   4.893   3.822   8.222 -0.2426 -0.3151 -0.1026
  951MOL0     O25458   5.020   3.837   8.168  0.4828 -0.2862 -0.2469
  951MOL0     C25459   5.131   3.751   8.203  0.3949 -0.3308  0.1292
  951MOL0     C25460   5.249   3.836   8.225 -0.3804 -0.0474 -0.3826
  951MOL0     C25461   5.371   3.756   8.272  1.2581  0.5981 -0.1292
  951MOL0     C25462   5.489   3.838   8.262  0.0220  0.0693 -0.4973
  951MOL0     C25463   5.615   3.768   8.293  1.0664  0.0523 -0.4679
  951MOL0     C25464   5.719   3.711   8.312 -0.1926 -0.2809 -0.5113
  951MOL0     C25465   4.803   3.936   8.226  0.3345 -0.1982  0.2158
  951MOL0     C25466   4.673   3.929   8.281 -0.2763 -0.3658  0.0585
  951MOL0     H25467   4.408   3.928   8.686 -0.2721  0.0236  0.2001
  951MOL0     H25468   4.194   3.894   8.814  1.3671 -0.9652  0.5599
  951MOL0     H25469   3.812   3.789   8.568  1.9990  1.5904 -1.6590
  951MOL0     H25470   3.808   3.961   8.591 -4.1155  0.0791 -0.5321
  951MOL0     H25471   3.749   3.913   8.848 -0.1529  0.2537  0.1898
  951MOL0     H25472   3.706   3.765   8.788 -0.1050 -0.4455 -0.4679
  951MOL0     H25473   3.562   3.916   8.602 -0.7165  1.0586  0.4785
  951MOL0     H25474   3.595   4.045   8.708 -0.0671 -0.1849  1.0056
  951MOL0     H25475   3.472   3.788   8.819  1.2843  0.2680  0.0790
  951MOL0     H25476   3.491   3.938   8.903 -2.9472  1.3097 -0.9512
  951MOL0     H25477   3.328   4.055   8.765 -1.2758 -0.4757  2.7645
  951MOL0     H25478   3.272   3.923   8.851  0.0902  0.9903  0.4505
  951MOL0     H25479   3.304   3.764   8.662 -1.0562 -0.4296  2.1988
  951MOL0     H25480   3.328   3.909   8.554  0.7152  1.4618  0.4201
  951MOL0     H25481   3.112   3.813   8.549  0.2661 -2.7785  1.6288
  951MOL0     H25482   3.095   3.848   8.719  1.4162 -1.0847  0.6757
  951MOL0     H25483   3.084   4.080   8.681  0.6374  1.2307 -0.7654
  951MOL0     H25484   2.984   4.018   8.556 -0.4770  0.0073 -0.1495
  951MOL0     H25485   3.300   4.207   8.626  1.0024 -0.6472 -1.0246
  951MOL0     H25486   3.424   4.402   8.333  0.8084 -3.3304  0.1154
  951MOL0     H25487   3.450   4.388   8.500 -0.8920  0.4627  1.9050
  951MOL0     H25488   3.240   4.506   8.537 -1.9539  0.0233 -1.1027
  951MOL0     H25489   3.235   4.548   8.366  1.5598  3.2453 -0.3674
  951MOL0     H25490   3.472   4.622   8.544  0.0101 -2.1467 -0.7013
  951MOL0     H25491   3.445   4.664   8.379 -1.4785 -0.3668 -0.5486
  951MOL0     H25492   3.368   4.865   8.519 -0.2154  0.4985 -0.0153
  951MOL0     H25493   3.284   4.770   8.625 -1.6947  1.5680 -0.0701
  951MOL0     H25494   3.101   4.679   8.664  0.6520 -0.1711  0.6246
  951MOL0     H25495   2.851   4.597   8.689 -0.4248 -0.3928 -1.2035
  951MOL0     H25496   2.524   4.402   8.483 -0.7203 -1.4823  1.2052
  951MOL0     H25497   2.307   4.312   8.498  1.6100 -0.1885 -0.2888
  951MOL0     H25498   2.051   4.244   8.432  2.0595 -0.4499 -1.3288
  951MOL0     H25499   2.103   4.320   8.284 -1.2891  0.9443 -2.1432
  951MOL0     H25500   1.815   4.330   8.384  0.1295 -0.4168 -0.4405
  951MOL0     H25501   1.882   4.264   8.231 -0.7063  1.5489 -1.8598
  951MOL0     H25502   1.885   4.553   8.298  0.4730 -0.6588  0.6363
  951MOL0     H25503   1.781   4.473   8.178 -1.7655 -0.5617  2.5217
  951MOL0     H25504   2.066   4.532   8.182 -0.3838 -0.8167  1.3222
  951MOL0     H25505   2.029   4.403   8.081  5.2021  0.2848  3.8574
  951MOL0     H25506   1.857   4.517   7.955 -0.6268  1.6653 -1.1848
  951MOL0     H25507   2.016   4.583   7.931  1.0682 -1.1451  0.5231
  951MOL0     H25508   1.775   4.706   8.085 -1.5781  0.3328 -2.5951
  951MOL0     H25509   1.844   4.765   7.940  1.2760  0.7177  0.1360
  951MOL0     H25510   1.974   4.775   8.207  1.4729  1.4191 -0.1830
  951MOL0     H25511   2.067   4.799   8.058  0.0858 -1.4476  1.2631
  951MOL0     H25512   1.902   5.005   8.025 -0.0167 -1.9452 -1.7214
  951MOL0     H25513   1.999   5.017   8.163 -1.3242  1.1651 -1.3034
  951MOL0     H25514   2.121   4.684   8.383 -1.2099  0.0159  1.3538
  951MOL0     H25515   2.363   4.774   8.364  0.3235 -0.6714 -0.9999
  951MOL0     H25516   2.769   4.774   8.309 -3.4078 -1.8483  2.0767
  951MOL0     H25517   3.020   4.824   8.275  3.3781 -1.3114 -0.1375
  951MOL0     H25518   3.987   3.881   8.438 -0.2668  1.0752  0.5072
  951MOL0     H25519   4.197   3.889   8.318  0.5356 -2.1904  0.4547
  951MOL0     H25520   4.671   3.614   8.401  0.4844  2.5736  3.5555
  951MOL0     H25521   4.907   3.613   8.283 -0.1661  1.0827 -1.9595
  951MOL0     H25522   5.152   3.682   8.122  2.2984  1.8044 -1.3161
  951MOL0     H25523   5.118   3.690   8.294  0.8837  2.6633  2.3713
  951MOL0     H25524   5.283   3.889   8.135  0.8654  0.1400  0.1751
  951MOL0     H25525   5.231   3.915   8.299  2.0186  0.7078 -0.5123
  951MOL0     H25526   5.388   3.669   8.208 -1.5925 -0.4274  0.3783
  951MOL0     H25527   5.354   3.720   8.374  2.1893  0.5885  0.0390
  951MOL0     H25528   5.494   3.871   8.158 -2.4760 -2.2889 -1.4791
  951MOL0     H25529   5.485   3.929   8.323  0.2919 -0.6293  0.5824
  951MOL0     H25530   5.817   3.676   8.340  0.9143  0.1829 -3.4524
  951MOL0     H25531   4.829   4.037   8.198 -1.3778  1.5292  4.1850
  951MOL0     H25532   4.622   4.024   8.285  2.2938  1.0790  0.7362
  952MOL0     O25533   1.434   4.219   3.867 -0.3504 -0.2725  0.9414
  952MOL0     C25534   1.439   4.113   3.795 -0.2170  0.8369 -0.4054
  952MOL0     O25535   1.340   4.019   3.789  0.6651 -0.2284 -0.2698
  952MOL0     C25536   1.213   4.057   3.827  0.1835  0.5127  0.2857
  952MOL0     C25537   1.168   4.039   3.959 -0.1124  0.3945 -0.4044
  952MOL0     C25538   1.039   4.071   3.997 -0.1554 -1.6240 -0.0176
  952MOL0     C25539   0.941   4.115   3.907  0.0950  0.6220 -0.4416
  952MOL0     O25540   0.816   4.145   3.957  0.5219  0.4439 -0.0315
  952MOL0     C25541   0.702   4.108   3.875 -0.0578  1.1732 -0.8088
  952MOL0     C25542   0.586   4.088   3.975 -0.4163  0.0760 -0.1153
  952MOL0     C25543   0.444   4.105   3.894 -0.1932  0.1292 -0.3072
  952MOL0     C25544   0.331   4.118   4.004 -0.4748  0.6091  0.0848
  952MOL0     C25545   0.198   4.081   3.954  0.1218  0.8379  0.3690
  952MOL0     C25546   0.086   4.145   4.031  0.0325  0.1254  0.3811
  952MOL0     C25547  -0.058   4.099   3.997  0.9598 -0.6084  0.7808
  952MOL0     C25548  -0.099   4.110   3.847  0.1574 -0.0402 -0.6078
  952MOL0     N25549  -0.098   4.246   3.791  0.4499  0.4392  0.7204
  952MOL0     C25550  -0.157   4.363   3.831 -0.6744  0.4198 -0.1999
  952MOL0     C25551  -0.121   4.454   3.740  0.9772 -0.5778  0.0170
  952MOL0     C25552  -0.147   4.596   3.765 -0.2674  0.1718  0.9556
  952MOL0     C25553  -0.293   4.635   3.784 -0.8636  0.8053  0.2841
  952MOL0     C25554  -0.364   4.653   3.647  0.3211  0.1279 -0.2242
  952MOL0     C25555  -0.503   4.704   3.663  0.5237  0.2891 -0.1689
  952MOL0     O25556  -0.571   4.718   3.531 -0.2011 -0.1012 -0.2571
  952MOL0     C25557  -0.707   4.730   3.535  0.5685 -1.1573  0.4809
  952MOL0     C25558  -0.774   4.707   3.415 -2.0223 -0.2866 -0.6089
  952MOL0     C25559  -0.911   4.700   3.414  0.3547  0.5551  0.1544
  952MOL0     C25560  -0.985   4.715   3.531  0.1644  0.2060  0.8797
  952MOL0     C25561  -1.133   4.721   3.529  0.1177 -0.2940 -0.0737
  952MOL0     O25562  -1.188   4.734   3.404  0.0434 -0.2514 -0.6068
  952MOL0     C25563  -1.328   4.762   3.406  0.1128  0.1582 -0.2135
  952MOL0     C25564  -1.405   4.698   3.308  0.2238 -0.2871  0.5288
  952MOL0     C25565  -1.542   4.706   3.307  0.3705 -0.5338 -0.5275
  952MOL0     C25566  -1.609   4.783   3.406 -1.4940  0.2745 -0.4805
  952MOL0     O25567  -1.740   4.794   3.381 -0.2742 -0.0316  0.2608
  952MOL0     C25568  -1.819   4.855   3.483 -0.7741 -0.1993  0.0641
  952MOL0     C25569  -1.841   5.010   3.468 -0.2472  0.1481  0.7799
  952MOL0     C25570  -1.941   5.041   3.356 -0.1126 -0.3856  0.0240
  952MOL0     C25571  -1.927   5.190   3.317  0.1545 -0.6969 -0.0561
  952MOL0     C25572  -2.009   5.209   3.184  0.2590 -0.6607  0.4214
  952MOL0     C25573  -2.079   5.343   3.182  0.1173 -0.1376 -0.4405
  952MOL0     C25574  -1.985   5.463   3.209  0.6398  0.0298 -0.7684
  952MOL0     C25575  -2.055   5.597   3.209 -0.4140  0.0119 -0.3460
  952MOL0    Cl25576  -2.154   5.615   3.365 -0.1422  0.2595  0.0226
  952MOL0     C25577  -1.535   4.854   3.496  0.0418  0.2428 -0.0393
  952MOL0     C25578  -1.397   4.848   3.494  0.7009  0.9472 -0.0794
  952MOL0     O25579  -1.186   4.691   3.634  0.0241 -1.2900  0.3037
  952MOL0     C25580  -0.919   4.742   3.655  0.2770  0.2549  0.0827
  952MOL0     C25581  -0.782   4.744   3.658  0.2953 -0.1505  1.2389
  952MOL0     N25582  -0.048   4.394   3.638  0.2482 -0.1532 -0.3682
  952MOL0     N25583  -0.024   4.273   3.678  0.4938  0.6463 -0.1082
  952MOL0     C25584   0.978   4.130   3.777 -0.0120 -1.4376 -0.4568
  952MOL0     C25585   1.113   4.105   3.740  0.4273 -0.0837  0.3978
  952MOL0     C25586   1.564   4.073   3.735 -0.0459 -0.3520  0.1592
  952MOL0     C25587   1.673   4.165   3.728 -0.5334 -0.7075  0.0534
  952MOL0     C25588   1.800   4.119   3.689  0.3440  0.0184 -0.2903
  952MOL0     C25589   1.820   3.987   3.647  0.0428 -0.1436 -0.3866
  952MOL0     O25590   1.942   3.963   3.594  0.0344  0.4092  0.6975
  952MOL0     C25591   1.969   3.828   3.539  0.3172  0.0231  0.8024
  952MOL0     C25592   2.105   3.825   3.462 -1.0404 -0.6399  0.4332
  952MOL0     C25593   2.232   3.856   3.538  0.2421  0.4800 -0.2395
  952MOL0     C25594   2.351   3.834   3.444 -0.9693 -0.2442  0.0309
  952MOL0     C25595   2.480   3.850   3.504  0.3724 -0.9417 -0.3662
  952MOL0     C25596   2.589   3.869   3.559 -0.2143 -0.0200  0.3995
  952MOL0     C25597   1.714   3.893   3.647 -0.1623 -0.0054  0.2942
  952MOL0     C25598   1.586   3.938   3.691 -0.2264 -0.7674 -0.7057
  952MOL0     H25599   1.235   3.999   4.034  1.2498  0.9816 -1.2516
  952MOL0     H25600   1.007   4.060   4.100  3.0875  0.7712  1.4297
  952MOL0     H25601   0.722   4.011   3.828  0.6311  0.7621  0.3012
  952MOL0     H25602   0.669   4.185   3.805 -0.3762  0.8177 -1.0518
  952MOL0     H25603   0.589   4.157   4.060  0.3471  0.2492 -0.2748
  952MOL0     H25604   0.588   3.988   4.019  2.2460 -0.6536 -1.6911
  952MOL0     H25605   0.428   4.014   3.834 -0.4731  0.1494 -0.2641
  952MOL0     H25606   0.453   4.196   3.834  2.5688 -0.2819 -0.6707
  952MOL0     H25607   0.355   4.065   4.097 -1.3558 -1.9921 -1.0818
  952MOL0     H25608   0.331   4.224   4.030 -0.0063  1.3416 -2.5470
  952MOL0     H25609   0.199   3.972   3.965 -2.0811  0.7190 -0.2034
  952MOL0     H25610   0.194   4.097   3.846  2.2397  1.2126  0.3077
  952MOL0     H25611   0.095   4.253   4.014 -1.5592  0.2697  0.3511
  952MOL0     H25612   0.097   4.130   4.139 -0.1390  0.6702  0.4775
  952MOL0     H25613  -0.069   3.994   4.027  0.0740 -0.6284  0.4286
  952MOL0     H25614  -0.125   4.155   4.063  2.2336  1.4986  0.3712
  952MOL0     H25615  -0.204   4.084   3.832 -0.4110  1.5453  0.2965
  952MOL0     H25616  -0.038   4.036   3.795  0.8784  0.1180 -0.0068
  952MOL0     H25617  -0.201   4.368   3.930 -3.1538  0.4831 -1.2408
  952MOL0     H25618  -0.107   4.660   3.686  2.0726  0.6059  2.4067
  952MOL0     H25619  -0.082   4.624   3.848 -0.5550  0.6393  1.0247
  952MOL0     H25620  -0.292   4.732   3.836 -0.6370 -0.3743  2.6231
  952MOL0     H25621  -0.344   4.557   3.842  1.2887 -1.1912 -0.3795
  952MOL0     H25622  -0.307   4.720   3.582  2.1592  0.6481  1.8021
  952MOL0     H25623  -0.373   4.555   3.600 -0.3948  0.8536 -1.7008
  952MOL0     H25624  -0.501   4.797   3.720  4.3238 -1.1233  2.4389
  952MOL0     H25625  -0.555   4.623   3.715 -0.5527  0.8448 -0.3561
  952MOL0     H25626  -0.714   4.702   3.324 -0.9155  0.4706  0.0607
  952MOL0     H25627  -0.953   4.668   3.319  1.7412  0.2502 -0.3772
  952MOL0     H25628  -1.354   4.627   3.244 -1.6508 -2.7958  1.6486
  952MOL0     H25629  -1.606   4.667   3.228 -1.3490 -0.0090  0.5396
  952MOL0     H25630  -1.782   4.848   3.586 -1.6934  3.2117  0.7699
  952MOL0     H25631  -1.921   4.816   3.471 -0.3099 -1.0649 -1.1552
  952MOL0     H25632  -1.747   5.060   3.443  0.2385 -1.1839 -0.2463
  952MOL0     H25633  -1.879   5.057   3.559 -1.1406 -1.1240  1.0890
  952MOL0     H25634  -2.045   5.027   3.388 -0.7601  2.9235 -0.1778
  952MOL0     H25635  -1.917   4.983   3.267  0.7070 -1.2844  0.8166
  952MOL0     H25636  -1.976   5.247   3.397  1.9250  0.0334  0.5555
  952MOL0     H25637  -1.825   5.228   3.307  0.2225 -0.1803  1.9839
  952MOL0     H25638  -2.085   5.131   3.185  0.1103 -0.5270 -0.1381
  952MOL0     H25639  -1.931   5.205   3.107 -0.8167  0.9248 -0.8097
  952MOL0     H25640  -2.150   5.346   3.266  0.6719  2.6582  0.0281
  952MOL0     H25641  -2.126   5.359   3.085 -0.8349 -2.5296 -0.4574
  952MOL0     H25642  -1.927   5.442   3.299 -0.0719  1.2513  0.0023
  952MOL0     H25643  -1.903   5.472   3.137  0.4921 -0.0207 -0.9440
  952MOL0     H25644  -2.126   5.603   3.125  1.1010  0.9489 -1.6176
  952MOL0     H25645  -1.977   5.673   3.202 -1.4560  1.0835 -0.6451
  952MOL0     H25646  -1.585   4.930   3.555  2.0501 -0.3270  2.5983
  952MOL0     H25647  -1.341   4.904   3.568 -0.6366 -0.6803  2.2927
  952MOL0     H25648  -0.966   4.757   3.751 -0.2792  0.3916 -0.2065
  952MOL0     H25649  -0.752   4.762   3.761 -0.1806 -1.2668  1.5802
  952MOL0     H25650   0.918   4.187   3.706 -0.7342 -1.3794  0.1802
  952MOL0     H25651   1.144   4.121   3.637 -0.2047 -0.6507  0.1166
  952MOL0     H25652   1.665   4.261   3.778  0.1389 -0.8458  0.4333
  952MOL0     H25653   1.884   4.187   3.694 -0.9565  1.6281  0.9711
  952MOL0     H25654   1.896   3.791   3.466  1.4127  0.0621 -0.3517
  952MOL0     H25655   1.975   3.756   3.621  0.0140 -0.2547  0.5847
  952MOL0     H25656   2.116   3.722   3.427 -0.9600 -0.7905  0.9037
  952MOL0     H25657   2.098   3.897   3.380 -1.4299 -0.6048  0.4933
  952MOL0     H25658   2.248   3.793   3.626 -1.1031  1.1418  0.5066
  952MOL0     H25659   2.226   3.961   3.568  0.4785  0.5511 -0.4344
  952MOL0     H25660   2.350   3.739   3.390 -1.4418 -0.8242  1.0202
  952MOL0     H25661   2.354   3.910   3.365  2.2456 -0.1179  0.1431
  952MOL0     H25662   2.684   3.900   3.598 -0.0007  1.8681 -1.4180
  952MOL0     H25663   1.726   3.793   3.608 -0.4111  0.7732 -1.9075
  952MOL0     H25664   1.503   3.869   3.696 -1.5444  0.7040 -1.4839
  953MOL0     O25665   4.379   5.822   7.473 -1.0832 -0.2731 -0.1398
  953MOL0     C25666   4.431   5.718   7.437 -0.8143  0.1814  0.6553
  953MOL0     O25667   4.360   5.621   7.367 -0.3296  0.0156 -0.5096
  953MOL0     C25668   4.238   5.642   7.303 -0.5871  0.0929 -0.4114
  953MOL0     C25669   4.131   5.585   7.360  0.0444 -0.4388 -0.3274
  953MOL0     C25670   4.004   5.594   7.307 -0.3518 -0.0553 -0.1233
  953MOL0     C25671   3.982   5.660   7.180 -0.6933  0.2185  0.3655
  953MOL0     O25672   3.862   5.681   7.109 -0.3929  0.3865 -0.6345
  953MOL0     C25673   3.744   5.642   7.176 -0.4764 -0.5696  0.9835
  953MOL0     C25674   3.641   5.625   7.060  0.3753  0.2499  0.6278
  953MOL0     C25675   3.493   5.647   7.113  0.6713 -0.1740  0.2401
  953MOL0     C25676   3.381   5.630   7.006  0.0754 -0.1249  0.9660
  953MOL0     C25677   3.248   5.653   7.058  0.2484 -0.4072  0.7467
  953MOL0     C25678   3.144   5.664   6.953  0.2314 -0.3508 -0.2688
  953MOL0     C25679   3.002   5.660   7.011  0.1660  0.0837 -0.5646
  953MOL0     C25680   2.891   5.672   6.900  0.8611 -0.8211  0.8051
  953MOL0     N25681   2.773   5.695   6.978 -0.1533  0.7013  0.7069
  953MOL0     C25682   2.704   5.809   6.987 -0.6479 -0.6355 -0.5467
  953MOL0     C25683   2.606   5.782   7.078 -0.5720  0.0627  0.1476
  953MOL0     C25684   2.517   5.875   7.139  0.7275 -0.0707  0.7700
  953MOL0     C25685   2.403   5.886   7.045  0.0219  0.0950 -0.3007
  953MOL0     C25686   2.302   6.008   7.074 -1.0219  0.1145  0.1797
  953MOL0     C25687   2.193   6.001   6.977  0.3267  0.2247  0.2112
  953MOL0     O25688   2.149   6.139   6.964  0.5878 -0.4383  0.4998
  953MOL0     C25689   2.011   6.159   6.942 -0.0681  0.7000  0.8685
  953MOL0     C25690   1.972   6.297   6.947  0.2561  0.3728  0.2169
  953MOL0     C25691   1.843   6.339   6.903 -0.0407  0.1641  0.0343
  953MOL0     C25692   1.752   6.235   6.867  0.7104  0.1968  0.4850
  953MOL0     C25693   1.611   6.267   6.820 -0.6170 -0.5231  0.1464
  953MOL0     O25694   1.585   6.406   6.808  0.1108  0.4687 -0.1585
  953MOL0     C25695   1.463   6.456   6.777  0.0132  0.1579 -0.4944
  953MOL0     C25696   1.375   6.405   6.684 -0.2888 -0.3405 -0.0189
  953MOL0     C25697   1.254   6.471   6.658  0.0428  0.4056  0.2629
  953MOL0     C25698   1.219   6.582   6.718  0.0783 -0.4415 -0.4504
  953MOL0     O25699   1.104   6.637   6.673  0.5963  0.3156  0.2138
  953MOL0     C25700   1.082   6.777   6.685 -0.4334  0.1621 -0.8439
  953MOL0     C25701   0.945   6.814   6.617  0.1024  0.2327  0.4246
  953MOL0     C25702   0.904   6.968   6.625  0.7115 -0.0161  0.1983
  953MOL0     C25703   0.782   6.997   6.535 -0.2051 -0.0475 -0.1848
  953MOL0     C25704   0.662   6.901   6.549  0.5590 -0.5818 -0.1349
  953MOL0     C25705   0.611   6.900   6.694 -0.5295 -1.0940 -0.0373
  953MOL0     C25706   0.488   6.811   6.706  0.0002 -0.0472  0.3844
  953MOL0     C25707   0.438   6.816   6.844  0.1675  0.9314  0.1671
  953MOL0    Cl25708   0.402   6.981   6.901  0.3923 -0.5106  0.0314
  953MOL0     C25709   1.307   6.640   6.803 -0.1451  0.5896 -1.0511
  953MOL0     C25710   1.429   6.580   6.836  0.7288  0.1494  0.2497
  953MOL0     O25711   1.532   6.171   6.802 -0.7175  0.1492 -0.5268
  953MOL0     C25712   1.794   6.099   6.870  0.9542  0.0854 -0.0177
  953MOL0     C25713   1.923   6.056   6.914  0.8403 -1.0035 -0.0280
  953MOL0     N25714   2.604   5.649   7.097 -0.5032 -0.5776  0.3161
  953MOL0     N25715   2.711   5.605   7.049 -0.3214  1.4242  0.4543
  953MOL0     C25716   4.099   5.718   7.119  0.0826  0.0240  0.6694
  953MOL0     C25717   4.222   5.715   7.190 -0.9583 -0.1369 -0.8004
  953MOL0     C25718   4.562   5.685   7.489  0.0795 -0.2601  1.0564
  953MOL0     C25719   4.625   5.757   7.588  0.3311 -0.9061  0.7353
  953MOL0     C25720   4.749   5.723   7.630 -0.6231 -0.1111  0.3137
  953MOL0     C25721   4.814   5.598   7.578  0.6584  0.3053 -0.4233
  953MOL0     O25722   4.934   5.544   7.623 -0.4818 -0.1549 -0.5866
  953MOL0     C25723   5.054   5.599   7.565  0.7497  0.7250 -1.0151
  953MOL0     C25724   5.163   5.541   7.653 -0.7243  0.5529 -0.5313
  953MOL0     C25725   5.293   5.607   7.605  0.2646  0.4641 -0.5332
  953MOL0     C25726   5.414   5.563   7.699  0.5066 -0.2306  0.9930
  953MOL0     C25727   5.542   5.622   7.656 -0.0357  1.4242 -0.1781
  953MOL0     C25728   5.652   5.642   7.603  1.1295 -0.2177  0.6725
  953MOL0     C25729   4.753   5.527   7.477 -0.0364 -0.7061  0.4387
  953MOL0     C25730   4.626   5.570   7.433 -0.4649 -0.3038  0.4816
  953MOL0     H25731   4.146   5.532   7.454 -0.6865  0.8907  0.5690
  953MOL0     H25732   3.916   5.559   7.360 -0.0491  1.9649  1.8196
  953MOL0     H25733   3.717   5.723   7.245 -0.5019 -0.1589  0.4972
  953MOL0     H25734   3.751   5.545   7.225  1.7283 -0.3759  1.1170
  953MOL0     H25735   3.656   5.528   7.011 -0.6141  1.3972 -2.1837
  953MOL0     H25736   3.660   5.703   6.986 -0.2422  1.1168  1.3577
  953MOL0     H25737   3.482   5.746   7.158  1.3153 -0.0589  0.1610
  953MOL0     H25738   3.481   5.571   7.192  2.4259 -0.0730  0.6456
  953MOL0     H25739   3.391   5.700   6.923 -3.4651 -1.1193 -0.4928
  953MOL0     H25740   3.379   5.528   6.966 -2.6415  0.2030  0.0336
  953MOL0     H25741   3.243   5.742   7.122  1.3411 -0.1384  0.4727
  953MOL0     H25742   3.222   5.567   7.120 -1.3863 -0.9683 -0.6215
  953MOL0     H25743   3.159   5.578   6.886  0.4621 -0.1082 -0.5312
  953MOL0     H25744   3.168   5.751   6.891  1.3899 -0.2907  0.2589
  953MOL0     H25745   2.993   5.564   7.063 -0.3096 -0.7985 -2.2041
  953MOL0     H25746   3.002   5.739   7.087 -2.3927  1.1336 -1.5623
  953MOL0     H25747   2.879   5.581   6.841  2.9445 -2.2029  2.3802
  953MOL0     H25748   2.910   5.753   6.830 -1.3764 -0.1068  0.9470
  953MOL0     H25749   2.717   5.910   6.948 -1.9035 -0.4907 -0.6433
  953MOL0     H25750   2.569   5.970   7.153  3.0400 -1.5382  3.0139
  953MOL0     H25751   2.474   5.851   7.237 -3.8121  0.5488 -0.8030
  953MOL0     H25752   2.349   5.791   7.057  0.9358 -0.1809  2.4057
  953MOL0     H25753   2.442   5.879   6.943 -0.2694 -1.5266 -0.3267
  953MOL0     H25754   2.252   5.997   7.170 -1.6619  3.4639  0.3381
  953MOL0     H25755   2.352   6.105   7.079 -1.6234  0.4766 -0.6148
  953MOL0     H25756   2.120   5.936   7.027  0.5483 -0.1596  0.0413
  953MOL0     H25757   2.216   5.962   6.878  1.5083  0.0155  0.5579
  953MOL0     H25758   2.043   6.364   6.995  0.5129 -0.3902  0.9232
  953MOL0     H25759   1.804   6.440   6.896 -1.8987 -0.6152 -2.9233
  953MOL0     H25760   1.410   6.315   6.633  0.5383 -0.7670  1.2363
  953MOL0     H25761   1.181   6.434   6.587 -3.4656  4.0353  1.6414
  953MOL0     H25762   1.160   6.837   6.636  0.6080 -0.5074 -0.0604
  953MOL0     H25763   1.072   6.812   6.788 -1.9483  1.1506 -1.2953
  953MOL0     H25764   0.869   6.756   6.670 -1.1106  0.4941 -0.9533
  953MOL0     H25765   0.962   6.789   6.512 -0.5718 -1.1458  0.6269
  953MOL0     H25766   0.985   7.037   6.597  4.0137 -2.5584  2.6290
  953MOL0     H25767   0.892   7.005   6.728 -0.5298 -0.6619  0.2988
  953MOL0     H25768   0.747   7.095   6.567 -1.4882 -1.6283  3.7972
  953MOL0     H25769   0.819   7.011   6.433  1.7316  2.3106  0.7518
  953MOL0     H25770   0.697   6.803   6.515  2.8682  0.4752 -1.0471
  953MOL0     H25771   0.578   6.940   6.491  0.2109  2.0207  1.9410
  953MOL0     H25772   0.588   7.004   6.721 -0.9151 -1.4137  0.9040
  953MOL0     H25773   0.680   6.865   6.770 -3.3616 -4.1814  1.3890
  953MOL0     H25774   0.408   6.840   6.638  2.1483  1.3145 -1.6992
  953MOL0     H25775   0.508   6.704   6.689 -2.3187 -0.6122  0.8825
  953MOL0     H25776   0.515   6.765   6.903  0.4091 -0.1865 -1.0539
  953MOL0     H25777   0.347   6.755   6.847  1.8269 -1.7036  0.3866
  953MOL0     H25778   1.288   6.737   6.846  0.6367 -1.3856  4.6053
  953MOL0     H25779   1.496   6.614   6.915  0.4626 -0.9937  0.9944
  953MOL0     H25780   1.726   6.025   6.829 -1.8670  0.7363  3.0481
  953MOL0     H25781   1.937   5.952   6.942  2.1382 -0.7055  0.5208
  953MOL0     H25782   4.090   5.764   7.022 -1.1078 -0.0814  0.7203
  953MOL0     H25783   4.307   5.769   7.149 -1.5010  2.1354  0.8863
  953MOL0     H25784   4.575   5.845   7.628 -0.2481 -1.2986  0.8816
  953MOL0     H25785   4.795   5.781   7.709 -2.0706  1.1265  0.2974
  953MOL0     H25786   5.040   5.707   7.569  0.1570  0.7584 -3.0329
  953MOL0     H25787   5.074   5.564   7.463  3.7349 -1.9267  0.3169
  953MOL0     H25788   5.152   5.566   7.759 -0.7382 -0.4134 -0.2970
  953MOL0     H25789   5.158   5.432   7.642 -1.4926  0.5321 -0.0594
  953MOL0     H25790   5.270   5.713   7.602  1.6272  0.8550  1.1730
  953MOL0     H25791   5.317   5.575   7.503 -0.0694 -0.0286 -0.4619
  953MOL0     H25792   5.391   5.603   7.798  1.3898  1.7709  0.4539
  953MOL0     H25793   5.427   5.455   7.695  0.0679 -0.2618  0.1957
  953MOL0     H25794   5.754   5.657   7.575  0.7969  1.1479  0.0944
  953MOL0     H25795   4.809   5.446   7.432 -0.5653 -1.8755  1.7854
  953MOL0     H25796   4.579   5.516   7.351 -0.7418 -1.3655  1.3142
  954MOL0     O25797   7.887   4.162   8.542 -0.7039 -0.4623  0.3530
  954MOL0     C25798   8.005   4.119   8.534 -0.0792  0.3302  0.0743
  954MOL0     O25799   8.059   4.029   8.615 -0.2609 -0.4939 -0.3276
  954MOL0     C25800   8.022   4.003   8.745  0.2751 -0.1721  0.4458
  954MOL0     C25801   8.062   3.879   8.795  0.5453 -0.4988 -0.1225
  954MOL0     C25802   8.014   3.837   8.920 -0.0866 -0.0487 -0.0749
  954MOL0     C25803   7.932   3.915   9.001  0.2068 -0.2000 -0.3570
  954MOL0     O25804   7.902   3.876   9.130  0.2342 -0.1935 -0.3669
  954MOL0     C25805   7.826   3.761   9.148 -0.4742 -0.0015  0.4742
  954MOL0     C25806   7.684   3.797   9.189 -0.9704  0.0882  0.0421
  954MOL0     C25807   7.614   3.683   9.253  0.1454 -1.0595  0.3096
  954MOL0     C25808   7.460   3.713   9.268 -0.3142 -0.3044  0.4409
  954MOL0     C25809   7.360   3.590   9.272 -0.0478  0.2396 -0.0128
  954MOL0     C25810   7.333   3.526   9.133 -0.6231  0.0927 -0.1186
  954MOL0     C25811   7.213   3.422   9.134 -0.2941 -0.2458  0.1039
  954MOL0     C25812   7.215   3.348   9.003 -0.1291 -0.9720 -0.0827
  954MOL0     N25813   7.290   3.224   9.019  0.0976 -0.0833  0.0100
  954MOL0     C25814   7.424   3.201   9.032 -0.3246 -0.1029  0.0748
  954MOL0     C25815   7.442   3.067   9.043  0.0970  1.1993 -0.1688
  954MOL0     C25816   7.573   3.005   9.072  0.2312 -0.5669 -0.4063
  954MOL0     C25817   7.695   3.041   8.983 -0.7719  0.4776 -0.3259
  954MOL0     C25818   7.659   3.063   8.837 -0.5532 -0.4826 -0.6006
  954MOL0     C25819   7.787   3.087   8.754 -0.4572  0.6829  0.6095
  954MOL0     O25820   7.743   3.136   8.624 -0.1810  0.2671 -0.2911
  954MOL0     C25821   7.836   3.193   8.542 -0.0310  0.3788 -0.9257
  954MOL0     C25822   7.791   3.225   8.417 -0.8308 -0.2378  0.8922
  954MOL0     C25823   7.878   3.259   8.313 -0.7543  0.4052 -0.2182
  954MOL0     C25824   8.014   3.278   8.340 -0.1116 -0.0578  0.1820
  954MOL0     C25825   8.108   3.329   8.238  0.6650 -0.2895  0.3850
  954MOL0     O25826   8.061   3.332   8.110 -0.2344  0.8064 -0.0690
  954MOL0     C25827   8.143   3.380   8.014 -0.1758 -0.2604 -0.3304
  954MOL0     C25828   8.254   3.317   7.967  0.0586  0.0548  0.9045
  954MOL0     C25829   8.344   3.384   7.882  0.5795 -0.0413  0.4768
  954MOL0     C25830   8.318   3.514   7.829  0.5768  0.4385 -0.1252
  954MOL0     O25831   8.406   3.572   7.741  0.3933  0.0756  0.1008
  954MOL0     C25832   8.378   3.705   7.687  0.3727 -0.4149 -0.8985
  954MOL0     C25833   8.496   3.738   7.600  0.1896 -0.7816 -0.1978
  954MOL0     C25834   8.460   3.846   7.493 -0.9379  0.4021  1.0091
  954MOL0     C25835   8.591   3.919   7.442  0.0476  0.0117 -0.0279
  954MOL0     C25836   8.677   3.853   7.333 -0.0991 -0.3675 -0.3225
  954MOL0     C25837   8.797   3.937   7.287 -0.0916  0.4363  0.6836
  954MOL0     C25838   8.905   3.874   7.201  0.3884  0.3899  0.0105
  954MOL0     C25839   9.019   3.974   7.166 -0.3783  0.3258 -0.7774
  954MOL0    Cl25840   8.982   4.088   7.036 -0.0726 -0.3299 -0.3626
  954MOL0     C25841   8.207   3.584   7.888 -0.0910  0.0842  1.0994
  954MOL0     C25842   8.129   3.515   7.982  0.2037  0.8554  0.0250
  954MOL0     O25843   8.217   3.370   8.275 -0.0142 -0.4484  0.1460
  954MOL0     C25844   8.066   3.253   8.465  0.8065  0.0666 -0.4485
  954MOL0     C25845   7.975   3.212   8.568 -0.2035  0.5188  0.4327
  954MOL0     N25846   7.324   3.005   9.029 -0.1889  0.1276 -0.6160
  954MOL0     N25847   7.233   3.102   9.016 -0.0152 -0.2177  0.7009
  954MOL0     C25848   7.899   4.041   8.952  0.0947  0.5170  0.4518
  954MOL0     C25849   7.933   4.084   8.823 -0.5773  0.1152 -0.0599
  954MOL0     C25850   8.088   4.152   8.419 -0.8102  0.0415  0.4853
  954MOL0     C25851   8.067   4.266   8.333 -0.4546  0.4687  0.5354
  954MOL0     C25852   8.166   4.307   8.244  0.0989  0.6951  0.2868
  954MOL0     C25853   8.292   4.247   8.239 -0.2433  0.9709 -0.6128
  954MOL0     O25854   8.383   4.313   8.169 -0.3565 -0.3757  0.1030
  954MOL0     C25855   8.522   4.274   8.191 -1.2963 -0.7229  0.7052
  954MOL0     C25856   8.606   4.302   8.065 -0.4633  0.0252  0.1777
  954MOL0     C25857   8.639   4.451   8.056 -0.1831  0.3562  0.1696
  954MOL0     C25858   8.740   4.465   7.940  0.2469  0.4640 -0.3324
  954MOL0     C25859   8.830   4.577   7.954  0.4193  0.8826 -0.2133
  954MOL0     C25860   8.906   4.674   7.968 -0.0969  1.1821  0.3279
  954MOL0     C25861   8.313   4.140   8.326 -0.6540  0.4083 -0.7937
  954MOL0     C25862   8.217   4.086   8.407  0.5337 -0.6687  0.2930
  954MOL0     H25863   8.119   3.810   8.734  1.1136  0.1124 -0.2904
  954MOL0     H25864   8.052   3.738   8.943  0.9325  0.0383 -1.2805
  954MOL0     H25865   7.887   3.706   9.221  0.0407 -1.3052 -0.9024
  954MOL0     H25866   7.818   3.688   9.067 -5.0409 -0.3470  0.9448
  954MOL0     H25867   7.630   3.809   9.094  0.3651  1.1350 -0.6313
  954MOL0     H25868   7.670   3.888   9.247  0.4997  0.6293 -0.4087
  954MOL0     H25869   7.655   3.666   9.353 -0.4492 -1.4841  0.4910
  954MOL0     H25870   7.615   3.593   9.191  1.2680 -2.1710  1.8590
  954MOL0     H25871   7.455   3.785   9.350  1.5942  2.2678 -1.5061
  954MOL0     H25872   7.427   3.775   9.184  0.8871 -0.3527 -0.0896
  954MOL0     H25873   7.262   3.629   9.302 -0.9837 -1.3608 -0.7931
  954MOL0     H25874   7.403   3.515   9.338  1.5525 -0.6224 -1.9115
  954MOL0     H25875   7.429   3.483   9.104  0.7709  1.5995  1.9794
  954MOL0     H25876   7.307   3.603   9.061  0.6609  1.5374  0.8962
  954MOL0     H25877   7.220   3.357   9.222  0.7899  0.4779  0.5897
  954MOL0     H25878   7.124   3.483   9.150  0.9269  1.6861 -0.0686
  954MOL0     H25879   7.244   3.415   8.922 -2.3228 -1.2804 -1.1850
  954MOL0     H25880   7.112   3.322   8.980 -0.1447  1.3578 -3.1389
  954MOL0     H25881   7.493   3.285   9.024 -2.8678  1.9696 -2.0435
  954MOL0     H25882   7.571   2.898   9.093 -0.5624 -0.6801 -0.9783
  954MOL0     H25883   7.604   3.055   9.164 -0.5222 -0.0070 -0.4410
  954MOL0     H25884   7.775   2.970   9.005  0.6807  2.6479  2.0360
  954MOL0     H25885   7.736   3.135   9.023  0.4030 -0.3995  0.5915
  954MOL0     H25886   7.608   2.973   8.799  0.6391 -0.1606 -3.2021
  954MOL0     H25887   7.601   3.152   8.813 -0.0046  0.0443  0.0052
  954MOL0     H25888   7.850   2.999   8.738 -1.2040  0.2909 -0.2816
  954MOL0     H25889   7.853   3.158   8.805 -2.0403  1.5655  1.4843
  954MOL0     H25890   7.684   3.221   8.401 -0.5630 -0.1560 -1.3410
  954MOL0     H25891   7.825   3.269   8.219 -0.2897 -0.0783 -0.5346
  954MOL0     H25892   8.272   3.213   7.990 -0.8584 -0.8474 -2.0547
  954MOL0     H25893   8.431   3.333   7.842  1.6431 -0.6335  3.3545
  954MOL0     H25894   8.350   3.776   7.765 -0.8103 -0.5044 -1.2329
  954MOL0     H25895   8.292   3.701   7.620  0.7693 -1.6380 -1.3666
  954MOL0     H25896   8.543   3.648   7.559  0.5303  0.0502 -1.6993
  954MOL0     H25897   8.562   3.765   7.683 -0.3643 -1.3066  0.4268
  954MOL0     H25898   8.396   3.919   7.543 -0.4721  1.8740 -0.4477
  954MOL0     H25899   8.414   3.787   7.413  0.7675 -0.2508  0.4697
  954MOL0     H25900   8.559   4.014   7.399  0.0963 -0.6782 -1.6855
  954MOL0     H25901   8.636   3.936   7.540 -4.0795  0.5041  2.0093
  954MOL0     H25902   8.620   3.817   7.247  0.1410 -1.3591 -0.0765
  954MOL0     H25903   8.721   3.763   7.377  0.9355 -0.7463 -2.0414
  954MOL0     H25904   8.848   3.967   7.379  0.0033  2.0718  0.1442
  954MOL0     H25905   8.763   4.027   7.234 -1.3286 -0.4130 -0.0073
  954MOL0     H25906   8.941   3.791   7.261 -1.0964  0.3572  0.9038
  954MOL0     H25907   8.867   3.838   7.105 -2.2100 -0.5843  1.3223
  954MOL0     H25908   9.104   3.914   7.136 -1.4759 -1.5898 -0.1999
  954MOL0     H25909   9.051   4.039   7.248  0.0319 -1.4956  0.5598
  954MOL0     H25910   8.185   3.687   7.860  3.4733  0.1874 -2.1265
  954MOL0     H25911   8.039   3.565   8.019  0.6783  0.3169  2.0314
  954MOL0     H25912   8.171   3.264   8.489  0.3208  1.4148  1.2595
  954MOL0     H25913   8.018   3.184   8.664  1.7362  0.1693 -0.4849
  954MOL0     H25914   7.834   4.103   9.013 -1.7256 -1.9208  1.1458
  954MOL0     H25915   7.911   4.187   8.797  1.7186  1.2214  2.0440
  954MOL0     H25916   7.984   4.335   8.347 -1.4668 -0.6315  0.0980
  954MOL0     H25917   8.154   4.396   8.184  0.2827 -0.4569 -1.5311
  954MOL0     H25918   8.540   4.167   8.204  1.8254 -0.4648 -0.5882
  954MOL0     H25919   8.569   4.326   8.275  2.5595  2.1669 -2.8610
  954MOL0     H25920   8.705   4.255   8.067  0.6987  2.3098 -0.6171
  954MOL0     H25921   8.557   4.266   7.974 -1.2785 -0.5032  0.8130
  954MOL0     H25922   8.702   4.470   8.144  3.5816 -1.3257 -1.9230
  954MOL0     H25923   8.556   4.522   8.052  0.8551  1.7377  1.6918
  954MOL0     H25924   8.801   4.376   7.922 -0.7306 -0.2340 -0.3037
  954MOL0     H25925   8.684   4.475   7.846  2.4456  1.6699 -1.5930
  954MOL0     H25926   8.967   4.761   7.983 -1.2496  1.7719  1.7907
  954MOL0     H25927   8.415   4.110   8.346 -0.6896 -0.9103 -2.3552
  954MOL0     H25928   8.248   4.010   8.478 -0.3449  0.4426  1.9182
  955MOL0     O25929  10.437   5.304   6.028  0.1310  0.3583 -0.2940
  955MOL0     C25930  10.501   5.393   6.080 -0.2331  0.3512 -0.0341
  955MOL0     O25931  10.456   5.481   6.176  0.6387  0.2431 -0.0497
  955MOL0     C25932  10.321   5.483   6.197 -0.3340 -0.6116 -0.1089
  955MOL0     C25933  10.266   5.613   6.198  0.7858  0.0335 -0.6115
  955MOL0     C25934  10.136   5.624   6.217  0.0126  0.3918  0.8486
  955MOL0     C25935  10.049   5.509   6.251 -0.7928 -0.4851 -0.3303
  955MOL0     O25936   9.914   5.521   6.280  0.7108  0.5483 -0.9487
  955MOL0     C25937   9.847   5.625   6.210 -0.6008 -0.0610  0.1605
  955MOL0     C25938   9.696   5.590   6.205 -0.2565 -0.3645 -0.1182
  955MOL0     C25939   9.622   5.723   6.194 -0.0984 -0.1126 -0.1740
  955MOL0     C25940   9.468   5.701   6.175  0.5632  0.2210  0.4384
  955MOL0     C25941   9.402   5.841   6.196  0.1103  0.2410 -0.0011
  955MOL0     C25942   9.264   5.858   6.134  0.0382 -0.0366  0.1430
  955MOL0     C25943   9.174   5.751   6.174  1.2249 -0.0649  0.4786
  955MOL0     C25944   9.048   5.745   6.086 -0.0018 -0.0207  0.0467
  955MOL0     N25945   8.956   5.638   6.127 -0.3251  0.3480 -0.9809
  955MOL0     C25946   8.941   5.594   6.261 -0.8340  1.0163  0.2057
  955MOL0     C25947   8.852   5.491   6.253 -0.9297  0.3477  0.4407
  955MOL0     C25948   8.812   5.417   6.376  0.4015  1.0354  0.7489
  955MOL0     C25949   8.666   5.430   6.410  0.0228 -0.4104 -0.0641
  955MOL0     C25950   8.622   5.365   6.542  0.9263  0.0257  0.3045
  955MOL0     C25951   8.491   5.422   6.591 -0.9625  0.2338  0.0199
  955MOL0     O25952   8.387   5.394   6.495  0.1631 -0.5006 -0.4512
  955MOL0     C25953   8.256   5.435   6.525 -0.2558  0.2493 -0.2819
  955MOL0     C25954   8.163   5.441   6.419  0.5083 -0.1470  0.1266
  955MOL0     C25955   8.028   5.464   6.453 -0.4619  0.7447 -1.0895
  955MOL0     C25956   7.988   5.519   6.573 -0.1646  0.7748  0.7497
  955MOL0     C25957   7.848   5.556   6.590 -0.7489 -0.7336 -0.5889
  955MOL0     O25958   7.821   5.632   6.702 -0.3170  1.0325 -0.1370
  955MOL0     C25959   7.701   5.694   6.710 -0.5873  0.0240 -0.7813
  955MOL0     C25960   7.603   5.634   6.783 -0.4431 -0.7966 -0.7014
  955MOL0     C25961   7.474   5.694   6.783 -0.6552  1.1500 -0.7401
  955MOL0     C25962   7.451   5.816   6.726 -0.2323 -0.6122  0.0933
  955MOL0     O25963   7.330   5.884   6.721 -0.9174 -0.2296 -0.3751
  955MOL0     C25964   7.218   5.823   6.776 -0.1280  0.1592  0.2938
  955MOL0     C25965   7.200   5.873   6.922 -0.3599 -0.1287  0.8622
  955MOL0     C25966   7.136   6.010   6.931  0.3821 -0.3104 -1.4970
  955MOL0     C25967   7.064   6.039   7.062  0.3622 -0.3001 -0.3997
  955MOL0     C25968   6.990   6.172   7.050  0.1510  0.1869 -0.5008
  955MOL0     C25969   6.962   6.218   7.197 -0.1670 -0.1501 -0.3960
  955MOL0     C25970   6.844   6.139   7.255 -0.4272 -0.7592  0.6826
  955MOL0     C25971   6.807   6.178   7.395 -0.5166  0.4354  0.2964
  955MOL0    Cl25972   6.945   6.157   7.516  0.1118  0.2794 -0.2844
  955MOL0     C25973   7.561   5.881   6.652  0.5778 -0.3391 -0.5810
  955MOL0     C25974   7.683   5.816   6.646 -0.3924  0.0984  0.2235
  955MOL0     O25975   7.771   5.529   6.501 -0.1640 -0.0347  0.3200
  955MOL0     C25976   8.093   5.526   6.671  1.4231 -0.3762  0.2337
  955MOL0     C25977   8.222   5.480   6.650 -0.0517 -0.4007 -0.1585
  955MOL0     N25978   8.817   5.476   6.120 -0.7601 -0.7364  0.7663
  955MOL0     N25979   8.887   5.555   6.045  0.8697 -0.0352  0.5085
  955MOL0     C25980  10.112   5.381   6.266 -0.8003 -0.1754  0.2367
  955MOL0     C25981  10.247   5.372   6.235 -0.1555  0.4916 -0.0234
  955MOL0     C25982  10.651   5.397   6.057  0.8973 -0.0218  0.1273
  955MOL0     C25983  10.729   5.489   6.118 -0.0094  0.4762 -0.3413
  955MOL0     C25984  10.868   5.484   6.096  0.6092 -0.0525 -0.1869
  955MOL0     C25985  10.927   5.400   6.011 -0.2103  0.4378 -0.2489
  955MOL0     O25986  11.060   5.402   5.990 -0.1149 -0.4427  0.3188
  955MOL0     C25987  11.126   5.315   5.890  0.0304 -0.6162 -0.3000
  955MOL0     C25988  11.282   5.303   5.903  0.0669 -0.9564 -0.3413
  955MOL0     C25989  11.353   5.443   5.908  0.4361  0.8097 -0.2788
  955MOL0     C25990  11.503   5.424   5.884  0.1916  0.3470  0.5073
  955MOL0     C25991  11.567   5.308   5.954 -1.1585 -0.3377 -0.5641
  955MOL0     C25992  11.625   5.219   6.016  0.9191 -0.0893  0.1202
  955MOL0     C25993  10.842   5.321   5.938 -0.0729  0.4639 -0.0702
  955MOL0     C25994  10.705   5.315   5.959  0.0259  0.2281 -0.5829
  955MOL0     H25995  10.306   5.711   6.174  1.9567 -0.3410 -0.2363
  955MOL0     H25996  10.086   5.720   6.219 -1.3082 -0.2250 -0.2552
  955MOL0     H25997   9.876   5.632   6.105 -0.5709  1.1762  0.2412
  955MOL0     H25998   9.855   5.725   6.253  0.5251  0.7053 -1.7421
  955MOL0     H25999   9.661   5.547   6.300  1.0268 -0.8444  0.1575
  955MOL0     H26000   9.672   5.518   6.125  1.7425 -1.1880 -0.0364
  955MOL0     H26001   9.659   5.783   6.110 -2.9990  2.3283  0.1062
  955MOL0     H26002   9.640   5.784   6.282  3.0642  0.4703 -1.1174
  955MOL0     H26003   9.453   5.655   6.077 -1.8821  0.8334  0.4630
  955MOL0     H26004   9.434   5.625   6.246  1.9260 -0.6181  0.2175
  955MOL0     H26005   9.463   5.913   6.141 -1.7718  0.4434 -1.9486
  955MOL0     H26006   9.394   5.852   6.305 -0.8074 -1.8444  0.1891
  955MOL0     H26007   9.273   5.862   6.025  0.4257  1.2968  0.2069
  955MOL0     H26008   9.237   5.958   6.170 -0.4877 -0.5762  1.3174
  955MOL0     H26009   9.221   5.654   6.157  0.6213 -0.0212 -1.7057
  955MOL0     H26010   9.150   5.768   6.280 -0.0260 -0.6031  0.3082
  955MOL0     H26011   9.082   5.738   5.983 -1.8450 -1.4435 -0.5354
  955MOL0     H26012   9.003   5.844   6.085 -1.7236 -0.7259 -2.4888
  955MOL0     H26013   9.001   5.630   6.344 -1.1040  0.1084  0.8122
  955MOL0     H26014   8.875   5.449   6.461  0.1236  1.2595  0.8715
  955MOL0     H26015   8.819   5.310   6.355 -4.0889  0.1928  2.4596
  955MOL0     H26016   8.605   5.395   6.326  2.7285  1.0671 -2.8489
  955MOL0     H26017   8.640   5.536   6.418 -2.1888 -0.7103 -2.1404
  955MOL0     H26018   8.607   5.257   6.529 -2.1587  0.7273 -4.5184
  955MOL0     H26019   8.701   5.368   6.617  0.8769 -0.8078  0.4022
  955MOL0     H26020   8.510   5.528   6.605  3.4411 -0.1630 -1.4583
  955MOL0     H26021   8.474   5.376   6.689  1.4070  0.9209  0.8091
  955MOL0     H26022   8.185   5.400   6.321  1.1083  0.1957  0.1065
  955MOL0     H26023   7.954   5.441   6.377 -1.5700  0.0053  0.1854
  955MOL0     H26024   7.614   5.533   6.822 -4.6735 -2.3444 -2.7939
  955MOL0     H26025   7.387   5.636   6.815 -0.9359  1.4626 -0.9304
  955MOL0     H26026   7.220   5.713   6.771  1.1419  0.2112 -1.2853
  955MOL0     H26027   7.133   5.852   6.714  1.6359  2.2381 -1.3442
  955MOL0     H26028   7.286   5.859   6.989 -0.4982 -1.0643  0.8671
  955MOL0     H26029   7.125   5.802   6.958  0.6266 -2.7182 -1.7634
  955MOL0     H26030   7.063   6.011   6.850 -1.9077  1.6962  0.4347
  955MOL0     H26031   7.211   6.087   6.912  1.1700 -0.5765  0.3124
  955MOL0     H26032   6.996   5.956   7.079  1.9644 -1.4917  0.5359
  955MOL0     H26033   7.133   6.040   7.147  0.2740  0.8014 -0.3204
  955MOL0     H26034   6.901   6.160   6.988 -1.1973 -2.7913  1.7656
  955MOL0     H26035   7.060   6.246   7.010  0.1887  0.7521  0.5576
  955MOL0     H26036   6.936   6.324   7.187  0.5301 -0.0867 -1.6891
  955MOL0     H26037   7.051   6.203   7.258 -0.9466 -0.8818  0.5964
  955MOL0     H26038   6.760   6.142   7.186  1.2124 -3.3077 -1.6169
  955MOL0     H26039   6.879   6.035   7.251  1.9326  0.0043 -0.3614
  955MOL0     H26040   6.723   6.112   7.418  0.3135 -1.1470 -0.9851
  955MOL0     H26041   6.766   6.279   7.390 -3.8237 -0.7922  0.5644
  955MOL0     H26042   7.542   5.977   6.607 -0.2914 -0.0484  0.3646
  955MOL0     H26043   7.759   5.846   6.573  1.3780 -1.5025  1.3069
  955MOL0     H26044   8.067   5.577   6.763  1.8883  0.8880 -0.3024
  955MOL0     H26045   8.292   5.488   6.732 -1.1784 -1.3532  0.9244
  955MOL0     H26046  10.048   5.302   6.304 -2.1955  0.1317 -1.3216
  955MOL0     H26047  10.294   5.278   6.263 -0.8543  0.9418  2.9582
  955MOL0     H26048  10.693   5.561   6.191  2.6778  0.4860  1.0776
  955MOL0     H26049  10.922   5.562   6.149  1.5464 -0.3013 -0.7335
  955MOL0     H26050  11.098   5.352   5.790 -0.6040 -1.8889 -0.6208
  955MOL0     H26051  11.085   5.215   5.902 -1.4570  0.1519  1.4544
  955MOL0     H26052  11.307   5.238   5.987 -1.6971 -2.1289 -0.6702
  955MOL0     H26053  11.318   5.250   5.814  0.1219  2.3925 -2.5138
  955MOL0     H26054  11.331   5.492   6.003  0.4350  0.7781 -0.2626
  955MOL0     H26055  11.302   5.515   5.843 -1.1535  0.0767  0.0825
  955MOL0     H26056  11.536   5.406   5.781  0.9772  0.3963  0.7430
  955MOL0     H26057  11.561   5.513   5.912  1.0301 -0.1087  0.2778
  955MOL0     H26058  11.670   5.144   6.077  0.4130 -0.3926  0.1285
  955MOL0     H26059  10.883   5.253   5.864  1.6605  0.7656  0.5659
  955MOL0     H26060  10.639   5.248   5.904  3.4906 -2.9832 -1.2294
  956MOL0     O26061   2.478   7.726   3.860  0.0054 -0.6602  0.4083
  956MOL0     C26062   2.481   7.798   3.958  0.2044 -0.4235 -0.8740
  956MOL0     O26063   2.369   7.811   4.046 -0.0009 -0.9578  0.4075
  956MOL0     C26064   2.253   7.755   4.001  0.4829  0.1499  0.4868
  956MOL0     C26065   2.164   7.839   3.925 -0.1726 -0.7912 -0.0771
  956MOL0     C26066   2.046   7.786   3.880  0.3324 -0.0100 -1.0556
  956MOL0     C26067   2.013   7.650   3.909  1.4231  0.1617 -0.4111
  956MOL0     O26068   1.892   7.593   3.870  0.8027 -0.1632 -0.0804
  956MOL0     C26069   1.792   7.685   3.841 -0.7318 -0.0723  0.7597
  956MOL0     C26070   1.657   7.624   3.842 -0.2954  0.0290  0.3819
  956MOL0     C26071   1.536   7.720   3.808 -0.6658  0.7543  0.1646
  956MOL0     C26072   1.397   7.650   3.820  0.0021  0.3192 -0.9255
  956MOL0     C26073   1.290   7.742   3.765  0.3197 -0.4432 -0.1897
  956MOL0     C26074   1.153   7.669   3.782 -1.1234  0.0290  0.2161
  956MOL0     C26075   1.037   7.772   3.762 -0.3892 -0.0708 -0.2577
  956MOL0     C26076   0.896   7.716   3.787  1.4141  0.5797  0.4613
  956MOL0     N26077   0.862   7.638   3.660 -0.1195 -0.2609 -0.9118
  956MOL0     C26078   0.884   7.508   3.642  0.3629 -0.2729  0.2119
  956MOL0     C26079   0.843   7.474   3.518 -0.3297 -0.1579  0.3625
  956MOL0     C26080   0.845   7.344   3.460 -0.0375  0.1235  0.1602
  956MOL0     C26081   0.711   7.276   3.490  0.2671 -1.0307  0.3249
  956MOL0     C26082   0.733   7.124   3.442 -0.0631 -0.1558  1.0523
  956MOL0     C26083   0.606   7.042   3.455 -0.1653 -0.2015 -0.1266
  956MOL0     O26084   0.574   7.040   3.596 -0.3139  0.2663 -0.1940
  956MOL0     C26085   0.457   6.977   3.639 -0.9814  0.3917 -0.2709
  956MOL0     C26086   0.371   6.910   3.555  0.1040 -0.7002  0.5706
  956MOL0     C26087   0.258   6.837   3.609  0.4456  0.5989 -1.2262
  956MOL0     C26088   0.226   6.834   3.751 -0.5289 -0.5135  0.9853
  956MOL0     C26089   0.095   6.785   3.802  0.6759 -0.5441 -0.2693
  956MOL0     O26090   0.073   6.761   3.934 -0.0177 -0.2747 -0.6681
  956MOL0     C26091  -0.052   6.726   3.982  0.2801 -1.2573 -0.0148
  956MOL0     C26092  -0.048   6.642   4.095  0.2776  0.1312 -0.7504
  956MOL0     C26093  -0.162   6.598   4.164 -0.5598 -0.0781 -0.3434
  956MOL0     C26094  -0.283   6.651   4.120  0.0128  0.1282  0.0334
  956MOL0     O26095  -0.397   6.615   4.187 -0.3373  0.4586  0.3828
  956MOL0     C26096  -0.391   6.583   4.324 -0.0705 -0.0251  0.6926
  956MOL0     C26097  -0.534   6.582   4.387 -0.0104 -0.1606 -0.2974
  956MOL0     C26098  -0.598   6.730   4.385  0.0654  0.0583  0.2885
  956MOL0     C26099  -0.740   6.715   4.433  0.1767 -0.3218 -0.3769
  956MOL0     C26100  -0.824   6.842   4.465 -0.3024  0.7212 -0.9019
  956MOL0     C26101  -0.972   6.817   4.493 -0.0515  0.4169 -0.1150
  956MOL0     C26102  -1.061   6.755   4.389 -0.2047 -0.0214 -0.9120
  956MOL0     C26103  -1.205   6.754   4.445  0.9982 -0.6718 -0.0238
  956MOL0    Cl26104  -1.315   6.707   4.311  0.2548  0.5176 -0.2431
  956MOL0     C26105  -0.288   6.737   4.013  0.5908  0.3928 -0.3659
  956MOL0     C26106  -0.171   6.773   3.942  0.1877 -1.0287  0.2347
  956MOL0     O26107   0.012   6.762   3.714 -0.2898  0.3321 -0.3408
  956MOL0     C26108   0.318   6.902   3.831 -0.4677 -0.0910  0.1764
  956MOL0     C26109   0.431   6.967   3.778  0.0063  0.1323  0.6722
  956MOL0     N26110   0.780   7.595   3.472  0.3903 -0.4737 -0.1568
  956MOL0     N26111   0.794   7.691   3.557 -0.1440 -0.7464 -0.5088
  956MOL0     C26112   2.099   7.565   3.976  0.4471  0.4621  1.0504
  956MOL0     C26113   2.215   7.624   4.030 -0.7811  0.4572  0.4197
  956MOL0     C26114   2.601   7.869   4.000  0.4549 -0.6628 -0.8894
  956MOL0     C26115   2.592   7.954   4.114 -0.1144  0.2749  0.6451
  956MOL0     C26116   2.702   8.033   4.153 -0.2037  0.4753 -0.3430
  956MOL0     C26117   2.819   8.036   4.073 -0.8013 -0.2889 -0.8174
  956MOL0     O26118   2.923   8.113   4.105  0.1079  0.5358  0.0448
  956MOL0     C26119   2.989   8.069   4.228  0.3559  0.8703  0.0414
  956MOL0     C26120   3.135   8.121   4.220 -0.2668  0.3422  0.3740
  956MOL0     C26121   3.220   8.076   4.101 -0.1297  0.9344  0.1482
  956MOL0     C26122   3.367   8.068   4.133 -0.1760 -0.2776 -0.4410
  956MOL0     C26123   3.442   8.003   4.024  0.3646  0.3626 -0.2429
  956MOL0     C26124   3.512   7.952   3.939  1.6373 -0.7226  0.4950
  956MOL0     C26125   2.832   7.958   3.966  0.0958  0.2243  1.0304
  956MOL0     C26126   2.722   7.884   3.921 -0.0038  0.1749 -0.5196
  956MOL0     H26127   2.191   7.942   3.902 -3.8890  0.1816 -0.9410
  956MOL0     H26128   1.989   7.861   3.825  0.4319 -0.1006 -1.2853
  956MOL0     H26129   1.811   7.739   3.748 -1.0507 -1.6107 -0.2187
  956MOL0     H26130   1.787   7.769   3.912  1.1347  0.8121 -0.1049
  956MOL0     H26131   1.640   7.586   3.943 -1.7037 -0.1056  0.1187
  956MOL0     H26132   1.662   7.541   3.770 -2.3454 -0.8138  1.1286
  956MOL0     H26133   1.542   7.766   3.709 -0.5861 -1.6149 -1.0085
  956MOL0     H26134   1.535   7.798   3.885 -0.1621 -0.4599  1.4508
  956MOL0     H26135   1.396   7.560   3.758 -0.3821 -0.6931  0.4985
  956MOL0     H26136   1.378   7.623   3.925  1.4139  0.1685 -0.6831
  956MOL0     H26137   1.311   7.776   3.664 -1.4420 -0.6698 -0.6669
  956MOL0     H26138   1.287   7.836   3.821 -0.8837 -0.2312 -0.5885
  956MOL0     H26139   1.147   7.625   3.882  1.4903  3.1223  1.9208
  956MOL0     H26140   1.155   7.588   3.708  0.2536  0.3141 -0.0973
  956MOL0     H26141   1.046   7.852   3.837 -0.7488 -1.5584  1.4272
  956MOL0     H26142   1.038   7.820   3.663 -3.1551 -1.0806 -0.8785
  956MOL0     H26143   0.825   7.800   3.788 -0.6219 -1.0594  0.1207
  956MOL0     H26144   0.879   7.654   3.876  1.1821 -0.5879 -0.3888
  956MOL0     H26145   0.911   7.432   3.714 -2.3322 -0.4378  1.1864
  956MOL0     H26146   0.924   7.285   3.508  1.3074  2.2934  0.8260
  956MOL0     H26147   0.867   7.364   3.355  0.1867  6.3745  1.0000
  956MOL0     H26148   0.623   7.319   3.441  0.9478 -1.1857 -1.0840
  956MOL0     H26149   0.700   7.279   3.599  3.3400 -2.0388  0.7533
  956MOL0     H26150   0.762   7.112   3.337  2.0895 -2.7345  1.8050
  956MOL0     H26151   0.812   7.081   3.506  1.0276 -1.6570 -1.1645
  956MOL0     H26152   0.622   6.943   3.412 -2.3721 -0.8603  0.4484
  956MOL0     H26153   0.522   7.087   3.401  0.1877  2.3073  1.2416
  956MOL0     H26154   0.379   6.916   3.447  0.4533 -1.7960  0.5179
  956MOL0     H26155   0.183   6.794   3.544 -1.6180 -0.4188  1.5857
  956MOL0     H26156   0.044   6.597   4.132 -0.4486 -0.2028  0.7273
  956MOL0     H26157  -0.156   6.531   4.249 -2.2054 -1.2918 -1.1353
  956MOL0     H26158  -0.329   6.654   4.380 -2.2668  1.5918  1.1985
  956MOL0     H26159  -0.349   6.482   4.330 -1.0713 -0.7684 -2.6727
  956MOL0     H26160  -0.523   6.544   4.489 -1.1151  0.3023  0.0059
  956MOL0     H26161  -0.604   6.517   4.333  2.4762 -4.0269  0.7305
  956MOL0     H26162  -0.597   6.765   4.282  0.9994  1.4865  0.7558
  956MOL0     H26163  -0.540   6.799   4.447  4.0389 -1.4389 -1.4581
  956MOL0     H26164  -0.794   6.642   4.371  0.8872 -1.8422  0.7381
  956MOL0     H26165  -0.726   6.666   4.530  2.2433  1.6944  0.4255
  956MOL0     H26166  -0.819   6.903   4.374  3.1415  1.8279 -0.1010
  956MOL0     H26167  -0.779   6.894   4.550 -1.6791  1.8781 -0.8294
  956MOL0     H26168  -1.014   6.914   4.521 -1.3680 -0.6479  1.8821
  956MOL0     H26169  -0.977   6.752   4.581 -0.7384 -0.5526 -0.8400
  956MOL0     H26170  -1.049   6.797   4.289  1.9429  0.2149 -0.6126
  956MOL0     H26171  -1.045   6.648   4.370  2.5097 -0.0228  0.7479
  956MOL0     H26172  -1.238   6.855   4.471  1.5740 -0.4050 -0.3096
  956MOL0     H26173  -1.222   6.685   4.529  1.2668 -0.9827 -0.2232
  956MOL0     H26174  -0.387   6.778   3.995  0.0636 -0.4936  0.4501
  956MOL0     H26175  -0.176   6.851   3.866 -1.4067 -1.9760 -0.6789
  956MOL0     H26176   0.304   6.914   3.939  2.3867 -1.3227  0.7637
  956MOL0     H26177   0.490   7.012   3.857  1.3327 -2.1148  1.0612
  956MOL0     H26178   2.062   7.464   3.993 -1.9585  1.1034  0.0509
  956MOL0     H26179   2.289   7.568   4.086 -1.6051 -0.7430  0.3466
  956MOL0     H26180   2.504   7.963   4.177 -1.2766 -0.6325 -0.7663
  956MOL0     H26181   2.696   8.085   4.248  1.6095 -0.9163  0.6045
  956MOL0     H26182   2.994   7.959   4.230  0.5355  0.8386 -1.3107
  956MOL0     H26183   2.925   8.094   4.313 -2.0318 -0.6097 -1.1855
  956MOL0     H26184   3.133   8.229   4.240 -1.5504  0.0672  1.8725
  956MOL0     H26185   3.189   8.083   4.307  0.4490 -0.1021 -0.2475
  956MOL0     H26186   3.197   8.151   4.024 -4.4605 -0.4813 -0.1763
  956MOL0     H26187   3.189   7.981   4.057  2.8792 -0.8982  1.6414
  956MOL0     H26188   3.412   8.167   4.138  1.5225 -1.0128 -0.4868
  956MOL0     H26189   3.386   8.007   4.221  2.4089 -1.0777 -1.4510
  956MOL0     H26190   3.572   7.914   3.859  1.6578 -2.8760  1.4734
  956MOL0     H26191   2.923   7.942   3.909  0.1411 -1.2750  1.4891
  956MOL0     H26192   2.726   7.833   3.826 -1.9161 -2.7505  0.8040
  957MOL0     O26193   6.313   4.940   5.633  0.1867  0.1821 -0.1297
  957MOL0     C26194   6.347   5.016   5.541  0.1510  0.6432 -0.2027
  957MOL0     O26195   6.271   5.039   5.425  0.0458 -0.6351 -0.2500
  957MOL0     C26196   6.159   4.955   5.401 -0.2496 -0.4050 -0.0571
  957MOL0     C26197   6.030   4.994   5.448  1.2286 -1.2640  0.6335
  957MOL0     C26198   5.913   4.911   5.438  0.5693  0.5176 -0.1036
  957MOL0     C26199   5.925   4.782   5.378 -0.1313  0.4892  0.4917
  957MOL0     O26200   5.817   4.697   5.386 -0.2279  0.0646  0.0035
  957MOL0     C26201   5.687   4.757   5.367 -0.9947 -0.3346  0.1814
  957MOL0     C26202   5.580   4.644   5.358 -0.1148 -0.7530 -0.0089
  957MOL0     C26203   5.430   4.688   5.352 -0.1943  0.0091 -0.1434
  957MOL0     C26204   5.332   4.585   5.301 -0.1033 -0.4257  0.7497
  957MOL0     C26205   5.185   4.629   5.299  0.0507  0.0440  0.0980
  957MOL0     C26206   5.098   4.530   5.220 -0.3758  0.6766 -0.2593
  957MOL0     C26207   5.096   4.378   5.266 -0.1697 -0.0381  0.1530
  957MOL0     C26208   5.078   4.350   5.418 -0.8140  0.2600 -0.3459
  957MOL0     N26209   4.945   4.384   5.457  0.7777 -0.3193 -0.7255
  957MOL0     C26210   4.829   4.311   5.415 -0.3942 -0.6097 -0.6906
  957MOL0     C26211   4.724   4.390   5.469 -0.3102 -0.0647  0.2837
  957MOL0     C26212   4.577   4.355   5.465  0.8650 -1.0956 -0.0725
  957MOL0     C26213   4.476   4.430   5.559  0.3289  0.2184  0.2769
  957MOL0     C26214   4.338   4.381   5.531  0.1483 -0.3686 -0.6593
  957MOL0     C26215   4.234   4.471   5.598 -0.8845 -0.4969  0.0535
  957MOL0     O26216   4.106   4.418   5.560  0.3144 -0.3085 -0.1076
  957MOL0     C26217   3.990   4.469   5.627 -0.4205  0.2984 -0.7085
  957MOL0     C26218   3.869   4.403   5.611 -0.0313  0.2504 -0.0822
  957MOL0     C26219   3.754   4.439   5.682  0.5138 -0.3094  0.3996
  957MOL0     C26220   3.739   4.550   5.760  0.0265  0.1884  0.6166
  957MOL0     C26221   3.612   4.607   5.814 -0.3821  0.6979  0.3921
  957MOL0     O26222   3.630   4.675   5.932 -0.4106  0.0388  0.9267
  957MOL0     C26223   3.519   4.693   6.009 -0.4578  0.2370 -0.1606
  957MOL0     C26224   3.406   4.613   6.012  0.2273  1.3645 -0.6514
  957MOL0     C26225   3.292   4.647   6.090  0.2317 -0.4116  0.3934
  957MOL0     C26226   3.290   4.761   6.172  0.1760 -0.6779  0.4888
  957MOL0     O26227   3.178   4.791   6.251  0.2178  0.8908  1.0083
  957MOL0     C26228   3.141   4.935   6.263 -0.5875 -0.2851  0.2079
  957MOL0     C26229   2.994   4.947   6.329 -0.6850  0.5341  0.4489
  957MOL0     C26230   2.882   4.907   6.244  0.2580  0.8908 -0.1842
  957MOL0     C26231   2.754   4.963   6.297  0.3705  0.0782 -0.3300
  957MOL0     C26232   2.642   4.934   6.201  0.4210 -0.3353 -0.1856
  957MOL0     C26233   2.507   5.000   6.257  0.0489 -0.1908  0.0846
  957MOL0     C26234   2.510   5.148   6.297  0.4276 -0.0647 -0.2819
  957MOL0     C26235   2.372   5.198   6.351 -0.1744  0.0039  0.9072
  957MOL0    Cl26236   2.267   5.199   6.207 -0.1995 -0.3183 -0.0756
  957MOL0     C26237   3.409   4.842   6.161  1.0426  0.0517 -0.2166
  957MOL0     C26238   3.516   4.807   6.087 -0.9403  0.0990  0.1374
  957MOL0     O26239   3.507   4.586   5.755 -0.1034 -0.1841 -0.5058
  957MOL0     C26240   3.862   4.627   5.763  0.2833 -0.0523  0.0492
  957MOL0     C26241   3.978   4.591   5.691  0.2712  0.2319  1.1656
  957MOL0     N26242   4.783   4.506   5.512  0.0953  0.1938  0.0847
  957MOL0     N26243   4.909   4.500   5.516 -0.3550  0.2624 -0.2080
  957MOL0     C26244   6.054   4.740   5.321  0.9362 -0.0146 -0.0926
  957MOL0     C26245   6.165   4.834   5.333 -0.0905  0.3419  0.5965
  957MOL0     C26246   6.460   5.102   5.559  0.3186  0.3054  0.5479
  957MOL0     C26247   6.491   5.206   5.468  0.5437 -0.0808  0.0720
  957MOL0     C26248   6.608   5.286   5.482  0.8898  0.3411  0.2133
  957MOL0     C26249   6.696   5.260   5.583 -0.5999  0.3097 -0.6804
  957MOL0     O26250   6.805   5.335   5.611  0.4791 -0.2181 -0.1033
  957MOL0     C26251   6.898   5.342   5.491 -0.5772 -0.4409 -0.2446
  957MOL0     C26252   6.971   5.214   5.470 -0.5970  0.1524 -0.1355
  957MOL0     C26253   7.047   5.158   5.600 -0.1111 -0.5812 -0.7432
  957MOL0     C26254   7.074   5.008   5.586 -0.5203 -0.1320  0.4873
  957MOL0     C26255   7.199   4.982   5.521  0.2322 -0.7050  0.6296
  957MOL0     C26256   7.303   4.938   5.475  0.2991  0.2895  0.0075
  957MOL0     C26257   6.670   5.156   5.679 -0.2855  0.3269 -0.8865
  957MOL0     C26258   6.547   5.081   5.667  0.7194 -0.1400 -0.9844
  957MOL0     H26259   6.022   5.091   5.498  1.8019  0.8383 -2.9955
  957MOL0     H26260   5.826   4.949   5.490 -0.8634  0.0111 -2.0013
  957MOL0     H26261   5.692   4.805   5.269 -0.9720  0.3776  0.5214
  957MOL0     H26262   5.670   4.829   5.447  1.2944  2.8232 -1.9216
  957MOL0     H26263   5.600   4.581   5.445 -2.2201  1.6979  2.4546
  957MOL0     H26264   5.591   4.577   5.273  1.1501  0.0582 -0.5273
  957MOL0     H26265   5.406   4.781   5.300  2.3173  0.7983  0.0040
  957MOL0     H26266   5.390   4.715   5.451 -1.6030 -2.1249 -0.0550
  957MOL0     H26267   5.360   4.552   5.200 -1.1685 -3.5743  1.3534
  957MOL0     H26268   5.339   4.491   5.357 -0.7300 -2.2979 -2.0733
  957MOL0     H26269   5.179   4.731   5.258 -2.3826 -0.3173 -0.6400
  957MOL0     H26270   5.154   4.642   5.403 -0.2609  0.1743 -0.0062
  957MOL0     H26271   5.134   4.515   5.117 -2.7577  0.2590 -1.0774
  957MOL0     H26272   4.994   4.562   5.221 -0.3712  0.6716  0.4986
  957MOL0     H26273   5.016   4.331   5.209  1.0938 -2.0126 -0.1001
  957MOL0     H26274   5.188   4.321   5.251  1.1255  1.2851  2.3651
  957MOL0     H26275   5.146   4.403   5.485 -2.0601 -0.0128  1.1802
  957MOL0     H26276   5.106   4.245   5.432 -0.9274  0.6233  3.6755
  957MOL0     H26277   4.828   4.214   5.368 -1.2949 -1.3421  0.7867
  957MOL0     H26278   4.560   4.255   5.507 -3.9144 -0.7328 -0.5609
  957MOL0     H26279   4.548   4.352   5.360 -1.9616  1.8114  0.4624
  957MOL0     H26280   4.476   4.536   5.532  1.9713  0.1113 -0.2677
  957MOL0     H26281   4.517   4.419   5.660  0.3219 -2.8022  0.0456
  957MOL0     H26282   4.317   4.388   5.424  1.8261  0.0021 -0.9904
  957MOL0     H26283   4.318   4.277   5.558  0.8142 -0.0017  1.5132
  957MOL0     H26284   4.238   4.578   5.572 -0.4713  0.5976  3.9398
  957MOL0     H26285   4.260   4.471   5.704 -1.5888 -0.9450  0.2332
  957MOL0     H26286   3.870   4.330   5.530  1.8387  1.9758 -1.7069
  957MOL0     H26287   3.657   4.401   5.650 -1.1133  3.6635 -0.0053
  957MOL0     H26288   3.406   4.528   5.945  2.9516  1.6577 -1.1336
  957MOL0     H26289   3.204   4.585   6.073  0.9364 -1.7173  1.3545
  957MOL0     H26290   3.148   4.985   6.166 -2.3265  0.9082  0.6516
  957MOL0     H26291   3.215   4.980   6.330  0.3472 -0.2886 -0.7888
  957MOL0     H26292   2.975   5.051   6.356 -2.2562  0.2884  0.3696
  957MOL0     H26293   2.985   4.880   6.414 -0.5963  0.8741  0.7292
  957MOL0     H26294   2.869   4.799   6.233  0.4369  1.0583 -2.7515
  957MOL0     H26295   2.899   4.944   6.142 -2.1926  2.1051 -0.2251
  957MOL0     H26296   2.729   4.925   6.397  0.0285  1.2268  0.0341
  957MOL0     H26297   2.774   5.070   6.307 -0.3946  0.3497 -1.5374
  957MOL0     H26298   2.630   4.827   6.183 -2.1200 -0.9587  3.8715
  957MOL0     H26299   2.669   4.975   6.104 -1.1511  1.2463 -0.0105
  957MOL0     H26300   2.475   4.942   6.345 -1.5217  0.5701  0.0634
  957MOL0     H26301   2.427   4.978   6.186  1.0964 -5.0043  0.0513
  957MOL0     H26302   2.589   5.156   6.372 -0.4328  2.8509  0.4556
  957MOL0     H26303   2.539   5.205   6.208 -0.1434  0.2323 -0.2864
  957MOL0     H26304   2.385   5.300   6.389 -2.5232 -0.4206  3.0993
  957MOL0     H26305   2.340   5.133   6.433  0.5468 -0.3165  0.9445
  957MOL0     H26306   3.418   4.925   6.230  0.8654 -2.1141  2.5768
  957MOL0     H26307   3.604   4.870   6.090  1.6096 -3.1387 -0.5422
  957MOL0     H26308   3.867   4.718   5.821  0.8851 -1.4536  2.3149
  957MOL0     H26309   4.066   4.654   5.691  0.2971  0.4146 -2.1347
  957MOL0     H26310   6.068   4.639   5.284  0.4421 -0.2658  0.3951
  957MOL0     H26311   6.266   4.799   5.316  0.7410  2.9559 -0.3255
  957MOL0     H26312   6.422   5.218   5.386  0.6947 -0.7212 -0.1530
  957MOL0     H26313   6.643   5.358   5.409  0.7002  0.7051  0.4752
  957MOL0     H26314   6.975   5.416   5.513  0.4182 -1.1818 -1.1041
  957MOL0     H26315   6.852   5.378   5.398 -0.2858  1.8948  0.4601
  957MOL0     H26316   6.902   5.132   5.446  0.0117 -0.4635  0.1660
  957MOL0     H26317   7.043   5.222   5.388 -0.9442  1.0247 -0.3669
  957MOL0     H26318   6.976   5.171   5.683  2.0095  0.5482  1.0124
  957MOL0     H26319   7.132   5.219   5.631 -0.2033 -1.2199  0.9001
  957MOL0     H26320   7.096   4.973   5.687  3.6198  0.3017 -0.0919
  957MOL0     H26321   6.992   4.948   5.544  1.4155 -1.1824 -2.0661
  957MOL0     H26322   7.393   4.892   5.438 -0.0669  0.7883 -1.6041
  957MOL0     H26323   6.721   5.151   5.774  0.8332  1.3414 -1.3997
  957MOL0     H26324   6.522   5.006   5.741  0.0938 -0.5716 -1.6150
  958MOL0     O26325   9.547   3.600   4.311  0.6056  0.3024  0.6330
  958MOL0     C26326   9.589   3.711   4.317  0.0163  0.5476  0.2587
  958MOL0     O26327   9.513   3.823   4.320  0.8887  0.1411  0.3959
  958MOL0     C26328   9.378   3.810   4.334  0.4238  0.4176 -0.1661
  958MOL0     C26329   9.318   3.823   4.462  0.0530  0.0748 -0.1251
  958MOL0     C26330   9.176   3.799   4.480 -0.4717  0.6514 -0.7449
  958MOL0     C26331   9.104   3.776   4.367  0.2205  0.4293  0.5114
  958MOL0     O26332   8.971   3.756   4.389  0.2620 -0.3499  0.1371
  958MOL0     C26333   8.886   3.729   4.277 -0.0408 -0.5058  0.9252
  958MOL0     C26334   8.738   3.720   4.320  1.0864  0.4568 -0.7872
  958MOL0     C26335   8.695   3.593   4.396 -0.4375  1.0365 -0.4592
  958MOL0     C26336   8.544   3.550   4.384 -0.2933  0.6675  0.3702
  958MOL0     C26337   8.455   3.639   4.468  0.5544  0.3423  0.2610
  958MOL0     C26338   8.457   3.606   4.620  0.8125 -0.0689  0.6859
  958MOL0     C26339   8.342   3.669   4.704 -0.1064  0.5004 -0.4531
  958MOL0     C26340   8.274   3.790   4.652 -0.2295  0.3838 -0.5771
  958MOL0     N26341   8.163   3.835   4.741  0.0365  0.8429  0.8928
  958MOL0     C26342   8.098   3.769   4.840  0.3233 -0.3880  0.3752
  958MOL0     C26343   7.987   3.850   4.873  0.7327 -0.0905 -0.5083
  958MOL0     C26344   7.870   3.809   4.962 -0.1941 -0.0496  0.8073
  958MOL0     C26345   7.787   3.933   4.999  0.1831 -0.2807  0.2361
  958MOL0     C26346   7.668   3.904   5.098  0.4357  0.5651 -0.7720
  958MOL0     C26347   7.578   4.030   5.113  0.9428  0.3629  0.8214
  958MOL0     O26348   7.491   4.037   4.997 -0.6364 -0.2186 -0.3758
  958MOL0     C26349   7.361   4.032   5.040 -0.5228  1.1182 -0.3007
  958MOL0     C26350   7.312   4.147   5.098 -0.0683 -0.1930 -0.5491
  958MOL0     C26351   7.181   4.161   5.148 -0.1776 -0.5266  0.8434
  958MOL0     C26352   7.091   4.055   5.140 -0.5571  0.5585  0.8241
  958MOL0     C26353   6.942   4.054   5.178  0.0047  0.2508  0.7447
  958MOL0     O26354   6.855   3.946   5.152  0.1897 -1.0426 -0.8556
  958MOL0     C26355   6.717   3.966   5.182  0.1250  0.3072  0.3647
  958MOL0     C26356   6.626   3.936   5.083 -0.6018  0.3299 -0.3876
  958MOL0     C26357   6.487   3.935   5.107  0.3645 -0.7747 -0.2156
  958MOL0     C26358   6.443   3.971   5.233  0.5092 -0.3796 -0.5391
  958MOL0     O26359   6.308   3.983   5.255  0.3021  0.1795  0.1172
  958MOL0     C26360   6.270   3.982   5.392 -0.1998 -1.0759 -0.3853
  958MOL0     C26361   6.122   3.979   5.411 -0.1237 -0.6320  0.3211
  958MOL0     C26362   6.046   4.075   5.319 -0.0049  0.5452 -0.2564
  958MOL0     C26363   5.884   4.061   5.337  0.1667 -0.4229  0.2983
  958MOL0     C26364   5.817   4.176   5.259  0.0632  0.2705  0.4549
  958MOL0     C26365   5.672   4.178   5.287  0.7221  0.6420  1.0048
  958MOL0     C26366   5.599   4.275   5.193  0.5820 -0.8676  0.2987
  958MOL0     C26367   5.445   4.253   5.212  1.0030 -0.3101 -0.3897
  958MOL0    Cl26368   5.394   4.236   5.388  0.3597  0.0969 -0.0923
  958MOL0     C26369   6.538   4.014   5.333  1.2418  0.6618  0.8391
  958MOL0     C26370   6.670   4.010   5.308 -0.1555  0.3957  0.2421
  958MOL0     O26371   6.910   4.161   5.226 -0.1914  0.1667 -0.3882
  958MOL0     C26372   7.144   3.929   5.093  0.5317  0.4189  0.2756
  958MOL0     C26373   7.278   3.916   5.036  0.1606 -0.7324 -0.2433
  958MOL0     N26374   7.981   3.957   4.789 -0.4780 -0.5940 -0.5032
  958MOL0     N26375   8.077   3.942   4.705  0.1415  0.3492  0.0332
  958MOL0     C26376   9.157   3.772   4.235 -0.1166 -0.1468  0.0497
  958MOL0     C26377   9.292   3.791   4.229  0.3260 -0.2100 -0.2636
  958MOL0     C26378   9.736   3.730   4.305 -0.0971  0.3610 -0.8491
  958MOL0     C26379   9.821   3.622   4.265 -0.4325 -0.7715 -0.4833
  958MOL0     C26380   9.956   3.641   4.245  0.2081  0.4327  0.2125
  958MOL0     C26381  10.022   3.758   4.286  0.2604 -0.7336  0.6298
  958MOL0     O26382  10.156   3.778   4.291 -0.3632  1.1254  0.0236
  958MOL0     C26383  10.239   3.710   4.195  0.1365 -0.6188 -0.3815
  958MOL0     C26384  10.390   3.700   4.240  0.2735  0.3174 -0.4170
  958MOL0     C26385  10.460   3.829   4.220  0.0785  0.2611  0.0158
  958MOL0     C26386  10.570   3.807   4.117 -0.1458  0.6479  0.9368
  958MOL0     C26387  10.618   3.944   4.081 -0.5436  0.2081  0.4821
  958MOL0     C26388  10.676   4.041   4.037  1.3546  0.6604  0.7099
  958MOL0     C26389   9.942   3.864   4.322  0.4444  0.7125 -0.2327
  958MOL0     C26390   9.799   3.854   4.335 -0.2898 -0.3038  0.4554
  958MOL0     H26391   9.385   3.851   4.543 -0.8973  1.7104  0.1438
  958MOL0     H26392   9.134   3.816   4.578  0.0550  2.4112 -0.7788
  958MOL0     H26393   8.920   3.637   4.229  0.7003 -1.6078  3.4288
  958MOL0     H26394   8.877   3.808   4.202 -1.0234 -3.2097 -2.0466
  958MOL0     H26395   8.687   3.726   4.223  0.6994 -1.0496 -0.7112
  958MOL0     H26396   8.706   3.811   4.371 -1.1852 -0.8117  0.2455
  958MOL0     H26397   8.727   3.600   4.500 -0.9449  2.1422 -0.3554
  958MOL0     H26398   8.737   3.505   4.348 -1.7736 -0.0203  0.2458
  958MOL0     H26399   8.523   3.556   4.277  1.3279  4.2329  0.1297
  958MOL0     H26400   8.534   3.448   4.421 -1.6086  1.1614  1.4614
  958MOL0     H26401   8.351   3.634   4.434 -0.2357  3.9610  1.7095
  958MOL0     H26402   8.484   3.744   4.457 -4.7119  1.9774 -0.7643
  958MOL0     H26403   8.547   3.652   4.664  0.5336  3.1311 -1.7002
  958MOL0     H26404   8.456   3.497   4.623 -0.7603 -0.6014 -5.5259
  958MOL0     H26405   8.268   3.590   4.720  0.7294  0.1434  2.1375
  958MOL0     H26406   8.377   3.699   4.804 -1.6941  0.5736  0.1127
  958MOL0     H26407   8.222   3.748   4.565  0.8157 -0.0031 -1.0330
  958MOL0     H26408   8.347   3.867   4.623  1.4766 -0.3356  1.5462
  958MOL0     H26409   8.115   3.671   4.881 -1.0262 -0.3495  1.0966
  958MOL0     H26410   7.908   3.763   5.054 -0.2895  1.1548  1.4720
  958MOL0     H26411   7.812   3.737   4.904  1.7583  0.8292 -2.4821
  958MOL0     H26412   7.754   3.982   4.906  2.1026 -0.1215 -0.4094
  958MOL0     H26413   7.857   3.992   5.058 -1.3461 -1.0564  3.0251
  958MOL0     H26414   7.607   3.828   5.049  0.8795 -0.6622  0.5509
  958MOL0     H26415   7.710   3.871   5.193  2.1734 -0.6613 -1.9043
  958MOL0     H26416   7.640   4.118   5.126 -0.4932  1.4546  0.4961
  958MOL0     H26417   7.517   4.021   5.204  1.8276 -1.0016  1.3186
  958MOL0     H26418   7.375   4.233   5.117 -1.9518  0.7986  1.7686
  958MOL0     H26419   7.155   4.263   5.174  1.4759 -0.0226  0.6174
  958MOL0     H26420   6.656   3.921   4.979  0.2520 -3.2681  0.2597
  958MOL0     H26421   6.418   3.927   5.024 -0.1267 -0.3551  0.1461
  958MOL0     H26422   6.311   4.076   5.430 -1.0406 -1.5071  1.7066
  958MOL0     H26423   6.315   3.893   5.436  0.1896 -2.6242 -3.6056
  958MOL0     H26424   6.091   4.001   5.514  1.7798  0.6381  0.6825
  958MOL0     H26425   6.083   3.881   5.384 -0.1494 -0.4749 -0.2201
  958MOL0     H26426   6.065   4.065   5.212 -2.3504  2.4957 -0.9622
  958MOL0     H26427   6.074   4.175   5.355  2.4393  0.0769 -0.6641
  958MOL0     H26428   5.847   3.971   5.287  1.1164  0.4008 -2.0082
  958MOL0     H26429   5.855   4.060   5.443 -0.2673  0.5078  0.2014
  958MOL0     H26430   5.830   4.170   5.150 -1.9193 -0.2888  0.2154
  958MOL0     H26431   5.864   4.271   5.286  0.8089  0.9215 -2.7048
  958MOL0     H26432   5.659   4.215   5.389 -1.3939  1.9342  0.3450
  958MOL0     H26433   5.631   4.077   5.281 -0.9385  1.2959  0.7659
  958MOL0     H26434   5.631   4.376   5.219 -0.1599  0.0268 -2.0501
  958MOL0     H26435   5.625   4.257   5.088  1.9639  1.7381  0.1021
  958MOL0     H26436   5.414   4.159   5.165  2.4442 -1.0846  0.1599
  958MOL0     H26437   5.386   4.337   5.173 -0.3153  0.0607  2.2121
  958MOL0     H26438   6.516   4.049   5.434  0.9280 -0.9808  1.3734
  958MOL0     H26439   6.741   4.035   5.386 -0.6313  0.3593  0.6984
  958MOL0     H26440   7.093   3.834   5.105 -0.2293  0.9720  1.6683
  958MOL0     H26441   7.316   3.822   4.999  0.2932 -1.1458  0.8865
  958MOL0     H26442   9.098   3.754   4.146 -1.4422 -2.6617  1.3348
  958MOL0     H26443   9.325   3.779   4.126  0.9828 -0.7605  0.0007
  958MOL0     H26444   9.776   3.531   4.226  1.0061 -1.8451  0.2650
  958MOL0     H26445  10.004   3.560   4.191 -1.4118 -0.5241  0.1452
  958MOL0     H26446  10.237   3.777   4.109 -0.4265  0.5580  0.5204
  958MOL0     H26447  10.211   3.609   4.163 -0.4654 -0.3304 -0.7848
  958MOL0     H26448  10.392   3.667   4.344 -3.8297  1.5784  0.2298
  958MOL0     H26449  10.433   3.620   4.179  2.2954 -0.2993  1.6589
  958MOL0     H26450  10.513   3.863   4.310  1.3088 -2.4956  0.4206
  958MOL0     H26451  10.394   3.909   4.185  1.5358  0.6096 -2.1024
  958MOL0     H26452  10.647   3.745   4.163 -2.4589 -2.7852  0.5657
  958MOL0     H26453  10.537   3.764   4.022  1.3214  1.4075  0.0467
  958MOL0     H26454  10.727   4.124   3.991  0.3035  0.4710 -0.9160
  958MOL0     H26455   9.995   3.954   4.353 -0.0208  0.8211  0.2569
  958MOL0     H26456   9.737   3.936   4.369  3.0197  1.7527  2.0567
  959MOL0     O26457   6.938   8.190   3.597 -0.1827 -0.1208  0.3049
  959MOL0     C26458   6.958   8.273   3.689  0.5879  0.7527 -0.4536
  959MOL0     O26459   6.864   8.333   3.762  0.4520  0.0053 -0.8177
  959MOL0     C26460   6.748   8.367   3.697 -0.0333  0.5148  0.1256
  959MOL0     C26461   6.620   8.344   3.755  0.2635 -0.1178 -0.3429
  959MOL0     C26462   6.496   8.384   3.701  0.4577  0.1983 -0.1210
  959MOL0     C26463   6.504   8.444   3.567  1.3034 -0.4768 -0.5366
  959MOL0     O26464   6.386   8.469   3.484 -1.0225 -0.3122 -0.0982
  959MOL0     C26465   6.276   8.378   3.506  0.4122 -0.3705  0.4634
  959MOL0     C26466   6.158   8.391   3.404 -0.1855  1.4084  0.2127
  959MOL0     C26467   6.041   8.299   3.416  0.4714  0.4646  0.2044
  959MOL0     C26468   5.954   8.333   3.544  0.0371  0.9203  0.7454
  959MOL0     C26469   5.829   8.244   3.557  0.1811  0.5794  0.1554
  959MOL0     C26470   5.858   8.110   3.616 -0.3613 -0.4951 -0.8716
  959MOL0     C26471   5.748   8.003   3.579  0.1173  0.3630 -0.1789
  959MOL0     C26472   5.606   8.046   3.565  0.1271 -0.0248 -0.1592
  959MOL0     N26473   5.549   8.101   3.694 -0.5261 -0.6340  0.0574
  959MOL0     C26474   5.506   8.026   3.802 -0.3294 -0.6744  0.8176
  959MOL0     C26475   5.457   8.120   3.889 -0.3869  0.1239  0.6593
  959MOL0     C26476   5.389   8.101   4.015 -0.1803 -0.1169  0.0363
  959MOL0     C26477   5.452   8.180   4.135 -0.3929 -0.0258 -0.5928
  959MOL0     C26478   5.381   8.196   4.274 -0.1340  0.2446 -0.1421
  959MOL0     C26479   5.256   8.271   4.235  0.1869 -0.3964  0.2191
  959MOL0     O26480   5.173   8.320   4.349  0.6157 -0.5683 -0.8140
  959MOL0     C26481   5.050   8.378   4.331  0.0929  0.1509 -0.4824
  959MOL0     C26482   4.971   8.382   4.443  0.3260 -1.0343  0.0421
  959MOL0     C26483   4.836   8.434   4.435 -0.5423  0.2839  0.0204
  959MOL0     C26484   4.780   8.471   4.311 -0.0444  0.8638  0.2132
  959MOL0     C26485   4.640   8.503   4.293  0.0075 -0.7880 -0.2214
  959MOL0     O26486   4.578   8.537   4.419  0.7823 -0.4310 -0.0165
  959MOL0     C26487   4.442   8.553   4.432  0.4750 -0.3196 -0.4976
  959MOL0     C26488   4.389   8.693   4.415 -0.7908 -0.5230  0.4162
  959MOL0     C26489   4.249   8.731   4.431  0.5369  0.4916 -0.5672
  959MOL0     C26490   4.157   8.628   4.454 -0.9691  0.5177  0.4877
  959MOL0     O26491   4.029   8.667   4.466 -0.5365  0.7232 -0.5799
  959MOL0     C26492   3.930   8.569   4.508  0.4834 -0.3126 -0.3524
  959MOL0     C26493   3.796   8.633   4.531 -0.2635  0.1123  0.0081
  959MOL0     C26494   3.714   8.542   4.618  0.7564 -0.0386 -0.4966
  959MOL0     C26495   3.568   8.598   4.647 -0.4219 -0.4008 -0.6694
  959MOL0     C26496   3.473   8.479   4.684  0.1582 -0.1871 -0.1320
  959MOL0     C26497   3.339   8.535   4.756 -0.1586  1.0649 -0.0032
  959MOL0     C26498   3.259   8.426   4.831 -0.3433 -0.0586  0.6576
  959MOL0     C26499   3.104   8.471   4.823 -0.2961  0.0688 -0.2038
  959MOL0    Cl26500   3.071   8.639   4.890  0.2301 -0.3987 -0.0975
  959MOL0     C26501   4.211   8.491   4.460  0.2482  0.6921  0.2321
  959MOL0     C26502   4.348   8.456   4.451  0.5167  0.1277  0.0947
  959MOL0     O26503   4.580   8.497   4.189  1.0014 -0.4307 -0.1335
  959MOL0     C26504   4.864   8.460   4.202 -0.1541 -0.2161 -0.1029
  959MOL0     C26505   5.001   8.430   4.210  0.8767  0.7588 -0.3298
  959MOL0     N26506   5.471   8.249   3.827  0.4654  0.1077  0.0507
  959MOL0     N26507   5.525   8.229   3.714 -0.9642  0.4335 -0.7662
  959MOL0     C26508   6.630   8.478   3.511  0.0048  0.5636  0.0693
  959MOL0     C26509   6.748   8.433   3.571  0.2205  0.9408 -0.4966
  959MOL0     C26510   7.093   8.305   3.711  0.0393 -0.0812 -0.5328
  959MOL0     C26511   7.129   8.403   3.808  0.8744  0.2067  0.5438
  959MOL0     C26512   7.262   8.440   3.822  0.2414  0.1425 -0.6977
  959MOL0     C26513   7.366   8.372   3.748 -0.4776 -0.1231 -0.4276
  959MOL0     O26514   7.492   8.417   3.777 -0.4855  0.0876 -0.8960
  959MOL0     C26515   7.602   8.398   3.679  0.5197  0.1586 -1.2545
  959MOL0     C26516   7.594   8.506   3.566  0.7021  0.6034 -0.4788
  959MOL0     C26517   7.613   8.650   3.625  0.2506 -0.7305 -0.9126
  959MOL0     C26518   7.622   8.760   3.522 -0.0246  0.6775 -0.1057
  959MOL0     C26519   7.486   8.794   3.472  0.0342  0.7832 -0.5010
  959MOL0     C26520   7.377   8.809   3.425  0.0843 -0.0681  0.0242
  959MOL0     C26521   7.328   8.279   3.653  0.9859  0.1220 -0.5237
  959MOL0     C26522   7.196   8.243   3.642  0.7181 -0.0687  0.7104
  959MOL0     H26523   6.625   8.284   3.846  0.7890  0.4332  0.0003
  959MOL0     H26524   6.406   8.349   3.749  1.3613 -1.8137  0.2269
  959MOL0     H26525   6.226   8.395   3.602  1.0321  0.0410  0.7264
  959MOL0     H26526   6.311   8.275   3.502  0.5506 -0.3103  0.0452
  959MOL0     H26527   6.206   8.371   3.307 -0.2021 -0.1797  0.5110
  959MOL0     H26528   6.135   8.498   3.400  0.0946  1.4389 -1.5771
  959MOL0     H26529   6.076   8.195   3.413 -0.8320 -0.0768  1.8086
  959MOL0     H26530   5.975   8.311   3.330  1.0666 -0.0121 -0.3324
  959MOL0     H26531   6.016   8.327   3.635  0.3433  1.2113  0.5580
  959MOL0     H26532   5.910   8.433   3.542 -4.0000 -0.5307  3.5630
  959MOL0     H26533   5.792   8.222   3.456 -2.4673 -0.5727  1.3211
  959MOL0     H26534   5.751   8.301   3.608 -1.9045  0.5169 -2.7387
  959MOL0     H26535   5.855   8.115   3.725  0.7480 -1.3930 -0.7836
  959MOL0     H26536   5.954   8.072   3.581 -0.3134 -2.2757  1.0297
  959MOL0     H26537   5.762   7.965   3.478 -3.1217  4.5955 -2.5790
  959MOL0     H26538   5.762   7.919   3.648  1.0341  0.1590 -0.6004
  959MOL0     H26539   5.535   7.965   3.545  1.4443 -1.4840  0.8474
  959MOL0     H26540   5.588   8.117   3.484 -4.6708  0.7659  1.2808
  959MOL0     H26541   5.504   7.918   3.809 -0.0480 -0.7152  0.2916
  959MOL0     H26542   5.396   7.993   4.034  1.4938 -0.0965 -0.3133
  959MOL0     H26543   5.285   8.135   4.008  0.3177  1.2837 -0.9165
  959MOL0     H26544   5.471   8.282   4.101 -3.0831  0.9592  0.6102
  959MOL0     H26545   5.548   8.129   4.151 -2.2671 -3.6463  0.0484
  959MOL0     H26546   5.354   8.100   4.319 -1.9174  0.1650 -1.2850
  959MOL0     H26547   5.449   8.245   4.345  0.2741 -4.0103  2.8009
  959MOL0     H26548   5.201   8.202   4.171 -0.6610  1.8004 -1.5668
  959MOL0     H26549   5.277   8.360   4.175 -0.3557 -0.7525 -0.5080
  959MOL0     H26550   5.023   8.366   4.537 -0.3827  0.6655  0.7641
  959MOL0     H26551   4.765   8.428   4.516  0.5000 -3.3272  0.8722
  959MOL0     H26552   4.463   8.771   4.406 -1.1439 -0.0886  1.1672
  959MOL0     H26553   4.203   8.829   4.428 -1.8199 -0.5028  0.3278
  959MOL0     H26554   3.962   8.523   4.602  0.5475 -0.5520 -0.4890
  959MOL0     H26555   3.911   8.490   4.434 -2.4818  0.9190 -1.0584
  959MOL0     H26556   3.738   8.649   4.440 -0.7431 -2.6417 -0.2519
  959MOL0     H26557   3.807   8.724   4.591  2.3166 -0.1673  0.0724
  959MOL0     H26558   3.750   8.535   4.721 -1.2311  5.5949  0.9481
  959MOL0     H26559   3.697   8.445   4.571  2.5173  0.3781 -2.0847
  959MOL0     H26560   3.578   8.674   4.725  1.8627  1.8526 -2.9835
  959MOL0     H26561   3.533   8.651   4.558  1.5221  1.8289 -0.2050
  959MOL0     H26562   3.515   8.414   4.762  0.1757  1.1356  0.9896
  959MOL0     H26563   3.448   8.429   4.590  1.2831 -0.9917 -0.0234
  959MOL0     H26564   3.275   8.574   4.676  1.4270 -2.3299 -3.2837
  959MOL0     H26565   3.367   8.615   4.825  1.5363  0.6836 -0.2054
  959MOL0     H26566   3.269   8.332   4.776 -0.1673  0.5227 -0.3344
  959MOL0     H26567   3.289   8.406   4.934 -1.9567 -0.1802  1.1276
  959MOL0     H26568   3.054   8.405   4.894 -0.7649  2.7033  2.0353
  959MOL0     H26569   3.064   8.459   4.721  3.4347  1.9184 -2.1103
  959MOL0     H26570   4.155   8.406   4.497  0.5390  1.1330  1.7407
  959MOL0     H26571   4.381   8.353   4.458  2.6468  0.5350 -2.5096
  959MOL0     H26572   4.836   8.481   4.099  2.3973  0.3453 -0.7617
  959MOL0     H26573   5.067   8.441   4.124 -0.0046  0.7640 -1.0212
  959MOL0     H26574   6.628   8.523   3.412 -4.5315 -0.9625 -0.7666
  959MOL0     H26575   6.836   8.451   3.510 -0.0489 -0.2002 -1.2690
  959MOL0     H26576   7.053   8.444   3.874  0.2433  0.9557 -0.6131
  959MOL0     H26577   7.301   8.504   3.900  1.1076  0.2873 -1.2413
  959MOL0     H26578   7.595   8.295   3.644  1.6993 -1.5883  3.0896
  959MOL0     H26579   7.698   8.416   3.728 -0.2402  2.2023 -0.3644
  959MOL0     H26580   7.670   8.479   3.493  0.4467 -1.2618 -0.1309
  959MOL0     H26581   7.499   8.498   3.512  1.4610 -4.5093 -1.6047
  959MOL0     H26582   7.707   8.649   3.680  0.2943  0.0589 -0.9649
  959MOL0     H26583   7.539   8.676   3.702  2.1479 -1.7916  1.3977
  959MOL0     H26584   7.672   8.843   3.575  2.8960 -1.0527  0.0665
  959MOL0     H26585   7.688   8.720   3.445  1.5495 -0.3821  1.6807
  959MOL0     H26586   7.284   8.829   3.377  0.9289  1.2410 -1.1515
  959MOL0     H26587   7.388   8.222   3.583  1.5645  1.3460 -1.0533
  959MOL0     H26588   7.169   8.168   3.568 -0.0018  1.0482 -0.2085
  960MOL0     O26589   9.303   5.951   2.008  0.1879 -0.3306  0.2948
  960MOL0     C26590   9.366   6.059   2.027 -0.7747  0.3820  0.0910
  960MOL0     O26591   9.304   6.175   2.038  0.3313  0.2538 -0.4728
  960MOL0     C26592   9.171   6.203   2.063  0.2281  0.2806 -0.2628
  960MOL0     C26593   9.070   6.120   2.120  0.3994  0.3112  0.6105
  960MOL0     C26594   8.947   6.172   2.158 -0.2471  0.4669  0.3953
  960MOL0     C26595   8.920   6.309   2.155 -0.0359  0.4218 -0.5102
  960MOL0     O26596   8.789   6.335   2.189 -0.2851 -0.4855  0.3104
  960MOL0     C26597   8.747   6.474   2.199 -0.7498  0.1542  0.3588
  960MOL0     C26598   8.608   6.477   2.133  0.4391 -0.4706  0.0438
  960MOL0     C26599   8.570   6.624   2.102  0.8599  0.1122 -0.3190
  960MOL0     C26600   8.442   6.625   2.017 -0.1821  0.3613 -0.2516
  960MOL0     C26601   8.393   6.765   1.989 -0.8948  0.2299  0.1268
  960MOL0     C26602   8.312   6.841   2.099 -0.4501  0.5509  0.0132
  960MOL0     C26603   8.164   6.803   2.107  1.4554 -0.1434  0.0192
  960MOL0     C26604   8.079   6.873   1.997 -0.0937  0.3987  0.5032
  960MOL0     N26605   7.949   6.805   1.995 -0.3545 -0.5381 -0.0217
  960MOL0     C26606   7.854   6.805   2.096  0.0668  0.3409  0.1403
  960MOL0     C26607   7.763   6.701   2.057 -0.1244 -0.8608 -0.4630
  960MOL0     C26608   7.630   6.677   2.124  0.1039 -0.2738 -0.6756
  960MOL0     C26609   7.644   6.667   2.279  0.2102  0.1639  0.1256
  960MOL0     C26610   7.512   6.616   2.330 -0.5177  0.3775  0.0320
  960MOL0     C26611   7.398   6.716   2.355 -0.1540  0.4090 -0.4562
  960MOL0     O26612   7.286   6.638   2.409  0.2862 -0.0867 -0.4458
  960MOL0     C26613   7.171   6.707   2.444 -0.0655  0.0158  0.4942
  960MOL0     C26614   7.048   6.639   2.444 -0.6651  0.8772  0.2632
  960MOL0     C26615   6.932   6.711   2.475 -0.2264 -0.0233 -0.0309
  960MOL0     C26616   6.933   6.849   2.498 -0.5959 -0.5346 -1.3511
  960MOL0     C26617   6.808   6.919   2.528  0.6269  0.4995  0.2596
  960MOL0     O26618   6.695   6.839   2.570  0.6584  0.2216  0.3561
  960MOL0     C26619   6.581   6.900   2.601 -0.0475 -0.9277 -0.0708
  960MOL0     C26620   6.577   6.995   2.706 -0.1344 -0.3391  0.0211
  960MOL0     C26621   6.461   7.061   2.737 -0.1604 -0.9918  0.7147
  960MOL0     C26622   6.345   7.029   2.667  0.4070 -0.6798  1.3722
  960MOL0     O26623   6.240   7.106   2.701  0.5871 -0.2317  0.5132
  960MOL0     C26624   6.141   7.107   2.594  0.1439  0.3475  0.2494
  960MOL0     C26625   6.043   7.227   2.616  0.9667 -0.3678  0.1714
  960MOL0     C26626   5.979   7.226   2.757 -0.1044  0.3577 -0.4138
  960MOL0     C26627   5.899   7.350   2.769 -0.0047 -0.7761 -0.0794
  960MOL0     C26628   5.824   7.361   2.913 -0.5803 -0.5939  0.3810
  960MOL0     C26629   5.860   7.482   3.001  0.6571 -0.8113 -0.7079
  960MOL0     C26630   5.810   7.615   2.935  0.2093  0.9401  0.0933
  960MOL0     C26631   5.885   7.733   3.002 -0.0793  0.1047  0.7240
  960MOL0    Cl26632   5.846   7.786   3.161  0.0047 -0.0292 -0.1340
  960MOL0     C26633   6.346   6.923   2.573 -0.6123 -0.9894 -0.5646
  960MOL0     C26634   6.468   6.861   2.542 -0.0270  0.2935 -0.4941
  960MOL0     O26635   6.810   7.045   2.529 -0.8709 -0.4684  0.0174
  960MOL0     C26636   7.053   6.919   2.498  0.6338 -0.2970 -0.7229
  960MOL0     C26637   7.168   6.846   2.465  0.7739 -1.1451 -0.4743
  960MOL0     N26638   7.813   6.642   1.942  0.3565 -0.0016 -0.2856
  960MOL0     N26639   7.915   6.705   1.900  0.0218  0.3269 -1.0986
  960MOL0     C26640   9.024   6.396   2.110  0.0453 -0.0689 -0.2681
  960MOL0     C26641   9.146   6.338   2.066 -0.0438 -0.5418 -0.7961
  960MOL0     C26642   9.519   6.055   2.033 -0.1353 -0.8707 -0.3836
  960MOL0     C26643   9.584   6.163   2.107  0.2857  0.2809 -0.8967
  960MOL0     C26644   9.722   6.172   2.109 -0.6108 -1.1909 -0.4732
  960MOL0     C26645   9.801   6.070   2.049 -0.7667 -0.4158  0.5873
  960MOL0     O26646   9.939   6.082   2.065 -0.6735  0.2265  0.0589
  960MOL0     C26647  10.023   5.976   2.011  0.1862 -0.3777  0.3429
  960MOL0     C26648  10.171   6.019   2.027 -0.0036 -0.0969 -0.2881
  960MOL0     C26649  10.205   6.169   1.983 -0.0414 -0.3655  0.0106
  960MOL0     C26650  10.362   6.191   1.978  0.4285  0.1468 -1.0822
  960MOL0     C26651  10.416   6.158   1.848 -0.6976  0.2842 -0.0736
  960MOL0     C26652  10.473   6.123   1.741  0.4988 -0.0376  0.0434
  960MOL0     C26653   9.734   5.974   1.980  0.3155 -0.1313 -0.6236
  960MOL0     C26654   9.594   5.964   1.969  0.3758  0.3232  0.3752
  960MOL0     H26655   9.080   6.012   2.120 -0.4674  0.1340  3.8273
  960MOL0     H26656   8.867   6.106   2.187  0.3241 -1.9985 -3.0411
  960MOL0     H26657   8.828   6.534   2.156  2.4003 -2.8987  1.5725
  960MOL0     H26658   8.738   6.519   2.299 -0.8563  1.8893 -0.3920
  960MOL0     H26659   8.538   6.423   2.197 -0.5728 -0.7246 -1.2312
  960MOL0     H26660   8.613   6.430   2.034  0.1824  0.9565 -0.6706
  960MOL0     H26661   8.654   6.677   2.058  1.3910  0.1528  0.7076
  960MOL0     H26662   8.553   6.682   2.194 -0.0905 -0.2977 -0.2157
  960MOL0     H26663   8.470   6.586   1.919  1.0677  0.6791 -0.0394
  960MOL0     H26664   8.366   6.567   2.070 -1.3837  2.0605 -0.0193
  960MOL0     H26665   8.316   6.763   1.911 -0.0170  0.7605 -0.7727
  960MOL0     H26666   8.479   6.820   1.950 -1.3428  0.6555 -0.2717
  960MOL0     H26667   8.316   6.947   2.074  1.0151  0.8958  1.4878
  960MOL0     H26668   8.358   6.821   2.197  0.4730 -2.7285 -0.9393
  960MOL0     H26669   8.166   6.694   2.108 -1.0654 -0.2523  0.0007
  960MOL0     H26670   8.124   6.840   2.202  1.5744  0.7267 -0.2600
  960MOL0     H26671   8.122   6.861   1.897 -0.8417 -1.4184  0.3616
  960MOL0     H26672   8.076   6.980   2.018 -2.3173  0.4085  0.3870
  960MOL0     H26673   7.837   6.883   2.170 -1.5354 -1.7703  2.1333
  960MOL0     H26674   7.590   6.581   2.090 -0.6771 -0.3271  0.3401
  960MOL0     H26675   7.566   6.760   2.095  0.7547 -0.8228 -4.0671
  960MOL0     H26676   7.670   6.757   2.334  1.1588  0.1069 -0.1994
  960MOL0     H26677   7.720   6.591   2.299 -1.0131 -0.8326  1.1486
  960MOL0     H26678   7.467   6.539   2.268 -2.1053 -1.1029  2.8287
  960MOL0     H26679   7.530   6.570   2.427  0.5003  1.1755  0.2346
  960MOL0     H26680   7.369   6.757   2.257 -0.8133  2.5402  0.5729
  960MOL0     H26681   7.431   6.797   2.421 -1.2999 -1.0329  2.0258
  960MOL0     H26682   7.051   6.531   2.440 -0.2879  0.3256  6.2941
  960MOL0     H26683   6.841   6.654   2.490  1.0696 -1.9315  0.9062
  960MOL0     H26684   6.666   7.029   2.759 -0.4705 -0.1313  0.4529
  960MOL0     H26685   6.459   7.145   2.806 -0.8145 -1.1667  0.9239
  960MOL0     H26686   6.087   7.012   2.592  1.3888 -0.5168  2.6566
  960MOL0     H26687   6.188   7.116   2.496  0.9603 -1.3204  0.4521
  960MOL0     H26688   5.959   7.228   2.545  1.2270  0.2906 -0.1434
  960MOL0     H26689   6.092   7.324   2.597 -0.2630  0.1195 -0.6546
  960MOL0     H26690   6.050   7.221   2.839 -1.1182  1.8836  0.6218
  960MOL0     H26691   5.925   7.131   2.760  2.3999 -1.1313  1.1493
  960MOL0     H26692   5.968   7.434   2.760 -1.7362  0.4302 -3.2015
  960MOL0     H26693   5.828   7.365   2.688  2.1638  0.4879 -1.8271
  960MOL0     H26694   5.841   7.267   2.966  1.9823 -0.1848  0.4064
  960MOL0     H26695   5.716   7.361   2.892 -0.3871 -3.8285 -1.2618
  960MOL0     H26696   5.968   7.481   3.020  0.6344 -2.2065 -0.5683
  960MOL0     H26697   5.815   7.471   3.100  0.7234 -2.8185 -0.8521
  960MOL0     H26698   5.833   7.610   2.828  1.5904 -2.3083  0.4329
  960MOL0     H26699   5.705   7.637   2.952  0.2560  0.1610  1.5700
  960MOL0     H26700   5.872   7.820   2.938  3.4654 -0.2318 -0.6722
  960MOL0     H26701   5.991   7.710   2.992 -0.3300 -0.9808  0.3637
  960MOL0     H26702   6.257   6.887   2.520 -0.1802  2.6342 -4.3015
  960MOL0     H26703   6.473   6.784   2.466  1.3141  2.4048 -2.6999
  960MOL0     H26704   7.053   7.026   2.519 -0.3608  0.0160 -2.1979
  960MOL0     H26705   7.260   6.898   2.489 -0.6170 -0.1574  3.5139
  960MOL0     H26706   9.021   6.504   2.122  1.6785  0.0929 -0.9943
  960MOL0     H26707   9.223   6.409   2.036 -0.8938  0.2964 -1.0521
  960MOL0     H26708   9.530   6.238   2.163  4.3580  0.8446  2.8383
  960MOL0     H26709   9.762   6.257   2.163 -2.6239  1.5257 -2.9323
  960MOL0     H26710  10.005   5.973   1.903  1.8969  0.6378 -0.0065
  960MOL0     H26711   9.992   5.879   2.052 -0.7586 -1.7737 -3.2506
  960MOL0     H26712  10.211   6.007   2.128 -0.1087  0.5439 -0.1663
  960MOL0     H26713  10.234   5.956   1.964 -0.2183 -1.7741  1.0874
  960MOL0     H26714  10.164   6.236   2.059 -0.8621 -0.6685 -0.1591
  960MOL0     H26715  10.162   6.182   1.883  4.1582 -1.2049 -2.1643
  960MOL0     H26716  10.383   6.293   2.010 -3.6087  0.6236  0.6959
  960MOL0     H26717  10.403   6.131   2.060 -0.0407  1.2893  0.0218
  960MOL0     H26718  10.520   6.081   1.655 -2.0294 -3.8116  0.2801
  960MOL0     H26719   9.792   5.900   1.925  2.0280  1.0959 -0.5452
  960MOL0     H26720   9.544   5.899   1.898  2.1894 -0.5159 -0.1913
  961MOL0     O26721   6.402   2.262   9.381  0.2835 -0.5484 -0.1532
  961MOL0     C26722   6.451   2.180   9.301 -0.2474 -0.4046  0.4263
  961MOL0     O26723   6.382   2.120   9.196 -0.1783 -0.0830  0.3208
  961MOL0     C26724   6.251   2.134   9.195  1.0600 -0.3945 -0.0124
  961MOL0     C26725   6.172   2.049   9.278  0.4273 -0.7063  0.1422
  961MOL0     C26726   6.031   2.075   9.292  0.0480  0.1416  0.0526
  961MOL0     C26727   5.974   2.174   9.217  0.1637 -0.8804 -0.2346
  961MOL0     O26728   5.840   2.204   9.216  0.1930  1.0439 -0.2507
  961MOL0     C26729   5.749   2.108   9.279 -0.5165 -0.6268 -0.6465
  961MOL0     C26730   5.607   2.165   9.273 -0.4439  0.4575  0.1681
  961MOL0     C26731   5.505   2.051   9.288  1.0207  0.0815 -0.1943
  961MOL0     C26732   5.367   2.106   9.289  0.8699  0.1311  0.9188
  961MOL0     C26733   5.261   1.996   9.286 -0.8566 -0.9675  0.1872
  961MOL0     C26734   5.122   2.058   9.311  0.2305 -0.7091 -0.7839
  961MOL0     C26735   5.015   1.966   9.366 -0.9656  0.1269  0.5959
  961MOL0     C26736   4.878   2.020   9.324 -0.4151 -0.3168 -0.8293
  961MOL0     N26737   4.781   1.912   9.310  0.3688 -0.0664 -0.4380
  961MOL0     C26738   4.771   1.813   9.403 -0.3153 -0.1874  0.8030
  961MOL0     C26739   4.680   1.732   9.342  0.0189  0.1443  0.9424
  961MOL0     C26740   4.617   1.611   9.399 -0.2029  0.2575 -0.0038
  961MOL0     C26741   4.599   1.614   9.546  0.0880 -0.1481 -0.1810
  961MOL0     C26742   4.549   1.485   9.610  0.2501  0.0475 -0.4318
  961MOL0     C26743   4.519   1.490   9.765  0.0704  0.1052 -0.3100
  961MOL0     O26744   4.479   1.358   9.805 -0.1287 -0.5194  0.1783
  961MOL0     C26745   4.344   1.342   9.827  0.3316 -0.0726 -0.0479
  961MOL0     C26746   4.306   1.210   9.859 -0.6990  0.8288  0.6521
  961MOL0     C26747   4.169   1.185   9.882  0.1052 -0.6895  0.3774
  961MOL0     C26748   4.067   1.281   9.883  0.6517 -0.0652  1.2166
  961MOL0     C26749   3.918   1.242   9.896  0.7001 -0.2347  1.3259
  961MOL0     O26750   3.891   1.108   9.906 -0.2363  0.4405 -0.3085
  961MOL0     C26751   3.756   1.074   9.899 -0.7691  0.2858  0.1964
  961MOL0     C26752   3.665   1.114   9.805 -0.3093  0.2852  0.6917
  961MOL0     C26753   3.528   1.071   9.820 -0.5059 -0.2439  0.3634
  961MOL0     C26754   3.487   0.998   9.925 -0.4321 -0.1106 -0.1429
  961MOL0     O26755   3.359   0.964   9.942 -0.6193  0.1365  0.3204
  961MOL0     C26756   3.319   0.853   9.855 -0.3986 -0.2532 -0.2961
  961MOL0     C26757   3.164   0.842   9.838  0.1939 -0.1874 -0.8142
  961MOL0     C26758   3.096   0.814   9.965  0.3844  0.0548  0.1236
  961MOL0     C26759   2.954   0.806   9.927  0.0797  0.7039 -0.4147
  961MOL0     C26760   2.850   0.755  10.031  0.1539 -0.5861  0.1535
  961MOL0     C26761   2.828   0.866  10.134  0.3433 -0.1885  0.7027
  961MOL0     C26762   2.714   0.820  10.227 -1.0013 -0.7746  0.5740
  961MOL0     C26763   2.764   0.741  10.348 -0.7276 -0.8445  0.0660
  961MOL0    Cl26764   2.626   0.742  10.457  0.0594  0.1824 -0.0249
  961MOL0     C26765   3.575   0.970  10.025  0.3374 -0.0001  0.0646
  961MOL0     C26766   3.712   1.007  10.012  0.6326 -1.1550 -0.3258
  961MOL0     O26767   3.828   1.328   9.889 -0.7558 -0.3729  0.4509
  961MOL0     C26768   4.109   1.414   9.859  0.5943  1.1866 -0.2918
  961MOL0     C26769   4.240   1.440   9.817 -0.0094 -0.1562  0.0533
  961MOL0     N26770   4.636   1.784   9.219 -0.5678 -0.9227 -0.0628
  961MOL0     N26771   4.693   1.896   9.204  0.2093 -0.1625 -0.9695
  961MOL0     C26772   6.051   2.262   9.146 -0.0607 -0.3960  0.7936
  961MOL0     C26773   6.188   2.242   9.135 -0.1417 -0.2407 -0.7129
  961MOL0     C26774   6.594   2.167   9.291  0.3103  0.9233  0.4854
  961MOL0     C26775   6.681   2.276   9.311  0.7068  0.0643 -0.5352
  961MOL0     C26776   6.819   2.256   9.303 -0.5813 -0.0136 -0.0305
  961MOL0     C26777   6.872   2.130   9.276  0.3309  0.0284  0.2582
  961MOL0     O26778   7.007   2.119   9.286  0.4664 -0.6833 -0.1828
  961MOL0     C26779   7.071   1.993   9.267  0.7180  0.2405 -0.7423
  961MOL0     C26780   7.218   2.016   9.271 -0.5248 -0.7156  0.2943
  961MOL0     C26781   7.294   1.889   9.259  0.1034  0.7817  0.0531
  961MOL0     C26782   7.446   1.909   9.253 -0.5256 -0.7121 -0.6726
  961MOL0     C26783   7.507   1.777   9.234  0.4213 -0.1816 -0.4308
  961MOL0     C26784   7.553   1.670   9.199  0.2485 -0.0065  0.3125
  961MOL0     C26785   6.782   2.021   9.246  0.3363  0.1203  0.0507
  961MOL0     C26786   6.647   2.042   9.251 -0.6593 -0.4824  0.4254
  961MOL0     H26787   6.222   1.973   9.337  0.5268 -0.7911 -0.0508
  961MOL0     H26788   5.982   2.001   9.355  1.1238 -0.7312 -0.1079
  961MOL0     H26789   5.777   2.075   9.380 -1.9814  0.0546  0.0070
  961MOL0     H26790   5.734   2.025   9.209 -4.1173  1.9939 -3.4100
  961MOL0     H26791   5.586   2.198   9.171 -0.9942  0.5535  0.3087
  961MOL0     H26792   5.596   2.249   9.343  1.0586  1.6618 -0.9360
  961MOL0     H26793   5.523   1.983   9.372 -2.5018 -1.2288 -0.3631
  961MOL0     H26794   5.518   1.983   9.204 -0.4780 -0.2633 -0.1639
  961MOL0     H26795   5.347   2.162   9.381  1.1949 -0.5150  1.3930
  961MOL0     H26796   5.356   2.177   9.207 -0.1291 -1.7773 -0.6517
  961MOL0     H26797   5.291   1.925   9.364  3.0023 -1.7666 -1.7927
  961MOL0     H26798   5.249   1.943   9.191  0.4186  2.0071 -1.7810
  961MOL0     H26799   5.105   2.106   9.214  1.4255  2.7381  0.5383
  961MOL0     H26800   5.132   2.145   9.377 -0.2047  0.1171 -1.7867
  961MOL0     H26801   5.044   1.871   9.320 -0.7381  0.5283 -0.1251
  961MOL0     H26802   5.010   1.963   9.475  0.4617 -0.9716  0.6652
  961MOL0     H26803   4.885   2.073   9.229  0.6412  2.2606  0.5939
  961MOL0     H26804   4.854   2.093   9.401 -1.4619 -1.6697  0.1864
  961MOL0     H26805   4.830   1.791   9.492  0.4444 -2.8078 -0.2622
  961MOL0     H26806   4.673   1.518   9.385 -3.3575 -1.8131  0.2282
  961MOL0     H26807   4.527   1.579   9.346 -2.0383  0.6448  2.6956
  961MOL0     H26808   4.532   1.699   9.564  0.1328  0.2015 -1.5372
  961MOL0     H26809   4.700   1.632   9.583  0.6214  0.5092 -1.8550
  961MOL0     H26810   4.459   1.457   9.555  0.1523  3.0258 -1.9811
  961MOL0     H26811   4.622   1.406   9.588  1.2737  0.7648  0.2900
  961MOL0     H26812   4.448   1.568   9.795 -1.5676 -1.6426  0.6224
  961MOL0     H26813   4.607   1.521   9.821 -0.9777  0.7613  1.0270
  961MOL0     H26814   4.380   1.131   9.854 -0.7027  0.8616 -0.0139
  961MOL0     H26815   4.135   1.082   9.881 -0.0515 -0.6610  1.4840
  961MOL0     H26816   3.701   1.173   9.721 -1.2888 -0.2498 -0.1292
  961MOL0     H26817   3.453   1.099   9.748  2.1854 -0.7036 -2.8595
  961MOL0     H26818   3.357   0.760   9.899 -1.0491 -0.4465 -0.1446
  961MOL0     H26819   3.365   0.859   9.756 -0.4427 -0.1537 -0.3103
  961MOL0     H26820   3.148   0.765   9.763  0.3945  0.2614 -1.3254
  961MOL0     H26821   3.127   0.936   9.796  0.2947  0.3536  0.2673
  961MOL0     H26822   3.123   0.895  10.034 -0.5751  0.0186  0.5576
  961MOL0     H26823   3.126   0.714   9.997  0.4632  0.1967  0.4996
  961MOL0     H26824   2.920   0.903   9.889  2.6540  0.9881 -2.2267
  961MOL0     H26825   2.955   0.740   9.840  1.8999  0.0960  0.0231
  961MOL0     H26826   2.883   0.660  10.073  0.9197 -0.0778  0.7358
  961MOL0     H26827   2.749   0.742   9.989 -0.4266 -0.9336  1.6023
  961MOL0     H26828   2.790   0.949  10.075  0.9609 -0.0552  0.4871
  961MOL0     H26829   2.916   0.894  10.193  0.9618 -1.2470  0.3163
  961MOL0     H26830   2.674   0.912  10.271 -1.5477 -0.6655 -0.1280
  961MOL0     H26831   2.633   0.774  10.170  0.9584 -1.1120 -2.1303
  961MOL0     H26832   2.842   0.803  10.393 -2.7818  0.6963  1.7209
  961MOL0     H26833   2.797   0.639  10.328 -0.8529 -0.5534 -1.7662
  961MOL0     H26834   3.543   0.915  10.113 -1.0918 -2.0865 -1.6450
  961MOL0     H26835   3.778   0.977  10.092 -1.7101 -1.0829  1.7339
  961MOL0     H26836   4.035   1.493   9.866 -0.9754 -0.2467 -0.1023
  961MOL0     H26837   4.258   1.547   9.806 -0.3648  0.0753  1.4652
  961MOL0     H26838   6.007   2.342   9.088  3.0141 -0.3709 -1.7410
  961MOL0     H26839   6.238   2.317   9.074 -0.9430  1.6000  0.7871
  961MOL0     H26840   6.638   2.373   9.331  0.8052 -0.1229  0.6408
  961MOL0     H26841   6.884   2.336   9.336  1.5509 -2.5932  2.5450
  961MOL0     H26842   7.041   1.962   9.167  1.6051  1.8241 -1.5431
  961MOL0     H26843   7.044   1.930   9.352  2.5671  0.8685  0.3591
  961MOL0     H26844   7.252   2.088   9.196  0.0930  0.9804  2.1196
  961MOL0     H26845   7.246   2.063   9.366  1.2823  0.6354 -0.8359
  961MOL0     H26846   7.265   1.835   9.168  1.1607  1.5785 -0.7800
  961MOL0     H26847   7.280   1.832   9.351  0.3060 -2.9365 -2.0235
  961MOL0     H26848   7.469   1.983   9.175 -1.7720  0.3502 -0.0773
  961MOL0     H26849   7.479   1.943   9.352 -4.3191 -2.4398  1.3960
  961MOL0     H26850   7.576   1.566   9.186 -0.4284  0.0766 -1.9724
  961MOL0     H26851   6.826   1.924   9.224  0.1280 -0.3524  1.6017
  961MOL0     H26852   6.574   1.965   9.228 -2.6469  1.9107 -2.0507
  962MOL0     O26853   4.421   0.253  10.876  0.3444 -0.0454 -0.4936
  962MOL0     C26854   4.488   0.165  10.929 -0.0173 -0.5629  1.0323
  962MOL0     O26855   4.453   0.038  10.932 -0.7146 -0.0217  0.1143
  962MOL0     C26856   4.331  -0.002  10.879  0.6110 -0.2204 -0.3997
  962MOL0     C26857   4.245  -0.030  10.979 -0.4481 -0.9191 -0.3764
  962MOL0     C26858   4.110  -0.056  10.953  0.0617 -0.2342  0.1482
  962MOL0     C26859   4.057  -0.070  10.827  0.3794  0.5650  0.3042
  962MOL0     O26860   3.933  -0.110  10.782 -0.6818 -0.5409  0.7366
  962MOL0     C26861   3.819  -0.074  10.863  0.1479  0.1710 -0.4389
  962MOL0     C26862   3.704  -0.164  10.813 -0.5282 -0.6847 -0.2674
  962MOL0     C26863   3.560  -0.100  10.810  0.6416 -0.4173 -0.5638
  962MOL0     C26864   3.530  -0.037  10.952 -0.7853 -0.6508 -1.1985
  962MOL0     C26865   3.385  -0.013  10.975  1.2038  0.0514 -0.2116
  962MOL0     C26866   3.304  -0.140  10.941 -0.0760 -0.3278 -0.6176
  962MOL0     C26867   3.169  -0.113  11.009  0.7429 -0.3014 -0.1440
  962MOL0     C26868   3.062  -0.208  10.960 -0.3758  0.0165  0.5686
  962MOL0     N26869   2.935  -0.186  11.028  0.2427 -0.1367 -0.1980
  962MOL0     C26870   2.874  -0.276  11.110  0.3045 -0.2715  0.9647
  962MOL0     C26871   2.759  -0.213  11.153  0.4584 -0.0795 -0.3773
  962MOL0     C26872   2.660  -0.267  11.251  0.0725 -0.0231  0.8163
  962MOL0     C26873   2.525  -0.256  11.197  0.3516 -0.3606  0.1166
  962MOL0     C26874   2.438  -0.353  11.270  0.4144 -0.4456  0.1422
  962MOL0     C26875   2.294  -0.348  11.213 -0.1842  0.9180  1.0031
  962MOL0     O26876   2.198  -0.436  11.283 -0.0844  0.0443 -0.5298
  962MOL0     C26877   2.076  -0.447  11.221  0.1003  0.6191 -0.3906
  962MOL0     C26878   2.019  -0.369  11.116 -0.1993 -0.6666  0.0883
  962MOL0     C26879   1.893  -0.403  11.068 -0.0430  0.2636  0.0989
  962MOL0     C26880   1.821  -0.505  11.117  0.4834  0.5142 -0.3547
  962MOL0     C26881   1.686  -0.526  11.062 -0.0506  0.4906  0.2149
  962MOL0     O26882   1.658  -0.485  10.928  0.0994 -0.1177  0.2128
  962MOL0     C26883   1.531  -0.497  10.884 -0.8234 -0.5872  0.2999
  962MOL0     C26884   1.444  -0.400  10.927 -0.0654 -0.1866  0.7898
  962MOL0     C26885   1.308  -0.419  10.893 -0.3706  0.2473  0.5031
  962MOL0     C26886   1.269  -0.527  10.813  0.6653  0.5959 -0.3344
  962MOL0     O26887   1.136  -0.556  10.780  0.1433 -0.3355 -0.3219
  962MOL0     C26888   1.041  -0.453  10.792 -0.1271  0.5351 -0.3197
  962MOL0     C26889   0.905  -0.500  10.743 -0.0817  0.3955  0.7486
  962MOL0     C26890   0.825  -0.375  10.694 -0.8462 -0.0140  0.6929
  962MOL0     C26891   0.683  -0.405  10.639 -0.3554 -0.5998 -0.3820
  962MOL0     C26892   0.633  -0.275  10.567  0.4673 -0.1397 -0.4729
  962MOL0     C26893   0.482  -0.282  10.530  0.2102 -0.6337  0.4718
  962MOL0     C26894   0.451  -0.376  10.413 -0.4612 -0.6604 -0.0219
  962MOL0     C26895   0.317  -0.323  10.356 -1.1442  1.4073 -1.2014
  962MOL0    Cl26896   0.197  -0.298  10.485  0.2821  0.1233  0.3957
  962MOL0     C26897   1.359  -0.620  10.759  0.1486  0.5826 -0.6819
  962MOL0     C26898   1.491  -0.602  10.798  0.4342  0.1480 -1.0996
  962MOL0     O26899   1.607  -0.592  11.133 -0.1079  0.7865  0.4972
  962MOL0     C26900   1.863  -0.578  11.230  0.2261  0.6160  0.3895
  962MOL0     C26901   1.990  -0.546  11.279 -0.2282  0.2633 -0.0924
  962MOL0     N26902   2.749  -0.085  11.096  0.0994  0.1652 -0.1004
  962MOL0     N26903   2.858  -0.068  11.035  0.0690 -0.1841 -0.3349
  962MOL0     C26904   4.156  -0.044  10.721  0.8987  0.6924 -0.2468
  962MOL0     C26905   4.289  -0.018  10.745  1.0589  0.6290  0.1234
  962MOL0     C26906   4.600   0.203  11.009 -0.1046 -0.0095  0.2764
  962MOL0     C26907   4.636   0.339  11.030  0.1019  0.4479 -0.7451
  962MOL0     C26908   4.745   0.371  11.110  0.5088 -0.4147  0.6772
  962MOL0     C26909   4.829   0.268  11.153  0.3658 -0.5420 -0.6033
  962MOL0     O26910   4.943   0.318  11.209 -0.5509 -0.4758 -0.5362
  962MOL0     C26911   5.011   0.239  11.302 -0.4626  0.4481  0.3564
  962MOL0     C26912   4.939   0.209  11.436  0.1919 -0.5443 -0.5712
  962MOL0     C26913   5.017   0.106  11.518  0.2812  0.1782  0.2685
  962MOL0     C26914   4.947   0.106  11.652 -0.9482  0.4429 -1.1849
  962MOL0     C26915   5.003   0.003  11.737 -0.5127  0.2011  0.1209
  962MOL0     C26916   5.053  -0.081  11.804 -0.2352 -0.5995  0.4268
  962MOL0     C26917   4.799   0.131  11.133 -0.3634 -0.4940  1.2742
  962MOL0     C26918   4.689   0.104  11.050 -0.6208  0.4721  0.4579
  962MOL0     H26919   4.286  -0.007  11.077  1.5535 -1.1149 -1.1314
  962MOL0     H26920   4.051  -0.068  11.044  2.7484  1.0729  2.2213
  962MOL0     H26921   3.802   0.033  10.855  1.1232  0.7053  2.9880
  962MOL0     H26922   3.828  -0.092  10.971 -2.3411 -0.5421 -0.2863
  962MOL0     H26923   3.702  -0.251  10.879  0.0623  0.1308  0.8692
  962MOL0     H26924   3.725  -0.191  10.709  0.3598 -1.8322  0.1924
  962MOL0     H26925   3.495  -0.187  10.801 -1.2339  0.8399  0.2064
  962MOL0     H26926   3.549  -0.030  10.727  0.7779 -1.7295 -1.7213
  962MOL0     H26927   3.565  -0.103  11.032  1.7778  2.4987  0.5061
  962MOL0     H26928   3.578   0.061  10.958 -0.6175 -0.6615 -2.1704
  962MOL0     H26929   3.346   0.066  10.911  0.9080 -1.1208 -1.5345
  962MOL0     H26930   3.360   0.012  11.078 -2.7959 -0.8759 -0.7930
  962MOL0     H26931   3.348  -0.229  10.987 -0.5486  0.1272  0.7604
  962MOL0     H26932   3.282  -0.156  10.835 -2.9757  0.7265 -0.2745
  962MOL0     H26933   3.183  -0.117  11.118  2.8412  0.7405 -0.3275
  962MOL0     H26934   3.129  -0.014  10.988  0.3730 -0.1061  1.3316
  962MOL0     H26935   3.093  -0.311  10.982  1.6553  0.5373  0.3391
  962MOL0     H26936   3.040  -0.185  10.855 -3.2525  0.6045  1.2045
  962MOL0     H26937   2.920  -0.371  11.135  2.4157  1.1521  2.9116
  962MOL0     H26938   2.671  -0.208  11.342  0.1627  1.5069 -0.1536
  962MOL0     H26939   2.696  -0.367  11.277  4.1614  1.1050  0.1149
  962MOL0     H26940   2.527  -0.266  11.088  2.3815  2.5962 -0.2270
  962MOL0     H26941   2.483  -0.158  11.221 -1.3603 -1.1170  0.3756
  962MOL0     H26942   2.471  -0.456  11.256  0.8838 -0.7772  2.9273
  962MOL0     H26943   2.445  -0.327  11.377 -0.1761  0.5058 -0.0400
  962MOL0     H26944   2.304  -0.383  11.109 -1.3449  2.5894  0.2743
  962MOL0     H26945   2.266  -0.242  11.211  4.0573  2.2922 -2.5627
  962MOL0     H26946   2.074  -0.294  11.059  0.4974 -1.1018  0.1767
  962MOL0     H26947   1.862  -0.344  10.982 -1.3925  0.9823  1.0470
  962MOL0     H26948   1.462  -0.317  10.994 -2.3805 -0.4611  1.8627
  962MOL0     H26949   1.244  -0.338  10.928  1.8900  2.4034 -0.0488
  962MOL0     H26950   1.079  -0.365  10.739  2.8734 -1.2435 -1.3892
  962MOL0     H26951   1.021  -0.427  10.897  0.3731 -1.4766  0.3210
  962MOL0     H26952   0.852  -0.543  10.828 -1.3380  0.8761  0.2283
  962MOL0     H26953   0.912  -0.570  10.660 -0.2504 -0.2402  1.2654
  962MOL0     H26954   0.882  -0.324  10.616 -2.4021  1.0539  0.2017
  962MOL0     H26955   0.803  -0.311  10.779  0.0032  0.2865  0.6949
  962MOL0     H26956   0.678  -0.491  10.572 -0.5520 -1.1181  0.2961
  962MOL0     H26957   0.617  -0.410  10.726  1.5633  2.5142  1.4404
  962MOL0     H26958   0.699  -0.251  10.484 -2.4355  0.2212 -2.8524
  962MOL0     H26959   0.635  -0.193  10.640  2.2957 -0.0892 -0.5375
  962MOL0     H26960   0.458  -0.177  10.514  1.6888  0.1231  2.7009
  962MOL0     H26961   0.415  -0.305  10.613 -1.3808 -1.1464 -0.8998
  962MOL0     H26962   0.525  -0.373  10.333 -2.6044  0.0711 -2.0703
  962MOL0     H26963   0.456  -0.479  10.448  2.3097 -1.7344 -3.0930
  962MOL0     H26964   0.285  -0.388  10.274  2.8451 -1.2324 -0.9419
  962MOL0     H26965   0.343  -0.226  10.311 -0.5343  1.6870 -0.2673
  962MOL0     H26966   1.325  -0.715  10.718 -1.5506  0.9078 -0.1292
  962MOL0     H26967   1.562  -0.679  10.772 -0.0053 -0.5741 -0.1845
  962MOL0     H26968   1.802  -0.650  11.283  0.4786  1.4906  1.9177
  962MOL0     H26969   2.037  -0.602  11.359  0.8112 -0.5702 -1.2462
  962MOL0     H26970   4.109  -0.061  10.624  1.8136  0.5761 -0.6735
  962MOL0     H26971   4.361  -0.001  10.665 -0.4554  0.0639 -1.4301
  962MOL0     H26972   4.567   0.419  11.006 -1.4685 -1.2553 -2.3271
  962MOL0     H26973   4.767   0.468  11.152 -2.5771  0.1806  1.1446
  962MOL0     H26974   5.106   0.287  11.327 -0.0765 -0.4806  0.7396
  962MOL0     H26975   5.042   0.147  11.250  0.4486  0.9886 -0.0797
  962MOL0     H26976   4.943   0.305  11.487  0.4688 -0.4369 -0.7903
  962MOL0     H26977   4.833   0.186  11.418  0.0549 -0.8180  0.5237
  962MOL0     H26978   5.120   0.143  11.510  0.3061  0.3443  1.2672
  962MOL0     H26979   5.005   0.005  11.477  0.2610  0.4443 -0.3995
  962MOL0     H26980   4.950   0.209  11.688 -2.2715  1.0090 -2.5822
  962MOL0     H26981   4.839   0.085  11.652 -0.7008 -0.9547 -0.8306
  962MOL0     H26982   5.096  -0.167  11.851  0.3441 -1.1812 -1.0658
  962MOL0     H26983   4.868   0.060  11.177  1.4155 -1.3134 -2.4463
  962MOL0     H26984   4.679  -0.002  11.027  0.1010  0.1625  1.4669
  963MOL0     O26985   7.782   4.756   1.916  0.2091 -0.4355 -0.0225
  963MOL0     C26986   7.887   4.774   1.975 -0.4102 -0.7256  0.2522
  963MOL0     O26987   7.903   4.821   2.098  0.0448 -0.6874 -0.3192
  963MOL0     C26988   7.796   4.848   2.180  0.0580 -0.7629  0.8009
  963MOL0     C26989   7.739   4.975   2.167  0.2834  0.4081 -0.2840
  963MOL0     C26990   7.632   5.012   2.247  1.3165  0.0178 -0.2659
  963MOL0     C26991   7.589   4.935   2.360  0.3126  0.5691  0.1643
  963MOL0     O26992   7.496   4.965   2.454 -0.2292  0.2952 -0.0668
  963MOL0     C26993   7.379   5.040   2.403 -0.8294 -0.4964  0.0644
  963MOL0     C26994   7.275   4.941   2.358  0.0941  0.4461  0.6425
  963MOL0     C26995   7.224   4.856   2.468 -0.4786 -0.7777 -0.0647
  963MOL0     C26996   7.071   4.830   2.466 -0.3477 -0.3277 -0.2153
  963MOL0     C26997   7.005   4.805   2.601  0.0862  0.9680 -0.5914
  963MOL0     C26998   6.856   4.757   2.591  0.3742 -0.2638  0.0128
  963MOL0     C26999   6.826   4.626   2.514 -0.0186 -0.2584 -0.0825
  963MOL0     C27000   6.897   4.514   2.589 -1.1597 -0.0977 -0.3330
  963MOL0     N27001   6.830   4.386   2.578  0.5313 -0.2076  0.4505
  963MOL0     C27002   6.712   4.360   2.646  0.5138 -0.4701 -0.1161
  963MOL0     C27003   6.664   4.245   2.590 -0.1545  0.0655  0.1520
  963MOL0     C27004   6.546   4.174   2.641 -0.5348  0.1454 -0.2080
  963MOL0     C27005   6.429   4.158   2.537 -1.1129  0.5554 -0.5229
  963MOL0     C27006   6.354   4.280   2.507 -0.9872  0.2591  0.0465
  963MOL0     C27007   6.257   4.275   2.394 -0.3038  0.1879 -0.1461
  963MOL0     O27008   6.198   4.405   2.382 -0.2306  0.4610 -0.1944
  963MOL0     C27009   6.088   4.421   2.301 -0.3221  0.5723  0.3199
  963MOL0     C27010   6.028   4.321   2.218 -0.6419  0.2989 -0.3256
  963MOL0     C27011   5.928   4.357   2.125 -0.0829  0.3323 -0.6995
  963MOL0     C27012   5.855   4.476   2.146  0.0354 -0.3551  0.2208
  963MOL0     C27013   5.738   4.506   2.067 -0.3901 -0.0395  0.5378
  963MOL0     O27014   5.709   4.424   1.959 -0.2739 -0.4941 -0.5779
  963MOL0     C27015   5.607   4.439   1.870 -0.1200 -0.1004  0.4200
  963MOL0     C27016   5.491   4.509   1.881 -0.4421  0.5761 -0.5509
  963MOL0     C27017   5.394   4.516   1.781  0.3538  0.0385  0.1207
  963MOL0     C27018   5.419   4.462   1.652 -0.3841 -0.4706 -0.6467
  963MOL0     O27019   5.345   4.473   1.538  0.9595 -0.8138  0.5501
  963MOL0     C27020   5.222   4.540   1.554 -0.3679  0.9775 -0.7768
  963MOL0     C27021   5.148   4.544   1.421  0.3133  0.0392 -0.1997
  963MOL0     C27022   5.006   4.602   1.428  0.0748  0.1083  1.1298
  963MOL0     C27023   4.948   4.601   1.287  0.0650 -0.4048  0.3372
  963MOL0     C27024   4.807   4.670   1.292  0.4099  0.8674  0.3705
  963MOL0     C27025   4.765   4.692   1.145 -0.2551 -0.0611 -0.6981
  963MOL0     C27026   4.651   4.789   1.123  0.3632 -0.2875 -0.4158
  963MOL0     C27027   4.575   4.753   0.997 -0.3032  1.0191  0.6109
  963MOL0    Cl27028   4.472   4.891   0.944  0.2110  0.1476 -0.2900
  963MOL0     C27029   5.535   4.382   1.640  0.3593 -0.2951  0.3178
  963MOL0     C27030   5.623   4.370   1.752 -0.3031 -0.1825  0.3107
  963MOL0     O27031   5.663   4.598   2.104  0.1458 -0.4229 -0.7439
  963MOL0     C27032   5.895   4.567   2.244 -0.3672 -0.6957 -0.2703
  963MOL0     C27033   6.009   4.537   2.317  0.1357  0.5712 -0.2436
  963MOL0     N27034   6.766   4.198   2.503  0.9299  0.4300 -0.0107
  963MOL0     N27035   6.849   4.297   2.479 -0.1834  0.4337  0.0330
  963MOL0     C27036   7.646   4.807   2.364  1.0905  0.4377 -0.3288
  963MOL0     C27037   7.745   4.762   2.278  0.2103  1.0223 -0.0115
  963MOL0     C27038   8.013   4.736   1.905 -0.5199  0.3244 -0.4678
  963MOL0     C27039   8.018   4.728   1.763 -0.5298 -0.0004 -0.5796
  963MOL0     C27040   8.129   4.672   1.701  0.1411  0.2596 -0.2234
  963MOL0     C27041   8.230   4.622   1.778 -0.1328 -0.4662 -0.0146
  963MOL0     O27042   8.336   4.565   1.717  0.5027  0.1802 -0.3152
  963MOL0     C27043   8.330   4.426   1.687 -0.1437  0.3824  0.8974
  963MOL0     C27044   8.444   4.364   1.768 -0.4536 -0.3633  0.3762
  963MOL0     C27045   8.576   4.360   1.688  0.9966  0.2941  0.4914
  963MOL0     C27046   8.695   4.317   1.779 -1.1280 -0.1650 -0.4784
  963MOL0     C27047   8.816   4.314   1.700 -0.0300 -0.5154  0.6771
  963MOL0     C27048   8.906   4.315   1.617 -0.0346 -0.3615 -1.0982
  963MOL0     C27049   8.228   4.637   1.917  0.2963  0.0769  0.2864
  963MOL0     C27050   8.118   4.687   1.983 -1.1694  0.7079  0.1548
  963MOL0     H27051   7.779   5.042   2.092  1.5385  1.1362  0.9964
  963MOL0     H27052   7.603   5.116   2.241 -0.4342 -0.4966 -1.2983
  963MOL0     H27053   7.405   5.118   2.332 -1.0502  1.8693  2.4295
  963MOL0     H27054   7.330   5.107   2.474 -0.1655 -0.0517  0.1152
  963MOL0     H27055   7.315   4.871   2.285  0.3687 -1.9832  2.9641
  963MOL0     H27056   7.189   4.999   2.323  2.6071  3.3640 -1.1463
  963MOL0     H27057   7.245   4.904   2.564 -1.4550 -0.1541 -0.1499
  963MOL0     H27058   7.277   4.760   2.464  1.1461  0.0894 -0.2499
  963MOL0     H27059   7.020   4.917   2.423 -0.0909  0.1369  0.4156
  963MOL0     H27060   7.055   4.754   2.389 -0.2179  2.7593 -3.5819
  963MOL0     H27061   7.001   4.895   2.663 -4.5081 -0.1515  1.1953
  963MOL0     H27062   7.066   4.725   2.645 -1.2086 -0.8321 -1.8796
  963MOL0     H27063   6.798   4.841   2.551 -0.0633  0.1235  1.3780
  963MOL0     H27064   6.813   4.745   2.691  1.7618 -0.1853  0.6464
  963MOL0     H27065   6.719   4.618   2.495  0.4130 -1.7705 -2.3698
  963MOL0     H27066   6.868   4.621   2.413  0.8995  0.1506  0.2709
  963MOL0     H27067   6.906   4.529   2.697 -0.0593  0.7875 -0.5325
  963MOL0     H27068   6.999   4.516   2.552 -0.5150 -2.7453  1.0315
  963MOL0     H27069   6.668   4.434   2.711  0.7163  0.9824 -1.5773
  963MOL0     H27070   6.510   4.223   2.732 -2.4546 -1.1530 -0.2052
  963MOL0     H27071   6.584   4.077   2.676  2.4718  1.6256  0.9733
  963MOL0     H27072   6.362   4.086   2.585  0.0301  0.1758  0.5471
  963MOL0     H27073   6.475   4.119   2.445 -0.3106 -2.6784  1.0968
  963MOL0     H27074   6.297   4.310   2.595  2.5991  1.3213  2.2124
  963MOL0     H27075   6.432   4.353   2.482  0.8058 -1.5370  0.1752
  963MOL0     H27076   6.182   4.210   2.439  1.5287  0.1738  3.2738
  963MOL0     H27077   6.298   4.233   2.302  2.6225 -1.1066  1.5976
  963MOL0     H27078   6.071   4.222   2.204 -2.8381 -0.6314 -0.9689
  963MOL0     H27079   5.902   4.291   2.043  0.5610 -2.7957  1.4308
  963MOL0     H27080   5.474   4.566   1.972  1.6135  0.0259  0.2377
  963MOL0     H27081   5.305   4.578   1.790 -0.6314 -0.9228 -2.0767
  963MOL0     H27082   5.226   4.636   1.606  0.3408 -0.6947  2.5379
  963MOL0     H27083   5.161   4.477   1.619  0.2072  1.5137  0.3245
  963MOL0     H27084   5.155   4.440   1.386 -0.9632  0.4880 -1.9709
  963MOL0     H27085   5.208   4.594   1.345  0.5446  2.7551  1.6574
  963MOL0     H27086   4.995   4.702   1.471 -2.5993  0.5718 -0.3893
  963MOL0     H27087   4.938   4.540   1.487 -0.8406  1.2739  1.3198
  963MOL0     H27088   5.014   4.657   1.220  0.6956 -1.0703  0.3994
  963MOL0     H27089   4.944   4.501   1.243 -1.3540  0.5467 -1.8845
  963MOL0     H27090   4.804   4.766   1.343 -4.4978  0.6732  0.9991
  963MOL0     H27091   4.740   4.601   1.343 -0.9996  2.8010  1.2415
  963MOL0     H27092   4.733   4.593   1.111  0.0817 -0.7827  1.0021
  963MOL0     H27093   4.856   4.718   1.090  0.8721 -1.2512  0.5395
  963MOL0     H27094   4.583   4.775   1.208  2.9463 -3.6312  1.3355
  963MOL0     H27095   4.696   4.889   1.120  0.9433 -0.4820  0.8130
  963MOL0     H27096   4.519   4.663   1.024 -0.2457 -0.1035 -2.5639
  963MOL0     H27097   4.639   4.718   0.915 -1.8709  1.2218 -0.7551
  963MOL0     H27098   5.565   4.342   1.544 -0.7534 -0.0902 -0.1269
  963MOL0     H27099   5.702   4.296   1.755  0.5673  0.7240  0.2857
  963MOL0     H27100   5.849   4.662   2.269  1.8697  0.0111  1.5215
  963MOL0     H27101   6.039   4.604   2.397 -2.6070 -1.1649  2.4699
  963MOL0     H27102   7.608   4.741   2.442  0.4212  0.5757 -0.5246
  963MOL0     H27103   7.799   4.668   2.286 -0.8319  0.4793  0.9045
  963MOL0     H27104   7.939   4.763   1.697  1.1129 -0.9001 -3.1882
  963MOL0     H27105   8.134   4.685   1.594  1.4558  3.0149  0.0727
  963MOL0     H27106   8.335   4.414   1.578 -2.6711 -0.0834  0.7622
  963MOL0     H27107   8.232   4.387   1.716 -1.6644  1.5655 -2.1754
  963MOL0     H27108   8.469   4.423   1.857  0.4682 -1.3798  0.8015
  963MOL0     H27109   8.405   4.265   1.792 -0.1143 -0.5325  0.2146
  963MOL0     H27110   8.604   4.454   1.639  1.3846  0.0150  0.1659
  963MOL0     H27111   8.562   4.292   1.603  0.3172 -2.2186  2.4817
  963MOL0     H27112   8.705   4.382   1.866  4.5581  1.3995 -1.8631
  963MOL0     H27113   8.671   4.215   1.809 -0.5524  0.0576  0.8003
  963MOL0     H27114   8.980   4.316   1.540  0.2821 -1.2150 -0.8111
  963MOL0     H27115   8.311   4.618   1.985  0.0415  0.8536  0.8330
  963MOL0     H27116   8.113   4.701   2.091  1.4046  1.1165  0.2647
  964MOL0     O27117   4.720  11.121   9.408  1.2443  0.5205  0.5759
  964MOL0     C27118   4.789  11.038   9.352  0.1562  1.1276 -0.7780
  964MOL0     O27119   4.744  10.951   9.248 -0.0569  0.0222 -0.1836
  964MOL0     C27120   4.617  10.963   9.211  0.3358  0.0520  0.1267
  964MOL0     C27121   4.513  10.923   9.298 -0.6840  0.6558 -0.4852
  964MOL0     C27122   4.385  10.913   9.250 -0.0972  0.0660  0.4941
  964MOL0     C27123   4.360  10.948   9.111  0.1611 -0.8404 -0.2798
  964MOL0     O27124   4.251  10.935   9.039  0.6060  0.4802 -0.3582
  964MOL0     C27125   4.151  10.835   9.093  0.5245 -0.4318 -0.4447
  964MOL0     C27126   4.056  10.782   8.979  0.2649 -0.1398 -0.7008
  964MOL0     C27127   3.927  10.712   9.027 -0.4834 -0.5579 -0.0523
  964MOL0     C27128   3.840  10.690   8.903 -0.2773  0.1059  0.1902
  964MOL0     C27129   3.699  10.648   8.950  0.4320 -0.4559 -0.5578
  964MOL0     C27130   3.607  10.627   8.823 -0.5971 -0.3647 -0.9501
  964MOL0     C27131   3.467  10.599   8.859 -0.8010 -0.4389  0.1977
  964MOL0     C27132   3.381  10.620   8.732  0.6633  0.2523 -0.2018
  964MOL0     N27133   3.248  10.576   8.782  0.3393 -0.2852  0.4341
  964MOL0     C27134   3.163  10.658   8.857  0.8448  0.2497 -0.0935
  964MOL0     C27135   3.044  10.595   8.859  0.2098 -0.4963 -0.6688
  964MOL0     C27136   2.926  10.642   8.943 -0.2601  0.4144  0.6351
  964MOL0     C27137   2.808  10.547   8.945 -0.0646  0.2244 -0.2631
  964MOL0     C27138   2.741  10.517   8.809  0.3305 -0.5159 -0.2746
  964MOL0     C27139   2.604  10.459   8.836  0.1155  1.0878  0.3294
  964MOL0     O27140   2.526  10.441   8.713  0.4003  0.2169 -0.3138
  964MOL0     C27141   2.408  10.372   8.717  0.5128 -0.1707 -0.4272
  964MOL0     C27142   2.293  10.430   8.763  0.7482 -0.3826  0.8850
  964MOL0     C27143   2.172  10.364   8.770 -0.1136 -0.1071 -0.8232
  964MOL0     C27144   2.157  10.236   8.724 -0.1330 -0.2613  0.1757
  964MOL0     C27145   2.032  10.164   8.743 -0.2841  0.0860 -0.5743
  964MOL0     O27146   1.944  10.219   8.832 -0.0655  0.3949  0.0471
  964MOL0     C27147   1.819  10.172   8.837 -0.9674  0.6246 -0.1336
  964MOL0     C27148   1.754  10.158   8.960 -0.4524 -0.5800  0.4070
  964MOL0     C27149   1.621  10.111   8.968 -0.4267  0.6330  0.1206
  964MOL0     C27150   1.542  10.072   8.857  0.2311 -0.6398 -0.4070
  964MOL0     O27151   1.409  10.040   8.858  0.4015 -0.1768 -0.3796
  964MOL0     C27152   1.323  10.157   8.835 -0.7088 -0.0930 -0.2223
  964MOL0     C27153   1.183  10.107   8.805 -0.0581  0.8095 -0.2284
  964MOL0     C27154   1.091  10.219   8.753 -0.8870 -0.2459  0.5372
  964MOL0     C27155   0.944  10.237   8.803  0.8037  0.4167 -0.5419
  964MOL0     C27156   0.916  10.219   8.955  0.6760 -0.5556  0.3645
  964MOL0     C27157   0.984  10.335   9.030  0.6627  0.4227 -0.3183
  964MOL0     C27158   0.925  10.341   9.175  0.3312 -0.5978 -0.3322
  964MOL0     C27159   1.042  10.369   9.269  0.2800 -0.2592  0.1126
  964MOL0    Cl27160   1.141  10.219   9.289  0.0139 -0.4103  0.0376
  964MOL0     C27161   1.605  10.079   8.736 -0.2234 -0.2316  0.5641
  964MOL0     C27162   1.743  10.129   8.731  0.9203 -0.3645  0.1415
  964MOL0     O27163   2.012  10.061   8.679  0.0666 -0.5599 -0.1679
  964MOL0     C27164   2.270  10.173   8.668  0.4704 -0.4544 -0.3599
  964MOL0     C27165   2.391  10.244   8.660  0.0082 -0.2572  0.5279
  964MOL0     N27166   3.065  10.475   8.793  0.7417  0.9098 -0.0144
  964MOL0     N27167   3.182  10.461   8.748  0.0569  0.5398 -0.8328
  964MOL0     C27168   4.463  10.990   9.030  0.0619  0.6584 -0.9137
  964MOL0     C27169   4.588  11.006   9.079  0.1174  0.3124  0.5134
  964MOL0     C27170   4.937  11.026   9.387  0.3063  1.0975 -0.0567
  964MOL0     C27171   4.994  11.118   9.474  0.0267  0.3114  0.2448
  964MOL0     C27172   5.143  11.100   9.493  0.5981 -0.1191 -0.2254
  964MOL0     C27173   5.218  11.009   9.416  0.4528 -0.7613  0.3592
  964MOL0     O27174   5.347  10.999   9.447 -0.7869  0.0684 -0.2170
  964MOL0     C27175   5.447  10.920   9.370 -0.2867 -0.1480  0.6185
  964MOL0     C27176   5.576  10.921   9.441  0.4505 -0.2620 -0.5824
  964MOL0     C27177   5.646  11.060   9.453 -0.6628  0.5648 -0.0163
  964MOL0     C27178   5.791  11.048   9.502 -0.3763  0.2552 -1.5124
  964MOL0     C27179   5.817  11.168   9.576  0.7880 -0.0316  0.2824
  964MOL0     C27180   5.839  11.269   9.640  0.0637  0.5235 -0.2080
  964MOL0     C27181   5.152  10.927   9.325 -0.6063  0.1855  0.0418
  964MOL0     C27182   5.014  10.929   9.323  0.2333  0.3371 -0.4639
  964MOL0     H27183   4.536  10.887   9.398  0.5176  0.1572 -0.9130
  964MOL0     H27184   4.297  10.892   9.311 -0.5743  1.6429  0.3946
  964MOL0     H27185   4.093  10.878   9.175  1.0334 -0.0768 -0.2671
  964MOL0     H27186   4.207  10.750   9.132  1.6551  0.3448 -0.3312
  964MOL0     H27187   4.119  10.714   8.921  1.4803  2.6257 -2.8787
  964MOL0     H27188   4.030  10.869   8.917  1.8141  0.3487 -0.7013
  964MOL0     H27189   3.876  10.771   9.104  0.1229 -1.1024  0.7851
  964MOL0     H27190   3.952  10.618   9.077 -1.5258  0.4591  2.5705
  964MOL0     H27191   3.836  10.783   8.845 -0.8837  0.5223  0.8904
  964MOL0     H27192   3.885  10.607   8.847  3.0337  2.4499 -0.9539
  964MOL0     H27193   3.655  10.731   9.008  0.6642 -2.0745  2.0770
  964MOL0     H27194   3.701  10.556   9.010  2.1463 -0.5519 -0.7359
  964MOL0     H27195   3.653  10.546   8.765 -1.4793  0.2040 -2.5144
  964MOL0     H27196   3.613  10.722   8.770 -0.2254  1.0384  1.4535
  964MOL0     H27197   3.464  10.496   8.895  0.8122 -0.6477 -0.1894
  964MOL0     H27198   3.422  10.671   8.928 -0.3806  1.0640 -1.0361
  964MOL0     H27199   3.414  10.558   8.648 -0.3784  0.3954 -0.7314
  964MOL0     H27200   3.361  10.722   8.697 -2.8424 -0.4184 -0.5168
  964MOL0     H27201   3.187  10.756   8.897  1.4544 -1.2435  3.5653
  964MOL0     H27202   2.908  10.736   8.891 -1.4067 -0.8140 -1.3080
  964MOL0     H27203   2.953  10.661   9.047 -0.2758 -0.5407  0.8267
  964MOL0     H27204   2.741  10.597   9.015  2.3487  1.8136  1.0492
  964MOL0     H27205   2.831  10.446   8.980 -0.9287 -0.6091 -1.9211
  964MOL0     H27206   2.730  10.608   8.750  0.9862  0.5740  1.2351
  964MOL0     H27207   2.801  10.437   8.763  0.9142 -0.1853 -0.0992
  964MOL0     H27208   2.556  10.522   8.912  1.6517 -1.9461  4.1663
  964MOL0     H27209   2.620  10.362   8.884 -0.4225  0.2697 -1.0768
  964MOL0     H27210   2.312  10.526   8.810 -0.3529  0.6748 -0.7447
  964MOL0     H27211   2.092  10.419   8.820 -0.3920 -0.0644 -1.3082
  964MOL0     H27212   1.810  10.178   9.051 -0.3581  0.2562  0.1726
  964MOL0     H27213   1.571  10.087   9.061 -0.3559  0.3776  0.0920
  964MOL0     H27214   1.375  10.216   8.758  0.2247 -0.1601  0.3395
  964MOL0     H27215   1.321  10.212   8.929 -1.6580  1.2267 -0.9954
  964MOL0     H27216   1.147  10.067   8.900  0.7889 -0.5440 -0.4532
  964MOL0     H27217   1.172  10.021   8.739  0.0669 -0.1761  1.0046
  964MOL0     H27218   1.104  10.214   8.645  0.0264 -0.8834  0.6654
  964MOL0     H27219   1.130  10.316   8.786 -1.9251 -0.3783  2.2714
  964MOL0     H27220   0.893  10.328   8.771 -1.7149 -0.8626 -0.4694
  964MOL0     H27221   0.873  10.169   8.755  0.6875  0.1958 -0.0714
  964MOL0     H27222   0.951  10.120   8.985 -3.9211 -2.6500 -0.3435
  964MOL0     H27223   0.810  10.223   8.979  0.1090 -2.6586 -1.4424
  964MOL0     H27224   0.955  10.431   8.986  3.6960 -0.3013 -4.5184
  964MOL0     H27225   1.092  10.321   9.033  0.6208  0.3024  2.1164
  964MOL0     H27226   0.863  10.431   9.167  1.1725 -0.1572 -3.1136
  964MOL0     H27227   0.863  10.257   9.206 -0.6183  0.6620  1.3584
  964MOL0     H27228   0.998  10.399   9.364 -0.5350 -2.1127  0.3613
  964MOL0     H27229   1.104  10.450   9.229  0.6648 -0.5151  0.1858
  964MOL0     H27230   1.543  10.047   8.652  1.7723  0.8114 -1.4024
  964MOL0     H27231   1.779  10.140   8.629 -1.6943 -3.2433 -1.2844
  964MOL0     H27232   2.266  10.075   8.620  2.5323 -0.5418 -0.4142
  964MOL0     H27233   2.469  10.209   8.593  1.9554 -1.4195  3.1945
  964MOL0     H27234   4.448  11.001   8.923 -0.2391 -3.4392 -1.4476
  964MOL0     H27235   4.669  11.036   9.014  0.5762  0.3344  1.0878
  964MOL0     H27236   4.937  11.199   9.518 -0.0714  0.5893 -0.3708
  964MOL0     H27237   5.198  11.162   9.563 -0.9377  1.1688 -0.0943
  964MOL0     H27238   5.444  10.975   9.275  0.6367 -0.9880  0.0856
  964MOL0     H27239   5.414  10.819   9.346 -3.5372  0.8876  0.2022
  964MOL0     H27240   5.557  10.891   9.544  1.7740  0.5746 -0.0604
  964MOL0     H27241   5.646  10.854   9.390  0.6669 -0.2745 -0.2743
  964MOL0     H27242   5.583  11.116   9.522  0.7568 -0.6713  2.4052
  964MOL0     H27243   5.644  11.113   9.357 -0.5512 -0.5856 -0.6750
  964MOL0     H27244   5.802  10.958   9.563  0.4732  0.6804 -1.0173
  964MOL0     H27245   5.854  11.034   9.413 -0.2370 -3.5341 -0.9861
  964MOL0     H27246   5.883  11.347   9.699  1.7100 -0.8489  0.4821
  964MOL0     H27247   5.207  10.850   9.273 -0.0746 -0.9898  2.2138
  964MOL0     H27248   4.961  10.855   9.264 -2.3430  2.5479 -1.1153
  965MOL0     O27249   0.507   0.253  10.234 -0.3625  0.4865 -0.7209
  965MOL0     C27250   0.531   0.134  10.252  0.1053  0.1613 -0.3640
  965MOL0     O27251   0.439   0.029  10.270  0.5620 -0.3101 -0.0867
  965MOL0     C27252   0.305   0.057  10.275 -0.1846 -0.3434  0.6109
  965MOL0     C27253   0.217  -0.007  10.193  0.1526  0.5686 -0.0973
  965MOL0     C27254   0.081  -0.004  10.215 -0.2281 -0.1814 -0.5792
  965MOL0     C27255   0.028   0.071  10.315 -0.0391 -0.3884 -0.4093
  965MOL0     O27256  -0.107   0.074  10.343  0.1698  0.0903  0.0089
  965MOL0     C27257  -0.160   0.132  10.459 -0.2737  0.6301  0.6272
  965MOL0     C27258  -0.302   0.076  10.492  0.5752 -0.5611 -0.4153
  965MOL0     C27259  -0.362   0.113  10.629 -0.3516 -0.8615 -0.0327
  965MOL0     C27260  -0.497   0.046  10.645  1.0763 -0.0897  0.8122
  965MOL0     C27261  -0.566   0.098  10.768 -1.1284  0.4685 -0.0041
  965MOL0     C27262  -0.492   0.105  10.905 -0.0202  0.3203 -0.4189
  965MOL0     C27263  -0.600   0.155  10.998 -1.4878  0.1887 -0.2529
  965MOL0     C27264  -0.565   0.194  11.136 -0.8735  0.5032 -0.1753
  965MOL0     N27265  -0.490   0.099  11.218 -0.7837 -0.1173  0.1131
  965MOL0     C27266  -0.361   0.060  11.192 -0.3199  0.6013  0.0704
  965MOL0     C27267  -0.341  -0.028  11.295 -0.3975 -0.3901  0.3564
  965MOL0     C27268  -0.220  -0.104  11.335  0.3536  1.1980  0.3874
  965MOL0     C27269  -0.095  -0.025  11.312  0.2196  0.4674 -0.7840
  965MOL0     C27270  -0.090   0.098  11.408 -0.5618  0.8786 -0.1331
  965MOL0     C27271  -0.019   0.058  11.538 -0.4693 -0.3956 -0.5102
  965MOL0     O27272   0.036   0.179  11.599  1.2720  0.1401 -0.4596
  965MOL0     C27273   0.108   0.163  11.721 -0.2658 -0.9461  0.0975
  965MOL0     C27274   0.184   0.276  11.753 -0.6168 -0.5219  0.4472
  965MOL0     C27275   0.261   0.277  11.873  0.5664  0.3177  0.0974
  965MOL0     C27276   0.269   0.167  11.960  1.2255  0.2960 -0.7125
  965MOL0     C27277   0.350   0.170  12.086 -0.6882  0.1711 -0.1641
  965MOL0     O27278   0.465   0.234  12.084 -0.4193 -0.3848 -0.3498
  965MOL0     C27279   0.542   0.244  12.199  0.0028 -0.6191  0.0265
  965MOL0     C27280   0.485   0.296  12.318  0.0125  0.0200 -0.3704
  965MOL0     C27281   0.561   0.298  12.431  0.1775  0.2332 -0.6863
  965MOL0     C27282   0.693   0.255  12.432 -0.3283 -0.8385 -0.3316
  965MOL0     O27283   0.757   0.255  12.552  0.2021 -0.0996 -0.1992
  965MOL0     C27284   0.887   0.209  12.562  0.0074  0.1631  0.4182
  965MOL0     C27285   0.940   0.253  12.695  0.2033 -0.4409 -0.9223
  965MOL0     C27286   1.081   0.185  12.724  0.8086 -0.3801 -0.1751
  965MOL0     C27287   1.165   0.258  12.834  0.3960  0.2383 -0.1157
  965MOL0     C27288   1.298   0.180  12.874  0.1398  0.1315  1.2005
  965MOL0     C27289   1.314   0.167  13.027  0.2984 -0.7369 -0.9266
  965MOL0     C27290   1.351   0.307  13.088 -0.0817 -0.2244  0.1959
  965MOL0     C27291   1.360   0.300  13.239 -0.7291  0.1374 -0.1822
  965MOL0    Cl27292   1.465   0.444  13.275  0.1478 -0.3109 -0.0887
  965MOL0     C27293   0.751   0.209  12.314 -0.2774 -0.3702 -0.1251
  965MOL0     C27294   0.675   0.209  12.198 -0.5755 -0.5395  0.7626
  965MOL0     O27295   0.302   0.111  12.182 -0.0445 -0.7891  0.2775
  965MOL0     C27296   0.185   0.053  11.929  0.8228  0.0713  0.4729
  965MOL0     C27297   0.114   0.058  11.808 -0.5576 -0.3219  0.1915
  965MOL0     N27298  -0.457  -0.038  11.369  0.1965  0.2293 -0.5469
  965MOL0     N27299  -0.549   0.044  11.325 -0.2073  0.1372 -0.0333
  965MOL0     C27300   0.113   0.126  10.402 -0.6943 -0.5600  0.2203
  965MOL0     C27301   0.253   0.122  10.385  0.5892  0.9523  0.0465
  965MOL0     C27302   0.674   0.103  10.251 -0.8811 -0.4187 -0.7065
  965MOL0     C27303   0.715  -0.030  10.257 -0.8603  0.5302  0.2098
  965MOL0     C27304   0.845  -0.056  10.299  0.1833 -0.0411 -0.3461
  965MOL0     C27305   0.942   0.044  10.314  0.3036 -0.0493  0.2130
  965MOL0     O27306   1.070   0.009  10.349 -0.1951 -0.0788  0.5737
  965MOL0     C27307   1.168   0.113  10.332 -0.3832 -0.2599 -0.3080
  965MOL0     C27308   1.317   0.065  10.362  0.4930  0.2517  0.1297
  965MOL0     C27309   1.417   0.170  10.317  0.4666 -0.6120 -0.1097
  965MOL0     C27310   1.555   0.103  10.319 -0.3575  0.9238 -0.2114
  965MOL0     C27311   1.671   0.195  10.305 -0.1684  0.4393 -0.2796
  965MOL0     C27312   1.755   0.277  10.289  1.3175  0.8254  0.2133
  965MOL0     C27313   0.895   0.177  10.296 -0.2349  0.3471 -0.3120
  965MOL0     C27314   0.768   0.211  10.264  0.4557  0.2539  0.7290
  965MOL0     H27315   0.247  -0.067  10.108  1.4874 -1.6803  1.8296
  965MOL0     H27316   0.003  -0.054  10.159 -1.9080 -1.4519  2.6523
  965MOL0     H27317  -0.158   0.240  10.440 -0.0049  0.1736 -2.5928
  965MOL0     H27318  -0.106   0.092  10.546  0.5300  0.7800  0.2073
  965MOL0     H27319  -0.308  -0.033  10.484 -2.0061 -0.5990  0.8733
  965MOL0     H27320  -0.364   0.127  10.417  1.4880  0.5003 -0.4757
  965MOL0     H27321  -0.362   0.222  10.620  0.5091 -0.8927 -0.4745
  965MOL0     H27322  -0.299   0.085  10.714 -0.2964  1.4564  0.7642
  965MOL0     H27323  -0.571   0.068  10.567 -0.5773 -1.0374  2.0424
  965MOL0     H27324  -0.493  -0.063  10.648  1.4454 -0.0911  0.3885
  965MOL0     H27325  -0.656   0.041  10.793 -0.8824  0.6843  1.4730
  965MOL0     H27326  -0.583   0.203  10.741  1.4347  0.2876 -2.9327
  965MOL0     H27327  -0.402   0.167  10.900  0.8667 -0.9686 -0.9838
  965MOL0     H27328  -0.462   0.002  10.928 -1.7393  0.1775  1.4575
  965MOL0     H27329  -0.652   0.237  10.946 -0.4674  0.3622 -1.0411
  965MOL0     H27330  -0.690   0.093  11.000 -0.8679 -0.8864 -2.2014
  965MOL0     H27331  -0.655   0.213  11.194 -0.9002 -0.8983  0.2660
  965MOL0     H27332  -0.500   0.281  11.121  1.3100 -1.2943 -1.7947
  965MOL0     H27333  -0.301   0.065  11.102 -3.2160 -0.4132 -2.0571
  965MOL0     H27334  -0.211  -0.207  11.299 -0.0053  0.2933  2.7349
  965MOL0     H27335  -0.236  -0.118  11.442 -0.4040  0.0143  0.1235
  965MOL0     H27336  -0.085   0.012  11.209  1.0156  0.6717 -0.6466
  965MOL0     H27337  -0.004  -0.085  11.322 -0.6373 -0.5651  1.0662
  965MOL0     H27338  -0.018   0.164  11.357  1.8163 -1.1389  0.4119
  965MOL0     H27339  -0.182   0.156  11.419 -1.2023 -0.2989  0.8543
  965MOL0     H27340   0.062  -0.014  11.521 -1.1185 -1.2609  0.0226
  965MOL0     H27341  -0.095   0.009  11.600  0.5325 -3.6551 -1.6424
  965MOL0     H27342   0.173   0.362  11.688 -1.5007 -1.9083 -1.3381
  965MOL0     H27343   0.325   0.357  11.910 -0.0510 -1.0296  4.7384
  965MOL0     H27344   0.378   0.317  12.323 -0.4866 -2.0853 -1.1615
  965MOL0     H27345   0.513   0.320  12.526 -3.0241  0.6931 -2.2754
  965MOL0     H27346   0.949   0.262  12.490  0.9671 -1.6278 -0.1235
  965MOL0     H27347   0.895   0.101  12.551  0.8495  0.0323  2.1201
  965MOL0     H27348   0.867   0.234  12.775  1.3592  0.3773  0.3870
  965MOL0     H27349   0.968   0.359  12.694 -1.1813 -0.0627 -1.5353
  965MOL0     H27350   1.136   0.192  12.629  0.5304 -1.9335 -0.4740
  965MOL0     H27351   1.060   0.080  12.748 -2.3791 -0.1293 -1.4138
  965MOL0     H27352   1.180   0.361  12.801  0.8409  0.2989  0.2725
  965MOL0     H27353   1.096   0.272  12.917  0.1456  1.0871 -0.4552
  965MOL0     H27354   1.389   0.218  12.827  2.5934 -3.5308  2.5725
  965MOL0     H27355   1.276   0.079  12.839 -0.3124  0.1590  1.4065
  965MOL0     H27356   1.393   0.095  13.051 -0.3511 -1.4037 -0.7192
  965MOL0     H27357   1.220   0.129  13.068  0.6464 -0.0258  0.5730
  965MOL0     H27358   1.443   0.332  13.036 -0.6054  1.0200 -0.1551
  965MOL0     H27359   1.268   0.372  13.059  1.5905  1.7011 -0.5127
  965MOL0     H27360   1.400   0.205  13.272 -2.6401 -1.0264 -1.0179
  965MOL0     H27361   1.267   0.303  13.297  0.6909 -0.8057  2.2970
  965MOL0     H27362   0.852   0.171  12.296 -0.6435 -0.3342 -2.5775
  965MOL0     H27363   0.732   0.185  12.108 -0.7877  3.0130 -0.4527
  965MOL0     H27364   0.166  -0.033  11.992  1.0805 -2.4185 -2.5923
  965MOL0     H27365   0.063  -0.032  11.774  1.3232 -1.5826  0.5704
  965MOL0     H27366   0.078   0.183  10.487 -0.5772 -0.6765  0.3466
  965MOL0     H27367   0.320   0.164  10.460  0.5173  0.5815  0.3254
  965MOL0     H27368   0.639  -0.107  10.249 -0.5381  0.2166  0.1352
  965MOL0     H27369   0.870  -0.161  10.304  2.9212  0.4843 -1.1039
  965MOL0     H27370   1.149   0.196  10.401  2.3429  0.2484 -0.0478
  965MOL0     H27371   1.166   0.160  10.233 -3.3321  0.9028  0.1880
  965MOL0     H27372   1.330   0.025  10.463 -1.2300  0.2282  0.3838
  965MOL0     H27373   1.317  -0.025  10.299 -3.5049  0.0254  0.1574
  965MOL0     H27374   1.412   0.253  10.389  2.3443  2.3042 -3.0533
  965MOL0     H27375   1.395   0.221  10.223  2.3324  1.6363  0.5783
  965MOL0     H27376   1.577   0.056  10.416 -2.0033  2.7729  1.1453
  965MOL0     H27377   1.559   0.018  10.250  0.2207 -0.1502  1.1037
  965MOL0     H27378   1.820   0.361  10.277 -0.6867  2.5905  1.1381
  965MOL0     H27379   0.973   0.250  10.315  0.2800 -0.8093  2.3713
  965MOL0     H27380   0.756   0.319  10.260  2.5015  0.6496  2.8598
  966MOL0     O27381   4.029  10.049   7.033 -0.8405  0.1746 -0.0996
  966MOL0     C27382   4.079   9.993   7.130  0.3142  0.3463  0.0420
  966MOL0     O27383   4.012   9.918   7.221  0.0099  1.1917  0.2345
  966MOL0     C27384   3.882   9.866   7.201 -0.0702 -0.5550 -0.2195
  966MOL0     C27385   3.826   9.846   7.074 -0.1796 -0.1152 -0.0333
  966MOL0     C27386   3.694   9.807   7.057 -0.1582  1.0196 -0.3538
  966MOL0     C27387   3.614   9.796   7.171 -0.5402 -0.1449  0.5353
  966MOL0     O27388   3.479   9.770   7.163 -0.1073  0.0502  0.2074
  966MOL0     C27389   3.426   9.676   7.060 -0.2192 -0.2129  1.1267
  966MOL0     C27390   3.283   9.682   7.058 -0.3287  0.2423 -0.5354
  966MOL0     C27391   3.222   9.635   7.187  0.7205 -0.2569 -0.2917
  966MOL0     C27392   3.072   9.616   7.163  0.3802  0.2156  0.1230
  966MOL0     C27393   2.987   9.621   7.293 -0.0794 -0.4338 -0.1168
  966MOL0     C27394   2.829   9.600   7.280 -0.0899  0.5218  0.2063
  966MOL0     C27395   2.755   9.702   7.190 -0.1377  0.3734 -0.1610
  966MOL0     C27396   2.728   9.634   7.051 -1.1508  0.4238 -0.2121
  966MOL0     N27397   2.606   9.674   6.995 -0.6443  0.3195 -0.5187
  966MOL0     C27398   2.498   9.757   7.029  0.0937 -0.3473  0.2594
  966MOL0     C27399   2.410   9.759   6.927  0.2472  0.6640  0.1286
  966MOL0     C27400   2.274   9.823   6.928 -0.0971  0.2524 -0.4698
  966MOL0     C27401   2.176   9.811   6.810 -0.3746  0.5436 -0.0914
  966MOL0     C27402   2.071   9.913   6.831  0.1704 -0.4429 -0.5222
  966MOL0     C27403   1.961   9.899   6.728  0.2235 -0.1325  0.1033
  966MOL0     O27404   1.876   9.802   6.788  0.0930  0.4468  0.6666
  966MOL0     C27405   1.738   9.818   6.797 -0.5166 -0.1643  0.5217
  966MOL0     C27406   1.657   9.881   6.711  0.6035 -0.9917 -0.4916
  966MOL0     C27407   1.518   9.885   6.719  0.3581  0.0984  0.0684
  966MOL0     C27408   1.445   9.812   6.818 -0.7541  0.2813 -0.0657
  966MOL0     C27409   1.301   9.807   6.831  0.2996 -0.7156 -0.4917
  966MOL0     O27410   1.252   9.735   6.936 -0.4511  0.4437 -0.4175
  966MOL0     C27411   1.122   9.710   6.966 -0.0144  0.6948 -0.8166
  966MOL0     C27412   1.000   9.744   6.894 -1.2093  0.1680 -0.2676
  966MOL0     C27413   0.874   9.709   6.944  0.1741 -1.0745  0.1098
  966MOL0     C27414   0.868   9.639   7.066 -0.1890  0.8005 -0.5027
  966MOL0     O27415   0.756   9.595   7.123 -0.0581  0.5069  0.7733
  966MOL0     C27416   0.638   9.678   7.101  0.3966 -0.6750  0.3436
  966MOL0     C27417   0.525   9.598   7.168 -0.0200  0.3066  0.0599
  966MOL0     C27418   0.387   9.666   7.143 -0.0502  0.3458  0.0322
  966MOL0     C27419   0.278   9.582   7.201  0.2175 -0.6657  0.1783
  966MOL0     C27420   0.157   9.669   7.217  0.6040 -0.4861 -0.1298
  966MOL0     C27421   0.041   9.600   7.285 -0.1931 -0.2233  0.3864
  966MOL0     C27422  -0.068   9.704   7.300  0.3535 -0.1859  0.2504
  966MOL0     C27423  -0.189   9.641   7.368 -0.0012 -0.0709 -0.2463
  966MOL0    Cl27424  -0.259   9.491   7.288  0.1906  0.2656  0.3390
  966MOL0     C27425   0.986   9.604   7.132  0.2411 -0.7467  0.4163
  966MOL0     C27426   1.112   9.638   7.082  0.1928  0.4816 -0.3229
  966MOL0     O27427   1.234   9.877   6.761  0.4765 -0.3362 -0.1271
  966MOL0     C27428   1.531   9.750   6.916  0.2076  0.7451  0.0367
  966MOL0     C27429   1.674   9.750   6.910 -0.1098 -0.3038  0.1376
  966MOL0     N27430   2.464   9.683   6.829 -0.0031 -0.1009 -0.6267
  966MOL0     N27431   2.575   9.624   6.872 -0.0663  0.9302 -0.6647
  966MOL0     C27432   3.671   9.813   7.297  0.0111 -0.7977  0.4427
  966MOL0     C27433   3.806   9.850   7.313 -0.2814  0.3749 -1.0811
  966MOL0     C27434   4.219  10.015   7.170  0.1867  0.2810  0.0460
  966MOL0     C27435   4.279   9.947   7.271  0.0665 -0.4713  0.6951
  966MOL0     C27436   4.411   9.975   7.303  0.6814 -0.0574  0.7138
  966MOL0     C27437   4.492  10.058   7.225  0.5312  0.3086  0.9421
  966MOL0     O27438   4.622  10.086   7.260  0.1655  0.4640 -0.1010
  966MOL0     C27439   4.701  10.170   7.175  0.1714  0.6485  0.8725
  966MOL0     C27440   4.826  10.213   7.249 -0.6141  0.0954 -0.1473
  966MOL0     C27441   4.939  10.110   7.249  0.3074 -0.1156  0.6395
  966MOL0     C27442   5.046  10.150   7.351 -1.0491  1.1511 -0.5154
  966MOL0     C27443   5.134  10.038   7.377 -0.3626  0.2478 -0.4730
  966MOL0     C27444   5.194   9.940   7.401  0.5439  0.5517  0.5280
  966MOL0     C27445   4.431  10.126   7.113  0.0132 -0.3757 -0.8629
  966MOL0     C27446   4.297  10.098   7.083 -0.6764 -0.1678 -0.1435
  966MOL0     H27447   3.885   9.861   6.984 -0.4682 -1.8752 -0.5601
  966MOL0     H27448   3.637   9.794   6.966  1.3003  2.8579 -1.6154
  966MOL0     H27449   3.458   9.574   7.082 -3.3581 -0.8725  3.3347
  966MOL0     H27450   3.464   9.692   6.958 -0.3382 -2.7953  0.6035
  966MOL0     H27451   3.249   9.618   6.976 -3.0778  1.0003 -0.0996
  966MOL0     H27452   3.246   9.781   7.030 -0.3080  0.7622  1.1829
  966MOL0     H27453   3.242   9.722   7.251  1.0837 -0.2345 -0.4382
  966MOL0     H27454   3.260   9.544   7.233 -2.3785 -0.8878  1.3579
  966MOL0     H27455   3.035   9.690   7.091  0.3831  0.3141  0.2225
  966MOL0     H27456   3.054   9.518   7.118 -0.1649 -0.1587  1.1230
  966MOL0     H27457   2.992   9.720   7.339  2.0481 -0.7594  0.4563
  966MOL0     H27458   3.019   9.546   7.366  1.7551  1.4017  1.0414
  966MOL0     H27459   2.791   9.613   7.382 -1.3801 -1.6640  0.0752
  966MOL0     H27460   2.808   9.494   7.262  1.8342  0.1273  0.0511
  966MOL0     H27461   2.665   9.730   7.246 -0.9744  0.6065 -1.6002
  966MOL0     H27462   2.811   9.794   7.170 -0.5353  0.2959 -1.7443
  966MOL0     H27463   2.736   9.525   7.056 -1.0128  0.4034 -0.9073
  966MOL0     H27464   2.808   9.662   6.983 -1.9579  0.2009 -1.2765
  966MOL0     H27465   2.491   9.819   7.118 -1.3449  1.7924 -1.2509
  966MOL0     H27466   2.310   9.926   6.924  0.7276  0.0242  0.6824
  966MOL0     H27467   2.226   9.799   7.023 -1.1797  0.1175 -1.0316
  966MOL0     H27468   2.129   9.713   6.796 -1.6533  1.2845 -1.2884
  966MOL0     H27469   2.245   9.837   6.730  0.9746  0.4323  0.9911
  966MOL0     H27470   2.023   9.906   6.929 -1.3142 -0.0769 -1.1851
  966MOL0     H27471   2.113  10.012   6.809 -1.2272  0.0291 -1.2554
  966MOL0     H27472   1.993   9.858   6.632 -1.8181  0.6137 -0.9571
  966MOL0     H27473   1.912   9.994   6.706  2.2462  1.1803  1.0397
  966MOL0     H27474   1.696   9.934   6.625 -1.7731  1.9396  0.0338
  966MOL0     H27475   1.470   9.946   6.643 -1.2292 -1.0253  0.0973
  966MOL0     H27476   1.008   9.791   6.797 -0.1481 -2.6021 -1.6138
  966MOL0     H27477   0.788   9.732   6.882 -0.4146 -4.9480 -0.8026
  966MOL0     H27478   0.609   9.686   6.996 -2.0420 -0.2678  1.0052
  966MOL0     H27479   0.647   9.778   7.145 -0.1760 -0.2598 -0.4700
  966MOL0     H27480   0.551   9.583   7.274  1.3151 -3.4998 -0.6175
  966MOL0     H27481   0.522   9.493   7.136  1.0963  0.2027  0.2508
  966MOL0     H27482   0.365   9.701   7.042 -0.2321  2.8492  0.8794
  966MOL0     H27483   0.387   9.758   7.203 -0.3445 -2.1202  4.2331
  966MOL0     H27484   0.263   9.490   7.144  0.7741  0.8727 -2.6500
  966MOL0     H27485   0.307   9.561   7.304 -2.2646 -3.2064  0.4650
  966MOL0     H27486   0.124   9.698   7.117  3.2536 -0.7754 -1.1679
  966MOL0     H27487   0.175   9.760   7.275 -0.9220 -1.2125  1.5838
  966MOL0     H27488   0.061   9.556   7.383 -3.4512 -0.7406  0.9313
  966MOL0     H27489   0.006   9.518   7.223 -0.8932  0.1913  0.2283
  966MOL0     H27490  -0.038   9.793   7.357 -1.2513  0.0318  0.8032
  966MOL0     H27491  -0.118   9.733   7.207 -1.4446 -1.1443  0.8731
  966MOL0     H27492  -0.270   9.714   7.379  2.1071  2.9549 -3.1811
  966MOL0     H27493  -0.158   9.614   7.469 -2.2135 -0.1175  0.4692
  966MOL0     H27494   0.971   9.558   7.230 -0.5845 -0.5276  0.4010
  966MOL0     H27495   1.201   9.617   7.141 -1.4492 -0.6600  1.8890
  966MOL0     H27496   1.481   9.707   7.003 -2.7177 -0.4684 -2.0815
  966MOL0     H27497   1.737   9.704   6.985  1.0758 -2.4423 -2.0181
  966MOL0     H27498   3.597   9.801   7.376 -0.2542  1.2467  0.5586
  966MOL0     H27499   3.835   9.863   7.417 -4.0146  0.5840  0.0636
  966MOL0     H27500   4.230   9.859   7.311  2.5407 -2.2762  0.0456
  966MOL0     H27501   4.457   9.914   7.380  2.6117 -0.8060 -0.9481
  966MOL0     H27502   4.646  10.256   7.135 -0.0897 -0.6984 -1.9334
  966MOL0     H27503   4.739  10.111   7.091  0.5976 -0.3470  1.7350
  966MOL0     H27504   4.861  10.298   7.191  3.0777  0.0574  1.7626
  966MOL0     H27505   4.798  10.248   7.349  1.2561  1.5519 -0.0955
  966MOL0     H27506   4.982  10.108   7.149 -1.3149  0.3977 -0.1072
  966MOL0     H27507   4.901  10.012   7.278 -2.9076  0.3442 -1.4917
  966MOL0     H27508   5.107  10.237   7.325  2.6603  0.1235  3.4766
  966MOL0     H27509   4.994  10.181   7.441 -0.4066  4.6585 -1.2014
  966MOL0     H27510   5.253   9.852   7.414  0.8167  0.1601 -2.4791
  966MOL0     H27511   4.473  10.203   7.050 -0.0217 -2.6366 -3.8782
  966MOL0     H27512   4.259  10.146   6.993 -0.3350  0.4849  0.0532
  967MOL0     O27513   8.306   5.399   9.620 -0.3957  0.7026 -0.1094
  967MOL0     C27514   8.304   5.515   9.578 -0.3277  0.5327  0.8412
  967MOL0     O27515   8.195   5.592   9.549  0.7842  0.3816  0.1734
  967MOL0     C27516   8.067   5.537   9.558 -0.4843 -0.0600  0.5045
  967MOL0     C27517   7.969   5.608   9.494 -0.3738  0.3704 -0.6442
  967MOL0     C27518   7.832   5.586   9.517  0.1512  1.3526 -0.2792
  967MOL0     C27519   7.798   5.483   9.602 -0.2630 -0.0159  0.6974
  967MOL0     O27520   7.672   5.456   9.641  0.4266 -0.7093  0.3266
  967MOL0     C27521   7.570   5.473   9.541  0.5130  0.3798  0.1007
  967MOL0     C27522   7.451   5.397   9.594 -0.1940  0.1265 -0.1313
  967MOL0     C27523   7.388   5.458   9.724  0.1834  0.4552  0.3206
  967MOL0     C27524   7.275   5.361   9.777 -0.3675  0.0851  0.3538
  967MOL0     C27525   7.193   5.415   9.901 -0.3722  1.1988 -0.1262
  967MOL0     C27526   7.112   5.304   9.980  0.4334  1.1326 -0.6260
  967MOL0     C27527   7.031   5.358  10.095  0.1076  0.2924 -0.1432
  967MOL0     C27528   6.946   5.484  10.054 -0.0883  0.1880  0.7732
  967MOL0     N27529   6.836   5.495  10.136 -0.2362 -0.9985  0.0625
  967MOL0     C27530   6.722   5.420  10.127 -0.0024 -0.1067 -0.3493
  967MOL0     C27531   6.650   5.460  10.233 -0.3169 -0.4339  0.1730
  967MOL0     C27532   6.520   5.400  10.264  0.6973  0.2260 -0.6203
  967MOL0     C27533   6.418   5.514  10.294 -0.6318  0.0343  0.3622
  967MOL0     C27534   6.283   5.458  10.318 -0.1532 -0.6841 -0.5078
  967MOL0     C27535   6.184   5.561  10.392  0.4416  0.0301  0.5394
  967MOL0     O27536   6.068   5.511  10.457 -0.0779 -0.8754  0.6753
  967MOL0     C27537   5.969   5.452  10.384  0.4234  0.0322 -0.4967
  967MOL0     C27538   5.883   5.358  10.449  0.8469  0.7125 -0.2544
  967MOL0     C27539   5.783   5.294  10.376  0.4381 -0.3138 -0.0034
  967MOL0     C27540   5.769   5.310  10.239  0.3197 -0.1884  0.2664
  967MOL0     C27541   5.651   5.254  10.161 -0.6587 -0.0225 -0.1217
  967MOL0     O27542   5.588   5.147  10.215 -0.6721  0.2368  0.6325
  967MOL0     C27543   5.467   5.115  10.149 -0.1356 -0.4908  0.1840
  967MOL0     C27544   5.357   5.196  10.165  0.0582 -1.3919  0.2452
  967MOL0     C27545   5.237   5.154  10.097 -0.2202  0.2116  1.1179
  967MOL0     C27546   5.215   5.028  10.056 -0.0051  0.1814 -0.2486
  967MOL0     O27547   5.098   4.980  10.000  0.1496 -0.1100  0.2743
  967MOL0     C27548   4.975   4.968  10.083 -0.5506 -0.7596 -0.4541
  967MOL0     C27549   4.892   4.851  10.033  0.5330 -0.5877 -1.0314
  967MOL0     C27550   4.748   4.878  10.093  0.5765  0.6451  0.2602
  967MOL0     C27551   4.638   4.792  10.031 -0.1550  0.2954 -0.4353
  967MOL0     C27552   4.591   4.853   9.902 -0.3442  0.8973 -0.1606
  967MOL0     C27553   4.467   4.778   9.861  0.2599  0.4671 -0.3866
  967MOL0     C27554   4.409   4.815   9.725 -0.5786 -0.6307  0.1475
  967MOL0     C27555   4.265   4.752   9.701  0.0508 -0.6061  0.2998
  967MOL0    Cl27556   4.145   4.862   9.620  0.1749 -0.0671  0.1694
  967MOL0     C27557   5.331   4.946  10.053  0.4504  0.1749 -0.4424
  967MOL0     C27558   5.451   4.984  10.109 -0.4082  0.1286 -0.0315
  967MOL0     O27559   5.619   5.311  10.060  0.4980  0.4000  0.5450
  967MOL0     C27560   5.859   5.388  10.174  0.0746  0.7373 -0.3345
  967MOL0     C27561   5.953   5.467  10.245  0.0687  0.4805 -0.4815
  967MOL0     N27562   6.712   5.568  10.291 -0.7308  0.3961  0.2601
  967MOL0     N27563   6.824   5.592  10.228 -0.1789 -0.1564 -0.0319
  967MOL0     C27564   7.894   5.401   9.653 -1.0721 -0.4072 -0.7153
  967MOL0     C27565   8.028   5.431   9.640  0.4845 -0.2523 -0.6932
  967MOL0     C27566   8.432   5.580   9.574 -0.3290 -0.1133  0.3612
  967MOL0     C27567   8.545   5.504   9.583  0.3503 -0.7591  1.0207
  967MOL0     C27568   8.673   5.567   9.575 -0.0989 -0.3462 -0.0588
  967MOL0     C27569   8.684   5.701   9.551 -0.1088 -0.1855  0.7244
  967MOL0     O27570   8.804   5.768   9.532  0.2710  0.4752 -0.1982
  967MOL0     C27571   8.926   5.706   9.511 -0.3251 -0.8882  0.4109
  967MOL0     C27572   8.929   5.683   9.352  0.2518 -0.2945 -0.0528
  967MOL0     C27573   9.060   5.683   9.287  0.2362  0.0850  0.4387
  967MOL0     C27574   9.057   5.666   9.132  0.1738 -0.2419 -0.0381
  967MOL0     C27575   9.190   5.688   9.082  0.2225  0.6415 -0.2360
  967MOL0     C27576   9.304   5.726   9.050 -0.0973 -0.6981 -0.8161
  967MOL0     C27577   8.568   5.774   9.557 -0.6203  0.9327  0.3823
  967MOL0     C27578   8.444   5.715   9.561  0.3865 -0.3267 -0.1700
  967MOL0     H27579   7.994   5.693   9.430 -3.3558  2.3068  0.5737
  967MOL0     H27580   7.770   5.657   9.464  2.3031  2.1915 -1.8319
  967MOL0     H27581   7.599   5.430   9.445 -1.7221 -3.8793  1.0874
  967MOL0     H27582   7.537   5.577   9.528 -1.0041 -0.2407 -1.4709
  967MOL0     H27583   7.481   5.293   9.609 -1.9364 -0.2445  1.2086
  967MOL0     H27584   7.370   5.389   9.522 -0.8398  0.1988  0.5682
  967MOL0     H27585   7.344   5.554   9.697 -0.2794 -0.1202 -1.0473
  967MOL0     H27586   7.470   5.485   9.792  0.5663  0.9677 -0.3331
  967MOL0     H27587   7.203   5.329   9.702  0.4359 -3.2892  0.8550
  967MOL0     H27588   7.313   5.270   9.823 -2.0823 -0.0153  1.6515
  967MOL0     H27589   7.113   5.474   9.856 -0.9880 -1.3919 -2.6995
  967MOL0     H27590   7.258   5.467   9.973  1.9314 -0.6134 -0.7672
  967MOL0     H27591   7.174   5.220  10.015 -2.3202  0.1182  2.2397
  967MOL0     H27592   7.042   5.264   9.906  2.1187 -0.5060 -1.4562
  967MOL0     H27593   6.969   5.280  10.140  0.1375  0.2830 -0.1180
  967MOL0     H27594   7.090   5.401  10.176 -0.2599  0.6170 -0.0444
  967MOL0     H27595   6.903   5.467   9.954 -2.6319  0.7459  1.6960
  967MOL0     H27596   7.011   5.571  10.062  1.4657 -0.9066  0.5006
  967MOL0     H27597   6.700   5.332  10.067 -2.3202  0.2986 -0.1758
  967MOL0     H27598   6.529   5.329  10.347 -0.0278 -1.6765 -2.1014
  967MOL0     H27599   6.488   5.336  10.182  0.8125 -0.7798  0.0945
  967MOL0     H27600   6.418   5.576  10.204  0.2998 -2.8124 -1.7499
  967MOL0     H27601   6.452   5.569  10.382  0.3913  1.5992 -0.9381
  967MOL0     H27602   6.236   5.434  10.222 -0.1072  2.0521 -1.2710
  967MOL0     H27603   6.299   5.363  10.371 -0.7507 -1.3819 -1.5314
  967MOL0     H27604   6.157   5.642  10.324  2.4076  1.0965  0.9497
  967MOL0     H27605   6.239   5.615  10.469 -1.7959  0.9421  1.5863
  967MOL0     H27606   5.889   5.333  10.554 -1.0855 -1.6477 -0.5975
  967MOL0     H27607   5.715   5.231  10.433 -1.8576  1.7823 -0.2365
  967MOL0     H27608   5.362   5.294  10.211 -1.1566 -1.1481 -0.0934
  967MOL0     H27609   5.159   5.229  10.083 -1.5579 -1.3907 -0.4917
  967MOL0     H27610   4.918   5.061  10.071  0.4523 -0.2472 -1.4507
  967MOL0     H27611   5.008   4.955  10.187  1.3949  1.6398 -0.6689
  967MOL0     H27612   4.925   4.757  10.079  2.6983 -0.4085 -2.0864
  967MOL0     H27613   4.887   4.833   9.925 -1.9686 -2.2044 -0.7230
  967MOL0     H27614   4.722   4.984  10.081  1.7353  0.8395 -0.8592
  967MOL0     H27615   4.755   4.847  10.198  0.9578 -2.5641 -0.6021
  967MOL0     H27616   4.679   4.691  10.019 -0.6074 -0.3395  2.5328
  967MOL0     H27617   4.551   4.791  10.097 -0.0104 -1.3378 -0.2062
  967MOL0     H27618   4.669   4.821   9.833  0.9176 -2.5339  2.5633
  967MOL0     H27619   4.573   4.961   9.899 -0.6352  0.8772  0.6097
  967MOL0     H27620   4.382   4.804   9.925 -0.2061  2.5004 -1.7603
  967MOL0     H27621   4.496   4.672   9.853 -1.4290 -0.0951  0.5096
  967MOL0     H27622   4.393   4.923   9.719  0.2882 -0.5576 -1.4365
  967MOL0     H27623   4.481   4.788   9.647 -1.6821  2.6178 -2.2062
  967MOL0     H27624   4.226   4.731   9.801  0.5847  0.0369  0.6552
  967MOL0     H27625   4.272   4.659   9.645  0.8510  0.5712 -1.6705
  967MOL0     H27626   5.328   4.844  10.014  2.1767 -0.9612  2.0848
  967MOL0     H27627   5.537   4.917  10.108  0.2787  0.8170  3.1268
  967MOL0     H27628   5.865   5.419  10.070  0.1403 -1.1002 -0.9185
  967MOL0     H27629   6.016   5.541  10.196  2.3804 -0.6093  0.6951
  967MOL0     H27630   7.852   5.317   9.708 -0.9675 -0.9986 -1.5293
  967MOL0     H27631   8.105   5.374   9.692  0.7223  1.0875  0.4883
  967MOL0     H27632   8.534   5.398   9.603 -3.0658 -0.6474  0.3570
  967MOL0     H27633   8.764   5.508   9.581  1.8257  2.5920  2.5086
  967MOL0     H27634   8.960   5.620   9.570  2.4227  0.5907  1.1556
  967MOL0     H27635   8.999   5.785   9.530 -1.8654  0.6878 -0.0755
  967MOL0     H27636   8.876   5.589   9.332 -0.5012 -0.0489  0.7140
  967MOL0     H27637   8.873   5.767   9.310  0.2767 -0.0394  0.4247
  967MOL0     H27638   9.123   5.607   9.336 -1.8202 -1.3507  0.9724
  967MOL0     H27639   9.105   5.779   9.313  2.2452 -1.0483  1.4852
  967MOL0     H27640   9.015   5.571   9.099 -0.8802 -0.0146  0.5905
  967MOL0     H27641   8.982   5.738   9.098 -0.2021 -1.5120 -2.0603
  967MOL0     H27642   9.406   5.753   9.034  0.5680 -2.2466  0.5821
  967MOL0     H27643   8.581   5.882   9.555  1.4797  0.7086 -0.1802
  967MOL0     H27644   8.356   5.779   9.558  0.3772 -0.3580 -1.7846
  968MOL0     O27645   2.984   4.568   0.252 -0.1248 -0.4439 -0.1052
  968MOL0     C27646   3.033   4.654   0.326  0.0502 -0.9924 -0.3838
  968MOL0     O27647   2.966   4.719   0.421 -1.2153  0.1576 -0.8423
  968MOL0     C27648   2.835   4.702   0.449 -0.4082 -0.0559 -0.3567
  968MOL0     C27649   2.777   4.787   0.551  0.1308 -0.3169 -0.1303
  968MOL0     C27650   2.645   4.784   0.587 -0.3210  0.3488 -0.2504
  968MOL0     C27651   2.566   4.694   0.533  0.1081  0.9818  0.2115
  968MOL0     O27652   2.432   4.713   0.556  0.1318 -0.3878  0.6694
  968MOL0     C27653   2.341   4.626   0.479 -0.2194  0.7923 -0.0195
  968MOL0     C27654   2.199   4.660   0.518  0.4932  0.0526  1.0119
  968MOL0     C27655   2.094   4.561   0.464  0.1145 -0.7055 -0.7358
  968MOL0     C27656   1.949   4.593   0.520  0.8297  0.0396  0.8119
  968MOL0     C27657   1.834   4.510   0.453  0.3696 -0.1839 -0.1477
  968MOL0     C27658   1.697   4.586   0.481 -0.3723  0.2710  0.5470
  968MOL0     C27659   1.580   4.485   0.468 -0.1869  0.6613 -0.1896
  968MOL0     C27660   1.449   4.561   0.482 -0.4033 -0.0981  1.4845
  968MOL0     N27661   1.328   4.480   0.502  0.3152 -0.0326  0.6093
  968MOL0     C27662   1.275   4.408   0.390 -0.4806  0.9078  0.1988
  968MOL0     C27663   1.161   4.344   0.438 -0.8737 -0.2090  0.1459
  968MOL0     C27664   1.067   4.266   0.358 -0.7312  0.4232  0.5599
  968MOL0     C27665   0.923   4.330   0.348  0.5313 -0.2973 -0.4054
  968MOL0     C27666   0.827   4.277   0.455 -0.6023  0.2062 -0.2490
  968MOL0     C27667   0.691   4.329   0.423  0.2950 -0.0489 -0.7666
  968MOL0     O27668   0.598   4.305   0.526  0.0034  0.1001 -0.7909
  968MOL0     C27669   0.462   4.329   0.507 -0.6776  0.5532  0.3638
  968MOL0     C27670   0.392   4.345   0.391 -0.2543  0.0865  0.2861
  968MOL0     C27671   0.261   4.367   0.391  0.2206  0.7796  0.3536
  968MOL0     C27672   0.188   4.358   0.504  0.5108  0.1355 -0.6037
  968MOL0     C27673   0.036   4.374   0.517  0.3125  0.4545  0.6982
  968MOL0     O27674  -0.022   4.358   0.641 -0.0170  0.3406  0.2406
  968MOL0     C27675  -0.154   4.396   0.661  0.0903 -0.1928 -0.9897
  968MOL0     C27676  -0.218   4.503   0.601  0.0939  0.2179  0.5346
  968MOL0     C27677  -0.345   4.537   0.641 -1.0107  0.1022  0.5896
  968MOL0     C27678  -0.413   4.472   0.742  0.2851 -1.2954 -0.0099
  968MOL0     O27679  -0.545   4.515   0.760 -0.1153  1.0064 -0.0889
  968MOL0     C27680  -0.581   4.523   0.899  0.6476 -0.2871  0.3925
  968MOL0     C27681  -0.689   4.620   0.914 -0.7570  0.3834 -0.8808
  968MOL0     C27682  -0.741   4.617   1.059 -0.7995 -0.6501 -0.1741
  968MOL0     C27683  -0.849   4.718   1.098 -0.0939  0.8388  0.3944
  968MOL0     C27684  -0.968   4.708   1.002  0.6957 -0.0788 -0.3759
  968MOL0     C27685  -1.096   4.783   1.037  0.2729 -0.7476 -0.9621
  968MOL0     C27686  -1.155   4.780   1.181 -0.5149  0.2712  0.0694
  968MOL0     C27687  -1.111   4.901   1.260 -0.2592  0.2866 -0.0305
  968MOL0    Cl27688  -1.179   4.902   1.426 -0.0312  0.4599  0.1596
  968MOL0     C27689  -0.350   4.372   0.818  0.6866 -0.6413 -0.5647
  968MOL0     C27690  -0.220   4.334   0.774  0.8148  0.4349 -0.3879
  968MOL0     O27691  -0.025   4.413   0.422 -0.3734 -0.5969  1.0265
  968MOL0     C27692   0.260   4.354   0.626 -0.8930 -0.0672  0.0516
  968MOL0     C27693   0.393   4.332   0.628 -1.3063  0.1042  0.7539
  968MOL0     N27694   1.162   4.371   0.572 -0.5061  0.3910 -0.2241
  968MOL0     N27695   1.262   4.447   0.616  0.0798  0.3222  0.3087
  968MOL0     C27696   2.621   4.596   0.450  0.4548 -0.0639  0.7505
  968MOL0     C27697   2.750   4.599   0.400 -0.0706  0.1717  0.3349
  968MOL0     C27698   3.169   4.705   0.294 -0.9776 -0.8890 -0.9861
  968MOL0     C27699   3.215   4.829   0.350 -0.3917  0.0013  0.3446
  968MOL0     C27700   3.353   4.868   0.325 -0.2207  0.1151  0.2825
  968MOL0     C27701   3.437   4.792   0.235  0.5241  0.1814 -0.1826
  968MOL0     O27702   3.562   4.817   0.196  0.4599 -0.1501 -0.0068
  968MOL0     C27703   3.627   4.927   0.261  1.1063 -0.4348 -0.1137
  968MOL0     C27704   3.745   4.960   0.189 -0.4032 -0.7864  0.2874
  968MOL0     C27705   3.847   4.848   0.226 -0.7189  0.6426  0.2468
  968MOL0     C27706   3.994   4.883   0.182 -0.5615  0.3072 -0.6374
  968MOL0     C27707   4.011   4.871   0.038  0.4685  0.1025  0.4012
  968MOL0     C27708   4.026   4.883  -0.085 -0.5574  0.3690 -0.2475
  968MOL0     C27709   3.387   4.672   0.182  0.2773  1.2152 -0.1625
  968MOL0     C27710   3.254   4.624   0.211  0.0410 -0.7327 -0.2808
  968MOL0     H27711   2.835   4.864   0.602 -0.1926  0.6522 -1.1908
  968MOL0     H27712   2.601   4.859   0.653 -1.1422 -0.0227 -0.3658
  968MOL0     H27713   2.359   4.520   0.497 -0.8082  0.7104  0.1325
  968MOL0     H27714   2.355   4.643   0.371  0.2751  0.3347 -0.0292
  968MOL0     H27715   2.189   4.761   0.478  1.1763  0.2675  1.3680
  968MOL0     H27716   2.185   4.660   0.627 -0.6813 -2.6976  0.9385
  968MOL0     H27717   2.120   4.459   0.493 -0.2477 -0.5119  0.2949
  968MOL0     H27718   2.091   4.566   0.355 -0.9022 -0.5523 -0.7134
  968MOL0     H27719   1.948   4.569   0.627 -0.6711  0.7374  0.9839
  968MOL0     H27720   1.919   4.698   0.516 -3.5123 -1.0343  0.6599
  968MOL0     H27721   1.824   4.412   0.499  1.6124 -0.1454  0.2350
  968MOL0     H27722   1.850   4.498   0.346  0.3655  1.3690 -0.3449
  968MOL0     H27723   1.680   4.673   0.417 -1.0163  0.5100  1.0243
  968MOL0     H27724   1.683   4.617   0.585 -1.4532  1.0475  0.1881
  968MOL0     H27725   1.585   4.407   0.391  0.3038 -2.3529  2.6966
  968MOL0     H27726   1.592   4.426   0.558  1.0566  1.8563  0.4597
  968MOL0     H27727   1.435   4.614   0.388  0.0758 -2.5257 -0.0247
  968MOL0     H27728   1.463   4.635   0.562  0.9108  1.0842  0.2126
  968MOL0     H27729   1.309   4.402   0.287  2.8087 -3.8952  1.2286
  968MOL0     H27730   1.077   4.163   0.392  2.7967  0.0498 -1.1953
  968MOL0     H27731   1.117   4.259   0.262  0.7108 -1.1382  1.3814
  968MOL0     H27732   0.876   4.315   0.250  1.5552  1.3490 -1.2012
  968MOL0     H27733   0.932   4.439   0.350  1.9348 -0.3547 -1.7422
  968MOL0     H27734   0.825   4.168   0.452 -1.6516  0.1918  0.7424
  968MOL0     H27735   0.860   4.297   0.557 -2.8172 -0.1011  0.5781
  968MOL0     H27736   0.653   4.285   0.329  0.7789  2.3392 -2.1539
  968MOL0     H27737   0.685   4.436   0.406 -1.8747 -0.2797 -1.9109
  968MOL0     H27738   0.454   4.349   0.302  4.5974  0.1541  3.3263
  968MOL0     H27739   0.199   4.383   0.303  1.7850  2.3474 -0.5228
  968MOL0     H27740  -0.173   4.572   0.531  1.3267 -1.0338  0.0618
  968MOL0     H27741  -0.399   4.616   0.589  2.5242  1.0617 -2.0190
  968MOL0     H27742  -0.496   4.538   0.965  1.5958  0.6797 -0.9831
  968MOL0     H27743  -0.616   4.426   0.936  0.1995 -0.0808  0.5162
  968MOL0     H27744  -0.768   4.601   0.841 -0.1303  1.2480 -1.8037
  968MOL0     H27745  -0.649   4.720   0.896 -1.2864  0.7948  0.1446
  968MOL0     H27746  -0.653   4.622   1.123  0.5802  1.6332 -2.0781
  968MOL0     H27747  -0.793   4.521   1.068 -3.1371  0.0726 -3.6506
  968MOL0     H27748  -0.884   4.699   1.200 -2.7100 -0.6272 -0.7001
  968MOL0     H27749  -0.802   4.816   1.086  0.5641  0.3917 -0.7567
  968MOL0     H27750  -1.008   4.606   0.990 -0.9711  0.5046 -0.0357
  968MOL0     H27751  -0.940   4.747   0.903 -0.2086  4.7303  1.0033
  968MOL0     H27752  -1.174   4.758   0.965  1.2525 -0.5224 -2.1483
  968MOL0     H27753  -1.067   4.884   1.008  2.9417 -1.5351 -1.3357
  968MOL0     H27754  -1.264   4.784   1.183 -0.5561 -0.8626  0.5713
  968MOL0     H27755  -1.126   4.685   1.227 -4.0269 -1.2618 -0.5451
  968MOL0     H27756  -1.125   4.995   1.206 -1.9581 -0.3190 -0.7378
  968MOL0     H27757  -1.003   4.886   1.268 -0.1643  1.4647  1.3343
  968MOL0     H27758  -0.404   4.325   0.900 -2.5706  0.0845 -2.1379
  968MOL0     H27759  -0.168   4.251   0.821 -2.2295 -0.7951  1.1096
  968MOL0     H27760   0.207   4.361   0.721 -0.0513  0.6756  0.4771
  968MOL0     H27761   0.440   4.309   0.723  0.4833  0.9849  0.1320
  968MOL0     H27762   2.562   4.523   0.395  0.0887 -0.3917  1.5513
  968MOL0     H27763   2.784   4.529   0.325  1.8392  1.6411 -0.2641
  968MOL0     H27764   3.153   4.879   0.423 -1.9231 -1.4435  0.1024
  968MOL0     H27765   3.389   4.955   0.380 -2.7913  1.4863 -0.0809
  968MOL0     H27766   3.648   4.902   0.366  0.8003 -2.7007 -0.5499
  968MOL0     H27767   3.559   5.013   0.259  1.2430 -0.1728  2.5373
  968MOL0     H27768   3.716   4.964   0.084 -2.2919  1.0054  0.8128
  968MOL0     H27769   3.781   5.062   0.206 -3.6709  0.4682  0.4787
  968MOL0     H27770   3.815   4.756   0.178 -1.2467  0.6568  0.5593
  968MOL0     H27771   3.848   4.839   0.335 -0.1202 -0.3356  0.1644
  968MOL0     H27772   4.024   4.986   0.205  2.9868 -0.8672  0.5319
  968MOL0     H27773   4.068   4.813   0.222 -1.4044  1.2091  2.9007
  968MOL0     H27774   4.036   4.890  -0.192  1.6577  2.0816  0.0124
  968MOL0     H27775   3.445   4.606   0.118 -0.2400 -2.8541  3.0845
  968MOL0     H27776   3.217   4.540   0.153  0.8609 -0.2773 -1.4979
  969MOL0     O27777   9.524  10.455   9.575  0.6948  0.2931  0.5424
  969MOL0     C27778   9.559  10.555   9.634 -0.1390 -0.1351 -0.5213
  969MOL0     O27779   9.667  10.630   9.604  0.2836  0.6825 -0.0026
  969MOL0     C27780   9.753  10.582   9.509  0.3296 -0.3320  0.2068
  969MOL0     C27781   9.890  10.610   9.536 -0.0045 -0.2890  0.0255
  969MOL0     C27782   9.984  10.595   9.435  0.4149 -0.1287  0.5574
  969MOL0     C27783   9.942  10.551   9.310 -1.0173 -0.3758  0.6341
  969MOL0     O27784  10.039  10.564   9.205  0.0877  0.1488  0.3056
  969MOL0     C27785   9.986  10.589   9.073  0.2063  0.6650 -0.0383
  969MOL0     C27786  10.096  10.641   8.986 -0.6442 -0.7064  0.1420
  969MOL0     C27787  10.214  10.542   8.976  0.6315  0.4982 -0.1944
  969MOL0     C27788  10.337  10.615   8.922 -0.2294 -0.3363 -0.6552
  969MOL0     C27789  10.468  10.543   8.953  0.0249 -0.2665 -0.6635
  969MOL0     C27790  10.591  10.627   8.920  0.4129 -0.3734  0.1494
  969MOL0     C27791  10.718  10.558   8.977 -0.4105  0.0091  0.1962
  969MOL0     C27792  10.834  10.661   8.978 -0.4260  0.3624  0.5128
  969MOL0     N27793  10.890  10.679   8.849  0.1564 -0.2585  0.5930
  969MOL0     C27794  10.999  10.759   8.832  0.0459 -0.2097  0.4030
  969MOL0     C27795  11.042  10.732   8.714  0.1037 -0.2513  0.3601
  969MOL0     C27796  11.153  10.807   8.647 -0.7953  0.3996  0.3366
  969MOL0     C27797  11.125  10.828   8.497 -0.1539 -0.0727  0.2108
  969MOL0     C27798  11.011  10.927   8.484  0.0097  0.2550  0.2954
  969MOL0     C27799  10.964  10.952   8.346  0.9619 -0.0180  0.2966
  969MOL0     O27800  10.828  10.997   8.363 -0.2295 -0.2985  0.5987
  969MOL0     C27801  10.769  11.064   8.260 -0.5308  0.8622  0.0709
  969MOL0     C27802  10.631  11.099   8.286 -0.6499  0.1570  0.9982
  969MOL0     C27803  10.546  11.152   8.191  0.0977  0.1705 -0.3843
  969MOL0     C27804  10.589  11.172   8.061 -0.6287 -0.0021  0.5351
  969MOL0     C27805  10.496  11.210   7.955 -0.5649 -0.0141  0.3014
  969MOL0     O27806  10.378  11.274   7.996 -0.1099 -0.4691  0.5175
  969MOL0     C27807  10.273  11.261   7.915  0.2668 -0.1390  0.5895
  969MOL0     C27808  10.191  11.150   7.906 -0.0990  0.0239  0.8917
  969MOL0     C27809  10.089  11.133   7.809  0.1887  0.0026 -0.4751
  969MOL0     C27810  10.038  11.241   7.737 -0.5156  0.2100  0.2654
  969MOL0     O27811   9.931  11.253   7.656 -0.3930 -0.3090  0.0280
  969MOL0     C27812   9.859  11.143   7.618  0.1185 -0.6924  0.2080
  969MOL0     C27813   9.809  11.176   7.473  0.7062  0.1360 -0.6665
  969MOL0     C27814   9.733  11.061   7.411  0.2228 -0.2670  0.4407
  969MOL0     C27815   9.736  11.051   7.252 -0.1156  0.2159  0.3721
  969MOL0     C27816   9.610  10.985   7.207  0.5203 -0.1169 -0.5017
  969MOL0     C27817   9.606  10.946   7.060 -0.3144  0.6078  0.4007
  969MOL0     C27818   9.492  10.838   7.038  0.3824 -0.6607 -0.6249
  969MOL0     C27819   9.358  10.897   7.081  0.4518 -0.5586  0.2764
  969MOL0    Cl27820   9.227  10.777   7.074 -0.1756  0.3480 -0.3353
  969MOL0     C27821  10.122  11.357   7.742  0.0429  0.3647  0.1817
  969MOL0     C27822  10.246  11.366   7.820  0.1260  0.7915  0.0530
  969MOL0     O27823  10.516  11.148   7.854  0.0677  0.4075  0.0781
  969MOL0     C27824  10.726  11.147   8.034 -0.1006 -0.3645  0.3479
  969MOL0     C27825  10.815  11.095   8.130  0.2007  0.1288  0.2255
  969MOL0     N27826  10.962  10.635   8.652  0.4594  0.5495  0.2365
  969MOL0     N27827  10.874  10.604   8.735 -0.2255  1.6399 -0.4866
  969MOL0     C27828   9.812  10.519   9.283 -0.3918 -0.8434  0.5735
  969MOL0     C27829   9.718  10.535   9.383  0.2713 -1.1435  0.0736
  969MOL0     C27830   9.474  10.593   9.748 -0.0515  0.2539 -0.6021
  969MOL0     C27831   9.365  10.510   9.781 -0.4697  0.4475  0.1931
  969MOL0     C27832   9.278  10.538   9.885  0.2926 -0.4381 -0.3649
  969MOL0     C27833   9.297  10.648   9.968  0.0069 -0.5874 -0.7866
  969MOL0     O27834   9.212  10.656  10.069  0.2295  0.1626  0.1311
  969MOL0     C27835   9.216  10.769  10.151  0.5364  0.6014 -0.4285
  969MOL0     C27836   9.104  10.771  10.255 -0.9654  0.7564  0.5237
  969MOL0     C27837   8.963  10.756  10.188 -0.4552 -1.2124 -0.4126
  969MOL0     C27838   8.848  10.743  10.289  0.1167  0.5424  0.0326
  969MOL0     C27839   8.800  10.865  10.356 -0.5957 -0.2594 -0.5026
  969MOL0     C27840   8.771  10.965  10.421 -0.3047 -0.2943 -0.0125
  969MOL0     C27841   9.402  10.727   9.934  0.1530  0.4002  0.3203
  969MOL0     C27842   9.499  10.703   9.831  0.2025  0.4948  0.9961
  969MOL0     H27843   9.914  10.650   9.634 -0.3254 -0.5174  0.1966
  969MOL0     H27844  10.090  10.619   9.445 -0.0631  1.7799  1.4171
  969MOL0     H27845   9.896  10.651   9.076 -1.5392 -1.7010  2.8653
  969MOL0     H27846   9.938  10.497   9.040 -0.8603  1.2920 -0.2843
  969MOL0     H27847  10.129  10.739   9.022 -2.6825  0.2811 -0.5143
  969MOL0     H27848  10.053  10.662   8.887 -1.2868  1.6935  0.8593
  969MOL0     H27849  10.198  10.454   8.914  2.7371  0.8201 -1.2981
  969MOL0     H27850  10.235  10.506   9.077 -0.0606  0.2967 -0.1183
  969MOL0     H27851  10.309  10.623   8.816  0.8048 -0.8696 -0.9838
  969MOL0     H27852  10.337  10.712   8.971  1.5106 -0.7270  0.1948
  969MOL0     H27853  10.473  10.448   8.898 -0.0876 -0.8230  0.2635
  969MOL0     H27854  10.464  10.518   9.059 -3.2661 -2.8703 -1.2212
  969MOL0     H27855  10.566  10.725   8.962 -2.6690 -1.3297  0.8068
  969MOL0     H27856  10.605  10.646   8.813  2.6675  0.7086  0.5818
  969MOL0     H27857  10.705  10.526   9.081  1.4636  0.1483  0.5023
  969MOL0     H27858  10.749  10.468   8.923 -0.9612 -1.4467  2.1648
  969MOL0     H27859  10.922  10.625   9.032  0.4115 -0.9348 -1.6020
  969MOL0     H27860  10.800  10.759   9.012  0.7513  1.3092 -0.9262
  969MOL0     H27861  11.030  10.839   8.899 -1.8027 -0.2526  1.3613
  969MOL0     H27862  11.242  10.743   8.646 -0.8887  0.2314  1.4649
  969MOL0     H27863  11.168  10.902   8.697 -1.6081  1.1739 -0.8270
  969MOL0     H27864  11.094  10.733   8.452 -1.1911 -0.9940  2.7105
  969MOL0     H27865  11.211  10.877   8.450 -0.6215  2.0417  1.4203
  969MOL0     H27866  10.926  10.891   8.542 -0.8595 -0.6190 -1.4480
  969MOL0     H27867  11.059  11.018   8.521  2.1352 -0.6783  0.0228
  969MOL0     H27868  10.970  10.861   8.285 -2.1887 -1.4499  1.8993
  969MOL0     H27869  11.020  11.035   8.301 -0.5506  1.0445  0.2992
  969MOL0     H27870  10.600  11.079   8.388 -0.6017 -0.5821  0.8770
  969MOL0     H27871  10.445  11.153   8.232  0.3143 -3.6783  0.6436
  969MOL0     H27872  10.204  11.079   7.987  0.4394 -0.0052  0.7845
  969MOL0     H27873  10.033  11.040   7.809 -2.9141  1.7190 -1.2611
  969MOL0     H27874   9.764  11.140   7.672 -0.7606 -1.2864 -1.3033
  969MOL0     H27875   9.921  11.053   7.612  1.7740  0.1964  2.6671
  969MOL0     H27876   9.892  11.206   7.409  2.5451  0.4994  1.7663
  969MOL0     H27877   9.742  11.261   7.489  0.1206 -0.5256  0.4712
  969MOL0     H27878   9.629  11.073   7.443  0.8534  1.3645  2.0729
  969MOL0     H27879   9.767  10.963   7.444 -1.8020 -1.0608  0.3127
  969MOL0     H27880   9.743  11.154   7.215 -0.4855 -1.3654 -4.9099
  969MOL0     H27881   9.826  11.002   7.214 -0.5559 -0.1017 -0.2716
  969MOL0     H27882   9.530  11.051   7.241 -1.5108 -3.4930  1.8552
  969MOL0     H27883   9.596  10.893   7.264  1.5664  1.1027  1.8501
  969MOL0     H27884   9.702  10.896   7.041  0.3566  1.5803  1.1204
  969MOL0     H27885   9.599  11.042   7.007 -1.5034 -0.4830 -1.5158
  969MOL0     H27886   9.501  10.798   6.936  2.3604  0.1349 -0.8177
  969MOL0     H27887   9.521  10.759   7.107 -0.4396  0.6623  1.3122
  969MOL0     H27888   9.330  10.975   7.010 -2.9424 -0.4104  1.5886
  969MOL0     H27889   9.375  10.943   7.179  0.9791  2.9663 -1.3369
  969MOL0     H27890  10.100  11.434   7.669 -0.8046 -0.2825 -0.2569
  969MOL0     H27891  10.314  11.451   7.813 -0.3895  1.0774 -2.6806
  969MOL0     H27892  10.757  11.150   7.930 -0.7915  0.5503  0.1594
  969MOL0     H27893  10.915  11.071   8.097 -0.2507 -1.8925  0.1723
  969MOL0     H27894   9.779  10.484   9.186 -0.1134 -1.0462  0.5516
  969MOL0     H27895   9.614  10.518   9.358  0.0932  0.8279 -0.7066
  969MOL0     H27896   9.340  10.427   9.716 -0.9920  0.1702  0.7411
  969MOL0     H27897   9.184  10.485   9.898  0.0523  0.2444  0.7319
  969MOL0     H27898   9.201  10.847  10.075 -1.4564  1.3220  0.6459
  969MOL0     H27899   9.306  10.778  10.212 -0.6510 -1.1516  1.7243
  969MOL0     H27900   9.106  10.686  10.324 -1.4399 -1.7938 -2.3770
  969MOL0     H27901   9.113  10.864  10.312  4.3686  1.9968 -1.7008
  969MOL0     H27902   8.959  10.666  10.126 -1.5465 -3.4071  2.6483
  969MOL0     H27903   8.945  10.845  10.125  2.4376 -0.2475 -0.0369
  969MOL0     H27904   8.762  10.712  10.229 -0.2921 -1.7363  1.6381
  969MOL0     H27905   8.866  10.660  10.359 -0.0104  0.2978 -0.2224
  969MOL0     H27906   8.731  11.045  10.481 -1.2593  0.5453 -1.7049
  969MOL0     H27907   9.417  10.810  10.003 -2.9147  1.0605  0.3304
  969MOL0     H27908   9.589  10.763   9.821  0.5950 -0.2961 -0.3714
  970MOL0     O27909   7.534   9.529  10.368 -0.3474 -0.2955 -0.0065
  970MOL0     C27910   7.608   9.513  10.272 -0.2663  0.6707 -0.3337
  970MOL0     O27911   7.576   9.518  10.141 -0.0461  0.7968 -0.1798
  970MOL0     C27912   7.447   9.484  10.103  0.1590 -0.0044 -0.7846
  970MOL0     C27913   7.368   9.386  10.180  0.3940 -0.7961 -0.1539
  970MOL0     C27914   7.236   9.360  10.155  0.1115  0.0428 -0.7749
  970MOL0     C27915   7.174   9.415  10.042 -0.4969  0.4663  0.7970
  970MOL0     O27916   7.044   9.388  10.002 -0.5485 -0.0901 -0.0972
  970MOL0     C27917   6.944   9.391  10.102 -0.1581 -1.1735  0.0388
  970MOL0     C27918   6.812   9.387  10.025 -0.5434  0.3808 -0.0741
  970MOL0     C27919   6.789   9.495   9.920 -0.0017 -1.1802  0.2712
  970MOL0     C27920   6.641   9.504   9.875 -0.3079 -0.7231 -0.1662
  970MOL0     C27921   6.571   9.367   9.865  0.2037 -0.1739  0.6735
  970MOL0     C27922   6.427   9.377   9.805  0.2864 -0.1835  0.3499
  970MOL0     C27923   6.331   9.403   9.916  0.0621 -0.5927 -1.2381
  970MOL0     C27924   6.185   9.392   9.867  0.1195 -0.3038  0.8926
  970MOL0     N27925   6.148   9.515   9.789 -0.6628  0.2243 -0.2688
  970MOL0     C27926   6.120   9.517   9.650 -0.4855 -0.2498 -0.3127
  970MOL0     C27927   6.079   9.640   9.625 -0.0699  0.0915 -0.5886
  970MOL0     C27928   6.017   9.688   9.497  0.0840 -0.4640  0.0592
  970MOL0     C27929   5.867   9.728   9.528 -0.2166 -0.2588 -0.3781
  970MOL0     C27930   5.782   9.718   9.397  0.0600  0.2637 -0.5212
  970MOL0     C27931   5.639   9.733   9.425 -0.2528  0.0804  0.1828
  970MOL0     O27932   5.561   9.717   9.300  0.5071 -0.1162  0.0753
  970MOL0     C27933   5.429   9.743   9.298  0.4184 -0.3233  1.0311
  970MOL0     C27934   5.347   9.682   9.203 -0.4232 -0.0883 -0.1611
  970MOL0     C27935   5.212   9.688   9.201  0.0345 -0.3074  0.1616
  970MOL0     C27936   5.147   9.766   9.299  0.2776 -0.3492 -0.1479
  970MOL0     C27937   5.002   9.766   9.294  0.5835  0.0712  0.3886
  970MOL0     O27938   4.946   9.677   9.210  0.0083  0.3643  0.1352
  970MOL0     C27939   4.809   9.671   9.190 -0.3903  0.3501  0.4389
  970MOL0     C27940   4.699   9.721   9.265 -0.3526  0.7802  0.2721
  970MOL0     C27941   4.560   9.707   9.222  0.0656 -0.7056 -0.6439
  970MOL0     C27942   4.533   9.651   9.100  0.2381  0.1984  0.3202
  970MOL0     O27943   4.405   9.638   9.042  1.2714  0.1448 -0.2666
  970MOL0     C27944   4.293   9.631   9.136 -1.3791  0.1280 -0.1044
  970MOL0     C27945   4.206   9.522   9.096 -1.2535 -0.2089  0.7726
  970MOL0     C27946   4.123   9.472   9.216 -1.0367  0.6222  0.5276
  970MOL0     C27947   4.011   9.372   9.179 -0.9561 -0.0673  0.4934
  970MOL0     C27948   4.054   9.228   9.159  0.5743 -0.3271  0.5035
  970MOL0     C27949   3.931   9.140   9.125 -0.2876 -0.6355 -0.1378
  970MOL0     C27950   3.961   8.990   9.098  0.1383  0.0652 -0.9799
  970MOL0     C27951   3.827   8.923   9.068  0.7246  0.5888 -0.5671
  970MOL0    Cl27952   3.753   8.878   9.221 -0.3120  0.5514  0.6133
  970MOL0     C27953   4.644   9.610   9.019  0.1863 -0.1060  0.5237
  970MOL0     C27954   4.778   9.618   9.061  0.5286 -0.4463 -0.0475
  970MOL0     O27955   4.939   9.846   9.369 -0.0930  0.2360  0.4481
  970MOL0     C27956   5.221   9.831   9.385  0.0913 -0.0231 -0.1701
  970MOL0     C27957   5.360   9.831   9.381 -0.4395  0.1270  0.1715
  970MOL0     N27958   6.072   9.704   9.748  0.3275  0.3697  0.7004
  970MOL0     N27959   6.121   9.637   9.841  0.8400  0.2728 -0.2668
  970MOL0     C27960   7.258   9.500   9.962  0.6930  0.6872 -0.1861
  970MOL0     C27961   7.388   9.526   9.988  0.1090 -1.1275 -0.3613
  970MOL0     C27962   7.758   9.516  10.300 -0.2717  0.2437  0.3996
  970MOL0     C27963   7.852   9.543  10.205  0.5705  0.2605 -0.0669
  970MOL0     C27964   7.990   9.528  10.229  0.5051  0.0521 -0.3699
  970MOL0     C27965   8.033   9.493  10.357 -0.0159  0.0408  0.9655
  970MOL0     O27966   8.170   9.486  10.384  0.8425 -0.2900  0.3335
  970MOL0     C27967   8.207   9.422  10.502  1.0556 -0.1955 -0.2019
  970MOL0     C27968   8.352   9.439  10.525 -0.0397  0.4343  0.4319
  970MOL0     C27969   8.403   9.579  10.513  0.0682 -0.7355  0.1576
  970MOL0     C27970   8.546   9.599  10.552 -0.2293 -0.1617  0.3237
  970MOL0     C27971   8.595   9.738  10.526  0.0127 -0.5288 -0.5053
  970MOL0     C27972   8.629   9.853  10.499 -0.7363 -0.7841 -0.5132
  970MOL0     C27973   7.937   9.469  10.456 -0.1437  0.2714  0.8501
  970MOL0     C27974   7.805   9.482  10.431 -0.7228  0.1223  0.5560
  970MOL0     H27975   7.413   9.340  10.267 -0.3826  0.8540  1.1808
  970MOL0     H27976   7.189   9.292  10.224 -6.2865  2.9097 -1.5848
  970MOL0     H27977   6.954   9.479  10.165 -1.4148  0.5628 -2.0469
  970MOL0     H27978   6.945   9.304  10.169  1.7383  0.1409  1.8308
  970MOL0     H27979   6.733   9.387  10.101 -0.4432  2.4830  0.0928
  970MOL0     H27980   6.824   9.289   9.978  1.9952  0.9758 -0.8316
  970MOL0     H27981   6.844   9.474   9.828 -0.4950  2.0087 -0.8884
  970MOL0     H27982   6.814   9.595   9.955  3.0000 -1.4895 -0.7407
  970MOL0     H27983   6.588   9.573   9.941  2.2524  0.8628  0.3651
  970MOL0     H27984   6.640   9.540   9.771  0.5208 -0.4952 -0.1021
  970MOL0     H27985   6.571   9.317   9.962  1.0602  1.8043  1.7614
  970MOL0     H27986   6.632   9.306   9.798 -1.4150 -2.2357  0.9736
  970MOL0     H27987   6.404   9.280   9.760  2.8335 -0.9859  0.6301
  970MOL0     H27988   6.418   9.453   9.726  3.4162  0.9989  0.9988
  970MOL0     H27989   6.339   9.321   9.988 -3.5133 -0.4332 -0.4666
  970MOL0     H27990   6.344   9.499   9.966 -1.6565 -1.6137  1.3692
  970MOL0     H27991   6.126   9.374   9.957 -0.3680  1.2401  0.9013
  970MOL0     H27992   6.165   9.308   9.800 -2.6186 -0.2802  1.5759
  970MOL0     H27993   6.125   9.443   9.571  3.1650 -1.1309  0.5282
  970MOL0     H27994   6.033   9.611   9.421 -0.4709 -2.9240  2.2946
  970MOL0     H27995   6.080   9.771   9.461 -1.1187  0.4239 -0.0750
  970MOL0     H27996   5.870   9.837   9.540  1.2091  0.0143 -2.6400
  970MOL0     H27997   5.820   9.676   9.613 -1.4642  2.0653  0.4458
  970MOL0     H27998   5.809   9.803   9.333  0.9056 -0.5862 -1.3084
  970MOL0     H27999   5.800   9.616   9.363 -1.3334 -1.2369  2.8326
  970MOL0     H28000   5.616   9.829   9.473  1.6338 -0.7981  3.1442
  970MOL0     H28001   5.599   9.658   9.494 -1.4073 -0.3218 -0.8881
  970MOL0     H28002   5.397   9.617   9.131 -3.0767  0.4676 -2.6848
  970MOL0     H28003   5.165   9.631   9.121 -1.8478  0.8967  0.3447
  970MOL0     H28004   4.710   9.764   9.365 -1.2554  0.7244  0.4083
  970MOL0     H28005   4.481   9.752   9.281  0.3864 -1.0975  0.1038
  970MOL0     H28006   4.233   9.723   9.141 -0.1583  0.9559 -0.2845
  970MOL0     H28007   4.319   9.597   9.237 -1.6168 -1.6195 -0.6037
  970MOL0     H28008   4.261   9.442   9.047  0.5128  1.0197  0.6645
  970MOL0     H28009   4.148   9.565   9.013  0.2866 -0.9388 -0.7325
  970MOL0     H28010   4.091   9.562   9.269 -0.3427 -0.0755  2.2327
  970MOL0     H28011   4.194   9.429   9.288  1.1667 -2.8685 -3.2518
  970MOL0     H28012   3.943   9.378   9.264  1.7833  0.4698  2.7878
  970MOL0     H28013   3.950   9.394   9.090 -1.6345 -3.2881  0.0364
  970MOL0     H28014   4.110   9.182   9.241  1.2112  1.3481  1.0469
  970MOL0     H28015   4.114   9.231   9.067 -1.2389 -2.7218 -0.8850
  970MOL0     H28016   3.885   9.176   9.032  0.3763  0.2230 -0.1515
  970MOL0     H28017   3.857   9.146   9.205  1.8225  0.6270  1.8727
  970MOL0     H28018   4.033   8.993   9.016  1.6789  1.0762  0.3439
  970MOL0     H28019   4.003   8.940   9.185  0.4921  4.0593  1.4175
  970MOL0     H28020   3.833   8.834   9.005 -2.3665  0.4325 -0.8151
  970MOL0     H28021   3.758   8.987   9.013 -1.3477 -2.1633 -1.3983
  970MOL0     H28022   4.612   9.567   8.924 -0.3974 -0.6376  0.9520
  970MOL0     H28023   4.857   9.588   8.992  1.6607 -1.3841  1.5802
  970MOL0     H28024   5.172   9.903   9.451  0.9566 -0.1841  0.6787
  970MOL0     H28025   5.420   9.889   9.450 -2.2610  2.4266 -0.0643
  970MOL0     H28026   7.208   9.533   9.872  0.4002 -0.3384 -0.4077
  970MOL0     H28027   7.447   9.589   9.923  1.0738 -0.5559  1.0138
  970MOL0     H28028   7.808   9.574  10.110 -0.7166  0.0593  0.4476
  970MOL0     H28029   8.071   9.562  10.165  2.8199  1.9002  3.1976
  970MOL0     H28030   8.179   9.318  10.487 -1.6638  0.4972 -0.4592
  970MOL0     H28031   8.152   9.464  10.586 -1.4117 -2.9249 -0.3056
  970MOL0     H28032   8.380   9.384  10.616  0.4569 -0.8537 -0.4788
  970MOL0     H28033   8.400   9.379  10.448 -1.6428 -0.3342 -0.0065
  970MOL0     H28034   8.340   9.636  10.582 -0.8785  0.7264 -1.7917
  970MOL0     H28035   8.393   9.606  10.407  0.0643 -0.3273  0.2597
  970MOL0     H28036   8.548   9.571  10.657 -2.3476  0.8289  0.6698
  970MOL0     H28037   8.610   9.534  10.491 -2.0505 -0.9491 -0.8384
  970MOL0     H28038   8.666   9.953  10.492  0.3523 -1.1045  0.3866
  970MOL0     H28039   7.967   9.439  10.556  1.4626 -0.6956  0.1065
  970MOL0     H28040   7.734   9.451  10.507 -1.1998  0.2994  0.1866
  971MOL0     O28041   3.701   8.495   9.222 -0.1066  0.2955  0.1135
  971MOL0     C28042   3.709   8.373   9.226 -0.0172  0.1848  0.8112
  971MOL0     O28043   3.628   8.280   9.167  0.3897 -0.2255  0.1446
  971MOL0     C28044   3.542   8.331   9.066  0.2029  0.1087 -0.3365
  971MOL0     C28045   3.427   8.401   9.108 -0.5351 -0.1561 -0.2430
  971MOL0     C28046   3.331   8.447   9.007  0.0127  0.0226  0.2690
  971MOL0     C28047   3.367   8.432   8.872  0.0637  0.0816 -0.5131
  971MOL0     O28048   3.293   8.480   8.764 -0.3507 -0.0371  0.4919
  971MOL0     C28049   3.151   8.464   8.769  0.0237 -0.3451  0.2306
  971MOL0     C28050   3.085   8.516   8.654  0.2520  0.0671  0.0389
  971MOL0     C28051   2.941   8.462   8.633 -0.1915 -0.4756  0.1235
  971MOL0     C28052   2.863   8.543   8.534 -0.4886 -0.0088  0.7546
  971MOL0     C28053   2.727   8.485   8.507  1.3746 -0.2962  0.4319
  971MOL0     C28054   2.630   8.502   8.629  0.3229  0.5861 -0.0055
  971MOL0     C28055   2.485   8.481   8.605 -0.1774  0.1960  0.2161
  971MOL0     C28056   2.414   8.576   8.503  0.7117 -0.1671  0.0964
  971MOL0     N28057   2.269   8.537   8.489 -0.3065 -0.2885  0.3304
  971MOL0     C28058   2.212   8.424   8.549  0.0274  0.3602 -0.5209
  971MOL0     C28059   2.077   8.441   8.568  0.2011  0.1276 -0.2771
  971MOL0     C28060   1.989   8.336   8.642  0.3961 -0.0256  0.0602
  971MOL0     C28061   1.846   8.372   8.606  0.7074  0.0390 -0.8741
  971MOL0     C28062   1.799   8.352   8.454 -0.4281 -0.5060  0.0868
  971MOL0     C28063   1.699   8.458   8.420 -0.1474  0.6420 -0.9490
  971MOL0     O28064   1.571   8.429   8.486 -0.5214  0.5491  0.0634
  971MOL0     C28065   1.459   8.505   8.470 -1.0571  0.1074 -0.1570
  971MOL0     C28066   1.344   8.457   8.528 -0.3311 -0.9148  0.0977
  971MOL0     C28067   1.231   8.534   8.526 -0.2684  0.2063 -0.6128
  971MOL0     C28068   1.221   8.649   8.455 -0.4095  0.3571  0.5585
  971MOL0     C28069   1.099   8.726   8.449  0.3970 -0.7803 -0.6540
  971MOL0     O28070   0.976   8.661   8.472 -0.0190  0.0088  0.2130
  971MOL0     C28071   0.858   8.728   8.472  0.5346  0.2581  0.9148
  971MOL0     C28072   0.825   8.818   8.375 -0.2971 -0.3052 -0.2425
  971MOL0     C28073   0.697   8.878   8.375 -0.1770 -0.8234  0.2797
  971MOL0     C28074   0.596   8.837   8.475 -0.6677 -0.2809  0.7802
  971MOL0     O28075   0.469   8.890   8.467  0.7721  0.3685  0.0604
  971MOL0     C28076   0.394   8.889   8.589  0.8622  0.7698  0.0428
  971MOL0     C28077   0.305   9.012   8.589  1.0066  0.0417 -0.4152
  971MOL0     C28078   0.188   8.999   8.491 -0.4792  0.0025  0.3731
  971MOL0     C28079   0.141   9.141   8.455  0.2760  1.0781  0.0390
  971MOL0     C28080   0.002   9.137   8.397  0.2786  0.1948  0.2262
  971MOL0     C28081  -0.115   9.158   8.498  0.0960  0.2144 -0.1970
  971MOL0     C28082  -0.237   9.180   8.406 -0.0871 -0.4870  0.8537
  971MOL0     C28083  -0.354   9.224   8.504  0.3999 -0.1641  0.1050
  971MOL0    Cl28084  -0.484   9.309   8.429 -0.0788  0.1625 -0.2110
  971MOL0     C28085   0.630   8.730   8.553 -0.5047  0.2217  0.5408
  971MOL0     C28086   0.757   8.677   8.552  0.5607 -0.0526  0.6516
  971MOL0     O28087   1.109   8.852   8.448 -0.1007 -0.2680  0.0860
  971MOL0     C28088   1.332   8.697   8.392  0.2926  0.0210  0.8192
  971MOL0     C28089   1.452   8.629   8.399  0.1252  0.3486  0.1386
  971MOL0     N28090   2.060   8.573   8.527  0.4895 -0.1928 -0.7539
  971MOL0     N28091   2.165   8.621   8.478  0.0148  0.3694 -0.3722
  971MOL0     C28092   3.483   8.361   8.834  0.5474 -0.7647 -0.1498
  971MOL0     C28093   3.576   8.314   8.931 -1.0607  0.4458 -0.6539
  971MOL0     C28094   3.826   8.329   9.301  0.0444 -0.2800  0.1994
  971MOL0     C28095   3.880   8.211   9.263 -1.6310  0.5024  0.3824
  971MOL0     C28096   4.005   8.176   9.324 -0.0755 -0.3032 -0.2865
  971MOL0     C28097   4.080   8.271   9.404  0.2492  0.2021 -0.7497
  971MOL0     O28098   4.205   8.220   9.443 -0.3736  0.1825 -0.1425
  971MOL0     C28099   4.283   8.305   9.520 -0.3149 -0.5254  0.4321
  971MOL0     C28100   4.434   8.257   9.513 -0.0503 -0.1529  0.4262
  971MOL0     C28101   4.486   8.263   9.369  0.1448  0.0308  0.2315
  971MOL0     C28102   4.639   8.223   9.355 -0.9765  0.6676 -1.3522
  971MOL0     C28103   4.732   8.323   9.414 -0.4100  0.5374 -0.3156
  971MOL0     C28104   4.809   8.399   9.469  0.4704  0.3411 -0.4863
  971MOL0     C28105   4.015   8.380   9.455  0.8261 -0.9196  0.1935
  971MOL0     C28106   3.888   8.410   9.395 -0.2833 -0.4638 -0.1438
  971MOL0     H28107   3.414   8.422   9.214  2.6813 -1.9663  0.6574
  971MOL0     H28108   3.248   8.507   9.043 -0.8559 -1.3410  0.6034
  971MOL0     H28109   3.112   8.512   8.859  0.5219 -1.1759  0.9073
  971MOL0     H28110   3.127   8.358   8.778  0.5068 -0.4095  0.8363
  971MOL0     H28111   3.144   8.485   8.568  0.5499  0.6543  0.0289
  971MOL0     H28112   3.088   8.625   8.651  3.2257  0.0805  0.4474
  971MOL0     H28113   2.892   8.464   8.730  1.2982  3.2274  0.9497
  971MOL0     H28114   2.942   8.357   8.600 -1.0080 -0.7439  0.9278
  971MOL0     H28115   2.855   8.647   8.567  0.8090 -0.0809  1.3366
  971MOL0     H28116   2.927   8.552   8.446 -1.0011 -0.7227  0.2891
  971MOL0     H28117   2.734   8.378   8.483  0.7563 -0.3425  0.4418
  971MOL0     H28118   2.681   8.552   8.434 -0.3606  0.7146  2.3467
  971MOL0     H28119   2.638   8.602   8.673 -0.9172  0.7339 -0.0654
  971MOL0     H28120   2.655   8.434   8.711  2.5292  0.9862 -0.2950
  971MOL0     H28121   2.478   8.381   8.559  3.4918 -0.1421  0.0697
  971MOL0     H28122   2.422   8.483   8.694 -2.1296  0.2542 -1.0979
  971MOL0     H28123   2.473   8.558   8.413  0.4115 -3.4110  0.4145
  971MOL0     H28124   2.426   8.682   8.525 -0.6000 -0.3796  2.1002
  971MOL0     H28125   2.258   8.329   8.576 -1.1360 -0.5760 -1.6652
  971MOL0     H28126   2.005   8.346   8.749 -2.3119  2.4856  0.3645
  971MOL0     H28127   2.019   8.236   8.608  0.9586  0.0883  0.2099
  971MOL0     H28128   1.822   8.472   8.646  0.5214 -1.2368  2.5143
  971MOL0     H28129   1.778   8.306   8.661  0.4153  0.2403 -0.9889
  971MOL0     H28130   1.882   8.362   8.383 -0.4552  1.6791  0.2940
  971MOL0     H28131   1.763   8.251   8.432  2.0263 -1.5432  0.4682
  971MOL0     H28132   1.675   8.449   8.314  0.6956 -1.3532 -1.0138
  971MOL0     H28133   1.727   8.558   8.453 -1.3548  0.9506 -0.8087
  971MOL0     H28134   1.339   8.357   8.570 -0.8537 -1.6473 -1.6088
  971MOL0     H28135   1.142   8.503   8.580 -0.0079 -0.2022 -0.4158
  971MOL0     H28136   0.895   8.843   8.296  1.5380 -1.8558  0.7936
  971MOL0     H28137   0.665   8.964   8.317 -1.0739 -0.3885  1.3794
  971MOL0     H28138   0.448   8.886   8.683 -0.9829  0.7490  1.1562
  971MOL0     H28139   0.335   8.797   8.586  2.8804 -0.6938  2.2149
  971MOL0     H28140   0.360   9.101   8.556  1.2243  0.7152  1.6358
  971MOL0     H28141   0.266   9.047   8.685  0.3079 -1.0071 -0.3021
  971MOL0     H28142   0.108   8.944   8.544 -2.2382  1.7933 -0.3081
  971MOL0     H28143   0.213   8.937   8.404 -4.7994 -0.8350 -0.5152
  971MOL0     H28144   0.135   9.208   8.542 -1.1749  1.5151 -0.3734
  971MOL0     H28145   0.219   9.173   8.385  0.1556  2.2150  0.4077
  971MOL0     H28146  -0.015   9.055   8.326 -0.7772  0.1369  0.5317
  971MOL0     H28147   0.004   9.225   8.332  1.8841 -0.5407 -0.8031
  971MOL0     H28148  -0.106   9.244   8.565  0.6544 -0.3948  0.5313
  971MOL0     H28149  -0.127   9.062   8.548  1.0837 -1.0781 -2.2836
  971MOL0     H28150  -0.226   9.254   8.326 -3.6392  0.1237  0.7775
  971MOL0     H28151  -0.260   9.081   8.366  1.4444 -0.0404 -1.3172
  971MOL0     H28152  -0.307   9.282   8.584  1.9497 -0.8039 -0.3111
  971MOL0     H28153  -0.393   9.132   8.550 -1.1477 -0.1092 -1.0281
  971MOL0     H28154   0.551   8.692   8.618  0.4813  0.9632  2.2486
  971MOL0     H28155   0.766   8.588   8.613 -1.2070 -0.8236 -0.1530
  971MOL0     H28156   1.329   8.788   8.333  0.7430  0.5782  1.6301
  971MOL0     H28157   1.532   8.681   8.347 -0.5336  0.3231 -0.9341
  971MOL0     H28158   3.520   8.360   8.732 -1.8936  2.1110 -1.2055
  971MOL0     H28159   3.664   8.261   8.896  0.3043  3.5912 -2.4288
  971MOL0     H28160   3.838   8.148   9.185 -1.0249 -1.2934  1.4451
  971MOL0     H28161   4.041   8.080   9.289 -3.1876 -0.9400 -2.1060
  971MOL0     H28162   4.248   8.304   9.623  0.4666  2.6153  0.8469
  971MOL0     H28163   4.272   8.408   9.483  1.4888 -0.6675 -0.6407
  971MOL0     H28164   4.487   8.323   9.583  0.1473  1.0399 -0.8160
  971MOL0     H28165   4.448   8.153   9.545 -2.0053 -1.5686 -2.8667
  971MOL0     H28166   4.493   8.368   9.338  1.0147 -0.2174 -0.4790
  971MOL0     H28167   4.409   8.216   9.306 -0.1826 -0.7879  1.2257
  971MOL0     H28168   4.661   8.125   9.397  0.2923  1.4113 -0.1788
  971MOL0     H28169   4.660   8.223   9.248 -3.5793  0.7402 -1.9212
  971MOL0     H28170   4.872   8.465   9.525 -2.4708  1.4328  1.8340
  971MOL0     H28171   4.049   8.453   9.527 -1.4040  1.7091 -1.2688
  971MOL0     H28172   3.851   8.507   9.425 -0.1951 -0.1816 -0.9143
  972MOL0     O28173   4.310   2.438   9.445  0.4617 -0.0971 -0.0275
  972MOL0     C28174   4.305   2.553   9.498 -0.0573  0.5724  0.1000
  972MOL0     O28175   4.203   2.599   9.575  0.0597 -0.7194 -0.2007
  972MOL0     C28176   4.105   2.515   9.626 -0.4348  1.0696  0.2167
  972MOL0     C28177   3.973   2.560   9.625 -1.1604 -0.8942  0.0766
  972MOL0     C28178   3.865   2.488   9.677 -0.7918  0.1092 -0.2823
  972MOL0     C28179   3.889   2.368   9.740 -0.0227  0.4422 -0.2332
  972MOL0     O28180   3.778   2.308   9.799  0.6852 -0.7804 -0.2260
  972MOL0     C28181   3.792   2.203   9.887  0.1392  0.5477 -0.1888
  972MOL0     C28182   3.661   2.125   9.890  0.2510  0.9437  0.0691
  972MOL0     C28183   3.538   2.201   9.945  0.0935  0.5791 -0.8334
  972MOL0     C28184   3.416   2.109   9.954  0.0081  0.5705 -0.0046
  972MOL0     C28185   3.298   2.191  10.018 -0.4689  0.2720 -0.1740
  972MOL0     C28186   3.158   2.139  10.002  0.3065  0.7141 -0.0372
  972MOL0     C28187   3.044   2.238  10.029 -0.2615  0.2494  0.4997
  972MOL0     C28188   2.911   2.180   9.990 -0.0912  0.3974 -0.1212
  972MOL0     N28189   2.903   2.149   9.843  0.0115 -0.4786  0.4519
  972MOL0     C28190   2.860   2.241   9.752 -0.0150 -0.3480 -0.0512
  972MOL0     C28191   2.810   2.179   9.640  0.8775  0.6884  1.4342
  972MOL0     C28192   2.758   2.239   9.511 -0.1040  0.0298 -0.3208
  972MOL0     C28193   2.601   2.236   9.502  0.7615  0.1137  0.8076
  972MOL0     C28194   2.539   2.317   9.388 -0.2717  0.2839  0.1540
  972MOL0     C28195   2.394   2.356   9.408 -0.2906 -0.6075  0.0946
  972MOL0     O28196   2.327   2.261   9.491  0.6476  0.2016  0.1123
  972MOL0     C28197   2.190   2.274   9.523  0.0844  0.0464  0.5022
  972MOL0     C28198   2.105   2.160   9.536 -0.4482 -0.6340  0.7235
  972MOL0     C28199   1.969   2.177   9.568 -0.3082  0.0989  0.4700
  972MOL0     C28200   1.915   2.304   9.574  0.0745  0.0683  0.2315
  972MOL0     C28201   1.771   2.327   9.594 -0.0741 -0.3612  0.3529
  972MOL0     O28202   1.704   2.229   9.665 -0.0558 -0.0373  0.0276
  972MOL0     C28203   1.573   2.257   9.682 -0.3582 -0.8611 -0.2520
  972MOL0     C28204   1.484   2.231   9.573  0.4286 -0.0063 -0.2146
  972MOL0     C28205   1.345   2.253   9.589 -0.3487  0.0152 -0.8889
  972MOL0     C28206   1.292   2.280   9.717 -0.0916 -1.1984  0.6192
  972MOL0     O28207   1.157   2.291   9.731 -0.2199  0.2622  0.0412
  972MOL0     C28208   1.093   2.315   9.859  0.2463 -0.2263  0.1064
  972MOL0     C28209   0.944   2.356   9.836 -0.5237 -0.0810  0.1735
  972MOL0     C28210   0.858   2.337   9.952 -0.3690  0.1704 -0.0372
  972MOL0     C28211   0.718   2.394   9.934 -0.6726 -0.2703  0.2022
  972MOL0     C28212   0.634   2.315  10.033 -0.4983 -0.1982  0.0251
  972MOL0     C28213   0.493   2.371  10.058  0.1295 -0.0409  0.3238
  972MOL0     C28214   0.505   2.519  10.098 -0.5418  0.2972  0.4989
  972MOL0     C28215   0.396   2.535  10.194  0.1559 -0.2724 -0.5422
  972MOL0    Cl28216   0.376   2.702  10.252  0.3262  0.0555  0.2195
  972MOL0     C28217   1.383   2.290   9.827  0.3040 -0.3580  0.4041
  972MOL0     C28218   1.520   2.282   9.807 -0.4356  0.2158  0.4732
  972MOL0     O28219   1.725   2.430   9.552  0.2353  0.1609  0.1049
  972MOL0     C28220   1.998   2.415   9.562 -0.0664  0.4032 -0.1531
  972MOL0     C28221   2.131   2.395   9.533 -0.2367  0.5355 -0.3178
  972MOL0     N28222   2.850   2.049   9.668 -0.1209  0.0503  0.0028
  972MOL0     N28223   2.912   2.036   9.780  0.2586  0.0173 -0.2740
  972MOL0     C28224   4.021   2.318   9.740 -0.2601  0.0041  0.0906
  972MOL0     C28225   4.125   2.387   9.682  0.6826 -0.6363  0.2523
  972MOL0     C28226   4.416   2.643   9.468 -0.3574 -0.0478  0.5957
  972MOL0     C28227   4.521   2.610   9.389  0.1007 -0.0393 -0.0601
  972MOL0     C28228   4.615   2.706   9.354  0.3009  0.5732 -0.3687
  972MOL0     C28229   4.625   2.833   9.414  0.2364  0.1950  0.1636
  972MOL0     O28230   4.728   2.926   9.411 -0.3865  0.2938 -0.1705
  972MOL0     C28231   4.811   2.909   9.294  0.1331 -0.6228  0.1953
  972MOL0     C28232   4.920   3.012   9.280  0.1033 -0.6831 -0.5028
  972MOL0     C28233   5.028   2.997   9.170  0.4980  0.3437 -0.4306
  972MOL0     C28234   5.134   3.103   9.179  0.2648 -0.0741  0.0615
  972MOL0     C28235   5.241   3.086   9.078 -0.0635  0.4756  0.3087
  972MOL0     C28236   5.329   3.073   8.992  0.8090  0.8678 -0.6885
  972MOL0     C28237   4.524   2.861   9.500 -0.0548 -0.5729 -0.9568
  972MOL0     C28238   4.418   2.772   9.522  0.1247 -0.0227  0.0262
  972MOL0     H28239   3.949   2.658   9.585 -0.9608 -0.4197  1.0755
  972MOL0     H28240   3.769   2.539   9.680  0.6536  3.0636 -0.8304
  972MOL0     H28241   3.809   2.234   9.991  1.1508  0.9431 -0.4624
  972MOL0     H28242   3.872   2.139   9.848  2.0219  0.2813  3.6227
  972MOL0     H28243   3.668   2.034   9.951  0.8228  0.2911 -0.9366
  972MOL0     H28244   3.643   2.101   9.785 -1.0521  1.5815  0.1329
  972MOL0     H28245   3.517   2.286   9.879  0.5679 -0.7465 -2.7734
  972MOL0     H28246   3.573   2.239  10.041  3.0203 -0.3706 -1.4260
  972MOL0     H28247   3.396   2.083   9.849  1.2673  1.1748 -0.4113
  972MOL0     H28248   3.434   2.018  10.012 -1.6869  1.4392  2.0255
  972MOL0     H28249   3.297   2.293   9.980  0.1428  0.0558 -0.8061
  972MOL0     H28250   3.324   2.195  10.124  3.0468 -3.2254 -0.6216
  972MOL0     H28251   3.154   2.050  10.065  0.6408 -0.0428 -1.0642
  972MOL0     H28252   3.142   2.089   9.906  0.6052  0.2338  0.1573
  972MOL0     H28253   3.051   2.262  10.135 -2.7243 -3.2006  1.6136
  972MOL0     H28254   3.071   2.325   9.968  3.1461  0.1175  1.6168
  972MOL0     H28255   2.842   2.261  10.017  1.2865  1.6497 -0.2167
  972MOL0     H28256   2.890   2.096  10.056  2.0934  0.9690  1.4086
  972MOL0     H28257   2.845   2.348   9.761 -0.2072 -0.3037 -0.7854
  972MOL0     H28258   2.798   2.198   9.418 -2.3477 -1.3945 -0.7081
  972MOL0     H28259   2.790   2.343   9.521  1.9886 -0.6780  1.2111
  972MOL0     H28260   2.557   2.263   9.599 -0.2919  0.1738  0.3243
  972MOL0     H28261   2.586   2.130   9.482  1.0293  0.0345  1.0242
  972MOL0     H28262   2.597   2.407   9.369 -0.7002 -0.0594 -3.4025
  972MOL0     H28263   2.550   2.262   9.294 -0.6108 -0.0489  0.3025
  972MOL0     H28264   2.341   2.371   9.314  1.1527 -0.0526 -0.6540
  972MOL0     H28265   2.407   2.457   9.447  4.0730 -0.9053 -0.1201
  972MOL0     H28266   2.149   2.061   9.532 -0.9661 -0.8471  0.2325
  972MOL0     H28267   1.904   2.093   9.589 -0.5959  0.1869 -0.0634
  972MOL0     H28268   1.527   2.220   9.473  1.2562  0.5041  0.0732
  972MOL0     H28269   1.283   2.246   9.500 -2.1273 -0.0918  0.3063
  972MOL0     H28270   1.138   2.388   9.927 -1.8906  0.2291  1.1166
  972MOL0     H28271   1.088   2.220   9.913 -4.4266 -1.0081 -1.2390
  972MOL0     H28272   0.909   2.310   9.744  3.2947 -0.4544 -1.2595
  972MOL0     H28273   0.938   2.464   9.820 -3.4656  0.2278  2.3681
  972MOL0     H28274   0.900   2.390  10.038 -0.3485  2.4881 -1.3772
  972MOL0     H28275   0.856   2.228   9.966 -0.0202  0.4245  2.6060
  972MOL0     H28276   0.711   2.503   9.946  0.0765 -0.4269  2.6076
  972MOL0     H28277   0.688   2.379   9.830 -0.1865  0.1989 -0.0115
  972MOL0     H28278   0.692   2.314  10.126  0.6335  1.1937 -0.6091
  972MOL0     H28279   0.636   2.210  10.002  0.2588 -0.3693  0.6061
  972MOL0     H28280   0.437   2.304  10.123  1.8557 -0.5367  1.3814
  972MOL0     H28281   0.432   2.362   9.968 -2.1775  1.2154  1.6883
  972MOL0     H28282   0.598   2.543  10.150 -0.2028  1.8244 -0.7336
  972MOL0     H28283   0.507   2.578  10.006 -2.0522 -1.2255 -0.5753
  972MOL0     H28284   0.418   2.473  10.282  1.5846 -2.0948 -2.1023
  972MOL0     H28285   0.302   2.496  10.154  0.6929 -2.4247  0.1119
  972MOL0     H28286   1.335   2.305   9.923  0.3918  0.1653  0.3684
  972MOL0     H28287   1.590   2.299   9.887  1.1922 -3.6279  0.1042
  972MOL0     H28288   1.958   2.516   9.564  1.9652  1.2976  3.1134
  972MOL0     H28289   2.181   2.491   9.524 -1.4610  1.2560  0.2389
  972MOL0     H28290   4.050   2.227   9.793 -0.8024 -0.5583 -0.5516
  972MOL0     H28291   4.225   2.345   9.689  1.1230  0.5738  1.9587
  972MOL0     H28292   4.523   2.510   9.345 -1.5041  1.3714 -3.8097
  972MOL0     H28293   4.691   2.668   9.286  2.4007  0.4262  1.9304
  972MOL0     H28294   4.749   2.902   9.204  1.2393  0.1674 -0.6590
  972MOL0     H28295   4.858   2.810   9.291 -0.3476 -0.8401 -0.7598
  972MOL0     H28296   4.868   3.107   9.268 -0.0358 -0.6962 -0.0294
  972MOL0     H28297   4.972   3.001   9.375 -0.3972 -2.6148 -0.4014
  972MOL0     H28298   4.984   2.993   9.070 -1.2794 -2.6126  0.3458
  972MOL0     H28299   5.078   2.902   9.193  0.0809  0.7253  2.3479
  972MOL0     H28300   5.085   3.201   9.174 -1.2333 -0.5975  2.7373
  972MOL0     H28301   5.180   3.099   9.278  1.3973  0.0212 -0.4466
  972MOL0     H28302   5.403   3.057   8.916  2.7021  0.2414  1.1726
  972MOL0     H28303   4.523   2.963   9.536  0.7723 -0.8742 -0.0142
  972MOL0     H28304   4.329   2.801   9.577 -0.5302 -1.9721  0.0695
  973MOL0     O28305   2.516   1.362   1.985  0.3831 -0.1062  0.3437
  973MOL0     C28306   2.531   1.286   2.077  0.5776  0.1134  0.3680
  973MOL0     O28307   2.642   1.227   2.119 -0.0023 -0.0861  0.1027
  973MOL0     C28308   2.771   1.254   2.077 -0.2553  0.3742  0.3501
  973MOL0     C28309   2.872   1.187   2.136 -0.1752  0.0019 -0.1216
  973MOL0     C28310   3.003   1.189   2.094 -0.0664  0.0909  1.4359
  973MOL0     C28311   3.036   1.272   1.986 -0.2679  0.1288  0.1609
  973MOL0     O28312   3.156   1.261   1.922 -0.3993 -0.1108  0.0579
  973MOL0     C28313   3.175   1.310   1.781  0.0799 -0.2235 -0.4471
  973MOL0     C28314   3.313   1.282   1.730 -0.3932  0.6058 -0.6318
  973MOL0     C28315   3.339   1.128   1.733 -0.4913  0.3109  0.6837
  973MOL0     C28316   3.484   1.107   1.692 -0.3134  0.3277  0.0707
  973MOL0     C28317   3.546   0.966   1.709  0.4879  0.3860 -0.5550
  973MOL0     C28318   3.484   0.858   1.611  0.6690  0.7101  0.6698
  973MOL0     C28319   3.355   0.783   1.663 -0.2376 -0.4724 -0.3876
  973MOL0     C28320   3.295   0.685   1.568 -0.1475 -0.6818  0.7499
  973MOL0     N28321   3.202   0.600   1.629  0.0615 -0.2680 -0.3159
  973MOL0     C28322   3.089   0.642   1.682  0.5692  0.5899 -0.6838
  973MOL0     C28323   3.048   0.536   1.760 -0.3136 -1.0002  0.2085
  973MOL0     C28324   2.921   0.520   1.837  0.7490 -0.2968 -0.1229
  973MOL0     C28325   2.783   0.586   1.779  0.5006 -0.1532 -0.2683
  973MOL0     C28326   2.731   0.526   1.647  0.6354 -0.1459 -0.4922
  973MOL0     C28327   2.590   0.573   1.606 -0.2470  0.4076  0.0930
  973MOL0     O28328   2.487   0.490   1.670  0.6745  0.2112  0.2308
  973MOL0     C28329   2.359   0.527   1.639  0.1031 -0.5577  0.3740
  973MOL0     C28330   2.313   0.645   1.569 -0.0950 -0.1667 -0.4870
  973MOL0     C28331   2.181   0.681   1.576  0.0609 -0.7746  0.2902
  973MOL0     C28332   2.087   0.618   1.652 -0.9215 -0.0446 -0.1390
  973MOL0     C28333   1.945   0.652   1.655 -0.4235  0.0323 -0.2231
  973MOL0     O28334   1.865   0.578   1.738  0.8795 -0.2961  0.0248
  973MOL0     C28335   1.734   0.613   1.739  0.7201 -0.9524 -0.3030
  973MOL0     C28336   1.641   0.530   1.676 -0.6154  0.4762 -1.2272
  973MOL0     C28337   1.510   0.559   1.671 -0.8542  0.0624  0.5567
  973MOL0     C28338   1.464   0.671   1.726  0.9014  0.1408 -0.9512
  973MOL0     O28339   1.329   0.692   1.723 -0.6727 -0.4138  0.0559
  973MOL0     C28340   1.261   0.714   1.849  0.0504 -0.1361  0.2179
  973MOL0     C28341   1.113   0.743   1.816 -0.1894  0.3215 -0.3009
  973MOL0     C28342   1.025   0.776   1.937 -0.0464  0.0951 -0.0357
  973MOL0     C28343   1.000   0.657   2.033 -0.5204  0.1125 -0.0275
  973MOL0     C28344   0.894   0.561   1.985 -0.2008 -0.5185 -0.0671
  973MOL0     C28345   0.919   0.418   2.026  0.0823  0.2067  0.5304
  973MOL0     C28346   0.806   0.334   1.954 -0.8659 -0.5092  0.5877
  973MOL0     C28347   0.804   0.192   2.008  0.1866 -0.1630  1.3133
  973MOL0    Cl28348   0.923   0.075   1.929  0.1143 -0.3996  0.1714
  973MOL0     C28349   1.551   0.761   1.783  0.0086 -0.0827  0.5956
  973MOL0     C28350   1.680   0.730   1.808  0.5547 -0.0371  0.4354
  973MOL0     O28351   1.909   0.745   1.589 -0.5734 -0.2062 -0.3495
  973MOL0     C28352   2.130   0.505   1.727  0.3624  0.1304  0.3123
  973MOL0     C28353   2.260   0.468   1.723 -0.6878  0.0302  0.2077
  973MOL0     N28354   3.138   0.435   1.753 -0.0440 -1.2274 -0.6403
  973MOL0     N28355   3.240   0.475   1.679 -0.0150  0.2053  1.0775
  973MOL0     C28356   2.932   1.353   1.933 -0.4601 -0.0370  0.8872
  973MOL0     C28357   2.801   1.348   1.974  0.4505  0.2113 -0.3168
  973MOL0     C28358   2.409   1.259   2.155 -0.4723 -0.7607 -0.0489
  973MOL0     C28359   2.417   1.179   2.265  0.1331 -0.1659 -0.0638
  973MOL0     C28360   2.315   1.152   2.356  0.5107 -0.2115  0.0304
  973MOL0     C28361   2.191   1.216   2.332  0.4265  0.3981 -0.1893
  973MOL0     O28362   2.086   1.204   2.422 -0.0490 -0.8315 -0.0284
  973MOL0     C28363   2.084   1.097   2.515 -0.3059  0.2965  0.2056
  973MOL0     C28364   1.936   1.061   2.542 -0.2267  0.2535  0.0597
  973MOL0     C28365   1.920   0.919   2.610 -0.2360 -0.4793 -0.3424
  973MOL0     C28366   1.975   0.920   2.757 -0.1546  0.7852 -0.3007
  973MOL0     C28367   2.016   0.787   2.811 -0.3197  0.1528  0.0940
  973MOL0     C28368   2.073   0.687   2.842 -0.8473  0.4857  0.7172
  973MOL0     C28369   2.172   1.278   2.215 -0.4670 -0.9101  0.0572
  973MOL0     C28370   2.279   1.301   2.121  0.0851  0.1084  0.2637
  973MOL0     H28371   2.848   1.128   2.223 -0.6882  0.3072 -0.0547
  973MOL0     H28372   3.082   1.136   2.147  0.3406 -0.0750  0.6693
  973MOL0     H28373   3.154   1.417   1.788  0.4307 -0.2363  1.3467
  973MOL0     H28374   3.106   1.266   1.707 -0.4007 -0.3370  0.0573
  973MOL0     H28375   3.377   1.331   1.804 -2.4282  2.6510 -0.0966
  973MOL0     H28376   3.331   1.334   1.636 -0.8425 -0.2498 -1.1976
  973MOL0     H28377   3.278   1.079   1.657  2.0881  1.9343 -2.7193
  973MOL0     H28378   3.308   1.082   1.827 -0.8629  0.8178  0.8159
  973MOL0     H28379   3.493   1.136   1.587 -1.5509 -2.0171 -0.7434
  973MOL0     H28380   3.543   1.178   1.751  0.1370 -0.2342  0.3052
  973MOL0     H28381   3.527   0.945   1.815  1.0803 -0.1956 -0.5549
  973MOL0     H28382   3.654   0.967   1.697  0.7384  2.6848  1.1694
  973MOL0     H28383   3.560   0.781   1.604 -0.7877 -0.7540  0.4145
  973MOL0     H28384   3.459   0.905   1.515 -5.5225 -0.5921  1.2188
  973MOL0     H28385   3.386   0.734   1.755 -1.3652 -0.4106  0.0311
  973MOL0     H28386   3.271   0.850   1.681 -0.8857 -1.2774 -0.3769
  973MOL0     H28387   3.366   0.620   1.516  0.0543  0.4617 -0.4584
  973MOL0     H28388   3.247   0.746   1.491 -1.4229 -0.6163  1.5641
  973MOL0     H28389   3.052   0.741   1.659  1.5957  1.2321  0.3219
  973MOL0     H28390   2.944   0.574   1.930 -0.3406 -0.8804  0.5053
  973MOL0     H28391   2.904   0.419   1.877  2.3841 -0.1465  1.1041
  973MOL0     H28392   2.797   0.694   1.768  1.1869 -0.1104  0.8838
  973MOL0     H28393   2.703   0.577   1.853  0.5229 -1.7551 -0.3999
  973MOL0     H28394   2.793   0.549   1.560 -0.8792  1.7560 -1.1516
  973MOL0     H28395   2.735   0.419   1.669  0.1839  0.4793  3.4016
  973MOL0     H28396   2.574   0.566   1.498  0.0200  4.3148 -0.3370
  973MOL0     H28397   2.572   0.678   1.632 -0.9128  0.4195 -0.4054
  973MOL0     H28398   2.384   0.709   1.517 -0.3986 -0.1702 -0.9151
  973MOL0     H28399   2.145   0.764   1.515  0.6416 -0.5809  0.2035
  973MOL0     H28400   1.687   0.441   1.635  0.4668  0.9441 -1.0686
  973MOL0     H28401   1.438   0.500   1.615  1.4686 -0.9812 -1.4974
  973MOL0     H28402   1.311   0.802   1.891  0.9186 -0.9895  1.0364
  973MOL0     H28403   1.287   0.639   1.925  1.5479 -0.8452 -0.9313
  973MOL0     H28404   1.084   0.649   1.769  1.6887 -0.7490  0.5682
  973MOL0     H28405   1.105   0.825   1.744 -0.9002  2.4456  2.0564
  973MOL0     H28406   0.929   0.819   1.908 -0.1309 -0.6706 -0.9456
  973MOL0     H28407   1.065   0.866   1.986  0.3656 -1.1057  1.9653
  973MOL0     H28408   1.095   0.609   2.057 -0.4312 -0.0521 -0.6833
  973MOL0     H28409   0.964   0.704   2.125 -1.7476 -1.1632  0.1809
  973MOL0     H28410   0.901   0.558   1.876  4.2947 -1.4859  0.0422
  973MOL0     H28411   0.798   0.582   2.031  1.2576  1.1759  2.4415
  973MOL0     H28412   0.918   0.417   2.136  3.0494  2.5896  0.7051
  973MOL0     H28413   1.020   0.388   1.998 -0.5207 -0.0894 -1.4189
  973MOL0     H28414   0.709   0.381   1.973 -0.2905  0.6589  0.7267
  973MOL0     H28415   0.833   0.335   1.848  3.0039  1.6357  1.3932
  973MOL0     H28416   0.704   0.149   1.995 -0.3687  0.7919  2.3132
  973MOL0     H28417   0.821   0.200   2.116  1.0671 -1.0806  1.2633
  973MOL0     H28418   1.516   0.855   1.825 -1.1548 -0.8460  1.3813
  973MOL0     H28419   1.744   0.808   1.849  2.3146 -1.9875  1.6420
  973MOL0     H28420   2.056   0.448   1.784  0.8663 -0.4122  0.4373
  973MOL0     H28421   2.290   0.383   1.784  2.2324 -2.6150 -4.2820
  973MOL0     H28422   2.952   1.421   1.850 -1.9087  0.4785  0.9214
  973MOL0     H28423   2.735   1.414   1.920 -1.3086 -1.4889 -0.3675
  973MOL0     H28424   2.512   1.132   2.286  1.0021  0.7549 -1.6978
  973MOL0     H28425   2.340   1.101   2.449  1.1647  0.7608  0.4024
  973MOL0     H28426   2.139   1.113   2.608 -1.5637  1.5790  0.7591
  973MOL0     H28427   2.132   1.009   2.471 -0.0481  1.0648 -1.1245
  973MOL0     H28428   1.884   1.137   2.601  1.4485  0.7908  0.8911
  973MOL0     H28429   1.895   1.048   2.441  2.4975  0.0918 -1.1074
  973MOL0     H28430   1.976   0.844   2.553 -2.9009 -2.4977 -0.5732
  973MOL0     H28431   1.814   0.890   2.603 -0.0492 -1.1171 -0.5868
  973MOL0     H28432   2.050   0.999   2.766  1.0070  0.4627 -4.7695
  973MOL0     H28433   1.894   0.958   2.820 -1.4856 -1.3099 -0.6322
  973MOL0     H28434   2.102   0.588   2.871 -1.5977  0.4532  1.4125
  973MOL0     H28435   2.075   1.323   2.196 -1.2080 -1.2178  2.7388
  973MOL0     H28436   2.262   1.348   2.025  0.5634  0.3691  0.3066
  974MOL0     O28437   6.952   2.751   5.118 -0.4666  0.0854 -0.8281
  974MOL0     C28438   6.974   2.631   5.119 -0.8956  0.1278  1.0051
  974MOL0     O28439   6.886   2.530   5.150  0.7045  0.4610 -0.1019
  974MOL0     C28440   6.763   2.573   5.192 -0.5791  0.4737 -0.4369
  974MOL0     C28441   6.650   2.513   5.143  0.3744  0.0817 -0.6049
  974MOL0     C28442   6.522   2.555   5.160 -0.0656  0.4418 -0.0620
  974MOL0     C28443   6.494   2.662   5.250 -1.1853  0.2980 -0.1558
  974MOL0     O28444   6.370   2.721   5.279 -0.2630  0.7240  0.1721
  974MOL0     C28445   6.261   2.682   5.205 -0.4528  0.4751 -0.1616
  974MOL0     C28446   6.123   2.737   5.253 -0.0039  0.6588 -0.8653
  974MOL0     C28447   6.010   2.707   5.154 -0.2475  0.0207  0.0534
  974MOL0     C28448   5.874   2.725   5.214 -0.7757  0.0736  0.6053
  974MOL0     C28449   5.844   2.870   5.247 -0.5095  0.5334  0.6146
  974MOL0     C28450   5.734   2.865   5.358  0.3883 -0.2330  0.3090
  974MOL0     C28451   5.678   3.007   5.391 -1.4357  1.6053 -1.2726
  974MOL0     C28452   5.631   3.079   5.260 -0.1426 -0.2715 -0.2237
  974MOL0     N28453   5.554   3.204   5.297  0.7045 -0.8472  0.5025
  974MOL0     C28454   5.583   3.334   5.262 -0.9382 -0.4335 -0.1598
  974MOL0     C28455   5.487   3.409   5.317  0.6933 -0.4401  0.2079
  974MOL0     C28456   5.478   3.557   5.314 -0.1311 -0.3727 -0.2677
  974MOL0     C28457   5.597   3.623   5.383 -0.1797 -1.0265  0.0193
  974MOL0     C28458   5.625   3.572   5.532  0.1782 -0.6477 -0.5205
  974MOL0     C28459   5.509   3.596   5.624  0.7220 -0.5472 -0.5836
  974MOL0     O28460   5.472   3.733   5.622 -0.3194 -0.7566  0.9644
  974MOL0     C28461   5.339   3.757   5.606 -1.0052 -1.2208  0.2665
  974MOL0     C28462   5.328   3.886   5.554 -0.0008  0.2981  0.4193
  974MOL0     C28463   5.205   3.949   5.533  0.8464 -0.0488 -0.8802
  974MOL0     C28464   5.086   3.870   5.567 -0.3476  0.4346 -0.0263
  974MOL0     C28465   4.940   3.922   5.545 -0.8971 -0.2611  0.2808
  974MOL0     O28466   4.833   3.838   5.586  0.6960 -0.4674 -0.5085
  974MOL0     C28467   4.705   3.887   5.611  0.6919 -0.4464  0.1001
  974MOL0     C28468   4.673   4.013   5.657  0.1749 -0.4180  0.5684
  974MOL0     C28469   4.547   4.048   5.687 -0.4177 -0.8604 -0.0502
  974MOL0     C28470   4.446   3.957   5.675  0.3382 -0.0490  0.2766
  974MOL0     O28471   4.326   4.014   5.701 -0.5310 -0.4544  0.2310
  974MOL0     C28472   4.207   3.925   5.696  0.2155 -0.4688  0.2563
  974MOL0     C28473   4.083   3.998   5.754  0.5723 -0.2137 -0.0628
  974MOL0     C28474   3.957   3.910   5.752 -0.9318 -0.2773 -0.1536
  974MOL0     C28475   3.832   3.991   5.772  0.0754  0.3094  0.1846
  974MOL0     C28476   3.704   3.911   5.731 -0.1631  0.8403  0.2234
  974MOL0     C28477   3.680   3.798   5.838 -0.3152  0.2338  0.1495
  974MOL0     C28478   3.530   3.764   5.852 -0.0823 -0.0872  0.3356
  974MOL0     C28479   3.496   3.644   5.759  0.4829  0.3487 -0.8820
  974MOL0    Cl28480   3.522   3.692   5.598 -0.3099  0.8721  0.3382
  974MOL0     C28481   4.474   3.833   5.622 -0.2065  0.7081  0.4152
  974MOL0     C28482   4.602   3.797   5.598 -0.4244 -0.7066  0.3230
  974MOL0     O28483   4.923   4.038   5.497  0.1205 -0.5693  0.0446
  974MOL0     C28484   5.103   3.742   5.613  0.8373  0.7043 -0.2092
  974MOL0     C28485   5.227   3.686   5.639  0.5258 -0.1673  0.1731
  974MOL0     N28486   5.406   3.327   5.396  0.3162  0.0881 -0.1259
  974MOL0     N28487   5.449   3.211   5.387 -0.1748 -0.3933 -1.1423
  974MOL0     C28488   6.603   2.724   5.309  0.8699 -0.4618  0.2065
  974MOL0     C28489   6.735   2.673   5.285  0.0869 -0.2054  0.9306
  974MOL0     C28490   7.107   2.590   5.064 -0.1785  1.3680  0.1455
  974MOL0     C28491   7.201   2.691   5.027 -0.2798  0.4878  0.4705
  974MOL0     C28492   7.330   2.648   4.990  0.5452  0.7071 -0.9341
  974MOL0     C28493   7.372   2.513   4.979  0.0554  0.1509 -0.3183
  974MOL0     O28494   7.502   2.463   4.957  0.2478 -0.5124  0.2552
  974MOL0     C28495   7.606   2.541   5.014 -0.3402 -0.2983 -0.1081
  974MOL0     C28496   7.670   2.620   4.908 -0.7573 -0.3353 -0.1323
  974MOL0     C28497   7.808   2.673   4.965  0.1172  0.3577  0.2988
  974MOL0     C28498   7.868   2.757   4.859 -0.3229  0.3387  0.3579
  974MOL0     C28499   7.980   2.832   4.912  0.0494 -1.1403  0.6742
  974MOL0     C28500   8.066   2.894   4.965  0.4694 -0.9974  0.3103
  974MOL0     C28501   7.272   2.420   5.004  0.6366  0.0057 -0.1244
  974MOL0     C28502   7.149   2.457   5.059 -0.1800  0.7038 -0.6913
  974MOL0     H28503   6.658   2.413   5.100 -0.2701 -0.0716 -0.3865
  974MOL0     H28504   6.440   2.502   5.114 -0.1952 -1.2138  1.9289
  974MOL0     H28505   6.246   2.574   5.206 -1.1099  0.5586  0.0322
  974MOL0     H28506   6.267   2.725   5.105  1.7413  0.6145 -0.0138
  974MOL0     H28507   6.133   2.844   5.275 -1.1752  1.0187 -1.9502
  974MOL0     H28508   6.086   2.691   5.345  0.3482  1.4956 -0.2965
  974MOL0     H28509   6.020   2.602   5.124  2.1569  0.6595 -1.7325
  974MOL0     H28510   6.026   2.760   5.060  1.7574 -2.0091 -0.8531
  974MOL0     H28511   5.794   2.697   5.144  0.0517  1.1578 -0.8145
  974MOL0     H28512   5.869   2.655   5.298  0.1484 -0.0295  0.5770
  974MOL0     H28513   5.832   2.935   5.160  1.3183  1.0829  0.7293
  974MOL0     H28514   5.926   2.916   5.303  1.8079  0.8228 -2.6554
  974MOL0     H28515   5.783   2.821   5.446 -0.4528  1.6788  1.8322
  974MOL0     H28516   5.650   2.801   5.332  1.0275 -1.1328  0.4239
  974MOL0     H28517   5.600   2.995   5.467 -0.2072  0.3668 -0.1565
  974MOL0     H28518   5.753   3.071   5.440 -2.1570 -0.0142  2.2449
  974MOL0     H28519   5.564   3.017   5.201 -1.4249  0.6825  0.1824
  974MOL0     H28520   5.716   3.107   5.197 -1.4164 -0.8484 -2.2846
  974MOL0     H28521   5.665   3.366   5.198 -1.3153  1.4349  0.2321
  974MOL0     H28522   5.382   3.594   5.352 -1.6768 -2.5522 -1.8820
  974MOL0     H28523   5.471   3.582   5.208  1.3406  3.9014  0.4089
  974MOL0     H28524   5.606   3.731   5.369 -0.3161 -0.7791  1.6368
  974MOL0     H28525   5.682   3.582   5.327  0.0833 -0.5392  0.0483
  974MOL0     H28526   5.653   3.467   5.521  1.3013 -0.1260 -3.7835
  974MOL0     H28527   5.709   3.631   5.570 -0.8468  1.3928 -1.2867
  974MOL0     H28528   5.535   3.563   5.725  0.4344 -2.2640 -1.0396
  974MOL0     H28529   5.433   3.521   5.600  1.8018 -2.1394  0.7447
  974MOL0     H28530   5.419   3.931   5.515  1.1325 -2.5122 -0.3927
  974MOL0     H28531   5.198   4.050   5.495  0.0010  0.8406  1.4865
  974MOL0     H28532   4.744   4.095   5.663 -0.6040  0.3090 -0.0025
  974MOL0     H28533   4.516   4.143   5.729  0.1535 -1.7793  2.6373
  974MOL0     H28534   4.233   3.834   5.751  0.1986  0.9376  2.7450
  974MOL0     H28535   4.183   3.907   5.591 -0.8819 -0.4405  0.4826
  974MOL0     H28536   4.070   4.083   5.687 -1.7806  0.8043  1.5328
  974MOL0     H28537   4.098   4.026   5.858 -1.0382 -0.7590  0.3466
  974MOL0     H28538   3.975   3.836   5.830  2.2666  0.6284  0.1134
  974MOL0     H28539   3.954   3.863   5.654  1.2939  2.1971 -1.5517
  974MOL0     H28540   3.831   4.026   5.876  1.2143 -1.7593  0.9574
  974MOL0     H28541   3.841   4.080   5.709  3.5430 -1.3778 -1.9954
  974MOL0     H28542   3.719   3.859   5.636  2.0363  0.0780  0.9292
  974MOL0     H28543   3.618   3.978   5.724 -0.4530  0.4416 -0.0968
  974MOL0     H28544   3.707   3.845   5.933  0.4590  2.2074 -0.9704
  974MOL0     H28545   3.748   3.715   5.820 -0.9245 -0.0786 -0.7990
  974MOL0     H28546   3.513   3.735   5.956  1.5013 -1.8022  0.1660
  974MOL0     H28547   3.464   3.847   5.826 -1.4661 -1.6225 -1.3166
  974MOL0     H28548   3.392   3.620   5.783  0.1475  0.8084 -1.8170
  974MOL0     H28549   3.549   3.551   5.780 -0.8757 -0.4990 -1.1137
  974MOL0     H28550   4.399   3.761   5.591 -0.0398  0.4886  0.5199
  974MOL0     H28551   4.637   3.698   5.568 -2.2803 -0.6022 -2.5255
  974MOL0     H28552   5.015   3.681   5.631  1.8148 -0.6408  0.2288
  974MOL0     H28553   5.247   3.587   5.678  2.4744  0.2250  0.2967
  974MOL0     H28554   6.585   2.809   5.373 -0.2488 -0.8991  0.4899
  974MOL0     H28555   6.816   2.728   5.331  0.9956 -1.2892  0.6604
  974MOL0     H28556   7.185   2.798   5.028  3.3321  1.1525 -0.7814
  974MOL0     H28557   7.402   2.726   4.966  2.1618 -0.4879 -0.1581
  974MOL0     H28558   7.689   2.484   5.057  0.0006  0.3323  0.0752
  974MOL0     H28559   7.580   2.607   5.097 -1.2096  1.6736 -1.8531
  974MOL0     H28560   7.685   2.562   4.817 -2.4782 -0.5588 -0.3033
  974MOL0     H28561   7.610   2.706   4.878  1.6417  1.4257 -0.1966
  974MOL0     H28562   7.879   2.590   4.976 -1.1804 -1.0149 -1.1913
  974MOL0     H28563   7.791   2.730   5.056  0.3268 -0.1563  0.6602
  974MOL0     H28564   7.900   2.699   4.772 -1.4450  0.9320 -0.4861
  974MOL0     H28565   7.799   2.834   4.823  0.3741  0.5686 -0.5264
  974MOL0     H28566   8.150   2.939   5.014  0.3388 -0.1461 -0.2287
  974MOL0     H28567   7.300   2.316   4.992 -1.9222 -0.7491 -0.0403
  974MOL0     H28568   7.083   2.377   5.093  2.4375 -1.1947  0.2035
  975MOL0     O28569   4.562   5.177   8.461 -0.4008  0.5268  0.3094
  975MOL0     C28570   4.498   5.145   8.357 -0.2273  0.3871  0.2291
  975MOL0     O28571   4.544   5.067   8.255  0.5151 -0.2383 -0.0641
  975MOL0     C28572   4.673   5.012   8.244  0.8474  0.1137 -0.3891
  975MOL0     C28573   4.696   4.959   8.119  0.9296  0.4596 -0.2247
  975MOL0     C28574   4.822   4.897   8.086  0.3772 -0.9110  0.2772
  975MOL0     C28575   4.926   4.899   8.175 -0.1478 -0.3276  0.2962
  975MOL0     O28576   5.039   4.823   8.150 -0.0296  0.5365  0.0816
  975MOL0     C28577   5.178   4.878   8.173  0.2458  0.0988  0.5004
  975MOL0     C28578   5.279   4.777   8.113  0.2743  0.1572  0.3244
  975MOL0     C28579   5.425   4.823   8.113 -0.3943  0.2018  0.4118
  975MOL0     C28580   5.521   4.724   8.041  0.2380 -0.2682 -0.2303
  975MOL0     C28581   5.664   4.780   8.054 -0.4786  0.4066  0.5033
  975MOL0     C28582   5.758   4.688   7.976  0.5016 -0.2700  0.7588
  975MOL0     C28583   5.903   4.739   8.000  0.1317  0.1671  1.2154
  975MOL0     C28584   6.006   4.672   7.904  0.1227 -0.0267  0.0847
  975MOL0     N28585   5.994   4.707   7.762 -0.5852  1.2299  1.0033
  975MOL0     C28586   6.033   4.821   7.705  0.1168  0.5182 -0.2075
  975MOL0     C28587   6.014   4.807   7.571 -0.3738 -0.4359  0.0572
  975MOL0     C28588   6.020   4.922   7.480  0.1596 -0.1244  0.1759
  975MOL0     C28589   5.895   5.009   7.470  0.5888  0.1930  0.1546
  975MOL0     C28590   5.932   5.110   7.359 -0.2079 -0.2259  0.5081
  975MOL0     C28591   5.808   5.176   7.295  0.3407 -0.4458 -0.3361
  975MOL0     O28592   5.714   5.214   7.402  0.1884 -0.0507  0.4233
  975MOL0     C28593   5.581   5.260   7.372 -0.4023  0.3330  0.1481
  975MOL0     C28594   5.546   5.279   7.236 -0.3424 -0.6271 -0.1606
  975MOL0     C28595   5.411   5.307   7.205 -0.4679  0.3128  0.3623
  975MOL0     C28596   5.307   5.303   7.302 -0.4091 -0.8080 -0.0036
  975MOL0     C28597   5.167   5.342   7.270  0.2891 -0.0916  0.8392
  975MOL0     O28598   5.140   5.381   7.139 -0.6774  0.0921  0.4443
  975MOL0     C28599   5.006   5.392   7.119 -0.5179 -0.1506  0.6408
  975MOL0     C28600   4.947   5.518   7.128 -0.9235 -0.8130  0.1169
  975MOL0     C28601   4.807   5.530   7.110  0.3046 -0.5242  0.2272
  975MOL0     C28602   4.728   5.412   7.088 -0.0019 -0.0021 -0.4957
  975MOL0     O28603   4.590   5.418   7.105  0.7840  0.2536 -0.3873
  975MOL0     C28604   4.507   5.320   7.043 -0.2951 -0.2433  0.3083
  975MOL0     C28605   4.365   5.383   7.035  0.0561 -0.0596  0.6810
  975MOL0     C28606   4.279   5.277   6.969 -0.2258 -0.2918 -0.2175
  975MOL0     C28607   4.127   5.294   7.007 -0.0067  0.4217  0.2256
  975MOL0     C28608   4.057   5.175   6.947 -0.0074 -0.1867  0.0659
  975MOL0     C28609   3.918   5.154   7.020  0.6062  0.2720  0.3083
  975MOL0     C28610   3.816   5.267   7.002  0.4118 -0.1277 -0.1648
  975MOL0     C28611   3.673   5.207   6.988 -0.4200 -0.7668 -0.7068
  975MOL0    Cl28612   3.636   5.112   7.134  0.4900 -0.1349 -0.0032
  975MOL0     C28613   4.797   5.296   7.068  0.2958 -0.4728 -0.3130
  975MOL0     C28614   4.930   5.280   7.076 -0.6665 -0.1364 -0.2595
  975MOL0     O28615   5.084   5.301   7.354 -0.6166 -1.2994  0.5281
  975MOL0     C28616   5.346   5.284   7.430 -0.0233 -0.0685 -0.1002
  975MOL0     C28617   5.477   5.262   7.467 -1.4525  0.5941 -0.5855
  975MOL0     N28618   5.984   4.675   7.551 -0.1897  0.3207 -0.1732
  975MOL0     N28619   5.968   4.617   7.665  0.2246 -0.1091 -0.0614
  975MOL0     C28620   4.900   4.957   8.300 -0.0685 -0.5796  0.2172
  975MOL0     C28621   4.779   5.020   8.336 -0.4740  0.0134 -0.2663
  975MOL0     C28622   4.370   5.202   8.340 -1.0916  0.5242 -0.2340
  975MOL0     C28623   4.306   5.178   8.211 -0.0001 -0.1379 -0.8490
  975MOL0     C28624   4.193   5.256   8.193 -0.3903  0.4550 -0.5733
  975MOL0     C28625   4.136   5.344   8.282 -0.5793 -0.1130 -1.0709
  975MOL0     O28626   4.025   5.417   8.254  0.1737 -0.1559  0.1603
  975MOL0     C28627   3.904   5.343   8.242  1.0000  0.3772  0.6640
  975MOL0     C28628   3.830   5.353   8.110  0.4288 -0.6080 -0.3754
  975MOL0     C28629   3.759   5.494   8.091  0.7736  0.2328  0.0563
  975MOL0     C28630   3.699   5.521   7.951 -0.5111  0.1405 -0.3548
  975MOL0     C28631   3.564   5.478   7.940 -0.5628 -0.1077  0.1974
  975MOL0     C28632   3.453   5.434   7.918 -0.6713  0.0319  0.2947
  975MOL0     C28633   4.203   5.361   8.404 -0.8454  0.0842  0.5653
  975MOL0     C28634   4.315   5.287   8.434  0.1883 -0.6155 -0.6025
  975MOL0     H28635   4.616   4.961   8.045  0.0892 -1.5423  0.5513
  975MOL0     H28636   4.850   4.855   7.991  4.7052 -1.5650  1.6245
  975MOL0     H28637   5.217   4.889   8.275  2.4598  3.3057 -0.5142
  975MOL0     H28638   5.195   4.981   8.141  1.9851  0.5873  2.6882
  975MOL0     H28639   5.241   4.751   8.013  1.6645 -0.1418 -0.1512
  975MOL0     H28640   5.280   4.685   8.172  0.9140  0.3164  0.5638
  975MOL0     H28641   5.456   4.842   8.216  0.9474 -1.0805  0.2773
  975MOL0     H28642   5.430   4.919   8.061 -0.0106 -0.1089 -0.1455
  975MOL0     H28643   5.512   4.621   8.075  1.5606  0.1089  1.3751
  975MOL0     H28644   5.492   4.723   7.936 -1.3087  1.8934  0.0975
  975MOL0     H28645   5.696   4.785   8.158  0.1487 -0.2849  0.3496
  975MOL0     H28646   5.669   4.879   8.007 -2.1715 -0.1716 -1.0396
  975MOL0     H28647   5.718   4.692   7.875 -2.1354 -2.4594  1.6166
  975MOL0     H28648   5.744   4.585   8.011 -2.8761 -0.0456  0.4011
  975MOL0     H28649   5.905   4.845   7.972  0.7528 -0.7582 -3.0330
  975MOL0     H28650   5.927   4.732   8.106  0.6791 -0.4162  1.0625
  975MOL0     H28651   5.995   4.565   7.925 -1.8760  0.2097  0.4660
  975MOL0     H28652   6.107   4.698   7.936  0.7502 -1.6039 -0.5348
  975MOL0     H28653   6.068   4.912   7.754 -0.3764  0.2015  0.7710
  975MOL0     H28654   6.062   4.892   7.384 -1.5692 -0.3773 -0.5402
  975MOL0     H28655   6.088   4.997   7.521 -0.3590  1.6589 -2.0234
  975MOL0     H28656   5.864   5.050   7.566 -3.6452  1.5325 -1.5381
  975MOL0     H28657   5.808   4.946   7.453 -1.2402  2.3019  1.2080
  975MOL0     H28658   5.996   5.190   7.397 -1.3186 -0.1450  2.3252
  975MOL0     H28659   5.973   5.056   7.273 -3.4150 -0.9765 -0.6720
  975MOL0     H28660   5.768   5.106   7.222  1.1015 -0.1869 -1.0136
  975MOL0     H28661   5.836   5.261   7.232  1.1518 -1.5153 -1.4656
  975MOL0     H28662   5.612   5.282   7.151  0.5248 -0.3526  0.5054
  975MOL0     H28663   5.379   5.324   7.103 -0.1367  2.7724  0.6237
  975MOL0     H28664   5.010   5.604   7.149 -0.7510 -1.7343  4.2495
  975MOL0     H28665   4.751   5.623   7.115 -0.5727 -0.9057 -1.6192
  975MOL0     H28666   4.514   5.224   7.095  1.1615 -0.9667 -1.1307
  975MOL0     H28667   4.542   5.317   6.939 -0.6098  2.9294  0.0114
  975MOL0     H28668   4.359   5.479   6.984  3.4335  0.8419  1.7190
  975MOL0     H28669   4.327   5.398   7.136 -1.4307 -1.6937  0.4119
  975MOL0     H28670   4.309   5.179   7.008 -0.2388 -0.1807  0.0784
  975MOL0     H28671   4.278   5.286   6.860  2.1256  2.5082 -0.1502
  975MOL0     H28672   4.108   5.292   7.115 -6.5240  1.6451 -0.5203
  975MOL0     H28673   4.086   5.388   6.970  0.8798 -0.0013 -1.9872
  975MOL0     H28674   4.116   5.084   6.948  1.1319  0.4405 -2.1522
  975MOL0     H28675   4.040   5.184   6.839  2.9242 -0.4336 -0.4776
  975MOL0     H28676   3.920   5.132   7.127  0.3885  3.2329  1.0062
  975MOL0     H28677   3.878   5.063   6.974 -0.4705 -0.0312  1.7721
  975MOL0     H28678   3.819   5.343   7.081  0.1150 -0.2200 -0.0648
  975MOL0     H28679   3.841   5.312   6.906  0.0335  1.2492  0.3623
  975MOL0     H28680   3.668   5.137   6.904 -0.2564  1.1311 -2.3480
  975MOL0     H28681   3.602   5.289   6.973 -1.4619 -1.2552  1.1452
  975MOL0     H28682   4.741   5.205   7.052 -0.3625 -0.0789 -0.2540
  975MOL0     H28683   4.995   5.193   7.077  0.5154  0.7119 -0.6770
  975MOL0     H28684   5.279   5.294   7.515  0.8739 -0.1881  0.6374
  975MOL0     H28685   5.508   5.235   7.567  0.4702 -2.7903 -1.9583
  975MOL0     H28686   4.976   4.962   8.378 -0.5081  0.4266  0.6015
  975MOL0     H28687   4.752   5.059   8.433 -2.2382 -2.0408  0.1431
  975MOL0     H28688   4.343   5.107   8.138  0.7009 -1.9753  1.1675
  975MOL0     H28689   4.150   5.248   8.094  1.1311  0.5242 -1.2756
  975MOL0     H28690   3.829   5.380   8.312 -0.6772 -2.3856  0.4931
  975MOL0     H28691   3.922   5.238   8.266  0.2603  0.4237  1.4271
  975MOL0     H28692   3.912   5.347   8.037  1.2061 -1.6722  0.5427
  975MOL0     H28693   3.754   5.277   8.088 -0.1960  0.4462 -2.0689
  975MOL0     H28694   3.826   5.577   8.112 -0.2906  0.7950  1.3466
  975MOL0     H28695   3.677   5.491   8.163  0.3611  2.0322 -0.3068
  975MOL0     H28696   3.697   5.629   7.931 -2.0292  0.0784 -0.6919
  975MOL0     H28697   3.759   5.464   7.880  1.5787  0.0242  1.4051
  975MOL0     H28698   3.355   5.394   7.897 -1.4696  1.5536  0.9501
  975MOL0     H28699   4.179   5.431   8.483  0.4964  1.6079 -0.3322
  975MOL0     H28700   4.369   5.300   8.528  0.6196  0.0977 -0.9413
  976MOL0     O28701   7.852   9.738   6.834 -0.1183  0.4627  0.6924
  976MOL0     C28702   7.865   9.857   6.873  0.1443  0.0560  0.0656
  976MOL0     O28703   7.762   9.934   6.930 -0.0154 -0.6396  0.6813
  976MOL0     C28704   7.644   9.861   6.943 -0.2044  0.3929  1.1530
  976MOL0     C28705   7.573   9.821   6.830 -1.0987  0.3828 -0.1992
  976MOL0     C28706   7.465   9.729   6.845  0.0897 -0.1699 -0.3791
  976MOL0     C28707   7.427   9.689   6.975  0.3024 -0.2330  0.1356
  976MOL0     O28708   7.331   9.588   6.982  0.1033 -0.3577  0.4270
  976MOL0     C28709   7.256   9.582   7.100 -0.1150  0.4724  0.0821
  976MOL0     C28710   7.187   9.447   7.123  0.5109  0.4179 -0.3928
  976MOL0     C28711   7.098   9.406   7.008 -0.6319 -0.2432  0.0339
  976MOL0     C28712   7.006   9.292   7.061  0.5099  0.0665  0.7398
  976MOL0     C28713   6.892   9.263   6.961  0.4116 -0.8039  0.9776
  976MOL0     C28714   6.832   9.116   6.966  0.5467 -0.0199 -0.1055
  976MOL0     C28715   6.699   9.108   6.894  0.3505  0.0680  0.2514
  976MOL0     C28716   6.635   8.971   6.903  0.7096 -0.0644 -0.2170
  976MOL0     N28717   6.516   8.948   6.822 -0.4193 -0.1593 -0.3058
  976MOL0     C28718   6.506   9.000   6.692 -0.0095 -0.1530 -0.3601
  976MOL0     C28719   6.371   8.990   6.676  0.8682  0.9278 -0.2463
  976MOL0     C28720   6.306   9.025   6.551  0.0748 -0.2334 -0.3178
  976MOL0     C28721   6.155   9.048   6.566  0.3788  0.4652 -1.2874
  976MOL0     C28722   6.094   9.112   6.448  0.4953 -0.4561 -0.0147
  976MOL0     C28723   5.946   9.114   6.449 -0.8161  0.1127 -0.2179
  976MOL0     O28724   5.896   9.188   6.333 -0.0411 -0.2715 -0.1967
  976MOL0     C28725   5.758   9.220   6.321 -0.2494 -0.2131  0.2923
  976MOL0     C28726   5.730   9.332   6.243 -0.0157 -0.1630  0.0005
  976MOL0     C28727   5.603   9.390   6.237  0.6391 -0.1731 -0.0662
  976MOL0     C28728   5.498   9.320   6.285  0.8172 -0.1557 -0.4422
  976MOL0     C28729   5.363   9.371   6.268  0.4872 -0.7693  0.5438
  976MOL0     O28730   5.256   9.300   6.317 -0.8929 -0.1444  0.4756
  976MOL0     C28731   5.131   9.362   6.312 -0.0093  0.0876 -0.3717
  976MOL0     C28732   5.068   9.417   6.204 -0.6280  0.5700 -0.6672
  976MOL0     C28733   4.933   9.459   6.226  0.0958  0.7883  0.2258
  976MOL0     C28734   4.860   9.429   6.344  0.3587  0.1059  0.2990
  976MOL0     O28735   4.723   9.471   6.357  0.4559 -0.2037  0.4074
  976MOL0     C28736   4.657   9.448   6.484  0.3469 -0.7464  0.3083
  976MOL0     C28737   4.519   9.518   6.503  0.3713 -0.2434 -0.7753
  976MOL0     C28738   4.441   9.478   6.634 -0.3134  0.6012 -0.7643
  976MOL0     C28739   4.294   9.505   6.621  0.2733  0.5217  0.2325
  976MOL0     C28740   4.210   9.467   6.738  0.7341 -0.3379 -0.2512
  976MOL0     C28741   4.152   9.334   6.715 -0.2653 -0.9739 -0.0596
  976MOL0     C28742   4.056   9.286   6.829 -0.3057 -0.4556 -0.3245
  976MOL0     C28743   4.021   9.133   6.829 -0.0460 -1.0435 -0.7387
  976MOL0    Cl28744   4.162   9.036   6.842 -0.2431 -0.4185 -0.4193
  976MOL0     C28745   4.928   9.357   6.442  0.2933 -0.4528  0.2355
  976MOL0     C28746   5.062   9.331   6.430 -0.4013 -0.0705 -0.4813
  976MOL0     O28747   5.356   9.484   6.213 -0.2076  0.4163 -0.2369
  976MOL0     C28748   5.517   9.204   6.369 -0.6963  0.2493  0.8720
  976MOL0     C28749   5.655   9.153   6.389  0.2228 -0.3608 -0.0109
  976MOL0     N28750   6.313   8.945   6.795 -0.3097  0.7565  0.4913
  976MOL0     N28751   6.402   8.933   6.886  0.4589  0.0546  0.1851
  976MOL0     C28752   7.486   9.752   7.087  0.4046 -0.1304 -0.3728
  976MOL0     C28753   7.596   9.837   7.071  0.2185  0.8608 -0.1130
  976MOL0     C28754   8.002   9.916   6.878 -0.2331  0.1001  0.3567
  976MOL0     C28755   8.108   9.853   6.808  0.0780 -0.3905 -1.1324
  976MOL0     C28756   8.238   9.899   6.813  0.3005  0.4796  0.2845
  976MOL0     C28757   8.273  10.010   6.897 -0.4771 -0.4787  0.1060
  976MOL0     O28758   8.395  10.058   6.928 -0.1190 -0.1139 -0.2082
  976MOL0     C28759   8.513  10.032   6.838 -0.8674  1.1301 -0.8608
  976MOL0     C28760   8.572   9.903   6.879  0.2120  0.1673 -0.6547
  976MOL0     C28761   8.689   9.915   6.973  0.2827  0.1065  0.3730
  976MOL0     C28762   8.761   9.777   6.999 -0.2410 -0.0149 -0.0247
  976MOL0     C28763   8.696   9.685   7.078  0.0960 -0.1533 -0.3431
  976MOL0     C28764   8.638   9.609   7.151 -0.6368  0.5778  0.0775
  976MOL0     C28765   8.165  10.079   6.957 -0.1958  1.0366 -0.9996
  976MOL0     C28766   8.031  10.039   6.947  0.0418  0.2974 -0.1991
  976MOL0     H28767   7.617   9.837   6.732 -0.6305  3.6654  0.4399
  976MOL0     H28768   7.416   9.678   6.763 -1.0687  0.0342  0.1676
  976MOL0     H28769   7.170   9.650   7.098  0.6666  1.4588 -1.1895
  976MOL0     H28770   7.318   9.593   7.189  0.6243 -0.8107 -0.2534
  976MOL0     H28771   7.130   9.461   7.215 -1.9404 -1.2881 -1.5435
  976MOL0     H28772   7.257   9.363   7.132 -0.7724 -0.4681  2.6284
  976MOL0     H28773   7.148   9.375   6.916 -1.3475 -0.1831 -0.3806
  976MOL0     H28774   7.026   9.484   6.983 -0.6400  0.0775  1.0042
  976MOL0     H28775   7.070   9.205   7.074  0.5193 -0.0472  0.0070
  976MOL0     H28776   6.953   9.323   7.151  0.0625  2.4470 -0.2731
  976MOL0     H28777   6.946   9.275   6.867 -0.9369  0.9590  0.3562
  976MOL0     H28778   6.811   9.336   6.972 -1.1710 -1.8462 -2.4494
  976MOL0     H28779   6.812   9.095   7.071  2.6334 -1.1768  0.0990
  976MOL0     H28780   6.905   9.046   6.925 -0.8975 -0.8601 -1.3709
  976MOL0     H28781   6.622   9.172   6.936 -0.3389 -0.8576  0.4302
  976MOL0     H28782   6.715   9.145   6.792  2.5102  1.9683  1.1847
  976MOL0     H28783   6.608   8.950   7.007  2.3991 -2.0280 -0.1121
  976MOL0     H28784   6.707   8.892   6.876  1.9573  0.5083  1.3051
  976MOL0     H28785   6.579   9.044   6.624  0.3758  0.6948  0.5929
  976MOL0     H28786   6.316   8.938   6.486  0.0471 -1.9757  1.8687
  976MOL0     H28787   6.350   9.116   6.510 -2.1104  1.3432  0.6111
  976MOL0     H28788   6.127   9.108   6.653 -5.7801 -1.1609 -1.6567
  976MOL0     H28789   6.105   8.952   6.583  0.6839  0.0652 -2.5537
  976MOL0     H28790   6.132   9.213   6.426 -0.9611  0.3436  0.9698
  976MOL0     H28791   6.118   9.044   6.366  0.5686 -0.5252  0.0649
  976MOL0     H28792   5.911   9.173   6.535  0.7491  2.1319 -0.8777
  976MOL0     H28793   5.902   9.017   6.472  2.4833 -1.2026  1.1862
  976MOL0     H28794   5.806   9.389   6.191  0.8615  0.5839  1.9936
  976MOL0     H28795   5.597   9.487   6.190 -1.0301  0.0872  0.6532
  976MOL0     H28796   5.114   9.426   6.106  0.0663  0.5679 -0.3414
  976MOL0     H28797   4.882   9.502   6.140  2.0295  1.6279 -0.5690
  976MOL0     H28798   4.727   9.477   6.563  0.4175 -2.7567  1.0440
  976MOL0     H28799   4.643   9.342   6.507  2.3167 -1.0241  0.4558
  976MOL0     H28800   4.465   9.483   6.415 -0.8340  1.1874 -0.6438
  976MOL0     H28801   4.529   9.626   6.488  2.1791 -0.2956 -0.1520
  976MOL0     H28802   4.486   9.534   6.717  1.4546 -1.9155  0.0948
  976MOL0     H28803   4.450   9.372   6.660 -2.7047  0.5381  0.0304
  976MOL0     H28804   4.294   9.614   6.619 -0.9267  0.5729  1.5955
  976MOL0     H28805   4.255   9.482   6.521  2.0627  0.6239 -0.5354
  976MOL0     H28806   4.132   9.542   6.755  1.1289 -0.2642  1.4701
  976MOL0     H28807   4.266   9.450   6.831 -1.3628 -1.0514  0.9521
  976MOL0     H28808   4.235   9.265   6.695  0.6566  0.3871 -1.0695
  976MOL0     H28809   4.094   9.335   6.623  2.7841 -2.3603 -2.1899
  976MOL0     H28810   4.086   9.320   6.928  0.0445 -2.8820  0.4469
  976MOL0     H28811   3.955   9.325   6.809  0.2427  0.1249 -2.1687
  976MOL0     H28812   3.958   9.109   6.743 -1.5837  2.4475 -0.7674
  976MOL0     H28813   3.957   9.122   6.917 -1.0108 -2.1447 -1.5477
  976MOL0     H28814   4.870   9.322   6.527 -0.4561 -0.1178 -0.1251
  976MOL0     H28815   5.118   9.292   6.514 -3.3730  1.5065  2.4402
  976MOL0     H28816   5.439   9.154   6.425  0.3380  0.0094  2.1563
  976MOL0     H28817   5.667   9.061   6.447 -2.3561 -0.8974 -0.1920
  976MOL0     H28818   7.455   9.724   7.187  0.8349 -1.7442 -0.6600
  976MOL0     H28819   7.658   9.864   7.156  0.9094 -1.3950  0.1679
  976MOL0     H28820   8.083   9.768   6.745 -0.6236  2.0265 -4.4197
  976MOL0     H28821   8.320   9.853   6.759  1.4125  0.0189  2.2429
  976MOL0     H28822   8.585  10.114   6.829  1.0370 -0.4597 -0.8344
  976MOL0     H28823   8.471  10.018   6.738  3.2827  0.5568 -2.7315
  976MOL0     H28824   8.500   9.831   6.919  0.1455  0.0890 -0.9155
  976MOL0     H28825   8.604   9.850   6.790 -3.2464 -2.4641 -0.5479
  976MOL0     H28826   8.652   9.970   7.060  1.9322  0.7301  0.7105
  976MOL0     H28827   8.763   9.980   6.926 -0.3831  0.0507 -0.7980
  976MOL0     H28828   8.765   9.737   6.898  0.3696  1.6489 -0.6846
  976MOL0     H28829   8.861   9.784   7.042 -0.4386  0.8341  0.3272
  976MOL0     H28830   8.587   9.549   7.224  0.2133 -0.2232  0.0270
  976MOL0     H28831   8.190  10.173   7.005 -0.2261  1.4265 -1.7261
  976MOL0     H28832   7.954  10.102   6.992 -1.5668 -2.4779  1.2043
  977MOL0     O28833   7.015   9.308   4.017  0.4149  0.0847  0.2407
  977MOL0     C28834   7.080   9.375   3.940 -0.8132 -0.8740 -0.2972
  977MOL0     O28835   7.039   9.450   3.840 -0.1283  0.5256 -0.1129
  977MOL0     C28836   6.909   9.440   3.792 -0.3091 -0.0291  0.2976
  977MOL0     C28837   6.869   9.315   3.745  0.2778  0.9960  0.3311
  977MOL0     C28838   6.754   9.299   3.670 -0.1924  0.5024 -0.0973
  977MOL0     C28839   6.677   9.417   3.638  0.0239 -0.5388 -0.4273
  977MOL0     O28840   6.574   9.402   3.552  0.1359  0.0705 -0.3035
  977MOL0     C28841   6.513   9.518   3.494 -0.1423 -0.2482  0.1542
  977MOL0     C28842   6.436   9.485   3.359 -0.3333  0.1896 -0.7863
  977MOL0     C28843   6.301   9.410   3.389  0.1628  0.1293 -0.4209
  977MOL0     C28844   6.217   9.381   3.262 -0.2155  0.5279 -0.3496
  977MOL0     C28845   6.073   9.340   3.300  0.1515  0.2993  0.0726
  977MOL0     C28846   5.975   9.390   3.195 -0.0149 -0.2109  1.1945
  977MOL0     C28847   5.829   9.380   3.235 -0.2264 -0.6019 -0.0128
  977MOL0     C28848   5.754   9.402   3.107 -0.0828 -1.0674  0.2035
  977MOL0     N28849   5.612   9.353   3.126  0.1474  0.0114 -0.6769
  977MOL0     C28850   5.556   9.227   3.092  0.5582  1.0692  0.5133
  977MOL0     C28851   5.422   9.251   3.088  0.9010 -1.1665 -0.8761
  977MOL0     C28852   5.330   9.142   3.053  0.0909 -0.2259  0.2691
  977MOL0     C28853   5.278   9.158   2.911  0.6277  0.1030  0.0532
  977MOL0     C28854   5.207   9.023   2.863  0.4465  0.7055  0.8680
  977MOL0     C28855   5.086   8.957   2.935 -0.0387 -0.5721 -0.9097
  977MOL0     O28856   4.969   9.030   2.893  0.6137 -0.2812  0.2019
  977MOL0     C28857   4.882   8.979   2.795  0.4351  0.0820  0.7928
  977MOL0     C28858   4.752   9.019   2.801 -0.2569  0.6940  0.1265
  977MOL0     C28859   4.656   8.978   2.703 -0.6721  0.1753 -1.5407
  977MOL0     C28860   4.697   8.888   2.603  0.1838 -0.7835  0.4474
  977MOL0     C28861   4.594   8.852   2.507 -0.5218 -0.2095 -0.7596
  977MOL0     O28862   4.465   8.876   2.537  0.1689 -0.1709  0.9977
  977MOL0     C28863   4.363   8.846   2.445  0.2407  0.3740  0.4691
  977MOL0     C28864   4.341   8.713   2.409  0.2521  0.6595  0.5024
  977MOL0     C28865   4.236   8.681   2.319  0.0132 -0.2277  0.1414
  977MOL0     C28866   4.143   8.778   2.268 -0.4547  0.0066  1.0661
  977MOL0     O28867   4.051   8.731   2.180 -0.4953 -0.0008 -0.0315
  977MOL0     C28868   3.960   8.831   2.120  0.1414  0.4301  0.1354
  977MOL0     C28869   3.856   8.764   2.025  0.4980 -0.2090 -0.0115
  977MOL0     C28870   3.833   8.863   1.904  0.0191  0.5038 -0.2567
  977MOL0     C28871   3.713   8.826   1.820 -0.1620 -0.1880  0.2207
  977MOL0     C28872   3.665   8.945   1.746 -0.1349 -0.4366 -0.2061
  977MOL0     C28873   3.541   8.914   1.661  0.3430  0.9184 -0.4320
  977MOL0     C28874   3.494   9.041   1.587 -0.1511 -0.6936 -0.3381
  977MOL0     C28875   3.378   9.009   1.499  0.1071  0.3991  0.7883
  977MOL0    Cl28876   3.337   9.158   1.420 -0.1914 -0.2676 -0.2730
  977MOL0     C28877   4.170   8.915   2.306  0.1074 -0.5234  0.6029
  977MOL0     C28878   4.277   8.946   2.400  0.4440  0.4384  0.7420
  977MOL0     O28879   4.630   8.789   2.408  0.0788  1.0691  0.5391
  977MOL0     C28880   4.826   8.838   2.593  0.8851  0.7452 -1.1646
  977MOL0     C28881   4.919   8.892   2.690  0.2024  0.2910  0.2736
  977MOL0     N28882   5.394   9.381   3.145  0.7295  0.3665  0.0533
  977MOL0     N28883   5.507   9.433   3.161  0.9572 -0.1764 -0.1667
  977MOL0     C28884   6.713   9.537   3.692  1.1429 -0.4309  0.2961
  977MOL0     C28885   6.825   9.548   3.777 -0.0144  0.0241 -0.3010
  977MOL0     C28886   7.217   9.384   3.967  0.1332  0.1422  0.0018
  977MOL0     C28887   7.302   9.447   3.871  0.1005 -0.0130 -0.6781
  977MOL0     C28888   7.438   9.469   3.906 -0.5091 -0.3209  0.0679
  977MOL0     C28889   7.485   9.410   4.027 -0.0853 -0.4337  0.0516
  977MOL0     O28890   7.616   9.445   4.057 -0.5761  1.7044  0.3423
  977MOL0     C28891   7.678   9.338   4.126 -0.1810  0.1226  0.8050
  977MOL0     C28892   7.833   9.353   4.120 -0.1818 -0.5615 -0.0439
  977MOL0     C28893   7.879   9.352   3.976 -0.0533 -0.0121 -0.0509
  977MOL0     C28894   7.870   9.215   3.906  0.9789 -0.8041  0.1301
  977MOL0     C28895   7.939   9.225   3.779 -0.0923  0.2596  0.3740
  977MOL0     C28896   7.970   9.227   3.663 -0.0125 -0.2235  0.4480
  977MOL0     C28897   7.398   9.339   4.110  0.3266 -0.1695 -0.9909
  977MOL0     C28898   7.264   9.324   4.083 -0.9902  0.3235  0.3630
  977MOL0     H28899   6.936   9.232   3.766 -1.7724 -0.6955  0.5473
  977MOL0     H28900   6.714   9.202   3.641  0.2329 -0.3782  2.0754
  977MOL0     H28901   6.589   9.594   3.472  0.3249 -1.0389 -1.0557
  977MOL0     H28902   6.442   9.554   3.570 -3.0539 -2.6361 -1.2317
  977MOL0     H28903   6.515   9.427   3.310  0.0890  0.8109 -0.8480
  977MOL0     H28904   6.420   9.577   3.303 -1.2528 -0.9302 -2.4508
  977MOL0     H28905   6.246   9.472   3.461  0.6760  1.1662 -0.9135
  977MOL0     H28906   6.315   9.310   3.432 -0.2575  0.3662  0.2952
  977MOL0     H28907   6.223   9.470   3.199  2.5815  0.5312 -0.1852
  977MOL0     H28908   6.268   9.302   3.205  1.9565  1.4137  0.2797
  977MOL0     H28909   6.037   9.379   3.395  0.2598  1.8865 -0.5119
  977MOL0     H28910   6.065   9.232   3.319 -0.5714  0.7314  2.5560
  977MOL0     H28911   6.000   9.326   3.110  3.1314  1.9167  0.3430
  977MOL0     H28912   6.001   9.493   3.169  1.1784 -1.1167 -1.5241
  977MOL0     H28913   5.803   9.277   3.262 -0.0081 -1.6853 -3.3938
  977MOL0     H28914   5.814   9.457   3.311  0.1308  1.2666 -1.7533
  977MOL0     H28915   5.799   9.340   3.029 -2.1591 -1.3876 -0.7924
  977MOL0     H28916   5.756   9.508   3.080  1.4663 -1.6920 -2.5278
  977MOL0     H28917   5.609   9.145   3.044  2.4751  2.4536  0.1630
  977MOL0     H28918   5.249   9.138   3.127  0.4381  2.1541  0.8743
  977MOL0     H28919   5.395   9.055   3.059  3.0471  1.7190 -1.0741
  977MOL0     H28920   5.356   9.194   2.844 -0.8849 -0.9440 -2.4258
  977MOL0     H28921   5.205   9.239   2.902  0.3897 -0.2000 -0.8474
  977MOL0     H28922   5.173   9.053   2.764  0.0561 -0.7964  0.5328
  977MOL0     H28923   5.281   8.945   2.845  0.6408  0.3825  2.8310
  977MOL0     H28924   5.105   8.966   3.042 -0.8533 -0.7375 -0.7385
  977MOL0     H28925   5.078   8.851   2.911 -5.4960 -0.0526 -2.8762
  977MOL0     H28926   4.723   9.087   2.880 -2.4653 -0.0252  0.0111
  977MOL0     H28927   4.556   9.017   2.711 -0.7079 -0.3414  3.1631
  977MOL0     H28928   4.409   8.631   2.434  0.6157  1.2139  1.3909
  977MOL0     H28929   4.239   8.579   2.281 -0.6138 -0.1569 -0.1080
  977MOL0     H28930   4.022   8.900   2.063  0.1014 -1.6275 -2.6150
  977MOL0     H28931   3.915   8.880   2.207 -1.6744 -0.0393 -0.4784
  977MOL0     H28932   3.761   8.731   2.068 -1.3056  1.4854 -2.4456
  977MOL0     H28933   3.900   8.675   1.980  0.3870 -0.2055 -0.1278
  977MOL0     H28934   3.918   8.856   1.836  0.3688  0.2356  0.1956
  977MOL0     H28935   3.818   8.962   1.946  0.8977  0.0469  1.2456
  977MOL0     H28936   3.728   8.745   1.748  1.1853 -0.2669  0.5647
  977MOL0     H28937   3.630   8.809   1.889 -0.5164 -1.0076 -0.3913
  977MOL0     H28938   3.739   8.983   1.675 -0.2342 -1.5599 -0.9505
  977MOL0     H28939   3.630   9.022   1.815 -3.3536 -0.3251 -1.7587
  977MOL0     H28940   3.462   8.879   1.729  0.7951  2.4390  0.9371
  977MOL0     H28941   3.561   8.832   1.592 -0.7555 -0.6664  1.0579
  977MOL0     H28942   3.469   9.123   1.655  0.6914  2.2871 -3.3401
  977MOL0     H28943   3.582   9.076   1.534  0.5307 -1.1274  0.4917
  977MOL0     H28944   3.294   8.959   1.547  1.9385 -1.0853  2.5940
  977MOL0     H28945   3.406   8.941   1.418 -0.7221  3.2428 -2.1268
  977MOL0     H28946   4.108   8.992   2.261  0.1112 -1.0834 -0.3910
  977MOL0     H28947   4.302   9.049   2.423  0.7020  0.2868  1.1512
  977MOL0     H28948   4.858   8.765   2.520  2.3665  0.9866 -0.8048
  977MOL0     H28949   5.021   8.864   2.664 -0.7067 -3.5064  0.1529
  977MOL0     H28950   6.666   9.633   3.672  1.2805  0.0308  2.0395
  977MOL0     H28951   6.853   9.645   3.815 -0.8534  0.0322  0.3155
  977MOL0     H28952   7.264   9.488   3.778  0.9311  1.0215 -0.5796
  977MOL0     H28953   7.506   9.519   3.839  1.6192 -2.4098  0.5165
  977MOL0     H28954   7.649   9.241   4.087  1.4689  0.5584 -1.7722
  977MOL0     H28955   7.664   9.343   4.234  0.6823  1.0238  0.8938
  977MOL0     H28956   7.860   9.446   4.170 -0.3524 -0.7430  0.3867
  977MOL0     H28957   7.885   9.277   4.180 -1.3249 -1.7383 -0.4955
  977MOL0     H28958   7.979   9.396   3.962 -0.3724  0.7650  0.0525
  977MOL0     H28959   7.823   9.424   3.916  2.6294 -0.1999 -3.0791
  977MOL0     H28960   7.901   9.136   3.975 -0.8399 -2.6050 -0.9600
  977MOL0     H28961   7.765   9.195   3.883  0.0142  0.8532  2.7385
  977MOL0     H28962   7.991   9.229   3.558 -0.2166  6.2669  0.1424
  977MOL0     H28963   7.432   9.311   4.209 -0.5077 -0.8284 -0.8757
  977MOL0     H28964   7.193   9.279   4.152 -2.0976 -0.6946 -1.3682
  978MOL0     O28965   3.436  10.715  10.939 -0.3128  0.0194 -0.0757
  978MOL0     C28966   3.473  10.605  10.976 -0.2353  0.6513 -0.0836
  978MOL0     O28967   3.393  10.501  11.019  0.2649  0.4886  0.3740
  978MOL0     C28968   3.258  10.518  11.025 -0.3694 -0.2951  0.2779
  978MOL0     C28969   3.194  10.500  11.157  0.7905  0.6138 -0.0718
  978MOL0     C28970   3.054  10.533  11.169 -0.1781  0.0736  0.1067
  978MOL0     C28971   2.989  10.568  11.055 -0.0109  1.0533  0.5797
  978MOL0     O28972   2.858  10.598  11.085  0.1863  0.3920  0.2708
  978MOL0     C28973   2.761  10.533  10.996  0.3555 -0.3080 -0.2305
  978MOL0     C28974   2.649  10.626  10.971  0.7508 -0.0512 -0.2856
  978MOL0     C28975   2.560  10.581  10.851 -0.0178  0.3574  0.5490
  978MOL0     C28976   2.429  10.665  10.853 -0.0056 -0.7666  0.1658
  978MOL0     C28977   2.348  10.652  10.727  0.2979 -0.6313 -0.6150
  978MOL0     C28978   2.210  10.711  10.758 -0.3333 -0.4626 -0.7037
  978MOL0     C28979   2.113  10.680  10.644 -0.4103  0.5678 -0.7749
  978MOL0     C28980   1.982  10.754  10.672 -0.3471  0.4373  0.5519
  978MOL0     N28981   1.889  10.706  10.568 -0.4733  0.7614  0.1678
  978MOL0     C28982   1.759  10.654  10.592  1.3886 -0.5639  0.7131
  978MOL0     C28983   1.697  10.657  10.469 -0.0663  0.2857 -1.6140
  978MOL0     C28984   1.558  10.609  10.448 -0.9226  0.0755 -0.8961
  978MOL0     C28985   1.468  10.731  10.472 -0.4989 -0.1673 -0.6297
  978MOL0     C28986   1.334  10.706  10.419 -0.5852  0.7599 -0.2055
  978MOL0     C28987   1.237  10.816  10.482  0.0598  0.9293  0.0958
  978MOL0     O28988   1.109  10.770  10.447  0.4314  0.1741  0.5918
  978MOL0     C28989   1.060  10.798  10.320  0.1947  0.0151  0.1767
  978MOL0     C28990   1.131  10.873  10.217 -0.1211  0.0979  0.1997
  978MOL0     C28991   1.059  10.905  10.099 -0.2262  0.2829 -0.2044
  978MOL0     C28992   0.920  10.873  10.085  0.0520 -0.7719  0.0149
  978MOL0     C28993   0.835  10.917   9.971  0.6216  0.7302 -0.1196
  978MOL0     O28994   0.880  10.959   9.854 -0.0189 -0.1885  0.2399
  978MOL0     C28995   0.808  10.964   9.740  0.7686 -0.3133 -0.3980
  978MOL0     C28996   0.683  10.905   9.719 -0.0595  0.2201 -1.0086
  978MOL0     C28997   0.623  10.915   9.598  0.3768 -0.3374 -0.2927
  978MOL0     C28998   0.680  10.982   9.491  0.6741  0.4449 -0.4384
  978MOL0     O28999   0.618  10.992   9.372  0.3882  0.4950 -0.7259
  978MOL0     C29000   0.642  11.112   9.293 -0.5418  0.0721  0.1295
  978MOL0     C29001   0.535  11.138   9.185 -0.0998  0.3866  0.0412
  978MOL0     C29002   0.518  11.019   9.091 -0.4052  0.1053  0.6474
  978MOL0     C29003   0.383  11.023   9.013 -0.7687  0.5761  0.1043
  978MOL0     C29004   0.365  10.925   8.902  0.6193 -0.0647 -0.6638
  978MOL0     C29005   0.375  10.775   8.963 -0.1322 -0.1135 -0.0257
  978MOL0     C29006   0.261  10.742   9.062  0.2135 -0.3040  0.0860
  978MOL0     C29007   0.132  10.733   8.983  0.3759 -0.0982  0.5678
  978MOL0    Cl29008   0.001  10.749   9.091  0.2584 -0.3372  0.1845
  978MOL0     C29009   0.812  11.031   9.507  0.6174  0.0129  0.2194
  978MOL0     C29010   0.874  11.018   9.630 -0.4068  0.0531 -0.1836
  978MOL0     O29011   0.718  10.921  10.004  0.9746 -0.3597 -0.2301
  978MOL0     C29012   0.854  10.797  10.185  0.4916  0.4287 -0.4011
  978MOL0     C29013   0.928  10.764  10.306  0.1348  0.3542  0.6639
  978MOL0     N29014   1.787  10.698  10.376  0.7463 -0.0818 -0.0435
  978MOL0     N29015   1.903  10.712  10.427  0.8176 -0.8590 -0.6010
  978MOL0     C29016   3.042  10.588  10.931 -0.0069  0.7432 -0.2344
  978MOL0     C29017   3.181  10.568  10.918  0.1758  0.3356  0.0125
  978MOL0     C29018   3.625  10.601  10.971  0.0408  0.1107 -0.2419
  978MOL0     C29019   3.702  10.674  10.873  0.1922  0.6422 -0.3442
  978MOL0     C29020   3.843  10.679  10.881  0.3172  0.2874  0.2592
  978MOL0     C29021   3.909  10.607  10.983 -0.1740  0.3904 -0.3112
  978MOL0     O29022   4.048  10.620  10.988 -0.3188  0.6031 -0.4932
  978MOL0     C29023   4.119  10.515  11.051 -0.2082  0.4530 -0.1732
  978MOL0     C29024   4.264  10.540  11.040 -0.0171  0.6693  0.5031
  978MOL0     C29025   4.323  10.467  10.918 -0.2973  0.1111  0.3054
  978MOL0     C29026   4.246  10.499  10.781 -0.1415 -0.3101  0.2956
  978MOL0     C29027   4.276  10.637  10.738  0.4308  0.4740 -0.0780
  978MOL0     C29028   4.294  10.754  10.719 -0.1335  0.0012 -0.1697
  978MOL0     C29029   3.828  10.530  11.066 -0.6570  0.5160 -0.1765
  978MOL0     C29030   3.692  10.525  11.065 -0.4525  0.1704 -0.6099
  978MOL0     H29031   3.246  10.460  11.244 -0.4400 -0.4427  0.2112
  978MOL0     H29032   3.005  10.508  11.263 -0.0262 -3.8591 -0.6896
  978MOL0     H29033   2.726  10.438  11.037  1.9484 -0.8857 -0.1631
  978MOL0     H29034   2.804  10.507  10.899 -1.8001 -0.3218 -1.2549
  978MOL0     H29035   2.691  10.726  10.954 -0.9678  0.9090  0.7862
  978MOL0     H29036   2.579  10.645  11.052  1.1896  1.4221 -0.2166
  978MOL0     H29037   2.537  10.475  10.864 -0.9404 -0.2664 -4.4725
  978MOL0     H29038   2.619  10.581  10.759 -2.2293  0.8037 -0.9347
  978MOL0     H29039   2.370  10.612  10.928 -1.5493 -0.6611 -0.9264
  978MOL0     H29040   2.433  10.772  10.874 -1.5486 -0.9364  1.5216
  978MOL0     H29041   2.352  10.546  10.701  2.8333 -0.3153 -1.7907
  978MOL0     H29042   2.385  10.719  10.649  0.6529  1.2850  1.0981
  978MOL0     H29043   2.228  10.818  10.771 -0.1110 -0.3813 -1.5647
  978MOL0     H29044   2.188  10.668  10.855  4.6856  0.0195  0.9587
  978MOL0     H29045   2.157  10.705  10.547  3.2205 -0.0398  0.5594
  978MOL0     H29046   2.092  10.573  10.641  0.9789  0.1428  1.9834
  978MOL0     H29047   1.990  10.863  10.674  0.9450  0.3952 -0.7170
  978MOL0     H29048   1.955  10.723  10.773  1.4412 -2.2324  0.3121
  978MOL0     H29049   1.720  10.632  10.691 -0.2777  2.8104  0.9629
  978MOL0     H29050   1.540  10.527  10.518  2.1731  0.3892  0.4453
  978MOL0     H29051   1.547  10.576  10.344  0.1555  0.5953 -1.1942
  978MOL0     H29052   1.508  10.814  10.414 -1.0264 -1.0174 -2.2942
  978MOL0     H29053   1.454  10.744  10.579 -1.7446 -0.7984 -0.6919
  978MOL0     H29054   1.335  10.707  10.310  2.5403 -1.8242 -0.3392
  978MOL0     H29055   1.304  10.608  10.456  2.0865  0.4180  1.3802
  978MOL0     H29056   1.269  10.904  10.425  0.0699  0.2371 -0.9921
  978MOL0     H29057   1.258  10.838  10.587  2.6303  1.8004 -0.5045
  978MOL0     H29058   1.236  10.899  10.223 -0.1188 -0.1123  1.4626
  978MOL0     H29059   1.107  10.967  10.024 -0.0916  1.3191  0.7110
  978MOL0     H29060   0.617  10.858   9.791 -2.7565  2.4410 -1.8495
  978MOL0     H29061   0.532  10.857   9.592  0.0386  0.2324 -0.7936
  978MOL0     H29062   0.740  11.099   9.247  0.0065 -0.2544  1.3502
  978MOL0     H29063   0.649  11.200   9.358  0.2099  0.4953 -0.5089
  978MOL0     H29064   0.551  11.225   9.120 -0.6476  1.2252  1.0106
  978MOL0     H29065   0.432  11.153   9.216 -0.5071 -0.8792 -0.6330
  978MOL0     H29066   0.526  10.921   9.140  0.0475 -2.1147 -3.4368
  978MOL0     H29067   0.600  11.019   9.019  1.2044  0.0061  2.3953
  978MOL0     H29068   0.304  10.999   9.084 -0.0899  2.0497  1.4064
  978MOL0     H29069   0.371  11.124   8.973 -3.5531  0.2890  0.0389
  978MOL0     H29070   0.440  10.936   8.823  0.8743 -0.6789 -0.5182
  978MOL0     H29071   0.266  10.940   8.860  0.0232 -0.0491  0.6906
  978MOL0     H29072   0.476  10.767   9.005 -0.3097  4.0498  1.6815
  978MOL0     H29073   0.367  10.717   8.871  0.4050  0.6680 -0.5816
  978MOL0     H29074   0.279  10.642   9.103 -2.3114 -0.3718  1.2048
  978MOL0     H29075   0.273  10.797   9.156  0.4185 -1.4890  0.7892
  978MOL0     H29076   0.120  10.638   8.930  0.1851  1.2905 -2.0379
  978MOL0     H29077   0.118  10.818   8.915 -0.2584 -1.9547 -1.7374
  978MOL0     H29078   0.867  11.056   9.418 -0.4100  0.2640 -0.3607
  978MOL0     H29079   0.975  11.056   9.645 -0.8106  0.6473  1.2333
  978MOL0     H29080   0.756  10.751  10.177  1.0904 -1.3440  1.6716
  978MOL0     H29081   0.882  10.708  10.387  1.0902 -0.3721  0.7132
  978MOL0     H29082   2.973  10.629  10.858 -1.2434 -0.0340  0.4498
  978MOL0     H29083   3.226  10.596  10.823  0.7342  1.8923  0.6945
  978MOL0     H29084   3.646  10.729  10.798 -1.6934 -0.0806  0.4687
  978MOL0     H29085   3.902  10.743  10.816  0.0989 -0.9160 -1.1788
  978MOL0     H29086   4.079  10.418  11.020 -2.4744  1.5764 -0.9671
  978MOL0     H29087   4.089  10.520  11.157  1.0468 -0.9035  0.2812
  978MOL0     H29088   4.286  10.646  11.027  0.6200  0.3989 -0.8413
  978MOL0     H29089   4.312  10.499  11.129  0.1262  0.4111  0.3100
  978MOL0     H29090   4.311  10.358  10.923 -2.2061  0.2671 -0.0050
  978MOL0     H29091   4.431  10.469  10.906 -0.2715 -2.8033 -0.7412
  978MOL0     H29092   4.281  10.435  10.699  0.9249  1.3180 -0.5618
  978MOL0     H29093   4.137  10.491  10.792  0.1030 -0.7844  3.2112
  978MOL0     H29094   4.301  10.859  10.698 -0.1523 -0.6384 -4.1904
  978MOL0     H29095   3.880  10.474  11.144  0.1701  2.3767  0.6677
  978MOL0     H29096   3.638  10.470  11.142 -1.6679 -0.3061 -1.7475
  979MOL0     O29097   9.291   7.471   4.386 -0.5604  0.6318  0.4532
  979MOL0     C29098   9.364   7.385   4.438  0.1254  0.6433  0.0543
  979MOL0     O29099   9.349   7.338   4.564 -1.0040 -0.1050 -0.6116
  979MOL0     C29100   9.265   7.401   4.647 -0.0820 -0.6710 -0.0925
  979MOL0     C29101   9.253   7.544   4.654  0.0804 -0.1217  0.3517
  979MOL0     C29102   9.187   7.605   4.760  0.7733  0.4626 -0.3692
  979MOL0     C29103   9.125   7.530   4.861 -0.2541 -0.6666 -0.3067
  979MOL0     O29104   9.048   7.601   4.942 -0.4512  0.1039  0.1011
  979MOL0     C29105   8.922   7.543   4.971  0.0353  0.1142  0.1211
  979MOL0     C29106   8.847   7.659   5.031  0.2829  0.3490 -0.3205
  979MOL0     C29107   8.725   7.593   5.106 -0.1164  0.0831 -0.6534
  979MOL0     C29108   8.669   7.697   5.208  0.3301 -0.7564  0.3112
  979MOL0     C29109   8.525   7.684   5.249  0.0469 -0.9149  0.2100
  979MOL0     C29110   8.421   7.715   5.136 -0.2851 -0.1354 -0.3781
  979MOL0     C29111   8.282   7.729   5.184 -0.4041 -0.7234  0.1373
  979MOL0     C29112   8.225   7.597   5.233  0.2327 -0.3604  0.1858
  979MOL0     N29113   8.088   7.609   5.282 -0.4038  0.7819 -0.6032
  979MOL0     C29114   8.033   7.539   5.389  0.3134  0.0784  1.0840
  979MOL0     C29115   7.908   7.582   5.398 -0.2354 -0.2385  0.5342
  979MOL0     C29116   7.809   7.562   5.499  0.1426 -0.0010  1.0529
  979MOL0     C29117   7.685   7.503   5.438  1.1342 -0.3744 -0.1097
  979MOL0     C29118   7.702   7.366   5.370 -0.4446  0.0075 -0.2041
  979MOL0     C29119   7.565   7.321   5.318 -0.5219  0.2638  0.3102
  979MOL0     O29120   7.464   7.317   5.413  0.1298 -0.0640 -1.0312
  979MOL0     C29121   7.333   7.319   5.368 -0.1545  0.4815 -0.1922
  979MOL0     C29122   7.286   7.338   5.235 -0.7828 -0.0217  0.0995
  979MOL0     C29123   7.150   7.340   5.201  0.8726  0.0879 -0.1064
  979MOL0     C29124   7.056   7.325   5.309  0.4311 -0.8506 -0.4559
  979MOL0     C29125   6.906   7.339   5.268  0.4247  0.1864  0.3413
  979MOL0     O29126   6.811   7.312   5.365  0.5645  0.3966 -0.3090
  979MOL0     C29127   6.675   7.293   5.343 -0.5142 -0.7158  0.2063
  979MOL0     C29128   6.586   7.344   5.437 -0.6004 -0.3916  0.1155
  979MOL0     C29129   6.450   7.347   5.413  0.2568  0.3383 -0.1107
  979MOL0     C29130   6.402   7.291   5.295 -0.0426  0.1930  0.5155
  979MOL0     O29131   6.265   7.295   5.270 -0.4442  0.3601 -0.7296
  979MOL0     C29132   6.176   7.383   5.341 -0.4779 -0.4972 -1.5311
  979MOL0     C29133   6.045   7.395   5.266 -1.2712 -0.2733  0.3866
  979MOL0     C29134   5.966   7.269   5.293  0.3374 -0.2745  0.0044
  979MOL0     C29135   5.821   7.261   5.243  0.0683 -0.2165 -0.3560
  979MOL0     C29136   5.748   7.136   5.281  0.4803 -0.0277  0.7061
  979MOL0     C29137   5.623   7.105   5.205 -0.0648 -0.5273  0.0568
  979MOL0     C29138   5.551   6.982   5.264 -0.1394 -0.7785 -0.0190
  979MOL0     C29139   5.415   6.934   5.197 -0.0270 -0.1093  0.0400
  979MOL0    Cl29140   5.312   7.082   5.187  0.2453  0.0525  0.0436
  979MOL0     C29141   6.483   7.224   5.207 -0.1263  0.4831 -0.3222
  979MOL0     C29142   6.624   7.233   5.231  0.5637  0.6844  0.6884
  979MOL0     O29143   6.887   7.361   5.150  0.3227 -0.4175 -0.8398
  979MOL0     C29144   7.097   7.302   5.437  0.1304 -1.0081 -0.2855
  979MOL0     C29145   7.234   7.291   5.467 -0.2937 -0.8131 -0.3556
  979MOL0     N29146   7.881   7.669   5.292 -0.4880  0.1397 -0.5860
  979MOL0     N29147   7.990   7.687   5.230 -0.6407 -0.0930 -0.2204
  979MOL0     C29148   9.141   7.389   4.858  0.0285 -0.2341  0.6837
  979MOL0     C29149   9.206   7.319   4.751  0.0915  0.3915 -0.0098
  979MOL0     C29150   9.457   7.305   4.355 -0.8638 -0.4371 -0.8707
  979MOL0     C29151   9.483   7.335   4.221  0.0110  0.0297 -0.4173
  979MOL0     C29152   9.561   7.243   4.151  0.3920  0.4964  0.1210
  979MOL0     C29153   9.615   7.124   4.203  0.0843  0.2545 -0.3281
  979MOL0     O29154   9.697   7.039   4.139  0.3878 -0.2691  0.1002
  979MOL0     C29155   9.736   7.067   4.007  0.7131 -0.5527  0.6349
  979MOL0     C29156   9.843   6.962   3.950  0.5151 -0.8947 -0.5318
  979MOL0     C29157   9.973   6.954   4.027 -0.0941 -0.0192  0.3269
  979MOL0     C29158  10.075   6.874   3.951 -0.1262  0.4641  0.1863
  979MOL0     C29159  10.140   6.959   3.850  0.6313  0.5223 -0.2273
  979MOL0     C29160  10.186   7.040   3.767  0.3899 -0.5778  0.2339
  979MOL0     C29161   9.590   7.093   4.339 -0.1629 -0.4409 -0.1444
  979MOL0     C29162   9.510   7.181   4.414  1.1693  0.3548  0.3262
  979MOL0     H29163   9.310   7.607   4.586 -0.8149 -0.3490 -0.6324
  979MOL0     H29164   9.187   7.714   4.761 -0.6537  0.5279 -1.7460
  979MOL0     H29165   8.923   7.467   5.049 -2.0261 -1.9320 -1.7123
  979MOL0     H29166   8.873   7.502   4.882 -3.1383  0.6798  1.4644
  979MOL0     H29167   8.830   7.725   4.946  2.3776  0.6304 -0.5698
  979MOL0     H29168   8.913   7.716   5.098  0.1540 -0.5822  0.6152
  979MOL0     H29169   8.761   7.509   5.166 -0.3659  0.6056  0.2410
  979MOL0     H29170   8.649   7.564   5.033 -0.0618  1.6645 -1.3764
  979MOL0     H29171   8.731   7.707   5.297 -0.0178  1.0271  0.3952
  979MOL0     H29172   8.673   7.791   5.151 -1.1538 -1.5144 -1.1406
  979MOL0     H29173   8.523   7.761   5.327 -2.4512  0.7869 -1.3798
  979MOL0     H29174   8.505   7.584   5.290 -0.1682 -0.8877  0.1758
  979MOL0     H29175   8.421   7.634   5.063 -1.4833 -0.8887  0.4240
  979MOL0     H29176   8.465   7.801   5.085  0.4348 -0.4606 -0.3117
  979MOL0     H29177   8.285   7.808   5.260  2.2119  0.3392 -0.9473
  979MOL0     H29178   8.223   7.760   5.096 -3.0528  0.5867  2.2110
  979MOL0     H29179   8.283   7.563   5.319  0.3035 -0.1451  0.2221
  979MOL0     H29180   8.238   7.529   5.149  0.7556  0.2972 -0.2716
  979MOL0     H29181   8.090   7.483   5.462  0.2547  1.6628  2.3966
  979MOL0     H29182   7.786   7.657   5.549  1.4930  1.7525 -1.4021
  979MOL0     H29183   7.848   7.493   5.574 -2.2725 -2.3108  0.3502
  979MOL0     H29184   7.662   7.577   5.360 -0.2384  1.7891  2.2100
  979MOL0     H29185   7.614   7.498   5.521  3.1220  2.0383  1.9445
  979MOL0     H29186   7.764   7.379   5.280 -1.1290 -1.9710 -1.0224
  979MOL0     H29187   7.751   7.300   5.442 -0.2623  2.4191  2.0454
  979MOL0     H29188   7.582   7.218   5.284  0.9224  0.5037  0.2453
  979MOL0     H29189   7.545   7.389   5.234 -3.1870 -1.3978 -0.5544
  979MOL0     H29190   7.361   7.360   5.160 -2.3394  0.6721 -1.3211
  979MOL0     H29191   7.114   7.369   5.102  1.3278  0.6105 -0.1219
  979MOL0     H29192   6.635   7.397   5.519  2.6443 -1.7475 -0.7763
  979MOL0     H29193   6.372   7.388   5.477 -1.1592 -0.5946 -1.1877
  979MOL0     H29194   6.209   7.486   5.357 -1.2277 -0.6967  2.3019
  979MOL0     H29195   6.156   7.341   5.440  1.4955  2.4898  0.2795
  979MOL0     H29196   6.069   7.421   5.162  1.8354 -1.0125  0.8330
  979MOL0     H29197   5.991   7.483   5.301  1.7650  1.7005  0.5038
  979MOL0     H29198   5.966   7.240   5.399 -0.1694 -0.1150  0.0503
  979MOL0     H29199   6.028   7.197   5.238  0.9317  0.4653 -0.3142
  979MOL0     H29200   5.760   7.341   5.287 -0.6505  0.0620 -1.8138
  979MOL0     H29201   5.820   7.272   5.134  1.5552  1.0339 -0.2721
  979MOL0     H29202   5.711   7.141   5.384 -0.8863 -3.6708  0.5488
  979MOL0     H29203   5.819   7.055   5.264  0.6308  0.3070 -0.3150
  979MOL0     H29204   5.652   7.077   5.104  0.8157  0.8967 -0.1185
  979MOL0     H29205   5.556   7.191   5.196 -1.5308 -1.6268  0.0538
  979MOL0     H29206   5.618   6.895   5.260 -0.3275 -0.8953 -0.6921
  979MOL0     H29207   5.524   7.006   5.367  6.3900 -0.1810  2.0368
  979MOL0     H29208   5.361   6.865   5.263 -0.4766  0.5786  0.4060
  979MOL0     H29209   5.431   6.885   5.101 -1.0640  0.2135 -0.3165
  979MOL0     H29210   6.445   7.159   5.129 -1.7872 -2.2177  2.4978
  979MOL0     H29211   6.700   7.189   5.167  2.0646 -0.3640  3.0753
  979MOL0     H29212   7.023   7.287   5.515 -0.4628 -0.0581 -0.6560
  979MOL0     H29213   7.253   7.268   5.572  0.5983  0.6172 -0.1738
  979MOL0     H29214   9.090   7.339   4.939  1.5068  0.8720  2.3526
  979MOL0     H29215   9.215   7.211   4.754  1.5849  0.5159  1.9242
  979MOL0     H29216   9.432   7.420   4.177 -0.6850  0.1538  0.6017
  979MOL0     H29217   9.582   7.282   4.052  0.9762  1.6348  0.6737
  979MOL0     H29218   9.784   7.165   4.001  0.7597 -0.6552 -1.9875
  979MOL0     H29219   9.651   7.076   3.939 -0.1722  0.4481  1.8373
  979MOL0     H29220   9.802   6.864   3.923 -0.8714  0.5103 -4.2567
  979MOL0     H29221   9.860   7.004   3.850 -0.1574  0.2053 -0.2041
  979MOL0     H29222   9.960   6.899   4.120  0.4787  1.8727  1.5995
  979MOL0     H29223  10.011   7.053   4.054 -1.3101  0.2769  1.0363
  979MOL0     H29224  10.152   6.838   4.020  0.4068  0.0446 -0.6259
  979MOL0     H29225  10.031   6.780   3.917 -1.2482  1.0350  0.0125
  979MOL0     H29226  10.212   7.104   3.685 -0.6675 -0.7754 -0.2758
  979MOL0     H29227   9.616   6.995   4.378 -3.8687 -2.1607 -1.4894
  979MOL0     H29228   9.487   7.158   4.518 -0.4265  0.2466 -0.0362
  980MOL0     O29229   2.587   4.808   4.250 -0.3291 -0.4690 -0.1764
  980MOL0     C29230   2.616   4.870   4.149  0.4603 -1.0691  0.2485
  980MOL0     O29231   2.520   4.924   4.066  0.0364 -0.0150  0.2016
  980MOL0     C29232   2.388   4.931   4.107  0.3129  0.6068  1.2047
  980MOL0     C29233   2.338   4.995   4.225  0.2324 -0.9407  0.5017
  980MOL0     C29234   2.205   4.985   4.256 -0.5621 -0.5467  0.3424
  980MOL0     C29235   2.111   4.919   4.172 -0.5760 -0.0929  0.4603
  980MOL0     O29236   1.976   4.912   4.202 -0.6372 -0.2354 -0.2345
  980MOL0     C29237   1.922   4.969   4.321 -0.0733 -0.5038  0.3164
  980MOL0     C29238   1.782   4.923   4.322  0.6683 -0.0596  0.1654
  980MOL0     C29239   1.683   4.990   4.228  0.4962 -0.5013  0.1128
  980MOL0     C29240   1.539   4.935   4.252 -0.0407  0.0952  0.0723
  980MOL0     C29241   1.485   4.950   4.397  0.5243 -0.5886  0.3257
  980MOL0     C29242   1.454   5.100   4.427 -0.1224 -0.3463  1.0781
  980MOL0     C29243   1.390   5.119   4.565  0.4812 -0.8053  0.4313
  980MOL0     C29244   1.244   5.079   4.576 -0.4584 -0.5199  0.2832
  980MOL0     N29245   1.161   5.184   4.533 -0.1753  0.4423 -0.7126
  980MOL0     C29246   1.087   5.183   4.422  0.1711  0.1028  0.6522
  980MOL0     C29247   1.025   5.304   4.418 -0.3706  0.1205 -0.3802
  980MOL0     C29248   0.922   5.345   4.315 -0.5435  0.3578 -0.5776
  980MOL0     C29249   0.780   5.371   4.379 -0.6284  0.4891  0.1960
  980MOL0     C29250   0.682   5.380   4.262  0.6258  0.1310  0.5111
  980MOL0     C29251   0.628   5.240   4.220  0.0797  0.3326  1.0663
  980MOL0     O29252   0.542   5.185   4.324  0.7091 -0.1918  0.1321
  980MOL0     C29253   0.431   5.115   4.283  0.0725  0.5128  0.3530
  980MOL0     C29254   0.419   5.052   4.153 -0.0123  0.0294  0.2561
  980MOL0     C29255   0.302   4.989   4.111 -0.3862 -0.1249  0.2848
  980MOL0     C29256   0.190   4.976   4.201  0.2683  0.5732 -0.5882
  980MOL0     C29257   0.073   4.895   4.154  0.1743 -0.1869 -1.5699
  980MOL0     O29258  -0.028   4.889   4.250  0.1039 -0.0260  0.1090
  980MOL0     C29259  -0.148   4.846   4.203  1.0283  0.2739  0.0817
  980MOL0     C29260  -0.170   4.707   4.208  0.4110  0.2017  0.2497
  980MOL0     C29261  -0.292   4.649   4.162 -0.1492 -1.7947  0.0226
  980MOL0     C29262  -0.399   4.739   4.117  0.2009  0.0008 -0.0172
  980MOL0     O29263  -0.525   4.702   4.072  0.8992 -0.5280 -0.4392
  980MOL0     C29264  -0.585   4.599   4.146  1.2591  0.5622  1.0468
  980MOL0     C29265  -0.726   4.595   4.097 -0.3097  0.7345  1.0975
  980MOL0     C29266  -0.823   4.713   4.126 -0.6081 -0.9905  0.2466
  980MOL0     C29267  -0.961   4.709   4.060 -0.0157  0.3278  0.2863
  980MOL0     C29268  -1.032   4.843   4.085 -0.9584  0.0393  0.1039
  980MOL0     C29269  -1.155   4.876   3.995  0.2720  0.1921 -0.2893
  980MOL0     C29270  -1.270   4.770   4.021  0.3558 -0.0142  0.5338
  980MOL0     C29271  -1.387   4.809   3.941  0.4161  0.3356 -0.0014
  980MOL0    Cl29272  -1.481   4.665   3.888 -0.2393  0.4540  0.4117
  980MOL0     C29273  -0.376   4.879   4.125 -0.5137  0.5863  0.0949
  980MOL0     C29274  -0.251   4.934   4.164  0.5212 -0.1547  0.2603
  980MOL0     O29275   0.070   4.850   4.042 -0.0013  0.2325  0.1244
  980MOL0     C29276   0.206   5.016   4.332 -0.5408  0.1862  0.0866
  980MOL0     C29277   0.326   5.088   4.368 -0.5351  0.3847  0.2821
  980MOL0     N29278   1.071   5.381   4.519  0.3905  0.0158  0.6779
  980MOL0     N29279   1.151   5.307   4.593  0.4949 -0.5024 -0.0913
  980MOL0     C29280   2.161   4.860   4.059 -0.5992 -0.5180  0.5082
  980MOL0     C29281   2.299   4.868   4.023  0.2166  0.6914 -0.1293
  980MOL0     C29282   2.762   4.872   4.121  0.5828  0.2063 -0.0497
  980MOL0     C29283   2.857   4.853   4.224 -0.0009 -0.2171 -0.0243
  980MOL0     C29284   2.990   4.866   4.204  0.0480 -0.5482  0.4579
  980MOL0     C29285   3.037   4.900   4.075  0.9507 -0.4661  0.4449
  980MOL0     O29286   3.175   4.915   4.063  0.2547  0.3514 -0.5519
  980MOL0     C29287   3.243   4.898   3.936  0.0131  1.2320 -0.2884
  980MOL0     C29288   3.392   4.898   3.941 -0.6564 -0.2181  0.4747
  980MOL0     C29289   3.444   5.022   4.024  0.8303  0.2638 -0.1333
  980MOL0     C29290   3.592   5.039   4.027 -0.3378  0.3927 -0.3498
  980MOL0     C29291   3.634   5.150   4.111  0.9461  0.0664 -0.2508
  980MOL0     C29292   3.668   5.243   4.185  0.5411 -0.0371  0.2343
  980MOL0     C29293   2.944   4.929   3.970  1.2340 -0.6736 -0.6218
  980MOL0     C29294   2.807   4.910   3.995  0.8287 -0.1393 -0.5184
  980MOL0     H29295   2.404   5.050   4.292 -1.0263 -1.1724  1.9949
  980MOL0     H29296   2.179   5.046   4.342  1.6352 -0.6465  1.1469
  980MOL0     H29297   1.931   5.078   4.316  1.9939 -0.6183  0.7100
  980MOL0     H29298   1.969   4.931   4.412  3.2132  0.2291 -0.9245
  980MOL0     H29299   1.758   4.949   4.426  0.5183  1.7078 -0.2674
  980MOL0     H29300   1.785   4.815   4.310  1.6217  0.0798 -0.9623
  980MOL0     H29301   1.709   4.969   4.124 -0.8649  1.7543 -0.7699
  980MOL0     H29302   1.686   5.099   4.243  1.6378  0.1143 -3.7198
  980MOL0     H29303   1.469   4.976   4.179  0.6561  0.3817 -0.4539
  980MOL0     H29304   1.531   4.827   4.246  0.9890  0.0261 -0.2232
  980MOL0     H29305   1.553   4.908   4.473  0.5101  1.2911  1.4267
  980MOL0     H29306   1.392   4.893   4.399 -0.4333  0.5534 -3.3598
  980MOL0     H29307   1.393   5.142   4.347  0.0024  0.1455  1.2353
  980MOL0     H29308   1.547   5.158   4.433 -0.6942  0.8523 -0.6905
  980MOL0     H29309   1.437   5.046   4.631 -1.1816 -0.6527  1.8730
  980MOL0     H29310   1.405   5.219   4.607 -2.0630  0.9572 -2.3929
  980MOL0     H29311   1.233   5.066   4.684 -1.3370  0.8931  0.3827
  980MOL0     H29312   1.229   4.984   4.522 -1.6087 -0.7739  1.0064
  980MOL0     H29313   1.083   5.110   4.342 -0.1758  0.1352  0.6374
  980MOL0     H29314   0.927   5.268   4.237  0.6301  1.7635 -1.9521
  980MOL0     H29315   0.950   5.443   4.276 -1.4199  0.5674 -0.6983
  980MOL0     H29316   0.781   5.460   4.441 -4.9949  1.0965 -0.2759
  980MOL0     H29317   0.749   5.289   4.444  0.5850 -0.3758 -0.2831
  980MOL0     H29318   0.597   5.443   4.290 -1.0634 -1.0732 -1.6064
  980MOL0     H29319   0.727   5.434   4.180 -2.3449  1.6808 -0.2537
  980MOL0     H29320   0.706   5.167   4.195 -0.0150 -0.2597  2.4387
  980MOL0     H29321   0.580   5.246   4.122 -1.2083 -1.2242  1.5722
  980MOL0     H29322   0.493   5.067   4.075  1.5282  0.5598  1.7725
  980MOL0     H29323   0.288   4.959   4.008  1.4988 -0.6848  0.1579
  980MOL0     H29324  -0.095   4.639   4.248  0.0334 -0.1774  0.3182
  980MOL0     H29325  -0.303   4.543   4.185  1.3723 -1.6611  1.5673
  980MOL0     H29326  -0.582   4.601   4.255  0.7312 -1.3941  1.1342
  980MOL0     H29327  -0.535   4.509   4.109  0.5654  0.4787  0.2837
  980MOL0     H29328  -0.767   4.495   4.116  1.3090 -0.0566  0.5748
  980MOL0     H29329  -0.719   4.602   3.988 -2.4387  2.0731  0.9946
  980MOL0     H29330  -0.784   4.810   4.096 -0.7788 -1.1087 -0.3661
  980MOL0     H29331  -0.837   4.726   4.234  0.3641  0.8341  0.1845
  980MOL0     H29332  -0.942   4.696   3.953  1.0144  0.9459  0.3793
  980MOL0     H29333  -1.014   4.619   4.095 -1.8222  1.0101 -0.5455
  980MOL0     H29334  -0.954   4.918   4.070 -1.9568  0.6967 -2.3178
  980MOL0     H29335  -1.072   4.839   4.187 -1.2638  1.5990  0.0688
  980MOL0     H29336  -1.116   4.883   3.893 -1.6051 -1.0472 -1.1355
  980MOL0     H29337  -1.189   4.975   4.028 -2.9542 -1.3028  1.2751
  980MOL0     H29338  -1.244   4.667   3.995 -3.7498 -1.0205 -0.3254
  980MOL0     H29339  -1.297   4.768   4.126  1.5097  3.5258  1.0103
  980MOL0     H29340  -1.355   4.865   3.852 -3.0407  2.4636 -0.0945
  980MOL0     H29341  -1.448   4.879   4.000 -2.4830 -0.3942 -1.9152
  980MOL0     H29342  -0.450   4.950   4.090 -1.1284 -0.5627 -1.0200
  980MOL0     H29343  -0.239   5.042   4.163  2.2355 -0.3183 -1.1692
  980MOL0     H29344   0.135   4.989   4.409  0.6156 -0.1178  1.0855
  980MOL0     H29345   0.321   5.138   4.465  1.5535  1.8768 -0.3236
  980MOL0     H29346   2.093   4.818   3.985  1.3857 -0.6019 -1.3504
  980MOL0     H29347   2.323   4.820   3.928 -3.6139  2.1919 -2.0698
  980MOL0     H29348   2.838   4.816   4.325  2.6610 -0.5764  0.4062
  980MOL0     H29349   3.058   4.851   4.288 -1.3045 -0.4534  1.6035
  980MOL0     H29350   3.208   4.981   3.874  3.2669  4.2142  1.5289
  980MOL0     H29351   3.201   4.805   3.896  1.3023  0.0471  0.9827
  980MOL0     H29352   3.427   4.807   3.990 -0.9285 -1.1824 -1.0557
  980MOL0     H29353   3.439   4.900   3.842 -1.8361 -0.5797 -0.1146
  980MOL0     H29354   3.404   5.001   4.124  1.1533 -1.3581 -0.3230
  980MOL0     H29355   3.405   5.118   3.990 -0.8024  0.5350  2.2090
  980MOL0     H29356   3.631   4.947   4.070 -2.0896 -0.8451 -1.3019
  980MOL0     H29357   3.624   5.053   3.924 -3.4701  0.2702 -1.4446
  980MOL0     H29358   3.698   5.317   4.256  1.7576 -2.0585  1.9677
  980MOL0     H29359   2.978   4.978   3.880 -1.5950  1.8750 -0.4689
  980MOL0     H29360   2.737   4.934   3.916 -1.4316 -1.0914  1.0865
  981MOL0     O29361   2.124   5.987   4.809  0.0274 -0.6287 -0.8772
  981MOL0     C29362   2.167   5.873   4.792  0.0269  0.0215  0.2058
  981MOL0     O29363   2.097   5.777   4.737 -0.0952 -0.0042  0.5031
  981MOL0     C29364   1.967   5.794   4.718  0.0331 -0.4063 -0.3640
  981MOL0     C29365   1.898   5.904   4.678  0.3903 -0.3476 -0.2156
  981MOL0     C29366   1.763   5.891   4.655  1.1369 -0.6323 -0.2342
  981MOL0     C29367   1.691   5.772   4.687  0.5366 -0.5486  0.3681
  981MOL0     O29368   1.551   5.769   4.672 -0.0253 -0.7259  0.6954
  981MOL0     C29369   1.487   5.693   4.775 -0.1389  0.6915  0.1804
  981MOL0     C29370   1.341   5.741   4.806 -0.3136  0.1952  0.2074
  981MOL0     C29371   1.342   5.877   4.870 -1.0434  0.3627  0.0905
  981MOL0     C29372   1.197   5.925   4.908  0.3903  0.1301 -1.2382
  981MOL0     C29373   1.197   6.049   5.007  0.1764 -0.4836  0.7889
  981MOL0     C29374   1.073   6.050   5.099  0.3382 -0.9331  0.3869
  981MOL0     C29375   0.932   6.049   5.026  0.3415  0.9456 -0.0572
  981MOL0     C29376   0.844   5.933   5.072  0.4191  0.2349  0.6016
  981MOL0     N29377   0.709   5.961   5.044  0.3398 -0.4070  0.4055
  981MOL0     C29378   0.666   5.944   4.914  0.8007 -0.2275 -0.5275
  981MOL0     C29379   0.531   5.935   4.921  0.5126  0.0097 -0.2677
  981MOL0     C29380   0.435   5.932   4.809 -0.0849  0.0879  0.0596
  981MOL0     C29381   0.450   5.817   4.711  0.1818 -0.3856 -0.3722
  981MOL0     C29382   0.395   5.682   4.755 -0.7660  0.3398  0.3432
  981MOL0     C29383   0.241   5.688   4.782  0.3785  0.2957  0.8476
  981MOL0     O29384   0.165   5.735   4.669 -0.0767  0.4148  0.4327
  981MOL0     C29385   0.031   5.729   4.671  1.4050 -0.3151 -0.3707
  981MOL0     C29386  -0.041   5.668   4.776 -0.6063  1.1437  0.2830
  981MOL0     C29387  -0.180   5.686   4.787  0.3348 -0.3949  0.5107
  981MOL0     C29388  -0.248   5.751   4.687  0.4543  0.3274  0.7039
  981MOL0     C29389  -0.396   5.746   4.691 -0.3177 -0.3649 -1.1553
  981MOL0     O29390  -0.447   5.793   4.580  0.7001 -0.1278  0.7520
  981MOL0     C29391  -0.583   5.795   4.559  0.1359  0.2251  0.1107
  981MOL0     C29392  -0.629   5.729   4.443 -0.4209 -1.1197 -0.6024
  981MOL0     C29393  -0.771   5.723   4.422  0.4838 -0.0434  0.3537
  981MOL0     C29394  -0.855   5.788   4.507 -0.0890 -0.8383  0.2705
  981MOL0     O29395  -0.985   5.801   4.464  0.1679 -0.4966 -0.2985
  981MOL0     C29396  -1.077   5.878   4.533 -0.1596 -0.3304  0.2098
  981MOL0     C29397  -1.204   5.901   4.459  0.4963 -0.6217  0.3614
  981MOL0     C29398  -1.328   5.923   4.540  0.2632  0.1359 -0.2231
  981MOL0     C29399  -1.352   5.794   4.613 -0.3292  0.4366  0.2025
  981MOL0     C29400  -1.498   5.764   4.633 -1.0980 -0.2082 -0.6251
  981MOL0     C29401  -1.575   5.873   4.711  0.7532  0.1135 -0.0110
  981MOL0     C29402  -1.732   5.849   4.685 -0.5897  0.7508  0.0976
  981MOL0     C29403  -1.791   5.793   4.819  0.6119  0.9171  0.3965
  981MOL0    Cl29404  -1.953   5.732   4.805  0.2759 -0.0152  0.1517
  981MOL0     C29405  -0.800   5.863   4.613 -0.0568  0.6108  0.5944
  981MOL0     C29406  -0.670   5.860   4.647 -0.4389  0.8935 -0.0138
  981MOL0     O29407  -0.457   5.696   4.793 -0.3602  0.2460  0.3726
  981MOL0     C29408  -0.173   5.801   4.570  0.2356 -0.9605 -0.1280
  981MOL0     C29409  -0.034   5.798   4.574  0.4462 -0.1479  0.7108
  981MOL0     N29410   0.505   5.927   5.054 -0.8848  0.3660 -0.3866
  981MOL0     N29411   0.608   5.953   5.134 -0.0696 -0.6500 -0.0247
  981MOL0     C29412   1.762   5.663   4.727 -0.7487  0.2424 -0.0561
  981MOL0     C29413   1.897   5.674   4.750 -0.0616 -0.0260 -0.1027
  981MOL0     C29414   2.304   5.853   4.828  0.0668  1.1213  0.7332
  981MOL0     C29415   2.382   5.950   4.884  0.2015 -0.5277 -0.4692
  981MOL0     C29416   2.521   5.940   4.905  0.2465 -0.5234 -0.3267
  981MOL0     C29417   2.577   5.819   4.881 -0.6249  0.0723 -0.6096
  981MOL0     O29418   2.711   5.800   4.898  0.4267 -0.1519 -0.4630
  981MOL0     C29419   2.795   5.830   4.782 -0.7036  0.2092 -0.1635
  981MOL0     C29420   2.891   5.711   4.761  0.3832  0.1125  1.0973
  981MOL0     C29421   2.980   5.722   4.631  0.3724 -0.9902 -0.1223
  981MOL0     C29422   3.019   5.574   4.588 -0.4492 -0.3687  0.3609
  981MOL0     C29423   2.905   5.485   4.566 -0.4461 -0.2960  0.7737
  981MOL0     C29424   2.817   5.403   4.526 -0.5026  0.0737  0.3072
  981MOL0     C29425   2.506   5.709   4.837  0.6653  0.6739 -0.4598
  981MOL0     C29426   2.371   5.731   4.802  0.2792 -0.3140 -0.1532
  981MOL0     H29427   1.955   5.990   4.642  1.9812 -0.8164  1.0115
  981MOL0     H29428   1.704   5.974   4.615  0.9175 -0.3854  0.5869
  981MOL0     H29429   1.548   5.691   4.867  0.9616  1.1376 -0.5178
  981MOL0     H29430   1.484   5.591   4.738  1.8386  1.2011 -1.5610
  981MOL0     H29431   1.292   5.672   4.875  3.0335 -1.3717  1.2197
  981MOL0     H29432   1.273   5.744   4.720 -0.8470  1.3090  0.6476
  981MOL0     H29433   1.384   5.961   4.813 -2.5793  0.9959 -0.1657
  981MOL0     H29434   1.409   5.870   4.957 -0.5932  0.9419 -0.2000
  981MOL0     H29435   1.154   5.949   4.811  0.4130 -0.0163 -1.2851
  981MOL0     H29436   1.145   5.836   4.944 -2.4538  1.5043 -1.6695
  981MOL0     H29437   1.201   6.140   4.946 -1.6346 -1.2357 -0.5638
  981MOL0     H29438   1.287   6.034   5.067 -0.2660 -2.9117  0.9716
  981MOL0     H29439   1.084   6.138   5.163 -0.6736 -1.7156  1.7002
  981MOL0     H29440   1.079   5.970   5.173 -1.3992  0.0755  1.6875
  981MOL0     H29441   0.884   6.138   5.067  1.2194  0.9116  1.1146
  981MOL0     H29442   0.945   6.058   4.918  2.7740  0.4119  0.1171
  981MOL0     H29443   0.863   5.929   5.179  0.2725  2.7400  0.7704
  981MOL0     H29444   0.881   5.841   5.024  0.6378  0.5488  0.1595
  981MOL0     H29445   0.731   5.945   4.827  1.2009  1.5180 -0.2422
  981MOL0     H29446   0.456   6.024   4.754  0.7617 -0.8765 -1.2877
  981MOL0     H29447   0.333   5.939   4.850  0.4410 -0.1900  1.4713
  981MOL0     H29448   0.556   5.804   4.687 -0.0938 -0.6342 -1.5518
  981MOL0     H29449   0.386   5.846   4.627 -1.3804  2.3056  1.5636
  981MOL0     H29450   0.412   5.611   4.673  0.1716 -0.9166  1.5785
  981MOL0     H29451   0.456   5.638   4.835 -0.0767 -0.9953 -0.8609
  981MOL0     H29452   0.205   5.733   4.874 -3.9745 -0.3688 -0.3075
  981MOL0     H29453   0.215   5.583   4.796  0.7675  0.4887  3.4440
  981MOL0     H29454   0.022   5.609   4.841  0.1511 -0.0704 -1.4747
  981MOL0     H29455  -0.228   5.639   4.872 -0.2027 -1.7012 -0.4763
  981MOL0     H29456  -0.567   5.691   4.363 -0.1484 -2.4295  0.2077
  981MOL0     H29457  -0.826   5.675   4.342 -1.9275  1.4178  1.0470
  981MOL0     H29458  -1.042   5.979   4.555  0.7933 -0.2145 -1.6664
  981MOL0     H29459  -1.106   5.827   4.625 -1.2793 -0.5981 -0.2684
  981MOL0     H29460  -1.211   5.817   4.389  2.1330 -0.4587 -0.0485
  981MOL0     H29461  -1.196   5.989   4.395 -2.0337 -1.4754 -1.2557
  981MOL0     H29462  -1.420   5.949   4.488 -0.7883 -0.2601  1.3864
  981MOL0     H29463  -1.317   6.013   4.601 -0.2510  1.4433 -1.9798
  981MOL0     H29464  -1.306   5.714   4.555 -0.0517  1.1896 -0.6472
  981MOL0     H29465  -1.296   5.797   4.707  0.1421 -2.7402  0.1299
  981MOL0     H29466  -1.516   5.672   4.690  0.1361  0.3659  0.7526
  981MOL0     H29467  -1.532   5.753   4.530 -0.9498 -0.3409 -0.6603
  981MOL0     H29468  -1.556   5.968   4.660 -0.4538 -0.1738 -1.0624
  981MOL0     H29469  -1.539   5.889   4.813  2.6248 -2.0520 -0.2573
  981MOL0     H29470  -1.770   5.949   4.662 -2.4007 -0.0029 -0.3180
  981MOL0     H29471  -1.752   5.779   4.604 -0.6368 -1.3859  1.8826
  981MOL0     H29472  -1.796   5.868   4.899 -0.9960  2.3702 -0.9606
  981MOL0     H29473  -1.724   5.715   4.855 -1.4430 -1.5660 -0.8362
  981MOL0     H29474  -0.863   5.927   4.673  0.0056  1.1042  0.1431
  981MOL0     H29475  -0.643   5.912   4.738  2.5268  1.3597 -1.0683
  981MOL0     H29476  -0.228   5.830   4.482 -1.8971 -1.4661  0.9793
  981MOL0     H29477   0.026   5.841   4.495 -1.4466 -0.5752 -1.0455
  981MOL0     H29478   1.721   5.563   4.737  1.0690 -0.4400  1.1778
  981MOL0     H29479   1.955   5.593   4.792  0.1587 -0.0516 -0.4546
  981MOL0     H29480   2.331   6.043   4.905  1.8274  0.9143 -2.4756
  981MOL0     H29481   2.577   6.026   4.940 -0.1494 -0.6447  0.6531
  981MOL0     H29482   2.856   5.920   4.791 -0.6103  0.1600 -0.3045
  981MOL0     H29483   2.735   5.839   4.691 -1.4514 -0.7522  0.2149
  981MOL0     H29484   2.951   5.705   4.852 -1.1218 -0.6652  2.0734
  981MOL0     H29485   2.823   5.625   4.765  3.8146 -3.1982 -2.5635
  981MOL0     H29486   3.072   5.778   4.646 -0.4486  0.3794 -0.0555
  981MOL0     H29487   2.921   5.766   4.550  0.2809  2.9733  1.8552
  981MOL0     H29488   3.078   5.580   4.496 -0.1731 -2.5708  0.3268
  981MOL0     H29489   3.087   5.523   4.657 -0.0150  0.9554  0.9321
  981MOL0     H29490   2.740   5.333   4.499 -0.0048 -0.6940  0.8263
  981MOL0     H29491   2.544   5.607   4.834 -0.9626 -0.1899  2.9783
  981MOL0     H29492   2.302   5.655   4.767  0.9670 -1.1291  0.2235
  982MOL0     O29493   4.047   5.715   1.564  0.3240 -0.6916 -0.1704
  982MOL0     C29494   4.040   5.619   1.637  1.1306 -0.7321  0.7573
  982MOL0     O29495   3.921   5.574   1.671  0.0222  0.2611  0.1833
  982MOL0     C29496   3.801   5.611   1.617 -0.3791 -0.1563  0.9386
  982MOL0     C29497   3.781   5.638   1.486 -0.1607  0.8283  0.3081
  982MOL0     C29498   3.661   5.685   1.428  0.4126  0.2676 -0.5608
  982MOL0     C29499   3.548   5.700   1.512  0.1132 -0.2798 -0.0594
  982MOL0     O29500   3.429   5.743   1.467 -0.3671  0.4085 -0.6697
  982MOL0     C29501   3.413   5.774   1.326  0.5207  0.0702 -0.0883
  982MOL0     C29502   3.259   5.794   1.304 -0.0257 -0.4432  0.7424
  982MOL0     C29503   3.209   5.663   1.237  0.3004  0.0289 -0.6814
  982MOL0     C29504   3.069   5.698   1.182 -0.5683  0.3544  1.4597
  982MOL0     C29505   3.004   5.557   1.167 -0.0660 -0.7365  0.5772
  982MOL0     C29506   2.886   5.573   1.077  0.2348 -0.3310 -0.2535
  982MOL0     C29507   2.832   5.426   1.061 -0.0046  0.0943 -0.8132
  982MOL0     C29508   2.741   5.416   0.940 -0.0078  0.3263  0.8144
  982MOL0     N29509   2.666   5.288   0.931  0.7926  0.3988 -0.0246
  982MOL0     C29510   2.568   5.248   1.021  0.1920 -0.1398 -0.1877
  982MOL0     C29511   2.529   5.121   0.984 -0.2651  0.1300  0.5498
  982MOL0     C29512   2.426   5.037   1.052 -1.9925 -0.1257  0.6328
  982MOL0     C29513   2.302   5.027   0.954 -0.5255 -0.3078  0.0214
  982MOL0     C29514   2.185   4.945   1.011 -0.1627  0.0214 -0.7261
  982MOL0     C29515   2.065   4.951   0.915  0.2754 -0.0776  0.2003
  982MOL0     O29516   1.988   4.836   0.946 -0.1713 -0.5620  0.4105
  982MOL0     C29517   1.860   4.830   0.890 -0.1868 -1.1383  0.1629
  982MOL0     C29518   1.828   4.851   0.754  0.1763 -0.3467 -0.2298
  982MOL0     C29519   1.693   4.859   0.717 -0.7186  0.4050 -0.8914
  982MOL0     C29520   1.592   4.852   0.814 -0.5973  0.9982  0.0968
  982MOL0     C29521   1.447   4.850   0.784  0.1384  1.0942 -0.5740
  982MOL0     O29522   1.345   4.863   0.873 -0.5347  0.0888 -0.2971
  982MOL0     C29523   1.211   4.833   0.841 -0.4732  0.7602 -0.5203
  982MOL0     C29524   1.176   4.732   0.745 -0.4407 -0.8624  0.1284
  982MOL0     C29525   1.044   4.714   0.698  0.3334  0.0285 -0.0818
  982MOL0     C29526   0.934   4.786   0.767  0.0996  0.3069  0.5540
  982MOL0     O29527   0.805   4.759   0.746  0.0571  0.5893  0.4414
  982MOL0     C29528   0.769   4.690   0.624 -0.8233  0.2427  0.8380
  982MOL0     C29529   0.622   4.659   0.648 -0.7956 -0.8210 -0.1255
  982MOL0     C29530   0.529   4.773   0.599 -0.3193 -0.0841 -0.7066
  982MOL0     C29531   0.393   4.707   0.554  0.1879  0.4615 -0.3323
  982MOL0     C29532   0.277   4.802   0.533  0.1527 -0.8474  1.2361
  982MOL0     C29533   0.148   4.737   0.469 -0.3418 -1.0022  0.0681
  982MOL0     C29534   0.031   4.830   0.422  0.5734  0.3001  0.3376
  982MOL0     C29535  -0.021   4.929   0.509  0.8305  0.0140  0.2077
  982MOL0    Cl29536  -0.113   4.848   0.640  0.5526  0.1475 -0.1349
  982MOL0     C29537   0.961   4.871   0.873 -0.1876  0.3524  0.6329
  982MOL0     C29538   1.102   4.900   0.901  0.3228  0.5012  0.3236
  982MOL0     O29539   1.432   4.839   0.667  0.2456 -0.5542 -0.3262
  982MOL0     C29540   1.628   4.832   0.945 -0.2241  0.1298 -0.3100
  982MOL0     C29541   1.761   4.821   0.986  0.2009  0.0035 -0.5423
  982MOL0     N29542   2.593   5.090   0.865  0.3423  0.0350  0.2480
  982MOL0     N29543   2.677   5.189   0.837  0.6003 -0.0452 -0.3426
  982MOL0     C29544   3.569   5.661   1.650  0.5999  0.2116  0.5041
  982MOL0     C29545   3.684   5.606   1.696  0.8926 -0.1498  0.5301
  982MOL0     C29546   4.161   5.551   1.685  0.6092  1.1929 -0.0503
  982MOL0     C29547   4.159   5.465   1.803 -0.5080 -0.5303 -0.2642
  982MOL0     C29548   4.275   5.396   1.847  0.5951 -0.4453  0.3965
  982MOL0     C29549   4.393   5.421   1.782  0.2344 -0.3156 -0.3235
  982MOL0     O29550   4.508   5.353   1.796  0.1314 -0.2785  0.5567
  982MOL0     C29551   4.547   5.285   1.918 -0.1918  0.1698 -0.6147
  982MOL0     C29552   4.578   5.372   2.036  0.4464 -0.4089 -0.3477
  982MOL0     C29553   4.685   5.475   2.003 -0.9793  0.2481  0.2298
  982MOL0     C29554   4.817   5.412   1.940 -0.5545 -0.0401  0.9614
  982MOL0     C29555   4.880   5.321   2.039  0.6613 -0.3655  0.2491
  982MOL0     C29556   4.929   5.247   2.121 -1.0151  0.1317 -0.1301
  982MOL0     C29557   4.405   5.513   1.677  0.3520  0.3492  0.0113
  982MOL0     C29558   4.286   5.579   1.624  0.5632  0.8508 -0.5033
  982MOL0     H29559   3.868   5.635   1.421 -1.1857  1.9689 -1.2058
  982MOL0     H29560   3.656   5.735   1.332  0.4236 -1.4950 -1.5106
  982MOL0     H29561   3.443   5.692   1.260 -3.5115 -1.7180  0.0369
  982MOL0     H29562   3.468   5.866   1.301  0.0706  0.5590  0.6752
  982MOL0     H29563   3.234   5.883   1.246  0.3880 -0.6655  0.2168
  982MOL0     H29564   3.202   5.804   1.397  0.5524 -1.0249  1.1654
  982MOL0     H29565   3.197   5.592   1.319 -1.1411 -0.2778 -1.1379
  982MOL0     H29566   3.276   5.623   1.161  0.1699 -0.3331 -0.6039
  982MOL0     H29567   3.001   5.754   1.247 -0.7796  0.1268  1.4398
  982MOL0     H29568   3.073   5.749   1.086  0.1430 -1.3685  0.5285
  982MOL0     H29569   2.976   5.515   1.264 -1.8218  2.7653  1.7529
  982MOL0     H29570   3.067   5.488   1.111  0.6836  1.8907 -2.0552
  982MOL0     H29571   2.901   5.610   0.975 -4.2708  2.2176 -0.2243
  982MOL0     H29572   2.824   5.641   1.134  1.7876 -0.2856  1.4964
  982MOL0     H29573   2.916   5.359   1.042 -1.0658 -1.1086 -1.3990
  982MOL0     H29574   2.779   5.402   1.153 -1.1979  0.7609 -1.3006
  982MOL0     H29575   2.805   5.411   0.851 -2.8459 -1.4078 -1.2925
  982MOL0     H29576   2.676   5.502   0.924 -1.1451 -0.1013  2.8482
  982MOL0     H29577   2.544   5.303   1.111  1.0859 -0.9770  0.5909
  982MOL0     H29578   2.406   5.083   1.149 -1.1882  0.0533  0.7225
  982MOL0     H29579   2.464   4.937   1.072 -1.5879 -0.5849 -2.0576
  982MOL0     H29580   2.338   4.976   0.864 -1.0915  2.4040 -1.8838
  982MOL0     H29581   2.272   5.128   0.925  2.2590  0.1805 -1.4588
  982MOL0     H29582   2.213   4.844   1.042 -2.8342  0.6385  4.7871
  982MOL0     H29583   2.152   4.986   1.106  1.0151  0.5948 -0.5507
  982MOL0     H29584   2.090   4.958   0.809  0.8271  0.0533  0.3376
  982MOL0     H29585   2.010   5.040   0.947 -1.1844 -0.5559 -0.8599
  982MOL0     H29586   1.918   4.850   0.693  0.8806 -3.8483  0.6415
  982MOL0     H29587   1.677   4.865   0.610  4.2382 -1.9976 -2.0475
  982MOL0     H29588   1.250   4.663   0.705 -1.7563 -3.7349  2.1985
  982MOL0     H29589   1.026   4.644   0.617 -2.4005  0.3779  0.1349
  982MOL0     H29590   0.817   4.592   0.614 -2.3475 -0.6877  2.1680
  982MOL0     H29591   0.791   4.756   0.540  1.9368  1.5027  2.4197
  982MOL0     H29592   0.597   4.620   0.747  1.3868 -1.5764  0.1751
  982MOL0     H29593   0.590   4.582   0.577 -5.5299  0.5208  0.2364
  982MOL0     H29594   0.583   4.826   0.520  0.3831 -0.7401 -0.6858
  982MOL0     H29595   0.509   4.847   0.678 -1.4852  0.4348 -1.4660
  982MOL0     H29596   0.416   4.655   0.460 -1.1205  1.3097 -1.1438
  982MOL0     H29597   0.355   4.630   0.622 -1.2492  1.4325  0.0040
  982MOL0     H29598   0.309   4.876   0.459  4.3370 -3.0903  0.4418
  982MOL0     H29599   0.241   4.854   0.622 -2.1875 -0.4748  0.1481
  982MOL0     H29600   0.112   4.665   0.543 -1.5140  1.2921  1.8621
  982MOL0     H29601   0.181   4.691   0.375  1.5887 -0.6235  0.5215
  982MOL0     H29602   0.065   4.877   0.329  1.2990 -1.4673 -0.3322
  982MOL0     H29603  -0.051   4.765   0.390  0.2504  0.3588  1.0272
  982MOL0     H29604  -0.087   4.998   0.456  0.0179  0.0426  1.2228
  982MOL0     H29605   0.062   4.986   0.551  1.9547 -1.1781 -0.3313
  982MOL0     H29606   0.879   4.911   0.932  0.0254  1.8496 -0.0196
  982MOL0     H29607   1.122   4.967   0.984 -2.5945 -0.3808  1.8878
  982MOL0     H29608   1.550   4.812   1.018  0.7298 -3.5341 -0.0682
  982MOL0     H29609   1.788   4.801   1.089  2.5145  1.2404 -0.8561
  982MOL0     H29610   3.486   5.660   1.720  0.0136 -2.4676 -0.1184
  982MOL0     H29611   3.705   5.586   1.801 -0.0301  1.7808  1.1505
  982MOL0     H29612   4.059   5.446   1.841 -0.9337  0.1686 -0.9884
  982MOL0     H29613   4.257   5.319   1.921  1.7926 -2.4017 -1.2350
  982MOL0     H29614   4.640   5.228   1.910  0.4926 -0.4314  5.8327
  982MOL0     H29615   4.463   5.222   1.948 -0.2629  0.1824 -0.7883
  982MOL0     H29616   4.490   5.424   2.076  3.2423  1.8377  3.6227
  982MOL0     H29617   4.600   5.322   2.130 -3.3952 -0.4082  0.7326
  982MOL0     H29618   4.710   5.540   2.087 -1.7088 -1.5713  1.9225
  982MOL0     H29619   4.647   5.544   1.927  0.4576 -0.4996 -1.2472
  982MOL0     H29620   4.804   5.358   1.846  0.3342  0.0874  0.7529
  982MOL0     H29621   4.888   5.491   1.913 -2.8739  1.7917 -0.0861
  982MOL0     H29622   4.964   5.182   2.199  2.3168 -2.8215 -3.6490
  982MOL0     H29623   4.502   5.535   1.635  0.3378 -2.6597 -1.9010
  982MOL0     H29624   4.292   5.651   1.544  0.0651  1.6085  0.1210
  983MOL0     O29625   8.276   7.951   6.421  0.0978 -1.1236  0.3240
  983MOL0     C29626   8.297   8.028   6.323 -0.0490 -0.5929 -0.1660
  983MOL0     O29627   8.216   8.050   6.218 -0.1173  0.5638 -0.2612
  983MOL0     C29628   8.093   7.990   6.212  0.6641 -0.2310 -0.4643
  983MOL0     C29629   8.026   8.004   6.091  0.6267 -0.2207  0.1538
  983MOL0     C29630   7.903   7.942   6.061 -0.5057  0.2628  0.1979
  983MOL0     C29631   7.841   7.863   6.155  0.6269 -1.0986  0.3045
  983MOL0     O29632   7.723   7.807   6.118 -0.7169  0.0243 -0.0134
  983MOL0     C29633   7.683   7.695   6.200 -0.5449  0.0745  0.6029
  983MOL0     C29634   7.616   7.589   6.101  0.3347 -0.6288  0.5780
  983MOL0     C29635   7.468   7.628   6.087 -0.2694  0.1549 -0.8746
  983MOL0     C29636   7.387   7.508   6.049  0.7620  0.4904  0.3919
  983MOL0     C29637   7.240   7.557   6.026  0.7571 -0.5778 -0.2571
  983MOL0     C29638   7.163   7.478   5.924 -0.4101  0.1984 -0.6028
  983MOL0     C29639   7.022   7.516   5.898  0.6446 -0.0922  0.0533
  983MOL0     C29640   6.931   7.512   6.019  0.1966 -0.3396  0.4212
  983MOL0     N29641   6.793   7.568   5.992 -1.0521 -0.0251  0.2958
  983MOL0     C29642   6.752   7.691   6.042  0.1591  0.3140 -0.3600
  983MOL0     C29643   6.617   7.684   6.023 -0.1596 -0.7077  0.5672
  983MOL0     C29644   6.537   7.804   6.057  0.4158  0.0043 -0.3213
  983MOL0     C29645   6.386   7.805   6.018 -0.5749 -0.4463 -0.4720
  983MOL0     C29646   6.308   7.698   6.084  0.4284 -0.2642  0.0278
  983MOL0     C29647   6.170   7.676   6.024 -0.2638  0.9748  0.4411
  983MOL0     O29648   6.094   7.795   6.050  0.0164  0.2498  0.2346
  983MOL0     C29649   5.974   7.810   6.000  0.1411  0.2854 -0.5799
  983MOL0     C29650   5.901   7.920   6.036 -0.3565 -0.3278  0.2721
  983MOL0     C29651   5.764   7.928   6.005  0.3788  0.2263 -0.0357
  983MOL0     C29652   5.694   7.831   5.932 -1.0352 -0.5438 -0.3740
  983MOL0     C29653   5.548   7.842   5.909 -0.4714  0.4636 -0.0034
  983MOL0     O29654   5.495   7.958   5.951  0.5290 -0.4893 -0.1949
  983MOL0     C29655   5.357   7.953   5.968 -0.7364  0.6552 -0.3431
  983MOL0     C29656   5.261   7.939   5.865  1.0746 -0.4023 -1.6241
  983MOL0     C29657   5.124   7.940   5.902 -0.1928  0.0063  0.2181
  983MOL0     C29658   5.088   7.938   6.037  0.4132  0.2491  0.1723
  983MOL0     O29659   4.956   7.927   6.086 -0.7036  0.5223  0.5001
  983MOL0     C29660   4.851   7.891   5.990 -0.4152  0.0393 -0.4882
  983MOL0     C29661   4.719   7.874   6.071  0.2019  0.0780  0.3233
  983MOL0     C29662   4.636   8.005   6.089 -0.3936  0.0480 -0.8563
  983MOL0     C29663   4.553   8.053   5.963  0.4778  1.2214 -0.3189
  983MOL0     C29664   4.481   7.945   5.878  0.3442  0.4440  0.3658
  983MOL0     C29665   4.440   8.018   5.747  0.4399 -0.2445 -0.0601
  983MOL0     C29666   4.407   7.907   5.647 -0.5535 -0.2204  0.0526
  983MOL0     C29667   4.408   7.958   5.498  0.3007 -0.0593  0.3998
  983MOL0    Cl29668   4.547   8.070   5.473 -0.1687  0.1862 -0.2198
  983MOL0     C29669   5.181   7.957   6.138  0.6413 -0.0378  0.7790
  983MOL0     C29670   5.318   7.966   6.102  1.2917  0.0541 -0.5403
  983MOL0     O29671   5.490   7.748   5.858 -0.4339  0.7625 -0.0670
  983MOL0     C29672   5.770   7.716   5.902 -0.4105  0.1692 -0.2482
  983MOL0     C29673   5.902   7.706   5.937 -0.2561 -0.0808 -0.8995
  983MOL0     N29674   6.582   7.563   5.962  0.4738  0.1466  0.4931
  983MOL0     N29675   6.684   7.496   5.965  0.4174  0.4097 -0.6930
  983MOL0     C29676   7.898   7.866   6.287  1.0543  0.0416 -0.2875
  983MOL0     C29677   8.021   7.921   6.317  0.0308  0.9724 -0.1748
  983MOL0     C29678   8.422   8.105   6.347 -0.7855 -0.4752  0.1399
  983MOL0     C29679   8.466   8.207   6.254  0.0983 -0.0558 -0.4655
  983MOL0     C29680   8.584   8.276   6.275  0.4532  0.5314  0.0210
  983MOL0     C29681   8.661   8.261   6.390  0.2508  0.4144  0.0915
  983MOL0     O29682   8.778   8.330   6.414  0.4775  0.7814 -0.3030
  983MOL0     C29683   8.830   8.422   6.322 -0.3114  0.2120  0.2069
  983MOL0     C29684   8.928   8.379   6.215 -0.1119 -0.2052 -0.1119
  983MOL0     C29685   9.044   8.290   6.264 -0.3396  0.4017 -0.1308
  983MOL0     C29686   9.134   8.347   6.373  0.7801 -0.6452 -0.1270
  983MOL0     C29687   9.246   8.251   6.374 -0.3615  0.0086  0.3778
  983MOL0     C29688   9.335   8.170   6.360  0.0313 -0.2662 -1.5823
  983MOL0     C29689   8.614   8.174   6.488 -0.3701  0.5151  0.1437
  983MOL0     C29690   8.507   8.096   6.466 -0.5593  0.0410  0.5293
  983MOL0     H29691   8.071   8.053   6.005 -0.3161  1.1579  0.4142
  983MOL0     H29692   7.872   7.948   5.958 -1.2047 -0.1106  0.3783
  983MOL0     H29693   7.611   7.726   6.277 -0.4001  2.1578 -0.0246
  983MOL0     H29694   7.771   7.648   6.245 -0.9032  1.4758  2.9900
  983MOL0     H29695   7.624   7.490   6.146 -0.7102 -0.9620  0.0640
  983MOL0     H29696   7.657   7.587   5.999 -2.7991  0.0992 -0.8180
  983MOL0     H29697   7.458   7.700   6.005  0.0541 -1.3133 -2.2474
  983MOL0     H29698   7.422   7.673   6.175  0.3018 -2.8406  1.0815
  983MOL0     H29699   7.428   7.469   5.955 -2.7805 -1.2787 -0.6087
  983MOL0     H29700   7.377   7.426   6.120  0.1685 -0.8139 -1.1196
  983MOL0     H29701   7.245   7.659   5.990  1.3371  0.2461  1.9531
  983MOL0     H29702   7.186   7.558   6.121  1.0788 -0.8252 -0.0674
  983MOL0     H29703   7.163   7.374   5.958  1.3390 -0.0458 -1.2640
  983MOL0     H29704   7.228   7.469   5.836  0.5274 -1.8737  0.2387
  983MOL0     H29705   7.014   7.619   5.862  1.0777 -0.7291 -2.0328
  983MOL0     H29706   6.973   7.453   5.823  0.4639  0.0441  0.0551
  983MOL0     H29707   6.971   7.576   6.098 -1.6898 -0.1592  1.2678
  983MOL0     H29708   6.916   7.411   6.056 -0.5390  0.2716  1.8497
  983MOL0     H29709   6.814   7.769   6.085  2.8262 -1.6726 -0.3044
  983MOL0     H29710   6.586   7.885   6.003 -2.4550  0.5373 -2.3894
  983MOL0     H29711   6.544   7.833   6.162  1.0667  0.5035 -0.5022
  983MOL0     H29712   6.375   7.796   5.910 -3.6857 -1.1205 -0.2099
  983MOL0     H29713   6.339   7.901   6.042  0.7239 -0.1181  0.8676
  983MOL0     H29714   6.365   7.605   6.092  1.2871  0.0614 -1.8675
  983MOL0     H29715   6.278   7.725   6.186  2.6417 -0.2216  0.7122
  983MOL0     H29716   6.118   7.588   6.063 -1.2185  1.7809  1.0197
  983MOL0     H29717   6.182   7.663   5.916  0.3505  0.0092  0.6054
  983MOL0     H29718   5.945   7.995   6.102  0.4258  0.7298 -1.4019
  983MOL0     H29719   5.712   8.017   6.038 -1.5825 -0.6624 -0.5564
  983MOL0     H29720   5.297   7.936   5.762  0.1529 -1.5481 -1.9393
  983MOL0     H29721   5.052   7.923   5.823 -1.7069  0.2202  1.4783
  983MOL0     H29722   4.883   7.795   5.950  0.4156  0.5547 -1.0794
  983MOL0     H29723   4.857   7.971   5.916 -0.7819  1.2609  0.7636
  983MOL0     H29724   4.731   7.816   6.163 -1.6169 -2.6132 -1.0224
  983MOL0     H29725   4.669   7.785   6.032  0.8300 -0.5659  0.9563
  983MOL0     H29726   4.711   8.081   6.113 -0.4624  0.3235 -1.5007
  983MOL0     H29727   4.562   7.998   6.170 -0.7661  0.5037 -1.1514
  983MOL0     H29728   4.482   8.127   6.002  1.3945  1.5295  0.8039
  983MOL0     H29729   4.619   8.109   5.896  0.4119 -1.6795 -3.0549
  983MOL0     H29730   4.397   7.902   5.934 -0.2662  2.8038  1.4315
  983MOL0     H29731   4.549   7.862   5.857 -0.3767  0.1581 -0.9217
  983MOL0     H29732   4.517   8.084   5.705 -0.8013  1.6445  0.5399
  983MOL0     H29733   4.352   8.080   5.764 -0.0044 -0.6406 -0.8511
  983MOL0     H29734   4.480   7.826   5.657  0.1723  0.5723  1.4010
  983MOL0     H29735   4.309   7.876   5.684 -0.1072  0.1921  1.6291
  983MOL0     H29736   4.319   8.010   5.461  0.6641 -1.1749 -2.2381
  983MOL0     H29737   4.421   7.873   5.430  0.6105  0.5369 -0.2906
  983MOL0     H29738   5.143   7.944   6.239 -1.3581  0.5374  0.1545
  983MOL0     H29739   5.393   7.970   6.180 -1.9666 -1.0802  2.9726
  983MOL0     H29740   5.735   7.643   5.831  0.3554 -0.4086 -0.0462
  983MOL0     H29741   5.956   7.613   5.921  2.1560  1.1204 -0.2482
  983MOL0     H29742   7.838   7.825   6.368  1.7780  1.9127  1.2861
  983MOL0     H29743   8.046   7.907   6.422 -2.5748  0.3197  0.4132
  983MOL0     H29744   8.402   8.232   6.169  0.3066 -2.1133 -1.2790
  983MOL0     H29745   8.605   8.350   6.198 -4.2257  1.1820 -0.8965
  983MOL0     H29746   8.877   8.502   6.379  1.0906 -0.0449 -0.5602
  983MOL0     H29747   8.747   8.480   6.279  1.0793  1.3845 -0.9822
  983MOL0     H29748   8.869   8.319   6.145 -1.5524  4.0760 -2.9700
  983MOL0     H29749   8.964   8.466   6.160  0.2198 -0.2525  0.0252
  983MOL0     H29750   9.108   8.280   6.175  2.2567  0.8830  1.5743
  983MOL0     H29751   9.008   8.192   6.295  0.1432 -0.5752 -2.3930
  983MOL0     H29752   9.166   8.451   6.362  1.7027 -0.1315  4.9285
  983MOL0     H29753   9.090   8.347   6.474  2.1217  0.6850  0.5011
  983MOL0     H29754   9.408   8.091   6.360  0.4815  0.0867  0.9196
  983MOL0     H29755   8.672   8.168   6.579  2.2991 -0.4328 -1.5146
  983MOL0     H29756   8.489   8.018   6.540 -1.2096 -0.0847  0.2466
  984MOL0     O29757   4.164   2.574   6.230  0.3517  0.7876 -0.2938
  984MOL0     C29758   4.163   2.589   6.351  0.1089 -0.2307 -0.8134
  984MOL0     O29759   4.056   2.560   6.436 -0.0081 -0.5491 -0.5056
  984MOL0     C29760   3.938   2.496   6.404  0.0820  0.5370  0.3980
  984MOL0     C29761   3.878   2.473   6.282 -0.2355  0.6140  0.8134
  984MOL0     C29762   3.749   2.426   6.264 -0.5443  0.6655  0.5685
  984MOL0     C29763   3.668   2.420   6.375 -0.8024 -0.1732  0.0566
  984MOL0     O29764   3.534   2.378   6.358 -0.7617  0.2497  0.0631
  984MOL0     C29765   3.441   2.413   6.465  0.3511  0.6915  0.1308
  984MOL0     C29766   3.297   2.396   6.396 -0.7632  0.5606 -0.3071
  984MOL0     C29767   3.181   2.445   6.484 -0.3778 -0.1509  0.2751
  984MOL0     C29768   3.050   2.430   6.403 -0.1408  0.2217  0.0050
  984MOL0     C29769   2.924   2.422   6.492  0.3789 -0.1896  0.4332
  984MOL0     C29770   2.927   2.318   6.605  0.1015 -0.3261 -0.3364
  984MOL0     C29771   2.954   2.175   6.564 -0.0518  0.4973 -0.0158
  984MOL0     C29772   2.862   2.115   6.452 -0.0022 -0.0276 -0.3360
  984MOL0     N29773   2.717   2.114   6.500  0.6997  0.7078  0.6874
  984MOL0     C29774   2.647   2.012   6.550  0.7068 -0.2216 -0.1497
  984MOL0     C29775   2.526   2.074   6.575  0.1892 -0.6161  0.6565
  984MOL0     C29776   2.412   1.994   6.625 -0.4965  0.8420  0.8619
  984MOL0     C29777   2.293   1.994   6.523 -0.0453 -0.0625 -0.0170
  984MOL0     C29778   2.179   1.898   6.568 -0.6755  0.4331 -0.1118
  984MOL0     C29779   2.077   1.871   6.455 -0.0238  0.0821 -0.7674
  984MOL0     O29780   1.989   1.986   6.458  0.8194 -0.2776 -0.4714
  984MOL0     C29781   1.888   1.982   6.371 -0.4399  0.6025  0.3017
  984MOL0     C29782   1.812   2.095   6.370 -0.1306  0.4031  1.1993
  984MOL0     C29783   1.700   2.099   6.281  1.0087 -0.6941 -0.3037
  984MOL0     C29784   1.668   1.998   6.186 -0.3051  0.2298  0.4158
  984MOL0     C29785   1.555   2.023   6.098 -0.2553 -0.0582 -0.5948
  984MOL0     O29786   1.505   2.142   6.085 -0.4657  0.4340 -0.9136
  984MOL0     C29787   1.392   2.154   6.007  0.5738 -0.2844  0.4901
  984MOL0     C29788   1.407   2.142   5.866  0.4698 -0.5831  0.2326
  984MOL0     C29789   1.289   2.158   5.789 -0.6995 -0.2629  0.5313
  984MOL0     C29790   1.168   2.205   5.842  1.0402  0.1895 -0.2186
  984MOL0     O29791   1.046   2.216   5.769  0.0858  0.9637  0.5127
  984MOL0     C29792   0.917   2.176   5.822  0.0696  0.0780 -1.0369
  984MOL0     C29793   0.839   2.125   5.702  0.1217 -0.4358 -0.8694
  984MOL0     C29794   0.693   2.129   5.738 -0.9121 -0.5377 -0.7749
  984MOL0     C29795   0.608   2.053   5.638 -0.4238  0.0718  0.0075
  984MOL0     C29796   0.469   2.026   5.689  0.1785  0.2633  0.1338
  984MOL0     C29797   0.393   2.149   5.737 -0.5124  0.6101 -0.3822
  984MOL0     C29798   0.358   2.258   5.629  0.2670 -0.2323 -0.1787
  984MOL0     C29799   0.235   2.211   5.542 -0.1986  0.1505  0.2271
  984MOL0    Cl29800   0.089   2.209   5.651 -0.1852 -0.1479 -0.6159
  984MOL0     C29801   1.166   2.238   5.974 -0.0004 -0.5166  0.1965
  984MOL0     C29802   1.273   2.209   6.057 -1.0560  0.3791  0.8379
  984MOL0     O29803   1.529   1.921   6.028 -0.0576 -0.0252 -0.0746
  984MOL0     C29804   1.745   1.881   6.194 -0.5150  0.0819  0.0525
  984MOL0     C29805   1.855   1.871   6.281 -0.1804 -0.7314 -0.3247
  984MOL0     N29806   2.528   2.207   6.543  0.7291 -0.0357  0.1417
  984MOL0     N29807   2.643   2.233   6.495  0.6583 -0.5320 -0.5242
  984MOL0     C29808   3.728   2.449   6.504 -0.1926 -0.0750  0.7445
  984MOL0     C29809   3.852   2.483   6.522  0.0385 -0.3214 -0.3956
  984MOL0     C29810   4.282   2.655   6.417 -0.0838  0.2798 -0.0947
  984MOL0     C29811   4.300   2.692   6.554  0.2615  0.0861 -0.1020
  984MOL0     C29812   4.423   2.740   6.602  0.7074 -1.0250 -0.4030
  984MOL0     C29813   4.531   2.765   6.524 -0.5563 -0.0016 -0.1214
  984MOL0     O29814   4.650   2.793   6.582 -1.1774  0.1866 -0.0623
  984MOL0     C29815   4.744   2.867   6.499 -0.7066 -0.2926  0.3291
  984MOL0     C29816   4.853   2.929   6.586  0.7769  0.0885  0.3531
  984MOL0     C29817   4.931   2.828   6.658 -0.5381  0.5304 -0.8337
  984MOL0     C29818   5.069   2.881   6.712 -1.5313 -0.0932 -0.3076
  984MOL0     C29819   5.124   2.768   6.791  0.2010 -0.1244 -0.2634
  984MOL0     C29820   5.152   2.659   6.850 -0.2125  0.6187  0.1188
  984MOL0     C29821   4.515   2.735   6.382 -0.6644  0.1836  0.2977
  984MOL0     C29822   4.392   2.678   6.333 -0.6105  0.4556 -0.0088
  984MOL0     H29823   3.936   2.489   6.191 -0.2842  1.5320  0.9282
  984MOL0     H29824   3.715   2.403   6.163  1.7461  0.1988 -0.1663
  984MOL0     H29825   3.461   2.513   6.506  3.2529 -0.2929  1.3978
  984MOL0     H29826   3.453   2.345   6.550  1.0076 -1.7480 -1.7932
  984MOL0     H29827   3.285   2.289   6.380 -1.7213  0.4387  1.0207
  984MOL0     H29828   3.294   2.449   6.301  0.2672  0.3763 -0.4566
  984MOL0     H29829   3.187   2.552   6.509  0.2143  0.3244 -1.6707
  984MOL0     H29830   3.180   2.398   6.583 -2.1778  0.2098  0.4583
  984MOL0     H29831   3.035   2.500   6.321 -0.6790 -1.7615 -1.6715
  984MOL0     H29832   3.054   2.332   6.354 -1.4204 -0.5467  1.3691
  984MOL0     H29833   2.852   2.386   6.419  0.3552  2.2167 -0.8471
  984MOL0     H29834   2.905   2.522   6.532  2.1075  0.6851 -0.8026
  984MOL0     H29835   2.833   2.325   6.661  1.4495  1.7522  1.8733
  984MOL0     H29836   3.000   2.352   6.679  0.3250 -1.1376 -0.1842
  984MOL0     H29837   3.059   2.162   6.533 -0.1829 -2.4760  0.4618
  984MOL0     H29838   2.952   2.119   6.657  0.3913 -0.0689 -0.3375
  984MOL0     H29839   2.891   2.012   6.430  2.1389  0.2405  0.9828
  984MOL0     H29840   2.871   2.176   6.361 -1.9380  1.0857  0.1494
  984MOL0     H29841   2.679   1.914   6.582  1.5272 -0.5682 -1.9277
  984MOL0     H29842   2.374   2.030   6.721 -0.6104 -2.1875  2.0647
  984MOL0     H29843   2.450   1.892   6.638 -1.8298  0.1008 -0.6977
  984MOL0     H29844   2.329   1.971   6.422  3.1628  1.2434  0.6803
  984MOL0     H29845   2.249   2.094   6.520  1.3593  0.5781 -0.3203
  984MOL0     H29846   2.227   1.801   6.587 -1.1829  0.3231  0.6352
  984MOL0     H29847   2.127   1.940   6.654  0.1834  0.6550  0.3068
  984MOL0     H29848   2.021   1.784   6.491  2.1854 -1.0658  0.0426
  984MOL0     H29849   2.133   1.863   6.361  2.6723  2.8259  0.4299
  984MOL0     H29850   1.827   2.187   6.426 -1.0248  1.4886 -0.2522
  984MOL0     H29851   1.650   2.195   6.285  2.7286  0.2816 -1.0415
  984MOL0     H29852   1.500   2.099   5.833  0.7796  0.3185 -0.1132
  984MOL0     H29853   1.297   2.114   5.690  0.6382  1.0992  0.0131
  984MOL0     H29854   0.862   2.266   5.850 -2.8314 -1.6024 -1.0433
  984MOL0     H29855   0.926   2.105   5.905 -0.1520  2.1105  0.8125
  984MOL0     H29856   0.867   2.022   5.680 -0.9784 -1.4545  2.0377
  984MOL0     H29857   0.858   2.191   5.616  3.2070 -1.2569 -0.9359
  984MOL0     H29858   0.657   2.232   5.742 -2.2508 -1.0143  2.6930
  984MOL0     H29859   0.686   2.092   5.841  0.5976  0.8093 -0.1427
  984MOL0     H29860   0.607   2.103   5.540  2.8388 -0.7784 -0.5884
  984MOL0     H29861   0.654   1.956   5.619 -0.5999  0.3980 -2.4275
  984MOL0     H29862   0.483   1.959   5.774  0.2589  0.5938  0.3803
  984MOL0     H29863   0.406   1.975   5.615 -1.0991 -2.2310  2.7099
  984MOL0     H29864   0.462   2.200   5.804 -0.9900  0.8926 -0.0988
  984MOL0     H29865   0.297   2.123   5.782 -0.6484  3.0612  0.8989
  984MOL0     H29866   0.325   2.346   5.685 -1.7447 -0.2566 -1.2571
  984MOL0     H29867   0.448   2.290   5.574  0.3241 -2.9563 -1.8248
  984MOL0     H29868   0.264   2.112   5.507 -3.3128 -1.2664  1.2323
  984MOL0     H29869   0.216   2.267   5.450  0.3506 -1.9067 -1.1835
  984MOL0     H29870   1.076   2.276   6.021 -0.7066 -0.1055 -1.4175
  984MOL0     H29871   1.265   2.238   6.161  0.8483  1.6791  0.6627
  984MOL0     H29872   1.728   1.804   6.119  1.1635 -0.4475  0.1929
  984MOL0     H29873   1.920   1.785   6.271 -3.0560 -2.8535 -2.1354
  984MOL0     H29874   3.667   2.435   6.593  1.0271 -2.1766  1.3355
  984MOL0     H29875   3.898   2.493   6.620 -1.1864 -1.5654  0.3390
  984MOL0     H29876   4.224   2.678   6.630  1.4612  1.6407  1.4781
  984MOL0     H29877   4.427   2.747   6.710  0.3037  0.9563 -0.4701
  984MOL0     H29878   4.688   2.946   6.449 -0.0769  0.2066  0.4002
  984MOL0     H29879   4.785   2.798   6.424  0.3196  0.1970  0.4240
  984MOL0     H29880   4.897   2.998   6.513 -1.0084 -1.1648 -2.0652
  984MOL0     H29881   4.799   2.985   6.663  1.9361 -0.3690  1.5231
  984MOL0     H29882   4.945   2.741   6.593 -0.1022 -1.4984  1.7786
  984MOL0     H29883   4.869   2.796   6.742  2.0339 -1.5901  0.4108
  984MOL0     H29884   5.142   2.901   6.633  0.6651 -0.7345  1.4571
  984MOL0     H29885   5.058   2.974   6.769  1.4642 -0.3226  0.8388
  984MOL0     H29886   5.160   2.567   6.904  0.9053 -0.2727 -1.4602
  984MOL0     H29887   4.597   2.731   6.312 -1.5365 -3.5588 -0.7685
  984MOL0     H29888   4.389   2.661   6.225 -2.9805  0.7207 -0.0386
  985MOL0     O29889   5.900   2.114  10.360  0.2679  0.2992 -0.6387
  985MOL0     C29890   5.927   2.079  10.247 -0.0436  0.7014  1.0494
  985MOL0     O29891   5.830   2.048  10.154 -0.3179 -0.0116  0.0941
  985MOL0     C29892   5.688   2.067  10.172 -1.4236  0.2967 -0.2558
  985MOL0     C29893   5.629   2.159  10.084  0.9345 -0.6550  0.0240
  985MOL0     C29894   5.491   2.182  10.088 -0.8665  0.0932 -0.3199
  985MOL0     C29895   5.412   2.119  10.172  0.7791 -0.2036  0.4311
  985MOL0     O29896   5.283   2.162  10.174 -1.0669  0.5933  0.2604
  985MOL0     C29897   5.209   2.117  10.063  0.1423 -0.2931  0.3154
  985MOL0     C29898   5.060   2.140  10.081 -0.7623 -0.7570  0.7327
  985MOL0     C29899   5.023   2.289  10.113 -0.6712 -0.0642  0.0335
  985MOL0     C29900   4.873   2.312  10.131 -0.0560 -0.7691  0.5235
  985MOL0     C29901   4.820   2.275  10.265 -0.2769  0.7170  0.2531
  985MOL0     C29902   4.691   2.338  10.293  0.1848 -1.2369  0.0598
  985MOL0     C29903   4.577   2.262  10.221 -1.0199 -0.0991 -0.8753
  985MOL0     C29904   4.465   2.357  10.187 -0.8228  1.0858 -0.1406
  985MOL0     N29905   4.362   2.280  10.117  0.5382  1.0553  0.2963
  985MOL0     C29906   4.306   2.161  10.163 -0.5201 -0.1433  0.5375
  985MOL0     C29907   4.213   2.133  10.072  0.1404 -0.3183 -0.6403
  985MOL0     C29908   4.125   2.012  10.077  0.0470 -0.8877 -0.1859
  985MOL0     C29909   4.207   1.883  10.055 -0.0593  0.7070  0.0977
  985MOL0     C29910   4.147   1.745  10.091  0.9710 -0.1363 -0.0732
  985MOL0     C29911   3.999   1.728  10.048 -0.3061 -0.1328  1.1024
  985MOL0     O29912   3.937   1.806  10.153 -0.0040  0.4759 -0.8279
  985MOL0     C29913   3.799   1.804  10.155 -0.0890  0.9057  0.2670
  985MOL0     C29914   3.721   1.711  10.090  0.3369 -0.1418  0.5267
  985MOL0     C29915   3.582   1.724  10.081  0.8655  0.5923  1.0027
  985MOL0     C29916   3.508   1.817  10.153  0.3975  0.2014 -0.1253
  985MOL0     C29917   3.361   1.820  10.153 -0.1246 -0.0704  1.1146
  985MOL0     O29918   3.297   1.752  10.057  0.1673 -0.3695  0.0039
  985MOL0     C29919   3.159   1.742  10.061  0.2855 -0.6860 -0.0660
  985MOL0     C29920   3.083   1.763   9.943  0.5040 -0.1524 -0.6961
  985MOL0     C29921   2.943   1.755   9.948 -0.2111 -1.4447  0.5091
  985MOL0     C29922   2.869   1.730  10.064 -0.0175 -0.5958  0.4565
  985MOL0     O29923   2.731   1.720  10.066  0.1174  0.2292  1.1773
  985MOL0     C29924   2.650   1.750   9.953 -0.3084 -0.8033  0.0906
  985MOL0     C29925   2.614   1.901   9.946  0.7946 -0.4708 -0.0634
  985MOL0     C29926   2.564   1.956  10.078  0.3564 -0.2974 -0.0598
  985MOL0     C29927   2.422   1.906  10.117 -0.4957  0.2502  0.5965
  985MOL0     C29928   2.311   1.954  10.018  0.5106 -0.6101  0.4193
  985MOL0     C29929   2.271   2.096  10.056 -0.0750 -0.6099 -0.0923
  985MOL0     C29930   2.135   2.142   9.994 -0.1092  0.3261  0.7062
  985MOL0     C29931   2.013   2.129  10.088 -0.2729 -0.2694 -0.0705
  985MOL0    Cl29932   1.867   2.210  10.019 -0.2743 -0.2820  0.2718
  985MOL0     C29933   2.942   1.705  10.180  0.9410 -0.1007  0.0794
  985MOL0     C29934   3.085   1.712  10.179  0.1988 -0.2472  0.7476
  985MOL0     O29935   3.309   1.888  10.243 -0.0908  0.5494 -0.6561
  985MOL0     C29936   3.590   1.906  10.226  0.7427  0.2155 -0.3801
  985MOL0     C29937   3.731   1.903  10.228  0.1962  0.0174  0.3792
  985MOL0     N29938   4.195   2.241   9.984 -0.4120 -0.7458  0.6382
  985MOL0     N29939   4.295   2.320  10.009 -0.1307  0.1929  0.8673
  985MOL0     C29940   5.464   2.003  10.242 -0.0501 -0.5875  0.5652
  985MOL0     C29941   5.605   1.983  10.247  0.2938 -0.5518  0.0437
  985MOL0     C29942   6.060   2.050  10.200 -0.4011  0.4523 -0.0995
  985MOL0     C29943   6.086   2.004  10.071 -0.6341 -0.1740  0.3763
  985MOL0     C29944   6.217   1.979  10.031 -0.9513 -0.4114 -0.1043
  985MOL0     C29945   6.329   2.005  10.122  0.8437 -0.4733 -0.2116
  985MOL0     O29946   6.462   1.984  10.100  0.0953  1.0612  0.0202
  985MOL0     C29947   6.503   1.926   9.974  0.5689  0.2863 -0.2798
  985MOL0     C29948   6.648   1.889  10.001  0.5459  0.4376  0.3149
  985MOL0     C29949   6.661   1.773  10.096 -1.0385  1.8408 -0.0828
  985MOL0     C29950   6.787   1.692  10.071  0.3173  0.0987  0.0924
  985MOL0     C29951   6.913   1.762  10.117 -0.8944 -0.2874  0.3792
  985MOL0     C29952   7.008   1.819  10.166  0.3703  0.4462 -0.2367
  985MOL0     C29953   6.304   2.047  10.255 -0.3936 -0.6824  0.0651
  985MOL0     C29954   6.167   2.071  10.293  0.4746  0.4050 -0.4241
  985MOL0     H29955   5.706   2.206  10.025  2.1902 -2.9621 -0.2871
  985MOL0     H29956   5.445   2.260  10.028  0.8090  1.9810  0.7002
  985MOL0     H29957   5.238   2.014  10.039  3.2266  0.9399 -1.8039
  985MOL0     H29958   5.242   2.171   9.974 -0.3767  0.6365  0.6679
  985MOL0     H29959   5.030   2.090  10.174  2.9147 -0.8789  2.0236
  985MOL0     H29960   5.015   2.106   9.987  3.7965 -1.6988 -1.3470
  985MOL0     H29961   5.062   2.357  10.038 -0.4866  1.2688  1.3027
  985MOL0     H29962   5.076   2.322  10.203 -0.1250 -1.8313  0.4039
  985MOL0     H29963   4.855   2.419  10.118 -2.5356 -1.2517 -0.5974
  985MOL0     H29964   4.811   2.271  10.051 -1.2586  2.5404 -0.4216
  985MOL0     H29965   4.898   2.289  10.341  1.0324  0.5535 -1.0187
  985MOL0     H29966   4.803   2.167  10.261  1.2874  0.2941  2.7258
  985MOL0     H29967   4.697   2.435  10.243  1.2395 -1.6900 -0.7268
  985MOL0     H29968   4.690   2.370  10.398  0.2947 -0.0222 -0.2898
  985MOL0     H29969   4.615   2.220  10.127  0.0682 -3.6987  0.9949
  985MOL0     H29970   4.541   2.189  10.294  1.3581  0.8915  1.4469
  985MOL0     H29971   4.495   2.437  10.120 -1.4422  1.1746 -0.3153
  985MOL0     H29972   4.433   2.403  10.281 -1.2324 -0.7266  0.6545
  985MOL0     H29973   4.327   2.114  10.258 -0.4475 -0.8771  0.1641
  985MOL0     H29974   4.058   2.021   9.991  0.0849 -0.0872 -0.1338
  985MOL0     H29975   4.075   2.018  10.174 -0.4371 -3.3285 -0.2086
  985MOL0     H29976   4.302   1.897  10.108 -1.9473  2.8455  3.2466
  985MOL0     H29977   4.235   1.863   9.951  1.4291 -2.9864  1.0735
  985MOL0     H29978   4.204   1.667  10.039 -0.9224  0.0339 -2.6047
  985MOL0     H29979   4.163   1.727  10.198  2.2258  2.8968  0.3569
  985MOL0     H29980   3.981   1.620  10.048 -1.2540  0.0142  1.2048
  985MOL0     H29981   3.971   1.759   9.947  0.8138 -1.1727  0.4452
  985MOL0     H29982   3.773   1.626  10.047  0.8709 -1.3659  3.3618
  985MOL0     H29983   3.526   1.651  10.023  1.7047 -0.1257  1.0691
  985MOL0     H29984   3.127   1.779   9.846 -1.1147 -3.5901 -2.1899
  985MOL0     H29985   2.902   1.769   9.849  4.4869  0.0674 -1.5156
  985MOL0     H29986   2.559   1.692   9.965 -0.3204 -0.5847  1.1134
  985MOL0     H29987   2.701   1.711   9.864 -0.7948 -1.3288  0.0434
  985MOL0     H29988   2.546   1.910   9.860  0.8550 -3.3203 -0.5068
  985MOL0     H29989   2.708   1.945   9.910  1.6319 -3.2696 -1.6671
  985MOL0     H29990   2.562   2.064  10.064 -2.9724 -0.3105 -0.5894
  985MOL0     H29991   2.631   1.925  10.158  1.0859  1.1097 -0.1064
  985MOL0     H29992   2.419   1.799  10.139 -1.3828  0.0315 -0.5090
  985MOL0     H29993   2.402   1.954  10.214  1.2911  1.0302  0.6275
  985MOL0     H29994   2.226   1.886  10.005  0.1836 -0.6231  2.3475
  985MOL0     H29995   2.360   1.960   9.921  3.1069  0.8714  1.7276
  985MOL0     H29996   2.356   2.161  10.033  0.1080 -1.0835 -0.8334
  985MOL0     H29997   2.262   2.101  10.164 -0.3386 -1.2045 -0.0798
  985MOL0     H29998   2.150   2.249   9.974  0.8515 -0.1960 -1.7271
  985MOL0     H29999   2.114   2.090   9.900  1.0960  0.6171  0.2596
  985MOL0     H30000   2.036   2.174  10.185  0.6307  0.1158 -0.4486
  985MOL0     H30001   1.988   2.025  10.107 -1.8015  0.1572  0.3460
  985MOL0     H30002   2.900   1.672  10.275  1.3976  0.1741  0.3761
  985MOL0     H30003   3.144   1.697  10.269  0.3657 -0.2699  0.6346
  985MOL0     H30004   3.549   1.985  10.288 -0.9580 -1.2662  0.4442
  985MOL0     H30005   3.784   1.970  10.295  0.3454 -0.6743  0.9625
  985MOL0     H30006   5.396   1.938  10.296 -1.9592  1.4070  0.7205
  985MOL0     H30007   5.649   1.907  10.310  0.1278 -2.9394 -2.4924
  985MOL0     H30008   6.007   1.994   9.997 -0.1463 -0.6909 -0.0951
  985MOL0     H30009   6.246   1.933   9.937  1.7295 -0.2086  0.5412
  985MOL0     H30010   6.496   1.997   9.891 -0.4425  1.5995  0.8792
  985MOL0     H30011   6.447   1.836   9.948  1.1177  0.6927 -3.2318
  985MOL0     H30012   6.688   1.858   9.904  0.7118  0.2529  0.4390
  985MOL0     H30013   6.704   1.975  10.036  0.9383  0.4488 -0.3221
  985MOL0     H30014   6.579   1.708  10.064 -0.2603  1.6597 -1.8167
  985MOL0     H30015   6.655   1.795  10.203  2.9515 -0.3142  0.7614
  985MOL0     H30016   6.775   1.590  10.108 -0.9120  1.1945  2.9643
  985MOL0     H30017   6.801   1.670   9.965 -1.6061  0.7036 -0.3341
  985MOL0     H30018   7.086   1.875  10.213  0.6916 -0.2293  0.0540
  985MOL0     H30019   6.390   2.073  10.315 -0.6797  0.3647  0.0393
  985MOL0     H30020   6.141   2.105  10.392 -0.4823  0.9653 -0.8539
  986MOL0     O30021   3.954   2.716   2.550 -0.3583 -0.7769 -0.3373
  986MOL0     C30022   4.027   2.678   2.459  0.1668 -0.5859  0.7880
  986MOL0     O30023   3.993   2.630   2.343  0.0443 -0.5062  0.4223
  986MOL0     C30024   3.861   2.637   2.306 -0.3560 -0.2180 -1.0417
  986MOL0     C30025   3.840   2.641   2.165 -0.4163  0.4103 -0.1443
  986MOL0     C30026   3.711   2.646   2.113  0.1723  0.0546 -0.2564
  986MOL0     C30027   3.597   2.633   2.193  0.2539 -0.1932  0.6260
  986MOL0     O30028   3.475   2.638   2.117 -0.2845 -0.4087 -0.3753
  986MOL0     C30029   3.357   2.618   2.194 -0.0250 -0.7024  0.3096
  986MOL0     C30030   3.245   2.608   2.095  0.6856 -0.2346  0.1703
  986MOL0     C30031   3.110   2.597   2.166  0.3025  0.3702  0.9025
  986MOL0     C30032   2.996   2.599   2.056  0.3668  0.1032 -0.4419
  986MOL0     C30033   2.851   2.561   2.103  0.2344  0.2633  0.2594
  986MOL0     C30034   2.753   2.528   1.991  0.8119  0.5500 -0.6704
  986MOL0     C30035   2.620   2.465   2.045  0.2716 -0.6995 -0.3862
  986MOL0     C30036   2.519   2.448   1.926  0.2375 -1.0000 -0.0048
  986MOL0     N30037   2.399   2.380   1.965 -0.1108  0.0090 -0.1218
  986MOL0     C30038   2.295   2.417   2.045 -0.1679 -1.0277 -0.3570
  986MOL0     C30039   2.209   2.317   2.042 -0.0622  0.0278 -0.1663
  986MOL0     C30040   2.085   2.308   2.127  0.2825 -0.1117 -0.2817
  986MOL0     C30041   1.979   2.387   2.051  0.4366  0.1655 -0.4914
  986MOL0     C30042   1.853   2.396   2.133  0.3079 -0.2170 -0.2046
  986MOL0     C30043   1.789   2.262   2.157  0.2072  0.1004 -0.4168
  986MOL0     O30044   1.671   2.278   2.235 -0.4545 -0.3729  0.7950
  986MOL0     C30045   1.590   2.165   2.238 -0.6073  0.1884 -0.9008
  986MOL0     C30046   1.457   2.188   2.266 -0.5830 -0.0676 -0.8441
  986MOL0     C30047   1.364   2.083   2.254  0.5748 -0.7841  0.7832
  986MOL0     C30048   1.414   1.959   2.234 -0.0180  0.8507  0.0873
  986MOL0     C30049   1.330   1.836   2.241  0.7577 -0.3116  0.2507
  986MOL0     O30050   1.194   1.853   2.221 -0.3273  0.6252  0.3767
  986MOL0     C30051   1.103   1.749   2.219 -0.5087 -0.1659  0.6209
  986MOL0     C30052   1.130   1.627   2.167  0.1310 -0.1540  0.2694
  986MOL0     C30053   1.037   1.531   2.149  0.6910  0.3479 -1.3379
  986MOL0     C30054   0.906   1.558   2.194  0.9107  0.3549  1.0077
  986MOL0     O30055   0.799   1.472   2.194 -0.2220 -0.2767  0.0329
  986MOL0     C30056   0.804   1.352   2.115 -0.7160  0.4371 -0.6911
  986MOL0     C30057   0.680   1.266   2.143 -0.2896 -0.3585 -0.6854
  986MOL0     C30058   0.693   1.132   2.056  0.4967 -0.1576  0.2528
  986MOL0     C30059   0.579   1.046   2.107  0.0213  0.3478  0.3041
  986MOL0     C30060   0.574   0.916   2.035 -0.3049  0.9974  0.5542
  986MOL0     C30061   0.480   0.824   2.107 -0.4862 -0.6310 -0.3686
  986MOL0     C30062   0.441   0.697   2.013 -0.1547 -0.0700 -0.0574
  986MOL0     C30063   0.304   0.644   2.070  0.0947  0.0634  0.9998
  986MOL0    Cl30064   0.284   0.633   2.249 -0.0717  0.2952  0.3253
  986MOL0     C30065   0.879   1.682   2.252  0.2343  0.4874  0.6954
  986MOL0     C30066   0.970   1.779   2.261 -0.0991 -0.0096  0.7658
  986MOL0     O30067   1.381   1.727   2.275 -0.3304 -0.6000 -0.2906
  986MOL0     C30068   1.553   1.936   2.211  0.5671 -0.8376  0.0144
  986MOL0     C30069   1.641   2.038   2.217 -0.2265  0.0820 -0.3026
  986MOL0     N30070   2.256   2.230   1.943 -0.3803  0.1586 -0.6928
  986MOL0     N30071   2.363   2.270   1.896 -0.4124  0.0447  0.0045
  986MOL0     C30072   3.620   2.627   2.335  0.6558 -0.0365  0.4286
  986MOL0     C30073   3.745   2.622   2.387  0.2137 -0.7167 -0.7220
  986MOL0     C30074   4.172   2.688   2.488  0.6544  0.2762  0.0788
  986MOL0     C30075   4.217   2.713   2.623 -0.2075  0.6804 -0.0379
  986MOL0     C30076   4.351   2.706   2.662 -0.6748 -0.6225 -0.1886
  986MOL0     C30077   4.445   2.667   2.569 -0.4060  0.0141 -0.1898
  986MOL0     O30078   4.578   2.651   2.604  0.3761 -0.0094 -0.1212
  986MOL0     C30079   4.614   2.638   2.743  0.8908 -0.2661 -0.6432
  986MOL0     C30080   4.642   2.766   2.815  0.5396  0.3817 -0.7171
  986MOL0     C30081   4.630   2.745   2.963 -0.2778  0.2162  0.7213
  986MOL0     C30082   4.762   2.699   3.028  0.0789  0.4195  0.6934
  986MOL0     C30083   4.774   2.560   3.033 -0.5762  0.5446  0.2197
  986MOL0     C30084   4.776   2.435   3.026 -0.1343 -0.3251  0.2664
  986MOL0     C30085   4.406   2.646   2.436  0.2841 -0.1412 -1.2049
  986MOL0     C30086   4.271   2.645   2.402  0.0277  0.4229  0.2213
  986MOL0     H30087   3.915   2.647   2.087  0.4111 -0.6178  0.5494
  986MOL0     H30088   3.691   2.664   2.008 -0.8858  0.5261  0.0085
  986MOL0     H30089   3.342   2.703   2.260  1.9064  0.1993 -0.3319
  986MOL0     H30090   3.355   2.530   2.258 -0.0859  1.8717  4.1253
  986MOL0     H30091   3.255   2.522   2.028 -1.4214  2.2880 -3.8217
  986MOL0     H30092   3.249   2.696   2.029 -1.4409  0.9324  1.4765
  986MOL0     H30093   3.092   2.676   2.239 -0.9919  0.7620  0.1852
  986MOL0     H30094   3.104   2.503   2.221  0.0462 -0.6411 -0.7710
  986MOL0     H30095   2.989   2.704   2.028  0.0079  0.1636 -0.1300
  986MOL0     H30096   3.015   2.540   1.966 -1.6241 -0.4403 -0.5642
  986MOL0     H30097   2.808   2.633   2.173  0.9351  1.1219 -0.1691
  986MOL0     H30098   2.856   2.468   2.161 -1.2311  0.4036  0.6408
  986MOL0     H30099   2.793   2.467   1.909 -0.2833  0.1915 -0.9455
  986MOL0     H30100   2.725   2.626   1.952 -1.4346  1.3601  2.5426
  986MOL0     H30101   2.631   2.379   2.111  0.0744  0.9291  1.8989
  986MOL0     H30102   2.588   2.542   2.116  0.9991  0.1362 -0.9416
  986MOL0     H30103   2.554   2.398   1.835  0.3515 -2.1300  0.6406
  986MOL0     H30104   2.498   2.551   1.897  2.1806 -0.0989  1.5655
  986MOL0     H30105   2.295   2.499   2.116  0.5874 -1.8946  0.6697
  986MOL0     H30106   2.095   2.349   2.228 -1.5659 -1.6793  0.6014
  986MOL0     H30107   2.072   2.202   2.148  1.6651 -0.7579 -2.3670
  986MOL0     H30108   1.949   2.337   1.958 -1.4562  1.1274 -0.4520
  986MOL0     H30109   2.026   2.485   2.037  0.0864  0.9973  3.1309
  986MOL0     H30110   1.875   2.456   2.221 -0.4966  2.5043 -1.7453
  986MOL0     H30111   1.786   2.453   2.068  2.1276 -0.9122 -2.8483
  986MOL0     H30112   1.859   2.202   2.216 -0.4491 -1.9855 -1.6810
  986MOL0     H30113   1.765   2.208   2.066  2.9764  0.7452 -1.6264
  986MOL0     H30114   1.429   2.289   2.293 -1.6131 -0.7563  0.7940
  986MOL0     H30115   1.261   2.113   2.271  1.4357  3.1075  0.1304
  986MOL0     H30116   1.225   1.591   2.130 -1.1648 -0.5398 -3.0255
  986MOL0     H30117   1.056   1.436   2.100  1.2652  0.9009 -2.2352
  986MOL0     H30118   0.895   1.294   2.135 -0.1769  1.1852 -0.9084
  986MOL0     H30119   0.802   1.386   2.011  0.0315 -0.3694 -0.9810
  986MOL0     H30120   0.589   1.319   2.113  1.1093  2.6029 -0.0347
  986MOL0     H30121   0.682   1.245   2.250  1.3446 -2.1350 -1.0086
  986MOL0     H30122   0.785   1.079   2.083 -0.8958 -2.5587  0.5232
  986MOL0     H30123   0.696   1.153   1.949  0.0223 -0.6330  0.1436
  986MOL0     H30124   0.595   1.034   2.215  1.3474 -0.7770 -0.0059
  986MOL0     H30125   0.481   1.095   2.099 -0.8250 -1.2915  0.2075
  986MOL0     H30126   0.672   0.866   2.030 -1.1405 -1.0244  2.5952
  986MOL0     H30127   0.537   0.930   1.933  1.6446  1.1716 -0.1727
  986MOL0     H30128   0.388   0.880   2.128 -0.5578 -0.7908 -0.2571
  986MOL0     H30129   0.515   0.794   2.206 -1.9619 -0.1975  0.3091
  986MOL0     H30130   0.434   0.718   1.905  0.0623 -0.1801 -0.0937
  986MOL0     H30131   0.514   0.617   2.030  1.9273  1.8677  0.7140
  986MOL0     H30132   0.291   0.543   2.030 -0.9019  0.3729  0.4968
  986MOL0     H30133   0.230   0.712   2.027 -0.5372  0.6249  2.9170
  986MOL0     H30134   0.777   1.699   2.284  0.2095  1.6351  0.0412
  986MOL0     H30135   0.940   1.878   2.293 -0.0439  0.1981  0.1885
  986MOL0     H30136   1.589   1.834   2.203 -3.0055 -2.3007  0.6435
  986MOL0     H30137   1.745   2.015   2.197  0.4379  0.1561  2.5475
  986MOL0     H30138   3.536   2.634   2.404 -0.3330 -3.4579 -0.2277
  986MOL0     H30139   3.752   2.621   2.496 -2.0377  4.7022 -0.1993
  986MOL0     H30140   4.152   2.742   2.705  1.3062 -0.0717  1.5150
  986MOL0     H30141   4.358   2.743   2.764  2.4620  0.4239 -0.6700
  986MOL0     H30142   4.697   2.569   2.753  0.2375 -0.9746  0.1172
  986MOL0     H30143   4.532   2.589   2.798  1.0831  1.1803  1.0588
  986MOL0     H30144   4.739   2.811   2.794  0.5285  0.4361 -0.6516
  986MOL0     H30145   4.561   2.833   2.784 -2.7493 -3.7831 -2.1815
  986MOL0     H30146   4.550   2.674   2.983 -0.6327 -0.8377 -3.4565
  986MOL0     H30147   4.605   2.842   3.006  1.3090  1.0453 -0.1147
  986MOL0     H30148   4.843   2.755   2.979 -0.8188 -0.0402 -1.4088
  986MOL0     H30149   4.763   2.734   3.131 -0.0961  2.7748 -0.0321
  986MOL0     H30150   4.794   2.330   3.036 -0.1143 -0.3359  0.1164
  986MOL0     H30151   4.493   2.625   2.374  2.4244  1.8541  0.9418
  986MOL0     H30152   4.246   2.616   2.301  0.9478 -1.9594  0.6183
  987MOL0     O30153   6.936   6.510   8.760 -0.2186  0.1879 -1.0689
  987MOL0     C30154   6.987   6.615   8.797 -1.3904  0.5625 -1.2793
  987MOL0     O30155   6.924   6.712   8.874 -0.5494 -0.3752  0.0340
  987MOL0     C30156   6.802   6.693   8.938  0.6426  0.1969  0.1011
  987MOL0     C30157   6.754   6.578   8.989 -0.7783 -1.2654  0.5246
  987MOL0     C30158   6.622   6.556   9.017  0.1446 -0.1401 -0.4758
  987MOL0     C30159   6.535   6.664   9.023  0.3150  0.1078 -0.3359
  987MOL0     O30160   6.398   6.651   9.050 -0.7098  0.3520 -0.4906
  987MOL0     C30161   6.359   6.522   9.097  0.1543 -0.0973  0.5548
  987MOL0     C30162   6.215   6.513   9.129  0.3060 -0.5188  0.1252
  987MOL0     C30163   6.120   6.532   9.004 -0.6934 -0.7217  0.3971
  987MOL0     C30164   5.978   6.575   9.046  0.4404 -0.4603 -0.2052
  987MOL0     C30165   5.909   6.658   8.931  0.0157 -0.1854  0.4677
  987MOL0     C30166   5.774   6.707   8.978 -0.1527  0.7850 -1.2132
  987MOL0     C30167   5.726   6.822   8.893  0.3536 -0.7063 -0.8170
  987MOL0     C30168   5.584   6.865   8.940  0.2329 -0.1345  0.0445
  987MOL0     N30169   5.484   6.756   8.948 -0.6629 -0.8362 -0.0767
  987MOL0     C30170   5.375   6.758   9.033  0.4798 -0.4094 -0.2794
  987MOL0     C30171   5.292   6.667   8.976 -0.2608  0.0023 -0.1498
  987MOL0     C30172   5.155   6.626   9.035  0.0535 -0.6375 -0.0056
  987MOL0     C30173   5.045   6.609   8.927 -0.3568 -0.0902 -0.0679
  987MOL0     C30174   5.032   6.702   8.802 -0.0750  0.2094  0.3926
  987MOL0     C30175   4.890   6.689   8.751 -0.5590  0.7050 -0.6966
  987MOL0     O30176   4.869   6.723   8.612 -0.3010  0.1006 -0.4980
  987MOL0     C30177   4.740   6.753   8.583  0.2129  0.5760  0.0413
  987MOL0     C30178   4.657   6.661   8.526  0.0424 -0.0187  0.6945
  987MOL0     C30179   4.527   6.694   8.491  0.7911  0.0257  0.1827
  987MOL0     C30180   4.481   6.825   8.504 -0.0956 -0.4563  0.6206
  987MOL0     C30181   4.352   6.869   8.446 -0.5663 -0.1151  0.4103
  987MOL0     O30182   4.282   6.779   8.382 -0.0698  0.6236  0.4645
  987MOL0     C30183   4.153   6.777   8.332  0.0219  0.1771 -0.8951
  987MOL0     C30184   4.046   6.858   8.374 -0.4847 -0.4051  0.5780
  987MOL0     C30185   3.920   6.845   8.317 -0.0011 -0.1105 -0.6974
  987MOL0     C30186   3.893   6.754   8.219  0.0058  0.2291  0.3685
  987MOL0     O30187   3.778   6.743   8.152 -0.3845  0.1908 -0.2027
  987MOL0     C30188   3.653   6.789   8.213  0.4845 -0.7064  0.5040
  987MOL0     C30189   3.547   6.784   8.103 -0.6001 -0.1834 -0.4305
  987MOL0     C30190   3.397   6.786   8.141 -1.0964 -1.6161 -0.5917
  987MOL0     C30191   3.359   6.672   8.237 -0.0902  0.8746 -0.6027
  987MOL0     C30192   3.215   6.658   8.262  0.2344  0.3672 -0.0903
  987MOL0     C30193   3.128   6.612   8.142  0.2374 -0.3189  0.9976
  987MOL0     C30194   2.993   6.579   8.200 -0.0485 -0.4482  0.0705
  987MOL0     C30195   2.890   6.570   8.085  0.0655  0.3598 -0.7307
  987MOL0    Cl30196   2.726   6.500   8.134 -0.0542  0.0880  0.6586
  987MOL0     C30197   3.996   6.667   8.173 -1.2078 -0.0686 -0.1108
  987MOL0     C30198   4.128   6.681   8.231 -0.2466 -0.3146 -0.9936
  987MOL0     O30199   4.311   6.979   8.475 -0.4988 -0.1172  0.2031
  987MOL0     C30200   4.560   6.917   8.571  0.4723 -0.0728 -0.4148
  987MOL0     C30201   4.689   6.879   8.610  0.9154  0.7332 -0.3311
  987MOL0     N30202   5.357   6.607   8.865 -0.2979 -0.0351 -0.1446
  987MOL0     N30203   5.469   6.669   8.840 -0.6892  0.4637 -0.0938
  987MOL0     C30204   6.577   6.790   8.983 -0.3368  0.9034 -0.6956
  987MOL0     C30205   6.712   6.804   8.944 -0.1918  0.1115  0.0697
  987MOL0     C30206   7.133   6.619   8.792  0.0472  0.1008 -0.0889
  987MOL0     C30207   7.213   6.510   8.774 -0.7476  0.3173  0.4381
  987MOL0     C30208   7.349   6.521   8.788 -0.3751  0.0795 -0.5970
  987MOL0     C30209   7.408   6.638   8.804  0.4617  0.0154 -1.6926
  987MOL0     O30210   7.537   6.637   8.810 -0.2510  0.4023  0.0329
  987MOL0     C30211   7.610   6.759   8.857 -0.5894 -0.0530  0.8522
  987MOL0     C30212   7.754   6.730   8.907 -0.3169  0.2781  0.9480
  987MOL0     C30213   7.852   6.715   8.792 -0.1978  0.1216  0.5042
  987MOL0     C30214   7.986   6.652   8.829 -0.6994  0.0385  0.2133
  987MOL0     C30215   7.981   6.509   8.858 -0.1023  0.2209 -0.5082
  987MOL0     C30216   7.955   6.390   8.871  0.1087  0.3146  0.7118
  987MOL0     C30217   7.331   6.752   8.821  0.2171 -0.3091  0.7467
  987MOL0     C30218   7.194   6.743   8.810  0.5937 -0.3783  0.9794
  987MOL0     H30219   6.830   6.502   9.005  3.1608  1.6444 -2.1871
  987MOL0     H30220   6.587   6.458   9.047 -1.0923  0.5145  0.3304
  987MOL0     H30221   6.405   6.495   9.193  1.7761  1.8895  0.4270
  987MOL0     H30222   6.376   6.456   9.012  1.3102  0.1328  0.5917
  987MOL0     H30223   6.184   6.578   9.211  0.8461  0.1585 -0.1989
  987MOL0     H30224   6.203   6.411   9.166  1.4812 -0.1101  1.7381
  987MOL0     H30225   6.128   6.443   8.941 -0.2546  0.3523 -1.1296
  987MOL0     H30226   6.163   6.610   8.940  0.5699 -1.3368  0.4589
  987MOL0     H30227   5.927   6.483   9.075 -0.3926  0.3818  1.1164
  987MOL0     H30228   5.982   6.647   9.128 -0.2003 -0.8770  0.1964
  987MOL0     H30229   5.902   6.600   8.838 -2.7557  2.2339 -1.0060
  987MOL0     H30230   5.975   6.744   8.916  0.5292 -0.2772  2.0141
  987MOL0     H30231   5.782   6.751   9.078 -0.7840 -1.7813  0.0400
  987MOL0     H30232   5.700   6.627   8.979 -0.1985  0.8255 -0.4689
  987MOL0     H30233   5.795   6.906   8.903 -1.5340  0.9458 -1.0214
  987MOL0     H30234   5.731   6.810   8.784  2.7585  0.1968 -0.8659
  987MOL0     H30235   5.543   6.936   8.868 -0.0634  0.9847  1.3014
  987MOL0     H30236   5.594   6.896   9.044  1.9652 -4.3254  1.3376
  987MOL0     H30237   5.349   6.818   9.119  0.9075  0.5746 -0.8237
  987MOL0     H30238   5.123   6.707   9.100 -0.4631 -1.1618  0.4103
  987MOL0     H30239   5.162   6.533   9.093 -1.4799 -1.6663 -1.3862
  987MOL0     H30240   4.946   6.618   8.973 -2.0660  0.9763 -3.6111
  987MOL0     H30241   5.056   6.506   8.892 -0.1860 -0.4735  1.0479
  987MOL0     H30242   5.049   6.807   8.831 -1.4900  1.6634 -3.4081
  987MOL0     H30243   5.108   6.679   8.727 -0.3859 -1.8613  0.6611
  987MOL0     H30244   4.823   6.739   8.822 -1.8707 -2.2507  0.2837
  987MOL0     H30245   4.854   6.586   8.762  0.8619 -0.1243 -2.9972
  987MOL0     H30246   4.687   6.558   8.506  0.0916 -0.1000  1.1703
  987MOL0     H30247   4.461   6.624   8.441  0.0829  0.7287  0.1162
  987MOL0     H30248   4.079   6.941   8.435  3.2431  1.4133 -3.3412
  987MOL0     H30249   3.845   6.916   8.351 -0.3724 -0.4270 -0.8607
  987MOL0     H30250   3.663   6.889   8.257  1.1287 -0.8884  0.7804
  987MOL0     H30251   3.618   6.718   8.288 -3.0129 -0.4532 -0.6823
  987MOL0     H30252   3.565   6.690   8.049  0.5767 -0.3394  0.1844
  987MOL0     H30253   3.564   6.871   8.039  0.1905 -1.0133 -1.3812
  987MOL0     H30254   3.344   6.784   8.045  2.6556  0.7859 -2.9968
  987MOL0     H30255   3.381   6.882   8.192  0.3382 -1.4595 -0.3853
  987MOL0     H30256   3.402   6.576   8.208  0.3910  1.7270 -2.9227
  987MOL0     H30257   3.405   6.689   8.335  0.3298  0.1432 -0.6642
  987MOL0     H30258   3.176   6.756   8.292 -2.4032  0.0978 -2.3115
  987MOL0     H30259   3.194   6.599   8.351 -0.2108  0.7103  0.0350
  987MOL0     H30260   3.169   6.523   8.094  2.1277  0.3486  1.2882
  987MOL0     H30261   3.123   6.692   8.067 -2.0380  2.1195  3.5029
  987MOL0     H30262   2.998   6.493   8.266  0.1077 -0.4532  0.0516
  987MOL0     H30263   2.959   6.664   8.261  0.0039 -0.4360  0.0819
  987MOL0     H30264   2.930   6.491   8.021  0.0209 -3.2885  3.2895
  987MOL0     H30265   2.868   6.662   8.031 -0.8635  0.2196 -0.6146
  987MOL0     H30266   3.981   6.599   8.090 -0.1572  1.6671 -1.7986
  987MOL0     H30267   4.214   6.621   8.200  0.5534  0.4884 -0.3669
  987MOL0     H30268   4.529   7.019   8.592  2.4948  1.3561 -3.6315
  987MOL0     H30269   4.758   6.947   8.659  1.9063 -1.6755  1.8520
  987MOL0     H30270   6.500   6.867   8.990 -3.9396 -2.4659  1.0172
  987MOL0     H30271   6.732   6.910   8.929  1.3340  0.0750  1.4881
  987MOL0     H30272   7.181   6.408   8.753  1.5879 -0.1338 -1.4016
  987MOL0     H30273   7.403   6.427   8.782 -1.8227 -0.7185 -2.3716
  987MOL0     H30274   7.552   6.813   8.932 -1.4121  1.0609 -0.5325
  987MOL0     H30275   7.624   6.823   8.769  0.6258  0.3272  1.2905
  987MOL0     H30276   7.776   6.809   8.978  1.8380  0.1288  0.5181
  987MOL0     H30277   7.758   6.638   8.966  0.1923  1.3148  2.5839
  987MOL0     H30278   7.878   6.813   8.751 -0.3379  0.1160  0.3985
  987MOL0     H30279   7.803   6.664   8.708 -1.9715  1.7687  0.4682
  987MOL0     H30280   8.047   6.672   8.740 -1.2352  2.0046  0.2443
  987MOL0     H30281   8.033   6.712   8.907 -0.4919  1.0731 -0.6812
  987MOL0     H30282   7.947   6.284   8.885  0.2114 -0.0906 -1.8121
  987MOL0     H30283   7.375   6.851   8.820 -0.3461  0.0206 -2.2735
  987MOL0     H30284   7.136   6.834   8.820 -0.3228 -0.7840 -0.2876
  988MOL0     O30285   2.775   0.430   2.323  0.7091 -0.2057 -0.1349
  988MOL0     C30286   2.856   0.376   2.389 -0.2940 -0.0825  0.2912
  988MOL0     O30287   2.847   0.325   2.511 -1.2025  1.1575  0.1634
  988MOL0     C30288   2.728   0.336   2.582  0.9060 -0.2463 -0.1105
  988MOL0     C30289   2.614   0.424   2.559  0.2062  1.0096  1.3237
  988MOL0     C30290   2.487   0.390   2.607 -0.3702  0.5402 -0.3812
  988MOL0     C30291   2.468   0.283   2.697 -0.0316  0.0006  0.4136
  988MOL0     O30292   2.342   0.267   2.736  0.4150  0.5266  0.6939
  988MOL0     C30293   2.304   0.144   2.809  0.3359 -0.4107  0.3166
  988MOL0     C30294   2.153   0.155   2.852 -0.3086  0.1019  0.1710
  988MOL0     C30295   2.098   0.027   2.911 -0.8763  0.1592 -0.4393
  988MOL0     C30296   2.164  -0.019   3.051  0.2698  0.1875  0.4510
  988MOL0     C30297   2.072  -0.134   3.107  0.0221 -0.2053  0.1639
  988MOL0     C30298   2.077  -0.147   3.259 -0.1233  0.0272 -0.6443
  988MOL0     C30299   2.037  -0.283   3.321  0.1584  0.5462  0.0726
  988MOL0     C30300   1.891  -0.332   3.269  0.3517  0.4472 -0.4616
  988MOL0     N30301   1.782  -0.243   3.308  0.3723 -0.3989 -0.0909
  988MOL0     C30302   1.675  -0.297   3.377  0.2514 -0.1089  0.5477
  988MOL0     C30303   1.597  -0.186   3.401 -0.5224 -0.5411 -1.1463
  988MOL0     C30304   1.466  -0.183   3.474  0.6679  0.1576 -0.6929
  988MOL0     C30305   1.341  -0.247   3.414  1.1004 -0.3958 -0.2231
  988MOL0     C30306   1.269  -0.156   3.310 -0.1383 -0.5566 -0.7673
  988MOL0     C30307   1.328  -0.179   3.170 -1.0507 -0.4056  0.6282
  988MOL0     O30308   1.242  -0.122   3.071  0.2288  0.4484  0.2160
  988MOL0     C30309   1.247   0.011   3.038  0.0952  0.2953 -0.4453
  988MOL0     C30310   1.154   0.057   2.943  0.4999  0.0030  0.2524
  988MOL0     C30311   1.164   0.191   2.898  0.9082  0.5493  0.1446
  988MOL0     C30312   1.269   0.279   2.930  0.2401 -0.3272 -0.0463
  988MOL0     C30313   1.270   0.421   2.902 -0.5501  0.0503 -0.5678
  988MOL0     O30314   1.375   0.491   2.940  0.4731 -0.4371 -0.2482
  988MOL0     C30315   1.388   0.622   2.893  0.8962  0.1485 -0.0204
  988MOL0     C30316   1.415   0.656   2.759  0.3698 -0.0744 -0.5886
  988MOL0     C30317   1.411   0.788   2.712 -0.2167  0.6937  0.4838
  988MOL0     C30318   1.374   0.886   2.801  0.0505 -0.1957  0.0567
  988MOL0     O30319   1.377   1.015   2.759  0.5291 -0.4405 -0.3784
  988MOL0     C30320   1.497   1.087   2.793 -0.1672 -0.1642 -0.8105
  988MOL0     C30321   1.529   1.189   2.687  0.0001 -0.2457 -0.0896
  988MOL0     C30322   1.568   1.144   2.546  0.7547 -0.3495 -0.3159
  988MOL0     C30323   1.617   1.258   2.460  0.1522  0.6645 -0.6629
  988MOL0     C30324   1.619   1.222   2.313  0.3136  0.2225  0.0809
  988MOL0     C30325   1.650   1.349   2.228 -0.2679 -0.6914  0.3534
  988MOL0     C30326   1.795   1.382   2.240 -0.6768 -0.4853  0.2100
  988MOL0     C30327   1.834   1.475   2.125  0.1125  0.1199 -0.2245
  988MOL0    Cl30328   1.724   1.620   2.108  0.2807 -0.0587 -0.4366
  988MOL0     C30329   1.346   0.857   2.934  0.0190 -0.1501  1.0345
  988MOL0     C30330   1.348   0.724   2.979 -0.1311 -1.0584  0.3452
  988MOL0     O30331   1.174   0.469   2.850 -0.0057  0.5955  0.0382
  988MOL0     C30332   1.356   0.231   3.029 -0.0258 -0.1957 -0.4623
  988MOL0     C30333   1.347   0.100   3.085  0.4851 -0.1947 -0.1468
  988MOL0     N30334   1.650  -0.080   3.328 -0.1520  0.0013 -0.1033
  988MOL0     N30335   1.747  -0.123   3.261  0.6801 -0.5296  0.7461
  988MOL0     C30336   2.584   0.202   2.723 -0.0844 -0.5190  0.7371
  988MOL0     C30337   2.710   0.226   2.666  0.3879 -0.0847  0.7363
  988MOL0     C30338   2.980   0.347   2.323  0.1252 -0.2531  0.7042
  988MOL0     C30339   2.991   0.387   2.182  0.6849 -0.0462 -0.5398
  988MOL0     C30340   3.112   0.379   2.116 -0.0609 -0.0045 -0.8226
  988MOL0     C30341   3.221   0.323   2.183 -0.9366  0.1692  1.2710
  988MOL0     O30342   3.352   0.301   2.131 -0.3924 -0.6307  0.1297
  988MOL0     C30343   3.374   0.376   2.008 -0.1657 -0.0742  0.2712
  988MOL0     C30344   3.506   0.346   1.955 -0.3376 -0.3184  0.1529
  988MOL0     C30345   3.530   0.428   1.822 -0.4539  0.8487  0.4695
  988MOL0     C30346   3.684   0.454   1.794  0.8124  0.5749 -0.2791
  988MOL0     C30347   3.691   0.499   1.655  0.0445  0.6643  0.2863
  988MOL0     C30348   3.699   0.537   1.537 -0.0178  0.6362  0.1841
  988MOL0     C30349   3.206   0.274   2.310  0.2630  0.3082 -0.9999
  988MOL0     C30350   3.092   0.293   2.388  0.1532  0.1702 -0.1191
  988MOL0     H30351   2.632   0.510   2.495  2.9433 -1.0014 -0.8238
  988MOL0     H30352   2.405   0.451   2.571 -1.8959 -0.7075  0.8039
  988MOL0     H30353   2.371   0.147   2.896 -0.1760  1.8332  0.7023
  988MOL0     H30354   2.316   0.050   2.756  1.3849  0.1309 -0.4521
  988MOL0     H30355   2.093   0.205   2.776 -1.1437  0.4180  1.0047
  988MOL0     H30356   2.156   0.226   2.935 -1.0185  0.4054 -0.0586
  988MOL0     H30357   2.105  -0.056   2.840  0.3810  0.1391 -0.3040
  988MOL0     H30358   1.990   0.037   2.928 -0.9596 -1.2743  0.0393
  988MOL0     H30359   2.271  -0.042   3.039  0.2287  0.5199 -0.6981
  988MOL0     H30360   2.150   0.070   3.114  0.2398  2.4671 -2.5320
  988MOL0     H30361   2.113  -0.226   3.064  3.6883  0.5750  1.5674
  988MOL0     H30362   1.967  -0.111   3.089  0.0779  2.0725  2.2506
  988MOL0     H30363   2.018  -0.073   3.313  1.8554  0.8968  0.4675
  988MOL0     H30364   2.181  -0.123   3.284 -0.5204  1.7686 -0.5209
  988MOL0     H30365   2.106  -0.366   3.301 -1.9711 -1.2802 -0.0928
  988MOL0     H30366   2.038  -0.283   3.430 -1.4525 -0.2205  0.1175
  988MOL0     H30367   1.873  -0.434   3.307  1.1153 -0.8537 -3.3344
  988MOL0     H30368   1.883  -0.352   3.162 -1.7370 -1.3362 -0.0449
  988MOL0     H30369   1.664  -0.403   3.394  0.9747 -0.6582 -1.9057
  988MOL0     H30370   1.440  -0.080   3.500 -1.8720 -0.6560  0.2985
  988MOL0     H30371   1.482  -0.235   3.569  0.4217  0.8521 -0.2680
  988MOL0     H30372   1.280  -0.267   3.502  1.2144  1.8932  0.4402
  988MOL0     H30373   1.358  -0.341   3.360 -1.1900 -0.6052 -0.6623
  988MOL0     H30374   1.165  -0.187   3.323 -0.4572  1.1871  1.6036
  988MOL0     H30375   1.265  -0.050   3.337 -0.7131 -0.3459 -1.6481
  988MOL0     H30376   1.330  -0.286   3.145  1.1432 -0.2736  0.0097
  988MOL0     H30377   1.433  -0.149   3.163 -0.6374 -2.1860 -2.5647
  988MOL0     H30378   1.075  -0.012   2.917 -1.3583  0.7390  3.4143
  988MOL0     H30379   1.078   0.241   2.855  2.0303  5.0434  2.4795
  988MOL0     H30380   1.445   0.579   2.688  0.2332  0.4629 -1.2368
  988MOL0     H30381   1.407   0.810   2.605  0.3002 -0.5537  0.1950
  988MOL0     H30382   1.585   1.022   2.793  1.3194  1.7379 -2.4886
  988MOL0     H30383   1.484   1.140   2.888 -1.8950 -0.4876 -0.8226
  988MOL0     H30384   1.620   1.238   2.723 -0.2295  1.5395 -1.8226
  988MOL0     H30385   1.451   1.265   2.685  0.5326  0.3106  0.1107
  988MOL0     H30386   1.480   1.097   2.502 -0.2971  2.1137 -1.0104
  988MOL0     H30387   1.649   1.071   2.541 -0.0146 -1.1578 -3.6428
  988MOL0     H30388   1.545   1.339   2.479 -1.0292 -0.1491 -1.4901
  988MOL0     H30389   1.720   1.287   2.483  0.1999  0.3168 -0.4314
  988MOL0     H30390   1.517   1.189   2.292  0.6911 -1.4971  0.7767
  988MOL0     H30391   1.681   1.137   2.281 -1.6698 -0.3713 -2.5572
  988MOL0     H30392   1.587   1.433   2.260  0.4828 -0.5114  1.4342
  988MOL0     H30393   1.634   1.327   2.122 -0.0614  2.1448 -0.3386
  988MOL0     H30394   1.825   1.426   2.335  1.2916 -1.7144  0.2135
  988MOL0     H30395   1.849   1.288   2.224 -2.0810 -1.1709 -0.7921
  988MOL0     H30396   1.846   1.418   2.032  1.5445  1.9707 -1.2395
  988MOL0     H30397   1.932   1.513   2.154  0.2640 -0.2564 -0.2263
  988MOL0     H30398   1.325   0.937   3.005 -0.0446 -0.8502  1.8253
  988MOL0     H30399   1.318   0.695   3.079  2.4597 -0.3850  1.3891
  988MOL0     H30400   1.439   0.286   3.070  0.9121 -1.7477 -0.1753
  988MOL0     H30401   1.427   0.079   3.156 -0.5121  1.1581  1.4442
  988MOL0     H30402   2.566   0.108   2.776 -3.0888 -0.0038  0.8301
  988MOL0     H30403   2.799   0.171   2.692  0.5196 -1.2299 -1.7941
  988MOL0     H30404   2.898   0.419   2.136  0.3678 -1.6506 -1.0935
  988MOL0     H30405   3.115   0.408   2.012  0.2127  0.8625 -0.5862
  988MOL0     H30406   3.359   0.481   2.031 -2.0524 -0.1105 -0.6333
  988MOL0     H30407   3.303   0.347   1.931  2.0474 -0.5280 -1.7378
  988MOL0     H30408   3.585   0.377   2.024 -2.4650 -1.3141  3.2291
  988MOL0     H30409   3.514   0.238   1.940  0.8829 -0.4034  1.2289
  988MOL0     H30410   3.467   0.518   1.823 -0.9672  0.5140  2.5072
  988MOL0     H30411   3.504   0.357   1.743 -1.7404 -0.9879  2.4385
  988MOL0     H30412   3.728   0.533   1.855  0.8513  0.8522 -0.6568
  988MOL0     H30413   3.748   0.366   1.802  0.7384  0.5051 -0.4471
  988MOL0     H30414   3.690   0.555   1.432 -1.1544 -0.8674 -0.0102
  988MOL0     H30415   3.285   0.222   2.362  0.8089  1.4037 -0.6954
  988MOL0     H30416   3.082   0.278   2.495 -2.0726  2.5291  0.0796
  989MOL0     O30417   1.512   6.221   1.094  0.0117 -0.3751  0.1106
  989MOL0     C30418   1.502   6.192   1.209 -0.5621 -0.1760 -0.0433
  989MOL0     O30419   1.392   6.150   1.265 -0.0746  0.2817  0.1544
  989MOL0     C30420   1.282   6.111   1.201  0.8273  0.4709  0.3432
  989MOL0     C30421   1.163   6.126   1.277 -0.9068 -0.4011  0.6170
  989MOL0     C30422   1.037   6.096   1.219 -0.6042 -1.1073 -0.4930
  989MOL0     C30423   1.025   6.047   1.091 -0.1177 -0.4795  0.2400
  989MOL0     O30424   0.891   6.021   1.056  0.3672 -0.0407 -0.3638
  989MOL0     C30425   0.863   6.007   0.921  0.2490 -0.1593  0.3149
  989MOL0     C30426   0.722   6.036   0.885  0.6945 -0.2828  0.2491
  989MOL0     C30427   0.666   5.941   0.769  1.3289 -0.0521  0.2135
  989MOL0     C30428   0.519   5.966   0.732 -0.5223  0.0824 -0.2071
  989MOL0     C30429   0.457   5.865   0.631 -0.3932 -0.3186  0.0371
  989MOL0     C30430   0.517   5.872   0.489  0.4588  0.1914 -0.3855
  989MOL0     C30431   0.450   5.765   0.396  0.2713  0.2151 -0.7567
  989MOL0     C30432   0.317   5.810   0.328  1.1482 -0.5209  1.0525
  989MOL0     N30433   0.224   5.699   0.281 -0.3068  0.4113  0.5179
  989MOL0     C30434   0.106   5.712   0.212 -0.4087  0.1799  0.2394
  989MOL0     C30435   0.065   5.584   0.201  0.0697 -0.7269 -0.4181
  989MOL0     C30436  -0.055   5.523   0.133  0.2808 -0.0157  0.2774
  989MOL0     C30437  -0.197   5.568   0.176  0.1037 -0.4403  0.7812
  989MOL0     C30438  -0.298   5.495   0.086 -0.2974  0.1500  0.8972
  989MOL0     C30439  -0.442   5.526   0.126 -0.2764  0.0764  0.2792
  989MOL0     O30440  -0.488   5.661   0.107  0.3979 -0.2510 -0.1658
  989MOL0     C30441  -0.626   5.665   0.089 -0.4493  0.6634 -0.2105
  989MOL0     C30442  -0.671   5.771   0.009 -0.2032 -0.9556  1.0225
  989MOL0     C30443  -0.802   5.779  -0.035  0.2644 -0.0086  0.1289
  989MOL0     C30444  -0.889   5.686   0.007 -0.5982 -0.6734 -0.4139
  989MOL0     C30445  -1.028   5.718  -0.018  0.2385  0.5830 -0.1534
  989MOL0     O30446  -1.113   5.639   0.063  0.0607 -0.5950  0.1540
  989MOL0     C30447  -1.228   5.700   0.091 -0.2155 -1.1298  0.3567
  989MOL0     C30448  -1.264   5.705   0.226 -0.4395  0.0228 -0.2880
  989MOL0     C30449  -1.392   5.765   0.260 -0.6290  0.0403  0.5632
  989MOL0     C30450  -1.491   5.796   0.162 -0.3587 -0.1368 -0.4774
  989MOL0     O30451  -1.613   5.856   0.199 -0.3570  0.5952 -1.1452
  989MOL0     C30452  -1.709   5.894   0.095 -0.2579 -0.0367 -0.9480
  989MOL0     C30453  -1.820   5.987   0.153  0.5677 -0.2747 -0.4621
  989MOL0     C30454  -1.920   6.034   0.050  0.0903 -0.1869  0.2661
  989MOL0     C30455  -1.884   6.147  -0.058  0.5731  0.0633  0.6749
  989MOL0     C30456  -2.007   6.166  -0.159 -0.5805  1.0805 -0.1499
  989MOL0     C30457  -2.107   6.271  -0.120  0.0672 -0.0264  1.1888
  989MOL0     C30458  -2.235   6.260  -0.209 -0.4805 -0.4363  0.0679
  989MOL0     C30459  -2.307   6.385  -0.260 -0.4449 -0.2059 -0.6931
  989MOL0    Cl30460  -2.466   6.344  -0.330 -0.1144 -0.0657 -0.2667
  989MOL0     C30461  -1.450   5.781   0.026 -0.6311  0.0185 -0.1486
  989MOL0     C30462  -1.325   5.733  -0.009  0.1115 -0.8813  0.2680
  989MOL0     O30463  -1.065   5.796  -0.101  0.0450  0.4228 -0.5564
  989MOL0     C30464  -0.856   5.582   0.097 -0.8521 -0.4451  0.0318
  989MOL0     C30465  -0.718   5.568   0.139  0.0946 -0.0993  0.1149
  989MOL0     N30466   0.161   5.494   0.250  0.2461  0.0740 -0.2086
  989MOL0     N30467   0.259   5.570   0.286  0.4602  0.1599 -0.8262
  989MOL0     C30468   1.141   6.024   1.015 -0.4292  0.3821  0.4988
  989MOL0     C30469   1.268   6.058   1.067  0.8213  0.0676  0.3852
  989MOL0     C30470   1.625   6.235   1.288  1.3244  0.7427  0.7928
  989MOL0     C30471   1.742   6.272   1.225  0.2853 -0.5191  0.6445
  989MOL0     C30472   1.849   6.328   1.297  0.3518  0.3325 -0.3004
  989MOL0     C30473   1.840   6.331   1.435  0.1614 -0.1644  0.1393
  989MOL0     O30474   1.931   6.387   1.520 -0.3459  0.1689  0.5083
  989MOL0     C30475   2.068   6.352   1.522  0.1254 -0.4484 -0.4895
  989MOL0     C30476   2.158   6.477   1.494  0.3460  0.2914  0.5841
  989MOL0     C30477   2.123   6.540   1.357  0.1897  0.7383 -0.4886
  989MOL0     C30478   2.217   6.651   1.319  0.4858  0.1577 -0.2247
  989MOL0     C30479   2.352   6.624   1.358 -0.2534 -0.4596 -0.4577
  989MOL0     C30480   2.468   6.603   1.389 -0.0048 -0.6213 -0.1823
  989MOL0     C30481   1.714   6.297   1.494 -0.7590 -0.0819 -0.2600
  989MOL0     C30482   1.611   6.248   1.425 -0.0760 -0.4192 -0.7968
  989MOL0     H30483   1.167   6.181   1.371  2.6233  2.3642 -0.9362
  989MOL0     H30484   0.950   6.116   1.280  0.1795  1.2609 -0.0137
  989MOL0     H30485   0.879   5.903   0.890  3.0730  0.2447  0.1645
  989MOL0     H30486   0.930   6.070   0.862 -0.0354  0.0532  0.2177
  989MOL0     H30487   0.712   6.143   0.866 -3.4116 -0.0808  2.4164
  989MOL0     H30488   0.656   6.017   0.970  0.4267 -3.0122 -0.4605
  989MOL0     H30489   0.668   5.839   0.809  1.0758  0.0956  0.6109
  989MOL0     H30490   0.741   5.947   0.690  0.8654  0.8397 -0.1755
  989MOL0     H30491   0.463   5.964   0.826 -1.1773 -0.0646 -0.5942
  989MOL0     H30492   0.514   6.069   0.695  0.4698 -0.3565 -1.6466
  989MOL0     H30493   0.351   5.886   0.615 -0.5997 -1.3275  0.0258
  989MOL0     H30494   0.465   5.768   0.680  1.6534 -0.5487 -0.6572
  989MOL0     H30495   0.623   5.851   0.502  0.1616 -0.5267  1.1644
  989MOL0     H30496   0.505   5.973   0.449 -4.1022  0.0225 -0.0250
  989MOL0     H30497   0.510   5.716   0.319  1.8335 -1.5927  1.4769
  989MOL0     H30498   0.420   5.681   0.459 -0.4131  0.6908 -0.4358
  989MOL0     H30499   0.346   5.853   0.232  0.2981 -0.9245  0.5974
  989MOL0     H30500   0.257   5.876   0.391  0.6148 -0.7878  0.8372
  989MOL0     H30501   0.064   5.807   0.179  1.2192  1.3055  1.2367
  989MOL0     H30502  -0.050   5.414   0.148 -0.7120 -0.0066  0.7886
  989MOL0     H30503  -0.046   5.559   0.031 -4.5339 -0.4198 -0.4981
  989MOL0     H30504  -0.216   5.674   0.152  0.0666 -0.6690 -0.2565
  989MOL0     H30505  -0.218   5.557   0.282 -0.5541  0.9313  0.8184
  989MOL0     H30506  -0.286   5.513  -0.021 -3.1618 -2.9914 -0.1059
  989MOL0     H30507  -0.287   5.387   0.099  1.4033  0.3771  1.4980
  989MOL0     H30508  -0.451   5.497   0.232  0.1202 -4.1031 -0.6616
  989MOL0     H30509  -0.507   5.452   0.079  1.6494 -1.8078  0.4719
  989MOL0     H30510  -0.595   5.838  -0.032 -1.0558 -0.5375  0.0726
  989MOL0     H30511  -0.830   5.860  -0.101  0.1741 -1.3917 -1.5967
  989MOL0     H30512  -1.210   5.654   0.304 -1.5099  0.6210  0.8805
  989MOL0     H30513  -1.414   5.781   0.365  0.3022 -0.3725  0.8296
  989MOL0     H30514  -1.743   5.795   0.064  3.1063 -1.8748  0.6535
  989MOL0     H30515  -1.648   5.941   0.018 -0.2371 -0.3808 -1.1399
  989MOL0     H30516  -1.777   6.072   0.207  1.2269  0.4907 -2.1143
  989MOL0     H30517  -1.881   5.923   0.217  0.7198 -1.0383 -1.0591
  989MOL0     H30518  -2.014   6.054   0.102 -1.1457 -1.4995 -1.3615
  989MOL0     H30519  -1.959   5.948  -0.006  0.0575  0.6750 -1.0776
  989MOL0     H30520  -1.859   6.236  -0.000  0.9746 -0.6681  1.6521
  989MOL0     H30521  -1.789   6.112  -0.102  0.7857 -2.9228  3.1203
  989MOL0     H30522  -2.064   6.074  -0.170 -1.1731  1.5960 -1.6180
  989MOL0     H30523  -1.957   6.180  -0.256  2.4873 -1.3385  0.9315
  989MOL0     H30524  -2.065   6.371  -0.113 -0.2421  0.0144  2.8726
  989MOL0     H30525  -2.139   6.246  -0.018 -2.3439  0.5690  0.6474
  989MOL0     H30526  -2.215   6.207  -0.303 -3.4796 -1.9434  0.1823
  989MOL0     H30527  -2.302   6.193  -0.155  0.3146 -0.5100  1.0044
  989MOL0     H30528  -2.252   6.456  -0.324 -1.2020  2.0757  1.0678
  989MOL0     H30529  -2.330   6.438  -0.168 -0.9002 -0.4607 -0.6537
  989MOL0     H30530  -1.518   5.792  -0.058 -0.9513  1.0554  0.2359
  989MOL0     H30531  -1.293   5.731  -0.113 -0.2728  0.9009  0.0814
  989MOL0     H30532  -0.930   5.507   0.121 -0.7401 -0.2458  1.0675
  989MOL0     H30533  -0.698   5.503   0.224  0.8851  1.2919  1.0592
  989MOL0     H30534   1.141   5.998   0.909 -3.0538 -0.1059  0.5492
  989MOL0     H30535   1.349   6.057   0.995 -0.3086  3.1432 -1.1302
  989MOL0     H30536   1.751   6.266   1.117  1.2775 -0.4456  0.7132
  989MOL0     H30537   1.929   6.362   1.233 -0.8037  1.5220 -1.1827
  989MOL0     H30538   2.088   6.277   1.445  0.0350  0.0910 -1.0467
  989MOL0     H30539   2.093   6.298   1.613  0.4221 -0.9871 -0.8862
  989MOL0     H30540   2.147   6.562   1.561  1.4002 -0.8579  2.2763
  989MOL0     H30541   2.258   6.437   1.509  0.1246 -0.7384 -0.4481
  989MOL0     H30542   2.027   6.591   1.353  0.1092  0.6717  0.4206
  989MOL0     H30543   2.122   6.458   1.284 -2.8252 -0.5151  0.7794
  989MOL0     H30544   2.202   6.656   1.211 -5.0168  0.6794  0.3004
  989MOL0     H30545   2.172   6.737   1.369 -1.6652 -0.0732 -1.6143
  989MOL0     H30546   2.572   6.606   1.415  0.5439 -1.4133 -2.1116
  989MOL0     H30547   1.704   6.301   1.602 -0.2613  0.0892 -0.2183
  989MOL0     H30548   1.513   6.229   1.468  0.4099 -1.4077 -0.1085
  990MOL0     O30549   2.998  10.520   3.011  0.2430  0.4894 -0.6207
  990MOL0     C30550   2.959  10.440   3.098  0.6198  0.1475  0.2144
  990MOL0     O30551   2.824  10.411   3.127  0.4674  0.0074 -0.3752
  990MOL0     C30552   2.719  10.467   3.059  0.5218  0.2202  0.0370
  990MOL0     C30553   2.721  10.600   3.019 -0.6140 -0.9297  0.2746
  990MOL0     C30554   2.619  10.646   2.929  0.9216  0.0753  0.6462
  990MOL0     C30555   2.512  10.564   2.893 -0.1710  0.1773 -0.0881
  990MOL0     O30556   2.414  10.601   2.799  0.2682  0.3996 -0.3786
  990MOL0     C30557   2.432  10.709   2.710  0.1089 -0.6783 -0.4553
  990MOL0     C30558   2.303  10.752   2.648  1.1335  0.1760 -0.1921
  990MOL0     C30559   2.203  10.806   2.757  0.3690  0.7410  0.7123
  990MOL0     C30560   2.063  10.819   2.692  0.5070 -0.0297  0.4863
  990MOL0     C30561   1.947  10.850   2.776 -0.2577 -0.3393 -0.6719
  990MOL0     C30562   1.920  10.764   2.896  0.6095  0.7091 -0.0212
  990MOL0     C30563   1.891  10.621   2.845  0.7742  0.0003 -0.2501
  990MOL0     C30564   1.862  10.522   2.962  0.3087  0.8713 -0.3352
  990MOL0     N30565   1.731  10.545   3.033  0.1112 -0.4003 -0.5851
  990MOL0     C30566   1.610  10.555   2.976 -0.0208  0.2353  0.4490
  990MOL0     C30567   1.528  10.585   3.071 -0.5611 -0.6869  0.6595
  990MOL0     C30568   1.382  10.603   3.034 -0.8143 -0.5868  1.4021
  990MOL0     C30569   1.301  10.500   3.110  0.0883 -0.0094 -0.9139
  990MOL0     C30570   1.293  10.536   3.268 -0.4227  0.1262 -0.0656
  990MOL0     C30571   1.304  10.414   3.366 -0.2415 -0.1502 -0.0677
  990MOL0     O30572   1.190  10.324   3.357  0.3266  0.0918  0.0019
  990MOL0     C30573   1.099  10.314   3.457  0.3016  0.1860 -0.8638
  990MOL0     C30574   1.052  10.429   3.530 -0.6951  0.7343  0.1386
  990MOL0     C30575   0.949  10.420   3.619 -0.9265 -0.0362 -0.4036
  990MOL0     C30576   0.887  10.299   3.659 -0.7340 -1.0915 -0.2825
  990MOL0     C30577   0.787  10.305   3.762  0.0966 -1.0436 -0.9983
  990MOL0     O30578   0.784  10.417   3.845 -0.0378 -0.0221 -0.1449
  990MOL0     C30579   0.673  10.460   3.915 -0.5801 -0.4265  0.8631
  990MOL0     C30580   0.696  10.569   4.010 -0.3184  0.6612  0.0648
  990MOL0     C30581   0.599  10.631   4.092 -1.5057 -0.1034  0.4205
  990MOL0     C30582   0.465  10.589   4.071 -0.4554 -0.4603 -0.3118
  990MOL0     O30583   0.363  10.649   4.141 -0.0011  0.2707  0.1961
  990MOL0     C30584   0.357  10.793   4.120 -0.5164  0.2193  0.0348
  990MOL0     C30585   0.293  10.826   3.983 -0.1539  0.0024 -0.4961
  990MOL0     C30586   0.289  10.979   3.964 -0.9102  0.3827  0.1836
  990MOL0     C30587   0.242  11.016   3.831  0.3042 -0.5205  0.2108
  990MOL0     C30588   0.289  11.161   3.791 -0.1140  0.1825 -0.8229
  990MOL0     C30589   0.288  11.190   3.647  0.5789 -0.3004  0.0954
  990MOL0     C30590   0.349  11.324   3.602 -0.5594 -0.4690  0.0994
  990MOL0     C30591   0.397  11.308   3.456  0.5625  0.1037 -0.7716
  990MOL0    Cl30592   0.546  11.209   3.453  0.2723 -0.7166 -0.0773
  990MOL0     C30593   0.445  10.487   3.977 -0.3310 -0.6885 -0.3494
  990MOL0     C30594   0.540  10.427   3.902 -0.1168  0.5954  0.1198
  990MOL0     O30595   0.717  10.205   3.780 -0.9505  0.6174  0.0668
  990MOL0     C30596   0.933  10.190   3.588  0.0897 -0.0399 -0.5636
  990MOL0     C30597   1.024  10.195   3.482  0.7736  0.2826 -0.5617
  990MOL0     N30598   1.594  10.619   3.184 -0.2174 -0.0319  0.3910
  990MOL0     N30599   1.719  10.593   3.162 -0.2886 -0.0439  0.6449
  990MOL0     C30600   2.510  10.426   2.921 -0.9594  0.5384  0.0624
  990MOL0     C30601   2.610  10.382   3.009  0.3887 -0.5150 -1.1194
  990MOL0     C30602   3.056  10.352   3.169 -0.1692  0.6429 -0.2595
  990MOL0     C30603   3.011  10.242   3.247 -0.4391 -0.6000  0.6371
  990MOL0     C30604   3.109  10.176   3.322  0.8939  0.2770  0.1054
  990MOL0     C30605   3.239  10.210   3.326  0.0197  0.1319 -0.0398
  990MOL0     O30606   3.313  10.136   3.411 -0.0079  0.4380 -0.4025
  990MOL0     C30607   3.453  10.145   3.418 -0.2976  0.7173  0.2769
  990MOL0     C30608   3.506  10.097   3.554  0.3279 -0.4007 -0.5592
  990MOL0     C30609   3.663  10.119   3.559  0.5010  0.6014  0.1155
  990MOL0     C30610   3.732   9.989   3.531 -0.0371  0.0904  0.3351
  990MOL0     C30611   3.739   9.952   3.393 -0.5220 -0.6885  0.0558
  990MOL0     C30612   3.752   9.921   3.277  0.2311 -0.4323  0.1158
  990MOL0     C30613   3.285  10.309   3.243 -0.2994 -0.2049  1.0672
  990MOL0     C30614   3.188  10.382   3.171 -0.1382 -0.2183 -1.0567
  990MOL0     H30615   2.790  10.676   3.053 -1.1620  1.3147 -3.1386
  990MOL0     H30616   2.624  10.751   2.903  0.0292  0.6441  2.6343
  990MOL0     H30617   2.499  10.675   2.630 -0.8963  0.1957 -1.7168
  990MOL0     H30618   2.486  10.796   2.750  0.1112 -0.2351 -1.3865
  990MOL0     H30619   2.259  10.667   2.596 -1.0898 -0.3323  2.2768
  990MOL0     H30620   2.316  10.823   2.565 -1.0279  0.1761 -0.5991
  990MOL0     H30621   2.247  10.897   2.799 -0.4153  1.0215  0.9424
  990MOL0     H30622   2.199  10.732   2.838  1.9354 -1.1999 -0.8712
  990MOL0     H30623   2.073  10.890   2.608  2.0058 -0.4400  0.3035
  990MOL0     H30624   2.040  10.720   2.651  1.7868 -0.1771  0.0986
  990MOL0     H30625   1.859  10.849   2.712  0.9972  2.5220 -2.6378
  990MOL0     H30626   1.970  10.950   2.815 -0.1109 -0.7644  0.3487
  990MOL0     H30627   1.831  10.801   2.948 -0.8947 -3.7444  1.0327
  990MOL0     H30628   2.008  10.758   2.960  1.2270 -0.9191 -0.9688
  990MOL0     H30629   1.811  10.624   2.770  0.2479 -0.5728  0.2744
  990MOL0     H30630   1.969  10.582   2.780  1.7948  1.5671 -0.0282
  990MOL0     H30631   1.944  10.523   3.034 -1.2236  3.3403  1.5761
  990MOL0     H30632   1.867  10.421   2.921  3.7937 -0.1996  2.2105
  990MOL0     H30633   1.586  10.545   2.870 -1.4227 -2.8288  0.9603
  990MOL0     H30634   1.364  10.578   2.929  0.0121  0.9406  0.8658
  990MOL0     H30635   1.336  10.701   3.054  1.5334  0.5043  1.8077
  990MOL0     H30636   1.348  10.403   3.095 -0.6348 -0.3484 -1.0450
  990MOL0     H30637   1.198  10.492   3.074  0.2781  1.8980 -2.0545
  990MOL0     H30638   1.368  10.609   3.299 -0.6662  0.5871 -0.5302
  990MOL0     H30639   1.191  10.574   3.280 -0.3909  1.4253 -2.9475
  990MOL0     H30640   1.333  10.450   3.465  0.1108 -0.6059 -0.0022
  990MOL0     H30641   1.392  10.355   3.339 -0.9164 -1.9126  1.3298
  990MOL0     H30642   1.089  10.531   3.525 -2.1680  1.2586 -0.7670
  990MOL0     H30643   0.929  10.515   3.667 -0.0210 -0.3570  0.6380
  990MOL0     H30644   0.802  10.592   4.008 -0.6315  2.2751 -2.8150
  990MOL0     H30645   0.631  10.706   4.164  1.8688 -1.2142  0.2852
  990MOL0     H30646   0.459  10.832   4.116 -0.2133 -0.5014  0.4026
  990MOL0     H30647   0.299  10.846   4.196 -1.3401 -0.7839  0.1413
  990MOL0     H30648   0.191  10.787   3.978  0.0034 -0.3491 -1.0125
  990MOL0     H30649   0.337  10.775   3.897  1.1177  1.2856 -0.6478
  990MOL0     H30650   0.386  11.021   3.993 -1.4352  0.6272  1.7147
  990MOL0     H30651   0.224  11.020   4.042 -0.5431 -0.9069  1.2116
  990MOL0     H30652   0.275  10.945   3.755 -0.8820  0.4650 -1.2797
  990MOL0     H30653   0.133  11.022   3.825 -0.0047 -0.6800  3.5277
  990MOL0     H30654   0.394  11.175   3.818 -0.4499 -1.1085  1.4189
  990MOL0     H30655   0.238  11.233   3.856  0.3606 -1.0945  1.0369
  990MOL0     H30656   0.182  11.204   3.624  1.0148  2.7315 -0.6209
  990MOL0     H30657   0.329  11.102   3.597 -1.5619 -0.3793 -1.7043
  990MOL0     H30658   0.284  11.412   3.600  1.4648  1.0892 -1.0684
  990MOL0     H30659   0.436  11.343   3.665  0.4124 -0.6576 -1.1623
  990MOL0     H30660   0.421  11.399   3.400  2.3902  0.4400  0.4999
  990MOL0     H30661   0.321  11.254   3.398 -0.8114 -0.8514  1.7510
  990MOL0     H30662   0.340  10.459   3.965 -0.9476  0.7103  1.3323
  990MOL0     H30663   0.506  10.348   3.836 -1.8796  1.3761  0.0196
  990MOL0     H30664   0.896  10.088   3.594  0.6475 -0.2027  0.5697
  990MOL0     H30665   1.059  10.100   3.442 -1.8421 -0.7251 -0.6283
  990MOL0     H30666   2.431  10.360   2.885 -1.8315  1.6269 -0.0865
  990MOL0     H30667   2.607  10.278   3.041 -2.2093  0.4332  2.3154
  990MOL0     H30668   2.909  10.207   3.250 -0.2578 -1.2312 -0.1313
  990MOL0     H30669   3.081  10.080   3.365  2.8492 -1.3709 -2.0414
  990MOL0     H30670   3.483  10.249   3.404 -0.6669  1.0955  2.0387
  990MOL0     H30671   3.504  10.086   3.341 -0.0331 -0.0309  0.9994
  990MOL0     H30672   3.458  10.168   3.623  1.1915  1.2723 -1.5957
  990MOL0     H30673   3.480   9.992   3.566  1.6908 -0.7119 -0.1924
  990MOL0     H30674   3.701  10.153   3.656  1.4213 -2.5120  0.9909
  990MOL0     H30675   3.698  10.186   3.480  0.6987  1.4461  0.9108
  990MOL0     H30676   3.833   9.989   3.572  0.2799  0.6240 -0.4066
  990MOL0     H30677   3.680   9.902   3.573 -1.9259  1.4781  1.0117
  990MOL0     H30678   3.757   9.889   3.175  2.1703  1.0543 -0.3003
  990MOL0     H30679   3.388  10.334   3.218 -0.9292  1.4750 -0.0007
  990MOL0     H30680   3.226  10.470   3.119 -1.2611  1.7228  1.1655
  991MOL0     O30681   1.680   1.086   9.040  0.0426  0.0589 -0.1258
  991MOL0     C30682   1.745   1.042   9.139  0.3369  0.0933  0.5493
  991MOL0     O30683   1.699   1.029   9.261  0.1751  0.9639 -0.1185
  991MOL0     C30684   1.568   1.036   9.301 -0.4615  0.3891 -0.6019
  991MOL0     C30685   1.541   1.046   9.437  0.1468 -0.3079 -0.3383
  991MOL0     C30686   1.412   1.030   9.494 -0.2891 -0.7435  0.1583
  991MOL0     C30687   1.303   1.031   9.418  0.2014 -0.4165 -0.0499
  991MOL0     O30688   1.173   1.040   9.483  0.2523 -0.3811 -0.0161
  991MOL0     C30689   1.073   0.957   9.427 -0.0755 -0.5264  0.6275
  991MOL0     C30690   0.951   0.956   9.510  0.4705  0.4129  0.2101
  991MOL0     C30691   0.844   0.855   9.464 -0.2972  0.6076 -0.3519
  991MOL0     C30692   0.721   0.867   9.561 -0.1484  0.1272 -0.7944
  991MOL0     C30693   0.609   0.763   9.538 -0.2501 -0.6815 -1.1177
  991MOL0     C30694   0.526   0.790   9.412 -0.9569  0.9947 -0.2971
  991MOL0     C30695   0.428   0.902   9.428 -0.1739 -0.1238 -0.5011
  991MOL0     C30696   0.375   0.968   9.308 -0.9052 -0.4520  0.2040
  991MOL0     N30697   0.486   0.997   9.215  0.4512 -0.2838 -0.7853
  991MOL0     C30698   0.603   1.065   9.243 -1.3672  0.6954 -0.1604
  991MOL0     C30699   0.689   1.039   9.138 -0.2619  0.1275  0.2779
  991MOL0     C30700   0.823   1.105   9.121 -0.3561  0.6093 -0.9643
  991MOL0     C30701   0.813   1.247   9.075  0.7421  0.9263 -0.0547
  991MOL0     C30702   0.953   1.311   9.079 -0.4508 -0.2625  0.2048
  991MOL0     C30703   1.028   1.244   8.964 -0.3420  0.6524 -0.7387
  991MOL0     O30704   1.125   1.147   9.007 -0.1799 -0.2898 -0.0105
  991MOL0     C30705   1.192   1.087   8.898 -0.0017  0.1313 -0.4704
  991MOL0     C30706   1.316   1.127   8.869 -0.1647  0.4681  0.0288
  991MOL0     C30707   1.393   1.060   8.776  0.4886 -1.0660  0.0010
  991MOL0     C30708   1.337   0.957   8.703 -0.4430  0.7359 -0.1063
  991MOL0     C30709   1.417   0.884   8.604  0.3644  0.7427 -0.2749
  991MOL0     O30710   1.352   0.793   8.522 -0.0663 -0.1817 -0.6381
  991MOL0     C30711   1.412   0.716   8.421  0.1838 -0.6901  0.5272
  991MOL0     C30712   1.377   0.581   8.418  0.6683 -0.6272  0.2448
  991MOL0     C30713   1.417   0.497   8.313  0.0361  0.0193  0.9343
  991MOL0     C30714   1.496   0.547   8.213 -0.3819 -0.0761 -0.3135
  991MOL0     O30715   1.541   0.460   8.124 -0.5428 -0.6577  0.5795
  991MOL0     C30716   1.663   0.486   8.048 -0.8201  0.0562  0.9147
  991MOL0     C30717   1.772   0.426   8.130 -0.6641 -0.3295 -0.2661
  991MOL0     C30718   1.894   0.404   8.048 -0.2912  0.1882  0.7277
  991MOL0     C30719   2.006   0.322   8.131 -0.0406 -0.3028 -0.5295
  991MOL0     C30720   2.137   0.307   8.035 -0.7901 -0.3561 -0.4635
  991MOL0     C30721   2.258   0.253   8.105 -0.1217 -0.1821 -0.5692
  991MOL0     C30722   2.391   0.272   8.029  0.0640  0.6860 -0.1237
  991MOL0     C30723   2.517   0.225   8.098 -0.4928 -0.8542  0.2725
  991MOL0    Cl30724   2.584   0.330   8.220 -0.3366  0.3716 -0.0897
  991MOL0     C30725   1.528   0.682   8.215 -0.6144 -0.2285  0.7135
  991MOL0     C30726   1.496   0.770   8.320  0.2041  0.9894  0.3949
  991MOL0     O30727   1.536   0.906   8.599 -0.5161 -0.7105 -0.3617
  991MOL0     C30728   1.212   0.920   8.720 -0.0328 -0.1956  0.2841
  991MOL0     C30729   1.134   0.976   8.821  0.2873 -0.4112  0.0406
  991MOL0     N30730   0.615   0.958   9.051  0.4784 -0.2307  0.1070
  991MOL0     N30731   0.490   0.943   9.092  0.0438  0.4341  0.3708
  991MOL0     C30732   1.325   1.038   9.278  0.7490 -0.1123 -0.1953
  991MOL0     C30733   1.454   1.035   9.222  0.0053  0.6800 -0.1929
  991MOL0     C30734   1.895   1.025   9.125 -1.3576  0.0320  0.1525
  991MOL0     C30735   1.965   0.964   9.229  0.0832  0.0648 -0.0918
  991MOL0     C30736   2.100   0.922   9.214  0.3500 -0.5483  0.6418
  991MOL0     C30737   2.164   0.936   9.090 -0.2190  0.0421 -0.5980
  991MOL0     O30738   2.294   0.893   9.063  0.0378 -0.5790 -1.3330
  991MOL0     C30739   2.367   0.844   9.174  0.1773  0.4674 -0.0185
  991MOL0     C30740   2.521   0.818   9.158 -0.0799  0.3482 -0.3751
  991MOL0     C30741   2.616   0.928   9.108 -0.4273 -0.4988  0.1312
  991MOL0     C30742   2.759   0.872   9.091 -0.3373  0.2504 -0.0262
  991MOL0     C30743   2.830   0.986   9.033 -0.1714 -0.0675 -0.3222
  991MOL0     C30744   2.895   1.080   8.991  0.1591 -0.0135 -0.1984
  991MOL0     C30745   2.093   0.998   8.982  0.7404 -1.0561 -0.2128
  991MOL0     C30746   1.955   1.041   8.999  0.5227 -0.2108 -0.3054
  991MOL0     H30747   1.626   1.051   9.505  0.0662 -0.7264 -0.2020
  991MOL0     H30748   1.403   1.020   9.602  3.6919 -2.1647  0.5618
  991MOL0     H30749   1.111   0.855   9.418  0.3164 -0.2765 -0.9083
  991MOL0     H30750   1.065   0.997   9.325  4.6075  0.3358  0.3747
  991MOL0     H30751   0.901   1.053   9.519 -1.0372 -0.2315 -0.8265
  991MOL0     H30752   0.992   0.917   9.604  3.8218 -1.0915 -1.6840
  991MOL0     H30753   0.878   0.752   9.482 -2.0728  0.3690  2.1645
  991MOL0     H30754   0.826   0.864   9.356 -2.4742  1.6640  0.0474
  991MOL0     H30755   0.770   0.866   9.658  0.2039  0.0127 -0.9738
  991MOL0     H30756   0.681   0.969   9.552 -0.7272 -0.0164 -0.0329
  991MOL0     H30757   0.541   0.764   9.624 -1.3946 -1.7013 -2.0001
  991MOL0     H30758   0.656   0.664   9.536 -0.1219 -0.6176 -1.3081
  991MOL0     H30759   0.477   0.702   9.371  1.1849  0.9911 -3.2182
  991MOL0     H30760   0.598   0.814   9.332 -3.7512  0.5608 -3.1171
  991MOL0     H30761   0.337   0.872   9.481  1.0824 -1.7665  0.8583
  991MOL0     H30762   0.476   0.981   9.487 -0.0385  0.8968 -1.9342
  991MOL0     H30763   0.320   1.058   9.338 -2.9626 -1.1619 -1.2273
  991MOL0     H30764   0.296   0.916   9.253 -0.9586  0.6767 -0.8421
  991MOL0     H30765   0.621   1.136   9.323 -2.2360  1.4443 -0.6080
  991MOL0     H30766   0.890   1.041   9.063 -0.4379 -1.6089  1.2274
  991MOL0     H30767   0.876   1.103   9.217 -0.9700 -0.8866 -0.6283
  991MOL0     H30768   0.759   1.294   9.158  1.8057  0.1195  1.1407
  991MOL0     H30769   0.755   1.258   8.983 -2.4036  1.8298  1.8714
  991MOL0     H30770   0.948   1.416   9.050 -1.7041 -0.1448  0.7751
  991MOL0     H30771   1.002   1.299   9.176  0.0685 -0.2723 -0.0571
  991MOL0     H30772   1.086   1.327   8.924  0.8098 -0.5552 -1.6558
  991MOL0     H30773   0.961   1.204   8.888 -1.3912 -0.4799  0.7104
  991MOL0     H30774   1.364   1.198   8.935  1.8034 -0.1932 -0.6138
  991MOL0     H30775   1.497   1.090   8.766  0.2331  0.2667  1.1151
  991MOL0     H30776   1.312   0.547   8.498 -0.7273  1.2257 -0.0456
  991MOL0     H30777   1.381   0.394   8.316 -0.6850  0.2870  2.1410
  991MOL0     H30778   1.680   0.592   8.026 -2.0186 -0.3765 -2.7147
  991MOL0     H30779   1.670   0.429   7.955 -1.5150 -1.2145  1.6085
  991MOL0     H30780   1.755   0.327   8.173  0.5910 -1.2045 -1.6727
  991MOL0     H30781   1.800   0.497   8.209  2.7792 -2.2346  0.4295
  991MOL0     H30782   1.932   0.499   8.010  0.8179 -1.7502 -3.5574
  991MOL0     H30783   1.867   0.351   7.956 -1.7985  2.3809 -0.1967
  991MOL0     H30784   2.031   0.375   8.224  0.8037 -1.4127 -0.1024
  991MOL0     H30785   1.965   0.223   8.154  1.8171 -1.5005 -2.0505
  991MOL0     H30786   2.170   0.406   8.002 -0.4012  0.4926  2.2184
  991MOL0     H30787   2.125   0.234   7.954 -0.9759 -0.9297  0.0727
  991MOL0     H30788   2.240   0.149   8.134 -2.1151  0.6680  1.5139
  991MOL0     H30789   2.265   0.308   8.200 -2.4665 -2.0056  0.7492
  991MOL0     H30790   2.378   0.213   7.938  2.4170 -0.0269 -0.0677
  991MOL0     H30791   2.414   0.375   8.003 -0.6723  0.4167 -1.9979
  991MOL0     H30792   2.591   0.218   8.017  0.8112  2.6061  0.9895
  991MOL0     H30793   2.501   0.126   8.142 -1.1916 -0.2187  1.5069
  991MOL0     H30794   1.600   0.726   8.146 -0.3021 -0.0109  1.1754
  991MOL0     H30795   1.534   0.871   8.326  0.0064  1.3456 -2.6923
  991MOL0     H30796   1.170   0.844   8.655  0.2113  1.5160 -1.9819
  991MOL0     H30797   1.030   0.956   8.842  0.3627  0.2638  1.1240
  991MOL0     H30798   1.240   1.057   9.213  1.5803 -0.1549 -1.3306
  991MOL0     H30799   1.465   1.023   9.115 -0.0353 -1.2439 -0.0111
  991MOL0     H30800   1.910   0.960   9.322 -2.0660 -0.2837 -1.3291
  991MOL0     H30801   2.144   0.882   9.305  2.4795 -0.3114 -0.2374
  991MOL0     H30802   2.324   0.745   9.184 -0.1612  0.3867 -1.8588
  991MOL0     H30803   2.358   0.909   9.262  1.1492  0.1069  0.3606
  991MOL0     H30804   2.554   0.779   9.254  0.6565 -1.3424 -1.2641
  991MOL0     H30805   2.528   0.736   9.086  0.5715  1.0783 -1.1662
  991MOL0     H30806   2.621   1.013   9.178 -0.9902 -1.1640  1.0115
  991MOL0     H30807   2.578   0.962   9.012 -0.0576  2.0607  0.8139
  991MOL0     H30808   2.809   0.841   9.183  3.2943  2.2708 -1.1243
  991MOL0     H30809   2.764   0.780   9.032 -1.9416  0.4615 -0.5445
  991MOL0     H30810   2.959   1.147   8.936 -1.9665  0.8001 -1.8566
  991MOL0     H30811   2.138   1.014   8.885  0.1351  1.2106 -0.1758
  991MOL0     H30812   1.899   1.074   8.912 -0.4207 -0.4344  0.2052
  992MOL0     O30813   6.247  10.118   5.417  0.6509  0.0688 -0.4526
  992MOL0     C30814   6.271  10.234   5.386  0.0802  0.3843 -0.2288
  992MOL0     O30815   6.185  10.329   5.357 -0.0445 -0.3008 -0.2038
  992MOL0     C30816   6.050  10.307   5.340 -0.2255  0.0899 -0.9376
  992MOL0     C30817   5.977  10.243   5.444 -0.5161 -0.5541 -0.1091
  992MOL0     C30818   5.840  10.238   5.436  0.6441 -0.3239  0.2499
  992MOL0     C30819   5.772  10.288   5.322 -0.8160 -0.2188  0.6390
  992MOL0     O30820   5.636  10.296   5.312  0.1828 -0.0657 -0.1582
  992MOL0     C30821   5.554  10.341   5.429 -0.2150 -0.2246  0.7252
  992MOL0     C30822   5.433  10.255   5.438  0.3288 -0.4047 -0.0836
  992MOL0     C30823   5.328  10.290   5.343  0.8323  0.2308  0.5671
  992MOL0     C30824   5.202  10.205   5.370 -0.6330  0.3335  0.0566
  992MOL0     C30825   5.082  10.229   5.280 -0.1914 -0.6743 -0.5072
  992MOL0     C30826   5.093  10.189   5.140 -0.7980 -0.3699  0.0875
  992MOL0     C30827   4.964  10.234   5.063 -0.5114  0.2662 -0.4167
  992MOL0     C30828   4.971  10.376   5.003 -0.1609  0.4065  0.1634
  992MOL0     N30829   4.841  10.409   4.949 -0.4108 -0.0172  0.0164
  992MOL0     C30830   4.780  10.394   4.835 -0.4226 -0.5214 -0.2643
  992MOL0     C30831   4.662  10.466   4.835 -0.5721  0.6499 -0.1101
  992MOL0     C30832   4.563  10.463   4.722 -0.4382 -0.1522  0.2678
  992MOL0     C30833   4.422  10.501   4.760  0.7971  1.3304 -0.8077
  992MOL0     C30834   4.335  10.500   4.634 -0.1169 -0.5614  0.7155
  992MOL0     C30835   4.195  10.547   4.668  0.2603 -0.3618  0.2255
  992MOL0     O30836   4.136  10.561   4.540  0.0223 -0.4854  0.2010
  992MOL0     C30837   4.002  10.603   4.531 -0.2906 -0.2440 -0.7253
  992MOL0     C30838   3.926  10.644   4.641 -0.3766  0.0876 -0.6745
  992MOL0     C30839   3.792  10.669   4.632  0.8805  0.1496 -0.0965
  992MOL0     C30840   3.726  10.641   4.517 -0.1661  0.0503 -0.6527
  992MOL0     C30841   3.583  10.678   4.499 -0.3877  0.6861 -0.5093
  992MOL0     O30842   3.498  10.654   4.602  0.5085 -0.3497  0.1267
  992MOL0     C30843   3.369  10.671   4.578  0.4722 -0.4339  0.6268
  992MOL0     C30844   3.316  10.805   4.582  0.5188  0.3503 -0.7312
  992MOL0     C30845   3.180  10.824   4.544 -0.6926  0.4564  0.2672
  992MOL0     C30846   3.104  10.710   4.515  0.3189  0.5514 -0.0378
  992MOL0     O30847   2.966  10.737   4.507  0.3170  0.4138 -0.1773
  992MOL0     C30848   2.870  10.635   4.524 -0.4945 -0.1603  0.1603
  992MOL0     C30849   2.743  10.669   4.454  0.0472 -0.2112 -0.0192
  992MOL0     C30850   2.643  10.562   4.474  0.0190  0.7364 -0.3913
  992MOL0     C30851   2.497  10.601   4.440 -0.2235  0.2498 -0.1397
  992MOL0     C30852   2.402  10.490   4.499  0.8260  0.2005  0.3523
  992MOL0     C30853   2.259  10.526   4.450  0.7811 -0.1936 -0.3041
  992MOL0     C30854   2.166  10.415   4.495 -0.1736 -0.3458 -1.1890
  992MOL0     C30855   2.028  10.412   4.434 -0.2493  0.3200  0.9806
  992MOL0    Cl30856   1.927  10.269   4.495  0.2480 -0.2970  0.1126
  992MOL0     C30857   3.164  10.582   4.490  0.8196 -1.3092 -0.5216
  992MOL0     C30858   3.301  10.563   4.526 -1.1775 -0.0369 -0.0718
  992MOL0     O30859   3.547  10.717   4.385 -0.1791  0.0218  0.5380
  992MOL0     C30860   3.797  10.587   4.407  0.7047  0.7819  0.1924
  992MOL0     C30861   3.937  10.580   4.414  0.3002 -0.2854  0.1677
  992MOL0     N30862   4.666  10.540   4.948 -0.7080 -0.0475 -0.9787
  992MOL0     N30863   4.770  10.501   5.015  0.6711  0.5516 -0.9002
  992MOL0     C30864   5.849  10.338   5.212 -0.0992  0.4013 -0.5715
  992MOL0     C30865   5.986  10.350   5.223  0.6623  0.7127 -0.6554
  992MOL0     C30866   6.414  10.263   5.400 -0.4925 -0.9998  0.8988
  992MOL0     C30867   6.467  10.394   5.376  0.7325  0.2910 -0.0968
  992MOL0     C30868   6.603  10.418   5.368 -1.6113  0.4910 -0.5694
  992MOL0     C30869   6.697  10.319   5.398  0.8318 -0.1547 -0.4797
  992MOL0     O30870   6.828  10.327   5.413 -0.7164  0.1139  0.1096
  992MOL0     C30871   6.893  10.425   5.332 -0.4331 -0.8484 -0.1782
  992MOL0     C30872   7.008  10.355   5.258  0.4539 -0.2919  0.1840
  992MOL0     C30873   7.108  10.452   5.193 -0.3362 -0.2268 -0.1259
  992MOL0     C30874   7.187  10.555   5.274 -0.0117 -0.4499  0.0634
  992MOL0     C30875   7.261  10.492   5.385 -0.7504  0.2599 -1.6240
  992MOL0     C30876   7.338  10.439   5.465  0.4821 -0.0951  0.1047
  992MOL0     C30877   6.647  10.189   5.422 -0.4942 -0.4226 -0.6412
  992MOL0     C30878   6.513  10.169   5.423 -0.2775  0.4990  0.0182
  992MOL0     H30879   6.027  10.200   5.530 -0.9144  0.9605  0.9023
  992MOL0     H30880   5.795  10.193   5.523  0.2353 -1.2086 -0.3959
  992MOL0     H30881   5.519  10.444   5.422 -0.4653 -0.1326  2.8114
  992MOL0     H30882   5.602  10.326   5.526 -1.9175 -1.3370  1.4413
  992MOL0     H30883   5.402  10.256   5.543 -0.2133 -1.6740 -0.2084
  992MOL0     H30884   5.453  10.149   5.421 -1.1073 -0.7228  0.0654
  992MOL0     H30885   5.372  10.284   5.244  0.7759  3.3751  0.2599
  992MOL0     H30886   5.297  10.394   5.358  0.7631  0.4274 -0.8256
  992MOL0     H30887   5.228  10.098   5.375  0.3230  0.5953  1.1245
  992MOL0     H30888   5.155  10.233   5.465 -1.6739  1.7701 -0.8584
  992MOL0     H30889   5.067  10.336   5.294  1.1199 -0.5662  0.2318
  992MOL0     H30890   5.000  10.174   5.328  1.9451 -2.5744  1.2025
  992MOL0     H30891   5.117  10.082   5.134 -2.1320 -0.6298 -1.1649
  992MOL0     H30892   5.174  10.236   5.085  0.9394 -0.6235  2.2959
  992MOL0     H30893   4.943  10.160   4.986 -0.2966  0.1254 -0.3426
  992MOL0     H30894   4.876  10.226   5.128 -0.1829  0.5381  0.0761
  992MOL0     H30895   5.052  10.376   4.930  0.7684 -1.7856  1.0875
  992MOL0     H30896   4.999  10.449   5.079  0.8329 -0.2751  0.4799
  992MOL0     H30897   4.823  10.331   4.759  4.3425 -0.1037  1.7091
  992MOL0     H30898   4.565  10.365   4.674 -0.8071  0.7242 -1.6607
  992MOL0     H30899   4.592  10.529   4.639 -1.2536 -2.0405 -1.6050
  992MOL0     H30900   4.400  10.599   4.804 -1.3761 -1.1839  4.5982
  992MOL0     H30901   4.393  10.433   4.840  2.8597  1.5671  0.2078
  992MOL0     H30902   4.377  10.557   4.551 -1.9834 -0.0164  0.0919
  992MOL0     H30903   4.320  10.396   4.601 -2.3184 -0.7220  2.0821
  992MOL0     H30904   4.187  10.640   4.726 -1.2326 -0.2120 -0.2022
  992MOL0     H30905   4.146  10.474   4.733  0.4804  0.7912  1.7543
  992MOL0     H30906   3.969  10.670   4.737 -1.5760  0.6287 -0.2549
  992MOL0     H30907   3.738  10.700   4.721 -3.2557 -1.1475 -1.9497
  992MOL0     H30908   3.382  10.889   4.603 -0.8461  0.9363  1.6411
  992MOL0     H30909   3.124  10.916   4.547 -0.3474  0.6869 -0.2257
  992MOL0     H30910   2.859  10.618   4.631  2.2427 -1.1154  0.3574
  992MOL0     H30911   2.898  10.537   4.486  0.2457 -0.4846  1.5045
  992MOL0     H30912   2.753  10.681   4.346 -0.7477  0.6269 -0.0051
  992MOL0     H30913   2.706  10.766   4.489 -1.2553 -1.1345  1.2459
  992MOL0     H30914   2.639  10.526   4.577 -0.0455  1.3159 -0.1870
  992MOL0     H30915   2.670  10.476   4.411 -0.2481  1.7907 -1.9910
  992MOL0     H30916   2.476  10.699   4.484  1.9750  2.0291 -2.6823
  992MOL0     H30917   2.478  10.621   4.334 -1.6812 -0.8954 -0.1209
  992MOL0     H30918   2.398  10.485   4.608 -0.1017 -1.6843  0.2653
  992MOL0     H30919   2.428  10.390   4.462 -1.0405 -0.9271  1.8908
  992MOL0     H30920   2.258  10.528   4.341 -1.2958 -0.9723 -0.3459
  992MOL0     H30921   2.230  10.627   4.481  0.1763 -0.7694  1.1074
  992MOL0     H30922   2.208  10.321   4.457 -0.8717 -0.1816 -2.4449
  992MOL0     H30923   2.166  10.416   4.604 -0.3753  0.9220 -1.1855
  992MOL0     H30924   2.035  10.394   4.326 -1.8341 -0.6881  1.0084
  992MOL0     H30925   1.985  10.512   4.443 -0.4324  0.7580 -3.0673
  992MOL0     H30926   3.116  10.499   4.440  2.7381 -1.6613 -1.8995
  992MOL0     H30927   3.351  10.469   4.508 -0.4362  0.4612 -0.6812
  992MOL0     H30928   3.736  10.573   4.318 -0.3509 -0.8425  1.1140
  992MOL0     H30929   3.988  10.541   4.327  1.9798 -0.1796  1.0695
  992MOL0     H30930   5.799  10.387   5.129  1.6287  0.5255 -1.5799
  992MOL0     H30931   6.044  10.412   5.154 -0.1050 -2.1725 -4.1876
  992MOL0     H30932   6.393  10.473   5.367 -1.7880 -1.7853  0.9208
  992MOL0     H30933   6.648  10.516   5.357  1.2801 -0.4670  1.4664
  992MOL0     H30934   6.924  10.510   5.393 -1.0158 -0.1047 -0.8995
  992MOL0     H30935   6.822  10.472   5.263 -0.3336  0.2759  0.4804
  992MOL0     H30936   7.064  10.286   5.321  0.4060 -2.9217 -2.3989
  992MOL0     H30937   6.965  10.299   5.174 -2.9645  2.2126  0.0608
  992MOL0     H30938   7.055  10.520   5.126 -0.6541  0.3255  0.6678
  992MOL0     H30939   7.179  10.386   5.141 -1.7627  0.2740 -2.8951
  992MOL0     H30940   7.250  10.619   5.213 -2.2700  1.3517 -0.5483
  992MOL0     H30941   7.120  10.632   5.316 -0.8016 -0.8722 -0.3945
  992MOL0     H30942   7.404  10.382   5.528  0.8556 -0.7190 -0.8205
  992MOL0     H30943   6.714  10.107   5.445  1.5996  1.1832 -0.7232
  992MOL0     H30944   6.488  10.065   5.439  3.1108 -0.1745  1.7624
  993MOL0     O30945   5.365   0.452   7.251 -0.8229 -0.2780 -0.2893
  993MOL0     C30946   5.314   0.560   7.267  0.3058  0.5207 -1.4074
  993MOL0     O30947   5.374   0.671   7.313 -0.3999 -0.1308  0.5893
  993MOL0     C30948   5.499   0.664   7.371 -0.1279  0.9881  0.2434
  993MOL0     C30949   5.515   0.775   7.460 -0.6071 -0.7830  0.2826
  993MOL0     C30950   5.632   0.792   7.537  0.3177 -0.3895 -0.1770
  993MOL0     C30951   5.729   0.695   7.524 -0.8219  0.1884 -0.3243
  993MOL0     O30952   5.856   0.714   7.566  0.5241  0.0105  0.0196
  993MOL0     C30953   5.931   0.824   7.516  0.9204  0.2293 -0.5752
  993MOL0     C30954   6.068   0.781   7.538  0.2365 -1.5917  0.1974
  993MOL0     C30955   6.115   0.680   7.428  0.0786  0.5904  0.0532
  993MOL0     C30956   6.239   0.607   7.487  0.1491  0.1833  0.0056
  993MOL0     C30957   6.298   0.506   7.387  0.1366  0.3179 -0.5696
  993MOL0     C30958   6.415   0.422   7.450  0.1700 -0.6294 -0.4983
  993MOL0     C30959   6.526   0.514   7.507 -0.0643 -0.2206  1.0319
  993MOL0     C30960   6.675   0.454   7.532 -0.2960  0.0080  0.3629
  993MOL0     N30961   6.740   0.415   7.410  0.0103  0.5206  0.7947
  993MOL0     C30962   6.763   0.501   7.301 -0.1877 -0.1435  0.4444
  993MOL0     C30963   6.849   0.438   7.216 -0.5284  0.2138 -0.5332
  993MOL0     C30964   6.894   0.499   7.096  1.1194 -0.3649 -0.4956
  993MOL0     C30965   6.772   0.502   7.001  0.0346 -0.2581  0.6315
  993MOL0     C30966   6.753   0.373   6.915 -0.0285  0.0989 -0.3487
  993MOL0     C30967   6.649   0.388   6.803  0.1913  0.3883  0.8365
  993MOL0     O30968   6.515   0.393   6.860 -0.3048 -0.0118 -0.6766
  993MOL0     C30969   6.410   0.451   6.789 -0.1878  0.5777 -0.5119
  993MOL0     C30970   6.415   0.462   6.650  0.1406 -0.0068  0.5312
  993MOL0     C30971   6.301   0.521   6.593  0.3585  0.2993  0.5977
  993MOL0     C30972   6.193   0.580   6.666 -0.7151  0.3470 -0.4701
  993MOL0     C30973   6.066   0.630   6.603 -0.0195  0.2898 -0.5452
  993MOL0     O30974   5.972   0.679   6.683 -0.4315 -0.0276 -0.1254
  993MOL0     C30975   5.846   0.717   6.630  0.5430  0.3933 -0.2731
  993MOL0     C30976   5.793   0.821   6.693  0.3253 -0.9626 -0.6201
  993MOL0     C30977   5.663   0.869   6.668  0.0880 -0.3421  0.4068
  993MOL0     C30978   5.584   0.798   6.575  0.4939  0.4522  0.4523
  993MOL0     O30979   5.453   0.844   6.561 -1.0856  0.0248  0.0895
  993MOL0     C30980   5.397   0.876   6.433  0.2989  0.1414 -0.1443
  993MOL0     C30981   5.264   0.808   6.408  0.7405 -0.1138  0.9893
  993MOL0     C30982   5.147   0.883   6.480  0.6063 -0.2506 -0.3611
  993MOL0     C30983   5.012   0.878   6.403 -0.1573  0.1214 -0.2663
  993MOL0     C30984   4.911   0.950   6.491  0.3079  0.6485  0.0737
  993MOL0     C30985   4.763   0.936   6.449 -0.7500 -0.1541 -0.1730
  993MOL0     C30986   4.740   0.977   6.309 -0.7363  0.3584 -0.4126
  993MOL0     C30987   4.584   1.004   6.280  0.1180 -0.4808 -0.1382
  993MOL0    Cl30988   4.544   1.054   6.106 -0.1001  0.0451 -0.0630
  993MOL0     C30989   5.637   0.685   6.520 -0.8266  0.5585 -0.2328
  993MOL0     C30990   5.768   0.640   6.542  0.5274 -0.4116  0.1138
  993MOL0     O30991   6.054   0.618   6.480 -0.1582 -0.7791 -1.1984
  993MOL0     C30992   6.191   0.542   6.808  0.4284 -0.0257  1.0119
  993MOL0     C30993   6.304   0.481   6.865  0.8437  0.2137  0.0833
  993MOL0     N30994   6.873   0.312   7.272  0.7282 -0.0865  0.6241
  993MOL0     N30995   6.801   0.293   7.376 -0.0066 -0.2141 -0.3280
  993MOL0     C30996   5.722   0.584   7.442 -0.0552 -0.8935  1.0449
  993MOL0     C30997   5.607   0.573   7.355 -0.2804 -0.1844 -0.3965
  993MOL0     C30998   5.167   0.561   7.253 -0.3279 -0.2264 -0.6130
  993MOL0     C30999   5.102   0.679   7.280 -0.2985 -0.2080  0.3982
  993MOL0     C31000   4.960   0.687   7.281  0.5726 -0.4074  0.8951
  993MOL0     C31001   4.886   0.574   7.233  0.5213 -0.5269 -0.1487
  993MOL0     O31002   4.753   0.594   7.228  0.3661  0.5475 -0.7330
  993MOL0     C31003   4.677   0.494   7.162  0.5219 -0.2755 -0.1901
  993MOL0     C31004   4.624   0.392   7.255  0.3444  0.6075  0.0302
  993MOL0     C31005   4.581   0.440   7.397  0.2250  0.0519 -0.4514
  993MOL0     C31006   4.450   0.505   7.393 -0.5908 -0.2425  0.6343
  993MOL0     C31007   4.329   0.430   7.351 -0.5724 -1.0507  0.5882
  993MOL0     C31008   4.233   0.365   7.317 -0.3064  0.3366 -0.1973
  993MOL0     C31009   4.948   0.453   7.215 -0.2921 -0.4360  1.6520
  993MOL0     C31010   5.089   0.449   7.217  0.0137  0.1971 -0.2136
  993MOL0     H31011   5.436   0.849   7.474 -0.9598 -0.4441 -2.7751
  993MOL0     H31012   5.635   0.881   7.598 -0.5027 -3.9088  5.7087
  993MOL0     H31013   5.911   0.916   7.571  0.1508 -0.4998  0.3874
  993MOL0     H31014   5.903   0.845   7.412  1.1361 -0.1769 -0.7182
  993MOL0     H31015   6.084   0.736   7.637  3.0504 -0.2592  0.4628
  993MOL0     H31016   6.134   0.869   7.538 -2.4968  0.5929 -0.8656
  993MOL0     H31017   6.132   0.717   7.327  1.1140 -2.1933 -0.8922
  993MOL0     H31018   6.036   0.604   7.422  0.1074  0.6478 -1.2138
  993MOL0     H31019   6.319   0.681   7.495  0.1500  0.3604 -1.5158
  993MOL0     H31020   6.207   0.565   7.583 -0.3615  2.0172  0.6905
  993MOL0     H31021   6.338   0.559   7.300  4.4244 -1.3222  0.1550
  993MOL0     H31022   6.216   0.440   7.354 -0.4475  0.4594  0.5566
  993MOL0     H31023   6.457   0.358   7.372  0.7373  1.9032 -2.3858
  993MOL0     H31024   6.381   0.347   7.522 -2.1532  0.0700 -0.8020
  993MOL0     H31025   6.536   0.605   7.447 -0.6478 -1.1388 -0.5125
  993MOL0     H31026   6.490   0.545   7.605  2.5116  0.5697  1.8112
  993MOL0     H31027   6.661   0.370   7.601  2.3074 -1.0830 -0.2914
  993MOL0     H31028   6.747   0.513   7.590 -1.0418 -1.0122  2.4002
  993MOL0     H31029   6.739   0.607   7.297  0.3209 -0.0379  0.0393
  993MOL0     H31030   6.976   0.439   7.058  1.4851 -0.4024  0.3266
  993MOL0     H31031   6.927   0.601   7.117 -0.3730 -0.0313  0.4412
  993MOL0     H31032   6.788   0.587   6.933 -1.0729  0.1813  0.8951
  993MOL0     H31033   6.677   0.525   7.050 -1.7224 -1.7631 -1.7996
  993MOL0     H31034   6.853   0.361   6.872  0.3594  0.1931  0.5183
  993MOL0     H31035   6.721   0.298   6.988  1.0384  0.5719  0.6164
  993MOL0     H31036   6.654   0.304   6.733  1.2386  0.7646  0.4450
  993MOL0     H31037   6.668   0.479   6.747  0.4357 -0.0682  0.1664
  993MOL0     H31038   6.501   0.416   6.603  1.4685  0.5612  2.2907
  993MOL0     H31039   6.287   0.530   6.485  1.6838 -2.1495  0.1646
  993MOL0     H31040   5.862   0.876   6.756  1.0709 -1.2876 -1.1308
  993MOL0     H31041   5.612   0.941   6.732 -0.0499 -1.6513  1.8191
  993MOL0     H31042   5.462   0.851   6.348  1.4850  1.7941  0.2192
  993MOL0     H31043   5.391   0.984   6.419  1.3626  0.0422 -1.5806
  993MOL0     H31044   5.270   0.703   6.437  1.4988 -0.5857 -0.7370
  993MOL0     H31045   5.250   0.814   6.299  0.1291  1.1299  1.1221
  993MOL0     H31046   5.167   0.990   6.491 -0.3895  0.1481 -2.0709
  993MOL0     H31047   5.140   0.837   6.580  3.9508  0.3020  0.2386
  993MOL0     H31048   5.022   0.934   6.309  0.2234  0.0800 -0.2532
  993MOL0     H31049   4.979   0.778   6.375 -2.3780  0.7868 -0.2045
  993MOL0     H31050   4.945   1.054   6.490  0.1595  0.6967  0.0838
  993MOL0     H31051   4.916   0.900   6.588  4.7843  1.3842  0.4683
  993MOL0     H31052   4.697   0.990   6.517  0.9369 -3.7316  4.8837
  993MOL0     H31053   4.738   0.829   6.449  0.4637 -0.6125  3.9395
  993MOL0     H31054   4.798   1.066   6.283  0.3912  0.5534  2.4648
  993MOL0     H31055   4.782   0.907   6.236 -0.1145  2.6334 -2.3935
  993MOL0     H31056   4.552   1.080   6.353  2.3487 -1.2893  1.8399
  993MOL0     H31057   4.525   0.914   6.296 -1.6047  0.5296 -0.5804
  993MOL0     H31058   5.576   0.623   6.456 -0.1253 -0.6604  0.2391
  993MOL0     H31059   5.805   0.542   6.515  0.6257 -0.3715  0.1017
  993MOL0     H31060   6.106   0.571   6.869 -0.5172  0.3549 -0.4115
  993MOL0     H31061   6.310   0.445   6.967  0.8806  1.6925  0.6273
  993MOL0     H31062   5.805   0.515   7.435 -1.0291 -2.2835  2.4683
  993MOL0     H31063   5.595   0.492   7.284 -0.2184  1.6272 -2.5757
  993MOL0     H31064   5.153   0.771   7.306  0.0135  0.5894 -2.6332
  993MOL0     H31065   4.907   0.776   7.312 -1.8076 -1.4527  0.0813
  993MOL0     H31066   4.728   0.447   7.078 -0.0123 -1.3473  0.0645
  993MOL0     H31067   4.589   0.551   7.130 -0.5882 -1.2964  0.9457
  993MOL0     H31068   4.542   0.339   7.205 -0.9246  1.7062  0.8951
  993MOL0     H31069   4.699   0.314   7.273  1.4486  1.3655 -1.1565
  993MOL0     H31070   4.652   0.508   7.445 -0.0518 -0.2835  0.4467
  993MOL0     H31071   4.569   0.352   7.460 -0.7448 -0.1483 -0.8951
  993MOL0     H31072   4.420   0.532   7.495 -4.1726 -0.7820 -0.1454
  993MOL0     H31073   4.457   0.590   7.325  0.3079 -2.9940 -3.0310
  993MOL0     H31074   4.149   0.309   7.282  0.6220 -1.2079 -0.0518
  993MOL0     H31075   4.884   0.367   7.198 -0.3175  0.1601 -1.9968
  993MOL0     H31076   5.133   0.350   7.208 -3.0484 -1.1358 -2.2388
  994MOL0     O31077   5.925  10.392   5.734  0.3530 -0.0977  0.3143
  994MOL0     C31078   6.014  10.476   5.707 -0.4121  0.8254  0.6969
  994MOL0     O31079   5.995  10.600   5.652 -0.0212 -0.4769  0.5241
  994MOL0     C31080   5.865  10.632   5.630  0.3940  0.3608 -0.0779
  994MOL0     C31081   5.799  10.715   5.717 -0.4102 -0.5337  0.2897
  994MOL0     C31082   5.671  10.762   5.682  0.0152 -0.4315  0.4453
  994MOL0     C31083   5.621  10.747   5.547  0.9071  0.7735  0.8381
  994MOL0     O31084   5.496  10.788   5.505  0.4399  0.2799 -0.6774
  994MOL0     C31085   5.436  10.892   5.591 -0.1001 -0.4284  0.3106
  994MOL0     C31086   5.305  10.941   5.523 -0.2805  0.1701 -0.7054
  994MOL0     C31087   5.185  10.847   5.528 -0.4665 -0.3589  0.5258
  994MOL0     C31088   5.097  10.912   5.423 -0.2235 -0.3666  0.2246
  994MOL0     C31089   4.950  10.859   5.414 -0.4985 -0.0582 -0.0539
  994MOL0     C31090   4.873  10.881   5.541 -0.0430 -0.0744  0.3803
  994MOL0     C31091   4.727  10.845   5.538 -0.2105 -1.0134  0.1190
  994MOL0     C31092   4.663  10.823   5.673  0.7193  0.3373 -0.7954
  994MOL0     N31093   4.522  10.785   5.658  0.3038  0.2314  0.1809
  994MOL0     C31094   4.485  10.660   5.622 -0.3367  0.4632  0.4722
  994MOL0     C31095   4.354  10.664   5.583 -0.0610  0.1691  0.4655
  994MOL0     C31096   4.272  10.542   5.548  0.4624  0.3351 -0.3782
  994MOL0     C31097   4.125  10.564   5.566  0.7342  0.0468 -0.4991
  994MOL0     C31098   4.071  10.616   5.440  0.0601 -0.0627 -0.3668
  994MOL0     C31099   3.924  10.658   5.451  0.1097 -0.0064  0.1012
  994MOL0     O31100   3.834  10.552   5.478  0.7667 -0.6814  0.6805
  994MOL0     C31101   3.698  10.571   5.487  0.7913  0.3388 -0.3204
  994MOL0     C31102   3.623  10.462   5.442 -0.6893 -0.1616  0.0991
  994MOL0     C31103   3.487  10.480   5.419  0.2117  0.5166  0.5275
  994MOL0     C31104   3.416  10.596   5.447 -0.1362  0.0549  0.0417
  994MOL0     C31105   3.267  10.606   5.426  0.5242  0.2844  0.1760
  994MOL0     O31106   3.206  10.513   5.339  0.0176  0.2613 -0.1893
  994MOL0     C31107   3.073  10.485   5.353 -0.1603 -0.3272 -0.1424
  994MOL0     C31108   3.040  10.356   5.381 -0.5368 -0.3822  0.1723
  994MOL0     C31109   2.915  10.299   5.355  0.0054 -0.4571  0.0180
  994MOL0     C31110   2.809  10.381   5.320  0.3309 -0.7561  0.1500
  994MOL0     O31111   2.693  10.322   5.301  0.2418  0.8014  0.2225
  994MOL0     C31112   2.600  10.306   5.406 -0.9905 -0.3029  0.4014
  994MOL0     C31113   2.492  10.410   5.387 -0.3935  0.6585  0.6640
  994MOL0     C31114   2.408  10.383   5.261 -0.4058  0.6678 -0.3758
  994MOL0     C31115   2.277  10.462   5.260 -0.1407  0.7241  0.8368
  994MOL0     C31116   2.298  10.617   5.260 -0.8562  0.2811 -0.2944
  994MOL0     C31117   2.172  10.693   5.248  0.5721 -0.8644 -1.1328
  994MOL0     C31118   2.209  10.836   5.202 -0.4325 -0.1630  0.5114
  994MOL0     C31119   2.082  10.927   5.228  0.3407  0.8334  0.3739
  994MOL0    Cl31120   2.126  11.091   5.170  0.1182 -0.1950 -0.1061
  994MOL0     C31121   2.834  10.519   5.281  0.6851  1.1748 -0.2669
  994MOL0     C31122   2.970  10.564   5.296  0.0089 -0.5782 -0.1823
  994MOL0     O31123   3.204  10.695   5.492  0.6203 -1.0986  0.5704
  994MOL0     C31124   3.486  10.698   5.509  0.4651  0.9386 -0.2008
  994MOL0     C31125   3.624  10.680   5.518  0.8413 -0.9162  0.4404
  994MOL0     N31126   4.314  10.794   5.593  0.1535  0.4914  0.5137
  994MOL0     N31127   4.416  10.866   5.626 -0.3060 -0.2329 -0.0872
  994MOL0     C31128   5.691  10.665   5.469  0.5469  0.0121  0.5957
  994MOL0     C31129   5.805  10.597   5.511 -0.2533 -0.7352  0.1256
  994MOL0     C31130   6.163  10.435   5.719  0.6720  0.4980 -0.7178
  994MOL0     C31131   6.262  10.529   5.682  0.1340 -0.3239  0.1799
  994MOL0     C31132   6.396  10.507   5.707  0.2974 -0.2898  0.1562
  994MOL0     C31133   6.436  10.379   5.755  0.1879  0.1330  0.6391
  994MOL0     O31134   6.560  10.323   5.772 -0.2028 -0.5264  0.5344
  994MOL0     C31135   6.668  10.416   5.748 -0.3019 -0.5032  0.4590
  994MOL0     C31136   6.793  10.325   5.733 -0.0448  1.0377  0.3888
  994MOL0     C31137   6.919  10.403   5.724  0.5898 -0.0216 -0.1173
  994MOL0     C31138   7.039  10.324   5.683 -0.7702 -0.4155 -0.3243
  994MOL0     C31139   7.118  10.278   5.797  0.4550  0.0361  0.9897
  994MOL0     C31140   7.184  10.230   5.881 -0.6807  0.1187  1.1809
  994MOL0     C31141   6.330  10.282   5.780 -0.1864 -0.3461 -0.2941
  994MOL0     C31142   6.197  10.311   5.766 -0.5993 -0.2553  0.7955
  994MOL0     H31143   5.842  10.756   5.808  2.7404  0.3689 -1.4672
  994MOL0     H31144   5.626  10.835   5.748  1.1380  1.3829 -0.6807
  994MOL0     H31145   5.511  10.973   5.594  3.0534 -3.0593  4.3483
  994MOL0     H31146   5.414  10.857   5.692  1.5450 -2.1389  0.1292
  994MOL0     H31147   5.344  10.963   5.423  2.9574  0.0795  0.4143
  994MOL0     H31148   5.283  11.038   5.567  1.2599  0.1212  0.2547
  994MOL0     H31149   5.149  10.843   5.631 -1.5060 -1.9875  0.1410
  994MOL0     H31150   5.211  10.744   5.499  1.2993 -0.0749  1.0240
  994MOL0     H31151   5.096  11.021   5.430  1.9732 -0.3598  1.3090
  994MOL0     H31152   5.160  10.881   5.339  1.3790 -1.4529  1.7495
  994MOL0     H31153   4.949  10.755   5.379 -1.2868  1.0045 -3.4759
  994MOL0     H31154   4.906  10.918   5.334 -0.4783 -1.2398 -0.9643
  994MOL0     H31155   4.876  10.989   5.555  2.5482 -0.0649  0.1146
  994MOL0     H31156   4.932  10.831   5.618  0.3595  0.2909  0.3094
  994MOL0     H31157   4.674  10.912   5.469  1.9254  1.3596  0.6734
  994MOL0     H31158   4.718  10.752   5.480  1.4940 -1.8108  1.0635
  994MOL0     H31159   4.648  10.913   5.733 -0.1293 -0.9719  1.0358
  994MOL0     H31160   4.719  10.754   5.736  1.0916 -0.0125 -1.4984
  994MOL0     H31161   4.537  10.565   5.627 -1.4502 -0.4599 -2.9528
  994MOL0     H31162   4.296  10.473   5.630 -1.9205 -0.1013  0.0393
  994MOL0     H31163   4.305  10.504   5.451  0.3845  0.5237 -0.4789
  994MOL0     H31164   4.119  10.629   5.653 -2.4279 -0.2269 -0.3931
  994MOL0     H31165   4.083  10.465   5.588 -2.6481  1.8565  1.9619
  994MOL0     H31166   4.118  10.710   5.410 -4.0939  2.1450 -0.6710
  994MOL0     H31167   4.083  10.542   5.360  0.9379  2.2855 -2.5402
  994MOL0     H31168   3.892  10.708   5.359  0.5144  0.0289 -0.0231
  994MOL0     H31169   3.903  10.732   5.529  0.2673 -2.2493  2.4034
  994MOL0     H31170   3.673  10.366   5.433 -0.3812 -0.0193  0.2685
  994MOL0     H31171   3.426  10.396   5.390  1.3871 -0.0430 -0.3911
  994MOL0     H31172   3.107  10.272   5.400 -2.3095 -2.3250 -1.7438
  994MOL0     H31173   2.896  10.194   5.375  1.7270 -0.8276 -0.1844
  994MOL0     H31174   2.658  10.327   5.496  0.2444 -0.0458 -0.4361
  994MOL0     H31175   2.550  10.209   5.403 -0.4137 -0.5781 -1.8290
  994MOL0     H31176   2.539  10.508   5.389  0.4427  0.3450 -1.2032
  994MOL0     H31177   2.436  10.402   5.480  1.4703 -2.4724  1.6551
  994MOL0     H31178   2.383  10.283   5.225  1.3196  0.1017 -0.0913
  994MOL0     H31179   2.460  10.425   5.174  1.0395 -3.1130 -1.5166
  994MOL0     H31180   2.211  10.436   5.176  0.5156 -0.3587  0.6381
  994MOL0     H31181   2.212  10.438   5.345  0.4802 -0.6114  0.9471
  994MOL0     H31182   2.373  10.644   5.185  1.5020  2.5313  2.5970
  994MOL0     H31183   2.340  10.639   5.359 -1.6646 -1.1078  0.3828
  994MOL0     H31184   2.125  10.701   5.347  2.1635 -3.5488 -0.0544
  994MOL0     H31185   2.097  10.646   5.183 -0.6663 -1.6194  0.7418
  994MOL0     H31186   2.291  10.877   5.261 -0.2567 -0.5505  0.5402
  994MOL0     H31187   2.247  10.840   5.099 -0.7806 -1.1272  0.3324
  994MOL0     H31188   2.056  10.922   5.334 -2.1209 -2.0390 -0.2442
  994MOL0     H31189   2.009  10.878   5.164  0.6986  2.2603 -1.2001
  994MOL0     H31190   2.751  10.582   5.249 -0.2905 -0.6758 -1.6052
  994MOL0     H31191   2.994  10.664   5.262 -0.2110 -0.1994  0.7370
  994MOL0     H31192   3.431  10.789   5.534 -1.0741 -0.2749  1.0652
  994MOL0     H31193   3.658  10.779   5.544 -2.1097  0.2884  0.0550
  994MOL0     H31194   5.659  10.644   5.367  0.4527 -2.4300  1.0772
  994MOL0     H31195   5.864  10.532   5.447  0.3624  0.4016 -0.5026
  994MOL0     H31196   6.238  10.620   5.626 -4.5535  0.2668  2.7055
  994MOL0     H31197   6.467  10.588   5.694 -0.2982  0.1956 -0.1321
  994MOL0     H31198   6.677  10.489   5.829  1.3193 -1.6477  1.3659
  994MOL0     H31199   6.647  10.475   5.658 -0.8021 -1.2191  0.0926
  994MOL0     H31200   6.805  10.265   5.824 -0.1205  1.2718  0.5543
  994MOL0     H31201   6.774  10.253   5.653  3.8303 -1.1174  1.1759
  994MOL0     H31202   6.928  10.464   5.815 -2.6077  2.1038 -1.0603
  994MOL0     H31203   6.888  10.470   5.643 -1.2221 -0.7509 -0.0652
  994MOL0     H31204   7.007  10.246   5.613  0.7640  1.4681 -3.3327
  994MOL0     H31205   7.103  10.389   5.623  0.5665 -1.3565  0.0386
  994MOL0     H31206   7.237  10.184   5.962 -0.0640 -1.0066  0.1853
  994MOL0     H31207   6.354  10.179   5.805 -0.5928 -0.6280 -1.0428
  994MOL0     H31208   6.121  10.238   5.793 -0.7668 -0.2107  0.4417
  995MOL0     O31209   3.742   5.156  10.708 -0.5978  0.2149 -0.5185
  995MOL0     C31210   3.807   5.255  10.679  0.1050 -1.2385 -0.0304
  995MOL0     O31211   3.754   5.377  10.648  0.1564  0.3387 -0.0719
  995MOL0     C31212   3.624   5.384  10.622  0.2299 -0.6503  0.1326
  995MOL0     C31213   3.556   5.332  10.508 -0.1806  0.2675 -0.6745
  995MOL0     C31214   3.428   5.375  10.475 -0.4401 -0.0950 -0.9287
  995MOL0     C31215   3.358   5.461  10.553 -0.6561 -0.1844 -0.3998
  995MOL0     O31216   3.244   5.509  10.497  0.6291  0.0757  0.6681
  995MOL0     C31217   3.149   5.578  10.580 -0.3098 -0.0443  0.4107
  995MOL0     C31218   3.038   5.647  10.501 -0.8146  0.0389  0.4948
  995MOL0     C31219   3.104   5.775  10.433 -0.4561  0.4136  0.0344
  995MOL0     C31220   2.990   5.844  10.348 -0.1722 -0.3676 -0.4898
  995MOL0     C31221   2.899   5.928  10.433  0.1881  0.3654 -0.1089
  995MOL0     C31222   2.803   6.024  10.351  0.2207  0.0667 -0.4986
  995MOL0     C31223   2.723   5.953  10.239 -0.3877 -0.1108  0.4250
  995MOL0     C31224   2.648   5.833  10.292 -0.2457 -1.7577 -0.6249
  995MOL0     N31225   2.526   5.865  10.364 -0.0389 -0.2488 -0.3774
  995MOL0     C31226   2.396   5.870  10.316 -0.9888  0.2977 -0.4992
  995MOL0     C31227   2.315   5.923  10.409  0.5162 -0.6005  0.4422
  995MOL0     C31228   2.175   5.960  10.395 -0.1983  0.1030 -0.0946
  995MOL0     C31229   2.093   5.871  10.484  0.0185  0.7173  0.5644
  995MOL0     C31230   1.943   5.917  10.490 -0.3211  0.3497 -0.2858
  995MOL0     C31231   1.855   5.871  10.623 -0.7406 -0.0631  1.0558
  995MOL0     O31232   1.832   5.723  10.621 -0.3072 -0.0491  0.4671
  995MOL0     C31233   1.752   5.669  10.522  0.1231  0.0381  0.1080
  995MOL0     C31234   1.781   5.537  10.476 -0.4646 -0.8074  0.0370
  995MOL0     C31235   1.698   5.468  10.392  0.1313  0.0389  0.6969
  995MOL0     C31236   1.583   5.533  10.338 -0.5500 -0.3021  0.1755
  995MOL0     C31237   1.493   5.476  10.235 -0.0779  0.3669 -0.2752
  995MOL0     O31238   1.367   5.520  10.238 -0.2376  0.7011  0.1028
  995MOL0     C31239   1.268   5.467  10.154 -0.2530 -0.2660 -0.0648
  995MOL0     C31240   1.139   5.500  10.199  0.3158 -0.2663  0.0451
  995MOL0     C31241   1.024   5.454  10.128  0.0040 -0.5139  1.3309
  995MOL0     C31242   1.042   5.389   9.999  0.0970  0.3400 -0.1084
  995MOL0     O31243   0.939   5.332   9.925  0.5076 -0.6197 -0.9918
  995MOL0     C31244   0.906   5.400   9.805  0.1861 -0.5084  0.8002
  995MOL0     C31245   0.802   5.330   9.724  0.7716 -0.3591  0.3131
  995MOL0     C31246   0.856   5.185   9.705  0.0569 -0.1539 -0.2329
  995MOL0     C31247   0.812   5.112   9.586 -0.8462  0.1739 -0.2524
  995MOL0     C31248   0.666   5.072   9.603  0.4108 -0.4356  0.5496
  995MOL0     C31249   0.620   4.967   9.497  0.5425  0.1152 -0.0131
  995MOL0     C31250   0.473   4.930   9.532  0.1283 -0.0899 -0.1808
  995MOL0     C31251   0.465   4.816   9.625 -0.0601 -0.4011  0.1436
  995MOL0    Cl31252   0.294   4.782   9.654 -0.2508  0.7047 -0.1076
  995MOL0     C31253   1.172   5.373   9.949  0.0474 -0.3832  0.1249
  995MOL0     C31254   1.278   5.404  10.031 -0.4347  0.0796  0.0100
  995MOL0     O31255   1.549   5.397  10.152 -0.1186  0.2419 -0.0718
  995MOL0     C31256   1.562   5.668  10.370  0.1881 -0.3162  0.3694
  995MOL0     C31257   1.643   5.734  10.468  1.0771  0.0444  0.0108
  995MOL0     N31258   2.394   5.937  10.517 -0.0824 -0.4095 -0.3456
  995MOL0     N31259   2.520   5.905  10.493  0.7338 -0.3151  0.3309
  995MOL0     C31260   3.421   5.529  10.664  0.2865  1.5260 -0.0680
  995MOL0     C31261   3.553   5.490  10.688  0.8922  0.4491 -0.4526
  995MOL0     C31262   3.958   5.246  10.697  0.6759 -0.7747  0.2871
  995MOL0     C31263   4.034   5.352  10.648  0.8075 -0.5494  0.1800
  995MOL0     C31264   4.175   5.345  10.669 -0.0937  0.0576 -0.2165
  995MOL0     C31265   4.237   5.246  10.747  0.1528 -0.4339 -0.4394
  995MOL0     O31266   4.376   5.242  10.757  0.6719  0.0156  0.0535
  995MOL0     C31267   4.443   5.146  10.826  0.2478  0.6320  0.1016
  995MOL0     C31268   4.575   5.225  10.855  0.0506  0.3689 -0.7663
  995MOL0     C31269   4.671   5.158  10.962  0.0046 -0.0578 -0.4260
  995MOL0     C31270   4.812   5.230  10.996  0.2687 -0.4687  0.5960
  995MOL0     C31271   4.883   5.296  10.884  0.9137  0.3519  0.6404
  995MOL0     C31272   4.940   5.337  10.780  0.6244  0.4199 -1.0210
  995MOL0     C31273   4.150   5.148  10.806  0.1381 -0.2074 -0.4091
  995MOL0     C31274   4.017   5.142  10.780  0.2312 -0.6508 -0.5223
  995MOL0     H31275   3.604   5.262  10.441  0.5334  0.0666  0.0343
  995MOL0     H31276   3.383   5.339  10.383 -2.5986  2.6728 -1.1100
  995MOL0     H31277   3.198   5.651  10.645 -0.7844  1.0236 -0.4181
  995MOL0     H31278   3.112   5.498  10.646 -0.0460  0.0260  0.6481
  995MOL0     H31279   2.954   5.663  10.569 -0.6528 -1.2028  1.0117
  995MOL0     H31280   3.015   5.579  10.418  1.8699 -1.4236  0.8052
  995MOL0     H31281   3.178   5.737  10.362 -1.5961 -0.9952 -0.4481
  995MOL0     H31282   3.151   5.848  10.500  2.3425  1.4040 -2.7799
  995MOL0     H31283   3.039   5.901  10.269  1.0268 -0.3363  0.2536
  995MOL0     H31284   2.924   5.775  10.295  1.7877 -1.0991 -2.0872
  995MOL0     H31285   2.958   5.981  10.509 -0.8754  1.5321 -0.0664
  995MOL0     H31286   2.844   5.852  10.491  2.8395 -1.5674  0.0713
  995MOL0     H31287   2.845   6.115  10.308 -1.9548  1.6118  0.4652
  995MOL0     H31288   2.735   6.064  10.426  1.7815 -1.4546  1.8651
  995MOL0     H31289   2.658   6.032  10.199  3.6833  3.5704  0.3329
  995MOL0     H31290   2.786   5.929  10.153  0.1411 -0.0938  0.8048
  995MOL0     H31291   2.698   5.774  10.369 -0.0492  1.1334  1.6599
  995MOL0     H31292   2.623   5.770  10.206 -0.8814 -0.2140 -1.6286
  995MOL0     H31293   2.373   5.829  10.218  1.9108 -0.5046 -0.9484
  995MOL0     H31294   2.162   5.943  10.288 -0.8778  1.1213 -0.1881
  995MOL0     H31295   2.165   6.066  10.423 -0.2168  0.3545 -1.0197
  995MOL0     H31296   2.131   5.878  10.586 -0.5445  3.0220  0.6727
  995MOL0     H31297   2.098   5.767  10.450 -0.8256  0.6616  0.5772
  995MOL0     H31298   1.936   6.026  10.482 -1.5067  0.6710  3.2926
  995MOL0     H31299   1.902   5.880  10.395 -0.2690 -2.6154  0.7459
  995MOL0     H31300   1.764   5.933  10.630 -0.5791  0.6337 -1.8375
  995MOL0     H31301   1.917   5.892  10.710  2.8956  0.9837 -1.5522
  995MOL0     H31302   1.872   5.495  10.516 -0.5637  0.7024  1.9885
  995MOL0     H31303   1.720   5.367  10.360 -0.1145  0.2327 -0.1192
  995MOL0     H31304   1.134   5.558  10.291 -2.0531  0.5458 -0.5484
  995MOL0     H31305   0.930   5.459  10.183 -0.1992 -3.3965  1.4235
  995MOL0     H31306   0.997   5.395   9.745  1.5894  0.4166  2.7387
  995MOL0     H31307   0.878   5.502   9.835 -0.8427 -0.3177 -0.6788
  995MOL0     H31308   0.796   5.381   9.628  1.0682 -1.0213 -0.0639
  995MOL0     H31309   0.699   5.335   9.759 -0.1836  1.9554 -2.4430
  995MOL0     H31310   0.830   5.127   9.794 -2.1557 -1.3384 -1.5646
  995MOL0     H31311   0.963   5.194   9.686 -0.2369  0.7824 -1.5535
  995MOL0     H31312   0.825   5.165   9.491  3.6599 -0.4083 -0.2014
  995MOL0     H31313   0.869   5.019   9.572  1.8812  1.4810  1.3666
  995MOL0     H31314   0.603   5.159   9.580  1.0010 -0.2115 -0.2643
  995MOL0     H31315   0.640   5.031   9.701  0.0475 -0.4162  0.4655
  995MOL0     H31316   0.684   4.879   9.502  0.3048 -0.0389  0.3403
  995MOL0     H31317   0.630   5.014   9.399 -2.5513  2.2676  0.5505
  995MOL0     H31318   0.416   5.020   9.556 -0.3390  0.0025 -1.5448
  995MOL0     H31319   0.429   4.890   9.439  3.1267 -0.9211 -1.3561
  995MOL0     H31320   0.503   4.855   9.720 -3.6203  0.0539  1.5142
  995MOL0     H31321   0.524   4.728   9.594  1.0848  0.7274 -1.0037
  995MOL0     H31322   1.188   5.333   9.849 -0.2587 -1.6675  0.5683
  995MOL0     H31323   1.380   5.384   9.999 -0.2807 -0.0719  0.5849
  995MOL0     H31324   1.479   5.731  10.341 -0.8116 -1.0104  1.6135
  995MOL0     H31325   1.627   5.839  10.493  1.5486 -0.4220  2.5616
  995MOL0     H31326   3.389   5.618  10.716  1.5604  2.2150 -0.4264
  995MOL0     H31327   3.599   5.543  10.771 -2.1453 -0.7296  2.1746
  995MOL0     H31328   3.999   5.446  10.604  0.9306 -0.0597  1.1004
  995MOL0     H31329   4.237   5.417  10.618 -0.0739 -0.1461 -0.4802
  995MOL0     H31330   4.453   5.052  10.771 -1.6484  1.1716 -1.2612
  995MOL0     H31331   4.390   5.123  10.919  1.8284 -2.4719  0.3705
  995MOL0     H31332   4.627   5.238  10.760  0.7739  0.0509 -0.4210
  995MOL0     H31333   4.557   5.331  10.878  0.4863  0.1968  0.4214
  995MOL0     H31334   4.703   5.057  10.935  0.6210  0.1991 -0.6924
  995MOL0     H31335   4.615   5.142  11.054  1.6912 -2.5382  0.2486
  995MOL0     H31336   4.795   5.313  11.065 -0.4840  2.6527 -3.0116
  995MOL0     H31337   4.882   5.152  11.026 -0.1432 -0.5723  1.3231
  995MOL0     H31338   5.001   5.375  10.701  1.1371  1.2443 -0.2499
  995MOL0     H31339   4.191   5.066  10.865 -0.5957 -0.1218  0.2445
  995MOL0     H31340   3.951   5.063  10.815 -0.6749  0.0510 -0.6037
  996MOL0     O31341   8.651   2.822   7.540  0.3928 -0.6374 -0.0174
  996MOL0     C31342   8.721   2.724   7.515 -0.0990  0.4974 -0.2955
  996MOL0     O31343   8.688   2.597   7.542  0.1617  0.6785  1.0108
  996MOL0     C31344   8.550   2.565   7.562  0.1623 -0.4042  0.6395
  996MOL0     C31345   8.498   2.512   7.678 -0.3257 -0.5122 -0.3282
  996MOL0     C31346   8.363   2.479   7.701 -0.6797  0.7150 -0.3476
  996MOL0     C31347   8.269   2.502   7.610 -1.4235  0.3005  1.2422
  996MOL0     O31348   8.134   2.469   7.640 -0.2742  0.1853  0.0357
  996MOL0     C31349   8.032   2.565   7.591  0.1686  0.4198  0.4066
  996MOL0     C31350   7.893   2.547   7.646  0.7585 -0.1008  0.7528
  996MOL0     C31351   7.859   2.399   7.668 -0.2102  0.7940 -0.7950
  996MOL0     C31352   7.712   2.366   7.709 -0.3864  0.3872  0.5119
  996MOL0     C31353   7.691   2.210   7.699 -0.2134  0.1094  0.1590
  996MOL0     C31354   7.549   2.180   7.707  0.1723 -0.4918  0.6565
  996MOL0     C31355   7.500   2.046   7.764 -0.6746  0.4872  0.2757
  996MOL0     C31356   7.362   2.022   7.702 -0.6156  0.5889  0.1718
  996MOL0     N31357   7.289   1.905   7.760  0.1947 -0.2803  0.3081
  996MOL0     C31358   7.257   1.895   7.893 -0.2126  1.0526 -0.5629
  996MOL0     C31359   7.213   1.764   7.905  1.0775 -0.3578  0.0288
  996MOL0     C31360   7.151   1.695   8.030  0.1032 -0.0803  0.5476
  996MOL0     C31361   7.004   1.728   8.025  0.5859  0.4121  0.5898
  996MOL0     C31362   6.967   1.870   8.089  0.2963 -0.2539  0.1975
  996MOL0     C31363   6.823   1.907   8.080  0.0510 -0.5984 -1.3312
  996MOL0     O31364   6.757   1.893   7.961 -0.2872  0.5566  0.1383
  996MOL0     C31365   6.620   1.875   7.963 -0.3057 -0.2000  0.1363
  996MOL0     C31366   6.565   1.808   7.853  0.1616  0.1222  0.1011
  996MOL0     C31367   6.430   1.799   7.834 -0.5652  0.2378  0.4517
  996MOL0     C31368   6.342   1.843   7.929 -0.0855  0.2295 -0.2674
  996MOL0     C31369   6.205   1.805   7.912  0.1496 -0.5344 -0.8046
  996MOL0     O31370   6.119   1.882   7.978 -0.3439 -0.0549 -0.5045
  996MOL0     C31371   5.994   1.865   7.951  0.3656 -0.4737  0.0528
  996MOL0     C31372   5.925   1.803   8.052  0.5224 -0.7055 -0.5248
  996MOL0     C31373   5.786   1.783   8.034  0.0639 -0.1456 -0.1637
  996MOL0     C31374   5.718   1.817   7.921  0.2981 -0.5201  0.4482
  996MOL0     O31375   5.581   1.808   7.895 -0.2835 -0.1833 -0.2490
  996MOL0     C31376   5.490   1.755   7.990 -0.0633  0.1308  1.3179
  996MOL0     C31377   5.355   1.806   7.961 -1.1408 -0.0023 -0.1170
  996MOL0     C31378   5.244   1.730   8.030  0.5114 -0.5594 -0.0891
  996MOL0     C31379   5.111   1.775   7.971 -0.1366  0.2324 -0.9738
  996MOL0     C31380   4.994   1.718   8.060 -0.6872 -0.1278 -0.5304
  996MOL0     C31381   4.869   1.710   7.980 -0.2810  0.3165  1.3491
  996MOL0     C31382   4.745   1.663   8.044  1.0559  0.1978 -0.4299
  996MOL0     C31383   4.614   1.682   7.963 -0.3884  0.1568  0.1351
  996MOL0    Cl31384   4.609   1.582   7.815 -0.3755  0.1395  0.7092
  996MOL0     C31385   5.794   1.870   7.816 -0.0776  0.0594 -0.2189
  996MOL0     C31386   5.932   1.901   7.832  0.8307  0.0402 -0.4277
  996MOL0     O31387   6.176   1.720   7.829  0.0335  0.6250 -0.1567
  996MOL0     C31388   6.392   1.927   8.032  0.3442  0.3596 -0.5963
  996MOL0     C31389   6.529   1.937   8.053 -0.1407  0.3486  0.0127
  996MOL0     N31390   7.231   1.700   7.782  0.0311 -0.5610 -0.4333
  996MOL0     N31391   7.273   1.789   7.692  0.0830 -0.4909 -0.3870
  996MOL0     C31392   8.320   2.554   7.488  1.1027  0.6142  0.1763
  996MOL0     C31393   8.453   2.579   7.457 -0.4568 -0.6108  0.2102
  996MOL0     C31394   8.860   2.749   7.467  0.5047 -0.5290 -0.1296
  996MOL0     C31395   8.895   2.872   7.400 -0.4493 -0.2749  0.8333
  996MOL0     C31396   9.018   2.877   7.336 -0.5887 -0.3170  0.2036
  996MOL0     C31397   9.112   2.774   7.350  0.7498  0.0850  0.0630
  996MOL0     O31398   9.227   2.800   7.281 -0.2239  0.2935  0.3149
  996MOL0     C31399   9.352   2.731   7.327 -0.1871  0.1152 -0.9842
  996MOL0     C31400   9.461   2.752   7.224  0.6041  0.3394 -0.2777
  996MOL0     C31401   9.491   2.902   7.200 -0.4801  0.8969  0.1409
  996MOL0     C31402   9.614   2.921   7.110  0.2879 -0.0513 -0.0279
  996MOL0     C31403   9.595   2.856   6.984  0.5669  0.5256  0.6860
  996MOL0     C31404   9.589   2.789   6.879 -0.0894 -1.6573 -0.5776
  996MOL0     C31405   9.078   2.666   7.425  0.6419  0.3861 -0.5215
  996MOL0     C31406   8.955   2.656   7.489  0.0708  0.9478  0.0204
  996MOL0     H31407   8.569   2.481   7.754  1.0896 -1.1740 -1.8371
  996MOL0     H31408   8.339   2.440   7.799 -2.7474  1.6502 -0.4447
  996MOL0     H31409   8.026   2.543   7.484  2.2495  0.6552  0.1872
  996MOL0     H31410   8.052   2.673   7.599 -1.5551  0.8422 -0.5233
  996MOL0     H31411   7.825   2.592   7.574  0.6101 -0.4332  0.6831
  996MOL0     H31412   7.884   2.592   7.746 -1.0235 -2.0122  1.5277
  996MOL0     H31413   7.922   2.355   7.745  1.2932  2.7700 -0.8092
  996MOL0     H31414   7.866   2.342   7.575 -1.1235 -1.3618  0.3943
  996MOL0     H31415   7.695   2.410   7.808 -2.2845  1.6597 -0.3069
  996MOL0     H31416   7.646   2.412   7.634  1.7118 -2.3045 -3.3081
  996MOL0     H31417   7.753   2.167   7.777 -1.8165  0.5578  1.7446
  996MOL0     H31418   7.725   2.191   7.597  0.5213  1.5703  0.1032
  996MOL0     H31419   7.499   2.196   7.611  0.4629 -2.1604  0.2042
  996MOL0     H31420   7.510   2.257   7.775 -0.3090 -2.5206  2.8004
  996MOL0     H31421   7.560   1.963   7.726 -2.3798 -1.4798  1.6141
  996MOL0     H31422   7.511   2.039   7.873  1.7443 -2.7862 -0.0310
  996MOL0     H31423   7.365   2.008   7.593  0.2935 -2.3459  0.4714
  996MOL0     H31424   7.298   2.110   7.713 -2.2011  0.1335 -3.7553
  996MOL0     H31425   7.248   1.973   7.968  1.5353 -0.6314  1.5305
  996MOL0     H31426   7.203   1.734   8.118 -0.1890 -0.9035  1.0953
  996MOL0     H31427   7.164   1.587   8.027 -1.3646 -0.2876 -2.5288
  996MOL0     H31428   6.945   1.655   8.082 -0.5211 -0.5436 -1.6514
  996MOL0     H31429   6.968   1.727   7.922  0.2509  2.3842  0.6473
  996MOL0     H31430   6.988   1.873   8.196 -2.6858 -0.8016  0.8983
  996MOL0     H31431   7.025   1.942   8.032  3.4472 -1.0606  2.1277
  996MOL0     H31432   6.811   2.011   8.112  0.3186 -0.1294 -2.6903
  996MOL0     H31433   6.779   1.840   8.154  2.0946 -0.0564  0.4725
  996MOL0     H31434   6.638   1.759   7.790  2.0129  1.7207  0.8673
  996MOL0     H31435   6.398   1.745   7.745 -0.4002 -1.2610  1.2723
  996MOL0     H31436   5.966   1.765   8.145 -0.8410 -0.6832  0.1224
  996MOL0     H31437   5.725   1.751   8.118  1.4080 -1.1325  0.4828
  996MOL0     H31438   5.512   1.758   8.097 -0.5211 -0.8289  1.4485
  996MOL0     H31439   5.473   1.648   7.973 -0.8288 -0.0135  2.8084
  996MOL0     H31440   5.334   1.790   7.855  2.3630 -2.9449 -0.5775
  996MOL0     H31441   5.356   1.911   7.991 -1.8089  0.1617 -0.6399
  996MOL0     H31442   5.240   1.751   8.137 -1.1974 -0.7268 -0.0894
  996MOL0     H31443   5.257   1.623   8.007 -0.0751 -0.6327 -0.0907
  996MOL0     H31444   5.104   1.884   7.980 -0.2128  0.1589 -0.0615
  996MOL0     H31445   5.112   1.743   7.866 -0.1661 -1.2772 -0.5336
  996MOL0     H31446   4.991   1.783   8.147  1.8015  1.0057 -1.1920
  996MOL0     H31447   5.016   1.619   8.102  0.9220  0.1328 -0.6841
  996MOL0     H31448   4.888   1.641   7.897  0.4772 -0.6946  2.3358
  996MOL0     H31449   4.855   1.808   7.934  2.3966  0.4735  0.7040
  996MOL0     H31450   4.762   1.557   8.066 -0.7471 -0.0273  0.0320
  996MOL0     H31451   4.735   1.721   8.136 -1.2845  0.5521 -0.8502
  996MOL0     H31452   4.608   1.791   7.956  1.8784  0.5670  2.6610
  996MOL0     H31453   4.534   1.644   8.027  0.6794 -1.8369  0.3743
  996MOL0     H31454   5.737   1.897   7.728 -1.0383  0.6544  0.5697
  996MOL0     H31455   5.983   1.947   7.748  1.8134 -0.4476 -0.1146
  996MOL0     H31456   6.321   1.971   8.101 -1.2971  1.3421 -2.7887
  996MOL0     H31457   6.572   1.998   8.131 -2.5638  0.1280  1.6329
  996MOL0     H31458   8.258   2.557   7.399  0.4079 -0.9614  0.5820
  996MOL0     H31459   8.481   2.609   7.356  0.9557  0.6148  0.9339
  996MOL0     H31460   8.826   2.954   7.384 -0.0913 -0.1533 -0.1626
  996MOL0     H31461   9.050   2.956   7.269  0.1699  1.5020  2.5650
  996MOL0     H31462   9.343   2.626   7.357  1.6734 -0.0819 -0.9924
  996MOL0     H31463   9.385   2.778   7.420 -1.6114  1.7712 -1.2642
  996MOL0     H31464   9.548   2.701   7.266  0.3676 -0.0703 -0.2692
  996MOL0     H31465   9.435   2.696   7.133  2.1887  1.0007 -1.1668
  996MOL0     H31466   9.520   2.953   7.293  0.2166 -1.1508  1.1111
  996MOL0     H31467   9.412   2.954   7.146 -0.4145 -0.1079 -0.9610
  996MOL0     H31468   9.626   3.027   7.089 -1.4170  0.1192 -0.3297
  996MOL0     H31469   9.703   2.875   7.152 -0.4986 -0.4983  1.1951
  996MOL0     H31470   9.587   2.735   6.787 -1.1915 -0.1612 -1.4850
  996MOL0     H31471   9.151   2.587   7.441 -0.5921 -1.1406 -2.0311
  996MOL0     H31472   8.931   2.563   7.539 -0.1697  0.1726 -1.4691
  997MOL0     O31473   2.715   3.325   2.020 -0.1485 -0.3262 -0.5863
  997MOL0     C31474   2.731   3.336   2.140 -0.2943 -0.6928  0.3313
  997MOL0     O31475   2.631   3.320   2.227 -0.0814  0.0461  0.5685
  997MOL0     C31476   2.496   3.315   2.203  0.2898 -0.4695 -0.1319
  997MOL0     C31477   2.413   3.294   2.315 -0.2482 -0.1754  0.2203
  997MOL0     C31478   2.271   3.316   2.320  0.0262  0.1155 -0.1479
  997MOL0     C31479   2.204   3.340   2.205  0.1615 -0.3478  0.7340
  997MOL0     O31480   2.068   3.329   2.180 -0.0288 -0.1596 -0.2650
  997MOL0     C31481   1.979   3.334   2.294 -1.0674  0.1150  0.7043
  997MOL0     C31482   1.832   3.308   2.250  1.4819 -0.2906 -0.5355
  997MOL0     C31483   1.774   3.431   2.181 -0.1136 -0.0986  0.0289
  997MOL0     C31484   1.644   3.391   2.116 -0.2146  0.5478  0.2178
  997MOL0     C31485   1.579   3.492   2.026 -0.1386  0.1483 -0.4218
  997MOL0     C31486   1.451   3.441   1.952 -0.5392 -0.1779 -0.0670
  997MOL0     C31487   1.327   3.459   2.051 -0.1551  0.1467  0.4932
  997MOL0     C31488   1.196   3.433   1.979  0.5077  0.5262  0.8030
  997MOL0     N31489   1.099   3.402   2.076 -0.1634  0.2678 -0.0204
  997MOL0     C31490   1.028   3.484   2.152  0.0481  0.3736  0.0828
  997MOL0     C31491   0.953   3.406   2.231  1.2271  0.2755 -1.1233
  997MOL0     C31492   0.865   3.451   2.338  0.6472 -0.1228 -0.6931
  997MOL0     C31493   0.791   3.344   2.428 -0.5173  0.5543 -0.2077
  997MOL0     C31494   0.667   3.275   2.364 -0.1371 -1.1771  0.1581
  997MOL0     C31495   0.596   3.181   2.462 -0.5658  0.0307  0.4664
  997MOL0     O31496   0.500   3.251   2.537 -0.0330 -0.0160  1.0110
  997MOL0     C31497   0.399   3.178   2.598  0.5893  0.2156 -0.5400
  997MOL0     C31498   0.403   3.039   2.634 -1.0698 -0.8397  0.8774
  997MOL0     C31499   0.287   2.983   2.697  0.9328 -0.0332  0.0052
  997MOL0     C31500   0.197   3.073   2.766 -0.3100 -0.3833  0.1359
  997MOL0     C31501   0.095   3.017   2.850 -0.4968 -0.0192  0.6386
  997MOL0     O31502   0.015   3.117   2.913 -0.1550  0.4379 -0.0142
  997MOL0     C31503  -0.098   3.094   2.984  0.4208 -0.0246  0.2705
  997MOL0     C31504  -0.141   3.194   3.066  0.6735  0.8136  0.1453
  997MOL0     C31505  -0.255   3.169   3.146  0.2309  0.8082  0.8244
  997MOL0     C31506  -0.337   3.051   3.130 -0.1102 -0.1118  0.7853
  997MOL0     O31507  -0.451   3.050   3.214 -0.0040  0.1381  0.5764
  997MOL0     C31508  -0.529   2.931   3.238  0.3016 -0.4364 -0.6823
  997MOL0     C31509  -0.658   2.960   3.327  0.0023  0.0181  0.4435
  997MOL0     C31510  -0.774   2.858   3.328  0.4563  0.0204 -0.0136
  997MOL0     C31511  -0.905   2.925   3.360 -0.2250 -0.2063  0.1997
  997MOL0     C31512  -1.027   2.833   3.351 -0.0969 -0.7460 -0.4293
  997MOL0     C31513  -1.149   2.913   3.380  0.3862 -0.8755 -0.1950
  997MOL0     C31514  -1.271   2.856   3.304  0.4280  0.7688  0.3651
  997MOL0     C31515  -1.397   2.938   3.309 -0.6734 -0.0735 -0.3695
  997MOL0    Cl31516  -1.465   2.968   3.473 -0.0321  0.0200 -0.2765
  997MOL0     C31517  -0.297   2.965   3.035 -0.0858  0.1325  0.6145
  997MOL0     C31518  -0.172   2.976   2.965  0.5658 -0.0628  0.0350
  997MOL0     O31519   0.086   2.894   2.861 -0.3018 -0.9740 -0.1046
  997MOL0     C31520   0.210   3.208   2.746  0.8872 -0.4280  0.9161
  997MOL0     C31521   0.305   3.261   2.667 -0.8302  0.1557  0.0221
  997MOL0     N31522   0.987   3.274   2.205  0.4728 -0.0652  0.4522
  997MOL0     N31523   1.071   3.273   2.105 -0.6057 -0.4973 -0.6643
  997MOL0     C31524   2.284   3.370   2.093 -0.3509  0.5828 -0.1010
  997MOL0     C31525   2.423   3.356   2.090  0.0387 -0.0272  0.1285
  997MOL0     C31526   2.866   3.365   2.197 -0.3936  0.3944 -0.4083
  997MOL0     C31527   2.962   3.424   2.114 -0.0204 -0.0974  0.1174
  997MOL0     C31528   3.085   3.462   2.171 -0.3781  0.2639  0.7697
  997MOL0     C31529   3.116   3.452   2.309 -0.4801 -0.8358  0.1611
  997MOL0     O31530   3.243   3.497   2.338 -0.6586 -0.0745  0.7593
  997MOL0     C31531   3.287   3.481   2.478 -0.1409 -0.5874 -0.5249
  997MOL0     C31532   3.441   3.475   2.484  0.1230 -0.3204  0.3490
  997MOL0     C31533   3.489   3.474   2.628  0.0041  0.2524 -0.4007
  997MOL0     C31534   3.458   3.605   2.704 -0.2637 -0.0071 -0.2188
  997MOL0     C31535   3.530   3.726   2.668 -0.5154 -0.4378  0.1655
  997MOL0     C31536   3.583   3.833   2.647  0.7022  0.0437 -0.0420
  997MOL0     C31537   3.011   3.413   2.401  0.6966 -0.5326 -0.2345
  997MOL0     C31538   2.890   3.369   2.339  0.1461  0.1517  0.1862
  997MOL0     H31539   2.460   3.269   2.410 -0.8090  1.3016  0.9100
  997MOL0     H31540   2.215   3.305   2.412 -3.8034  1.6708 -2.0358
  997MOL0     H31541   1.992   3.433   2.338 -1.0902 -0.3263  1.7167
  997MOL0     H31542   2.008   3.255   2.363  0.6802  1.6849  1.8718
  997MOL0     H31543   1.777   3.285   2.341  1.0017 -0.5507 -0.8869
  997MOL0     H31544   1.825   3.219   2.187 -0.0031 -0.6947  0.1631
  997MOL0     H31545   1.842   3.475   2.107  1.7275 -1.0155  1.0922
  997MOL0     H31546   1.757   3.507   2.258 -1.9909 -0.1104 -0.3483
  997MOL0     H31547   1.657   3.305   2.050 -2.6568 -0.4796  0.9473
  997MOL0     H31548   1.567   3.354   2.184 -0.8129  0.3349 -0.5524
  997MOL0     H31549   1.652   3.511   1.947 -0.4367 -0.8552 -0.9538
  997MOL0     H31550   1.557   3.588   2.073  1.3034  0.4435 -0.2916
  997MOL0     H31551   1.471   3.339   1.917  1.0094 -0.1935  0.7671
  997MOL0     H31552   1.435   3.504   1.864  1.6037  0.8600  0.2296
  997MOL0     H31553   1.342   3.378   2.124  2.3155  1.0619  1.1002
  997MOL0     H31554   1.323   3.550   2.112  3.8686  0.3168  0.7788
  997MOL0     H31555   1.208   3.353   1.906 -1.9523  1.2997 -0.5453
  997MOL0     H31556   1.167   3.520   1.920 -2.0880 -2.3234 -2.5218
  997MOL0     H31557   1.024   3.593   2.149 -1.1698  0.4092  1.5783
  997MOL0     H31558   0.792   3.518   2.292 -1.5508 -1.8302  0.1285
  997MOL0     H31559   0.932   3.510   2.401  0.2312  0.1389 -0.4866
  997MOL0     H31560   0.754   3.411   2.506 -3.1197  3.2319 -3.4025
  997MOL0     H31561   0.850   3.262   2.469 -0.4105  0.1337 -1.1728
  997MOL0     H31562   0.592   3.345   2.324  0.3608 -1.1718 -0.7830
  997MOL0     H31563   0.703   3.228   2.272 -0.2340  1.1011 -1.1242
  997MOL0     H31564   0.665   3.127   2.527 -1.5482 -2.3475 -0.3358
  997MOL0     H31565   0.544   3.097   2.414 -1.0328 -1.1969  2.9231
  997MOL0     H31566   0.478   2.971   2.595  0.1722 -0.1156  1.9302
  997MOL0     H31567   0.291   2.874   2.699  2.3524 -0.0201 -0.7534
  997MOL0     H31568  -0.080   3.285   3.071  1.6585  0.4075 -2.7724
  997MOL0     H31569  -0.294   3.242   3.217  0.0956 -0.0252  1.6124
  997MOL0     H31570  -0.470   2.856   3.291  1.4161  2.1690  2.0338
  997MOL0     H31571  -0.567   2.886   3.145 -2.5477 -1.5606  0.8939
  997MOL0     H31572  -0.702   3.051   3.285  0.7388  0.6352  0.9605
  997MOL0     H31573  -0.621   2.992   3.425  0.1364  1.3051 -0.0040
  997MOL0     H31574  -0.744   2.779   3.397 -2.5276 -2.2262 -1.0740
  997MOL0     H31575  -0.788   2.815   3.229  0.9031 -0.5796  0.1785
  997MOL0     H31576  -0.891   2.971   3.458  1.3061 -1.2718  0.5282
  997MOL0     H31577  -0.915   3.010   3.293  0.8648 -0.5970 -0.4868
  997MOL0     H31578  -1.031   2.743   3.412  0.9108  0.2377  1.1679
  997MOL0     H31579  -1.030   2.803   3.246 -0.4013 -0.8094 -0.4051
  997MOL0     H31580  -1.140   3.012   3.333 -0.3172  0.0700  1.5523
  997MOL0     H31581  -1.164   2.925   3.488  0.2317 -0.6651 -0.2382
  997MOL0     H31582  -1.238   2.823   3.205  2.2440  0.6273  0.9814
  997MOL0     H31583  -1.301   2.766   3.358 -3.0958  0.4314 -1.7926
  997MOL0     H31584  -1.470   2.880   3.251 -0.0768 -0.2751 -0.9212
  997MOL0     H31585  -1.394   3.038   3.265 -2.1122 -0.4661 -1.4337
  997MOL0     H31586  -0.359   2.879   3.015  1.4734 -1.6499  2.9240
  997MOL0     H31587  -0.138   2.891   2.906  2.5094 -3.1417  4.9017
  997MOL0     H31588   0.124   3.265   2.781  1.3705 -0.9866  3.1914
  997MOL0     H31589   0.310   3.367   2.642  1.3428  0.2466  0.6159
  997MOL0     H31590   2.245   3.420   2.004  0.5271  1.5779  0.0432
  997MOL0     H31591   2.465   3.397   1.998 -0.1639  0.3303  0.1903
  997MOL0     H31592   2.937   3.417   2.009  0.0825 -1.7848  0.1824
  997MOL0     H31593   3.171   3.480   2.107  1.8610  0.6430  3.6475
  997MOL0     H31594   3.252   3.394   2.533  0.0417 -0.6421 -0.4938
  997MOL0     H31595   3.256   3.575   2.525  0.4750  1.0428 -3.1779
  997MOL0     H31596   3.480   3.389   2.429 -1.3223 -1.3951  0.9447
  997MOL0     H31597   3.478   3.562   2.430  2.0848 -2.7760 -2.6310
  997MOL0     H31598   3.597   3.454   2.626  0.1311  0.9843 -1.4344
  997MOL0     H31599   3.446   3.388   2.680  2.9190 -2.7392 -2.4715
  997MOL0     H31600   3.350   3.620   2.712 -1.0447 -4.1903 -0.6951
  997MOL0     H31601   3.490   3.589   2.807  0.9902 -1.7727 -0.8518
  997MOL0     H31602   3.640   3.921   2.628 -0.5784  0.7609 -0.7032
  997MOL0     H31603   3.026   3.403   2.508 -2.2453 -1.0941  0.2166
  997MOL0     H31604   2.809   3.356   2.409  0.7742 -0.2715  0.8494
  998MOL0     O31605   3.651   7.452   5.491  0.6452  0.1612 -0.4983
  998MOL0     C31606   3.671   7.553   5.560 -0.6328  1.0336 -0.2469
  998MOL0     O31607   3.589   7.656   5.578 -0.6229 -0.4201  0.2191
  998MOL0     C31608   3.476   7.656   5.507  0.0403  0.3084  0.5466
  998MOL0     C31609   3.458   7.757   5.414 -0.0264 -0.4661 -0.5829
  998MOL0     C31610   3.337   7.770   5.345  0.0806  0.1611 -0.2515
  998MOL0     C31611   3.227   7.691   5.366 -0.2318 -0.2407 -0.4418
  998MOL0     O31612   3.116   7.724   5.296  0.5279  0.6063 -0.1657
  998MOL0     C31613   2.999   7.659   5.333 -0.0307 -0.1172  0.2968
  998MOL0     C31614   2.886   7.735   5.254  0.0054  0.0584 -0.5074
  998MOL0     C31615   2.887   7.711   5.107 -0.3303  0.0976 -0.5011
  998MOL0     C31616   2.789   7.799   5.043  0.2288  0.4836 -0.2495
  998MOL0     C31617   2.780   7.786   4.892 -0.0793 -0.1232 -0.4375
  998MOL0     C31618   2.750   7.913   4.809 -0.1188 -0.2220  0.5174
  998MOL0     C31619   2.610   7.981   4.838 -0.0944  0.0814 -0.3437
  998MOL0     C31620   2.495   7.888   4.809  0.0638  0.6528  0.3389
  998MOL0     N31621   2.490   7.853   4.670 -0.6400  0.2253  0.5389
  998MOL0     C31622   2.457   7.723   4.631  0.4643  0.0541  0.9266
  998MOL0     C31623   2.446   7.735   4.493  0.0825 -0.4629 -0.2234
  998MOL0     C31624   2.414   7.622   4.399 -0.0631  0.1343 -0.3700
  998MOL0     C31625   2.262   7.601   4.389  0.1412 -0.2274 -0.2700
  998MOL0     C31626   2.188   7.724   4.345  0.6931  0.3745  0.0860
  998MOL0     C31627   2.038   7.706   4.316 -1.0937  0.1373 -0.8247
  998MOL0     O31628   1.960   7.673   4.433  0.6713  0.1880  0.0192
  998MOL0     C31629   1.825   7.657   4.404 -0.3762  0.7381  0.5681
  998MOL0     C31630   1.745   7.610   4.505  0.1651 -0.0390 -0.8627
  998MOL0     C31631   1.612   7.574   4.484 -0.1325  0.2670 -0.4543
  998MOL0     C31632   1.548   7.584   4.361  0.2785 -0.3479 -0.2828
  998MOL0     C31633   1.421   7.516   4.344  0.3753 -0.3818 -0.5235
  998MOL0     O31634   1.377   7.438   4.446  0.4032  0.0856 -0.6562
  998MOL0     C31635   1.242   7.409   4.465  0.0362 -0.3909 -0.9341
  998MOL0     C31636   1.124   7.485   4.429  0.4915 -0.3276  0.5212
  998MOL0     C31637   0.999   7.429   4.451  0.5979 -1.5217  0.1992
  998MOL0     C31638   0.982   7.314   4.524 -0.5954 -0.7866 -0.0246
  998MOL0     O31639   0.860   7.265   4.569 -0.2633  0.4079 -0.1320
  998MOL0     C31640   0.737   7.329   4.564  0.2679  0.1302 -0.2353
  998MOL0     C31641   0.626   7.237   4.615 -0.3572 -0.3825 -0.0776
  998MOL0     C31642   0.488   7.284   4.567 -0.7457  0.2680  0.5842
  998MOL0     C31643   0.393   7.183   4.622  0.2990  0.7094  0.2991
  998MOL0     C31644   0.256   7.243   4.605  0.0295 -0.3435 -0.2721
  998MOL0     C31645   0.157   7.175   4.695  0.5643  0.2905  0.2320
  998MOL0     C31646   0.133   7.032   4.658 -0.1385  0.1060 -0.3653
  998MOL0     C31647   0.008   6.965   4.729  0.6636 -0.3203 -0.3238
  998MOL0    Cl31648  -0.149   7.045   4.727 -0.1034 -0.3209  0.1356
  998MOL0     C31649   1.095   7.238   4.561  0.2440  0.2748  0.1854
  998MOL0     C31650   1.221   7.284   4.523 -0.5720  0.2066 -0.8685
  998MOL0     O31651   1.360   7.526   4.240 -0.0459 -0.1665 -0.2859
  998MOL0     C31652   1.626   7.638   4.254  0.5290  0.0186 -0.2350
  998MOL0     C31653   1.768   7.672   4.275 -0.1913 -0.0146 -0.4831
  998MOL0     N31654   2.468   7.861   4.445  0.2619  0.1183  0.4550
  998MOL0     N31655   2.504   7.924   4.557 -0.2422  0.4433  0.4003
  998MOL0     C31656   3.248   7.580   5.454  0.4305 -0.4423  0.0750
  998MOL0     C31657   3.367   7.567   5.528  1.1366  0.0532  0.0890
  998MOL0     C31658   3.799   7.559   5.624  0.7043  0.2831  0.0099
  998MOL0     C31659   3.911   7.511   5.559  0.0754  0.1370  0.2654
  998MOL0     C31660   4.037   7.520   5.607 -0.0647  0.3162  0.4223
  998MOL0     C31661   4.054   7.565   5.740 -0.7089 -0.0850  0.0185
  998MOL0     O31662   4.171   7.551   5.806 -0.1894 -0.2576 -0.2520
  998MOL0     C31663   4.289   7.530   5.732  0.5576  0.1551 -0.6361
  998MOL0     C31664   4.421   7.554   5.808 -0.0721 -0.8476  0.9651
  998MOL0     C31665   4.539   7.482   5.744  0.1139 -0.5830  0.8810
  998MOL0     C31666   4.660   7.515   5.827 -0.4459 -0.0966 -0.6007
  998MOL0     C31667   4.786   7.475   5.760  0.3071  0.3039  0.9440
  998MOL0     C31668   4.887   7.437   5.703  0.4696  0.7097 -0.6368
  998MOL0     C31669   3.937   7.608   5.811 -0.4735  0.6784 -0.3938
  998MOL0     C31670   3.815   7.618   5.745 -0.1223  0.0417 -0.0226
  998MOL0     H31671   3.529   7.838   5.402  0.4157 -0.6499  0.6570
  998MOL0     H31672   3.326   7.851   5.273  0.7439  1.2536  0.8339
  998MOL0     H31673   2.982   7.664   5.441 -3.2024 -1.6491 -0.0190
  998MOL0     H31674   2.991   7.553   5.305  1.2719 -0.7616  2.1907
  998MOL0     H31675   2.889   7.842   5.276  0.6379  0.0443 -0.5182
  998MOL0     H31676   2.791   7.702   5.299 -0.0956 -1.2143 -1.5851
  998MOL0     H31677   2.867   7.607   5.082  1.1177 -0.6822  1.3676
  998MOL0     H31678   2.982   7.745   5.065 -2.1660  3.4795 -2.4410
  998MOL0     H31679   2.687   7.804   5.083 -0.4683  0.1280 -1.8984
  998MOL0     H31680   2.825   7.902   5.051 -0.4941  0.6950  0.3914
  998MOL0     H31681   2.715   7.702   4.865  0.5773 -1.0760  0.7855
  998MOL0     H31682   2.881   7.762   4.858  1.3255  0.6868  2.7375
  998MOL0     H31683   2.761   7.889   4.703  3.5184  2.3197  0.1450
  998MOL0     H31684   2.831   7.985   4.824 -1.9099  2.0459 -0.0865
  998MOL0     H31685   2.601   8.003   4.945  2.2084  1.1565 -0.3142
  998MOL0     H31686   2.597   8.073   4.780 -0.4042  0.2422 -0.0270
  998MOL0     H31687   2.397   7.926   4.838 -0.3667 -0.2908  0.1638
  998MOL0     H31688   2.497   7.801   4.876 -1.5299 -1.6212 -2.3518
  998MOL0     H31689   2.442   7.634   4.692  1.1556 -0.8419 -0.1702
  998MOL0     H31690   2.465   7.528   4.423  0.6726  0.7550  0.5990
  998MOL0     H31691   2.454   7.648   4.300  1.4003 -0.7442 -0.0491
  998MOL0     H31692   2.228   7.563   4.486  0.3920 -1.1876 -0.5485
  998MOL0     H31693   2.242   7.517   4.321  0.0579 -1.6246  1.3993
  998MOL0     H31694   2.208   7.794   4.427  2.6734 -0.1346  0.1071
  998MOL0     H31695   2.239   7.765   4.258  1.1903 -1.8215 -0.7342
  998MOL0     H31696   2.044   7.618   4.251  2.0289 -1.7152  1.7046
  998MOL0     H31697   2.004   7.794   4.260  2.3106  0.8125 -2.0289
  998MOL0     H31698   1.790   7.603   4.603 -5.1241 -1.7160  1.7951
  998MOL0     H31699   1.563   7.523   4.567  1.5252 -0.4880  0.1180
  998MOL0     H31700   1.136   7.582   4.382 -0.6539  0.1799  1.2271
  998MOL0     H31701   0.921   7.498   4.420  0.1496 -2.1190 -0.0135
  998MOL0     H31702   0.709   7.362   4.464 -0.4658 -3.6769 -1.4576
  998MOL0     H31703   0.738   7.408   4.639  0.1160  2.3239 -2.4086
  998MOL0     H31704   0.623   7.245   4.724 -0.6876  0.1471 -0.1239
  998MOL0     H31705   0.643   7.137   4.573  0.5412 -0.7934  1.2105
  998MOL0     H31706   0.488   7.289   4.458 -2.7976 -0.6845  0.4983
  998MOL0     H31707   0.472   7.386   4.605  2.7063  1.2864 -0.3586
  998MOL0     H31708   0.398   7.078   4.589  4.4681  0.3196  1.5201
  998MOL0     H31709   0.412   7.185   4.730 -0.2243  0.4848  0.3955
  998MOL0     H31710   0.230   7.245   4.498 -1.0137  3.3405 -0.0792
  998MOL0     H31711   0.267   7.344   4.646 -0.7436 -0.2792 -0.2230
  998MOL0     H31712   0.064   7.229   4.675 -0.7131 -1.0096  2.3905
  998MOL0     H31713   0.183   7.195   4.799  1.3285  1.6335 -0.1870
  998MOL0     H31714   0.118   7.020   4.550 -0.1145  0.7040 -0.4400
  998MOL0     H31715   0.219   6.968   4.678 -0.0745 -0.6813 -2.7767
  998MOL0     H31716   0.036   6.953   4.834 -0.6371  0.5574  0.1493
  998MOL0     H31717  -0.013   6.865   4.691  1.8292 -0.6354 -0.1741
  998MOL0     H31718   1.083   7.142   4.610  0.5669  0.5641  0.8549
  998MOL0     H31719   1.301   7.213   4.543  0.5363  1.1605 -1.7418
  998MOL0     H31720   1.572   7.650   4.161 -0.3307 -0.2113  0.2281
  998MOL0     H31721   1.822   7.707   4.188  0.0870  2.7064  0.6751
  998MOL0     H31722   3.170   7.506   5.472  1.3789 -1.8436 -1.3340
  998MOL0     H31723   3.378   7.492   5.605  0.7715 -1.3814 -1.2066
  998MOL0     H31724   3.895   7.471   5.459 -0.7544  2.1378 -0.4688
  998MOL0     H31725   4.123   7.484   5.552  0.1743 -0.4698  1.2768
  998MOL0     H31726   4.294   7.586   5.638 -0.3974  1.7834  0.2349
  998MOL0     H31727   4.290   7.426   5.700  1.8954  0.6240 -2.2167
  998MOL0     H31728   4.434   7.663   5.809 -2.4433 -0.5283  1.9658
  998MOL0     H31729   4.402   7.526   5.911  0.2391 -0.0074  1.2593
  998MOL0     H31730   4.549   7.531   5.646 -2.4345 -1.8102 -0.0722
  998MOL0     H31731   4.514   7.377   5.731 -1.0794 -0.0638 -1.6356
  998MOL0     H31732   4.674   7.620   5.853  1.1205 -0.2906 -0.5711
  998MOL0     H31733   4.654   7.474   5.928 -0.8990  0.1235 -0.5361
  998MOL0     H31734   4.978   7.404   5.657  0.6625 -0.4551  0.5151
  998MOL0     H31735   3.943   7.632   5.917  1.9015 -0.5358 -0.1733
  998MOL0     H31736   3.734   7.668   5.797  2.3058  1.0943  2.9544
  999MOL0     O31737   6.899   3.259   8.862 -0.3762  0.1234 -0.4777
  999MOL0     C31738   6.814   3.218   8.789 -0.3127  0.8884 -0.1169
  999MOL0     O31739   6.710   3.136   8.831  0.0622 -0.3565 -0.0418
  999MOL0     C31740   6.698   3.116   8.966 -0.4767 -0.4808  0.4979
  999MOL0     C31741   6.624   3.206   9.041 -0.3924  0.0887  0.2159
  999MOL0     C31742   6.607   3.193   9.178  0.3478  0.4762 -0.7081
  999MOL0     C31743   6.687   3.105   9.247 -0.1687 -0.2637 -0.5171
  999MOL0     O31744   6.679   3.102   9.384 -0.1866 -0.1343 -0.6140
  999MOL0     C31745   6.665   2.969   9.443  0.2140 -0.5520  0.0493
  999MOL0     C31746   6.602   2.984   9.574  0.1952 -0.0055  0.4171
  999MOL0     C31747   6.608   2.850   9.647 -0.0661 -0.4775 -0.0050
  999MOL0     C31748   6.523   2.855   9.767 -0.1151  0.1036  0.8252
  999MOL0     C31749   6.488   2.710   9.812  0.1707  0.1124 -0.5661
  999MOL0     C31750   6.438   2.712   9.960  0.3345  0.4722 -0.2428
  999MOL0     C31751   6.313   2.791   9.976 -0.0559  0.0060 -0.1608
  999MOL0     C31752   6.196   2.733   9.899  0.2622 -0.4773  0.8726
  999MOL0     N31753   6.083   2.831   9.916  0.3477  1.2148  0.5104
  999MOL0     C31754   6.005   2.841  10.029 -0.6985 -0.2821 -0.1310
  999MOL0     C31755   5.935   2.953  10.011  0.2152 -0.5607 -0.3828
  999MOL0     C31756   5.840   3.015  10.116  0.2566  0.0612  0.4349
  999MOL0     C31757   5.692   2.988  10.071 -0.3949 -0.2853  1.0099
  999MOL0     C31758   5.600   3.107  10.105  0.2303  0.0052 -0.1670
  999MOL0     C31759   5.455   3.075  10.153  0.3214  0.3799 -0.7660
  999MOL0     O31760   5.377   3.033  10.043 -0.1762  0.5103 -0.0206
  999MOL0     C31761   5.245   3.033  10.040 -0.3546 -0.0083  0.0069
  999MOL0     C31762   5.180   2.974   9.928  0.4408 -0.4804  0.4005
  999MOL0     C31763   5.042   2.981   9.921  0.8509 -0.2330 -0.0541
  999MOL0     C31764   4.966   3.051  10.017  0.8864  0.6085  0.0895
  999MOL0     C31765   4.820   3.061  10.001 -0.7074  0.3898 -0.2284
  999MOL0     O31766   4.753   3.153  10.066 -0.7144  0.1586  0.3608
  999MOL0     C31767   4.615   3.141  10.047  0.7819 -0.1853  0.1990
  999MOL0     C31768   4.540   3.030  10.077  0.0848  0.0549 -0.7727
  999MOL0     C31769   4.404   3.035  10.079  0.0780  0.2001  0.1953
  999MOL0     C31770   4.332   3.152  10.056 -0.3169 -0.7050  1.3344
  999MOL0     O31771   4.198   3.156  10.077  0.1025  0.2896 -0.0616
  999MOL0     C31772   4.121   3.275  10.047  0.1298 -0.2763  0.3874
  999MOL0     C31773   3.969   3.250  10.063 -0.2047  0.4717  0.4215
  999MOL0     C31774   3.888   3.367   9.994  0.0973 -0.0983 -0.0135
  999MOL0     C31775   3.740   3.322  10.000 -0.4172  0.2901  0.6755
  999MOL0     C31776   3.650   3.445   9.975  0.3544 -0.2381  0.2432
  999MOL0     C31777   3.499   3.420  10.017  0.8657 -0.4278 -0.1345
  999MOL0     C31778   3.422   3.553  10.018  0.2593 -0.5177  0.2702
  999MOL0     C31779   3.280   3.549  10.084 -0.3283  0.3327  0.1760
  999MOL0    Cl31780   3.294   3.552  10.262 -0.0208  0.6313 -0.1030
  999MOL0     C31781   4.407   3.262  10.012  0.7696 -0.0524 -0.1414
  999MOL0     C31782   4.544   3.255  10.020 -0.2692  0.5755  0.3367
  999MOL0     O31783   4.774   2.983   9.915 -0.5831 -0.4652 -0.0171
  999MOL0     C31784   5.034   3.091  10.134  0.7650 -0.6451 -0.1763
  999MOL0     C31785   5.172   3.077  10.149  0.4802 -1.0606  0.2647
  999MOL0     N31786   5.956   3.010   9.888  0.1888 -0.0330  0.5561
  999MOL0     N31787   6.046   2.935   9.834  0.4243  0.2600 -0.1551
  999MOL0     C31788   6.764   3.019   9.171 -0.7580 -0.7740 -0.1793
  999MOL0     C31789   6.774   3.022   9.033  0.2180 -0.3002  1.2316
  999MOL0     C31790   6.805   3.268   8.650  0.5657 -0.4899 -0.1346
  999MOL0     C31791   6.688   3.249   8.571  0.1331 -0.7775 -0.1478
  999MOL0     C31792   6.677   3.308   8.438 -0.5140  0.2221  0.4852
  999MOL0     C31793   6.795   3.373   8.387 -0.0408 -0.4093 -0.0328
  999MOL0     O31794   6.798   3.440   8.268 -0.2634  0.5751  0.5342
  999MOL0     C31795   6.690   3.476   8.184 -1.0925  0.1044  0.0880
  999MOL0     C31796   6.597   3.582   8.246  0.1470 -0.4121  0.3944
  999MOL0     C31797   6.646   3.718   8.184  0.5359  0.1459  0.0678
  999MOL0     C31798   6.563   3.844   8.215  0.2836 -0.2914 -0.0173
  999MOL0     C31799   6.539   3.848   8.357 -0.2863 -0.1685 -0.2025
  999MOL0     C31800   6.526   3.848   8.481  0.0405  0.3213 -0.2532
  999MOL0     C31801   6.913   3.388   8.467  0.0859 -0.6601 -0.0505
  999MOL0     C31802   6.914   3.337   8.596  0.2795 -0.0674  0.4044
  999MOL0     H31803   6.579   3.296   9.001 -0.3115  1.6566  3.3020
  999MOL0     H31804   6.551   3.261   9.241 -1.4164  0.4046 -2.1013
  999MOL0     H31805   6.762   2.920   9.454  1.0876  1.0579 -0.1665
  999MOL0     H31806   6.602   2.904   9.381  0.7102 -1.3148  0.3328
  999MOL0     H31807   6.499   3.017   9.558  0.1425  0.2944  1.3518
  999MOL0     H31808   6.647   3.060   9.637 -1.6356  1.9114 -0.4411
  999MOL0     H31809   6.713   2.826   9.669  0.7965  0.9491 -2.1907
  999MOL0     H31810   6.574   2.768   9.583 -0.8240 -1.0661  1.1126
  999MOL0     H31811   6.576   2.905   9.848  0.1131  2.2707 -0.5896
  999MOL0     H31812   6.426   2.897   9.739 -1.4462 -2.3159  1.4909
  999MOL0     H31813   6.578   2.647   9.805  0.1915 -0.0650  0.9294
  999MOL0     H31814   6.412   2.666   9.746  0.7963 -3.8495  1.0339
  999MOL0     H31815   6.514   2.763  10.020 -0.3873  0.7840  0.4262
  999MOL0     H31816   6.420   2.610   9.995 -2.7607  0.5317 -1.4054
  999MOL0     H31817   6.287   2.784  10.082 -1.7240 -2.1714 -0.6340
  999MOL0     H31818   6.325   2.893   9.939  0.8543 -0.3646 -0.9041
  999MOL0     H31819   6.157   2.638   9.938  1.1646 -0.8018  1.0139
  999MOL0     H31820   6.210   2.738   9.791  0.5641  3.3511  0.9666
  999MOL0     H31821   6.004   2.780  10.118 -2.0088 -0.8769 -0.5334
  999MOL0     H31822   5.855   3.123  10.111  0.7539 -0.0358 -0.3049
  999MOL0     H31823   5.873   2.977  10.214 -1.4313 -1.3359  0.5058
  999MOL0     H31824   5.653   2.900  10.123 -0.5680  0.6913  2.5940
  999MOL0     H31825   5.681   2.968   9.964  1.6097 -1.7516  1.0018
  999MOL0     H31826   5.646   3.175  10.177  0.7899 -0.2236 -0.3072
  999MOL0     H31827   5.586   3.176  10.022 -1.6746  3.7214  2.9378
  999MOL0     H31828   5.419   3.167  10.200 -1.5361 -0.3884 -0.6297
  999MOL0     H31829   5.458   2.991  10.223  2.0574 -0.5189 -1.8373
  999MOL0     H31830   5.246   2.936   9.851  0.8916  0.2371  0.4113
  999MOL0     H31831   4.995   2.940   9.833  1.6948  1.6247 -1.4568
  999MOL0     H31832   4.595   2.945  10.118 -0.7116 -0.2062 -0.2297
  999MOL0     H31833   4.355   2.945  10.116  1.5626 -0.5631  0.3850
  999MOL0     H31834   4.140   3.305   9.944 -0.8012  0.6947  0.4847
  999MOL0     H31835   4.143   3.360  10.112  4.4931  0.6453 -1.9135
  999MOL0     H31836   3.942   3.245  10.169  3.1581  0.9292  1.4249
  999MOL0     H31837   3.945   3.154  10.018 -2.0698  0.8417  0.5572
  999MOL0     H31838   3.928   3.408   9.901  1.2815 -1.8450 -0.3211
  999MOL0     H31839   3.903   3.453  10.061 -1.9550 -0.2750  0.7421
  999MOL0     H31840   3.719   3.252   9.919  1.2016  0.3805  0.1359
  999MOL0     H31841   3.720   3.273  10.096 -0.0408  1.1088  1.1772
  999MOL0     H31842   3.657   3.478   9.871 -2.2207  0.6437  0.2774
  999MOL0     H31843   3.687   3.518  10.048  2.6302 -1.5566  0.4935
  999MOL0     H31844   3.507   3.384  10.120 -0.3656  0.4183  0.2812
  999MOL0     H31845   3.448   3.338   9.965  1.3007 -2.3763  2.3195
  999MOL0     H31846   3.479   3.632  10.068  0.0324  0.7029 -1.3311
  999MOL0     H31847   3.412   3.602   9.921 -4.6978  0.3381  0.9140
  999MOL0     H31848   3.227   3.467  10.034 -2.5129  1.1354  1.0363
  999MOL0     H31849   3.227   3.643  10.063 -2.0527 -0.9020 -1.3518
  999MOL0     H31850   4.361   3.357   9.991  0.2239 -0.2295  0.2517
  999MOL0     H31851   4.596   3.350  10.012 -1.4241  1.2655  0.8234
  999MOL0     H31852   4.979   3.128  10.220  2.9842  1.5198  0.4406
  999MOL0     H31853   5.212   3.113  10.243  1.3040  2.0163 -1.1410
  999MOL0     H31854   6.830   2.948   9.222  0.1343  0.6380  0.6949
  999MOL0     H31855   6.841   2.949   8.989 -1.6493 -2.9939  2.6005
  999MOL0     H31856   6.600   3.199   8.608 -0.7777  0.2960 -0.8077
  999MOL0     H31857   6.584   3.296   8.385  0.0677  1.2079 -0.8146
  999MOL0     H31858   6.631   3.392   8.147  1.5804 -0.9334 -2.1570
  999MOL0     H31859   6.731   3.523   8.094  1.8295  1.1692  1.8414
  999MOL0     H31860   6.494   3.565   8.213 -0.2123  2.7016 -0.4704
  999MOL0     H31861   6.592   3.577   8.355 -1.6264 -0.4515  0.3346
  999MOL0     H31862   6.651   3.718   8.074  1.9094 -0.2583  0.1190
  999MOL0     H31863   6.751   3.741   8.203  1.2107 -0.2422 -2.7599
  999MOL0     H31864   6.607   3.938   8.181 -1.7182  0.2584 -1.2463
  999MOL0     H31865   6.462   3.841   8.172  0.2292 -0.5143  0.1194
  999MOL0     H31866   6.496   3.847   8.584 -0.5276 -2.2513 -0.3763
  999MOL0     H31867   7.005   3.433   8.432 -0.7479  0.0818 -1.3751
  999MOL0     H31868   7.005   3.349   8.653  0.7000  0.2152 -0.3085
 1000MOL0     O31869   8.129   3.223   3.760 -0.3660 -0.0586  0.2896
 1000MOL0     C31870   8.122   3.246   3.639  0.4061 -0.4396  0.0865
 1000MOL0     O31871   8.018   3.242   3.560 -0.0796  0.2246  0.0270
 1000MOL0     C31872   7.898   3.223   3.629 -1.4530  0.2232  0.1177
 1000MOL0     C31873   7.810   3.323   3.633 -0.3321 -0.3274  0.6701
 1000MOL0     C31874   7.680   3.295   3.682  0.1303 -0.3691 -0.0665
 1000MOL0     C31875   7.632   3.171   3.730  0.2770 -0.0024  0.2073
 1000MOL0     O31876   7.505   3.163   3.781 -0.0440 -0.4523  0.7420
 1000MOL0     C31877   7.452   3.037   3.820  0.3700 -0.1620 -0.0691
 1000MOL0     C31878   7.307   3.058   3.838  0.1314  1.1529 -0.5903
 1000MOL0     C31879   7.274   3.154   3.954 -0.7476 -0.4857 -0.4057
 1000MOL0     C31880   7.124   3.174   3.971 -0.3929 -0.0590  0.8827
 1000MOL0     C31881   7.088   3.289   4.072 -0.3534 -0.0927  0.2505
 1000MOL0     C31882   6.934   3.293   4.087 -0.3540  0.3251 -0.0735
 1000MOL0     C31883   6.868   3.392   4.185 -0.9161  0.2470  0.4333
 1000MOL0     C31884   6.721   3.391   4.148  0.2909  0.3639 -1.3428
 1000MOL0     N31885   6.644   3.492   4.228  0.2582  0.4699 -0.2082
 1000MOL0     C31886   6.653   3.630   4.199  0.6356 -0.1927 -0.4756
 1000MOL0     C31887   6.563   3.681   4.288  1.2043  0.0882  0.5100
 1000MOL0     C31888   6.532   3.828   4.308 -1.1539  0.4628  0.3159
 1000MOL0     C31889   6.468   3.895   4.190  0.6588 -0.4978 -0.2351
 1000MOL0     C31890   6.479   4.046   4.223  0.0982 -0.2425 -0.6601
 1000MOL0     C31891   6.362   4.099   4.319  0.4906  0.0858  0.3263
 1000MOL0     O31892   6.238   4.119   4.246  0.1457  0.4569 -0.0988
 1000MOL0     C31893   6.142   4.190   4.304  0.3983  1.4788 -0.5944
 1000MOL0     C31894   6.148   4.241   4.438 -0.3055  0.3028 -0.4033
 1000MOL0     C31895   6.034   4.310   4.486  0.3916  0.7390  0.1967
 1000MOL0     C31896   5.919   4.330   4.411  0.0286 -0.1264  0.6057
 1000MOL0     C31897   5.799   4.392   4.478 -0.0576  0.3076  1.0113
 1000MOL0     O31898   5.709   4.459   4.388 -0.2630 -0.1001 -0.2335
 1000MOL0     C31899   5.590   4.507   4.429  0.6682  0.6323 -0.3950
 1000MOL0     C31900   5.532   4.593   4.340 -0.0434  0.1820  0.8990
 1000MOL0     C31901   5.412   4.660   4.364 -0.1146  0.4532  0.8819
 1000MOL0     C31902   5.342   4.633   4.483  0.0029  0.5867  0.0520
 1000MOL0     O31903   5.230   4.690   4.526 -0.0913  0.5452 -0.6668
 1000MOL0     C31904   5.154   4.774   4.435 -0.2670  0.0342  0.1445
 1000MOL0     C31905   5.031   4.824   4.500  0.2179 -0.3259  0.1363
 1000MOL0     C31906   4.928   4.892   4.413  0.0687 -0.7651  0.0208
 1000MOL0     C31907   4.879   4.805   4.297 -0.6722  0.0106  0.4499
 1000MOL0     C31908   4.736   4.852   4.255 -0.3619 -0.5518 -0.1372
 1000MOL0     C31909   4.685   4.771   4.128 -0.0502 -0.6559 -0.5743
 1000MOL0     C31910   4.561   4.841   4.074  0.3708  0.1771 -0.0708
 1000MOL0     C31911   4.473   4.763   3.972  0.8806  0.3932  0.4270
 1000MOL0    Cl31912   4.564   4.801   3.811 -0.4642  0.2267 -0.2760
 1000MOL0     C31913   5.404   4.545   4.581 -0.0895 -1.2362  0.4943
 1000MOL0     C31914   5.528   4.484   4.555 -0.2530 -0.0334  0.0906
 1000MOL0     O31915   5.792   4.380   4.596 -0.1939 -0.3887 -0.4273
 1000MOL0     C31916   5.916   4.292   4.276 -0.7336 -0.5909  0.2375
 1000MOL0     C31917   6.022   4.211   4.228 -1.0464 -0.8230  0.0247
 1000MOL0     N31918   6.521   3.580   4.378  0.2766 -0.3088 -0.4175
 1000MOL0     N31919   6.563   3.467   4.337 -0.4522  0.5925 -0.0051
 1000MOL0     C31920   7.730   3.071   3.724 -0.9054  0.1143  0.4112
 1000MOL0     C31921   7.859   3.093   3.675 -0.3433 -0.1563 -0.4590
 1000MOL0     C31922   8.243   3.320   3.577 -0.4326 -0.3416 -0.6122
 1000MOL0     C31923   8.366   3.320   3.649 -0.2459 -0.1379 -0.8231
 1000MOL0     C31924   8.484   3.381   3.588  0.1186  0.3320 -0.1977
 1000MOL0     C31925   8.487   3.422   3.459  0.4824 -0.2781 -0.6153
 1000MOL0     O31926   8.591   3.484   3.394  0.2939 -0.2440 -0.3515
 1000MOL0     C31927   8.714   3.458   3.454 -0.2250  1.1020 -0.6851
 1000MOL0     C31928   8.823   3.516   3.366 -0.1367 -0.1093  0.8134
 1000MOL0     C31929   8.962   3.536   3.421  0.6836  0.0505 -0.2745
 1000MOL0     C31930   9.056   3.421   3.380  0.3915 -0.3564 -0.1514
 1000MOL0     C31931   9.018   3.300   3.454 -0.4418  0.6360 -0.1089
 1000MOL0     C31932   8.972   3.190   3.492 -0.6785 -0.7151 -0.0543
 1000MOL0     C31933   8.362   3.412   3.392  0.0873 -0.5540  0.0163
 1000MOL0     C31934   8.241   3.375   3.449 -0.8223 -0.0045 -0.1575
 1000MOL0     H31935   7.830   3.422   3.592 -1.3907 -0.1896  0.4567
 1000MOL0     H31936   7.611   3.379   3.682 -0.2681 -0.6441 -2.5885
 1000MOL0     H31937   7.500   3.011   3.915  0.0008 -1.8587 -0.3044
 1000MOL0     H31938   7.472   2.964   3.741  1.9087  0.7179 -0.5365
 1000MOL0     H31939   7.262   2.961   3.859  0.9208  1.1724  1.4130
 1000MOL0     H31940   7.268   3.092   3.741 -0.6813 -1.6072 -1.2991
 1000MOL0     H31941   7.318   3.252   3.938  0.5046 -1.2550 -2.1336
 1000MOL0     H31942   7.324   3.112   4.041  0.1763 -1.9023 -1.5519
 1000MOL0     H31943   7.081   3.204   3.875 -2.2996 -1.1829  1.3378
 1000MOL0     H31944   7.089   3.076   4.002  1.5757 -1.2240 -0.3150
 1000MOL0     H31945   7.114   3.390   4.039 -0.1903 -0.5642 -1.0980
 1000MOL0     H31946   7.139   3.263   4.166  2.4709  2.9098 -0.2695
 1000MOL0     H31947   6.904   3.198   4.131 -0.1192  0.3083  0.0537
 1000MOL0     H31948   6.895   3.303   3.986  1.7521  3.8084 -0.7283
 1000MOL0     H31949   6.878   3.366   4.291  0.5362 -0.7352  0.0723
 1000MOL0     H31950   6.900   3.495   4.168 -0.7848  0.0534 -0.5278
 1000MOL0     H31951   6.670   3.295   4.166 -3.4402  2.0161 -2.0309
 1000MOL0     H31952   6.720   3.409   4.041  0.1824 -1.4411 -1.6754
 1000MOL0     H31953   6.707   3.692   4.128 -0.4718 -2.4599 -3.4689
 1000MOL0     H31954   6.628   3.879   4.321 -0.5912 -0.5715  0.3375
 1000MOL0     H31955   6.477   3.845   4.401 -1.2129  2.1072  0.0119
 1000MOL0     H31956   6.363   3.867   4.176 -0.1053  2.1724 -0.3530
 1000MOL0     H31957   6.520   3.877   4.095 -0.0696  0.5386 -0.8453
 1000MOL0     H31958   6.572   4.071   4.275  0.0408 -1.3581 -0.0091
 1000MOL0     H31959   6.473   4.104   4.130 -0.2585 -0.9904 -1.1142
 1000MOL0     H31960   6.398   4.193   4.362  0.2508  0.5890 -0.5513
 1000MOL0     H31961   6.340   4.040   4.408 -1.8075  1.2944  0.6265
 1000MOL0     H31962   6.237   4.233   4.500 -0.0425 -0.0471 -0.8187
 1000MOL0     H31963   6.029   4.338   4.591  0.8644  3.1719 -0.3550
 1000MOL0     H31964   5.578   4.612   4.244  0.2502  1.3385  1.2476
 1000MOL0     H31965   5.376   4.731   4.291  1.0874  2.6574  2.3288
 1000MOL0     H31966   5.133   4.714   4.346 -0.4539 -0.3124  0.4213
 1000MOL0     H31967   5.206   4.864   4.402  2.0621 -1.4156 -0.4193
 1000MOL0     H31968   5.063   4.889   4.581  1.7750 -1.5308  0.5267
 1000MOL0     H31969   4.966   4.746   4.541 -1.4197  1.2670  0.7228
 1000MOL0     H31970   4.974   4.986   4.380 -3.9988  0.3824 -3.3855
 1000MOL0     H31971   4.852   4.925   4.485  3.4907  3.9181  2.0210
 1000MOL0     H31972   4.946   4.824   4.213 -1.2250 -1.4444 -0.3519
 1000MOL0     H31973   4.884   4.697   4.315 -0.7678  0.1631  1.4508
 1000MOL0     H31974   4.737   4.957   4.223  1.0217 -0.5838 -0.2640
 1000MOL0     H31975   4.676   4.831   4.344 -0.3349 -2.9027 -0.6046
 1000MOL0     H31976   4.662   4.668   4.157  1.7693 -0.7594  0.6885
 1000MOL0     H31977   4.754   4.779   4.044 -0.6325  2.5431 -0.8801
 1000MOL0     H31978   4.491   4.858   4.157  0.5296  0.9920 -0.0973
 1000MOL0     H31979   4.602   4.934   4.034  0.2105  1.6186  2.8577
 1000MOL0     H31980   4.373   4.806   3.972  0.3693 -0.7588 -0.0847
 1000MOL0     H31981   4.459   4.658   4.000  0.2061  1.0403  2.8010
 1000MOL0     H31982   5.359   4.527   4.678 -0.6400 -1.1864  0.2484
 1000MOL0     H31983   5.569   4.412   4.625 -0.4739 -2.0718 -1.7523
 1000MOL0     H31984   5.825   4.304   4.219 -0.8721  0.7132  0.7224
 1000MOL0     H31985   6.026   4.165   4.130  1.3419 -0.7647  0.0193
 1000MOL0     H31986   7.713   2.973   3.766 -0.1591 -0.0730  0.2962
 1000MOL0     H31987   7.931   3.012   3.677  2.4968  2.2045  1.2746
 1000MOL0     H31988   8.368   3.268   3.744 -2.4102  0.2842 -0.4809
 1000MOL0     H31989   8.578   3.379   3.643  1.4346 -0.2608 -2.3308
 1000MOL0     H31990   8.720   3.349   3.466 -2.4053  1.2123  2.8960
 1000MOL0     H31991   8.730   3.489   3.558 -2.3979 -2.3218  0.8890
 1000MOL0     H31992   8.841   3.457   3.276  1.0386 -0.8395  1.5082
 1000MOL0     H31993   8.796   3.618   3.336 -3.0843 -0.7161  1.1215
 1000MOL0     H31994   8.964   3.543   3.530  2.5146  0.3686 -0.2985
 1000MOL0     H31995   9.007   3.627   3.380  2.9742 -0.3223  1.2661
 1000MOL0     H31996   9.047   3.406   3.272 -0.5651 -1.0143 -0.0017
 1000MOL0     H31997   9.162   3.444   3.387  0.4284  0.1177 -1.7620
 1000MOL0     H31998   8.947   3.092   3.529  0.9704 -1.4663 -0.8298
 1000MOL0     H31999   8.364   3.430   3.285 -2.4996  1.8473  0.2501
 1000MOL0     H32000   8.150   3.379   3.390 -0.8546 -0.1433 -0.1179
 1001MOL0     O32001  10.548   7.829  10.069  0.7194 -0.6569 -0.6486
 1001MOL0     C32002  10.654   7.853  10.130  0.6400 -0.4901  0.1062
 1001MOL0     O32003  10.663   7.947  10.236  0.1348 -0.2626 -0.9622
 1001MOL0     C32004  10.540   7.998  10.278  0.4404  0.0615  0.0181
 1001MOL0     C32005  10.459   7.933  10.366  0.0703 -0.0057 -0.4819
 1001MOL0     C32006  10.330   7.981  10.394 -0.6238 -0.3185 -0.3264
 1001MOL0     C32007  10.288   8.102  10.339  0.1266  0.1988 -0.9199
 1001MOL0     O32008  10.164   8.157  10.354  0.7304  0.7716  0.2697
 1001MOL0     C32009  10.055   8.068  10.380  0.6718 -0.1894  0.4585
 1001MOL0     C32010   9.925   8.112  10.312 -0.4209 -0.2441 -0.6728
 1001MOL0     C32011   9.810   8.133  10.418 -0.4775 -0.8389 -1.1196
 1001MOL0     C32012   9.681   8.180  10.350 -0.4511  0.0160 -0.3991
 1001MOL0     C32013   9.568   8.174  10.447  0.7269 -0.2130 -0.9184
 1001MOL0     C32014   9.435   8.212  10.380 -0.3369  0.5690  0.1775
 1001MOL0     C32015   9.319   8.211  10.477 -0.1934 -0.6076  0.2282
 1001MOL0     C32016   9.189   8.250  10.414 -0.4142  0.6105 -0.3744
 1001MOL0     N32017   9.075   8.237  10.506 -0.0166 -0.4700 -0.3737
 1001MOL0     C32018   8.961   8.314  10.486  0.0037  0.0047 -0.2213
 1001MOL0     C32019   8.863   8.250  10.556 -0.6003 -0.5296 -0.6288
 1001MOL0     C32020   8.721   8.297  10.558  0.7145  0.0852 -0.1255
 1001MOL0     C32021   8.627   8.210  10.641 -0.7332 -0.5053  0.1808
 1001MOL0     C32022   8.654   8.193  10.791 -0.2244 -0.2559 -0.7787
 1001MOL0     C32023   8.537   8.123  10.842  0.3550  0.2186 -0.6602
 1001MOL0     O32024   8.416   8.207  10.839 -0.4825 -0.0391  0.0026
 1001MOL0     C32025   8.290   8.154  10.842  0.4179 -0.4261 -0.4902
 1001MOL0     C32026   8.263   8.023  10.876 -0.5128  0.7028  0.7012
 1001MOL0     C32027   8.132   7.971  10.879 -0.4553 -0.0929  0.2965
 1001MOL0     C32028   8.023   8.063  10.844 -1.1122 -0.1605  0.1496
 1001MOL0     C32029   7.877   8.027  10.844 -0.5065 -0.1172 -0.3719
 1001MOL0     O32030   7.776   8.115  10.797  0.0402 -0.6407  0.0244
 1001MOL0     C32031   7.642   8.099  10.809  0.0741  0.4454 -1.0035
 1001MOL0     C32032   7.552   8.179  10.737 -0.4706 -0.1706 -0.8676
 1001MOL0     C32033   7.414   8.183  10.764 -0.0478 -0.4702 -0.1629
 1001MOL0     C32034   7.357   8.104  10.863 -0.1064  0.3604 -0.2125
 1001MOL0     O32035   7.224   8.111  10.870  0.3053  0.2911  0.4533
 1001MOL0     C32036   7.154   7.986  10.911 -0.1361  0.0379 -0.0119
 1001MOL0     C32037   7.000   7.998  10.858 -0.2489 -0.0915 -0.1171
 1001MOL0     C32038   6.948   8.125  10.921  0.2444 -0.0259  0.3184
 1001MOL0     C32039   6.802   8.149  10.873  0.4922  0.0166  0.4742
 1001MOL0     C32040   6.734   8.256  10.957 -0.7004 -0.4491  0.0547
 1001MOL0     C32041   6.606   8.304  10.891 -0.2199  0.0303 -0.3860
 1001MOL0     C32042   6.485   8.210  10.905  0.7884  0.4557  0.2239
 1001MOL0     C32043   6.375   8.256  10.807 -0.2044  0.2356  0.0738
 1001MOL0    Cl32044   6.407   8.183  10.653 -0.2447 -0.1349 -0.7511
 1001MOL0     C32045   7.444   8.021  10.941  0.2861 -0.8419  0.5013
 1001MOL0     C32046   7.581   8.023  10.914 -0.0798 -0.2191  0.1518
 1001MOL0     O32047   7.862   7.915  10.896 -0.1323 -0.1494  0.6281
 1001MOL0     C32048   8.057   8.199  10.817  0.4060 -0.3048 -0.5167
 1001MOL0     C32049   8.187   8.244  10.820 -0.3231  0.7033  0.1707
 1001MOL0     N32050   8.926   8.137  10.615 -0.4080 -0.6053 -0.2260
 1001MOL0     N32051   9.054   8.132  10.585  0.2920  0.0853  0.2612
 1001MOL0     C32052  10.378   8.170  10.254  0.9430  0.5534  0.1375
 1001MOL0     C32053  10.500   8.115  10.221  0.0143  0.2925  0.1080
 1001MOL0     C32054  10.776   7.788  10.095 -0.6520 -0.3564  0.0074
 1001MOL0     C32055  10.899   7.820  10.164 -0.3886 -0.3674 -0.2236
 1001MOL0     C32056  11.014   7.741  10.148  0.7432  0.2343 -0.5671
 1001MOL0     C32057  11.025   7.640  10.052  0.4506 -0.3376 -0.3500
 1001MOL0     O32058  11.135   7.565  10.027 -0.0072 -0.2261  0.0011
 1001MOL0     C32059  11.266   7.607  10.077  0.7269  0.1372  0.1547
 1001MOL0     C32060  11.366   7.536   9.995  0.5453 -0.1326 -0.6371
 1001MOL0     C32061  11.505   7.586  10.038  0.2598 -0.1065  0.8457
 1001MOL0     C32062  11.545   7.536  10.176 -0.0678  0.7111  0.4944
 1001MOL0     C32063  11.688   7.530  10.207 -0.0981  0.3193 -0.2919
 1001MOL0     C32064  11.806   7.519  10.226 -0.7347  0.3074  0.8870
 1001MOL0     C32065  10.909   7.613   9.970  0.0241  0.0660 -1.0158
 1001MOL0     C32066  10.795   7.685   9.995 -0.1362  1.1517 -0.0448
 1001MOL0     H32067  10.494   7.838  10.405  1.9637  0.3521 -1.2155
 1001MOL0     H32068  10.266   7.929  10.464  0.8988  1.1113  2.2982
 1001MOL0     H32069  10.031   8.075  10.486  0.4526  0.6709  0.3638
 1001MOL0     H32070  10.080   7.967  10.348 -1.2800 -0.6197  0.1746
 1001MOL0     H32071   9.899   8.033  10.240  2.2095 -0.0453 -1.9653
 1001MOL0     H32072   9.936   8.209  10.263 -1.7850 -0.4225 -1.3850
 1001MOL0     H32073   9.851   8.215  10.478 -2.6592  0.4278 -1.2593
 1001MOL0     H32074   9.791   8.045  10.480 -1.7500 -0.0052 -0.2865
 1001MOL0     H32075   9.702   8.281  10.313  1.3246  0.1239  0.8022
 1001MOL0     H32076   9.672   8.105  10.270  0.5183 -0.2080 -0.3062
 1001MOL0     H32077   9.582   8.252  10.522  1.4094 -0.4577 -0.7818
 1001MOL0     H32078   9.561   8.076  10.496  2.1779 -1.9290 -3.8170
 1001MOL0     H32079   9.413   8.138  10.304  2.1642 -1.4235  1.2377
 1001MOL0     H32080   9.463   8.308  10.335  0.7155  0.7051  1.0722
 1001MOL0     H32081   9.305   8.110  10.516 -1.9038 -0.7230 -0.5617
 1001MOL0     H32082   9.338   8.279  10.561 -1.9962  0.6837 -0.3454
 1001MOL0     H32083   9.176   8.174  10.336 -2.5167  0.0663  0.4529
 1001MOL0     H32084   9.199   8.347  10.364  0.3712 -0.1422 -1.7270
 1001MOL0     H32085   8.948   8.405  10.427 -1.6977  0.7145  1.1660
 1001MOL0     H32086   8.683   8.300  10.456 -0.7490  1.5290  0.4291
 1001MOL0     H32087   8.723   8.398  10.599  2.1771  1.1721 -2.6213
 1001MOL0     H32088   8.627   8.108  10.601 -0.8872 -0.2420 -0.5057
 1001MOL0     H32089   8.528   8.255  10.627 -0.1887  0.1343 -2.2611
 1001MOL0     H32090   8.747   8.136  10.807 -0.3589 -0.8052 -1.8336
 1001MOL0     H32091   8.662   8.287  10.846 -0.1605 -1.0376  0.5994
 1001MOL0     H32092   8.555   8.091  10.946  0.1015 -0.8278 -0.9225
 1001MOL0     H32093   8.532   8.028  10.788  3.1966 -1.4066  1.6070
 1001MOL0     H32094   8.341   7.951  10.898 -1.8639 -0.9626  0.2656
 1001MOL0     H32095   8.113   7.865  10.890 -1.1782 -0.5208 -3.5312
 1001MOL0     H32096   7.589   8.249  10.663 -2.1600 -0.8141 -2.4129
 1001MOL0     H32097   7.344   8.252  10.717  1.5549  0.6167 -1.0782
 1001MOL0     H32098   7.158   7.980  11.020  1.5476  1.2247  0.0284
 1001MOL0     H32099   7.212   7.905  10.866  0.1008 -1.0086  2.0468
 1001MOL0     H32100   6.942   7.910  10.887  1.8512 -1.4652  0.1584
 1001MOL0     H32101   6.998   8.003  10.749 -0.6669  0.8499 -0.0718
 1001MOL0     H32102   7.001   8.212  10.883 -0.2256 -0.4208 -1.3133
 1001MOL0     H32103   6.960   8.120  11.030 -1.9696  0.8665  0.6607
 1001MOL0     H32104   6.806   8.184  10.770  0.4698  0.3831  0.5969
 1001MOL0     H32105   6.747   8.055  10.887  0.0873  0.1514 -0.1801
 1001MOL0     H32106   6.803   8.338  10.980  1.7345 -2.2295 -0.4942
 1001MOL0     H32107   6.707   8.205  11.050  2.9920 -0.9096  1.0600
 1001MOL0     H32108   6.621   8.323  10.784 -0.9642 -3.8876 -1.3228
 1001MOL0     H32109   6.566   8.395  10.937 -1.3934 -0.6795  0.0344
 1001MOL0     H32110   6.516   8.109  10.876  1.3057  0.9319 -0.9517
 1001MOL0     H32111   6.435   8.218  11.002 -2.5142 -0.6388 -1.2310
 1001MOL0     H32112   6.373   8.365  10.809  0.6122  0.2758  2.6050
 1001MOL0     H32113   6.276   8.217  10.830 -0.0698  0.5670  1.2708
 1001MOL0     H32114   7.402   7.963  11.022 -3.0844  2.9383  1.7920
 1001MOL0     H32115   7.650   7.967  10.977 -1.8209 -0.8831  1.5714
 1001MOL0     H32116   7.984   8.271  10.782  0.7432 -1.5015 -4.1323
 1001MOL0     H32117   8.208   8.348  10.799 -1.5922  0.6075 -1.8965
 1001MOL0     H32118  10.347   8.264  10.210  0.7577 -0.3095 -1.6912
 1001MOL0     H32119  10.568   8.171  10.157  1.7965 -1.5814  0.2704
 1001MOL0     H32120  10.899   7.893  10.244 -1.0018 -2.2523  1.5755
 1001MOL0     H32121  11.102   7.766  10.207  1.2837  1.7193 -1.9193
 1001MOL0     H32122  11.271   7.585  10.184 -1.1503  1.6077  0.6013
 1001MOL0     H32123  11.277   7.714  10.059 -0.4396  0.4436  1.1046
 1001MOL0     H32124  11.354   7.427   9.996  1.0247 -0.1771  0.1578
 1001MOL0     H32125  11.343   7.574   9.895 -1.3307 -1.8687 -0.9468
 1001MOL0     H32126  11.490   7.694  10.039  2.0193  0.3074 -2.1985
 1001MOL0     H32127  11.584   7.565   9.965  0.0827 -1.1301  0.9341
 1001MOL0     H32128  11.486   7.592  10.249 -0.8414 -1.0741  1.3070
 1001MOL0     H32129  11.504   7.435  10.175 -0.4853  0.8245 -2.4044
 1001MOL0     H32130  11.913   7.516  10.237 -0.5934 -1.6232 -0.5550
 1001MOL0     H32131  10.917   7.538   9.892  2.0983 -2.3452  1.3431
 1001MOL0     H32132  10.712   7.660   9.930  0.5185  0.1327 -0.5288
 1002MOL0     O32133   5.099   7.091   0.472 -0.2509  0.6576  0.1042
 1002MOL0     C32134   5.179   7.031   0.541  0.6465 -0.4066 -0.3829
 1002MOL0     O32135   5.147   6.973   0.661 -0.7187  0.1669 -0.4007
 1002MOL0     C32136   5.025   6.975   0.714 -0.2722  0.5638 -0.0367
 1002MOL0     C32137   5.005   7.020   0.847  0.9897  0.8225 -0.1573
 1002MOL0     C32138   4.873   7.011   0.910 -0.0733  0.3198 -0.0019
 1002MOL0     C32139   4.765   6.975   0.829  0.2637 -0.5086 -0.3165
 1002MOL0     O32140   4.644   6.980   0.894 -0.2283 -0.6663 -0.0199
 1002MOL0     C32141   4.517   6.940   0.823 -0.1067 -0.4712  0.3143
 1002MOL0     C32142   4.402   6.985   0.910  1.1537 -0.2173 -0.2810
 1002MOL0     C32143   4.387   6.917   1.047  0.5057 -0.1511  0.0061
 1002MOL0     C32144   4.238   6.912   1.083 -0.1570  0.2847  0.5923
 1002MOL0     C32145   4.220   6.891   1.239  0.1368 -0.5498  0.0488
 1002MOL0     C32146   4.074   6.875   1.283  0.4156 -0.5625  0.1847
 1002MOL0     C32147   4.072   6.821   1.423 -1.1082 -0.5157  0.2289
 1002MOL0     C32148   3.934   6.786   1.474 -0.2338  0.4906 -0.1318
 1002MOL0     N32149   3.859   6.906   1.501  0.2295 -0.5961 -0.1384
 1002MOL0     C32150   3.882   7.001   1.602 -0.1797 -0.4802  0.0371
 1002MOL0     C32151   3.783   7.094   1.580  0.0279 -0.4812  0.2847
 1002MOL0     C32152   3.761   7.216   1.660 -0.2757  0.7036  0.1452
 1002MOL0     C32153   3.843   7.324   1.585  0.8536 -0.1789  0.1835
 1002MOL0     C32154   3.762   7.404   1.472 -0.3818  0.2211 -0.3361
 1002MOL0     C32155   3.667   7.500   1.540 -0.8711 -0.0009 -0.3305
 1002MOL0     O32156   3.574   7.573   1.462 -0.5363 -0.4323 -0.5820
 1002MOL0     C32157   3.457   7.514   1.415  0.1179 -0.0566 -0.8232
 1002MOL0     C32158   3.414   7.385   1.454  1.1576  0.2645  0.8924
 1002MOL0     C32159   3.286   7.349   1.411  0.8459  0.2343 -0.7177
 1002MOL0     C32160   3.194   7.437   1.351  0.1256 -0.8598  0.1242
 1002MOL0     C32161   3.052   7.401   1.328 -0.2767  0.2409  0.3587
 1002MOL0     O32162   2.963   7.505   1.315  0.2951 -0.4038  1.1778
 1002MOL0     C32163   2.827   7.485   1.310 -0.2423  0.4253  0.2003
 1002MOL0     C32164   2.762   7.381   1.374  0.5227 -0.4334 -0.3804
 1002MOL0     C32165   2.625   7.381   1.381 -0.2068 -0.5440  0.1138
 1002MOL0     C32166   2.535   7.463   1.312 -0.7012  0.4443 -0.7330
 1002MOL0     O32167   2.399   7.439   1.317 -0.7329  0.1298 -0.6162
 1002MOL0     C32168   2.307   7.518   1.247  0.3914 -0.4856 -0.0969
 1002MOL0     C32169   2.167   7.468   1.288  0.4803  0.4846  0.5003
 1002MOL0     C32170   2.055   7.573   1.307  0.4365 -0.1602  0.7656
 1002MOL0     C32171   1.958   7.503   1.408 -0.1355  0.0990 -0.4309
 1002MOL0     C32172   1.825   7.578   1.416 -0.4253  0.6025 -0.4093
 1002MOL0     C32173   1.736   7.511   1.531 -0.0611  0.0764 -0.0943
 1002MOL0     C32174   1.600   7.579   1.524 -0.2693 -0.1224  0.4444
 1002MOL0     C32175   1.483   7.519   1.608 -0.9751 -0.2401 -0.0307
 1002MOL0    Cl32176   1.477   7.585   1.772 -0.2169  0.0670 -0.0881
 1002MOL0     C32177   2.601   7.567   1.244  0.1352 -0.9921  0.1643
 1002MOL0     C32178   2.746   7.576   1.243  0.1038  0.3380 -0.8324
 1002MOL0     O32179   3.022   7.281   1.319 -0.2607  0.0906 -0.2323
 1002MOL0     C32180   3.248   7.563   1.308 -0.7623  0.6155 -0.5502
 1002MOL0     C32181   3.374   7.603   1.342 -0.3370  0.4042 -0.3412
 1002MOL0     N32182   3.710   7.063   1.464  0.0508 -0.4742  0.0686
 1002MOL0     N32183   3.750   6.952   1.425 -0.4898  0.0835 -0.0095
 1002MOL0     C32184   4.793   6.934   0.697 -1.0135  0.1957 -0.2714
 1002MOL0     C32185   4.920   6.930   0.645 -0.2026 -0.0469 -0.5389
 1002MOL0     C32186   5.319   7.040   0.500 -0.3662  0.5511  0.0355
 1002MOL0     C32187   5.355   7.091   0.379 -0.4281 -0.0543  0.1625
 1002MOL0     C32188   5.493   7.088   0.338  0.0078 -0.8205 -0.2793
 1002MOL0     C32189   5.590   7.029   0.425  0.2678  0.4441  0.0827
 1002MOL0     O32190   5.726   7.020   0.386 -0.4846  0.1637 -0.0750
 1002MOL0     C32191   5.793   7.138   0.326  1.1569 -0.1542 -0.5219
 1002MOL0     C32192   5.927   7.182   0.387 -0.3734  0.5176  0.4234
 1002MOL0     C32193   5.912   7.208   0.539 -0.0958 -0.1108  0.1970
 1002MOL0     C32194   6.022   7.284   0.594  0.0052  0.0038 -0.7138
 1002MOL0     C32195   6.148   7.223   0.582  0.5286  0.2856  0.1638
 1002MOL0     C32196   6.251   7.159   0.563  0.2783 -0.2127  0.1421
 1002MOL0     C32197   5.544   6.970   0.544  0.2029  0.4334  0.1987
 1002MOL0     C32198   5.409   6.981   0.581 -0.2299  0.1878 -0.4592
 1002MOL0     H32199   5.092   7.056   0.900  1.1690 -0.4842  0.4682
 1002MOL0     H32200   4.859   7.034   1.015  0.8819  1.2222 -0.0653
 1002MOL0     H32201   4.495   6.834   0.807 -2.1217  0.1951 -1.9200
 1002MOL0     H32202   4.518   6.997   0.730  0.6389 -1.0081 -0.0126
 1002MOL0     H32203   4.320   6.959   0.843  2.7126 -1.1154 -1.9282
 1002MOL0     H32204   4.396   7.093   0.925  1.6958 -0.4841  2.3693
 1002MOL0     H32205   4.444   6.971   1.124 -4.3668  2.2871  2.3742
 1002MOL0     H32206   4.410   6.812   1.029  0.4375 -0.4317  1.3921
 1002MOL0     H32207   4.194   7.006   1.052 -3.4024 -1.2595  0.1230
 1002MOL0     H32208   4.184   6.835   1.027 -2.7136  3.4990 -1.6887
 1002MOL0     H32209   4.252   6.979   1.295 -0.8981  1.1869 -1.9625
 1002MOL0     H32210   4.275   6.800   1.266  0.7981 -1.1140 -2.9112
 1002MOL0     H32211   4.027   6.800   1.219  1.6512 -1.0171 -0.2244
 1002MOL0     H32212   4.022   6.967   1.255  0.5190 -1.1713 -2.2348
 1002MOL0     H32213   4.136   6.732   1.428 -2.3600 -1.4748 -0.3631
 1002MOL0     H32214   4.109   6.895   1.494  2.0383 -0.1873 -1.5699
 1002MOL0     H32215   3.950   6.725   1.563  0.2766 -0.6468 -0.9880
 1002MOL0     H32216   3.878   6.732   1.398  1.0060 -0.1036 -0.6604
 1002MOL0     H32217   3.960   7.005   1.678  2.1137 -2.9542 -1.9972
 1002MOL0     H32218   3.806   7.195   1.758  1.0300 -0.3362 -0.6462
 1002MOL0     H32219   3.657   7.248   1.670  0.8348  5.3556 -0.8605
 1002MOL0     H32220   3.927   7.276   1.534 -1.8396  0.1443 -5.2772
 1002MOL0     H32221   3.877   7.401   1.656  0.5708 -0.9633  1.1935
 1002MOL0     H32222   3.833   7.456   1.407  1.2728 -0.2612  1.0337
 1002MOL0     H32223   3.710   7.334   1.405 -1.0007  2.9239 -2.9045
 1002MOL0     H32224   3.722   7.581   1.589 -1.9002  0.7654 -0.3975
 1002MOL0     H32225   3.615   7.442   1.617  1.3334 -2.8461 -0.8204
 1002MOL0     H32226   3.484   7.336   1.522  0.6215  1.6054  2.4643
 1002MOL0     H32227   3.265   7.251   1.453  3.2105  0.0174  0.1515
 1002MOL0     H32228   2.823   7.305   1.423  3.2055  1.5837 -0.3986
 1002MOL0     H32229   2.589   7.296   1.439  2.0300 -2.6233 -1.3563
 1002MOL0     H32230   2.312   7.504   1.139 -1.5838 -0.6658 -0.1951
 1002MOL0     H32231   2.314   7.623   1.277 -2.5648 -0.5133  1.0137
 1002MOL0     H32232   2.178   7.404   1.376  0.2645 -0.2109  0.0294
 1002MOL0     H32233   2.141   7.399   1.206  4.5486  1.3662 -1.8027
 1002MOL0     H32234   1.998   7.570   1.214 -0.1245  1.6396  1.0228
 1002MOL0     H32235   2.089   7.671   1.340  0.3855 -0.3616  1.4296
 1002MOL0     H32236   1.944   7.397   1.387  0.7668 -0.1872  0.3619
 1002MOL0     H32237   2.005   7.513   1.506 -1.7443 -1.7075  0.5916
 1002MOL0     H32238   1.777   7.548   1.323 -1.5793 -1.3385  0.7484
 1002MOL0     H32239   1.837   7.687   1.424  1.9945  0.2686  3.0927
 1002MOL0     H32240   1.772   7.538   1.631 -3.5798  3.8479  0.4382
 1002MOL0     H32241   1.732   7.403   1.521 -1.0635 -0.1179  1.8605
 1002MOL0     H32242   1.616   7.686   1.539  0.6372 -0.2560  0.4643
 1002MOL0     H32243   1.569   7.566   1.419  0.5673  1.5440 -0.0361
 1002MOL0     H32244   1.502   7.411   1.609  2.2567  0.1950 -1.2228
 1002MOL0     H32245   1.385   7.530   1.562 -0.5529 -0.2241 -0.9416
 1002MOL0     H32246   2.549   7.644   1.189 -0.6024 -0.6899  1.2391
 1002MOL0     H32247   2.796   7.649   1.181  0.3004  1.5478  0.6842
 1002MOL0     H32248   3.188   7.632   1.248 -2.2931 -0.2310 -0.0541
 1002MOL0     H32249   3.407   7.697   1.298 -0.9202 -0.2221 -2.2226
 1002MOL0     H32250   4.703   6.906   0.643 -0.7493  1.8332 -1.6318
 1002MOL0     H32251   4.932   6.899   0.542 -2.8183  0.5449 -1.0998
 1002MOL0     H32252   5.276   7.118   0.309  2.2569 -0.1246 -3.2059
 1002MOL0     H32253   5.526   7.128   0.243  1.4125 -3.0188 -0.8168
 1002MOL0     H32254   5.733   7.230   0.327  1.8001  0.2979  1.2806
 1002MOL0     H32255   5.814   7.113   0.222  0.9028  1.4041 -0.9778
 1002MOL0     H32256   5.999   7.103   0.362 -1.7715 -0.5387 -0.3903
 1002MOL0     H32257   5.968   7.269   0.335 -1.2751  0.1614 -0.9347
 1002MOL0     H32258   5.908   7.112   0.591  2.0729  0.5482  1.7397
 1002MOL0     H32259   5.820   7.266   0.551 -0.6445 -0.9284 -0.0214
 1002MOL0     H32260   6.019   7.378   0.539 -0.0303  1.6954  1.9772
 1002MOL0     H32261   6.018   7.300   0.702  3.7203 -2.4411 -0.0336
 1002MOL0     H32262   6.344   7.108   0.553 -0.6760 -2.4336  1.7463
 1002MOL0     H32263   5.622   6.922   0.603  0.3835  0.3148 -0.1332
 1002MOL0     H32264   5.388   6.944   0.681 -2.5209  1.9439 -0.2148
 1003MOL0     O32265   1.670   8.432   0.377  0.1814  0.1488 -0.1617
 1003MOL0     C32266   1.614   8.473   0.272  0.3785  0.1222  0.1375
 1003MOL0     O32267   1.671   8.522   0.160 -0.0550  0.2026 -0.5864
 1003MOL0     C32268   1.809   8.537   0.157 -0.6332 -0.7232  0.4461
 1003MOL0     C32269   1.883   8.512   0.041  0.9746 -0.4137  0.8118
 1003MOL0     C32270   2.019   8.514   0.045  0.4847  0.3466 -0.2608
 1003MOL0     C32271   2.089   8.557   0.156  0.6101 -0.0173  0.5146
 1003MOL0     O32272   2.228   8.557   0.156 -0.3903 -0.1930  0.7025
 1003MOL0     C32273   2.289   8.676   0.201  0.1818 -0.3117  0.1565
 1003MOL0     C32274   2.439   8.672   0.187 -0.1933 -0.7430 -0.8820
 1003MOL0     C32275   2.500   8.750   0.066  0.6697  0.0525 -0.2306
 1003MOL0     C32276   2.654   8.754   0.066  0.0641  0.7823  0.0930
 1003MOL0     C32277   2.700   8.855  -0.044  0.5074 -0.1958  0.6552
 1003MOL0     C32278   2.850   8.851  -0.045 -0.3809 -0.3634 -0.1764
 1003MOL0     C32279   2.900   8.944  -0.152 -0.6256 -0.3834  0.1449
 1003MOL0     C32280   3.050   8.967  -0.146  0.0577 -0.3323  0.2854
 1003MOL0     N32281   3.129   8.857  -0.214 -0.1160  0.3598 -0.2462
 1003MOL0     C32282   3.174   8.746  -0.151 -0.2573  0.8273  0.0176
 1003MOL0     C32283   3.237   8.672  -0.242 -1.0412  0.6611  0.1012
 1003MOL0     C32284   3.288   8.538  -0.211 -0.8888 -0.5709 -0.3863
 1003MOL0     C32285   3.185   8.431  -0.178  0.3561  0.0851  0.2179
 1003MOL0     C32286   3.099   8.385  -0.290  0.2270  0.3511 -0.4887
 1003MOL0     C32287   3.019   8.485  -0.369 -0.1088 -0.2188  0.0460
 1003MOL0     O32288   2.917   8.435  -0.445 -0.0862 -0.0978 -0.3152
 1003MOL0     C32289   2.788   8.425  -0.392  0.6354  0.4468  0.3398
 1003MOL0     C32290   2.733   8.490  -0.275  0.2478  0.0690 -0.5046
 1003MOL0     C32291   2.602   8.472  -0.231  0.6538 -0.6583  1.1035
 1003MOL0     C32292   2.515   8.390  -0.306  0.0452 -0.9572 -0.2408
 1003MOL0     C32293   2.377   8.365  -0.262 -0.4717 -0.0464 -0.0207
 1003MOL0     O32294   2.289   8.319  -0.349 -0.5522 -0.3240 -0.3383
 1003MOL0     C32295   2.162   8.298  -0.310 -0.0882 -0.9257 -0.8726
 1003MOL0     C32296   2.061   8.390  -0.343  0.2675 -0.5032  0.3591
 1003MOL0     C32297   1.925   8.356  -0.315 -0.0251 -0.5207 -0.3075
 1003MOL0     C32298   1.898   8.247  -0.238 -0.2133  0.1124 -0.6659
 1003MOL0     O32299   1.768   8.217  -0.211  0.2204 -0.0013 -0.1590
 1003MOL0     C32300   1.734   8.149  -0.093  0.2497  0.4560 -0.5697
 1003MOL0     C32301   1.579   8.161  -0.072  0.5556  0.3073 -0.2591
 1003MOL0     C32302   1.539   8.079   0.044  0.4312  0.6798 -0.0284
 1003MOL0     C32303   1.397   8.125   0.088 -0.3346  0.2952  0.0618
 1003MOL0     C32304   1.303   8.015   0.151 -0.4460  0.1876  1.1279
 1003MOL0     C32305   1.169   8.074   0.202 -0.8761  0.2859 -0.0185
 1003MOL0     C32306   1.103   8.000   0.312  0.4651 -0.3441 -0.7475
 1003MOL0     C32307   1.064   7.850   0.301 -0.6037  0.1607 -0.0463
 1003MOL0    Cl32308   0.998   7.770   0.456  0.0715 -0.2209  0.0005
 1003MOL0     C32309   1.997   8.161  -0.196 -0.5743 -0.3872  0.2046
 1003MOL0     C32310   2.129   8.178  -0.236 -0.2865 -1.0390  0.0584
 1003MOL0     O32311   2.360   8.386  -0.140 -0.1352 -0.1215  0.0382
 1003MOL0     C32312   2.557   8.342  -0.431 -0.7963  0.1958  0.0754
 1003MOL0     C32313   2.691   8.361  -0.474  0.1606  0.4117  0.6549
 1003MOL0     N32314   3.242   8.739  -0.362  0.0872 -0.6607  0.4149
 1003MOL0     N32315   3.177   8.853  -0.339 -0.6843 -0.0463  0.3077
 1003MOL0     C32316   2.014   8.612   0.268 -0.0832 -0.2968 -0.0390
 1003MOL0     C32317   1.880   8.596   0.265  0.1239 -0.4415  0.1695
 1003MOL0     C32318   1.464   8.465   0.272 -0.1176  0.2948 -0.4463
 1003MOL0     C32319   1.396   8.415   0.380 -0.7752 -0.0174 -0.0707
 1003MOL0     C32320   1.252   8.429   0.393  0.2950  0.6414  0.2795
 1003MOL0     C32321   1.183   8.491   0.293  0.1179 -0.4264 -0.2969
 1003MOL0     O32322   1.051   8.514   0.315 -0.3578  0.3012  0.5780
 1003MOL0     C32323   0.963   8.465   0.217  0.3214  0.0696 -0.1871
 1003MOL0     C32324   0.895   8.338   0.263  0.4076 -0.2060 -0.7090
 1003MOL0     C32325   0.797   8.353   0.387 -0.1009  0.1906  0.1104
 1003MOL0     C32326   0.878   8.357   0.514  0.1652  0.1635 -0.2835
 1003MOL0     C32327   0.927   8.230   0.558  0.2402  0.2278 -0.3039
 1003MOL0     C32328   0.960   8.123   0.607 -0.4736  0.2420 -0.0723
 1003MOL0     C32329   1.251   8.518   0.168 -0.0045 -0.1677  0.4469
 1003MOL0     C32330   1.394   8.505   0.161  0.4788 -0.0406  0.4329
 1003MOL0     H32331   1.842   8.477  -0.054 -0.2719 -1.4482  1.6922
 1003MOL0     H32332   2.064   8.464  -0.040 -1.6744 -1.1409 -0.5934
 1003MOL0     H32333   2.257   8.698   0.303  0.4633  1.3546 -0.0942
 1003MOL0     H32334   2.257   8.765   0.146  1.0579 -0.0615  0.0407
 1003MOL0     H32335   2.479   8.571   0.180 -0.4667 -0.7948 -1.8470
 1003MOL0     H32336   2.483   8.720   0.275  1.2525 -1.1985 -1.3330
 1003MOL0     H32337   2.462   8.851   0.083  2.0617  0.9405 -2.0480
 1003MOL0     H32338   2.465   8.719  -0.032  1.5361  0.0082 -0.5337
 1003MOL0     H32339   2.681   8.790   0.166 -1.1333  1.3467  0.2418
 1003MOL0     H32340   2.699   8.658   0.042 -1.0679  0.9853 -3.4134
 1003MOL0     H32341   2.679   8.955  -0.006  0.8879  0.2030 -0.1594
 1003MOL0     H32342   2.646   8.840  -0.138  0.5762  2.2691  0.1375
 1003MOL0     H32343   2.879   8.749  -0.068  2.5285 -0.0674  1.6795
 1003MOL0     H32344   2.901   8.868   0.050 -0.0807  1.8104 -0.6791
 1003MOL0     H32345   2.868   8.892  -0.244 -2.8502 -2.3880  1.9002
 1003MOL0     H32346   2.846   9.038  -0.141 -4.3565 -2.2798  0.0778
 1003MOL0     H32347   3.095   8.995  -0.050  2.2827 -2.2016 -0.1316
 1003MOL0     H32348   3.061   9.058  -0.206 -0.3246 -0.5119 -0.0656
 1003MOL0     H32349   3.141   8.726  -0.049 -3.0737  0.2400 -0.9336
 1003MOL0     H32350   3.361   8.553  -0.131 -1.2984  1.9100 -0.4177
 1003MOL0     H32351   3.344   8.502  -0.298  2.0089 -1.9220  1.8777
 1003MOL0     H32352   3.119   8.462  -0.097 -0.1740 -2.0543  0.6543
 1003MOL0     H32353   3.230   8.340  -0.139 -0.3752 -0.6148 -0.5366
 1003MOL0     H32354   3.160   8.326  -0.360  1.7412  0.0369  1.0391
 1003MOL0     H32355   3.044   8.308  -0.235  3.3663 -2.3932 -0.8783
 1003MOL0     H32356   3.082   8.542  -0.438 -0.4400  0.3487  0.2089
 1003MOL0     H32357   2.989   8.560  -0.295  0.4797 -0.0211  0.0961
 1003MOL0     H32358   2.790   8.553  -0.208 -1.9225  2.4263 -0.7201
 1003MOL0     H32359   2.566   8.527  -0.145  0.1554  0.5226  0.1629
 1003MOL0     H32360   2.085   8.472  -0.410  0.9644 -2.2859 -1.7239
 1003MOL0     H32361   1.840   8.415  -0.344  0.2914  0.1071  0.0119
 1003MOL0     H32362   1.793   8.191  -0.011 -0.3760  1.1472 -0.4607
 1003MOL0     H32363   1.765   8.045  -0.102  2.0452  1.0671 -2.0206
 1003MOL0     H32364   1.524   8.137  -0.164  0.9821  2.5139 -1.1428
 1003MOL0     H32365   1.553   8.266  -0.057 -1.3980  0.1139 -1.8438
 1003MOL0     H32366   1.609   8.084   0.127 -1.4781 -0.8106  1.7798
 1003MOL0     H32367   1.531   7.977   0.004 -0.7087  0.6754  0.1762
 1003MOL0     H32368   1.414   8.211   0.153  0.4126  0.5744 -0.4951
 1003MOL0     H32369   1.344   8.161  -0.000 -1.0847 -2.0531 -0.5183
 1003MOL0     H32370   1.359   7.975   0.236  0.4064  2.3042  1.6307
 1003MOL0     H32371   1.280   7.936   0.079  0.5738  1.0699 -0.2140
 1003MOL0     H32372   1.103   8.071   0.114  0.1572 -3.5515 -0.8561
 1003MOL0     H32373   1.202   8.172   0.237  1.3315 -0.3674 -0.1412
 1003MOL0     H32374   1.160   8.010   0.404  0.9664  1.3335 -1.2115
 1003MOL0     H32375   1.014   8.062   0.332  1.9517  1.4806  0.6044
 1003MOL0     H32376   1.152   7.798   0.261 -1.6755 -1.6322 -0.1430
 1003MOL0     H32377   0.986   7.836   0.226 -0.4835 -0.0645 -0.1291
 1003MOL0     H32378   1.984   8.080  -0.124 -1.3260  0.3082  0.8637
 1003MOL0     H32379   2.210   8.107  -0.222  2.3456  1.7825  0.2737
 1003MOL0     H32380   2.494   8.274  -0.486  0.2268  1.5719 -2.9926
 1003MOL0     H32381   2.720   8.320  -0.570 -3.1423 -0.0718 -0.2383
 1003MOL0     H32382   2.059   8.644   0.362  1.3057 -3.0556  0.3356
 1003MOL0     H32383   1.820   8.645   0.341 -1.2623  0.1025 -1.2025
 1003MOL0     H32384   1.444   8.367   0.465 -0.7836 -1.7870 -1.0149
 1003MOL0     H32385   1.203   8.388   0.481 -0.7156 -0.5900 -0.8101
 1003MOL0     H32386   1.015   8.442   0.123 -0.4447  0.2570 -0.6726
 1003MOL0     H32387   0.881   8.535   0.198 -0.3955 -1.4227 -3.2539
 1003MOL0     H32388   0.848   8.281   0.183  2.9188  1.3387 -3.4863
 1003MOL0     H32389   0.975   8.268   0.289 -0.5954 -1.4576 -0.8552
 1003MOL0     H32390   0.734   8.264   0.380 -0.7280  0.6567 -0.2398
 1003MOL0     H32391   0.727   8.437   0.390  0.0188  0.3708  5.1817
 1003MOL0     H32392   0.969   8.418   0.505  0.5907  0.2259  3.2221
 1003MOL0     H32393   0.820   8.392   0.600  0.2509 -2.2468  0.8372
 1003MOL0     H32394   0.971   8.035   0.668  0.4050  0.2427 -0.2116
 1003MOL0     H32395   1.200   8.562   0.083  0.6511  2.3702  1.2724
 1003MOL0     H32396   1.436   8.527   0.064  0.8429  0.1219  0.6259
 1004MOL0     O32397   1.375   1.378   0.201  0.1833 -0.2049  0.1874
 1004MOL0     C32398   1.379   1.255   0.231 -0.1566 -0.1784 -0.3428
 1004MOL0     O32399   1.276   1.169   0.243 -0.0955  0.4556  0.2036
 1004MOL0     C32400   1.145   1.208   0.239 -0.2826 -0.8419 -0.1229
 1004MOL0     C32401   1.102   1.309   0.154 -0.3821 -0.2697 -0.4075
 1004MOL0     C32402   0.968   1.351   0.145  0.3124 -0.4507 -0.1456
 1004MOL0     C32403   0.882   1.289   0.240  0.2901  0.1483 -0.0924
 1004MOL0     O32404   0.745   1.318   0.261  0.1047 -0.3988  0.9068
 1004MOL0     C32405   0.653   1.341   0.155  0.0315  0.7820 -0.0969
 1004MOL0     C32406   0.515   1.372   0.208 -0.6742 -0.9030 -0.6245
 1004MOL0     C32407   0.430   1.388   0.083  0.1178 -0.8096  0.0949
 1004MOL0     C32408   0.432   1.527   0.025 -0.1766  0.7442 -0.0337
 1004MOL0     C32409   0.315   1.549  -0.052  1.1750  0.4323  0.2717
 1004MOL0     C32410   0.288   1.697  -0.090 -0.9474 -0.2382  0.3276
 1004MOL0     C32411   0.175   1.698  -0.198  0.6470 -0.1048  0.8299
 1004MOL0     C32412   0.133   1.843  -0.223 -0.1299 -0.5833 -0.0608
 1004MOL0     N32413   0.037   1.840  -0.333  1.1449 -0.4798  0.2247
 1004MOL0     C32414   0.051   1.774  -0.453  0.3451 -0.2651 -0.8567
 1004MOL0     C32415  -0.071   1.790  -0.518 -0.1928 -0.4268  0.4216
 1004MOL0     C32416  -0.114   1.747  -0.657  1.1072  0.2567 -0.4454
 1004MOL0     C32417  -0.023   1.751  -0.779  0.4893 -0.0774 -0.0124
 1004MOL0     C32418  -0.096   1.750  -0.914 -0.1846 -0.5031 -1.8501
 1004MOL0     C32419   0.016   1.721  -1.014 -0.5312 -0.0654  0.0605
 1004MOL0     O32420  -0.034   1.764  -1.144  0.5265  0.4411 -0.1264
 1004MOL0     C32421   0.049   1.745  -1.254 -0.0049  0.3496 -0.3200
 1004MOL0     C32422   0.010   1.815  -1.361  0.0939 -0.3666 -0.5143
 1004MOL0     C32423   0.099   1.828  -1.471  0.2602  0.1393  0.2343
 1004MOL0     C32424   0.229   1.767  -1.478  0.5211 -0.2193 -0.1711
 1004MOL0     C32425   0.330   1.781  -1.590  0.3366 -0.2774  0.1087
 1004MOL0     O32426   0.429   1.683  -1.603  0.1616 -0.0239 -0.1426
 1004MOL0     C32427   0.478   1.668  -1.732  0.8027  0.2545 -0.0432
 1004MOL0     C32428   0.421   1.572  -1.817  0.3560  0.4651 -0.5303
 1004MOL0     C32429   0.473   1.547  -1.947 -1.0613 -0.5186 -0.5360
 1004MOL0     C32430   0.586   1.624  -1.996  1.1331  0.1964 -0.2341
 1004MOL0     O32431   0.641   1.615  -2.123  0.8915  0.0287 -0.8717
 1004MOL0     C32432   0.536   1.596  -2.226 -0.3218 -0.5046 -0.5951
 1004MOL0     C32433   0.604   1.596  -2.356  0.2053 -0.3017  0.3659
 1004MOL0     C32434   0.668   1.456  -2.378 -0.1734  0.0945  0.4942
 1004MOL0     C32435   0.699   1.420  -2.522 -0.0071  0.3964  0.2918
 1004MOL0     C32436   0.775   1.300  -2.542 -0.8893  0.3077 -0.0363
 1004MOL0     C32437   0.836   1.263  -2.671  0.0816  0.1539 -0.1218
 1004MOL0     C32438   0.916   1.139  -2.643 -0.2332  0.2329 -0.0841
 1004MOL0     C32439   0.964   1.076  -2.767 -0.4142 -0.2142 -0.3287
 1004MOL0    Cl32440   1.106   1.164  -2.833  0.0020 -0.1081 -0.2727
 1004MOL0     C32441   0.643   1.717  -1.906 -0.4079 -0.1939  0.1176
 1004MOL0     C32442   0.594   1.733  -1.779  0.4740 -0.7279  1.3578
 1004MOL0     O32443   0.325   1.877  -1.668  0.6363 -0.4524  0.1573
 1004MOL0     C32444   0.256   1.685  -1.364 -0.8741  0.2210  0.7005
 1004MOL0     C32445   0.170   1.677  -1.257 -0.1629 -0.6295 -0.2649
 1004MOL0     N32446  -0.147   1.871  -0.439 -0.1164 -0.3181  0.5898
 1004MOL0     N32447  -0.077   1.914  -0.338 -0.1792 -0.5990 -0.0259
 1004MOL0     C32448   0.920   1.193   0.330 -0.0318 -0.0943  0.1232
 1004MOL0     C32449   1.055   1.156   0.330  0.6578 -0.1868  0.2422
 1004MOL0     C32450   1.510   1.207   0.251  0.4988 -0.6358  0.7550
 1004MOL0     C32451   1.522   1.075   0.288  0.1407 -0.1077 -0.3229
 1004MOL0     C32452   1.646   1.022   0.314  0.3345  0.5425  0.5699
 1004MOL0     C32453   1.760   1.089   0.303 -1.0616  0.1611  0.5420
 1004MOL0     O32454   1.873   1.009   0.336  0.6199 -0.4371 -1.0098
 1004MOL0     C32455   2.009   1.058   0.313 -0.0237 -0.0290 -0.2545
 1004MOL0     C32456   2.113   1.000   0.410 -0.0178  0.5007  0.9303
 1004MOL0     C32457   2.254   1.008   0.357  0.0502 -0.0557  0.3709
 1004MOL0     C32458   2.348   0.976   0.473 -0.1337  0.4048  0.7903
 1004MOL0     C32459   2.485   0.957   0.426 -0.1444 -0.0817 -0.9400
 1004MOL0     C32460   2.605   0.950   0.394  0.2309 -0.4635  1.0449
 1004MOL0     C32461   1.754   1.217   0.247  0.4866  0.0103  0.0564
 1004MOL0     C32462   1.625   1.280   0.218 -0.8796  0.6527  0.1541
 1004MOL0     H32463   1.175   1.355   0.088 -0.9470  1.0360 -0.1418
 1004MOL0     H32464   0.936   1.422   0.069  2.3146 -0.9570 -1.5557
 1004MOL0     H32465   0.647   1.249   0.096  1.2482  1.3591 -1.1703
 1004MOL0     H32466   0.688   1.420   0.089 -0.2433 -0.9521 -2.4716
 1004MOL0     H32467   0.510   1.469   0.257 -1.3777 -0.6627 -1.1629
 1004MOL0     H32468   0.481   1.292   0.275 -0.0550  0.2831  1.1789
 1004MOL0     H32469   0.330   1.353   0.110 -0.2089  0.6124  0.8476
 1004MOL0     H32470   0.466   1.324   0.003 -0.9637 -0.0375 -1.0490
 1004MOL0     H32471   0.442   1.605   0.101  1.6627  2.2842 -1.7565
 1004MOL0     H32472   0.514   1.539  -0.046 -1.1552  0.5179 -1.2368
 1004MOL0     H32473   0.222   1.518  -0.003  2.9828 -3.1359  1.7975
 1004MOL0     H32474   0.325   1.494  -0.146  1.1027  1.3687 -0.2998
 1004MOL0     H32475   0.381   1.747  -0.118 -0.0238 -2.6845 -1.2500
 1004MOL0     H32476   0.256   1.757  -0.003 -0.3429  1.7435 -0.7528
 1004MOL0     H32477   0.196   1.637  -0.286  2.6667  1.1217  0.4174
 1004MOL0     H32478   0.090   1.636  -0.166 -0.3253  0.2871 -0.8834
 1004MOL0     H32479   0.221   1.897  -0.260 -0.6769  2.1347  2.2663
 1004MOL0     H32480   0.106   1.892  -0.130 -0.0109 -0.5867 -0.0246
 1004MOL0     H32481   0.134   1.715  -0.491  0.1968 -1.2465  0.2627
 1004MOL0     H32482  -0.197   1.812  -0.688  2.0275  1.3701 -0.6664
 1004MOL0     H32483  -0.154   1.646  -0.650  3.6741 -0.9477 -2.1083
 1004MOL0     H32484   0.045   1.666  -0.761 -0.2276 -0.1074  3.2147
 1004MOL0     H32485   0.041   1.838  -0.760  3.1651 -2.2847  2.0662
 1004MOL0     H32486  -0.170   1.669  -0.913  0.2099 -0.8702 -0.2167
 1004MOL0     H32487  -0.142   1.847  -0.932 -1.0680 -0.3509  0.7951
 1004MOL0     H32488   0.045   1.616  -1.021 -0.0697  0.1616 -2.3221
 1004MOL0     H32489   0.109   1.767  -0.980 -1.3736  1.2949  0.6238
 1004MOL0     H32490  -0.081   1.874  -1.356 -1.8781 -2.9995 -2.3348
 1004MOL0     H32491   0.073   1.885  -1.560  0.8415  1.6991  1.0108
 1004MOL0     H32492   0.339   1.514  -1.776  0.6822 -1.5602 -2.5228
 1004MOL0     H32493   0.430   1.474  -2.014  2.4205 -0.7636 -2.7669
 1004MOL0     H32494   0.471   1.683  -2.219  1.2531  0.5964  1.8581
 1004MOL0     H32495   0.478   1.503  -2.218  0.6202 -1.1017 -0.5285
 1004MOL0     H32496   0.682   1.671  -2.368  0.0601 -0.1516  0.3617
 1004MOL0     H32497   0.531   1.619  -2.435 -2.1065 -1.5146  2.0183
 1004MOL0     H32498   0.602   1.375  -2.344  1.4714 -1.9077 -0.8300
 1004MOL0     H32499   0.760   1.461  -2.319  0.1587 -0.5754  0.0472
 1004MOL0     H32500   0.604   1.411  -2.575  1.1505  0.2089 -1.8495
 1004MOL0     H32501   0.748   1.509  -2.562  0.4337 -1.0864 -2.7980
 1004MOL0     H32502   0.699   1.228  -2.509 -2.7746  2.3464  0.3116
 1004MOL0     H32503   0.854   1.293  -2.468  1.2001 -4.3497 -2.3014
 1004MOL0     H32504   0.906   1.336  -2.713 -0.0089  0.7293  0.6935
 1004MOL0     H32505   0.758   1.249  -2.746 -0.4703 -0.2201  0.5157
 1004MOL0     H32506   0.989   1.158  -2.564  1.0983 -1.1326 -0.9468
 1004MOL0     H32507   0.848   1.063  -2.602  0.7868  0.3015  1.8129
 1004MOL0     H32508   0.894   1.071  -2.850  0.6436  2.1323 -1.4593
 1004MOL0     H32509   0.997   0.973  -2.747 -1.1084 -0.2361  0.7876
 1004MOL0     H32510   0.734   1.761  -1.944 -1.3290  1.0662 -0.7360
 1004MOL0     H32511   0.651   1.788  -1.705 -1.1231  0.9639  1.4277
 1004MOL0     H32512   0.343   1.621  -1.370 -1.6954 -0.9347  0.9113
 1004MOL0     H32513   0.204   1.609  -1.179 -1.3100  0.5381  1.3188
 1004MOL0     H32514   0.844   1.161   0.400 -1.1477  1.2172 -0.4292
 1004MOL0     H32515   1.073   1.080   0.405 -0.0155 -3.5197 -2.6975
 1004MOL0     H32516   1.439   1.006   0.289  0.2489 -0.2715 -1.6353
 1004MOL0     H32517   1.661   0.924   0.358  0.7994  0.7446  0.8647
 1004MOL0     H32518   2.012   1.166   0.328  1.3420 -0.2795  1.6128
 1004MOL0     H32519   2.050   1.030   0.215  1.8482  1.9679 -0.1022
 1004MOL0     H32520   2.100   1.054   0.504 -0.5430 -0.1805  1.2602
 1004MOL0     H32521   2.092   0.897   0.442 -0.6651  0.9862  2.1638
 1004MOL0     H32522   2.276   1.112   0.331 -3.3874  0.8685  0.6636
 1004MOL0     H32523   2.262   0.944   0.269 -0.3856  0.4662 -0.0518
 1004MOL0     H32524   2.344   1.053   0.551  1.6763 -1.8736  3.3105
 1004MOL0     H32525   2.312   0.884   0.518 -1.4151 -0.8551 -2.4944
 1004MOL0     H32526   2.710   0.952   0.373 -0.1628  1.2410 -1.0375
 1004MOL0     H32527   1.842   1.279   0.231 -0.3103  1.4974  1.2211
 1004MOL0     H32528   1.612   1.375   0.167 -1.1958 -0.4115 -1.8760
 1005MOL0     O32529   8.225   2.543   9.797  0.3228  0.1259 -0.3213
 1005MOL0     C32530   8.182   2.445   9.735  0.0184 -0.0896 -0.9054
 1005MOL0     O32531   8.077   2.370   9.778  0.0706  0.3037 -0.1346
 1005MOL0     C32532   8.023   2.399   9.899 -0.2523 -0.3221 -0.4727
 1005MOL0     C32533   7.896   2.460   9.901 -1.0322 -0.6487 -0.4530
 1005MOL0     C32534   7.857   2.516  10.024  0.2320  0.6378  0.4362
 1005MOL0     C32535   7.936   2.490  10.145  0.6399  0.2852 -0.0798
 1005MOL0     O32536   7.900   2.511  10.276 -0.1666  0.6565  0.3903
 1005MOL0     C32537   7.758   2.511  10.297  0.0324 -0.1589  0.2741
 1005MOL0     C32538   7.735   2.513  10.447  1.0137  0.1835 -0.3244
 1005MOL0     C32539   7.585   2.527  10.462 -0.0560 -0.6071  0.8879
 1005MOL0     C32540   7.543   2.548  10.605  0.0672 -0.6247  0.1777
 1005MOL0     C32541   7.397   2.581  10.638  0.1359 -0.5648  0.3771
 1005MOL0     C32542   7.381   2.670  10.765  1.2031  0.0724  0.7313
 1005MOL0     C32543   7.236   2.724  10.777  1.0737 -0.2399  0.2819
 1005MOL0     C32544   7.215   2.822  10.896 -0.1347  0.1250 -0.1152
 1005MOL0     N32545   7.072   2.819  10.931  0.4220  0.1863 -0.4373
 1005MOL0     C32546   6.975   2.851  10.853  0.3052 -0.2973  0.0475
 1005MOL0     C32547   6.857   2.801  10.907 -0.5940 -0.1181  0.3376
 1005MOL0     C32548   6.725   2.815  10.842 -1.4463 -0.3540  0.2335
 1005MOL0     C32549   6.654   2.949  10.882  0.0168 -0.3019  0.0071
 1005MOL0     C32550   6.526   2.984  10.801  0.7880  0.3803 -0.7612
 1005MOL0     C32551   6.452   3.106  10.873 -0.3607  0.6392  0.1805
 1005MOL0     O32552   6.348   3.172  10.802 -0.2576 -0.4220  0.1891
 1005MOL0     C32553   6.215   3.139  10.820  0.5148  0.2326  0.5304
 1005MOL0     C32554   6.116   3.233  10.787  0.8673 -0.2829 -0.6421
 1005MOL0     C32555   5.981   3.196  10.798  0.2838  0.1641  0.3274
 1005MOL0     C32556   5.938   3.072  10.836 -0.1979 -0.5178  0.5618
 1005MOL0     C32557   5.797   3.039  10.838  0.3071  0.5710  1.0921
 1005MOL0     O32558   5.766   2.906  10.861  0.0446  0.2624  0.1229
 1005MOL0     C32559   5.636   2.871  10.869 -0.2747  0.9129  0.2197
 1005MOL0     C32560   5.602   2.744  10.824  0.1335 -0.3831 -0.6032
 1005MOL0     C32561   5.468   2.697  10.827  1.1112  0.2358  0.6571
 1005MOL0     C32562   5.368   2.773  10.888 -0.1851 -0.1650 -0.4130
 1005MOL0     O32563   5.241   2.740  10.903 -0.5715  1.0090 -0.4775
 1005MOL0     C32564   5.167   2.746  10.782  1.2049 -0.0178  0.3327
 1005MOL0     C32565   5.019   2.733  10.836 -0.7240 -0.2464 -0.4177
 1005MOL0     C32566   4.916   2.722  10.726  0.3391  0.5359 -0.1306
 1005MOL0     C32567   4.768   2.757  10.779 -0.5258  0.0084  0.2637
 1005MOL0     C32568   4.683   2.771  10.652  0.6041  0.2028 -0.3298
 1005MOL0     C32569   4.655   2.628  10.594  0.1636 -0.1453 -0.9196
 1005MOL0     C32570   4.524   2.616  10.504 -0.5557 -0.4498  0.5468
 1005MOL0     C32571   4.391   2.632  10.579  0.6527  0.3101  0.0803
 1005MOL0    Cl32572   4.257   2.637  10.464 -0.0563 -0.0111 -0.3227
 1005MOL0     C32573   5.402   2.898  10.945 -0.1234  0.3965  0.0356
 1005MOL0     C32574   5.540   2.947  10.937 -0.0319 -0.8073  0.4861
 1005MOL0     O32575   5.722   3.132  10.802  0.5521  0.1131  0.1902
 1005MOL0     C32576   6.039   2.972  10.867  0.2938  0.2961  0.1831
 1005MOL0     C32577   6.171   3.015  10.860 -0.2162 -0.1367  0.0019
 1005MOL0     N32578   6.892   2.730  11.020  0.2176  0.0674  0.1096
 1005MOL0     N32579   7.022   2.736  11.026 -0.0269  0.1800  0.0254
 1005MOL0     C32580   8.056   2.432  10.132  0.3703  0.0733  0.0654
 1005MOL0     C32581   8.104   2.388  10.012  0.6908  0.4595 -0.1236
 1005MOL0     C32582   8.259   2.395   9.613 -0.3007 -1.0377  0.0330
 1005MOL0     C32583   8.230   2.266   9.566 -0.4279 -0.1501 -1.0357
 1005MOL0     C32584   8.309   2.199   9.468  0.6099 -0.2792 -0.0248
 1005MOL0     C32585   8.424   2.267   9.417 -0.1456 -0.2601  0.0510
 1005MOL0     O32586   8.497   2.185   9.331  0.5358  0.0844  0.3406
 1005MOL0     C32587   8.624   2.226   9.275 -0.3739  0.3015  0.0877
 1005MOL0     C32588   8.730   2.187   9.369 -1.0185 -0.4949  0.0496
 1005MOL0     C32589   8.866   2.231   9.316 -0.2128 -1.1394  0.9959
 1005MOL0     C32590   8.985   2.191   9.406 -0.7592 -0.6031 -0.0664
 1005MOL0     C32591   9.100   2.249   9.346  0.2281 -0.8212  0.0384
 1005MOL0     C32592   9.198   2.318   9.312  0.2278  0.9113  0.0706
 1005MOL0     C32593   8.454   2.396   9.460  1.0804 -0.5624  0.4907
 1005MOL0     C32594   8.367   2.459   9.546 -1.2006 -0.1574  0.1781
 1005MOL0     H32595   7.840   2.489   9.813 -1.3935  1.0641  0.3009
 1005MOL0     H32596   7.764   2.571  10.028  0.3540  1.1006 -1.8121
 1005MOL0     H32597   7.713   2.419  10.257  0.4731 -1.8217  3.2909
 1005MOL0     H32598   7.716   2.602  10.253  1.4387 -0.1052 -1.0438
 1005MOL0     H32599   7.793   2.598  10.485  0.8221 -0.3297  1.2040
 1005MOL0     H32600   7.767   2.423  10.501 -1.1393  0.9157  2.4168
 1005MOL0     H32601   7.548   2.431  10.424  1.8315 -1.1423  0.2948
 1005MOL0     H32602   7.537   2.600  10.396 -0.1331 -1.0825  0.4083
 1005MOL0     H32603   7.581   2.466  10.667  2.1672 -1.0486 -1.5165
 1005MOL0     H32604   7.599   2.634  10.643 -1.6194 -0.2963  2.0883
 1005MOL0     H32605   7.340   2.489  10.653 -1.7562  0.2957 -1.0810
 1005MOL0     H32606   7.346   2.619  10.549  0.8200 -2.6497 -0.9644
 1005MOL0     H32607   7.446   2.758  10.768 -1.2058  1.9853  0.2296
 1005MOL0     H32608   7.404   2.604  10.849 -2.2749 -1.3855  0.6694
 1005MOL0     H32609   7.209   2.777  10.686 -0.9195  2.4962  2.2727
 1005MOL0     H32610   7.174   2.635  10.796  0.2985  0.2553  0.1166
 1005MOL0     H32611   7.244   2.923  10.866  0.0138  0.7882  2.0908
 1005MOL0     H32612   7.278   2.786  10.978 -1.1991 -2.9884 -0.5235
 1005MOL0     H32613   6.979   2.916  10.766  1.4045  2.4878  2.0323
 1005MOL0     H32614   6.666   2.730  10.876 -1.0290 -0.0181  1.8944
 1005MOL0     H32615   6.747   2.818  10.735  1.1272  1.0399  0.7138
 1005MOL0     H32616   6.712   3.041  10.875  0.8541 -0.7398  0.8685
 1005MOL0     H32617   6.615   2.937  10.984 -0.8102  1.4327 -0.0719
 1005MOL0     H32618   6.551   3.007  10.697  0.2720 -0.9211 -1.2000
 1005MOL0     H32619   6.456   2.900  10.813  0.8541  0.0848 -2.2913
 1005MOL0     H32620   6.530   3.181  10.888 -0.0935  1.3437 -3.6573
 1005MOL0     H32621   6.406   3.079  10.968  0.3270 -1.5677 -0.0672
 1005MOL0     H32622   6.131   3.336  10.757  0.0194  0.4007  1.1961
 1005MOL0     H32623   5.917   3.278  10.770 -0.1754 -1.4252 -4.0003
 1005MOL0     H32624   5.686   2.696  10.775 -0.2410 -0.2006 -1.4355
 1005MOL0     H32625   5.443   2.600  10.787 -1.0975  0.9212  0.2097
 1005MOL0     H32626   5.192   2.658  10.722  0.4069 -0.8290  1.1537
 1005MOL0     H32627   5.170   2.831  10.714  1.6202 -0.4429 -0.1890
 1005MOL0     H32628   4.997   2.812  10.908  1.0080 -0.1959  0.1170
 1005MOL0     H32629   5.009   2.635  10.884  0.1825 -0.4592 -0.6394
 1005MOL0     H32630   4.929   2.627  10.673  1.4598  0.6177 -0.0366
 1005MOL0     H32631   4.939   2.805  10.659  0.0937  0.5176 -0.2351
 1005MOL0     H32632   4.734   2.676  10.845 -0.9298 -0.1433 -0.1276
 1005MOL0     H32633   4.767   2.853  10.832  1.6047  0.0942  0.2181
 1005MOL0     H32634   4.719   2.836  10.571 -2.2748  0.6436 -1.3843
 1005MOL0     H32635   4.590   2.814  10.691  1.1071  0.5700  0.4793
 1005MOL0     H32636   4.645   2.559  10.677 -0.9427  0.0062 -0.9064
 1005MOL0     H32637   4.738   2.597  10.530  1.7951 -0.4927  1.2700
 1005MOL0     H32638   4.538   2.692  10.426 -0.6019  0.2968  1.2616
 1005MOL0     H32639   4.527   2.520  10.450  3.0934  1.2683 -2.8099
 1005MOL0     H32640   4.382   2.726  10.636 -3.7383 -0.0032  0.1964
 1005MOL0     H32641   4.376   2.549  10.649  2.5292  0.6296  0.9236
 1005MOL0     H32642   5.326   2.962  10.987  0.7121  1.9405 -0.6859
 1005MOL0     H32643   5.569   3.044  10.974 -2.9774  1.4330 -2.4752
 1005MOL0     H32644   6.011   2.872  10.898  0.0078  0.1101 -0.6389
 1005MOL0     H32645   6.255   2.951  10.887  3.4874  4.1568 -0.1667
 1005MOL0     H32646   8.134   2.434  10.208  0.5621 -1.7584 -0.0413
 1005MOL0     H32647   8.208   2.360   9.999  1.2553  1.7344  1.3320
 1005MOL0     H32648   8.149   2.206   9.607  0.7692  0.4847  2.5888
 1005MOL0     H32649   8.277   2.104   9.427  1.0754 -0.2107 -0.5586
 1005MOL0     H32650   8.625   2.333   9.250  0.7127  0.5939  1.2586
 1005MOL0     H32651   8.637   2.175   9.179  0.5571 -0.5094  0.6221
 1005MOL0     H32652   8.721   2.242   9.463  1.5915  0.9832 -0.4891
 1005MOL0     H32653   8.725   2.080   9.390  1.0491 -0.2226  2.3850
 1005MOL0     H32654   8.863   2.340   9.305  2.2719 -0.8879  2.2491
 1005MOL0     H32655   8.886   2.197   9.214  1.7014  1.9504  0.2105
 1005MOL0     H32656   8.978   2.217   9.512  0.2488  1.3714 -0.4473
 1005MOL0     H32657   8.992   2.082   9.397  1.2570 -0.6645  1.5259
 1005MOL0     H32658   9.293   2.363   9.296  0.9316 -0.6642 -0.3570
 1005MOL0     H32659   8.540   2.452   9.424 -0.2051  0.2235 -1.5287
 1005MOL0     H32660   8.396   2.560   9.574 -1.0100  0.0934 -0.9057
 1006MOL0     O32661   1.101   7.172   1.784 -0.0667 -0.6017 -0.1492
 1006MOL0     C32662   1.141   7.064   1.826 -0.7333  0.9091  0.3844
 1006MOL0     O32663   1.066   6.962   1.860 -0.4969  0.1980  0.0524
 1006MOL0     C32664   0.929   6.957   1.849 -0.1187 -0.1153 -0.2126
 1006MOL0     C32665   0.848   7.025   1.766 -0.3935 -0.2073 -0.0736
 1006MOL0     C32666   0.708   7.003   1.755  0.1583  0.3184  0.0788
 1006MOL0     C32667   0.661   6.903   1.837 -0.9891 -0.1098 -0.2029
 1006MOL0     O32668   0.533   6.857   1.833 -0.2789  0.6731  0.1616
 1006MOL0     C32669   0.442   6.942   1.758 -0.1726  0.4113 -0.1375
 1006MOL0     C32670   0.300   6.879   1.791 -0.0406 -0.1070  0.8971
 1006MOL0     C32671   0.270   6.892   1.944  0.0268  0.0936 -0.6792
 1006MOL0     C32672   0.116   6.869   1.957 -0.3042  0.2119 -0.2268
 1006MOL0     C32673   0.071   6.819   2.094  0.3305  0.0714  0.3618
 1006MOL0     C32674  -0.069   6.753   2.103  0.0289  0.6531 -0.6984
 1006MOL0     C32675  -0.080   6.668   2.237 -0.6349  0.5265  0.7185
 1006MOL0     C32676  -0.131   6.747   2.353  0.2453  0.1446 -0.0418
 1006MOL0     N32677  -0.280   6.748   2.345  0.6074 -0.1952 -0.1074
 1006MOL0     C32678  -0.361   6.651   2.399 -0.3530  0.6953  0.2391
 1006MOL0     C32679  -0.479   6.674   2.350 -0.2119  0.7792  0.5791
 1006MOL0     C32680  -0.603   6.594   2.379  0.3181  0.8848  0.2494
 1006MOL0     C32681  -0.688   6.572   2.255 -0.2589  0.8050 -0.1138
 1006MOL0     C32682  -0.776   6.688   2.217 -0.6180 -0.2254  0.0610
 1006MOL0     C32683  -0.913   6.636   2.185 -0.1531 -0.2932 -0.1680
 1006MOL0     O32684  -0.981   6.591   2.300 -0.1729 -0.4953  0.6203
 1006MOL0     C32685  -1.119   6.588   2.304  0.5510 -0.6370 -0.0388
 1006MOL0     C32686  -1.194   6.540   2.194 -0.2653  0.6512 -0.5007
 1006MOL0     C32687  -1.333   6.524   2.214 -0.1510  0.0313 -0.4130
 1006MOL0     C32688  -1.402   6.559   2.328 -0.2643 -0.9616 -0.1206
 1006MOL0     C32689  -1.550   6.546   2.332 -0.0374 -0.6049  0.3386
 1006MOL0     O32690  -1.611   6.602   2.436 -0.3963 -0.3533  0.0952
 1006MOL0     C32691  -1.745   6.588   2.456  0.4210 -0.4334 -0.9014
 1006MOL0     C32692  -1.843   6.495   2.410 -0.7186 -0.2980 -0.4828
 1006MOL0     C32693  -1.979   6.515   2.438 -0.6558  0.0498 -0.9784
 1006MOL0     C32694  -2.013   6.622   2.525 -0.4048  0.1379  0.2565
 1006MOL0     O32695  -2.142   6.623   2.569  0.2810  0.4205 -0.5546
 1006MOL0     C32696  -2.174   6.731   2.657  0.1523  0.2598 -0.0983
 1006MOL0     C32697  -2.322   6.731   2.705 -0.2255  0.3038  0.1619
 1006MOL0     C32698  -2.422   6.711   2.586  0.2448  0.5063  0.3688
 1006MOL0     C32699  -2.563   6.687   2.650  0.6945 -0.0035 -0.2449
 1006MOL0     C32700  -2.667   6.644   2.544 -0.0892  0.1255  0.9725
 1006MOL0     C32701  -2.811   6.659   2.589 -0.3185 -0.9870  0.0476
 1006MOL0     C32702  -2.913   6.626   2.480  0.8900 -0.3260  0.2075
 1006MOL0     C32703  -3.052   6.652   2.542  0.2389  0.3471 -0.0144
 1006MOL0    Cl32704  -3.160   6.624   2.407 -0.3775 -0.1398 -0.4110
 1006MOL0     C32705  -1.918   6.709   2.569 -0.2518 -0.4092 -0.2790
 1006MOL0     C32706  -1.791   6.693   2.537 -0.0726 -0.4428  0.6148
 1006MOL0     O32707  -1.610   6.485   2.238 -1.4375 -0.4115  0.6027
 1006MOL0     C32708  -1.326   6.613   2.430 -0.2943 -0.3528  0.2718
 1006MOL0     C32709  -1.189   6.628   2.421  0.2443  1.0455 -1.2946
 1006MOL0     N32710  -0.469   6.781   2.272 -0.1111 -0.1717 -0.5743
 1006MOL0     N32711  -0.356   6.827   2.259 -0.2811 -0.2382  0.4107
 1006MOL0     C32712   0.748   6.813   1.905 -0.5980 -0.4173 -0.7502
 1006MOL0     C32713   0.879   6.845   1.906 -0.4519 -0.7414 -0.4091
 1006MOL0     C32714   1.283   7.032   1.811  0.4921 -0.6727 -0.0408
 1006MOL0     C32715   1.349   6.918   1.857  0.2256  0.3679  0.5312
 1006MOL0     C32716   1.488   6.895   1.850  0.1794 -0.3527  0.7200
 1006MOL0     C32717   1.560   6.987   1.773 -0.1119 -0.3533 -0.8561
 1006MOL0     O32718   1.693   6.958   1.755 -0.2444  0.1126  0.7676
 1006MOL0     C32719   1.784   7.039   1.685 -0.1489  0.2282 -0.5383
 1006MOL0     C32720   1.860   7.127   1.780 -0.8137 -0.2361  0.4183
 1006MOL0     C32721   1.960   7.219   1.711  0.3935 -0.5293 -0.7267
 1006MOL0     C32722   2.089   7.137   1.700 -0.2856  0.7706 -0.3881
 1006MOL0     C32723   2.205   7.209   1.639  0.3806 -0.4187 -0.2844
 1006MOL0     C32724   2.307   7.268   1.608 -0.5661 -0.6839 -0.8569
 1006MOL0     C32725   1.494   7.094   1.716 -0.1416  0.0416 -0.5200
 1006MOL0     C32726   1.361   7.121   1.736 -0.6614  0.5954 -0.0426
 1006MOL0     H32727   0.882   7.104   1.699 -4.2060  1.8680  0.1430
 1006MOL0     H32728   0.644   7.055   1.684 -1.1447  0.8791  1.5853
 1006MOL0     H32729   0.462   6.954   1.651  2.2281  2.1559  0.4295
 1006MOL0     H32730   0.442   7.045   1.793  2.1565  0.5447 -0.4105
 1006MOL0     H32731   0.302   6.779   1.747  3.7622  0.1146  0.1785
 1006MOL0     H32732   0.216   6.931   1.745 -0.4440  0.5028  2.2749
 1006MOL0     H32733   0.303   6.990   1.981  0.0472 -0.9465  2.3361
 1006MOL0     H32734   0.318   6.810   1.998 -1.8535 -2.3088 -2.4159
 1006MOL0     H32735   0.058   6.959   1.935  1.0647  0.9313 -1.0234
 1006MOL0     H32736   0.088   6.799   1.878  1.2424  0.6375 -1.1893
 1006MOL0     H32737   0.073   6.907   2.160 -2.1785  0.4792  0.0017
 1006MOL0     H32738   0.143   6.744   2.128 -1.7093 -3.2253 -2.0262
 1006MOL0     H32739  -0.088   6.680   2.024 -0.7000  0.8116 -0.6753
 1006MOL0     H32740  -0.144   6.832   2.091  0.0743  0.6667 -0.8952
 1006MOL0     H32741  -0.132   6.573   2.220  0.4458 -0.7936  3.9686
 1006MOL0     H32742   0.021   6.638   2.266 -0.6733 -0.1868  0.1359
 1006MOL0     H32743  -0.090   6.848   2.364 -0.2761  0.3485  0.0672
 1006MOL0     H32744  -0.108   6.696   2.447 -0.3958  1.0501  0.6177
 1006MOL0     H32745  -0.329   6.579   2.473  2.1015  0.7626 -0.6535
 1006MOL0     H32746  -0.669   6.648   2.447  0.0912  0.6648  0.2058
 1006MOL0     H32747  -0.578   6.500   2.430  2.0766  1.8154  1.1979
 1006MOL0     H32748  -0.759   6.499   2.294 -0.7720  1.8749  1.0134
 1006MOL0     H32749  -0.630   6.545   2.166 -1.6453 -2.7196 -0.1215
 1006MOL0     H32750  -0.782   6.764   2.296 -1.3189 -0.6288  0.3986
 1006MOL0     H32751  -0.726   6.739   2.134  1.9766 -1.6623  0.6322
 1006MOL0     H32752  -0.895   6.562   2.106  3.8889  0.0631  0.1651
 1006MOL0     H32753  -0.967   6.720   2.142 -0.7537 -0.9450 -0.7194
 1006MOL0     H32754  -1.150   6.506   2.101  0.5827  0.7458 -0.1471
 1006MOL0     H32755  -1.384   6.475   2.131  1.8657 -2.4633 -0.3118
 1006MOL0     H32756  -1.809   6.409   2.352  0.2449 -1.2287  1.3741
 1006MOL0     H32757  -2.051   6.443   2.400 -0.3934  0.0907 -1.5765
 1006MOL0     H32758  -2.159   6.823   2.599  0.3418 -0.4872 -1.2830
 1006MOL0     H32759  -2.119   6.734   2.752 -1.2548 -0.9315  0.7993
 1006MOL0     H32760  -2.324   6.834   2.741  2.1504  0.3739  0.2538
 1006MOL0     H32761  -2.331   6.659   2.786 -0.1572  2.4854  2.2182
 1006MOL0     H32762  -2.400   6.619   2.531  1.7055  0.6557  0.6542
 1006MOL0     H32763  -2.407   6.794   2.516  2.3565  0.6590  0.9345
 1006MOL0     H32764  -2.563   6.606   2.723 -2.3588 -1.0486 -1.2464
 1006MOL0     H32765  -2.592   6.783   2.694 -1.3158  0.3546 -2.1720
 1006MOL0     H32766  -2.657   6.539   2.516 -2.6948  0.4657 -1.7660
 1006MOL0     H32767  -2.650   6.702   2.453  0.1391  1.3228  1.7499
 1006MOL0     H32768  -2.825   6.759   2.632  0.4425 -1.4507  1.3953
 1006MOL0     H32769  -2.829   6.597   2.676 -0.0087  0.2540  1.0234
 1006MOL0     H32770  -2.898   6.694   2.395 -2.4049 -0.6996 -0.8501
 1006MOL0     H32771  -2.889   6.525   2.447 -0.6167 -0.1733 -1.5108
 1006MOL0     H32772  -3.068   6.755   2.575 -1.7470 -0.4006  1.5384
 1006MOL0     H32773  -3.086   6.589   2.624 -1.4277  2.2432  0.8387
 1006MOL0     H32774  -1.940   6.799   2.626  1.5167 -0.1576  0.0706
 1006MOL0     H32775  -1.716   6.766   2.567 -0.2583 -0.5081  1.2421
 1006MOL0     H32776  -1.381   6.650   2.516 -1.3090 -0.0996 -0.4776
 1006MOL0     H32777  -1.141   6.668   2.510 -0.1199 -0.1270 -0.5493
 1006MOL0     H32778   0.722   6.722   1.958  0.7896 -0.2518  0.2528
 1006MOL0     H32779   0.948   6.789   1.968  1.7639  4.0749  2.0279
 1006MOL0     H32780   1.290   6.850   1.918 -1.2457 -1.6127 -2.7905
 1006MOL0     H32781   1.521   6.799   1.887 -2.0780 -1.2130  0.6960
 1006MOL0     H32782   1.742   7.103   1.607  1.6321  3.0993  0.7001
 1006MOL0     H32783   1.854   6.971   1.635  0.1573  0.6205 -0.6494
 1006MOL0     H32784   1.791   7.197   1.826 -0.3735  0.9793 -0.6935
 1006MOL0     H32785   1.910   7.063   1.853 -0.9794 -2.1119 -1.0266
 1006MOL0     H32786   1.984   7.302   1.777 -0.0157 -1.0174  0.0472
 1006MOL0     H32787   1.910   7.254   1.620  1.8769 -0.2995 -1.4955
 1006MOL0     H32788   2.108   7.113   1.805  1.3912 -1.8869 -1.1945
 1006MOL0     H32789   2.076   7.045   1.642  0.8463  1.2006 -1.3882
 1006MOL0     H32790   2.382   7.335   1.572  0.2197 -1.8112 -1.3708
 1006MOL0     H32791   1.546   7.166   1.654 -0.3160  1.9010  1.3810
 1006MOL0     H32792   1.321   7.207   1.682  2.0153  1.1574 -1.2597
 1007MOL0     O32793   6.698   9.569   0.668 -1.1742 -0.0633  0.0328
 1007MOL0     C32794   6.781   9.520   0.587  0.9622 -0.5995 -0.3846
 1007MOL0     O32795   6.753   9.430   0.485  0.3344 -0.3081 -0.6196
 1007MOL0     C32796   6.616   9.404   0.467 -0.3416  0.5150 -0.3514
 1007MOL0     C32797   6.564   9.283   0.516  1.1492 -0.0705 -0.1896
 1007MOL0     C32798   6.429   9.255   0.505  0.3755 -0.1000  0.1356
 1007MOL0     C32799   6.339   9.336   0.430  0.4929 -0.2413 -0.2175
 1007MOL0     O32800   6.207   9.307   0.407  0.4427 -0.3878  0.3027
 1007MOL0     C32801   6.139   9.201   0.472 -0.0500 -0.1240 -0.8503
 1007MOL0     C32802   5.998   9.189   0.424  0.9886  0.0913  0.4270
 1007MOL0     C32803   5.989   9.149   0.272 -0.1312 -1.0519  0.3333
 1007MOL0     C32804   5.853   9.201   0.217 -0.1841  0.4157 -0.3273
 1007MOL0     C32805   5.736   9.111   0.264 -0.5809 -0.4655 -0.5321
 1007MOL0     C32806   5.610   9.120   0.173 -0.4484  0.0717  0.5608
 1007MOL0     C32807   5.510   9.000   0.195  0.3454 -0.1550  0.0396
 1007MOL0     C32808   5.398   9.000   0.091 -0.2915  0.6899 -0.3390
 1007MOL0     N32809   5.331   8.872   0.099  1.0476  0.3198 -0.2669
 1007MOL0     C32810   5.351   8.756   0.030 -0.1890  0.0015  0.6762
 1007MOL0     C32811   5.256   8.673   0.063 -0.5058  0.5910  0.4298
 1007MOL0     C32812   5.240   8.548  -0.013  0.4804  0.5693 -0.5340
 1007MOL0     C32813   5.136   8.570  -0.123  0.2309 -0.4153  0.3305
 1007MOL0     C32814   5.145   8.457  -0.222 -1.4618  0.7124 -0.7728
 1007MOL0     C32815   5.032   8.438  -0.327 -0.9652  0.0036  0.1836
 1007MOL0     O32816   4.905   8.409  -0.278 -1.1549 -0.7924  0.7060
 1007MOL0     C32817   4.790   8.421  -0.355 -0.5339  0.2249  0.2624
 1007MOL0     C32818   4.662   8.416  -0.286 -0.3509 -0.1381  0.2875
 1007MOL0     C32819   4.541   8.430  -0.355 -0.1455 -0.2517 -0.1576
 1007MOL0     C32820   4.539   8.433  -0.497  0.3484 -0.2636 -0.2706
 1007MOL0     C32821   4.404   8.438  -0.566 -0.2684  0.0016 -0.1077
 1007MOL0     O32822   4.290   8.448  -0.494 -0.7035  0.6967 -0.3083
 1007MOL0     C32823   4.168   8.441  -0.565 -0.6053  0.3112 -0.7727
 1007MOL0     C32824   4.080   8.339  -0.537  1.0541  0.0285 -0.4029
 1007MOL0     C32825   3.955   8.329  -0.603 -0.5940 -0.9116  0.6886
 1007MOL0     C32826   3.936   8.427  -0.708  0.9732  0.7351  0.0646
 1007MOL0     O32827   3.811   8.423  -0.773  0.5370  0.4870  0.2251
 1007MOL0     C32828   3.722   8.542  -0.778 -0.2466  0.3432  0.0451
 1007MOL0     C32829   3.577   8.493  -0.759 -0.4659 -0.0551 -0.9988
 1007MOL0     C32830   3.483   8.585  -0.685  0.5066 -0.4805 -0.2766
 1007MOL0     C32831   3.347   8.534  -0.702 -0.2124  0.0419 -0.0274
 1007MOL0     C32832   3.242   8.649  -0.699 -0.2084 -0.4951 -0.1369
 1007MOL0     C32833   3.116   8.589  -0.731  0.6545  0.9814 -0.2559
 1007MOL0     C32834   3.009   8.691  -0.751  0.6249  0.9002 -0.0696
 1007MOL0     C32835   2.871   8.626  -0.754 -0.4079  0.3420 -0.0847
 1007MOL0    Cl32836   2.868   8.455  -0.807  0.4252 -0.0998 -0.0273
 1007MOL0     C32837   4.020   8.539  -0.728 -0.2690  0.6310  0.2077
 1007MOL0     C32838   4.134   8.542  -0.651 -0.1194 -1.0062 -0.4468
 1007MOL0     O32839   4.402   8.424  -0.682 -0.2978 -0.3633  0.5482
 1007MOL0     C32840   4.664   8.439  -0.565 -0.1961 -0.6333 -0.6166
 1007MOL0     C32841   4.792   8.437  -0.499  0.9192  0.3140 -1.1852
 1007MOL0     N32842   5.165   8.738   0.144 -0.6339 -0.4010 -0.3295
 1007MOL0     N32843   5.216   8.849   0.176  0.2090  0.3313 -0.0417
 1007MOL0     C32844   6.397   9.444   0.370  1.1748 -0.4270 -0.5384
 1007MOL0     C32845   6.527   9.490   0.407 -0.6657  0.2591  0.1101
 1007MOL0     C32846   6.922   9.531   0.604  0.4327  0.0632 -1.7346
 1007MOL0     C32847   6.972   9.619   0.698 -0.3167 -0.5092 -0.0869
 1007MOL0     C32848   7.110   9.637   0.720  0.1830 -1.2813 -0.6481
 1007MOL0     C32849   7.201   9.558   0.651 -0.9989 -0.1004  0.2264
 1007MOL0     O32850   7.337   9.563   0.687 -0.5309 -0.0071  0.2591
 1007MOL0     C32851   7.442   9.478   0.645  0.0733  0.3178 -0.1003
 1007MOL0     C32852   7.571   9.529   0.712  0.4900  1.0186 -0.7724
 1007MOL0     C32853   7.692   9.445   0.664  0.0432 -0.7607 -0.3861
 1007MOL0     C32854   7.812   9.468   0.738 -0.8591  0.3758 -0.2702
 1007MOL0     C32855   7.883   9.581   0.680 -0.5064 -0.3499 -0.4851
 1007MOL0     C32856   7.936   9.683   0.653 -0.5043  0.3066 -1.5549
 1007MOL0     C32857   7.152   9.467   0.557  0.2928  0.2588 -1.3443
 1007MOL0     C32858   7.011   9.457   0.532  0.0266  0.0751 -0.3763
 1007MOL0     H32859   6.635   9.213   0.559  0.7756 -1.2800 -1.4667
 1007MOL0     H32860   6.398   9.165   0.557  2.6427 -0.6888  0.5759
 1007MOL0     H32861   6.122   9.226   0.577 -1.8676  0.5876 -1.2765
 1007MOL0     H32862   6.190   9.105   0.456  2.4285  0.9451  0.1997
 1007MOL0     H32863   5.954   9.284   0.458  0.4966 -0.6146  1.8438
 1007MOL0     H32864   5.962   9.112   0.493  1.0597  1.0359  1.5524
 1007MOL0     H32865   6.004   9.042   0.254  2.4766 -0.8005  0.5136
 1007MOL0     H32866   6.064   9.204   0.215  0.8556 -0.7907  1.8200
 1007MOL0     H32867   5.845   9.307   0.242 -0.8432  0.2248  0.3106
 1007MOL0     H32868   5.868   9.185   0.110  0.2582 -0.9611 -0.0875
 1007MOL0     H32869   5.713   9.137   0.368  3.5712 -1.6472  0.8438
 1007MOL0     H32870   5.768   9.007   0.259  1.3310  0.1064 -0.8204
 1007MOL0     H32871   5.636   9.107   0.067 -2.9249 -1.1473  0.0138
 1007MOL0     H32872   5.557   9.213   0.196  0.8284  0.6666  1.1573
 1007MOL0     H32873   5.566   8.910   0.170 -0.5627 -0.7279  0.0218
 1007MOL0     H32874   5.468   8.992   0.295 -0.2729 -2.2871 -0.3572
 1007MOL0     H32875   5.436   9.016  -0.010  0.7067  0.9549  0.0681
 1007MOL0     H32876   5.342   9.093   0.101  1.1213  1.4115  1.4661
 1007MOL0     H32877   5.420   8.745  -0.053 -1.2843  0.4281 -0.3293
 1007MOL0     H32878   5.192   8.472   0.049  0.9923 -1.3641 -2.4095
 1007MOL0     H32879   5.334   8.510  -0.055 -0.0397  2.1559 -3.3590
 1007MOL0     H32880   5.164   8.661  -0.176 -1.7137  0.1718  0.2335
 1007MOL0     H32881   5.034   8.579  -0.085  0.3696  0.6571  0.4865
 1007MOL0     H32882   5.241   8.457  -0.275 -1.4838  1.4111 -0.8277
 1007MOL0     H32883   5.158   8.371  -0.157 -2.6348  0.1505 -1.2597
 1007MOL0     H32884   5.061   8.358  -0.396  2.0696  1.3966 -0.3033
 1007MOL0     H32885   5.035   8.523  -0.396 -1.0837  1.0858  1.4695
 1007MOL0     H32886   4.658   8.401  -0.179 -4.9807  1.2131  0.5218
 1007MOL0     H32887   4.445   8.425  -0.305  0.9008 -0.6006  1.9103
 1007MOL0     H32888   4.088   8.278  -0.447 -0.8820  1.9014  1.1490
 1007MOL0     H32889   3.874   8.263  -0.574  0.6872 -3.0342 -0.3223
 1007MOL0     H32890   3.726   8.597  -0.873 -0.2736  0.3192  0.0302
 1007MOL0     H32891   3.749   8.613  -0.699 -1.0916  0.3066  0.3739
 1007MOL0     H32892   3.582   8.399  -0.704 -1.6972  0.4503  0.0302
 1007MOL0     H32893   3.555   8.463  -0.862 -0.8818 -1.5454 -0.4937
 1007MOL0     H32894   3.487   8.683  -0.734  4.0259 -0.4481 -0.1379
 1007MOL0     H32895   3.512   8.593  -0.580  1.0439 -0.6357 -0.4107
 1007MOL0     H32896   3.345   8.491  -0.803  0.0522 -0.4625  0.1731
 1007MOL0     H32897   3.326   8.453  -0.631 -0.5942  0.4461  0.3233
 1007MOL0     H32898   3.263   8.731  -0.769  0.1506  0.0635  0.6074
 1007MOL0     H32899   3.256   8.687  -0.597  2.9391 -1.1908 -0.2262
 1007MOL0     H32900   3.081   8.526  -0.648  0.7862  1.6194  0.2832
 1007MOL0     H32901   3.133   8.528  -0.820 -0.1925 -0.5073  0.5474
 1007MOL0     H32902   3.004   8.765  -0.670  1.2123  0.6857  0.1640
 1007MOL0     H32903   3.028   8.753  -0.839  1.7430  2.7790  1.4110
 1007MOL0     H32904   2.811   8.686  -0.824  1.4702  1.5603 -0.7194
 1007MOL0     H32905   2.822   8.626  -0.656 -1.3745  1.3546 -0.5396
 1007MOL0     H32906   3.988   8.617  -0.797 -0.4589  0.7595  0.4434
 1007MOL0     H32907   4.201   8.627  -0.659 -2.1322  0.6150 -0.9256
 1007MOL0     H32908   4.652   8.436  -0.673 -2.7858  0.7123 -0.4577
 1007MOL0     H32909   4.885   8.441  -0.555  2.1690  0.3778  0.7785
 1007MOL0     H32910   6.340   9.522   0.321  2.8866  1.0520 -0.3073
 1007MOL0     H32911   6.555   9.585   0.363 -0.4815 -0.0081 -0.3584
 1007MOL0     H32912   6.901   9.665   0.766 -0.6269 -0.2547 -0.5773
 1007MOL0     H32913   7.151   9.712   0.787  1.0386 -1.4699 -0.9453
 1007MOL0     H32914   7.461   9.473   0.538 -0.7978  0.6017 -0.2801
 1007MOL0     H32915   7.420   9.378   0.684  2.8968 -0.4523 -0.2424
 1007MOL0     H32916   7.587   9.634   0.685  0.5179  0.9215 -1.1448
 1007MOL0     H32917   7.561   9.528   0.821  2.7146  1.0579 -0.5371
 1007MOL0     H32918   7.696   9.452   0.555 -1.5304 -1.2349 -0.4956
 1007MOL0     H32919   7.664   9.341   0.684 -1.1434 -0.4912 -0.5673
 1007MOL0     H32920   7.796   9.472   0.846  2.4415 -1.2226  0.4184
 1007MOL0     H32921   7.885   9.388   0.724  0.1655  1.3701 -0.7919
 1007MOL0     H32922   7.984   9.776   0.631  0.4950  0.7284  1.8719
 1007MOL0     H32923   7.210   9.400   0.495  0.7246 -1.0877  0.4293
 1007MOL0     H32924   6.989   9.372   0.468 -1.1806 -0.2604  0.4657
 1008MOL0     O32925   4.719   1.920   8.410 -1.0255  0.8088 -0.8183
 1008MOL0     C32926   4.728   1.943   8.291  0.1120 -0.1814  1.0164
 1008MOL0     O32927   4.630   1.924   8.202 -0.4218  0.7100 -0.2958
 1008MOL0     C32928   4.501   1.911   8.248 -0.4558 -0.1964 -0.5322
 1008MOL0     C32929   4.423   2.025   8.233 -0.4419  0.1676 -0.3602
 1008MOL0     C32930   4.283   2.019   8.257 -0.7144 -0.4595 -0.5232
 1008MOL0     C32931   4.228   1.899   8.296  0.1580 -0.2186  0.5999
 1008MOL0     O32932   4.091   1.890   8.313 -0.5596 -0.3290 -0.3293
 1008MOL0     C32933   4.039   1.956   8.433  0.2729  0.0507 -0.0246
 1008MOL0     C32934   3.939   1.863   8.506 -0.1752  0.1076  0.3104
 1008MOL0     C32935   3.834   1.806   8.412 -0.1829  0.1092  0.3383
 1008MOL0     C32936   3.714   1.730   8.464  0.0892  0.1148 -0.0029
 1008MOL0     C32937   3.741   1.617   8.555 -0.3970 -0.1002 -0.1476
 1008MOL0     C32938   3.815   1.509   8.478  0.0811 -0.2247 -0.0933
 1008MOL0     C32939   3.872   1.406   8.578  0.3645  0.0588 -0.3433
 1008MOL0     C32940   3.761   1.319   8.637  0.6373 -0.0554 -0.2278
 1008MOL0     N32941   3.804   1.256   8.765  0.0337 -1.1266 -0.4199
 1008MOL0     C32942   3.714   1.256   8.872 -0.4557  0.0211 -0.3987
 1008MOL0     C32943   3.774   1.185   8.965 -0.3690 -0.2315 -0.7893
 1008MOL0     C32944   3.721   1.177   9.103  0.3942  0.3374  0.2107
 1008MOL0     C32945   3.578   1.121   9.102 -0.4382  0.9840  0.3356
 1008MOL0     C32946   3.523   1.080   9.237  0.0342  0.5386 -0.4394
 1008MOL0     C32947   3.498   1.187   9.338 -0.6832  0.7597  0.1024
 1008MOL0     O32948   3.396   1.285   9.306  0.0664 -0.2828  0.2402
 1008MOL0     C32949   3.268   1.243   9.322 -0.6286 -1.0978 -0.3336
 1008MOL0     C32950   3.230   1.120   9.358 -0.7557  0.4421  0.9530
 1008MOL0     C32951   3.089   1.096   9.375 -0.8561 -0.0271 -0.3333
 1008MOL0     C32952   2.987   1.190   9.358  0.0352  0.3477  0.1479
 1008MOL0     C32953   2.851   1.160   9.397  0.7619 -1.3172  0.2013
 1008MOL0     O32954   2.767   1.258   9.367  0.6849  0.5385  0.6330
 1008MOL0     C32955   2.635   1.256   9.395  0.5518  0.0624 -0.2357
 1008MOL0     C32956   2.556   1.340   9.322  0.1882  0.0314 -0.2510
 1008MOL0     C32957   2.417   1.359   9.353 -0.3707  0.1727 -0.6388
 1008MOL0     C32958   2.361   1.299   9.462  0.3446 -1.2779  0.3091
 1008MOL0     O32959   2.232   1.307   9.505  0.3562 -0.0058 -0.0597
 1008MOL0     C32960   2.135   1.331   9.397  0.2125 -0.3207 -0.2075
 1008MOL0     C32961   1.986   1.312   9.444 -0.1115 -0.0229  0.1335
 1008MOL0     C32962   1.884   1.372   9.344 -0.7794 -0.1619  0.2990
 1008MOL0     C32963   1.739   1.392   9.387 -0.0518 -0.8296  0.3411
 1008MOL0     C32964   1.644   1.387   9.268  0.4998  1.0079 -0.2151
 1008MOL0     C32965   1.498   1.396   9.307 -0.4061  0.5301 -0.6150
 1008MOL0     C32966   1.405   1.405   9.188 -0.2270  0.1710 -0.4206
 1008MOL0     C32967   1.404   1.546   9.119 -0.0139 -0.4952 -0.2820
 1008MOL0    Cl32968   1.334   1.548   8.953 -0.0408  0.2259  0.0169
 1008MOL0     C32969   2.438   1.222   9.546 -0.1325  0.2151  0.3121
 1008MOL0     C32970   2.574   1.192   9.511 -0.4987 -0.4495  0.3992
 1008MOL0     O32971   2.821   1.043   9.428  0.5899 -0.1630 -0.2957
 1008MOL0     C32972   3.032   1.314   9.317  0.7383  0.3599 -0.2139
 1008MOL0     C32973   3.172   1.341   9.297 -0.0026 -0.4423 -0.2048
 1008MOL0     N32974   3.897   1.150   8.915  0.0354  0.6439 -0.4917
 1008MOL0     N32975   3.916   1.193   8.800 -1.0926 -0.7946  0.1608
 1008MOL0     C32976   4.307   1.787   8.309 -0.0067 -0.4430 -0.7339
 1008MOL0     C32977   4.449   1.792   8.286  1.2535 -1.5153 -0.1818
 1008MOL0     C32978   4.848   2.013   8.242 -0.1729  0.4271 -0.9647
 1008MOL0     C32979   4.850   2.083   8.118 -0.0808 -0.0815 -0.4335
 1008MOL0     C32980   4.971   2.133   8.079  0.7899 -0.1689  0.5934
 1008MOL0     C32981   5.090   2.120   8.151 -0.2318  0.0681  0.7707
 1008MOL0     O32982   5.213   2.168   8.116  0.8181 -0.6310  0.0197
 1008MOL0     C32983   5.228   2.275   8.025 -0.3455 -0.3210 -0.0418
 1008MOL0     C32984   5.215   2.221   7.884 -0.2278 -0.4472 -0.8540
 1008MOL0     C32985   5.349   2.171   7.828  0.3164 -0.2786 -0.6614
 1008MOL0     C32986   5.331   2.095   7.704 -1.0254  0.3917  0.1293
 1008MOL0     C32987   5.262   2.166   7.595  0.5461  0.3891 -1.7422
 1008MOL0     C32988   5.205   2.224   7.502 -0.6607  0.2152 -0.6187
 1008MOL0     C32989   5.079   2.061   8.277  1.0763  0.1880  0.7010
 1008MOL0     C32990   4.961   2.006   8.321  0.3420  0.0188 -0.8794
 1008MOL0     H32991   4.456   2.121   8.196  0.4585  0.4246  1.0215
 1008MOL0     H32992   4.221   2.108   8.269 -1.9061 -1.6381  4.0644
 1008MOL0     H32993   3.979   2.042   8.404 -0.5414 -0.6142 -0.3285
 1008MOL0     H32994   4.123   1.988   8.496  0.2171  0.5622 -0.2105
 1008MOL0     H32995   3.887   1.917   8.586 -1.9523 -0.6275 -0.3049
 1008MOL0     H32996   3.991   1.775   8.547  2.0417  2.0877  2.1080
 1008MOL0     H32997   3.879   1.751   8.329 -0.3837  0.9373 -0.3320
 1008MOL0     H32998   3.797   1.901   8.371  2.6075  0.8656 -0.6871
 1008MOL0     H32999   3.644   1.803   8.505 -0.8640  0.4472 -2.1372
 1008MOL0     H33000   3.666   1.686   8.376  1.4399 -0.8540 -0.3084
 1008MOL0     H33001   3.641   1.576   8.571  0.4404 -1.4355  1.9904
 1008MOL0     H33002   3.788   1.649   8.648  1.5713 -0.9709 -0.8009
 1008MOL0     H33003   3.897   1.567   8.435 -1.9848  1.9690 -1.2987
 1008MOL0     H33004   3.751   1.460   8.405 -2.1158  0.6693  1.1396
 1008MOL0     H33005   3.943   1.336   8.533 -0.7349  0.0540 -2.1812
 1008MOL0     H33006   3.924   1.453   8.662 -0.9832  2.8321 -0.9583
 1008MOL0     H33007   3.720   1.241   8.572  1.7630 -0.0475 -0.9752
 1008MOL0     H33008   3.667   1.375   8.644 -1.1211 -2.6226 -1.8213
 1008MOL0     H33009   3.617   1.303   8.885 -0.4864  0.1363 -1.0271
 1008MOL0     H33010   3.724   1.276   9.150  2.3361 -0.5649  2.1681
 1008MOL0     H33011   3.793   1.115   9.158 -1.2999 -0.7459  1.2812
 1008MOL0     H33012   3.587   1.031   9.041  2.0081 -0.9158  3.2094
 1008MOL0     H33013   3.510   1.199   9.067 -1.3515  0.1993  0.3412
 1008MOL0     H33014   3.430   1.026   9.217  1.3676 -1.4333 -1.6440
 1008MOL0     H33015   3.592   1.008   9.283  0.1996  1.0930  0.1943
 1008MOL0     H33016   3.590   1.245   9.339 -0.6230  0.7720 -2.1480
 1008MOL0     H33017   3.489   1.135   9.434  1.3512 -0.4058 -0.2927
 1008MOL0     H33018   3.300   1.039   9.374  0.1121  1.1320  0.6799
 1008MOL0     H33019   3.076   0.993   9.406 -1.7328 -0.2769 -1.4649
 1008MOL0     H33020   2.590   1.404   9.241 -1.2969  1.9937  0.5907
 1008MOL0     H33021   2.361   1.429   9.292  1.6882  2.1129 -0.4796
 1008MOL0     H33022   2.168   1.273   9.311  2.0388 -1.2753  1.0601
 1008MOL0     H33023   2.140   1.437   9.370 -3.8997  0.2472  0.6230
 1008MOL0     H33024   1.975   1.372   9.535 -5.0142 -0.5114  0.1320
 1008MOL0     H33025   1.956   1.207   9.455  0.4720 -0.0642  1.5514
 1008MOL0     H33026   1.894   1.303   9.260  0.6025 -0.7686  0.9197
 1008MOL0     H33027   1.932   1.467   9.317 -0.0789  0.5041  3.4744
 1008MOL0     H33028   1.720   1.309   9.455  1.7604 -2.6427 -1.2327
 1008MOL0     H33029   1.714   1.487   9.436  0.8690 -0.1086 -0.5355
 1008MOL0     H33030   1.662   1.294   9.212  0.3060  1.5836 -1.2572
 1008MOL0     H33031   1.660   1.474   9.204 -1.9090  1.9791  0.4258
 1008MOL0     H33032   1.483   1.479   9.376  0.8703  1.0783 -0.9666
 1008MOL0     H33033   1.471   1.300   9.353 -1.4976  1.0403 -0.1506
 1008MOL0     H33034   1.440   1.327   9.120  0.3202  1.7423 -2.0405
 1008MOL0     H33035   1.302   1.382   9.218 -0.0249  2.2076  2.1333
 1008MOL0     H33036   1.510   1.570   9.111  0.1227 -1.5107 -2.3193
 1008MOL0     H33037   1.352   1.616   9.185 -1.3731 -2.0765  0.3887
 1008MOL0     H33038   2.393   1.175   9.634  0.4591  2.0024  1.6205
 1008MOL0     H33039   2.635   1.129   9.574 -2.0212 -1.4097  0.9670
 1008MOL0     H33040   2.963   1.398   9.305  0.0653 -0.2425 -0.6719
 1008MOL0     H33041   3.217   1.436   9.270  0.8030 -0.3876  1.2434
 1008MOL0     H33042   4.262   1.691   8.330 -2.6803  0.7684 -0.4775
 1008MOL0     H33043   4.520   1.709   8.283  1.8429 -1.0049 -0.6079
 1008MOL0     H33044   4.762   2.080   8.055 -1.0945  1.3531  0.8412
 1008MOL0     H33045   4.974   2.183   7.982 -0.6633  0.6263  0.9314
 1008MOL0     H33046   5.323   2.329   8.033  1.2774 -2.5632 -2.5738
 1008MOL0     H33047   5.143   2.342   8.040 -2.6760 -2.8318 -1.1994
 1008MOL0     H33048   5.138   2.143   7.882 -1.3004  0.6056 -2.1845
 1008MOL0     H33049   5.174   2.305   7.827 -1.9209 -0.6614 -0.0253
 1008MOL0     H33050   5.397   2.109   7.904  0.2552 -1.5301 -1.6161
 1008MOL0     H33051   5.415   2.258   7.823  0.5979 -0.4152  0.3607
 1008MOL0     H33052   5.432   2.065   7.675  0.1904  4.0198  0.0764
 1008MOL0     H33053   5.282   1.999   7.724  2.9675 -1.8796 -0.0063
 1008MOL0     H33054   5.158   2.266   7.416  1.1213 -2.0014 -2.8323
 1008MOL0     H33055   5.167   2.047   8.339  1.7421  2.0981  0.2523
 1008MOL0     H33056   4.975   1.949   8.412 -0.9907  2.7536  1.1894
 1009MOL0     O33057   1.803   3.825   5.183  1.0219  0.9055 -0.5454
 1009MOL0     C33058   1.780   3.786   5.065 -0.8130  0.2358 -1.0281
 1009MOL0     O33059   1.665   3.727   5.017  0.3409 -0.2996 -0.3710
 1009MOL0     C33060   1.559   3.729   5.103  1.1086  0.0294  0.0493
 1009MOL0     C33061   1.492   3.842   5.147 -0.5620  0.6962 -0.0771
 1009MOL0     C33062   1.378   3.838   5.226 -0.7159 -0.1722 -0.3739
 1009MOL0     C33063   1.320   3.715   5.259 -0.0165 -0.0175 -0.1822
 1009MOL0     O33064   1.212   3.701   5.336 -0.2014 -0.3068  0.0849
 1009MOL0     C33065   1.107   3.796   5.319 -0.0692 -0.0430 -0.0852
 1009MOL0     C33066   0.960   3.740   5.346 -0.6648 -0.4556 -0.4876
 1009MOL0     C33067   0.862   3.865   5.354  0.4161  0.6047  0.4301
 1009MOL0     C33068   0.724   3.824   5.388  0.0009  0.1464  0.3810
 1009MOL0     C33069   0.621   3.934   5.380 -0.3936 -0.4463  0.1005
 1009MOL0     C33070   0.478   3.859   5.403 -0.3395 -0.5140 -0.1140
 1009MOL0     C33071   0.388   3.954   5.475  1.0488 -0.0988 -0.6752
 1009MOL0     C33072   0.237   3.921   5.464  0.1575 -0.3490 -0.0993
 1009MOL0     N33073   0.214   3.788   5.517 -0.5613  0.3984  0.3584
 1009MOL0     C33074   0.191   3.748   5.641  0.8081 -0.0546 -0.9070
 1009MOL0     C33075   0.185   3.610   5.636 -0.2491 -0.5362  0.4558
 1009MOL0     C33076   0.143   3.511   5.745  0.0995 -0.4219 -0.1309
 1009MOL0     C33077  -0.005   3.539   5.786 -1.0386  0.7407 -0.1139
 1009MOL0     C33078  -0.102   3.542   5.660  0.0651 -0.5324  0.0725
 1009MOL0     C33079  -0.248   3.525   5.689 -0.1807 -0.4531  0.1841
 1009MOL0     O33080  -0.287   3.608   5.795 -0.0317  0.0676 -0.1581
 1009MOL0     C33081  -0.420   3.605   5.833 -0.7488  0.7494  0.9328
 1009MOL0     C33082  -0.470   3.708   5.918  0.7805 -0.6973  0.5379
 1009MOL0     C33083  -0.594   3.702   5.990 -0.2855  0.3823 -0.4933
 1009MOL0     C33084  -0.684   3.598   5.968  0.1702  0.5528 -0.4486
 1009MOL0     C33085  -0.810   3.592   6.046  0.4168 -0.0043  0.3365
 1009MOL0     O33086  -0.875   3.474   6.022  0.3198  0.1119 -0.1914
 1009MOL0     C33087  -1.001   3.452   6.076  0.0263  0.5646  0.6743
 1009MOL0     C33088  -1.100   3.553   6.078 -0.4465 -0.5545 -0.0045
 1009MOL0     C33089  -1.230   3.522   6.123 -0.4181  1.1647 -0.2796
 1009MOL0     C33090  -1.251   3.388   6.174  0.7212 -0.3024 -0.4896
 1009MOL0     O33091  -1.380   3.342   6.222  0.0367 -1.1078  0.6958
 1009MOL0     C33092  -1.473   3.446   6.249  0.5582 -0.5085  0.6916
 1009MOL0     C33093  -1.599   3.394   6.322 -0.1727  0.1407  0.2629
 1009MOL0     C33094  -1.680   3.283   6.251 -0.6859  0.0769 -0.1705
 1009MOL0     C33095  -1.786   3.229   6.355  0.1699  0.8119 -0.3616
 1009MOL0     C33096  -1.867   3.113   6.289 -0.4023 -0.1506 -0.1553
 1009MOL0     C33097  -1.985   3.174   6.217  0.0972  0.1343 -0.2079
 1009MOL0     C33098  -2.052   3.067   6.136 -0.1549 -0.1003 -0.5873
 1009MOL0     C33099  -1.970   2.966   6.056  0.1835  0.5844  0.5371
 1009MOL0    Cl33100  -1.851   3.054   5.954  0.3645  0.0981 -0.0243
 1009MOL0     C33101  -1.151   3.297   6.176 -0.0073  0.5919  0.2850
 1009MOL0     C33102  -1.030   3.326   6.129  0.5373  0.5629 -0.6020
 1009MOL0     O33103  -0.856   3.682   6.122  0.5732 -0.1226  0.2417
 1009MOL0     C33104  -0.641   3.500   5.874  0.2410 -0.7168  0.6526
 1009MOL0     C33105  -0.510   3.494   5.809 -0.4749 -0.6224  0.2861
 1009MOL0     N33106   0.208   3.574   5.512 -0.0799  1.0545  0.1991
 1009MOL0     N33107   0.211   3.672   5.433 -0.0035 -0.1609  0.1697
 1009MOL0     C33108   1.390   3.602   5.218 -0.0484 -0.1037  1.0562
 1009MOL0     C33109   1.501   3.612   5.135  0.1213  0.4617  0.5184
 1009MOL0     C33110   1.903   3.784   4.970 -0.3196  0.1818 -0.7485
 1009MOL0     C33111   2.031   3.826   5.015 -0.0804 -0.2937 -0.0969
 1009MOL0     C33112   2.141   3.817   4.938 -0.6368  0.2180 -0.4684
 1009MOL0     C33113   2.135   3.756   4.807 -0.4285 -1.1256 -0.3548
 1009MOL0     O33114   2.241   3.728   4.724 -0.3365 -1.1261 -0.1273
 1009MOL0     C33115   2.375   3.767   4.764  0.2901 -0.2772 -0.1464
 1009MOL0     C33116   2.483   3.684   4.691  0.5880 -0.4437  0.3839
 1009MOL0     C33117   2.626   3.730   4.719  0.6391  0.0756 -1.4098
 1009MOL0     C33118   2.726   3.661   4.630 -0.7106  0.1630 -0.6778
 1009MOL0     C33119   2.861   3.721   4.627 -0.2215 -0.0086  0.4427
 1009MOL0     C33120   2.965   3.789   4.631  0.6048 -1.0854 -0.9003
 1009MOL0     C33121   2.015   3.724   4.765 -0.1972  0.3115  0.0084
 1009MOL0     C33122   1.900   3.724   4.837  0.0083  0.6449  0.5883
 1009MOL0     H33123   1.536   3.940   5.131 -1.4191  1.7998  3.4352
 1009MOL0     H33124   1.327   3.933   5.244  0.2834  0.5983 -1.4043
 1009MOL0     H33125   1.113   3.822   5.213  2.6643 -1.6817 -0.4341
 1009MOL0     H33126   1.127   3.884   5.380 -2.2736  0.0340  0.5897
 1009MOL0     H33127   0.940   3.691   5.441 -3.0461  0.1628 -0.5829
 1009MOL0     H33128   0.935   3.669   5.266  1.2176  0.7858 -2.2833
 1009MOL0     H33129   0.860   3.915   5.257  0.8562  2.0039  1.1313
 1009MOL0     H33130   0.893   3.947   5.418 -4.3255  0.9627  2.7346
 1009MOL0     H33131   0.701   3.742   5.320  0.1017  0.0102  0.5115
 1009MOL0     H33132   0.726   3.774   5.486  0.9673 -1.7065 -0.5381
 1009MOL0     H33133   0.615   3.984   5.283  0.9677  0.4630  0.4646
 1009MOL0     H33134   0.638   4.013   5.453  1.2328 -1.0101  0.3880
 1009MOL0     H33135   0.490   3.767   5.461  0.5726 -0.6306 -0.4684
 1009MOL0     H33136   0.442   3.823   5.307  3.0974 -1.8050 -1.0803
 1009MOL0     H33137   0.426   3.956   5.577  0.0583 -3.0143 -0.1647
 1009MOL0     H33138   0.395   4.054   5.430  0.5964 -0.1340 -0.8307
 1009MOL0     H33139   0.206   3.920   5.359  1.1784 -0.3254 -0.4184
 1009MOL0     H33140   0.175   4.000   5.507  1.4484  0.8286 -0.3126
 1009MOL0     H33141   0.168   3.813   5.725  1.1528 -3.1199  1.7257
 1009MOL0     H33142   0.213   3.518   5.829  0.0820  1.1604 -0.2164
 1009MOL0     H33143   0.143   3.408   5.708 -0.3712 -1.4488  2.4798
 1009MOL0     H33144  -0.002   3.639   5.829  1.8226  1.7992 -2.4231
 1009MOL0     H33145  -0.035   3.463   5.859  1.8348 -1.5698 -1.1294
 1009MOL0     H33146  -0.080   3.634   5.606  0.7058 -1.2585 -0.9400
 1009MOL0     H33147  -0.074   3.464   5.589  2.8968  0.0121  0.4677
 1009MOL0     H33148  -0.263   3.420   5.718 -3.8269 -0.9617 -2.7169
 1009MOL0     H33149  -0.301   3.543   5.595 -0.0942 -1.2314 -0.0201
 1009MOL0     H33150  -0.400   3.790   5.933 -3.3784  3.7453 -1.7912
 1009MOL0     H33151  -0.616   3.785   6.056 -2.0623  0.2979 -0.9144
 1009MOL0     H33152  -1.082   3.650   6.033 -2.8890  0.2955  0.6863
 1009MOL0     H33153  -1.317   3.587   6.118 -2.5570 -1.6307 -2.4915
 1009MOL0     H33154  -1.504   3.503   6.161  1.0070 -0.4371  0.5759
 1009MOL0     H33155  -1.428   3.516   6.320 -0.1302  0.8158 -0.1392
 1009MOL0     H33156  -1.657   3.486   6.333 -0.4360  0.3406 -2.1925
 1009MOL0     H33157  -1.575   3.355   6.421 -2.9685 -0.1199  0.9197
 1009MOL0     H33158  -1.618   3.203   6.211 -1.7541 -1.4533  1.1064
 1009MOL0     H33159  -1.729   3.324   6.162 -1.5315 -2.3064 -0.8681
 1009MOL0     H33160  -1.724   3.194   6.439  0.0556  1.3025 -0.0678
 1009MOL0     H33161  -1.853   3.307   6.391 -0.6000 -0.4715  1.1102
 1009MOL0     H33162  -1.893   3.047   6.373  0.1026  0.8541  0.8101
 1009MOL0     H33163  -1.802   3.056   6.221  0.4521  0.2987  0.2780
 1009MOL0     H33164  -1.963   3.260   6.153  0.6621  1.0592  1.1932
 1009MOL0     H33165  -2.059   3.211   6.288  1.7212  1.9479  0.6150
 1009MOL0     H33166  -2.119   3.018   6.208 -0.4533  0.2143 -0.6459
 1009MOL0     H33167  -2.124   3.113   6.068 -0.5413  2.3797  1.3334
 1009MOL0     H33168  -2.027   2.912   5.980  1.7750  1.9272 -1.7204
 1009MOL0     H33169  -1.921   2.890   6.117 -0.7379 -0.9541 -0.5801
 1009MOL0     H33170  -1.167   3.200   6.221  1.7484 -1.2289 -2.6869
 1009MOL0     H33171  -0.954   3.250   6.139 -1.8097 -2.0254 -1.2259
 1009MOL0     H33172  -0.706   3.414   5.862  0.1897 -0.5620 -0.2557
 1009MOL0     H33173  -0.481   3.403   5.757  0.2766  0.7235 -1.7666
 1009MOL0     H33174   1.354   3.504   5.248 -0.1931 -0.2378  0.4506
 1009MOL0     H33175   1.538   3.519   5.092  2.3816  1.1049  0.9453
 1009MOL0     H33176   2.039   3.858   5.118  4.4731 -0.0533 -0.3456
 1009MOL0     H33177   2.227   3.847   4.997 -1.4342  0.8169  0.4386
 1009MOL0     H33178   2.395   3.766   4.871  1.5141  1.9971 -0.3011
 1009MOL0     H33179   2.390   3.874   4.748  1.1525 -0.6647 -2.2221
 1009MOL0     H33180   2.475   3.577   4.714 -0.8688 -0.4029  0.1241
 1009MOL0     H33181   2.471   3.700   4.584 -0.6863 -1.3841  0.3588
 1009MOL0     H33182   2.634   3.713   4.827 -2.0424  2.2520 -0.7586
 1009MOL0     H33183   2.639   3.836   4.700  0.0926  0.1427 -1.4424
 1009MOL0     H33184   2.732   3.553   4.650  2.5338  0.4328  0.4520
 1009MOL0     H33185   2.690   3.659   4.527 -2.6399 -0.6483 -0.0396
 1009MOL0     H33186   3.041   3.861   4.614 -1.6592  1.5225 -0.7141
 1009MOL0     H33187   2.009   3.720   4.657  1.5747  0.9298 -0.1473
 1009MOL0     H33188   1.804   3.697   4.793 -0.4560 -1.4677  2.6805
 1010MOL0     O33189   7.856   1.399   5.754  0.6518  0.8904  0.7076
 1010MOL0     C33190   7.824   1.471   5.848  0.9487 -0.1709  0.0967
 1010MOL0     O33191   7.901   1.572   5.894 -0.1503  0.0758  0.6572
 1010MOL0     C33192   8.021   1.596   5.833 -0.3014  0.4447  0.1547
 1010MOL0     C33193   8.045   1.685   5.728  0.3873 -0.1510 -0.7572
 1010MOL0     C33194   8.174   1.694   5.671 -0.4436 -0.1737  0.0857
 1010MOL0     C33195   8.279   1.613   5.710  0.2310 -0.1490  0.4116
 1010MOL0     O33196   8.400   1.641   5.650 -0.0572  0.2731 -0.5001
 1010MOL0     C33197   8.495   1.536   5.665 -0.1468 -0.2056  0.8073
 1010MOL0     C33198   8.634   1.596   5.619  0.4118  0.8633 -0.4034
 1010MOL0     C33199   8.659   1.606   5.468 -0.2855 -0.2480 -0.3745
 1010MOL0     C33200   8.811   1.612   5.436  0.4730 -0.3502 -0.7657
 1010MOL0     C33201   8.843   1.633   5.289  0.6407 -0.1489 -0.2301
 1010MOL0     C33202   8.987   1.679   5.270  0.4852 -0.0983  0.5932
 1010MOL0     C33203   9.008   1.841   5.279  0.5438  0.0270  0.0449
 1010MOL0     C33204   8.962   1.923   5.159 -0.2461  0.3986 -0.0386
 1010MOL0     N33205   8.868   1.867   5.065  0.1844  0.3296  0.6548
 1010MOL0     C33206   8.904   1.771   4.974  0.2058  0.0455  0.5236
 1010MOL0     C33207   8.788   1.749   4.906 -0.3075 -0.3789  0.2282
 1010MOL0     C33208   8.791   1.643   4.801  0.0487  0.7192  0.2443
 1010MOL0     C33209   8.708   1.520   4.848 -1.0111 -0.6205 -0.4048
 1010MOL0     C33210   8.705   1.406   4.744  0.1304 -0.0769 -0.7243
 1010MOL0     C33211   8.563   1.358   4.730  0.1976 -0.8150  0.7719
 1010MOL0     O33212   8.525   1.296   4.848  0.8775 -0.0463  0.4439
 1010MOL0     C33213   8.389   1.275   4.872  0.1015  0.1589  0.1603
 1010MOL0     C33214   8.284   1.330   4.809  0.2850 -0.6423 -0.1145
 1010MOL0     C33215   8.153   1.309   4.851  0.5954 -0.6360 -0.1580
 1010MOL0     C33216   8.127   1.235   4.968  0.2753 -0.4813  0.1319
 1010MOL0     C33217   7.992   1.224   5.021  0.0122  0.2700  0.2505
 1010MOL0     O33218   7.974   1.240   5.161 -0.8862  0.2452 -0.2384
 1010MOL0     C33219   7.845   1.237   5.220 -0.3304  0.3774  0.9916
 1010MOL0     C33220   7.853   1.220   5.360  0.1380 -0.2781  0.6285
 1010MOL0     C33221   7.737   1.232   5.445 -0.0703 -0.4808  0.1381
 1010MOL0     C33222   7.615   1.244   5.377 -0.5267  0.5317  0.6745
 1010MOL0     O33223   7.493   1.249   5.442  0.8941 -0.2875  0.9860
 1010MOL0     C33224   7.489   1.327   5.555 -0.4308 -0.4474 -0.2437
 1010MOL0     C33225   7.354   1.386   5.588 -0.3322 -0.3287  0.4615
 1010MOL0     C33226   7.312   1.483   5.477 -0.9746 -0.2778 -0.1325
 1010MOL0     C33227   7.188   1.553   5.529  0.5126  0.4906  0.3273
 1010MOL0     C33228   7.098   1.612   5.426  0.1856 -0.0738 -0.0300
 1010MOL0     C33229   7.013   1.501   5.350 -0.2235 -0.3542  0.5755
 1010MOL0     C33230   6.919   1.534   5.233 -0.5746 -0.3902  0.2768
 1010MOL0     C33231   6.830   1.661   5.243  0.2717 -0.4699 -0.5142
 1010MOL0    Cl33232   6.706   1.626   5.360 -0.1115 -0.4429 -0.5696
 1010MOL0     C33233   7.606   1.253   5.240  0.0352  0.0130  0.5159
 1010MOL0     C33234   7.721   1.257   5.159 -0.2914  0.3696  0.3393
 1010MOL0     O33235   7.908   1.194   4.940  0.0554  0.1579  0.1280
 1010MOL0     C33236   8.232   1.185   5.044  0.3566  0.2425  0.7103
 1010MOL0     C33237   8.360   1.205   4.991  0.1117 -0.3149  0.0461
 1010MOL0     N33238   8.684   1.828   4.954 -0.5572 -0.5370  0.0784
 1010MOL0     N33239   8.733   1.889   5.059 -0.0458  0.6752 -0.2651
 1010MOL0     C33240   8.261   1.525   5.820  0.2671 -0.1602  0.5689
 1010MOL0     C33241   8.135   1.522   5.883  0.4209  0.0528  0.1262
 1010MOL0     C33242   7.686   1.453   5.909 -0.3634 -0.0714 -0.3205
 1010MOL0     C33243   7.628   1.548   5.996  0.1944  0.4427 -0.6895
 1010MOL0     C33244   7.515   1.514   6.074 -0.2933  0.7328 -0.8157
 1010MOL0     C33245   7.451   1.390   6.059  0.3611 -0.1839  0.3142
 1010MOL0     O33246   7.343   1.367   6.138  0.5711  0.1722  1.0708
 1010MOL0     C33247   7.341   1.253   6.223 -0.2246  0.8890  0.0343
 1010MOL0     C33248   7.410   1.291   6.351 -0.3437 -0.7205 -0.8136
 1010MOL0     C33249   7.343   1.413   6.420 -0.0979 -1.0422  0.5214
 1010MOL0     C33250   7.199   1.407   6.478 -0.5227  0.1240  0.0510
 1010MOL0     C33251   7.164   1.283   6.547  0.4070  0.1225  0.0890
 1010MOL0     C33252   7.137   1.177   6.600 -0.4813  0.5319  0.5803
 1010MOL0     C33253   7.508   1.300   5.964  0.8093  0.0169 -0.1650
 1010MOL0     C33254   7.620   1.326   5.898 -0.4293 -0.5728 -0.3000
 1010MOL0     H33255   7.962   1.748   5.697 -1.2607 -0.1415  3.1350
 1010MOL0     H33256   8.202   1.763   5.591 -0.3600 -0.4700 -0.1399
 1010MOL0     H33257   8.463   1.452   5.603 -2.1830  1.3520 -0.3912
 1010MOL0     H33258   8.504   1.506   5.770 -0.2420  1.2458  1.2589
 1010MOL0     H33259   8.710   1.531   5.664 -0.5940 -0.5128 -0.6019
 1010MOL0     H33260   8.650   1.686   5.678 -2.4013  1.9162 -1.0833
 1010MOL0     H33261   8.611   1.688   5.415 -1.7012 -1.9431 -1.8357
 1010MOL0     H33262   8.615   1.515   5.426 -2.1695  1.4166 -2.1524
 1010MOL0     H33263   8.852   1.705   5.477  0.1451  0.6542 -2.5860
 1010MOL0     H33264   8.868   1.528   5.477  2.0671  1.4329  0.8647
 1010MOL0     H33265   8.767   1.698   5.244  0.1624 -0.4222  0.1600
 1010MOL0     H33266   8.830   1.533   5.246 -2.1522  1.4840 -3.6676
 1010MOL0     H33267   9.021   1.635   5.176  1.9954  2.9193 -0.4139
 1010MOL0     H33268   9.046   1.636   5.351  0.7242  1.2035  1.1376
 1010MOL0     H33269   8.970   1.890   5.370 -0.5549 -0.9598  0.1393
 1010MOL0     H33270   9.115   1.859   5.271  0.4841  0.1431 -0.5517
 1010MOL0     H33271   9.043   1.970   5.104  0.9340 -0.5926  0.7912
 1010MOL0     H33272   8.923   2.012   5.210 -2.1238 -1.4229  1.9421
 1010MOL0     H33273   8.998   1.720   4.959  1.3823  2.3106 -0.2715
 1010MOL0     H33274   8.895   1.620   4.775 -0.8068 -2.6917 -0.6833
 1010MOL0     H33275   8.747   1.676   4.707  0.0793  3.2835  1.0485
 1010MOL0     H33276   8.609   1.564   4.864  0.0033  1.5218  0.4375
 1010MOL0     H33277   8.751   1.496   4.946  1.5694  1.1487 -0.9988
 1010MOL0     H33278   8.737   1.433   4.643 -0.9538  2.1660 -0.5313
 1010MOL0     H33279   8.769   1.326   4.782  1.1115  2.0003  2.4071
 1010MOL0     H33280   8.552   1.291   4.644  3.2120 -0.3406 -0.0926
 1010MOL0     H33281   8.499   1.446   4.731 -0.7411 -1.4740  1.7872
 1010MOL0     H33282   8.302   1.378   4.714 -2.3355 -1.4502 -1.0947
 1010MOL0     H33283   8.067   1.353   4.801  1.3664  3.5717  1.7741
 1010MOL0     H33284   7.950   1.223   5.408 -0.3339  2.5299  1.6332
 1010MOL0     H33285   7.743   1.232   5.553  0.4009 -2.0570  0.1347
 1010MOL0     H33286   7.559   1.410   5.548 -0.3358 -0.6869 -3.5668
 1010MOL0     H33287   7.528   1.263   5.636  0.1487 -1.2120 -1.1018
 1010MOL0     H33288   7.373   1.426   5.688  0.7371 -0.5352  0.3497
 1010MOL0     H33289   7.285   1.302   5.602  0.8638 -1.7684 -1.7910
 1010MOL0     H33290   7.294   1.424   5.386 -0.3375 -1.0641  0.2445
 1010MOL0     H33291   7.381   1.566   5.456  1.5475 -2.2545 -0.1050
 1010MOL0     H33292   7.134   1.475   5.585  1.3686  0.9875  1.9047
 1010MOL0     H33293   7.221   1.632   5.596  2.8836 -0.0135 -0.1679
 1010MOL0     H33294   7.161   1.668   5.357 -2.9807 -0.1061 -3.2430
 1010MOL0     H33295   7.032   1.680   5.482  0.6506  0.4557 -0.1241
 1010MOL0     H33296   6.950   1.458   5.428 -0.2986  0.2521  0.8557
 1010MOL0     H33297   7.075   1.422   5.308  0.2793 -0.2270  1.0710
 1010MOL0     H33298   6.983   1.548   5.145  0.6659  2.2895  1.4686
 1010MOL0     H33299   6.854   1.448   5.215 -0.4267 -0.0911 -1.9800
 1010MOL0     H33300   6.781   1.681   5.147  0.6444 -4.1372 -1.5945
 1010MOL0     H33301   6.884   1.752   5.271  0.6826  0.1198 -2.9803
 1010MOL0     H33302   7.517   1.258   5.177 -0.8375  1.3986  1.7889
 1010MOL0     H33303   7.707   1.251   5.051  0.2258 -1.3745  0.3520
 1010MOL0     H33304   8.207   1.134   5.136 -0.9862  1.4615  1.0547
 1010MOL0     H33305   8.439   1.178   5.060 -1.2292 -0.6962  1.5181
 1010MOL0     H33306   8.336   1.468   5.875  0.2962  0.1969  0.9058
 1010MOL0     H33307   8.131   1.460   5.972 -1.9828 -0.0279  0.0273
 1010MOL0     H33308   7.677   1.640   6.026  2.0405 -1.3500  2.3555
 1010MOL0     H33309   7.462   1.576   6.145  0.4210 -1.7419  2.0502
 1010MOL0     H33310   7.387   1.175   6.162 -1.5768 -1.6514  2.0510
 1010MOL0     H33311   7.238   1.223   6.246  0.3269 -0.7430  0.5577
 1010MOL0     H33312   7.415   1.198   6.408 -1.3461 -0.8854 -0.9606
 1010MOL0     H33313   7.512   1.328   6.343 -0.6475  0.4225  0.2246
 1010MOL0     H33314   7.336   1.488   6.340 -0.6090 -0.9380  0.6581
 1010MOL0     H33315   7.410   1.441   6.501  0.3097  3.7166 -1.1496
 1010MOL0     H33316   7.183   1.497   6.539 -1.5740 -1.0014  1.5274
 1010MOL0     H33317   7.129   1.421   6.396  1.2004  2.3812 -1.1318
 1010MOL0     H33318   7.130   1.074   6.627  1.2387 -0.5057 -2.4158
 1010MOL0     H33319   7.475   1.198   5.943  0.7240  0.3225 -1.6538
 1010MOL0     H33320   7.666   1.256   5.830  1.6381 -0.5379  0.9656
 1011MOL0     O33321   7.714   0.748   3.401  0.1509 -0.1950 -0.4662
 1011MOL0     C33322   7.704   0.674   3.308 -0.9539  0.3422  0.1716
 1011MOL0     O33323   7.592   0.597   3.276  0.5527 -0.0396 -0.2187
 1011MOL0     C33324   7.485   0.596   3.355 -0.4704  0.2146  0.1043
 1011MOL0     C33325   7.369   0.622   3.296  1.0950 -0.5159 -0.1558
 1011MOL0     C33326   7.247   0.634   3.368  0.4213  1.0003  0.5046
 1011MOL0     C33327   7.250   0.616   3.511 -0.7194  0.8371 -0.5862
 1011MOL0     O33328   7.144   0.604   3.592  0.2469  0.6326 -0.1517
 1011MOL0     C33329   7.035   0.692   3.561  0.7379  0.5262  1.0257
 1011MOL0     C33330   6.929   0.681   3.668 -0.4696  0.1423  0.4332
 1011MOL0     C33331   6.803   0.743   3.625 -0.5354  0.1450 -0.6079
 1011MOL0     C33332   6.814   0.903   3.632 -0.6945 -0.1280  0.0378
 1011MOL0     C33333   6.676   0.961   3.614  0.4324 -0.2902 -0.2308
 1011MOL0     C33334   6.594   0.957   3.739  0.4670  0.3236 -1.2280
 1011MOL0     C33335   6.480   1.056   3.750 -0.2353  0.5159 -0.8888
 1011MOL0     C33336   6.383   1.028   3.641 -0.2542  0.7143  0.6047
 1011MOL0     N33337   6.273   1.119   3.623  0.0122 -0.2692  0.2256
 1011MOL0     C33338   6.156   1.123   3.696 -0.0975 -0.1584  0.7736
 1011MOL0     C33339   6.086   1.228   3.649  0.3310 -0.7288  0.0387
 1011MOL0     C33340   5.942   1.268   3.678 -0.7138 -0.2396 -0.5081
 1011MOL0     C33341   5.911   1.239   3.829  0.8783  0.6510 -0.3306
 1011MOL0     C33342   5.846   1.347   3.904  0.0241 -0.0172  0.3408
 1011MOL0     C33343   5.703   1.382   3.850  0.9300  0.5850  0.3389
 1011MOL0     O33344   5.645   1.481   3.939  0.1650  0.1018  0.0314
 1011MOL0     C33345   5.512   1.522   3.928 -0.1050 -0.3695  0.3149
 1011MOL0     C33346   5.455   1.620   4.008 -0.1974 -0.3177 -1.2247
 1011MOL0     C33347   5.328   1.670   3.991  1.3052 -0.1440  0.3270
 1011MOL0     C33348   5.239   1.613   3.894 -0.5127  0.5544  0.4377
 1011MOL0     C33349   5.097   1.638   3.879  0.0301 -0.0478  0.2719
 1011MOL0     O33350   5.032   1.585   3.778  0.1913  0.0355  0.6139
 1011MOL0     C33351   4.896   1.601   3.780 -0.4286  0.1346  0.1206
 1011MOL0     C33352   4.812   1.497   3.826 -0.2357  0.7811 -0.4879
 1011MOL0     C33353   4.674   1.513   3.827 -0.5382  0.2327 -0.1576
 1011MOL0     C33354   4.611   1.638   3.795  0.3952 -0.1693  0.5581
 1011MOL0     O33355   4.475   1.632   3.816  0.1337 -0.2368  0.3588
 1011MOL0     C33356   4.400   1.751   3.804  0.1956 -0.2018 -0.1838
 1011MOL0     C33357   4.358   1.774   3.653 -0.8349  0.1632  0.1004
 1011MOL0     C33358   4.247   1.879   3.634 -0.0806 -0.0257 -0.2907
 1011MOL0     C33359   4.209   1.905   3.486  0.5432 -0.2870 -0.5776
 1011MOL0     C33360   4.073   1.980   3.461 -0.2480  0.8824  0.4814
 1011MOL0     C33361   4.080   2.123   3.482  0.4466  0.3247 -0.4877
 1011MOL0     C33362   3.950   2.187   3.441 -0.2996 -0.9836  0.1646
 1011MOL0     C33363   3.940   2.331   3.487  0.0120  0.2999 -0.2378
 1011MOL0    Cl33364   4.024   2.442   3.358  0.1993  0.0729 -0.2864
 1011MOL0     C33365   4.694   1.744   3.744  0.4000  1.1114  0.1767
 1011MOL0     C33366   4.834   1.719   3.741 -0.1571  0.1176  1.3039
 1011MOL0     O33367   5.049   1.694   3.973 -0.8052 -0.2161  0.4185
 1011MOL0     C33368   5.301   1.513   3.811  0.9329 -0.2141  0.1444
 1011MOL0     C33369   5.434   1.473   3.824  0.0919  0.0757 -0.0305
 1011MOL0     N33370   6.154   1.269   3.532  0.7452 -0.5357  0.1991
 1011MOL0     N33371   6.260   1.197   3.514 -0.0073  0.2963  0.6470
 1011MOL0     C33372   7.374   0.589   3.568  0.3863  0.2277 -0.0216
 1011MOL0     C33373   7.492   0.572   3.494 -0.0981 -0.6950 -0.7587
 1011MOL0     C33374   7.828   0.639   3.233  0.7522  0.0831 -0.1420
 1011MOL0     C33375   7.826   0.567   3.113 -0.0747 -0.4502  0.6990
 1011MOL0     C33376   7.943   0.531   3.046  0.4375 -0.5157 -0.4863
 1011MOL0     C33377   8.069   0.561   3.091 -0.3214 -0.4581 -0.0937
 1011MOL0     O33378   8.180   0.505   3.033  0.3630 -0.3434  0.5016
 1011MOL0     C33379   8.311   0.525   3.077  0.2320 -0.2880  0.0991
 1011MOL0     C33380   8.341   0.441   3.198  0.1631 -0.3504 -0.4635
 1011MOL0     C33381   8.480   0.462   3.249 -0.3941  0.1542  0.3023
 1011MOL0     C33382   8.584   0.400   3.163  0.7610 -0.0970  0.0124
 1011MOL0     C33383   8.706   0.362   3.237 -0.2535  0.4443  0.2543
 1011MOL0     C33384   8.798   0.308   3.299  0.4906 -0.6020  0.2734
 1011MOL0     C33385   8.074   0.640   3.207 -0.8368 -0.2081 -0.1172
 1011MOL0     C33386   7.956   0.689   3.273  0.0510 -0.0165  0.0055
 1011MOL0     H33387   7.360   0.656   3.193 -1.8912  1.8173  0.7266
 1011MOL0     H33388   7.154   0.646   3.314  0.5668 -1.2023 -0.3655
 1011MOL0     H33389   6.979   0.672   3.469 -1.2043  1.4694  1.9518
 1011MOL0     H33390   7.077   0.792   3.550 -1.1660  1.0516 -4.5572
 1011MOL0     H33391   6.962   0.720   3.765  0.3256 -0.4995  0.4305
 1011MOL0     H33392   6.921   0.574   3.690 -0.5358  0.3675  1.5626
 1011MOL0     H33393   6.727   0.710   3.696 -2.1397 -0.1613 -2.3856
 1011MOL0     H33394   6.769   0.712   3.526  0.2286  0.1422 -0.8773
 1011MOL0     H33395   6.857   0.942   3.725 -2.7254  1.4470  0.3562
 1011MOL0     H33396   6.887   0.931   3.555  0.8033  0.7016  1.6994
 1011MOL0     H33397   6.626   0.914   3.529  1.2834 -2.4419  0.3851
 1011MOL0     H33398   6.686   1.064   3.578 -0.8943 -0.8571 -2.4136
 1011MOL0     H33399   6.654   0.984   3.827  0.8226  2.0006 -1.9521
 1011MOL0     H33400   6.552   0.857   3.750  2.6199 -0.3959  2.1095
 1011MOL0     H33401   6.439   1.048   3.851 -0.8054  1.2524 -1.0500
 1011MOL0     H33402   6.530   1.153   3.744  1.5753 -0.4533 -4.9628
 1011MOL0     H33403   6.346   0.925   3.654 -0.9064  0.9260  0.4552
 1011MOL0     H33404   6.431   1.030   3.543  0.4814 -3.7875  0.6288
 1011MOL0     H33405   6.127   1.059   3.779  0.7579 -1.7243 -0.0972
 1011MOL0     H33406   5.889   1.196   3.616  0.2774  0.4482 -2.2307
 1011MOL0     H33407   5.923   1.368   3.637 -0.5850 -0.7974 -2.0154
 1011MOL0     H33408   6.003   1.226   3.887  1.4778 -1.4923 -1.6930
 1011MOL0     H33409   5.859   1.144   3.830  1.4962  0.2231  3.0035
 1011MOL0     H33410   5.826   1.309   4.005 -1.2167 -1.0249 -0.2489
 1011MOL0     H33411   5.909   1.436   3.911 -1.9155  1.4169  0.4343
 1011MOL0     H33412   5.635   1.296   3.841  0.8419  0.8364 -2.0743
 1011MOL0     H33413   5.700   1.411   3.745 -1.8463 -0.7850 -0.0563
 1011MOL0     H33414   5.512   1.660   4.090 -1.0633  0.3391 -0.9232
 1011MOL0     H33415   5.285   1.741   4.060 -0.3319  1.3193 -2.0592
 1011MOL0     H33416   4.842   1.408   3.881 -0.7236 -0.3976 -2.0520
 1011MOL0     H33417   4.616   1.434   3.873 -1.3968  1.3782  0.7456
 1011MOL0     H33418   4.453   1.833   3.854 -0.7610  1.1577 -1.3249
 1011MOL0     H33419   4.311   1.725   3.862 -0.2593 -1.2270 -1.3176
 1011MOL0     H33420   4.325   1.673   3.628  1.8981 -1.4380  2.2966
 1011MOL0     H33421   4.448   1.794   3.593 -0.1583 -2.4739  0.1071
 1011MOL0     H33422   4.282   1.975   3.674 -0.2225 -0.3019  0.5273
 1011MOL0     H33423   4.162   1.848   3.695 -0.3725  0.0372 -0.6623
 1011MOL0     H33424   4.292   1.956   3.437 -1.7264  0.5545 -3.8272
 1011MOL0     H33425   4.197   1.806   3.441 -1.2912 -0.0842 -0.6071
 1011MOL0     H33426   4.004   1.937   3.535  2.7684 -5.9521  0.0371
 1011MOL0     H33427   4.049   1.963   3.356  0.3725 -1.4349  0.6654
 1011MOL0     H33428   4.156   2.170   3.419 -0.7553  1.4625 -1.1293
 1011MOL0     H33429   4.108   2.134   3.588  0.7433 -1.9679 -0.2902
 1011MOL0     H33430   3.939   2.185   3.332 -1.8925 -0.1812  0.2818
 1011MOL0     H33431   3.874   2.123   3.487 -0.3419 -0.1198  1.3423
 1011MOL0     H33432   3.984   2.342   3.587  1.4266  1.1087 -0.9128
 1011MOL0     H33433   3.835   2.355   3.503  0.3317  2.0817 -0.6296
 1011MOL0     H33434   4.656   1.837   3.701 -1.1734 -0.1368 -1.2824
 1011MOL0     H33435   4.890   1.799   3.693 -1.0013 -0.7840 -1.3512
 1011MOL0     H33436   5.241   1.474   3.729 -1.4076  1.7698  0.8195
 1011MOL0     H33437   5.475   1.402   3.752  1.9251 -0.5384  1.5465
 1011MOL0     H33438   7.392   0.577   3.675  0.4566  1.0853  0.0651
 1011MOL0     H33439   7.593   0.562   3.533  0.7651  0.7304 -2.4819
 1011MOL0     H33440   7.736   0.524   3.071  0.8893  0.8797 -3.1898
 1011MOL0     H33441   7.938   0.485   2.948 -0.3369 -0.5185 -0.4452
 1011MOL0     H33442   8.328   0.631   3.096  0.8551 -0.1229 -1.2689
 1011MOL0     H33443   8.379   0.501   2.994  1.2767 -1.2007  1.1730
 1011MOL0     H33444   8.266   0.471   3.272 -0.1443  1.3965 -1.4391
 1011MOL0     H33445   8.313   0.338   3.174 -1.6812  0.3908 -1.6801
 1011MOL0     H33446   8.482   0.413   3.347  1.4066  0.3943  0.4165
 1011MOL0     H33447   8.518   0.560   3.278 -0.0039 -0.1868  0.9788
 1011MOL0     H33448   8.533   0.306   3.137  2.6160 -0.8614 -1.0825
 1011MOL0     H33449   8.606   0.456   3.071 -1.3425  0.5689 -0.1422
 1011MOL0     H33450   8.864   0.243   3.352  2.8898  2.2629  1.1064
 1011MOL0     H33451   8.168   0.679   3.244 -0.7122 -0.0087 -0.6451
 1011MOL0     H33452   7.950   0.761   3.355 -2.0617 -1.1902  0.9809
 1012MOL0     O33453   4.522   1.291   0.719 -0.3681 -0.5737 -0.6059
 1012MOL0     C33454   4.464   1.243   0.817  0.0394 -0.5066 -0.6943
 1012MOL0     O33455   4.334   1.212   0.824 -0.2937  1.2590 -0.2096
 1012MOL0     C33456   4.253   1.261   0.722  1.2832 -0.2511 -0.3220
 1012MOL0     C33457   4.145   1.183   0.671 -0.2042 -0.2829  0.4405
 1012MOL0     C33458   4.048   1.238   0.576 -0.6161  0.5791  0.0418
 1012MOL0     C33459   4.052   1.369   0.543  0.4679 -0.0450 -0.6936
 1012MOL0     O33460   3.976   1.436   0.447  0.7564  0.6484  0.0224
 1012MOL0     C33461   3.878   1.361   0.375 -0.1456  0.1795 -0.1119
 1012MOL0     C33462   3.807   1.463   0.289  0.0005 -1.0717 -0.3772
 1012MOL0     C33463   3.658   1.426   0.261 -0.3617  0.1300  0.3466
 1012MOL0     C33464   3.574   1.539   0.210 -0.4473  0.4909  0.6733
 1012MOL0     C33465   3.432   1.489   0.170  0.1325  0.2010  0.2925
 1012MOL0     C33466   3.375   1.583   0.068  0.2697 -0.2123 -0.2517
 1012MOL0     C33467   3.221   1.564   0.048 -0.3706 -0.3575  0.1891
 1012MOL0     C33468   3.178   1.656  -0.066  0.3841 -0.8705 -0.2365
 1012MOL0     N33469   3.034   1.645  -0.077  0.0634  0.0045  1.0533
 1012MOL0     C33470   2.968   1.651  -0.195  0.1848  0.4468 -0.1511
 1012MOL0     C33471   2.835   1.627  -0.165 -0.0244  0.1012  0.1701
 1012MOL0     C33472   2.724   1.628  -0.254 -0.5458  0.8205  0.5909
 1012MOL0     C33473   2.622   1.516  -0.231  0.0698 -0.1933 -0.3355
 1012MOL0     C33474   2.497   1.548  -0.147  0.3959 -0.3476  0.0970
 1012MOL0     C33475   2.397   1.624  -0.231 -0.0783 -0.0412 -0.4872
 1012MOL0     O33476   2.302   1.537  -0.292 -0.0108  0.0150 -0.7041
 1012MOL0     C33477   2.177   1.573  -0.257 -0.3620  0.4998  0.3559
 1012MOL0     C33478   2.089   1.598  -0.361 -0.5556  0.2500 -0.3813
 1012MOL0     C33479   1.950   1.625  -0.338 -0.3899 -0.7155 -0.0814
 1012MOL0     C33480   1.909   1.650  -0.210 -0.4600 -0.0877  0.1125
 1012MOL0     C33481   1.762   1.668  -0.180  0.3280 -0.7008  0.5416
 1012MOL0     O33482   1.727   1.674  -0.048 -0.6299  0.2729  0.7153
 1012MOL0     C33483   1.600   1.699  -0.012 -0.6435 -0.7035 -0.0219
 1012MOL0     C33484   1.494   1.614  -0.010 -0.0219  0.6262  0.1083
 1012MOL0     C33485   1.365   1.645   0.049 -0.2155 -1.0051  0.0651
 1012MOL0     C33486   1.346   1.771   0.114 -0.1652  0.0493 -0.3013
 1012MOL0     O33487   1.233   1.800   0.191 -0.2905 -0.6798 -0.8105
 1012MOL0     C33488   1.130   1.697   0.188  0.7461  0.5390 -0.5372
 1012MOL0     C33489   1.027   1.757   0.273  0.6894  0.0664 -0.5418
 1012MOL0     C33490   0.893   1.683   0.266 -0.4927 -0.2774  0.0417
 1012MOL0     C33491   0.769   1.770   0.309 -0.6767 -0.0847  0.3879
 1012MOL0     C33492   0.778   1.823   0.448  0.4833  0.3650  0.2599
 1012MOL0     C33493   0.761   1.719   0.566 -0.1904 -0.9869  0.0350
 1012MOL0     C33494   0.809   1.796   0.695 -0.4080  0.8139 -1.0088
 1012MOL0     C33495   0.717   1.905   0.745 -0.6072  0.7773 -0.2281
 1012MOL0    Cl33496   0.721   1.942   0.914 -0.1792 -0.2223 -0.2801
 1012MOL0     C33497   1.454   1.857   0.105 -0.6469  0.2316 -0.3336
 1012MOL0     C33498   1.584   1.824   0.047  0.5604 -0.0655 -0.1605
 1012MOL0     O33499   1.682   1.678  -0.277  0.1421  0.0060  0.3936
 1012MOL0     C33500   2.004   1.642  -0.111 -0.6294  0.1803 -0.5219
 1012MOL0     C33501   2.136   1.587  -0.128  0.5693 -0.7911  0.1212
 1012MOL0     N33502   2.835   1.594  -0.025  0.6462 -0.2163  0.0364
 1012MOL0     N33503   2.954   1.616   0.024  0.0433 -0.2830 -0.9809
 1012MOL0     C33504   4.157   1.447   0.593  0.4590 -0.9197  0.0077
 1012MOL0     C33505   4.246   1.400   0.691  0.0193  0.0550  0.6414
 1012MOL0     C33506   4.555   1.204   0.937  0.1640 -0.6600  0.2783
 1012MOL0     C33507   4.491   1.154   1.052 -0.2375  0.9124 -0.3113
 1012MOL0     C33508   4.561   1.091   1.157  0.5984 -1.6015 -0.5311
 1012MOL0     C33509   4.707   1.087   1.149 -0.3460 -0.0882 -0.1768
 1012MOL0     O33510   4.789   1.047   1.252 -0.4324  0.2410  0.4399
 1012MOL0     C33511   4.738   0.988   1.371  0.3139  0.4588 -0.1981
 1012MOL0     C33512   4.854   0.956   1.464  0.2345 -0.7105 -0.1238
 1012MOL0     C33513   4.901   0.813   1.456  0.4131 -0.2738  0.2406
 1012MOL0     C33514   5.055   0.788   1.469  0.1101 -0.1352 -1.1246
 1012MOL0     C33515   5.130   0.847   1.364  0.3444 -0.7175 -0.0094
 1012MOL0     C33516   5.182   0.909   1.273  0.9657  0.5537 -0.1911
 1012MOL0     C33517   4.772   1.126   1.029  0.5246  0.4386 -0.0426
 1012MOL0     C33518   4.694   1.187   0.923 -0.5379 -0.3387 -0.1205
 1012MOL0     H33519   4.144   1.081   0.707  1.0814 -0.6898 -0.6213
 1012MOL0     H33520   3.979   1.162   0.539  1.0285 -0.0730 -1.8942
 1012MOL0     H33521   3.803   1.312   0.438 -1.2167  0.0141 -1.4734
 1012MOL0     H33522   3.923   1.284   0.311 -2.5888 -1.6003  0.1822
 1012MOL0     H33523   3.858   1.469   0.193  0.7806 -2.8424 -0.1078
 1012MOL0     H33524   3.800   1.561   0.338 -0.5691 -0.6091 -1.3611
 1012MOL0     H33525   3.615   1.387   0.354 -0.0255 -2.4410 -0.4829
 1012MOL0     H33526   3.667   1.347   0.186  1.4831 -0.1204  0.7815
 1012MOL0     H33527   3.568   1.622   0.281  0.2127  2.2213 -1.2286
 1012MOL0     H33528   3.628   1.592   0.132  0.8858  2.1236  2.6225
 1012MOL0     H33529   3.361   1.479   0.252 -0.7086 -1.4022 -0.5892
 1012MOL0     H33530   3.430   1.390   0.124  0.7144  1.2068 -2.0965
 1012MOL0     H33531   3.431   1.579  -0.026 -0.1183  0.2443 -0.5089
 1012MOL0     H33532   3.377   1.685   0.107  0.4679 -1.1756  2.4962
 1012MOL0     H33533   3.197   1.461   0.024 -0.0430 -0.1981 -0.8935
 1012MOL0     H33534   3.170   1.590   0.141 -0.9955  3.7741 -1.0865
 1012MOL0     H33535   3.224   1.624  -0.160 -1.2640 -3.1525 -0.3416
 1012MOL0     H33536   3.203   1.759  -0.041  1.2341 -1.3046  0.7900
 1012MOL0     H33537   3.019   1.647  -0.291 -1.1254 -1.8594 -0.8331
 1012MOL0     H33538   2.771   1.629  -0.353  1.4305  1.9217  1.4987
 1012MOL0     H33539   2.674   1.723  -0.235  1.4056  1.9727  0.2157
 1012MOL0     H33540   2.669   1.429  -0.185 -2.9697 -2.0768 -0.5185
 1012MOL0     H33541   2.593   1.472  -0.327 -1.1314 -1.1285  0.4260
 1012MOL0     H33542   2.445   1.462  -0.105 -0.8531  0.3147 -0.0598
 1012MOL0     H33543   2.532   1.616  -0.069  0.2763 -0.9233  0.6638
 1012MOL0     H33544   2.448   1.668  -0.316 -1.6853 -2.3902 -2.8128
 1012MOL0     H33545   2.349   1.710  -0.183  0.3592  0.5953 -1.1872
 1012MOL0     H33546   2.120   1.580  -0.464  0.2516  0.1382 -0.1226
 1012MOL0     H33547   1.886   1.621  -0.425 -0.3203  0.3466 -0.1888
 1012MOL0     H33548   1.503   1.515  -0.053 -1.2154  1.4191 -2.1362
 1012MOL0     H33549   1.292   1.565   0.053 -2.2911  0.7819  0.0912
 1012MOL0     H33550   1.175   1.602   0.217  2.4386  0.0524 -4.2219
 1012MOL0     H33551   1.090   1.682   0.088 -1.0794 -0.8855  0.3471
 1012MOL0     H33552   1.011   1.860   0.242 -0.0966 -0.2702 -1.2812
 1012MOL0     H33553   1.060   1.764   0.377 -3.3866 -2.2822  1.1503
 1012MOL0     H33554   0.885   1.585   0.315 -1.2864  0.6721  1.9226
 1012MOL0     H33555   0.873   1.654   0.163  0.8289 -2.6777  0.3903
 1012MOL0     H33556   0.760   1.854   0.239  4.0300  1.9894  1.8480
 1012MOL0     H33557   0.671   1.722   0.301 -2.1222  2.6835  0.3556
 1012MOL0     H33558   0.702   1.900   0.463  0.5817 -0.0103  3.4739
 1012MOL0     H33559   0.876   1.869   0.468  0.8332 -0.5585  0.7524
 1012MOL0     H33560   0.828   1.635   0.544  0.6916 -0.2345 -0.2143
 1012MOL0     H33561   0.661   1.676   0.575 -1.1821  1.2451  0.4723
 1012MOL0     H33562   0.818   1.724   0.776 -0.4965 -0.4972 -2.1348
 1012MOL0     H33563   0.905   1.847   0.678 -0.4628  0.7633 -1.4655
 1012MOL0     H33564   0.617   1.871   0.717 -0.7983  1.8069 -0.8391
 1012MOL0     H33565   0.720   1.994   0.682  0.0231 -0.8772 -2.6516
 1012MOL0     H33566   1.437   1.945   0.166  0.6434  0.3658 -0.1324
 1012MOL0     H33567   1.662   1.898   0.060 -1.2701  1.7213  1.2043
 1012MOL0     H33568   1.983   1.654  -0.006  3.4245  0.8086  0.3832
 1012MOL0     H33569   2.194   1.563  -0.039 -1.0626 -2.1758  0.8850
 1012MOL0     H33570   4.173   1.550   0.566  0.8238 -1.2173 -0.9581
 1012MOL0     H33571   4.307   1.476   0.738  1.5202 -1.7976  1.8188
 1012MOL0     H33572   4.383   1.148   1.052 -0.3249  2.1244 -1.1549
 1012MOL0     H33573   4.507   1.043   1.238  1.2137 -1.9386 -0.3120
 1012MOL0     H33574   4.686   0.895   1.345  2.2250 -0.1566 -2.0993
 1012MOL0     H33575   4.670   1.058   1.420  0.5461  1.5670 -1.3763
 1012MOL0     H33576   4.930   1.033   1.448 -0.1928  0.0578  1.3522
 1012MOL0     H33577   4.817   0.976   1.565  0.8765 -0.5285  0.0783
 1012MOL0     H33578   4.867   0.773   1.360 -0.4365 -1.1167  0.8717
 1012MOL0     H33579   4.843   0.760   1.532 -1.0305  0.6003 -0.2116
 1012MOL0     H33580   5.098   0.803   1.568 -1.2027  1.1984 -0.7272
 1012MOL0     H33581   5.067   0.681   1.451 -0.3282 -0.1507 -1.3601
 1012MOL0     H33582   5.233   0.957   1.192  2.0063  2.5411  1.5192
 1012MOL0     H33583   4.881   1.125   1.031  0.5169 -0.3630  1.0290
 1012MOL0     H33584   4.736   1.235   0.835 -1.8536  3.5543  1.1534
 1013MOL0     O33585   2.323   0.650   3.568  0.1078 -0.4482 -0.4323
 1013MOL0     C33586   2.256   0.745   3.618 -0.2636 -0.0487  0.0984
 1013MOL0     O33587   2.315   0.834   3.700  0.1205  0.1506  0.3206
 1013MOL0     C33588   2.437   0.813   3.746 -0.1280 -0.2994 -0.7111
 1013MOL0     C33589   2.438   0.808   3.888  0.5726  0.4410 -0.4403
 1013MOL0     C33590   2.558   0.811   3.953 -0.7130 -0.2160  1.1250
 1013MOL0     C33591   2.678   0.804   3.883 -1.2029 -0.1827  0.0344
 1013MOL0     O33592   2.798   0.795   3.955 -0.9631  0.3521 -0.1526
 1013MOL0     C33593   2.922   0.788   3.881 -0.8758  0.8217 -0.3436
 1013MOL0     C33594   3.037   0.739   3.976 -0.3300 -0.3594 -0.1837
 1013MOL0     C33595   3.001   0.598   4.030 -0.5457 -0.0898 -1.4619
 1013MOL0     C33596   3.114   0.562   4.125  0.1373 -0.6625  0.2763
 1013MOL0     C33597   3.085   0.424   4.177  0.7384 -0.8266 -0.7603
 1013MOL0     C33598   3.167   0.394   4.307  0.0767  0.1659 -1.2647
 1013MOL0     C33599   3.320   0.424   4.275 -0.1608 -0.6586  0.0489
 1013MOL0     C33600   3.418   0.343   4.361  0.0370 -0.8193 -0.6884
 1013MOL0     N33601   3.421   0.208   4.311 -0.4077 -0.1059 -0.1712
 1013MOL0     C33602   3.364   0.101   4.382 -0.3456 -0.6227  0.0254
 1013MOL0     C33603   3.365  -0.004   4.291 -0.0745 -0.4645 -0.2436
 1013MOL0     C33604   3.321  -0.150   4.315 -0.4792  0.0436  0.2645
 1013MOL0     C33605   3.171  -0.179   4.281 -0.3562  0.2728  0.3097
 1013MOL0     C33606   3.139  -0.158   4.132 -0.1539  0.2584  0.7039
 1013MOL0     C33607   2.991  -0.176   4.099  0.1641  0.2369 -0.0393
 1013MOL0     O33608   2.909  -0.087   4.177 -0.1952  0.4905  0.2708
 1013MOL0     C33609   2.777  -0.106   4.161  0.1580  0.0871 -0.0297
 1013MOL0     C33610   2.732  -0.236   4.213 -0.1340 -0.0545 -0.0774
 1013MOL0     C33611   2.598  -0.268   4.204 -0.1660  0.2295 -0.0088
 1013MOL0     C33612   2.502  -0.178   4.143  0.1409 -0.9110 -0.1144
 1013MOL0     C33613   2.360  -0.221   4.148  0.6428 -0.2226 -0.7891
 1013MOL0     O33614   2.321  -0.324   4.228  0.4401  0.6640  0.2281
 1013MOL0     C33615   2.197  -0.380   4.199  0.6819 -0.5989 -0.0672
 1013MOL0     C33616   2.078  -0.349   4.268 -0.5497  0.0121 -0.2105
 1013MOL0     C33617   1.955  -0.418   4.230  0.4275  0.2524 -0.6321
 1013MOL0     C33618   1.946  -0.509   4.130  0.6585  0.0862  0.0793
 1013MOL0     O33619   1.833  -0.566   4.099  0.1325  0.4716 -0.1211
 1013MOL0     C33620   1.824  -0.712   4.106  0.4125  0.2660 -0.2607
 1013MOL0     C33621   1.676  -0.755   4.108 -0.0219 -0.6606 -0.1827
 1013MOL0     C33622   1.617  -0.722   4.247 -0.1504 -0.6588  0.2022
 1013MOL0     C33623   1.482  -0.787   4.273  0.2578  0.4999  0.7270
 1013MOL0     C33624   1.459  -0.792   4.423 -0.1220 -0.2690 -0.5488
 1013MOL0     C33625   1.321  -0.839   4.452 -0.1171 -0.1844  0.0141
 1013MOL0     C33626   1.324  -0.889   4.597 -0.6379 -0.0136 -0.3567
 1013MOL0     C33627   1.195  -0.961   4.636 -0.0373  0.2995 -0.3923
 1013MOL0    Cl33628   1.215  -1.135   4.615  0.7282 -0.1238  0.3353
 1013MOL0     C33629   2.061  -0.535   4.060 -0.3516  0.6910 -0.3155
 1013MOL0     C33630   2.184  -0.474   4.096 -0.6036  0.5462 -0.3473
 1013MOL0     O33631   2.288  -0.151   4.077 -0.0421  0.0560  0.0687
 1013MOL0     C33632   2.543  -0.054   4.088 -1.0769 -0.5148 -0.4043
 1013MOL0     C33633   2.683  -0.019   4.113  0.1859 -0.0767 -1.2021
 1013MOL0     N33634   3.424   0.045   4.172 -0.7708  0.1907 -0.3586
 1013MOL0     N33635   3.457   0.169   4.188  0.8199  0.0284  0.2905
 1013MOL0     C33636   2.675   0.813   3.739 -0.8060 -0.1926 -0.6769
 1013MOL0     C33637   2.553   0.808   3.671 -0.4482  0.8694 -0.5969
 1013MOL0     C33638   2.118   0.764   3.582  0.1799  0.0628  0.6335
 1013MOL0     C33639   2.046   0.667   3.514 -1.3031 -0.1897 -0.3586
 1013MOL0     C33640   1.912   0.684   3.482  0.1851 -0.3288  0.4370
 1013MOL0     C33641   1.845   0.809   3.508  0.0928 -0.0514  0.6703
 1013MOL0     O33642   1.715   0.825   3.460 -0.2400  0.0983 -0.7054
 1013MOL0     C33643   1.670   0.957   3.441 -0.0707 -0.1704  0.2605
 1013MOL0     C33644   1.577   0.953   3.333  0.2856  0.5774 -0.0319
 1013MOL0     C33645   1.640   0.917   3.196  0.1128  0.0853  0.0426
 1013MOL0     C33646   1.690   0.774   3.172 -0.6270 -0.5464 -0.4674
 1013MOL0     C33647   1.592   0.677   3.224 -0.4700  0.1670  0.3487
 1013MOL0     C33648   1.506   0.591   3.246  0.5838 -1.7897  0.6368
 1013MOL0     C33649   1.916   0.905   3.585  0.2775 -0.2548 -0.7569
 1013MOL0     C33650   2.050   0.885   3.623 -0.6278  0.0344  0.6825
 1013MOL0     H33651   2.339   0.813   3.932 -0.2309  0.7129 -2.2014
 1013MOL0     H33652   2.559   0.822   4.061 -1.5880 -1.3391  1.2749
 1013MOL0     H33653   2.960   0.885   3.847 -0.7052  1.2408  0.9697
 1013MOL0     H33654   2.910   0.724   3.793  1.6231 -0.7566  0.3547
 1013MOL0     H33655   3.048   0.797   4.068  3.1028 -2.2480  0.7961
 1013MOL0     H33656   3.130   0.735   3.918 -2.2338 -0.7341 -3.4892
 1013MOL0     H33657   2.987   0.522   3.952  1.3854 -2.9326  0.7372
 1013MOL0     H33658   2.913   0.615   4.093  0.4130 -0.7741  0.1300
 1013MOL0     H33659   3.210   0.550   4.073 -0.1061 -0.3209 -0.2609
 1013MOL0     H33660   3.111   0.628   4.212  1.5407  0.5789 -0.5774
 1013MOL0     H33661   3.107   0.357   4.093  0.0905 -0.9885 -0.8054
 1013MOL0     H33662   2.979   0.410   4.200 -0.1352  0.3367 -3.7446
 1013MOL0     H33663   3.159   0.290   4.342  1.4730  0.6780  0.7291
 1013MOL0     H33664   3.135   0.455   4.391 -0.0981 -1.3292 -0.1972
 1013MOL0     H33665   3.349   0.404   4.172 -1.2427 -1.3440 -0.1355
 1013MOL0     H33666   3.329   0.533   4.288 -1.7859 -0.4525 -0.3210
 1013MOL0     H33667   3.395   0.350   4.468  0.4938 -1.5973 -0.5336
 1013MOL0     H33668   3.511   0.398   4.344  0.4431 -0.3423  2.5310
 1013MOL0     H33669   3.339   0.098   4.487  2.6623 -3.2699  0.8411
 1013MOL0     H33670   3.345  -0.184   4.416  2.0699 -0.8047 -0.5513
 1013MOL0     H33671   3.379  -0.219   4.254 -2.2842  0.2895 -1.8457
 1013MOL0     H33672   3.110  -0.109   4.339 -1.1675 -1.4376  1.5960
 1013MOL0     H33673   3.157  -0.284   4.311 -0.3892  0.6917  1.8715
 1013MOL0     H33674   3.167  -0.065   4.083 -0.6335  0.3722  0.6408
 1013MOL0     H33675   3.191  -0.242   4.085  2.3666  2.6374 -1.0135
 1013MOL0     H33676   2.960  -0.279   4.119 -0.4986  0.6497  1.1596
 1013MOL0     H33677   2.976  -0.152   3.993 -0.2913  0.4346  0.0659
 1013MOL0     H33678   2.802  -0.298   4.267  2.1894  2.4244 -0.0245
 1013MOL0     H33679   2.556  -0.358   4.248  1.3094 -0.2985  0.3705
 1013MOL0     H33680   2.085  -0.267   4.338 -0.1812 -0.8151  0.7489
 1013MOL0     H33681   1.866  -0.374   4.274  1.0144  1.9321 -1.0504
 1013MOL0     H33682   1.883  -0.745   4.192 -0.1546  1.4711  0.6231
 1013MOL0     H33683   1.872  -0.763   4.022  0.4316  0.3526 -0.3016
 1013MOL0     H33684   1.671  -0.863   4.095  0.5609 -0.7391  0.2110
 1013MOL0     H33685   1.620  -0.697   4.033 -2.2241 -0.3218  1.6158
 1013MOL0     H33686   1.619  -0.614   4.259 -1.3777 -0.1906 -2.9106
 1013MOL0     H33687   1.678  -0.774   4.322 -0.2852 -0.9786  0.0919
 1013MOL0     H33688   1.400  -0.725   4.236  1.3838  1.4118 -0.3613
 1013MOL0     H33689   1.474  -0.889   4.235 -1.2384  0.0963  2.0541
 1013MOL0     H33690   1.477  -0.698   4.476 -0.1999 -0.5191 -0.0747
 1013MOL0     H33691   1.527  -0.862   4.473  0.0475 -0.1226 -0.5711
 1013MOL0     H33692   1.299  -0.929   4.393 -0.2720 -0.1141 -0.0370
 1013MOL0     H33693   1.260  -0.748   4.450  0.9311  0.5146 -0.6223
 1013MOL0     H33694   1.416  -0.944   4.618  1.4440  2.7120 -1.7043
 1013MOL0     H33695   1.336  -0.802   4.662  1.9822  0.3396 -1.1796
 1013MOL0     H33696   1.111  -0.928   4.573  0.0001  0.4481 -0.3625
 1013MOL0     H33697   1.179  -0.939   4.742  2.9915  0.2214  0.1585
 1013MOL0     H33698   2.060  -0.608   3.979 -1.0036 -1.6159  1.6515
 1013MOL0     H33699   2.279  -0.496   4.049  0.3953  0.8890  1.4056
 1013MOL0     H33700   2.477   0.025   4.053 -0.3706  0.3105  0.0917
 1013MOL0     H33701   2.728   0.079   4.100 -1.7365  0.9677 -0.3705
 1013MOL0     H33702   2.767   0.817   3.681 -2.0022  1.3608 -2.5907
 1013MOL0     H33703   2.564   0.825   3.564 -0.3389 -0.1205 -0.7615
 1013MOL0     H33704   2.097   0.575   3.487  0.1114 -0.3390  2.4303
 1013MOL0     H33705   1.861   0.609   3.422 -2.0164  1.3281  0.0887
 1013MOL0     H33706   1.756   1.020   3.415  0.5114 -1.6746 -1.6650
 1013MOL0     H33707   1.624   0.990   3.535 -0.2202 -4.2963  1.8403
 1013MOL0     H33708   1.493   0.888   3.360  1.8106 -0.1345  3.6402
 1013MOL0     H33709   1.530   1.051   3.316 -2.4552 -0.7519 -0.7636
 1013MOL0     H33710   1.711   0.992   3.160  0.5738 -1.6232 -2.9371
 1013MOL0     H33711   1.555   0.908   3.129  0.3891 -0.9705 -0.1813
 1013MOL0     H33712   1.711   0.750   3.068  0.6476  3.1434 -1.1939
 1013MOL0     H33713   1.786   0.762   3.223 -1.4233 -1.5578  0.8646
 1013MOL0     H33714   1.421   0.525   3.246 -0.8005 -0.0893  0.8573
 1013MOL0     H33715   1.868   1.000   3.607  1.1919  0.5072 -1.8601
 1013MOL0     H33716   2.098   0.964   3.679  0.0045  0.9443 -1.0802
 1014MOL0     O33717  10.101   9.092   2.720  0.2129 -0.7553  0.2032
 1014MOL0     C33718  10.175   9.046   2.805  0.3906 -0.0172  0.7383
 1014MOL0     O33719  10.138   9.001   2.929  0.6094  0.8194 -0.1958
 1014MOL0     C33720  10.009   9.029   2.967  0.3648  0.5264  0.0595
 1014MOL0     C33721   9.966   9.160   3.002 -0.0745 -0.2302 -0.2892
 1014MOL0     C33722   9.831   9.183   3.034 -0.0074  0.1429  0.1425
 1014MOL0     C33723   9.744   9.077   3.023 -0.6023  0.6171 -1.0277
 1014MOL0     O33724   9.614   9.104   3.051 -1.0458 -0.0663 -0.1103
 1014MOL0     C33725   9.509   9.020   2.997 -0.6704  0.5314 -0.6312
 1014MOL0     C33726   9.398   9.120   2.976  0.3285  0.3572  0.3187
 1014MOL0     C33727   9.309   9.161   3.098  0.3162  0.4010  0.4921
 1014MOL0     C33728   9.197   9.268   3.055  1.1643 -0.8421 -0.3391
 1014MOL0     C33729   9.066   9.234   3.128 -0.0873 -0.2574  0.3219
 1014MOL0     C33730   8.983   9.363   3.159  0.7224  0.1098  0.2101
 1014MOL0     C33731   8.843   9.327   3.222  0.3215  0.6604  0.1688
 1014MOL0     C33732   8.759   9.452   3.275 -0.0597 -0.3021 -0.2931
 1014MOL0     N33733   8.738   9.567   3.192 -0.0110 -0.6077  0.1802
 1014MOL0     C33734   8.643   9.567   3.093 -0.5056  0.1578 -0.2006
 1014MOL0     C33735   8.646   9.696   3.047  0.0503  0.2694 -0.2862
 1014MOL0     C33736   8.554   9.759   2.947 -0.0219  0.3158 -0.2957
 1014MOL0     C33737   8.605   9.719   2.810  0.6611  0.5742  0.4427
 1014MOL0     C33738   8.498   9.772   2.708 -0.6836  0.4491 -0.3494
 1014MOL0     C33739   8.486   9.920   2.715 -0.4465 -0.5047 -0.3972
 1014MOL0     O33740   8.395   9.952   2.813  0.6967  0.3994  0.0599
 1014MOL0     C33741   8.333  10.078   2.838 -0.3588  0.1130  0.3229
 1014MOL0     C33742   8.383  10.193   2.778  0.0234  0.4011 -0.2618
 1014MOL0     C33743   8.326  10.311   2.800  0.2063 -0.7943 -0.7063
 1014MOL0     C33744   8.206  10.336   2.879 -0.3163 -0.6474 -0.1685
 1014MOL0     C33745   8.142  10.471   2.902 -0.7616 -0.2319 -0.8927
 1014MOL0     O33746   8.036  10.477   2.987 -0.3439 -0.0048  0.4974
 1014MOL0     C33747   7.962  10.584   2.994  1.2454 -0.5872  0.0302
 1014MOL0     C33748   7.891  10.637   2.883  0.2647 -0.4855  0.2863
 1014MOL0     C33749   7.818  10.764   2.902  0.2991  0.4558 -0.0445
 1014MOL0     C33750   7.808  10.821   3.026  0.4913  0.7426 -0.3739
 1014MOL0     O33751   7.741  10.941   3.064  0.2616  0.2841  0.1875
 1014MOL0     C33752   7.655  10.998   2.970  0.9950 -0.5778  0.8743
 1014MOL0     C33753   7.587  11.119   3.031 -0.3940 -0.1026  0.3954
 1014MOL0     C33754   7.661  11.184   3.149 -0.1410  0.8305  0.6085
 1014MOL0     C33755   7.609  11.322   3.180 -0.4124  0.3948 -0.2117
 1014MOL0     C33756   7.689  11.364   3.305 -0.2268 -0.0355 -0.3011
 1014MOL0     C33757   7.834  11.404   3.279  0.5423 -0.0407  0.3176
 1014MOL0     C33758   7.884  11.495   3.396 -0.3866  0.2372 -0.5865
 1014MOL0     C33759   8.036  11.519   3.375  0.0065  0.0106 -0.0786
 1014MOL0    Cl33760   8.099  11.629   3.494  0.2067 -0.4412 -0.5178
 1014MOL0     C33761   7.861  10.750   3.141  0.1991  0.1484  0.3114
 1014MOL0     C33762   7.939  10.630   3.120 -0.5832 -0.9033 -0.2643
 1014MOL0     O33763   8.190  10.571   2.850 -0.2761  0.5832 -0.1873
 1014MOL0     C33764   8.162  10.221   2.943 -0.0759  0.5461  0.4979
 1014MOL0     C33765   8.222  10.092   2.928 -0.0349  0.5922 -0.3350
 1014MOL0     N33766   8.746   9.760   3.104  0.1406  0.1824  0.2662
 1014MOL0     N33767   8.802   9.684   3.197 -0.1355 -0.0231  0.8068
 1014MOL0     C33768   9.789   8.946   3.005  0.0556  0.1766 -0.1195
 1014MOL0     C33769   9.924   8.914   2.978  0.8346 -0.3767 -0.3565
 1014MOL0     C33770  10.315   9.028   2.765  0.2466 -0.4384 -0.8860
 1014MOL0     C33771  10.377   9.091   2.657  0.1442  0.8632 -0.3340
 1014MOL0     C33772  10.501   9.053   2.614  0.1263 -0.1708  0.1927
 1014MOL0     C33773  10.570   8.957   2.687 -0.2226  0.6203  0.2266
 1014MOL0     O33774  10.697   8.919   2.652 -0.1268  0.2602 -0.6484
 1014MOL0     C33775  10.745   8.969   2.527 -0.3594 -0.3088 -0.1556
 1014MOL0     C33776  10.837   8.863   2.457 -0.6937 -1.1419  0.3272
 1014MOL0     C33777  10.776   8.725   2.440  0.6759 -0.8132  0.3405
 1014MOL0     C33778  10.854   8.626   2.341  1.0171 -0.2117  0.3134
 1014MOL0     C33779  10.868   8.676   2.198 -0.3678 -0.4047 -0.5881
 1014MOL0     C33780  10.877   8.713   2.083  0.4140 -0.2111  0.3464
 1014MOL0     C33781  10.521   8.897   2.799  0.3417 -0.8940  0.1228
 1014MOL0     C33782  10.392   8.934   2.840 -0.8934  0.1842 -0.0633
 1014MOL0     H33783  10.041   9.238   2.992  2.6531 -2.1558  2.8783
 1014MOL0     H33784   9.788   9.280   3.056 -2.6523 -1.1347  0.9894
 1014MOL0     H33785   9.482   8.927   3.048 -0.8493 -0.7414 -2.8870
 1014MOL0     H33786   9.547   9.003   2.895  3.8434  2.0831  0.5541
 1014MOL0     H33787   9.332   9.083   2.897  2.4961 -0.5052 -1.1613
 1014MOL0     H33788   9.436   9.216   2.939 -0.6321  1.4552  2.0290
 1014MOL0     H33789   9.369   9.197   3.182  2.1854 -0.9940 -0.1879
 1014MOL0     H33790   9.256   9.070   3.130  0.4969  0.6235  1.4459
 1014MOL0     H33791   9.223   9.372   3.078 -0.7597 -0.5116  0.5841
 1014MOL0     H33792   9.170   9.263   2.949 -0.5444  0.1089  0.0163
 1014MOL0     H33793   9.088   9.186   3.224 -0.1301  0.7303  0.8374
 1014MOL0     H33794   9.012   9.163   3.066  3.5283 -2.4767 -0.5413
 1014MOL0     H33795   8.958   9.427   3.074  1.4732  0.5353  0.3025
 1014MOL0     H33796   9.036   9.425   3.232 -0.2385  2.8201 -1.2296
 1014MOL0     H33797   8.782   9.270   3.152 -1.9962 -2.1288  4.0343
 1014MOL0     H33798   8.870   9.262   3.306 -0.0245 -3.5181 -2.6521
 1014MOL0     H33799   8.811   9.482   3.366 -1.1720  2.5324 -0.4983
 1014MOL0     H33800   8.658   9.418   3.300 -0.2586  1.5739  1.6774
 1014MOL0     H33801   8.580   9.481   3.071  0.6319  0.1349 -4.1247
 1014MOL0     H33802   8.574   9.862   2.977 -1.2199 -0.3673  3.4115
 1014MOL0     H33803   8.449   9.742   2.972  0.2825  1.9844  2.5814
 1014MOL0     H33804   8.614   9.610   2.799 -1.5791  0.3724  0.1904
 1014MOL0     H33805   8.699   9.767   2.782  0.0311  0.8834 -1.2808
 1014MOL0     H33806   8.535   9.744   2.609 -2.4392  0.4433 -1.0420
 1014MOL0     H33807   8.405   9.717   2.722  0.2286 -1.2529 -0.6330
 1014MOL0     H33808   8.446   9.962   2.622  2.3226  0.6717 -1.1476
 1014MOL0     H33809   8.587   9.954   2.738 -0.6487  1.5715 -2.1804
 1014MOL0     H33810   8.463  10.181   2.706  0.4712  1.5612  0.0316
 1014MOL0     H33811   8.376  10.397   2.758 -2.6055  1.8874  1.0109
 1014MOL0     H33812   7.897  10.592   2.785  0.1931 -0.3128  0.2016
 1014MOL0     H33813   7.781  10.813   2.812  0.1522  0.1500 -0.1516
 1014MOL0     H33814   7.571  10.935   2.940 -0.0781  1.9941 -2.0161
 1014MOL0     H33815   7.709  11.039   2.884  1.0467 -0.3125  1.0318
 1014MOL0     H33816   7.484  11.099   3.060 -0.5006  1.6225  1.3360
 1014MOL0     H33817   7.572  11.196   2.954 -0.9078  1.3520  1.8821
 1014MOL0     H33818   7.768  11.196   3.128 -0.5599  1.7847 -1.1658
 1014MOL0     H33819   7.664  11.114   3.233  1.1976 -2.6510 -2.0647
 1014MOL0     H33820   7.630  11.396   3.102  2.0798 -0.7207 -0.6923
 1014MOL0     H33821   7.503  11.323   3.209 -0.7619 -0.1609 -1.4286
 1014MOL0     H33822   7.684  11.284   3.380  1.6938  0.1646  0.0929
 1014MOL0     H33823   7.641  11.452   3.349  0.9701 -0.1974  1.4197
 1014MOL0     H33824   7.836  11.459   3.184  1.4229 -0.5956 -0.0056
 1014MOL0     H33825   7.897  11.314   3.272  0.6570  0.0854 -0.3852
 1014MOL0     H33826   7.826  11.587   3.404 -1.6194 -0.5804  0.2915
 1014MOL0     H33827   7.867  11.439   3.488  1.8953 -1.3476 -1.0398
 1014MOL0     H33828   8.061  11.561   3.277 -0.4729 -1.2419 -0.7546
 1014MOL0     H33829   8.081  11.421   3.393 -0.6153 -0.0957  0.9831
 1014MOL0     H33830   7.825  10.801   3.229  0.8397  0.7849  0.2152
 1014MOL0     H33831   7.974  10.584   3.212 -1.6766 -0.0339  0.6198
 1014MOL0     H33832   8.070  10.230   3.001 -2.3290  0.7282 -2.7992
 1014MOL0     H33833   8.181  10.003   2.974  0.2012 -0.2883 -1.7475
 1014MOL0     H33834   9.716   8.866   3.012  0.2620  0.0187  0.2649
 1014MOL0     H33835   9.962   8.814   2.965  0.9670 -0.3711 -0.0008
 1014MOL0     H33836  10.322   9.163   2.597  3.9172  2.3141 -2.4195
 1014MOL0     H33837  10.540   9.104   2.527  0.0800 -1.1223 -0.4077
 1014MOL0     H33838  10.803   9.061   2.541 -0.2686  0.0822 -2.6080
 1014MOL0     H33839  10.672   8.979   2.446  0.7013 -0.1120 -1.1221
 1014MOL0     H33840  10.887   8.899   2.367  1.5016 -1.9436  1.1578
 1014MOL0     H33841  10.930   8.854   2.515  0.3121  2.4616 -0.4881
 1014MOL0     H33842  10.675   8.742   2.402  0.9431  0.2132  0.0811
 1014MOL0     H33843  10.770   8.677   2.538  1.7058  0.2052  0.9275
 1014MOL0     H33844  10.954   8.602   2.378  1.5857  0.1818 -0.8834
 1014MOL0     H33845  10.790   8.538   2.345 -2.0080  1.6861 -1.4878
 1014MOL0     H33846  10.880   8.740   1.979 -0.9127 -0.9590  0.0760
 1014MOL0     H33847  10.575   8.827   2.861 -0.9727 -0.5379  1.7576
 1014MOL0     H33848  10.346   8.896   2.931  0.8351 -0.4186  0.6122
 1015MOL0     O33849   7.152   6.672  10.074  0.0610 -0.1287  0.2690
 1015MOL0     C33850   7.163   6.689   9.952  0.0495 -0.2626 -0.7190
 1015MOL0     O33851   7.066   6.651   9.864 -0.5124  0.5085 -0.1563
 1015MOL0     C33852   6.954   6.585   9.913 -0.2960 -0.6054  0.2171
 1015MOL0     C33853   6.938   6.447   9.883 -0.2233  0.3348  0.1202
 1015MOL0     C33854   6.815   6.388   9.921  0.3646  0.1668 -0.2069
 1015MOL0     C33855   6.722   6.452   9.996 -0.2049  0.1437  0.1445
 1015MOL0     O33856   6.610   6.377  10.024  0.2248  0.4898  0.5183
 1015MOL0     C33857   6.481   6.436  10.000  0.2557  0.0227 -0.3608
 1015MOL0     C33858   6.364   6.339  10.040 -0.3510 -0.4327  0.2281
 1015MOL0     C33859   6.230   6.412  10.016  0.1593 -0.3574 -0.3183
 1015MOL0     C33860   6.114   6.312  10.042  0.3772 -0.2227 -0.8176
 1015MOL0     C33861   5.977   6.378  10.035  0.2779  0.7049  0.6879
 1015MOL0     C33862   5.874   6.268  10.074  0.6463  0.5021  0.4124
 1015MOL0     C33863   5.729   6.327  10.079 -0.3056  0.3471  0.0265
 1015MOL0     C33864   5.622   6.232  10.137  0.6684  0.3036  0.5213
 1015MOL0     N33865   5.497   6.313  10.169  0.0927 -0.2713  0.7255
 1015MOL0     C33866   5.448   6.352  10.293 -0.3635 -0.2255  0.2992
 1015MOL0     C33867   5.329   6.418  10.277 -0.1380  0.3894 -0.5128
 1015MOL0     C33868   5.248   6.468  10.389 -0.2304  0.4354 -0.6202
 1015MOL0     C33869   5.142   6.577  10.364 -0.7956  0.0521  0.6047
 1015MOL0     C33870   5.184   6.725  10.346 -0.8023 -0.2293  0.8057
 1015MOL0     C33871   5.066   6.814  10.337 -0.3874  0.1769  0.6792
 1015MOL0     O33872   5.020   6.816  10.210 -0.6884  0.2563 -0.5439
 1015MOL0     C33873   4.898   6.872  10.189 -0.4293  0.0845  0.5567
 1015MOL0     C33874   4.779   6.792  10.186  0.0026  0.6137  0.3470
 1015MOL0     C33875   4.653   6.849  10.184 -0.6752  0.0881 -0.0067
 1015MOL0     C33876   4.639   6.982  10.170  0.1861 -0.3080 -0.1341
 1015MOL0     C33877   4.503   7.028  10.159  0.3680 -0.2787  0.5172
 1015MOL0     O33878   4.410   6.942  10.187 -0.0431 -0.0640 -0.8000
 1015MOL0     C33879   4.278   6.982  10.181  0.5929 -0.0216 -0.3302
 1015MOL0     C33880   4.191   6.918  10.271  0.4960 -0.2235 -0.9037
 1015MOL0     C33881   4.048   6.934  10.267 -0.5241 -0.1950  1.0703
 1015MOL0     C33882   3.996   7.020  10.168  0.7700 -0.6362 -0.8070
 1015MOL0     O33883   3.857   7.050  10.172 -0.2578 -0.1128  0.3569
 1015MOL0     C33884   3.803   7.142  10.074 -0.8326  0.1825  0.0644
 1015MOL0     C33885   3.659   7.180  10.106  0.5734  0.5779  0.6847
 1015MOL0     C33886   3.576   7.231   9.988 -0.0045 -0.0448  0.3128
 1015MOL0     C33887   3.422   7.252  10.025 -0.4905  0.4654 -0.4864
 1015MOL0     C33888   3.345   7.310   9.909  0.4662 -0.4325 -0.0652
 1015MOL0     C33889   3.245   7.418   9.957  0.1765  0.5108  0.3887
 1015MOL0     C33890   3.180   7.483   9.832  0.4257  0.0267 -0.2517
 1015MOL0     C33891   3.069   7.585   9.867 -0.3285 -0.0872 -0.4315
 1015MOL0    Cl33892   2.948   7.513   9.990  0.0110 -0.5127 -0.3577
 1015MOL0     C33893   4.083   7.091  10.079 -0.0443  1.2465  0.0626
 1015MOL0     C33894   4.225   7.067  10.083 -0.5975 -0.3823 -0.3016
 1015MOL0     O33895   4.488   7.147  10.136  1.1350  0.1489 -0.3663
 1015MOL0     C33896   4.752   7.066  10.176 -1.0192  0.0784 -0.2278
 1015MOL0     C33897   4.878   7.011  10.183  0.1601  0.9389  0.0580
 1015MOL0     N33898   5.305   6.416  10.138 -0.5398 -0.0879  0.0857
 1015MOL0     N33899   5.397   6.345  10.081 -0.5436  0.1245 -0.6668
 1015MOL0     C33900   6.747   6.590  10.038 -0.4041  0.9230  0.0782
 1015MOL0     C33901   6.864   6.653   9.997 -0.9810 -0.1714  0.5791
 1015MOL0     C33902   7.277   6.769   9.910 -0.8948 -0.9754  0.5974
 1015MOL0     C33903   7.393   6.793   9.981 -0.3895  0.2197  0.5533
 1015MOL0     C33904   7.510   6.859   9.942  1.0056 -0.5914 -0.4867
 1015MOL0     C33905   7.498   6.922   9.817 -0.5424 -0.1787  0.5491
 1015MOL0     O33906   7.596   7.011   9.764  0.5907 -0.0792  0.2000
 1015MOL0     C33907   7.704   6.961   9.689  0.6219  0.2525 -0.5109
 1015MOL0     C33908   7.826   7.000   9.762  0.3918 -0.4128 -0.8935
 1015MOL0     C33909   7.856   7.150   9.784  1.0661  0.1072 -0.4174
 1015MOL0     C33910   7.969   7.178   9.879 -0.2023  0.8340 -0.2413
 1015MOL0     C33911   8.034   7.301   9.850  0.8543  0.3705 -0.3175
 1015MOL0     C33912   8.092   7.406   9.831 -0.0687 -0.3889 -0.5554
 1015MOL0     C33913   7.386   6.890   9.733 -0.6142 -0.1667 -0.3402
 1015MOL0     C33914   7.280   6.818   9.774  0.0716  0.1905  0.0400
 1015MOL0     H33915   7.000   6.392   9.812 -0.6454  0.9245 -0.7304
 1015MOL0     H33916   6.799   6.284   9.893 -0.4344  0.7736 -2.1596
 1015MOL0     H33917   6.485   6.455   9.892  2.2635  2.4921  0.0395
 1015MOL0     H33918   6.479   6.532  10.052  0.9480 -0.1825  0.0542
 1015MOL0     H33919   6.382   6.300  10.141  2.6850  0.8290  0.2866
 1015MOL0     H33920   6.375   6.249   9.978  2.3012 -1.3949  1.9000
 1015MOL0     H33921   6.223   6.452   9.914  1.3503 -1.4434 -0.8502
 1015MOL0     H33922   6.232   6.492  10.091 -0.6011 -0.8031  0.1795
 1015MOL0     H33923   6.120   6.228   9.972  1.4465 -1.4497  0.6844
 1015MOL0     H33924   6.129   6.275  10.143  1.8313  0.5546 -0.7313
 1015MOL0     H33925   5.945   6.421   9.940  0.1382 -0.4885  0.1706
 1015MOL0     H33926   5.963   6.460  10.105  0.1862  1.1786  0.1214
 1015MOL0     H33927   5.895   6.228  10.174 -0.2991 -1.3481 -0.0897
 1015MOL0     H33928   5.875   6.185  10.002 -2.5523 -1.3136  2.2272
 1015MOL0     H33929   5.724   6.404  10.157  0.2640  0.1798  0.2396
 1015MOL0     H33930   5.696   6.361   9.981 -0.3342 -2.7672 -1.1579
 1015MOL0     H33931   5.652   6.171  10.222  2.4768 -0.2420 -0.4411
 1015MOL0     H33932   5.592   6.170  10.052 -1.2361  2.1025 -0.1859
 1015MOL0     H33933   5.493   6.337  10.390  0.8197  0.3407 -0.1436
 1015MOL0     H33934   5.322   6.504  10.460  1.0109  2.1160 -2.6597
 1015MOL0     H33935   5.198   6.378  10.428  0.5792  0.4258  0.4416
 1015MOL0     H33936   5.087   6.567  10.458 -0.8860 -1.6508  0.4032
 1015MOL0     H33937   5.087   6.550  10.274 -1.4087  0.4336  0.8582
 1015MOL0     H33938   5.242   6.762  10.431 -3.1592  0.8592  2.0235
 1015MOL0     H33939   5.241   6.741  10.254 -0.5263 -2.1702  0.5910
 1015MOL0     H33940   5.094   6.918  10.357  3.0030 -0.1131 -1.7683
 1015MOL0     H33941   4.987   6.771  10.399 -1.0029 -3.7553 -2.4958
 1015MOL0     H33942   4.781   6.684  10.189  1.3102  0.6363  0.9583
 1015MOL0     H33943   4.573   6.776  10.179 -0.6161  0.0867 -1.6054
 1015MOL0     H33944   4.236   6.851  10.343 -0.5447 -0.3866 -0.3817
 1015MOL0     H33945   3.981   6.875  10.328 -0.4596 -1.9831 -0.4841
 1015MOL0     H33946   3.819   7.098   9.975 -0.8882  0.9037 -0.2659
 1015MOL0     H33947   3.863   7.233  10.072  0.9143 -0.8781  1.1392
 1015MOL0     H33948   3.666   7.259  10.182 -0.0491 -1.2587  2.7717
 1015MOL0     H33949   3.604   7.098  10.153  0.4262 -0.5252 -1.3105
 1015MOL0     H33950   3.588   7.148   9.918  1.6896  1.3435 -1.1302
 1015MOL0     H33951   3.621   7.322   9.948  3.1179 -1.2122  0.8537
 1015MOL0     H33952   3.382   7.162  10.072 -1.1534  1.8876  1.8203
 1015MOL0     H33953   3.417   7.322  10.109 -0.9036 -3.0480  2.6681
 1015MOL0     H33954   3.286   7.241   9.849  0.9926 -0.8822 -0.0771
 1015MOL0     H33955   3.413   7.369   9.845  1.6409 -2.5131 -0.8214
 1015MOL0     H33956   3.301   7.492  10.015  1.1022  1.0147 -1.0894
 1015MOL0     H33957   3.177   7.358  10.018  2.1687 -2.9557 -0.5075
 1015MOL0     H33958   3.256   7.546   9.784  1.0403  0.0617  0.7426
 1015MOL0     H33959   3.142   7.403   9.768 -1.1359  1.1127 -0.7463
 1015MOL0     H33960   3.019   7.626   9.778 -1.9294 -1.2076 -0.0735
 1015MOL0     H33961   3.107   7.680   9.907  0.8268 -0.1240 -1.3569
 1015MOL0     H33962   4.056   7.141   9.986  1.4955 -1.4288 -1.9630
 1015MOL0     H33963   4.278   7.115  10.001 -2.9364  1.0275 -1.0866
 1015MOL0     H33964   4.739   7.173  10.166  0.9155  0.7918  3.1717
 1015MOL0     H33965   4.960   7.080  10.202 -1.2432  2.0734  2.5048
 1015MOL0     H33966   6.679   6.636  10.108  2.6221  1.4638  2.9116
 1015MOL0     H33967   6.890   6.755  10.023 -0.6296  0.7836 -2.9547
 1015MOL0     H33968   7.385   6.754  10.082  0.6117  2.2172  1.4515
 1015MOL0     H33969   7.606   6.857   9.992  0.7289  0.0243  0.0902
 1015MOL0     H33970   7.692   7.002   9.588 -4.1658  2.7084  0.7164
 1015MOL0     H33971   7.688   6.853   9.682 -0.0756  0.3787 -0.9642
 1015MOL0     H33972   7.811   6.964   9.864  0.0436  0.0623 -0.7782
 1015MOL0     H33973   7.907   6.945   9.713  0.4757 -0.0385 -1.1835
 1015MOL0     H33974   7.771   7.202   9.829  2.0680 -0.4557  2.2759
 1015MOL0     H33975   7.872   7.203   9.689 -1.3283  1.9482  0.0968
 1015MOL0     H33976   7.938   7.186   9.984  0.1382  0.6356 -0.1205
 1015MOL0     H33977   8.040   7.095   9.867  0.7966  1.8895 -1.8699
 1015MOL0     H33978   8.133   7.502   9.807 -1.3537 -0.1241 -1.7724
 1015MOL0     H33979   7.376   6.945   9.640 -2.9141 -1.7155 -1.0827
 1015MOL0     H33980   7.190   6.807   9.715  0.7915  1.0236 -1.2848
 1016MOL0     O33981   4.638   0.446   1.165  0.1762 -0.3896 -0.2499
 1016MOL0     C33982   4.718   0.548   1.157  0.3474  0.0468 -0.0521
 1016MOL0     O33983   4.682   0.665   1.103  0.0205 -0.3487  0.3465
 1016MOL0     C33984   4.561   0.704   1.061  0.1050 -0.5713  0.4232
 1016MOL0     C33985   4.445   0.678   1.136 -0.2115 -0.5571 -0.2294
 1016MOL0     C33986   4.330   0.748   1.100  0.4740 -0.4115 -0.2354
 1016MOL0     C33987   4.323   0.832   0.990  0.6807 -0.6310  0.8019
 1016MOL0     O33988   4.202   0.889   0.948  0.0748  0.0562 -0.0443
 1016MOL0     C33989   4.117   0.932   1.048  0.8722  0.2384 -0.5834
 1016MOL0     C33990   3.994   1.002   0.986 -0.1068 -0.0382 -0.0038
 1016MOL0     C33991   3.941   0.933   0.866  0.1101  0.4426 -0.2445
 1016MOL0     C33992   3.806   0.971   0.807  0.2894  0.4962 -0.0458
 1016MOL0     C33993   3.767   1.119   0.804 -0.2927 -0.3347  0.3417
 1016MOL0     C33994   3.624   1.138   0.744 -0.3022  0.3845 -0.6284
 1016MOL0     C33995   3.609   1.083   0.601 -0.2638  0.6874  0.8571
 1016MOL0     C33996   3.476   1.130   0.542  0.0606 -0.9148 -0.8549
 1016MOL0     N33997   3.359   1.114   0.627 -0.6894  0.6302 -0.4370
 1016MOL0     C33998   3.308   1.210   0.715  0.5837  0.1031  0.5555
 1016MOL0     C33999   3.217   1.148   0.787  0.2283  0.3417 -0.8998
 1016MOL0     C34000   3.136   1.201   0.899 -0.3824  0.4316 -0.0420
 1016MOL0     C34001   2.992   1.232   0.850 -0.3225 -0.4775  0.5893
 1016MOL0     C34002   2.895   1.239   0.969  0.2887 -0.4100  0.3804
 1016MOL0     C34003   2.761   1.282   0.915 -0.5614  0.2377  0.3729
 1016MOL0     O34004   2.658   1.266   1.015  0.1993  0.2511 -0.0854
 1016MOL0     C34005   2.532   1.252   0.959  0.1601 -0.2630  0.2246
 1016MOL0     C34006   2.435   1.182   1.033  0.2630 -0.8745  0.5576
 1016MOL0     C34007   2.311   1.161   0.968  0.1096  0.1513 -0.2550
 1016MOL0     C34008   2.276   1.224   0.849  0.4012 -0.8472 -0.2849
 1016MOL0     C34009   2.131   1.199   0.795  0.0399 -0.0850 -0.0833
 1016MOL0     O34010   2.035   1.163   0.881  0.0219  0.1079 -1.1528
 1016MOL0     C34011   1.899   1.138   0.845  0.2662  0.3387 -0.1337
 1016MOL0     C34012   1.807   1.125   0.941  0.6804 -0.0307  0.1013
 1016MOL0     C34013   1.663   1.094   0.914  0.1730 -0.3560 -0.7132
 1016MOL0     C34014   1.628   1.070   0.784 -0.6953  0.4057 -0.1251
 1016MOL0     O34015   1.506   1.021   0.767 -0.0673 -0.1463 -0.1399
 1016MOL0     C34016   1.449   1.039   0.636  0.5578 -0.2762 -0.6750
 1016MOL0     C34017   1.297   1.010   0.646 -0.4906 -0.0704 -0.2909
 1016MOL0     C34018   1.226   1.093   0.753  0.5982 -0.3583  0.6709
 1016MOL0     C34019   1.073   1.092   0.717  0.2029 -0.3367  0.6041
 1016MOL0     C34020   0.979   1.170   0.812 -0.4667 -0.3913 -0.2008
 1016MOL0     C34021   0.879   1.252   0.739  0.7040  0.1371 -0.4162
 1016MOL0     C34022   0.778   1.156   0.687 -0.0513 -0.5670  0.7051
 1016MOL0     C34023   0.644   1.226   0.635 -0.4888 -0.3981  0.3332
 1016MOL0    Cl34024   0.694   1.371   0.541 -0.3417 -0.2680 -0.0142
 1016MOL0     C34025   1.725   1.089   0.687  0.3533  0.1463 -0.7479
 1016MOL0     C34026   1.854   1.123   0.719  0.1412 -0.8372  0.0337
 1016MOL0     O34027   2.117   1.240   0.682  0.5987  0.0727  0.2690
 1016MOL0     C34028   2.371   1.293   0.773 -0.6147 -0.3813 -0.9483
 1016MOL0     C34029   2.500   1.313   0.833 -0.3256  0.8221 -0.1147
 1016MOL0     N34030   3.205   1.018   0.742  0.0914 -0.1298  0.1086
 1016MOL0     N34031   3.290   0.997   0.638 -0.3847 -0.5554 -0.2549
 1016MOL0     C34032   4.429   0.851   0.912 -0.4034 -0.3841 -0.1864
 1016MOL0     C34033   4.547   0.800   0.958 -0.6765  0.3092  0.1018
 1016MOL0     C34034   4.857   0.521   1.196 -0.6575 -0.1336 -0.8020
 1016MOL0     C34035   4.882   0.444   1.311 -0.1469  0.2815  0.1170
 1016MOL0     C34036   5.014   0.415   1.348 -0.5754  0.4553 -0.7814
 1016MOL0     C34037   5.128   0.455   1.276  1.0416  0.3962 -0.4827
 1016MOL0     O34038   5.251   0.436   1.334 -0.6346  0.2479  0.2552
 1016MOL0     C34039   5.350   0.379   1.246  0.7219  0.7978  0.0322
 1016MOL0     C34040   5.434   0.283   1.328 -0.0432 -0.3037 -0.3516
 1016MOL0     C34041   5.553   0.219   1.249 -0.2036  0.7217  0.5861
 1016MOL0     C34042   5.614   0.097   1.326 -0.0391  0.1586  0.3502
 1016MOL0     C34043   5.520  -0.014   1.356 -0.3311 -0.8067  0.5603
 1016MOL0     C34044   5.438  -0.099   1.379 -0.0114  0.6964  0.5152
 1016MOL0     C34045   5.105   0.543   1.161 -0.5746  0.2841  0.4405
 1016MOL0     C34046   4.976   0.566   1.120  0.1854 -0.4078 -0.0725
 1016MOL0     H34047   4.430   0.598   1.208 -3.1630 -0.0484 -0.1685
 1016MOL0     H34048   4.240   0.731   1.160  2.0047  3.0160  3.5196
 1016MOL0     H34049   4.155   0.996   1.128 -0.6350  0.1422  0.2439
 1016MOL0     H34050   4.077   0.840   1.091  0.7547 -0.1694 -1.5345
 1016MOL0     H34051   4.020   1.106   0.963  2.2182 -0.6928 -0.5934
 1016MOL0     H34052   3.910   1.000   1.056 -2.1783 -1.6163 -2.3286
 1016MOL0     H34053   3.937   0.825   0.885 -0.1595  0.8141  2.0239
 1016MOL0     H34054   4.005   0.945   0.778  2.1074  1.0298  1.2448
 1016MOL0     H34055   3.798   0.928   0.707  2.0076  1.6796 -0.7165
 1016MOL0     H34056   3.732   0.928   0.876 -0.7969  3.0424  0.4860
 1016MOL0     H34057   3.845   1.169   0.747 -1.0888 -2.7189 -3.1527
 1016MOL0     H34058   3.778   1.146   0.910  0.8459 -1.1439  0.4457
 1016MOL0     H34059   3.599   1.245   0.748  0.5137  0.5575  0.6048
 1016MOL0     H34060   3.549   1.085   0.805  0.3834  1.4688  1.2617
 1016MOL0     H34061   3.687   1.118   0.532 -1.4086  0.9346 -0.3447
 1016MOL0     H34062   3.612   0.973   0.601 -0.0570  0.6894  1.3060
 1016MOL0     H34063   3.463   1.071   0.451 -0.8637 -0.5809 -0.9560
 1016MOL0     H34064   3.484   1.236   0.520 -2.6434 -0.8828 -2.0853
 1016MOL0     H34065   3.322   1.317   0.729  1.4600 -0.0286  0.7518
 1016MOL0     H34066   3.165   1.297   0.944  0.9642 -0.7465  1.7293
 1016MOL0     H34067   3.151   1.130   0.981 -0.3236  0.1623 -0.2858
 1016MOL0     H34068   2.960   1.141   0.799  0.6073 -0.0006 -0.9236
 1016MOL0     H34069   2.991   1.318   0.784 -0.2232  0.0614  1.2796
 1016MOL0     H34070   2.876   1.144   1.020  2.8601 -1.2304 -0.0373
 1016MOL0     H34071   2.936   1.310   1.041  2.2973 -1.4222  0.3009
 1016MOL0     H34072   2.745   1.229   0.821  2.1630  1.2842 -0.7718
 1016MOL0     H34073   2.763   1.389   0.892 -1.4198  0.1577 -0.1323
 1016MOL0     H34074   2.456   1.132   1.127  2.6534 -0.2279  0.4353
 1016MOL0     H34075   2.238   1.106   1.027 -0.6358  1.2592 -0.1303
 1016MOL0     H34076   1.836   1.136   1.045  1.9884  1.7664 -0.4162
 1016MOL0     H34077   1.583   1.086   0.986  1.1425 -1.7543  0.2816
 1016MOL0     H34078   1.486   0.961   0.569  1.4397 -1.1252  0.7502
 1016MOL0     H34079   1.454   1.140   0.594 -0.5520 -1.3886 -3.7650
 1016MOL0     H34080   1.277   0.905   0.669  1.6892 -0.2548  1.0282
 1016MOL0     H34081   1.250   1.024   0.549 -2.0369 -0.7636  0.3220
 1016MOL0     H34082   1.265   1.195   0.763  0.3847 -0.1241 -0.6477
 1016MOL0     H34083   1.248   1.044   0.848  3.2950 -0.7939 -0.0731
 1016MOL0     H34084   1.078   1.134   0.616  5.2989  0.2264  0.8155
 1016MOL0     H34085   1.041   0.988   0.732 -0.0722 -0.0115  2.5831
 1016MOL0     H34086   1.044   1.235   0.870  0.4188 -0.9793 -0.5180
 1016MOL0     H34087   0.934   1.111   0.892 -0.1590  1.8346  1.7338
 1016MOL0     H34088   0.922   1.321   0.666 -0.2604  1.9316  0.6431
 1016MOL0     H34089   0.821   1.310   0.811  1.5514 -1.4262  1.6527
 1016MOL0     H34090   0.827   1.097   0.609 -1.1941 -1.9248  0.9842
 1016MOL0     H34091   0.754   1.096   0.776 -0.6372 -0.7622  0.4235
 1016MOL0     H34092   0.574   1.247   0.717  1.0038  1.1895  1.2657
 1016MOL0     H34093   0.592   1.152   0.573 -0.9714  0.3063 -0.1237
 1016MOL0     H34094   1.689   1.080   0.586 -0.8067 -0.8880 -0.2606
 1016MOL0     H34095   1.917   1.131   0.631  0.4322 -2.8360  0.0263
 1016MOL0     H34096   2.357   1.349   0.681 -0.6999  2.3280  0.5834
 1016MOL0     H34097   2.566   1.365   0.764  1.0628 -0.4785  0.1844
 1016MOL0     H34098   4.425   0.911   0.822 -0.6974 -1.8129 -1.1671
 1016MOL0     H34099   4.629   0.820   0.891 -2.6153  0.5523 -2.3388
 1016MOL0     H34100   4.801   0.407   1.373 -2.5263  1.5565 -2.0365
 1016MOL0     H34101   5.029   0.351   1.435  1.0647 -1.3260 -2.2740
 1016MOL0     H34102   5.412   0.460   1.206  1.7433  0.3359  0.6309
 1016MOL0     H34103   5.298   0.317   1.171 -1.7410  0.6607  1.7345
 1016MOL0     H34104   5.463   0.337   1.419 -0.2863 -0.4918 -0.1606
 1016MOL0     H34105   5.383   0.190   1.356  1.3874 -1.2913 -0.9061
 1016MOL0     H34106   5.627   0.299   1.236 -0.6073  1.3750  2.1753
 1016MOL0     H34107   5.534   0.185   1.146 -0.0066 -1.6457  1.2761
 1016MOL0     H34108   5.701   0.056   1.275 -1.4288 -2.9201  0.1891
 1016MOL0     H34109   5.644   0.127   1.427 -0.7689 -0.7766  0.8639
 1016MOL0     H34110   5.373  -0.183   1.397 -1.6089  1.5334 -1.0327
 1016MOL0     H34111   5.188   0.592   1.111  0.0201 -0.2943  0.8357
 1016MOL0     H34112   4.961   0.637   1.040  0.9154 -0.8884 -0.6537
 1017MOL0     O34113  10.786   8.169   8.546 -0.1310  0.2709  0.1763
 1017MOL0     C34114  10.731   8.207   8.442  0.2683  0.1619 -0.5308
 1017MOL0     O34115  10.793   8.244   8.321 -0.2801 -0.8304  0.5311
 1017MOL0     C34116  10.920   8.198   8.304  0.6359  0.0950  0.6002
 1017MOL0     C34117  10.946   8.070   8.247  0.3718 -1.1112  0.2938
 1017MOL0     C34118  11.088   8.042   8.234 -0.2601  1.0973 -0.2349
 1017MOL0     C34119  11.194   8.122   8.267  0.0827  0.0970  1.2923
 1017MOL0     O34120  11.320   8.081   8.245  0.0892  0.4044 -0.0950
 1017MOL0     C34121  11.426   8.101   8.350  0.6361 -0.5300  0.0452
 1017MOL0     C34122  11.387   8.034   8.477  0.3777 -0.4261 -0.6793
 1017MOL0     C34123  11.389   7.875   8.457  0.2934 -0.2245  0.2022
 1017MOL0     C34124  11.295   7.812   8.565  0.1249  0.1958 -1.0571
 1017MOL0     C34125  11.153   7.813   8.527  0.7806 -0.1742  0.4794
 1017MOL0     C34126  11.084   7.719   8.634 -0.0525 -0.3029 -0.2370
 1017MOL0     C34127  10.934   7.725   8.619 -0.0713 -0.5352  0.0985
 1017MOL0     C34128  10.866   7.846   8.674  0.4361  0.2541  0.7792
 1017MOL0     N34129  10.717   7.844   8.677  0.2705  0.5089 -0.3638
 1017MOL0     C34130  10.633   7.828   8.566  0.0234  0.2216 -0.6055
 1017MOL0     C34131  10.515   7.794   8.622  0.6012  0.8775  0.6429
 1017MOL0     C34132  10.393   7.752   8.534 -0.2636 -0.3739  0.0888
 1017MOL0     C34133  10.250   7.800   8.573  0.4294 -0.1671  0.0375
 1017MOL0     C34134  10.142   7.728   8.489 -0.6145 -0.3617  0.5351
 1017MOL0     C34135  10.017   7.703   8.564 -0.3364  0.1497 -0.0133
 1017MOL0     O34136   9.918   7.632   8.492  0.0218 -0.1732  0.1669
 1017MOL0     C34137   9.783   7.663   8.527  0.3750  0.7451 -0.3440
 1017MOL0     C34138   9.734   7.720   8.648 -0.2115  0.5340 -0.6435
 1017MOL0     C34139   9.600   7.749   8.665  0.0382 -0.5799  0.2413
 1017MOL0     C34140   9.505   7.716   8.570 -0.2484 -0.3758 -0.0027
 1017MOL0     C34141   9.363   7.741   8.591  0.3421 -0.2282  0.0959
 1017MOL0     O34142   9.340   7.828   8.698  0.3162 -0.2417  0.2984
 1017MOL0     C34143   9.205   7.854   8.711 -0.6525 -1.1921  0.4102
 1017MOL0     C34144   9.159   7.978   8.659 -0.5361  0.7693  0.4606
 1017MOL0     C34145   9.025   8.012   8.673  0.4785  0.3130  0.4477
 1017MOL0     C34146   8.934   7.927   8.727 -0.4566  0.6150 -0.5618
 1017MOL0     O34147   8.801   7.975   8.734 -0.2371 -0.0957 -0.7340
 1017MOL0     C34148   8.698   7.880   8.766  0.5747  0.1320 -0.1192
 1017MOL0     C34149   8.565   7.955   8.777  0.3441  0.6551  0.2105
 1017MOL0     C34150   8.453   7.850   8.806  0.0446  0.6768  0.8395
 1017MOL0     C34151   8.308   7.911   8.799 -0.0983 -1.0658  0.3548
 1017MOL0     C34152   8.274   7.946   8.950  0.4396 -0.3540 -0.0083
 1017MOL0     C34153   8.128   7.983   8.955  0.0721 -0.0275 -0.5125
 1017MOL0     C34154   8.095   8.051   9.094 -0.0525  0.0459 -0.0187
 1017MOL0     C34155   8.113   7.947   9.211 -0.5136  0.3943  0.3738
 1017MOL0    Cl34156   8.034   8.001   9.356  0.0482 -0.1600 -0.1662
 1017MOL0     C34157   8.981   7.806   8.777  0.4564 -1.0539 -0.3176
 1017MOL0     C34158   9.117   7.767   8.769  0.4903  0.8228  0.3128
 1017MOL0     O34159   9.280   7.689   8.523 -0.2670  0.8826  0.4595
 1017MOL0     C34160   9.550   7.654   8.449  0.0836 -0.1266  0.1179
 1017MOL0     C34161   9.686   7.636   8.428 -0.0723 -0.1584  0.0496
 1017MOL0     N34162  10.518   7.785   8.761 -0.2950 -0.7611 -0.1157
 1017MOL0     N34163  10.647   7.808   8.789  0.4624  0.3851 -0.2291
 1017MOL0     C34164  11.162   8.252   8.295 -0.5447 -1.4412  0.1530
 1017MOL0     C34165  11.035   8.285   8.324  0.6737  0.5424  0.2124
 1017MOL0     C34166  10.587   8.247   8.478 -0.1188  0.0812  0.3381
 1017MOL0     C34167  10.520   8.324   8.385 -0.1760  0.3937 -0.1363
 1017MOL0     C34168  10.389   8.365   8.409 -0.0123  0.0862 -0.0264
 1017MOL0     C34169  10.319   8.324   8.521 -0.7633 -0.0332  0.1781
 1017MOL0     O34170  10.198   8.385   8.546 -0.1848  0.3307  0.1365
 1017MOL0     C34171  10.118   8.312   8.644  0.0557  0.6124  0.5943
 1017MOL0     C34172   9.970   8.343   8.637  1.0138  0.1143 -0.3183
 1017MOL0     C34173   9.927   8.459   8.724  0.4859  1.0012 -0.3779
 1017MOL0     C34174   9.774   8.485   8.699  0.5081 -0.4134  0.3581
 1017MOL0     C34175   9.736   8.610   8.762  0.6301 -0.2075  0.8246
 1017MOL0     C34176   9.701   8.707   8.831  0.5672 -0.1172  0.2366
 1017MOL0     C34177  10.388   8.247   8.615  0.2972  0.1108 -0.0152
 1017MOL0     C34178  10.518   8.196   8.588  0.2311 -0.0140 -0.6313
 1017MOL0     H34179  10.865   8.000   8.227  1.2235 -2.1491  0.3549
 1017MOL0     H34180  11.127   7.944   8.209 -2.6873  0.2967 -1.1689
 1017MOL0     H34181  11.437   8.208   8.371  3.2111 -0.6891 -0.2186
 1017MOL0     H34182  11.523   8.065   8.315  1.1152 -0.2615  1.0515
 1017MOL0     H34183  11.285   8.051   8.514  0.3640 -0.8914 -0.5001
 1017MOL0     H34184  11.451   8.080   8.552 -1.1788  2.5675 -1.0012
 1017MOL0     H34185  11.492   7.840   8.474  0.2790 -1.8645 -2.4905
 1017MOL0     H34186  11.360   7.841   8.358  1.3016  0.4066 -0.3310
 1017MOL0     H34187  11.329   7.709   8.577 -0.7302  0.0591  0.5300
 1017MOL0     H34188  11.312   7.852   8.665 -1.4281  0.2839 -0.7943
 1017MOL0     H34189  11.150   7.774   8.425  3.1385  0.4406  0.1065
 1017MOL0     H34190  11.118   7.916   8.532  1.2243  0.0516 -0.7477
 1017MOL0     H34191  11.108   7.750   8.736 -0.5897  0.0840 -0.2238
 1017MOL0     H34192  11.110   7.613   8.622  1.9440  0.0215  0.7695
 1017MOL0     H34193  10.909   7.728   8.512 -0.8864 -0.1304  0.2882
 1017MOL0     H34194  10.884   7.638   8.664 -1.0424 -0.2733 -0.4320
 1017MOL0     H34195  10.897   7.931   8.613 -0.0435 -1.4678 -2.0399
 1017MOL0     H34196  10.891   7.850   8.781 -2.2543 -2.4674  1.6507
 1017MOL0     H34197  10.669   7.839   8.464  1.7390  0.6033  0.0123
 1017MOL0     H34198  10.392   7.643   8.526 -0.2857 -0.2825 -1.3506
 1017MOL0     H34199  10.409   7.787   8.432 -2.0140  0.1611 -0.0360
 1017MOL0     H34200  10.242   7.909   8.565 -0.4881 -0.3140 -1.4458
 1017MOL0     H34201  10.237   7.775   8.678  2.3861  1.1617  0.6615
 1017MOL0     H34202  10.130   7.771   8.389 -0.7654 -2.1088 -0.2230
 1017MOL0     H34203  10.181   7.631   8.457 -0.0446  0.4376 -1.3091
 1017MOL0     H34204   9.984   7.802   8.598 -2.7734 -0.2118 -1.1329
 1017MOL0     H34205  10.036   7.643   8.653 -1.5594 -1.6345 -0.9057
 1017MOL0     H34206   9.802   7.746   8.729 -0.1873  0.4830 -0.6475
 1017MOL0     H34207   9.584   7.807   8.755 -0.4263 -1.2453  0.5909
 1017MOL0     H34208   9.222   8.041   8.597 -0.2479  0.4172  0.3888
 1017MOL0     H34209   8.991   8.104   8.625  0.1514  2.7993  4.8755
 1017MOL0     H34210   8.720   7.830   8.861  0.9744  4.1424  2.1173
 1017MOL0     H34211   8.687   7.806   8.687 -2.9545 -0.7251  0.9769
 1017MOL0     H34212   8.544   8.011   8.685 -1.9560 -0.3374  0.0808
 1017MOL0     H34213   8.570   8.033   8.854  0.2058  0.3788  0.5002
 1017MOL0     H34214   8.459   7.802   8.905  3.3548 -0.3336  0.2696
 1017MOL0     H34215   8.469   7.772   8.731  1.4352  2.6587 -1.0403
 1017MOL0     H34216   8.305   8.003   8.739  2.6393  0.6410  2.6071
 1017MOL0     H34217   8.243   7.833   8.759 -1.0505  0.6020 -1.5329
 1017MOL0     H34218   8.333   8.030   8.986 -1.3169  0.3894  1.3026
 1017MOL0     H34219   8.292   7.859   9.013  1.2728 -0.5759 -0.5389
 1017MOL0     H34220   8.066   7.894   8.941  1.6598 -1.0807 -1.0867
 1017MOL0     H34221   8.107   8.057   8.877 -0.5497  0.3044 -0.0376
 1017MOL0     H34222   8.149   8.145   9.108 -1.2130  0.9417 -1.2802
 1017MOL0     H34223   7.989   8.078   9.091  0.2724  1.5143  0.7089
 1017MOL0     H34224   8.220   7.950   9.236 -0.5024  0.2589  0.3395
 1017MOL0     H34225   8.081   7.846   9.185  2.0096 -0.6313  0.9459
 1017MOL0     H34226   8.906   7.741   8.822 -0.0809 -0.0736  0.2235
 1017MOL0     H34227   9.151   7.670   8.804  1.5474  0.5634 -1.3340
 1017MOL0     H34228   9.472   7.618   8.382 -1.1840 -0.2465  1.5958
 1017MOL0     H34229   9.728   7.597   8.335 -0.2852 -3.5735  1.2374
 1017MOL0     H34230  11.238   8.328   8.300 -2.7864  0.8797  0.9623
 1017MOL0     H34231  11.014   8.383   8.365  2.3772  0.4018  1.5229
 1017MOL0     H34232  10.567   8.345   8.290  3.0814  2.1376  1.6824
 1017MOL0     H34233  10.345   8.422   8.328 -1.0438  0.7879  0.9981
 1017MOL0     H34234  10.140   8.339   8.747 -1.7196 -4.0175  2.4501
 1017MOL0     H34235  10.141   8.205   8.637 -0.2936  0.4523  1.7656
 1017MOL0     H34236   9.937   8.350   8.533  1.2466 -1.5591 -0.5271
 1017MOL0     H34237   9.918   8.260   8.686  3.6641 -1.2212  0.4144
 1017MOL0     H34238  10.003   8.538   8.719  2.2846 -0.5913  0.5719
 1017MOL0     H34239   9.924   8.425   8.828 -3.2480 -0.6692 -0.8827
 1017MOL0     H34240   9.762   8.494   8.590  0.3895 -1.6169  0.2550
 1017MOL0     H34241   9.720   8.402   8.744  1.3412 -0.0407  2.1028
 1017MOL0     H34242   9.672   8.785   8.899  0.3193  0.3371 -0.3764
 1017MOL0     H34243  10.350   8.221   8.714  0.7062  0.2375  0.1772
 1017MOL0     H34244  10.580   8.130   8.648  3.0385  1.6614 -1.4717
 1018MOL0     O34245   6.727   1.505   2.323 -0.3913  0.4323  0.1291
 1018MOL0     C34246   6.808   1.555   2.407  0.6366 -0.5347  0.1301
 1018MOL0     O34247   6.767   1.609   2.523  0.1394 -0.1774 -0.6979
 1018MOL0     C34248   6.645   1.608   2.555  1.3339 -0.2313 -1.3060
 1018MOL0     C34249   6.556   1.710   2.522  0.5450  0.3500 -0.7948
 1018MOL0     C34250   6.428   1.707   2.580  0.0590 -0.8970 -1.1101
 1018MOL0     C34251   6.401   1.616   2.689 -1.0125 -0.3956 -0.6471
 1018MOL0     O34252   6.291   1.605   2.773  0.1495 -0.1267 -0.0505
 1018MOL0     C34253   6.171   1.667   2.722 -0.1340 -0.2613  0.1307
 1018MOL0     C34254   6.045   1.635   2.808 -0.0612  0.6426  0.3729
 1018MOL0     C34255   6.007   1.493   2.811 -0.3419  0.2981 -0.7222
 1018MOL0     C34256   5.874   1.457   2.886 -0.7869  0.6756 -0.2964
 1018MOL0     C34257   5.837   1.308   2.878  0.4947 -0.6135 -0.6159
 1018MOL0     C34258   5.765   1.271   2.750  0.8992 -0.3108 -0.1470
 1018MOL0     C34259   5.682   1.140   2.766 -0.0422  0.8487  0.2404
 1018MOL0     C34260   5.590   1.119   2.639 -0.3572  0.8627 -0.1383
 1018MOL0     N34261   5.681   1.089   2.527  0.1314  0.3272  0.0496
 1018MOL0     C34262   5.764   0.975   2.507 -0.7472 -0.6158  0.7578
 1018MOL0     C34263   5.831   0.990   2.391  0.3248  0.5092  0.5323
 1018MOL0     C34264   5.902   0.882   2.309 -0.2580 -0.0812 -0.1755
 1018MOL0     C34265   6.055   0.887   2.315 -0.1296 -1.0566 -0.5343
 1018MOL0     C34266   6.106   0.763   2.250 -0.0058  1.1304 -0.4804
 1018MOL0     C34267   6.258   0.746   2.255 -0.4230  0.2948  0.0282
 1018MOL0     O34268   6.278   0.605   2.232  0.5749  0.1550  1.1988
 1018MOL0     C34269   6.398   0.550   2.227  0.2214  0.4327 -0.1203
 1018MOL0     C34270   6.520   0.609   2.257 -0.2999  0.3130 -0.0519
 1018MOL0     C34271   6.639   0.547   2.258 -0.8780  0.4886  0.2225
 1018MOL0     C34272   6.644   0.404   2.229  0.1323 -0.9914  0.7790
 1018MOL0     C34273   6.769   0.332   2.222  0.6188  0.2057  0.1818
 1018MOL0     O34274   6.765   0.207   2.150 -0.3356  0.3673  0.5361
 1018MOL0     C34275   6.877   0.123   2.133  1.0449 -0.4935 -0.7022
 1018MOL0     C34276   6.849  -0.002   2.078 -0.3193 -0.8980 -0.3783
 1018MOL0     C34277   6.949  -0.091   2.064  0.4554 -0.0404  0.3126
 1018MOL0     C34278   7.071  -0.081   2.116 -0.9854  0.6385 -0.2220
 1018MOL0     O34279   7.150  -0.192   2.100  1.0183  0.5397  0.6214
 1018MOL0     C34280   7.252  -0.215   2.198 -0.3188  0.8760  0.3471
 1018MOL0     C34281   7.302  -0.366   2.202 -0.1708 -0.6252  0.3825
 1018MOL0     C34282   7.453  -0.368   2.240  0.0446  1.1073  0.2638
 1018MOL0     C34283   7.495  -0.520   2.241  0.0137  0.9159  0.4785
 1018MOL0     C34284   7.628  -0.551   2.304  0.6155  0.0026 -0.1441
 1018MOL0     C34285   7.642  -0.707   2.291  0.3635  0.3990 -0.5309
 1018MOL0     C34286   7.778  -0.751   2.329  0.3697  0.4481 -0.6216
 1018MOL0     C34287   7.813  -0.878   2.247  0.0010  0.0397 -0.6294
 1018MOL0    Cl34288   7.819  -0.836   2.068  0.0527  0.0159  0.2511
 1018MOL0     C34289   7.111   0.045   2.169 -0.6751  0.4880  0.0834
 1018MOL0     C34290   7.015   0.146   2.164  0.3533 -0.3244 -0.2931
 1018MOL0     O34291   6.867   0.390   2.250 -0.0484  0.7395 -0.9335
 1018MOL0     C34292   6.524   0.336   2.195  0.8898 -0.6862 -0.1352
 1018MOL0     C34293   6.404   0.412   2.192  0.6937  0.0549 -0.9488
 1018MOL0     N34294   5.788   1.115   2.341 -0.0216 -0.2805 -0.6829
 1018MOL0     N34295   5.714   1.179   2.426  0.2910  0.2601  0.3682
 1018MOL0     C34296   6.505   1.529   2.729  0.4870 -0.2331  0.0350
 1018MOL0     C34297   6.616   1.517   2.656 -0.3226 -0.4220  0.1117
 1018MOL0     C34298   6.955   1.549   2.382  0.5364 -0.8953  0.2790
 1018MOL0     C34299   7.040   1.550   2.494  0.6176 -0.3399  0.5915
 1018MOL0     C34300   7.184   1.534   2.476  0.4144  0.5375 -0.0330
 1018MOL0     C34301   7.236   1.531   2.345  0.1066 -0.3220 -0.1629
 1018MOL0     O34302   7.371   1.517   2.336 -0.7425 -0.5744  0.3755
 1018MOL0     C34303   7.434   1.567   2.213 -0.2013 -0.6518 -0.6524
 1018MOL0     C34304   7.586   1.577   2.204  0.7626  0.0118  0.1561
 1018MOL0     C34305   7.623   1.638   2.065  0.5913 -0.4890 -0.5654
 1018MOL0     C34306   7.773   1.620   2.035  0.4071  0.1684 -0.2358
 1018MOL0     C34307   7.814   1.661   1.900  0.2089  0.7315 -0.5577
 1018MOL0     C34308   7.836   1.710   1.791  0.4516 -0.5811 -0.2637
 1018MOL0     C34309   7.149   1.545   2.238  0.5169 -0.5059  0.4777
 1018MOL0     C34310   7.005   1.548   2.258 -0.4405 -0.1918 -0.6461
 1018MOL0     H34311   6.589   1.787   2.452  3.3342 -0.2826 -0.3160
 1018MOL0     H34312   6.361   1.790   2.557  1.9361  1.0860  0.1663
 1018MOL0     H34313   6.147   1.640   2.619  0.5524 -0.1544 -0.0585
 1018MOL0     H34314   6.187   1.776   2.721  2.0867 -0.5262 -2.4375
 1018MOL0     H34315   5.959   1.687   2.766  0.3119  1.1047  0.1663
 1018MOL0     H34316   6.054   1.666   2.913  2.9976  0.1987  0.3420
 1018MOL0     H34317   6.089   1.436   2.854 -1.6808 -0.4861  0.9087
 1018MOL0     H34318   5.997   1.458   2.708 -2.3632 -2.0700  0.1636
 1018MOL0     H34319   5.886   1.477   2.993 -0.7338  0.3954 -0.2481
 1018MOL0     H34320   5.792   1.513   2.840 -1.2636 -0.4066 -0.7803
 1018MOL0     H34321   5.769   1.281   2.959  0.1143 -1.1577 -1.1186
 1018MOL0     H34322   5.923   1.241   2.886 -1.6043 -3.3557  0.6224
 1018MOL0     H34323   5.836   1.257   2.669 -0.7534 -1.5414 -1.4496
 1018MOL0     H34324   5.696   1.353   2.729  2.9816  1.6769  0.3613
 1018MOL0     H34325   5.759   1.062   2.766 -1.7485 -0.9861 -2.0148
 1018MOL0     H34326   5.628   1.142   2.861  0.3320  0.7899  0.4546
 1018MOL0     H34327   5.525   1.203   2.613 -1.2011  1.5046  3.5147
 1018MOL0     H34328   5.530   1.034   2.673  0.1176  0.4066 -0.4105
 1018MOL0     H34329   5.759   0.879   2.557  2.4211 -1.0269  0.5232
 1018MOL0     H34330   5.875   0.890   2.204  1.9724  1.7439 -0.7167
 1018MOL0     H34331   5.876   0.780   2.340 -1.2119 -0.0807 -0.9291
 1018MOL0     H34332   6.084   0.892   2.420  2.7816  0.0739 -1.3020
 1018MOL0     H34333   6.102   0.975   2.272 -1.6822  0.1399  0.1236
 1018MOL0     H34334   6.061   0.668   2.281 -1.0687  1.0218 -2.2415
 1018MOL0     H34335   6.082   0.772   2.144 -2.4404  0.1652 -0.0951
 1018MOL0     H34336   6.294   0.772   2.355  0.9286  0.2164 -0.4167
 1018MOL0     H34337   6.320   0.806   2.189  2.0129 -0.4310  1.5287
 1018MOL0     H34338   6.530   0.716   2.276  0.4465 -0.1378  2.4610
 1018MOL0     H34339   6.726   0.597   2.301 -0.8339 -0.8070  1.7264
 1018MOL0     H34340   6.749  -0.032   2.047 -0.0456 -1.9171 -0.3244
 1018MOL0     H34341   6.935  -0.185   2.012  0.3501  0.8748 -1.3764
 1018MOL0     H34342   7.217  -0.182   2.297 -2.0925  2.7895 -0.8176
 1018MOL0     H34343   7.335  -0.150   2.170 -0.4763  0.3664 -1.4150
 1018MOL0     H34344   7.292  -0.407   2.101 -0.0383 -0.5265  0.3275
 1018MOL0     H34345   7.246  -0.428   2.272  1.0535 -0.7717  1.2584
 1018MOL0     H34346   7.466  -0.337   2.343  2.0083  0.8969  0.1168
 1018MOL0     H34347   7.518  -0.313   2.171  1.9055  0.8131  1.7017
 1018MOL0     H34348   7.416  -0.569   2.298 -0.9000  1.8851  0.0940
 1018MOL0     H34349   7.489  -0.566   2.142 -0.1409 -1.6992  1.6339
 1018MOL0     H34350   7.627  -0.529   2.411  0.1631  1.6510 -0.4555
 1018MOL0     H34351   7.710  -0.495   2.259 -0.5271  0.1117 -2.2099
 1018MOL0     H34352   7.616  -0.733   2.188 -0.5187 -1.5359  0.1350
 1018MOL0     H34353   7.565  -0.756   2.351 -1.4428  2.3286 -1.1256
 1018MOL0     H34354   7.861  -0.684   2.305  0.1270  0.4298 -1.5729
 1018MOL0     H34355   7.771  -0.773   2.436 -2.0884  0.5168 -0.7006
 1018MOL0     H34356   7.738  -0.955   2.267  1.9744 -1.3436  2.1175
 1018MOL0     H34357   7.914  -0.902   2.280  0.4318  2.5609  0.1244
 1018MOL0     H34358   7.208   0.070   2.210 -1.0718  2.0388  0.1345
 1018MOL0     H34359   7.052   0.239   2.205  1.6422 -1.7700  2.0351
 1018MOL0     H34360   6.517   0.231   2.166  0.8819 -1.4077  2.2902
 1018MOL0     H34361   6.315   0.356   2.167  2.0274 -4.4185  2.7915
 1018MOL0     H34362   6.477   1.462   2.810  0.1671  2.4367  2.2679
 1018MOL0     H34363   6.700   1.452   2.680  1.0649  0.0902 -2.9121
 1018MOL0     H34364   7.007   1.555   2.597 -0.7585 -0.7266  0.1800
 1018MOL0     H34365   7.244   1.540   2.566  0.2614  1.4703  0.0136
 1018MOL0     H34366   7.398   1.670   2.199 -0.8639 -0.8132 -0.1532
 1018MOL0     H34367   7.410   1.502   2.128  1.7761  0.2210 -1.9731
 1018MOL0     H34368   7.621   1.646   2.281  0.2771  2.5771 -1.8013
 1018MOL0     H34369   7.623   1.478   2.232 -3.1991 -1.3098  1.4321
 1018MOL0     H34370   7.604   1.744   2.085 -0.9904 -0.3628 -2.5192
 1018MOL0     H34371   7.564   1.589   1.988  1.4355 -1.5281 -0.5644
 1018MOL0     H34372   7.832   1.664   2.116 -0.7873 -1.5825  1.6924
 1018MOL0     H34373   7.797   1.513   2.036 -0.0064  0.0334  2.2556
 1018MOL0     H34374   7.861   1.755   1.697 -0.7132  0.1938 -0.2268
 1018MOL0     H34375   7.189   1.556   2.138 -0.1299  0.6865  0.3314
 1018MOL0     H34376   6.940   1.536   2.172 -1.7605  0.2818  0.2691
 1019MOL0     O34377   2.596   9.862   9.881  0.1948 -0.5659  0.6928
 1019MOL0     C34378   2.641   9.746   9.856 -0.6244 -0.2019 -0.0402
 1019MOL0     O34379   2.576   9.644   9.793  0.2710 -0.9143 -0.6846
 1019MOL0     C34380   2.440   9.653   9.776  0.1111 -0.0033  0.4386
 1019MOL0     C34381   2.396   9.712   9.658  0.5370 -0.1560 -0.6461
 1019MOL0     C34382   2.254   9.734   9.647 -0.1798 -0.2694  1.5248
 1019MOL0     C34383   2.157   9.702   9.744  0.2166  0.4608  0.9015
 1019MOL0     O34384   2.027   9.709   9.701 -0.0072 -0.3677  0.0866
 1019MOL0     C34385   1.928   9.671   9.799 -0.1704  0.0294  0.0566
 1019MOL0     C34386   1.792   9.686   9.740  0.2460  0.1485  0.4284
 1019MOL0     C34387   1.696   9.610   9.825  0.0961  0.6216 -0.5160
 1019MOL0     C34388   1.549   9.656   9.812  0.5089  0.8310  0.3619
 1019MOL0     C34389   1.459   9.597   9.923  0.0988 -0.7952  0.5707
 1019MOL0     C34390   1.307   9.645   9.905 -0.4060  0.3378  0.0446
 1019MOL0     C34391   1.238   9.590  10.026  0.0850 -1.1231  0.8897
 1019MOL0     C34392   1.090   9.594  10.011  0.2509 -0.6512  0.1498
 1019MOL0     N34393   1.019   9.530  10.123 -0.7297  0.0040  0.1966
 1019MOL0     C34394   0.989   9.585  10.248 -0.6650  0.9409 -0.0626
 1019MOL0     C34395   0.952   9.483  10.323 -0.0001  0.5430 -0.2798
 1019MOL0     C34396   0.904   9.493  10.460  0.9542 -0.1029 -0.9755
 1019MOL0     C34397   0.751   9.494  10.482 -0.8724 -0.7639 -0.5824
 1019MOL0     C34398   0.720   9.537  10.620 -0.7663  0.9076 -0.4514
 1019MOL0     C34399   0.575   9.532  10.653 -0.3093 -0.2570  0.3400
 1019MOL0     O34400   0.552   9.600  10.779  0.1948 -0.2024  0.4908
 1019MOL0     C34401   0.418   9.612  10.824  0.1212 -0.1717  0.9763
 1019MOL0     C34402   0.392   9.635  10.960 -0.7893  0.2447  0.1747
 1019MOL0     C34403   0.262   9.634  11.015  0.4574 -0.7387 -0.0042
 1019MOL0     C34404   0.155   9.601  10.931  0.2356  0.2152 -0.2483
 1019MOL0     C34405   0.015   9.602  10.997 -0.0426  0.1374  0.0789
 1019MOL0     O34406  -0.005   9.658  11.125 -0.0071 -0.0712  0.2708
 1019MOL0     C34407  -0.132   9.639  11.183  0.1028  0.8177 -0.5071
 1019MOL0     C34408  -0.154   9.523  11.259  0.3735  0.8293  0.1479
 1019MOL0     C34409  -0.270   9.506  11.335  0.0322  0.8344 -0.2507
 1019MOL0     C34410  -0.361   9.612  11.361 -0.4069  0.6171  0.4625
 1019MOL0     O34411  -0.480   9.605  11.435 -0.4591 -0.0196 -0.7175
 1019MOL0     C34412  -0.494   9.498  11.532  0.2524  0.4986  0.0071
 1019MOL0     C34413  -0.621   9.525  11.611  0.1199 -0.0676 -0.9003
 1019MOL0     C34414  -0.745   9.548  11.527  0.6542  0.0378 -0.1927
 1019MOL0     C34415  -0.877   9.553  11.613 -0.2781 -0.0667 -0.0310
 1019MOL0     C34416  -1.007   9.606  11.537 -0.6677 -0.4162  0.0108
 1019MOL0     C34417  -1.062   9.488  11.457  0.0964  0.0051  0.2538
 1019MOL0     C34418  -1.172   9.527  11.355 -0.2669  0.1782  0.5386
 1019MOL0     C34419  -1.284   9.616  11.412  0.6074 -0.0942  0.5132
 1019MOL0    Cl34420  -1.437   9.587  11.325 -0.0366 -0.1354  0.4297
 1019MOL0     C34421  -0.339   9.732  11.287  0.1472 -0.4184  0.0990
 1019MOL0     C34422  -0.220   9.744  11.209 -1.6390 -0.1883  0.3449
 1019MOL0     O34423  -0.069   9.536  10.932  0.1395 -0.1764 -0.0766
 1019MOL0     C34424   0.176   9.577  10.797  0.1440  0.3680  0.8879
 1019MOL0     C34425   0.310   9.577  10.753  0.7873  0.2772 -0.2323
 1019MOL0     N34426   0.938   9.369  10.247 -0.5778 -0.6246  1.0012
 1019MOL0     N34427   0.969   9.407  10.124 -0.4473 -0.5134  0.2744
 1019MOL0     C34428   2.208   9.632   9.857 -0.1942  0.1239 -0.1893
 1019MOL0     C34429   2.347   9.603   9.872 -0.0641 -0.0922  0.8611
 1019MOL0     C34430   2.782   9.720   9.897 -0.9092  1.1033 -0.9673
 1019MOL0     C34431   2.852   9.822   9.963 -0.6318 -0.0673  0.1561
 1019MOL0     C34432   2.995   9.803   9.973  0.2229 -0.6772 -0.5088
 1019MOL0     C34433   3.054   9.677   9.947 -0.2249  0.0516  0.8314
 1019MOL0     O34434   3.180   9.650   9.986 -0.3474 -0.5181 -0.2420
 1019MOL0     C34435   3.284   9.738   9.953 -0.2529 -0.7294 -0.2841
 1019MOL0     C34436   3.333   9.700   9.809 -0.4196  0.1003 -0.7802
 1019MOL0     C34437   3.409   9.817   9.754 -0.3505 -1.0212 -0.3572
 1019MOL0     C34438   3.474   9.776   9.624 -0.0576 -0.7672 -0.6106
 1019MOL0     C34439   3.529   9.894   9.557 -0.0238 -0.2945 -0.4235
 1019MOL0     C34440   3.584   9.994   9.517 -0.4692 -0.3992  0.4697
 1019MOL0     C34441   2.974   9.571   9.899 -0.7663 -0.6361 -0.1940
 1019MOL0     C34442   2.843   9.597   9.874  0.7085 -0.9637 -1.3426
 1019MOL0     H34443   2.460   9.744   9.577  3.6135 -2.5606  0.6379
 1019MOL0     H34444   2.230   9.791   9.558  1.4743  0.2548  1.3725
 1019MOL0     H34445   1.942   9.742   9.881  1.3998 -0.0413 -0.1168
 1019MOL0     H34446   1.945   9.571   9.840 -1.4354  0.1031  0.7857
 1019MOL0     H34447   1.790   9.650   9.637 -0.9793  3.0044 -0.6320
 1019MOL0     H34448   1.770   9.793   9.741  1.6278  0.5322 -1.9883
 1019MOL0     H34449   1.727   9.627   9.929  0.9412 -0.9103 -0.4727
 1019MOL0     H34450   1.706   9.502   9.811 -0.2829  0.6587 -1.0804
 1019MOL0     H34451   1.543   9.765   9.813 -0.7189  0.7814  0.6235
 1019MOL0     H34452   1.503   9.612   9.723 -1.0835 -1.9951  2.4432
 1019MOL0     H34453   1.504   9.630  10.018 -0.2541  0.3351  0.3571
 1019MOL0     H34454   1.454   9.488   9.930 -0.0190 -0.7012  3.3401
 1019MOL0     H34455   1.283   9.598   9.810 -0.8042 -0.5698  0.5762
 1019MOL0     H34456   1.298   9.754   9.903 -2.1737  0.3275  2.5672
 1019MOL0     H34457   1.271   9.487  10.046  0.3195 -0.5776  3.7352
 1019MOL0     H34458   1.265   9.652  10.111  0.3067 -0.8046  0.5887
 1019MOL0     H34459   1.067   9.549   9.914  1.8731 -0.0931 -0.5199
 1019MOL0     H34460   1.052   9.696  10.001 -0.8046 -1.2426 -2.8992
 1019MOL0     H34461   1.004   9.684  10.291  0.9426  0.0535  1.5617
 1019MOL0     H34462   0.944   9.585  10.504 -0.1428 -1.0096  2.2281
 1019MOL0     H34463   0.945   9.409  10.516  1.7990  1.8620  1.5997
 1019MOL0     H34464   0.725   9.388  10.473  1.8291 -1.6855  1.3365
 1019MOL0     H34465   0.697   9.557  10.410  0.5971  1.4154  0.1387
 1019MOL0     H34466   0.756   9.459  10.686  0.8561  2.2875  0.3673
 1019MOL0     H34467   0.767   9.634  10.637  1.6350 -0.2593 -0.1066
 1019MOL0     H34468   0.530   9.432  10.657 -1.1755  0.1264  0.2983
 1019MOL0     H34469   0.521   9.583  10.573  0.4486  0.3310  0.2015
 1019MOL0     H34470   0.472   9.657  11.029 -1.8184 -0.7228  1.7310
 1019MOL0     H34471   0.251   9.650  11.121  0.4095  0.3997 -0.1604
 1019MOL0     H34472  -0.098   9.432  11.237  0.3204  1.0869 -1.0983
 1019MOL0     H34473  -0.291   9.403  11.364 -0.1574  0.6150 -1.1304
 1019MOL0     H34474  -0.406   9.501  11.597 -0.7096 -0.7127  1.4613
 1019MOL0     H34475  -0.511   9.397  11.493  0.2370 -0.0165  1.2780
 1019MOL0     H34476  -0.606   9.604  11.685  0.0570 -0.1967 -0.7476
 1019MOL0     H34477  -0.641   9.435  11.671 -0.8937 -0.6614 -2.0829
 1019MOL0     H34478  -0.753   9.474  11.447 -1.0124  1.4212 -1.3946
 1019MOL0     H34479  -0.732   9.645  11.476 -1.9136  1.4204  1.5504
 1019MOL0     H34480  -0.900   9.454  11.655 -1.3474 -0.8625 -2.3082
 1019MOL0     H34481  -0.855   9.616  11.699 -2.0812  2.9857 -1.6662
 1019MOL0     H34482  -0.969   9.687  11.474  0.4111 -0.0381  1.0952
 1019MOL0     H34483  -1.082   9.639  11.609  1.7466  2.1245  1.5868
 1019MOL0     H34484  -1.106   9.412  11.523 -1.6849 -1.3306 -2.3171
 1019MOL0     H34485  -0.991   9.436  11.393 -0.4421 -1.9436  1.1777
 1019MOL0     H34486  -1.122   9.580  11.273 -2.5672 -1.2814 -1.9780
 1019MOL0     H34487  -1.204   9.436  11.304  0.2421  0.1616  0.2472
 1019MOL0     H34488  -1.247   9.719  11.402  2.3405 -0.8736 -2.0059
 1019MOL0     H34489  -1.303   9.581  11.514 -0.9443 -2.3514 -0.4685
 1019MOL0     H34490  -0.411   9.812  11.303 -1.2899 -1.4091 -1.1094
 1019MOL0     H34491  -0.189   9.836  11.159 -1.4372  0.0982  0.9866
 1019MOL0     H34492   0.083   9.567  10.742  0.5028  0.1799  0.3076
 1019MOL0     H34493   0.320   9.551  10.648 -2.5689  1.2900 -0.9351
 1019MOL0     H34494   2.146   9.613   9.945 -0.7043  1.7936 -0.1502
 1019MOL0     H34495   2.387   9.556   9.961  2.3808 -1.1804 -0.7142
 1019MOL0     H34496   2.811   9.919   9.990  1.7550  0.2711  3.1907
 1019MOL0     H34497   3.060   9.882  10.008 -0.7142  0.8587 -2.1270
 1019MOL0     H34498   3.365   9.742  10.025  0.4227 -0.5812 -1.0411
 1019MOL0     H34499   3.244   9.839   9.948  0.9335 -0.0203  2.7554
 1019MOL0     H34500   3.398   9.612   9.809 -0.3601  0.1264 -1.8231
 1019MOL0     H34501   3.247   9.684   9.743 -0.7040  1.3965 -0.7520
 1019MOL0     H34502   3.490   9.840   9.824 -0.6336 -0.7943 -0.1040
 1019MOL0     H34503   3.351   9.908   9.733  2.0458  0.5898 -0.3593
 1019MOL0     H34504   3.547   9.699   9.653  0.6900  0.2963  0.4250
 1019MOL0     H34505   3.402   9.727   9.559 -0.3073 -1.9569  0.5165
 1019MOL0     H34506   3.635  10.074   9.466 -0.6317 -0.4414  0.2372
 1019MOL0     H34507   3.021   9.475   9.878 -0.4633 -0.8570  1.3213
 1019MOL0     H34508   2.786   9.517   9.828 -0.8809 -0.3948 -0.4665
 1020MOL0     O34509   7.970   0.323   8.799  0.2791 -0.4980  0.5217
 1020MOL0     C34510   8.019   0.434   8.765 -0.4735  0.0387 -0.8142
 1020MOL0     O34511   7.945   0.535   8.719  0.1355 -0.4928 -1.1109
 1020MOL0     C34512   7.807   0.519   8.701  0.0733 -0.1162  0.1823
 1020MOL0     C34513   7.721   0.489   8.802  0.0156  0.6259 -0.3506
 1020MOL0     C34514   7.588   0.484   8.779  0.5560 -0.6162  0.0976
 1020MOL0     C34515   7.529   0.500   8.653 -0.3751  0.3339 -0.1362
 1020MOL0     O34516   7.394   0.479   8.629  0.5474 -0.7963  0.3724
 1020MOL0     C34517   7.303   0.500   8.738 -0.5418 -0.0047  0.2470
 1020MOL0     C34518   7.167   0.505   8.662  0.1255  0.6365  0.1736
 1020MOL0     C34519   7.043   0.524   8.751  0.2068 -0.0750 -0.5021
 1020MOL0     C34520   6.912   0.508   8.685  0.6056  0.2657  0.2213
 1020MOL0     C34521   6.798   0.509   8.786  0.2333  0.1204  0.0276
 1020MOL0     C34522   6.650   0.524   8.727  0.4924 -0.2812  0.9649
 1020MOL0     C34523   6.606   0.664   8.669  0.3999  0.3005  0.0895
 1020MOL0     C34524   6.452   0.662   8.650 -0.3957  0.2141 -0.6904
 1020MOL0     N34525   6.401   0.794   8.623  0.3895 -0.4033  0.0799
 1020MOL0     C34526   6.265   0.831   8.592 -0.8553 -0.0794  0.1348
 1020MOL0     C34527   6.254   0.960   8.558  0.5275 -0.3455 -0.1553
 1020MOL0     C34528   6.126   1.040   8.548  0.4339 -0.3601  0.9694
 1020MOL0     C34529   6.009   0.983   8.476 -0.2798  0.5812  0.2305
 1020MOL0     C34530   5.904   1.091   8.458  0.1008  0.5694  0.7021
 1020MOL0     C34531   5.792   1.045   8.370  0.4181  0.2671  0.6012
 1020MOL0     O34532   5.703   1.163   8.365  0.1336 -0.3216 -0.4838
 1020MOL0     C34533   5.562   1.148   8.351 -0.9737  0.1854  0.7760
 1020MOL0     C34534   5.469   1.236   8.412 -0.3566  0.6579  0.3348
 1020MOL0     C34535   5.334   1.203   8.420  0.3772 -0.7694  0.7416
 1020MOL0     C34536   5.283   1.097   8.346 -0.0845  0.1810  0.2399
 1020MOL0     C34537   5.136   1.074   8.331  0.1958 -0.2531 -0.4883
 1020MOL0     O34538   5.107   0.977   8.245  0.7106  0.9932 -0.1256
 1020MOL0     C34539   4.977   0.943   8.201  0.6759 -0.2394 -0.4065
 1020MOL0     C34540   4.968   0.861   8.088  0.5507  0.4704 -0.0717
 1020MOL0     C34541   4.841   0.807   8.045 -0.2215  0.1624  0.1182
 1020MOL0     C34542   4.726   0.845   8.110 -0.6404 -0.0993  0.2986
 1020MOL0     O34543   4.604   0.816   8.079  0.3258  0.1224 -0.3206
 1020MOL0     C34544   4.573   0.692   8.011  0.1072 -0.0984 -0.0755
 1020MOL0     C34545   4.421   0.674   8.017  0.0381  0.7651 -0.4008
 1020MOL0     C34546   4.362   0.671   8.154  0.1576  0.0611 -0.2484
 1020MOL0     C34547   4.225   0.595   8.157  0.5620  0.6108  0.6086
 1020MOL0     C34548   4.155   0.592   8.299  0.5489 -0.4298 -0.0115
 1020MOL0     C34549   4.010   0.562   8.301  0.1000  0.4822 -0.5910
 1020MOL0     C34550   3.967   0.433   8.226 -0.2176 -0.2431 -0.3164
 1020MOL0     C34551   3.820   0.388   8.222 -0.0515  0.5097  0.3674
 1020MOL0    Cl34552   3.776   0.316   8.381  0.2426  0.2238  0.2838
 1020MOL0     C34553   4.733   0.924   8.222 -0.1426  0.1120  0.0625
 1020MOL0     C34554   4.848   0.979   8.268 -0.9899 -0.1603 -0.0642
 1020MOL0     O34555   5.055   1.150   8.388  0.3673  0.2703  0.3578
 1020MOL0     C34556   5.371   1.014   8.278  0.5125 -0.7695  0.3369
 1020MOL0     C34557   5.510   1.035   8.277 -0.1212 -0.6555 -0.6722
 1020MOL0     N34558   6.385   1.010   8.546 -0.3426  0.2792 -0.0471
 1020MOL0     N34559   6.466   0.913   8.587  0.1082  0.2524 -0.4300
 1020MOL0     C34560   7.618   0.523   8.544  0.2249  1.0942 -0.2559
 1020MOL0     C34561   7.753   0.546   8.574  0.4406  0.5994  0.6304
 1020MOL0     C34562   8.160   0.464   8.790 -0.0515 -0.5910  0.6483
 1020MOL0     C34563   8.223   0.592   8.769  0.5925 -0.2369 -0.9963
 1020MOL0     C34564   8.361   0.603   8.768 -0.1591  0.5751  0.0096
 1020MOL0     C34565   8.445   0.496   8.801  1.5051 -0.7944  0.0636
 1020MOL0     O34566   8.584   0.517   8.806  0.1282  0.2081 -0.0904
 1020MOL0     C34567   8.673   0.428   8.878 -0.2930  0.0812 -0.7474
 1020MOL0     C34568   8.810   0.473   8.848  0.7637 -0.2715  0.3207
 1020MOL0     C34569   8.850   0.620   8.880 -0.3925 -0.4035  0.8809
 1020MOL0     C34570   8.940   0.637   9.005  0.4853 -0.0993 -0.2860
 1020MOL0     C34571   9.058   0.557   9.007  0.3174 -0.0440 -0.4570
 1020MOL0     C34572   9.157   0.493   9.002  0.8859  0.6014  0.6072
 1020MOL0     C34573   8.386   0.376   8.822 -0.3142 -0.0490 -0.2345
 1020MOL0     C34574   8.249   0.363   8.822  0.2458  0.1579 -0.1284
 1020MOL0     H34575   7.760   0.475   8.902 -1.6130 -2.2929 -0.0289
 1020MOL0     H34576   7.527   0.451   8.863  0.3782 -3.1458 -0.9303
 1020MOL0     H34577   7.309   0.594   8.794  1.6753  1.0070 -1.5311
 1020MOL0     H34578   7.303   0.420   8.812  1.9838  2.3744  3.0831
 1020MOL0     H34579   7.148   0.409   8.615 -2.2617  1.6587 -1.1115
 1020MOL0     H34580   7.177   0.576   8.579  1.4170  0.4649  0.1561
 1020MOL0     H34581   7.038   0.622   8.799  0.3173 -0.2958 -0.0297
 1020MOL0     H34582   7.050   0.452   8.834 -0.0241 -0.6866 -1.0032
 1020MOL0     H34583   6.893   0.577   8.602 -1.1808  0.0902  0.4479
 1020MOL0     H34584   6.907   0.413   8.631 -1.9344  0.7822 -0.5968
 1020MOL0     H34585   6.803   0.593   8.857 -2.0992 -1.7128  2.5529
 1020MOL0     H34586   6.806   0.408   8.827  1.7970 -0.8530 -2.4552
 1020MOL0     H34587   6.581   0.512   8.811 -0.9055  1.3104  0.0990
 1020MOL0     H34588   6.637   0.438   8.661 -0.9362  1.5278 -1.2181
 1020MOL0     H34589   6.639   0.741   8.739  0.6351 -0.0673  0.3831
 1020MOL0     H34590   6.660   0.684   8.576  0.9681  1.9380  0.7460
 1020MOL0     H34591   6.410   0.620   8.741 -1.2243 -0.6001 -1.4328
 1020MOL0     H34592   6.428   0.590   8.571  0.3708  0.3092 -1.0205
 1020MOL0     H34593   6.189   0.759   8.621 -2.0069  0.7119 -0.8171
 1020MOL0     H34594   6.148   1.137   8.502 -1.1154 -0.4285  0.0216
 1020MOL0     H34595   6.085   1.055   8.648 -0.4237 -0.5972  0.6625
 1020MOL0     H34596   5.963   0.904   8.536  1.1325  0.6292  1.4316
 1020MOL0     H34597   6.055   0.940   8.387 -0.0999 -2.3775  1.6248
 1020MOL0     H34598   5.871   1.113   8.560  0.9729  0.2182  1.0793
 1020MOL0     H34599   5.954   1.179   8.418  3.5152 -2.7281 -3.2202
 1020MOL0     H34600   5.739   0.953   8.397 -1.2343  0.5595 -1.4764
 1020MOL0     H34601   5.835   1.022   8.272 -4.1313  0.3880 -1.6340
 1020MOL0     H34602   5.507   1.321   8.468  0.3891  0.0251  0.8109
 1020MOL0     H34603   5.267   1.274   8.467  0.6699 -1.2112  1.8552
 1020MOL0     H34604   5.060   0.848   8.032 -0.9063  1.4678 -2.8635
 1020MOL0     H34605   4.843   0.756   7.950  2.0107  2.1473 -1.0066
 1020MOL0     H34606   4.619   0.607   8.061  1.2322 -0.5760 -1.8195
 1020MOL0     H34607   4.597   0.695   7.904  2.4334  0.9163  0.4087
 1020MOL0     H34608   4.397   0.581   7.964  1.2205 -0.0525  0.4326
 1020MOL0     H34609   4.382   0.758   7.959 -1.7985  1.3202  1.4962
 1020MOL0     H34610   4.358   0.776   8.181  3.5063  0.0231  0.8431
 1020MOL0     H34611   4.432   0.620   8.222  0.0859  0.4753  0.1373
 1020MOL0     H34612   4.162   0.653   8.091  0.4648  1.6867  1.6181
 1020MOL0     H34613   4.219   0.492   8.120 -0.7769  0.5278  1.0248
 1020MOL0     H34614   4.184   0.685   8.349 -2.4569  0.8085 -0.3378
 1020MOL0     H34615   4.197   0.505   8.350  0.6447  0.0670  0.7854
 1020MOL0     H34616   3.962   0.639   8.240  0.7332  0.9891 -0.4569
 1020MOL0     H34617   3.977   0.557   8.405  0.2465 -0.8184 -0.5854
 1020MOL0     H34618   4.004   0.432   8.123  2.6569  1.8369  0.5667
 1020MOL0     H34619   4.014   0.346   8.274 -1.8370 -0.8234  0.2670
 1020MOL0     H34620   3.817   0.305   8.151  1.7592 -1.3713  2.2969
 1020MOL0     H34621   3.750   0.463   8.185  0.8998  2.1616  1.7509
 1020MOL0     H34622   4.642   0.952   8.273  0.1318 -0.6481  1.0153
 1020MOL0     H34623   4.844   1.040   8.357  0.1555  0.8072 -0.6409
 1020MOL0     H34624   5.341   0.922   8.229 -0.1152  0.4419 -1.6654
 1020MOL0     H34625   5.585   0.966   8.240 -0.1353 -1.3718  0.5845
 1020MOL0     H34626   7.577   0.550   8.447 -1.9267 -0.8837  0.0187
 1020MOL0     H34627   7.823   0.555   8.492 -0.1120 -3.9609 -0.6572
 1020MOL0     H34628   8.149   0.669   8.754  0.8488  0.2524  0.1492
 1020MOL0     H34629   8.408   0.700   8.752  1.3004 -0.0617  0.3178
 1020MOL0     H34630   8.652   0.324   8.850 -0.0143  0.0429 -0.8132
 1020MOL0     H34631   8.647   0.426   8.984 -3.2320 -2.8372 -1.3724
 1020MOL0     H34632   8.875   0.400   8.898 -2.3014 -0.7020  4.1084
 1020MOL0     H34633   8.828   0.462   8.741  2.1133  1.0685  0.3681
 1020MOL0     H34634   8.756   0.677   8.879  0.9000  1.8437  0.2439
 1020MOL0     H34635   8.911   0.665   8.801 -1.7341  2.4819  1.3498
 1020MOL0     H34636   8.958   0.744   9.010  0.2470 -0.0473 -0.5101
 1020MOL0     H34637   8.878   0.607   9.089  0.6228 -2.4245 -0.9419
 1020MOL0     H34638   9.250   0.441   8.996 -0.1458 -1.1593 -2.1904
 1020MOL0     H34639   8.454   0.292   8.822  1.3751  1.2316  1.0112
 1020MOL0     H34640   8.212   0.261   8.821  1.0874 -0.1728  0.6625
 1021MOL0     O34641   8.568   2.527   1.281  0.0734  0.1220  0.6378
 1021MOL0     C34642   8.614   2.638   1.251  0.1131 -0.1806 -0.6392
 1021MOL0     O34643   8.550   2.752   1.284 -0.3347  0.0196 -0.7656
 1021MOL0     C34644   8.424   2.748   1.345  0.1586  0.4416 -0.3948
 1021MOL0     C34645   8.316   2.693   1.280  0.3889 -0.2674  0.2170
 1021MOL0     C34646   8.194   2.677   1.349 -0.2249 -0.1783  0.8183
 1021MOL0     C34647   8.172   2.741   1.472  0.0594 -0.1080 -0.1179
 1021MOL0     O34648   8.062   2.722   1.548 -0.2903  0.2483 -0.4979
 1021MOL0     C34649   7.940   2.663   1.499 -0.9941 -0.1470 -0.2585
 1021MOL0     C34650   7.837   2.669   1.613 -0.4685  0.4298 -1.0562
 1021MOL0     C34651   7.890   2.572   1.723 -0.4512  0.0586  0.6233
 1021MOL0     C34652   7.808   2.612   1.851  1.0468  0.3002  0.5714
 1021MOL0     C34653   7.665   2.546   1.853  1.0785  0.4219 -0.0329
 1021MOL0     C34654   7.575   2.596   1.965 -0.1610 -0.1389  0.1640
 1021MOL0     C34655   7.428   2.542   1.963  0.0614  0.4955  0.7350
 1021MOL0     C34656   7.351   2.591   2.083  0.5183 -0.0219 -0.2703
 1021MOL0     N34657   7.222   2.530   2.100 -0.5179 -0.1602  0.4171
 1021MOL0     C34658   7.103   2.564   2.051 -0.2495  0.3692  0.0987
 1021MOL0     C34659   7.012   2.478   2.103  0.4642 -0.0404  1.0025
 1021MOL0     C34660   6.863   2.476   2.071  0.6697  0.7485  0.6641
 1021MOL0     C34661   6.768   2.483   2.186  0.1189 -0.7119 -0.8303
 1021MOL0     C34662   6.770   2.620   2.255  0.0903  0.3391  0.4859
 1021MOL0     C34663   6.678   2.626   2.383 -0.0053  0.2530  0.3243
 1021MOL0     O34664   6.548   2.653   2.332  0.5559  0.0098 -0.0213
 1021MOL0     C34665   6.447   2.687   2.417  0.7310 -0.4311 -0.0735
 1021MOL0     C34666   6.436   2.628   2.545  0.4032  0.3705  0.2776
 1021MOL0     C34667   6.326   2.666   2.638 -0.4351 -0.6232  0.7579
 1021MOL0     C34668   6.232   2.766   2.592 -0.3902  0.5673 -0.6565
 1021MOL0     C34669   6.134   2.811   2.694 -0.3172  0.2815 -0.2489
 1021MOL0     O34670   6.059   2.923   2.660  0.6340 -0.1793 -0.7135
 1021MOL0     C34671   5.944   2.939   2.729 -0.2828 -0.0464  0.0264
 1021MOL0     C34672   5.834   2.847   2.724 -0.6329  0.3984 -0.1945
 1021MOL0     C34673   5.722   2.878   2.788  0.2658 -0.5357  0.1182
 1021MOL0     C34674   5.718   3.002   2.858  0.0576 -0.4116 -0.0196
 1021MOL0     O34675   5.624   3.041   2.950  0.6494  0.0593  0.2855
 1021MOL0     C34676   5.485   3.010   2.908 -1.3205 -0.0198 -0.1989
 1021MOL0     C34677   5.396   3.105   2.978 -0.8890 -0.2813 -0.1580
 1021MOL0     C34678   5.370   3.238   2.908 -0.0106  0.2569  0.2287
 1021MOL0     C34679   5.265   3.333   2.971 -0.0552  0.9069 -0.1757
 1021MOL0     C34680   5.265   3.460   2.899  0.2552 -1.1300  0.0385
 1021MOL0     C34681   5.186   3.579   2.970  0.7035  1.2863 -0.4811
 1021MOL0     C34682   5.205   3.717   2.912 -0.4729 -0.2726 -0.1830
 1021MOL0     C34683   5.118   3.832   2.955  0.8941  0.0385  0.0014
 1021MOL0    Cl34684   5.114   3.850   3.130  0.2528  0.1643 -0.0897
 1021MOL0     C34685   5.822   3.086   2.867 -0.5048 -0.9458  0.0061
 1021MOL0     C34686   5.938   3.051   2.803 -0.1416  0.2948  0.3806
 1021MOL0     O34687   6.109   2.736   2.788  0.5894  0.4644  0.1348
 1021MOL0     C34688   6.245   2.820   2.459 -0.4927 -0.8665 -0.7727
 1021MOL0     C34689   6.348   2.780   2.379  0.2536  0.0568  0.5676
 1021MOL0     N34690   7.083   2.383   2.175  0.0587  0.0451 -0.3745
 1021MOL0     N34691   7.212   2.412   2.167  0.5176  0.1441 -0.0677
 1021MOL0     C34692   8.283   2.810   1.533 -0.5471  0.3498  0.0953
 1021MOL0     C34693   8.411   2.803   1.473  0.0167 -0.5998 -0.1800
 1021MOL0     C34694   8.752   2.656   1.202 -0.0489 -0.8153  0.3372
 1021MOL0     C34695   8.803   2.788   1.187  0.5510 -0.2328  0.8541
 1021MOL0     C34696   8.932   2.821   1.127 -0.3820 -0.0349  0.4774
 1021MOL0     C34697   9.015   2.714   1.094  0.2557  0.9566  0.4276
 1021MOL0     O34698   9.142   2.726   1.034 -0.5623 -0.0990 -0.2578
 1021MOL0     C34699   9.186   2.853   0.977  0.0242  0.4694 -0.2815
 1021MOL0     C34700   9.332   2.828   0.929 -0.0847  0.3123 -1.0930
 1021MOL0     C34701   9.417   2.765   1.039  1.0321  0.1864 -0.2121
 1021MOL0     C34702   9.564   2.819   1.029 -0.8728 -0.5777 -0.0878
 1021MOL0     C34703   9.659   2.721   1.077 -0.0548 -0.1874  0.5553
 1021MOL0     C34704   9.749   2.651   1.116  0.7147 -0.1261 -0.1063
 1021MOL0     C34705   8.968   2.580   1.110  0.6158  0.0597 -0.6637
 1021MOL0     C34706   8.839   2.552   1.157 -0.3842 -0.2012  0.3981
 1021MOL0     H34707   8.326   2.646   1.183  1.8078  0.1531  0.1379
 1021MOL0     H34708   8.117   2.622   1.297  0.5218  2.6911 -3.8862
 1021MOL0     H34709   7.958   2.562   1.461  0.7247 -0.7508  1.9080
 1021MOL0     H34710   7.913   2.728   1.416  0.5806 -1.5177 -1.9367
 1021MOL0     H34711   7.741   2.642   1.568 -0.7117  1.5536 -1.2297
 1021MOL0     H34712   7.849   2.772   1.646  2.0486 -0.2200  0.3210
 1021MOL0     H34713   7.995   2.593   1.745 -0.7425  1.9941  0.4026
 1021MOL0     H34714   7.866   2.467   1.706 -1.2046  0.3161  0.0301
 1021MOL0     H34715   7.856   2.584   1.946 -1.2900 -1.8301  1.2360
 1021MOL0     H34716   7.793   2.719   1.841 -3.1314 -0.3571 -3.0354
 1021MOL0     H34717   7.671   2.438   1.861 -2.1776  0.0139 -1.5204
 1021MOL0     H34718   7.616   2.577   1.760 -2.3191  0.2516  1.5707
 1021MOL0     H34719   7.556   2.702   1.949 -0.3785  0.1632  2.1325
 1021MOL0     H34720   7.631   2.588   2.059  1.0367  2.0070 -0.3069
 1021MOL0     H34721   7.382   2.567   1.867  2.9734 -0.0536 -0.9105
 1021MOL0     H34722   7.434   2.433   1.964 -0.5126  0.4279 -0.7011
 1021MOL0     H34723   7.323   2.697   2.078  2.3523  0.5718  1.0406
 1021MOL0     H34724   7.418   2.578   2.168 -0.5203 -0.6811  0.4730
 1021MOL0     H34725   7.079   2.651   1.992 -2.7488  0.1681  0.6916
 1021MOL0     H34726   6.846   2.380   2.021 -2.0682  1.5189 -0.0140
 1021MOL0     H34727   6.828   2.550   1.999 -0.6623 -1.5057 -1.1591
 1021MOL0     H34728   6.802   2.405   2.254  2.2131  1.7316  1.1666
 1021MOL0     H34729   6.670   2.458   2.144  1.2580 -1.1415 -3.4882
 1021MOL0     H34730   6.868   2.652   2.289 -0.6015  0.4707  2.5135
 1021MOL0     H34731   6.727   2.698   2.192 -0.0099  1.6657  2.1317
 1021MOL0     H34732   6.707   2.713   2.441 -0.2473  0.9075 -0.5137
 1021MOL0     H34733   6.676   2.527   2.430  2.7530 -0.2733 -0.5157
 1021MOL0     H34734   6.515   2.561   2.575 -0.9239 -0.4488  2.1342
 1021MOL0     H34735   6.314   2.629   2.740 -2.1779  0.3716  0.9676
 1021MOL0     H34736   5.846   2.759   2.662 -2.2417  1.2988 -1.8678
 1021MOL0     H34737   5.638   2.810   2.775 -1.3544  1.8205 -3.0359
 1021MOL0     H34738   5.462   2.904   2.927  1.5263 -0.9366 -1.2639
 1021MOL0     H34739   5.468   3.025   2.801 -1.0622  0.5466 -0.1593
 1021MOL0     H34740   5.432   3.123   3.080 -0.7588  0.1410 -0.2763
 1021MOL0     H34741   5.301   3.053   2.986 -0.5690 -1.6151 -3.4129
 1021MOL0     H34742   5.332   3.209   2.810 -0.2826 -1.2280  0.7570
 1021MOL0     H34743   5.470   3.282   2.907  0.2267 -0.2755 -1.0430
 1021MOL0     H34744   5.172   3.275   2.965  1.6625 -1.8742 -3.0085
 1021MOL0     H34745   5.297   3.350   3.074 -0.9063 -0.0217  0.2576
 1021MOL0     H34746   5.217   3.452   2.801  1.0170  1.3642 -0.6107
 1021MOL0     H34747   5.370   3.490   2.892  0.2338 -0.8449  0.8267
 1021MOL0     H34748   5.204   3.572   3.078  0.9617 -0.8499 -0.6316
 1021MOL0     H34749   5.078   3.562   2.978  0.9979 -1.2589 -1.2521
 1021MOL0     H34750   5.311   3.745   2.913 -0.1870 -1.1049 -1.9350
 1021MOL0     H34751   5.179   3.708   2.806 -0.9528 -1.2573  0.0094
 1021MOL0     H34752   5.014   3.813   2.926 -0.3479 -0.0874  3.9489
 1021MOL0     H34753   5.155   3.926   2.913  1.5097 -0.3096 -0.2330
 1021MOL0     H34754   5.826   3.171   2.934  0.9886  0.0101 -1.2291
 1021MOL0     H34755   6.026   3.115   2.800 -0.0082  0.0938 -0.3638
 1021MOL0     H34756   6.174   2.897   2.431  0.7694  1.2928  1.4868
 1021MOL0     H34757   6.350   2.820   2.278  2.0196 -1.4757 -0.0727
 1021MOL0     H34758   8.279   2.855   1.632  0.3673 -3.0719  1.8710
 1021MOL0     H34759   8.498   2.852   1.517 -0.5021  1.5232 -1.3373
 1021MOL0     H34760   8.747   2.880   1.198  1.6781  0.3613  1.9190
 1021MOL0     H34761   8.969   2.922   1.119 -1.0501  0.2869  1.2592
 1021MOL0     H34762   9.188   2.940   1.044 -2.4701 -0.4738  1.1505
 1021MOL0     H34763   9.122   2.884   0.893 -1.6402 -1.2524  0.2824
 1021MOL0     H34764   9.333   2.769   0.837  1.2355 -0.4724 -0.5996
 1021MOL0     H34765   9.377   2.925   0.906 -1.2988  1.3133  0.5191
 1021MOL0     H34766   9.403   2.656   1.032 -0.3605  0.0897  2.6218
 1021MOL0     H34767   9.380   2.787   1.139 -1.1032  0.2784 -0.9794
 1021MOL0     H34768   9.593   2.845   0.926  0.8237 -0.3547  0.4061
 1021MOL0     H34769   9.577   2.906   1.093 -0.0798 -1.1252  0.5188
 1021MOL0     H34770   9.831   2.592   1.152 -0.2709  0.5209  3.7084
 1021MOL0     H34771   9.033   2.500   1.077 -0.3604 -1.5790  1.1669
 1021MOL0     H34772   8.802   2.452   1.139 -0.7032 -0.0374  0.1231
 1022MOL0     O34773   0.778  10.614   0.613 -0.2194 -0.3931 -0.0641
 1022MOL0     C34774   0.843  10.514   0.646  0.5435 -0.1545 -0.0141
 1022MOL0     O34775   0.812  10.429   0.749  0.5686  1.0870 -0.5027
 1022MOL0     C34776   0.716  10.468   0.839  0.3284 -0.1779  0.7177
 1022MOL0     C34777   0.699  10.601   0.889  0.4427  0.3847 -0.1863
 1022MOL0     C34778   0.592  10.626   0.976  0.5192 -0.9162 -0.6030
 1022MOL0     C34779   0.502  10.531   0.995 -0.1112  0.2720 -0.7397
 1022MOL0     O34780   0.383  10.567   1.065 -0.3894 -0.2002 -0.6643
 1022MOL0     C34781   0.269  10.540   0.980  0.6090 -0.5092  0.1182
 1022MOL0     C34782   0.144  10.515   1.071  0.0918  0.2176  0.1149
 1022MOL0     C34783   0.133  10.623   1.174  0.2161 -0.8596 -0.3238
 1022MOL0     C34784   0.000  10.612   1.259 -0.2386 -0.1205 -0.4628
 1022MOL0     C34785  -0.034  10.740   1.334 -0.2516  0.2800 -0.0309
 1022MOL0     C34786  -0.161  10.738   1.410 -0.0696  0.2709 -0.1781
 1022MOL0     C34787  -0.232  10.875   1.435  0.7018  0.1471  0.5368
 1022MOL0     C34788  -0.379  10.861   1.487  0.5190  0.0445 -0.6260
 1022MOL0     N34789  -0.466  10.787   1.398 -0.6148  0.5406  0.0386
 1022MOL0     C34790  -0.479  10.813   1.263  0.5778  0.3559 -0.0296
 1022MOL0     C34791  -0.564  10.710   1.224 -0.2496 -0.0990  0.8787
 1022MOL0     C34792  -0.626  10.709   1.081  0.6594  0.8010 -0.4078
 1022MOL0     C34793  -0.665  10.860   1.048  0.0962  0.1893 -0.1228
 1022MOL0     C34794  -0.760  10.871   0.924  1.0484 -0.3397  0.5716
 1022MOL0     C34795  -0.683  10.842   0.793  0.3017  0.3030  0.4667
 1022MOL0     O34796  -0.582  10.943   0.768 -0.0772 -0.4397  0.1550
 1022MOL0     C34797  -0.472  10.914   0.693  0.5102 -0.6629 -1.0347
 1022MOL0     C34798  -0.469  10.801   0.616 -0.0241 -0.4332  0.3107
 1022MOL0     C34799  -0.361  10.771   0.541  0.4050 -0.8857  0.3357
 1022MOL0     C34800  -0.253  10.861   0.534  0.1545  1.1721 -0.2268
 1022MOL0     C34801  -0.129  10.832   0.447 -0.0730  0.4041 -0.9503
 1022MOL0     O34802  -0.135  10.722   0.368  0.6959 -0.3329  0.0726
 1022MOL0     C34803  -0.046  10.691   0.276  0.2576  0.2955  0.6914
 1022MOL0     C34804  -0.077  10.660   0.145  0.1242  0.2901  0.9078
 1022MOL0     C34805   0.012  10.588   0.054  0.2112  0.2882 -0.0507
 1022MOL0     C34806   0.136  10.557   0.102 -0.4139  0.0934  0.6477
 1022MOL0     O34807   0.214  10.469   0.032  0.5530  0.1748  0.4950
 1022MOL0     C34808   0.326  10.404   0.088  0.1370 -0.2060 -0.3374
 1022MOL0     C34809   0.401  10.328  -0.019 -0.3693  0.3216 -0.4476
 1022MOL0     C34810   0.477  10.413  -0.114 -0.3998  0.6466 -0.5935
 1022MOL0     C34811   0.398  10.446  -0.234  0.9329 -0.2177  0.1956
 1022MOL0     C34812   0.475  10.528  -0.335  0.0680  0.3447  0.3020
 1022MOL0     C34813   0.416  10.495  -0.479  0.2669  0.8737 -0.1014
 1022MOL0     C34814   0.269  10.536  -0.513 -1.0665 -0.9112 -1.1350
 1022MOL0     C34815   0.220  10.493  -0.652  0.1760 -0.5779  0.3165
 1022MOL0    Cl34816   0.352  10.480  -0.774 -0.4390 -0.0947  0.2553
 1022MOL0     C34817   0.174  10.600   0.232  0.0607  0.3558 -0.4033
 1022MOL0     C34818   0.079  10.663   0.318  0.1950  0.4199 -0.1926
 1022MOL0     O34819  -0.036  10.917   0.447 -0.0327 -0.0461 -0.0000
 1022MOL0     C34820  -0.268  10.984   0.604 -0.1552 -1.0067  0.1500
 1022MOL0     C34821  -0.379  11.018   0.677  0.2145  0.6244  0.2041
 1022MOL0     N34822  -0.607  10.642   1.333  0.0591 -0.2239 -0.1724
 1022MOL0     N34823  -0.555  10.688   1.440 -0.7180 -0.0561 -0.2431
 1022MOL0     C34824   0.509  10.402   0.937  0.2775 -0.2414 -0.0296
 1022MOL0     C34825   0.620  10.372   0.866 -1.1223 -0.3100  0.5801
 1022MOL0     C34826   0.949  10.479   0.562  0.4587  0.1058  0.2433
 1022MOL0     C34827   0.967  10.551   0.445 -0.2356  0.5738 -0.5579
 1022MOL0     C34828   1.053  10.506   0.347  0.5524 -0.2134  0.2969
 1022MOL0     C34829   1.141  10.401   0.364  0.1540 -0.0418 -0.2251
 1022MOL0     O34830   1.237  10.382   0.265  0.3368 -0.9194  0.6023
 1022MOL0     C34831   1.308  10.262   0.268 -0.2514 -0.0964 -0.1863
 1022MOL0     C34832   1.433  10.274   0.177  0.6943  0.1876  0.5281
 1022MOL0     C34833   1.553  10.326   0.252 -0.8650  0.2361 -0.9031
 1022MOL0     C34834   1.680  10.299   0.169 -0.1557 -0.6023 -0.5505
 1022MOL0     C34835   1.792  10.328   0.260 -0.1203 -1.0707  0.0472
 1022MOL0     C34836   1.893  10.343   0.332 -0.2644  1.0486  0.5152
 1022MOL0     C34837   1.125  10.330   0.490  0.5002 -0.2492 -0.6194
 1022MOL0     C34838   1.028  10.360   0.586  0.2182 -0.0834 -0.0230
 1022MOL0     H34839   0.770  10.682   0.873  0.9501  0.0679  0.4284
 1022MOL0     H34840   0.584  10.729   1.008  0.8849 -0.2671 -2.4609
 1022MOL0     H34841   0.270  10.454   0.912 -1.9893  0.1224 -0.8127
 1022MOL0     H34842   0.245  10.625   0.915  1.3880 -1.2424 -1.1757
 1022MOL0     H34843   0.142  10.423   1.131  0.2595 -0.8800 -1.4889
 1022MOL0     H34844   0.055  10.511   1.007 -0.0335 -0.0890  0.3030
 1022MOL0     H34845   0.129  10.720   1.124 -0.3077 -0.3008  0.7548
 1022MOL0     H34846   0.220  10.632   1.239 -0.0547 -0.5549  0.0055
 1022MOL0     H34847  -0.086  10.588   1.196  0.2028 -2.3399 -0.3169
 1022MOL0     H34848   0.018  10.533   1.332  3.4802  0.6867 -0.3013
 1022MOL0     H34849  -0.019  10.826   1.269  0.9478  0.5384  0.5630
 1022MOL0     H34850   0.045  10.756   1.408 -0.8963  2.2017  0.2906
 1022MOL0     H34851  -0.151  10.680   1.502 -0.6374 -3.1019 -2.1016
 1022MOL0     H34852  -0.218  10.676   1.341  1.8447 -1.3303 -0.4119
 1022MOL0     H34853  -0.173  10.934   1.506 -1.2249  1.4625  1.1417
 1022MOL0     H34854  -0.235  10.932   1.342  2.6087 -0.9813 -0.2676
 1022MOL0     H34855  -0.433  10.956   1.496 -0.5243 -0.5828 -0.0799
 1022MOL0     H34856  -0.388  10.814   1.585 -2.5500 -0.0539 -0.8830
 1022MOL0     H34857  -0.428  10.894   1.213  1.6705  1.2935  2.4313
 1022MOL0     H34858  -0.714  10.645   1.076  1.5203 -0.3907 -0.7564
 1022MOL0     H34859  -0.551  10.671   1.011  1.2284 -2.2961  1.6492
 1022MOL0     H34860  -0.575  10.922   1.040  0.3670 -0.3328 -1.3172
 1022MOL0     H34861  -0.722  10.896   1.134 -0.5378 -0.5961 -0.2072
 1022MOL0     H34862  -0.850  10.817   0.954 -1.6103  1.0294 -3.9584
 1022MOL0     H34863  -0.800  10.972   0.916  1.1300 -0.2486  1.2992
 1022MOL0     H34864  -0.752  10.836   0.709 -0.1923 -0.5283  0.9223
 1022MOL0     H34865  -0.634  10.746   0.813 -1.4102 -0.8735 -0.7282
 1022MOL0     H34866  -0.547  10.726   0.617  0.5725 -1.0853 -0.6321
 1022MOL0     H34867  -0.366  10.678   0.485 -1.1518  0.2050 -1.4412
 1022MOL0     H34868  -0.182  10.680   0.122  0.9126  2.2425 -1.3217
 1022MOL0     H34869  -0.023  10.560  -0.045 -1.3715  2.7526 -0.2895
 1022MOL0     H34870   0.295  10.329   0.161  2.5435 -1.2864 -0.3103
 1022MOL0     H34871   0.392  10.471   0.144 -0.8998 -0.8165  1.7086
 1022MOL0     H34872   0.328  10.265  -0.071  1.2449 -0.5173 -1.7943
 1022MOL0     H34873   0.457  10.250   0.033  0.3893  0.8522 -0.4500
 1022MOL0     H34874   0.569  10.361  -0.139 -1.3752 -1.0321 -0.8454
 1022MOL0     H34875   0.507  10.507  -0.067  0.0700  0.1827  0.0422
 1022MOL0     H34876   0.363  10.353  -0.279  0.5655  0.7434 -1.5833
 1022MOL0     H34877   0.306  10.496  -0.202 -0.9307 -2.4818 -1.3544
 1022MOL0     H34878   0.574  10.483  -0.341 -1.0024 -2.1323 -0.0969
 1022MOL0     H34879   0.504  10.633  -0.325  1.4707 -0.0013 -0.0003
 1022MOL0     H34880   0.414  10.385  -0.480 -1.6773  0.8804 -0.4984
 1022MOL0     H34881   0.488  10.532  -0.552 -0.7651  1.7393 -0.7090
 1022MOL0     H34882   0.212  10.489  -0.433 -1.3540  0.6096 -0.4126
 1022MOL0     H34883   0.259  10.645  -0.503 -0.6488 -0.8285 -1.5860
 1022MOL0     H34884   0.142  10.562  -0.684  3.3172  3.5178  0.7723
 1022MOL0     H34885   0.185  10.389  -0.647  0.3221 -0.6187  0.5097
 1022MOL0     H34886   0.270  10.601   0.282 -0.5088 -0.0140  0.7225
 1022MOL0     H34887   0.114  10.695   0.416  0.5316 -0.6254  0.0428
 1022MOL0     H34888  -0.192  11.056   0.576  0.6332 -2.2769 -1.1104
 1022MOL0     H34889  -0.408  11.112   0.723 -1.1284  0.4699 -0.2790
 1022MOL0     H34890   0.434  10.325   0.951 -0.3120  0.5082  1.1618
 1022MOL0     H34891   0.633  10.275   0.818  0.7175 -0.4562  1.2989
 1022MOL0     H34892   0.906  10.636   0.416 -0.8061 -0.6988 -3.3542
 1022MOL0     H34893   1.047  10.565   0.256 -0.4442  1.4441  1.3677
 1022MOL0     H34894   1.245  10.193   0.211 -0.1893  0.0975 -0.4924
 1022MOL0     H34895   1.329  10.228   0.370 -0.5434  0.1396 -0.0479
 1022MOL0     H34896   1.456  10.183   0.122 -4.1400  0.2822 -2.2410
 1022MOL0     H34897   1.406  10.344   0.097 -3.2441 -2.9663 -1.2519
 1022MOL0     H34898   1.564  10.269   0.345  1.2361 -3.4282 -3.1573
 1022MOL0     H34899   1.545  10.433   0.274  1.4983  0.2473  0.2268
 1022MOL0     H34900   1.696  10.195   0.140  2.5667 -0.6136  0.7063
 1022MOL0     H34901   1.680  10.355   0.075  0.8714  0.6617  0.1610
 1022MOL0     H34902   1.982  10.346   0.391  0.8012 -0.0691 -0.9617
 1022MOL0     H34903   1.184  10.243   0.515 -1.8012 -1.3546  1.4714
 1022MOL0     H34904   1.009  10.302   0.676 -1.4650 -2.0561 -1.5427
 1023MOL0     O34905   2.437   6.821   3.692  0.0159 -0.3115 -0.5822
 1023MOL0     C34906   2.364   6.883   3.769 -0.1142  0.6852  0.7569
 1023MOL0     O34907   2.233   6.871   3.784 -0.0917 -0.3447  0.1013
 1023MOL0     C34908   2.172   6.784   3.708  0.0187 -0.3332  0.0158
 1023MOL0     C34909   2.139   6.655   3.754  1.3200 -0.3016  0.5028
 1023MOL0     C34910   2.056   6.569   3.683  0.3654  0.1840 -0.2537
 1023MOL0     C34911   2.011   6.620   3.560  0.7625  0.5457 -0.3204
 1023MOL0     O34912   1.932   6.534   3.489 -0.5663 -0.2233 -0.2128
 1023MOL0     C34913   1.804   6.583   3.477 -0.3627 -1.3246  0.8345
 1023MOL0     C34914   1.713   6.464   3.506  0.5404  0.9493 -0.0340
 1023MOL0     C34915   1.566   6.497   3.467  0.2725 -0.1468  0.0509
 1023MOL0     C34916   1.454   6.395   3.521 -0.0668  0.2389 -0.1131
 1023MOL0     C34917   1.320   6.434   3.465  0.2829  0.1663  0.6881
 1023MOL0     C34918   1.205   6.331   3.487 -0.5203 -0.5364 -1.3773
 1023MOL0     C34919   1.115   6.334   3.367  0.1607  0.3888  0.0366
 1023MOL0     C34920   1.011   6.229   3.373  0.5430 -0.3386  0.1508
 1023MOL0     N34921   0.922   6.250   3.252  0.4851  0.1351 -0.4567
 1023MOL0     C34922   0.938   6.202   3.124  0.6858  0.2388 -0.1086
 1023MOL0     C34923   0.824   6.228   3.059  0.5059  0.5482 -0.3252
 1023MOL0     C34924   0.788   6.176   2.922  0.0001 -0.5511 -0.2937
 1023MOL0     C34925   0.651   6.229   2.868 -0.2666 -0.3589  0.5079
 1023MOL0     C34926   0.621   6.165   2.731  0.1714 -0.4854  0.4045
 1023MOL0     C34927   0.493   6.211   2.663  0.0732 -0.1481 -0.0414
 1023MOL0     O34928   0.387   6.160   2.749  0.1302  0.3442  0.0396
 1023MOL0     C34929   0.256   6.195   2.730  1.5435 -0.8859 -0.1517
 1023MOL0     C34930   0.208   6.273   2.622  0.3612 -0.6479 -0.9031
 1023MOL0     C34931   0.071   6.316   2.619 -0.1768  0.7717  0.1334
 1023MOL0     C34932  -0.018   6.291   2.720  0.1125  0.2491 -0.4123
 1023MOL0     C34933  -0.159   6.344   2.721 -0.3267 -0.9453  0.7759
 1023MOL0     O34934  -0.241   6.294   2.820 -0.1052  0.1143 -0.0603
 1023MOL0     C34935  -0.371   6.337   2.809 -0.5167 -0.3896 -0.1312
 1023MOL0     C34936  -0.408   6.456   2.877  0.3881 -0.3309  0.0222
 1023MOL0     C34937  -0.548   6.481   2.879  0.3767 -0.3042 -0.1979
 1023MOL0     C34938  -0.642   6.401   2.806  0.8222  0.3810 -0.2883
 1023MOL0     O34939  -0.772   6.427   2.830  0.1285  0.1282  0.0391
 1023MOL0     C34940  -0.877   6.372   2.751 -0.5766  0.3186 -0.7112
 1023MOL0     C34941  -1.001   6.464   2.746 -0.6803 -0.1604 -0.0369
 1023MOL0     C34942  -1.102   6.439   2.863 -0.3839 -0.4790 -0.2633
 1023MOL0     C34943  -1.234   6.506   2.836  0.8780  0.0715  0.0392
 1023MOL0     C34944  -1.324   6.534   2.963 -0.0899  0.3799  0.1146
 1023MOL0     C34945  -1.436   6.643   2.940 -0.2454  0.1159  0.8371
 1023MOL0     C34946  -1.536   6.654   3.056 -0.4139 -0.7875  0.0097
 1023MOL0     C34947  -1.610   6.799   3.066  0.4249  0.2663 -0.5294
 1023MOL0    Cl34948  -1.715   6.835   2.923  0.2442 -0.7457  0.0999
 1023MOL0     C34949  -0.597   6.289   2.734  0.0382  0.7583  0.0340
 1023MOL0     C34950  -0.464   6.256   2.748 -0.3035  0.2576 -0.0838
 1023MOL0     O34951  -0.196   6.416   2.629 -0.5119  0.5182 -0.9972
 1023MOL0     C34952   0.035   6.214   2.830  0.1071 -0.0987  0.5224
 1023MOL0     C34953   0.169   6.173   2.833  0.4010 -0.2431 -1.0076
 1023MOL0     N34954   0.734   6.288   3.153 -0.0861 -0.8698 -0.7373
 1023MOL0     N34955   0.789   6.284   3.271  0.6520 -0.5696  0.1960
 1023MOL0     C34956   2.040   6.749   3.516 -0.9959 -0.2286  0.4706
 1023MOL0     C34957   2.121   6.837   3.588  0.0931  0.7679 -0.8487
 1023MOL0     C34958   2.429   6.978   3.859 -0.4888 -0.8634 -0.0532
 1023MOL0     C34959   2.563   6.960   3.906  0.3449 -0.3314 -0.7028
 1023MOL0     C34960   2.622   7.054   3.998  1.2151  0.6083  0.6307
 1023MOL0     C34961   2.547   7.167   4.040 -0.3422 -0.4744  0.9753
 1023MOL0     O34962   2.598   7.261   4.129  0.1502 -0.4689 -0.1678
 1023MOL0     C34963   2.702   7.346   4.075  0.6232  0.7166 -0.3629
 1023MOL0     C34964   2.701   7.488   4.148  0.2057  0.2349  0.5267
 1023MOL0     C34965   2.796   7.587   4.083  0.1997  0.4417 -0.1022
 1023MOL0     C34966   2.945   7.561   4.102  0.6265  0.6391  0.1937
 1023MOL0     C34967   3.030   7.651   4.033 -0.3938 -0.8435 -0.8744
 1023MOL0     C34968   3.105   7.715   3.958 -0.4783  0.7981 -0.3645
 1023MOL0     C34969   2.415   7.192   3.993 -0.4665 -0.3532 -0.1979
 1023MOL0     C34970   2.363   7.098   3.907 -0.2283  0.4113  0.1170
 1023MOL0     H34971   2.174   6.630   3.854  0.6075  2.6708  1.6236
 1023MOL0     H34972   2.043   6.462   3.694  1.9823 -0.6177 -4.4090
 1023MOL0     H34973   1.774   6.610   3.375 -1.5520 -1.7006  1.0709
 1023MOL0     H34974   1.780   6.672   3.536 -0.1537 -0.4312 -0.3720
 1023MOL0     H34975   1.709   6.444   3.613  0.9125  2.4514  0.2792
 1023MOL0     H34976   1.747   6.374   3.454 -1.1411 -0.2509  0.8468
 1023MOL0     H34977   1.562   6.498   3.357 -1.4265  0.0852  0.0958
 1023MOL0     H34978   1.548   6.601   3.495  0.5810 -0.3571  1.0701
 1023MOL0     H34979   1.463   6.294   3.480 -0.5120 -1.3571  3.3950
 1023MOL0     H34980   1.457   6.386   3.630 -1.5485  2.6306  0.1977
 1023MOL0     H34981   1.346   6.439   3.359  2.2783  0.6256  1.1693
 1023MOL0     H34982   1.293   6.535   3.495  0.6330  0.8269 -1.0750
 1023MOL0     H34983   1.149   6.357   3.577  1.3781 -1.7319  0.2212
 1023MOL0     H34984   1.242   6.231   3.511 -0.8621  0.2835  3.6393
 1023MOL0     H34985   1.076   6.437   3.371 -2.0042 -0.2706 -1.9016
 1023MOL0     H34986   1.173   6.326   3.274 -1.3242 -0.3139 -0.8663
 1023MOL0     H34987   0.959   6.233   3.469  2.8409  0.7394  1.4244
 1023MOL0     H34988   1.054   6.129   3.366 -1.9794 -1.7800  2.7598
 1023MOL0     H34989   1.008   6.135   3.076  1.7396  2.4958 -1.8732
 1023MOL0     H34990   0.794   6.067   2.931 -0.2025 -0.5968 -0.7075
 1023MOL0     H34991   0.870   6.186   2.850  0.2622 -1.8925 -0.2085
 1023MOL0     H34992   0.649   6.338   2.866 -1.4732 -0.3783  0.2084
 1023MOL0     H34993   0.576   6.205   2.944 -0.1780 -1.1838  0.3511
 1023MOL0     H34994   0.701   6.200   2.665  1.2040 -0.5290  1.6054
 1023MOL0     H34995   0.638   6.056   2.736  1.3927 -0.3233  0.2302
 1023MOL0     H34996   0.492   6.171   2.561  1.4996  1.1388 -0.6000
 1023MOL0     H34997   0.495   6.320   2.659 -0.4738  0.0423  2.7047
 1023MOL0     H34998   0.275   6.296   2.540 -0.8666  0.6684 -1.5796
 1023MOL0     H34999   0.045   6.374   2.532 -1.3287  1.9494  1.2154
 1023MOL0     H35000  -0.335   6.505   2.939  1.2512  0.6480 -1.6940
 1023MOL0     H35001  -0.571   6.566   2.943  1.9554 -0.7732  1.0686
 1023MOL0     H35002  -0.899   6.271   2.789  4.3095 -1.3624 -1.6130
 1023MOL0     H35003  -0.839   6.356   2.650  0.7412 -0.8871 -0.0697
 1023MOL0     H35004  -1.041   6.444   2.646 -0.8569  0.2166 -0.0438
 1023MOL0     H35005  -0.970   6.569   2.747 -1.1126 -0.0328  0.1649
 1023MOL0     H35006  -1.056   6.474   2.956  1.7767 -3.1426 -0.1752
 1023MOL0     H35007  -1.103   6.335   2.899 -0.4050 -0.1306  0.7890
 1023MOL0     H35008  -1.210   6.604   2.793  0.5738 -0.2392 -0.8536
 1023MOL0     H35009  -1.294   6.452   2.762 -2.3006 -0.0873  2.5073
 1023MOL0     H35010  -1.253   6.565   3.041  1.4694 -2.5012  0.0008
 1023MOL0     H35011  -1.371   6.438   2.984 -1.5359  0.8620 -0.7970
 1023MOL0     H35012  -1.488   6.632   2.844  0.4453  1.7111  0.2572
 1023MOL0     H35013  -1.386   6.740   2.932  0.0697 -0.1136 -0.2132
 1023MOL0     H35014  -1.611   6.575   3.041 -1.4424  0.4612 -1.7314
 1023MOL0     H35015  -1.490   6.640   3.154 -1.8074  2.1132  1.1840
 1023MOL0     H35016  -1.537   6.877   3.087  2.0086 -1.2140 -0.3291
 1023MOL0     H35017  -1.665   6.779   3.159  0.4319  0.3687 -0.5029
 1023MOL0     H35018  -0.671   6.224   2.689 -0.0521  1.9091 -1.5852
 1023MOL0     H35019  -0.420   6.165   2.708 -0.2863 -0.2823  1.1138
 1023MOL0     H35020  -0.032   6.212   2.915 -3.0292  0.8436 -1.7367
 1023MOL0     H35021   0.205   6.123   2.923  2.3955 -1.9935 -2.6650
 1023MOL0     H35022   1.991   6.785   3.425 -2.2104 -0.3439  1.0533
 1023MOL0     H35023   2.155   6.934   3.553  1.0724  1.2906  1.3570
 1023MOL0     H35024   2.619   6.872   3.876  1.1458 -0.6044  1.3989
 1023MOL0     H35025   2.723   7.047   4.038  1.8761 -0.4297 -1.0881
 1023MOL0     H35026   2.671   7.359   3.971  1.0053 -1.3140 -0.7829
 1023MOL0     H35027   2.802   7.301   4.075  0.2906 -0.2314  2.2601
 1023MOL0     H35028   2.597   7.521   4.139 -0.2753 -1.6842 -2.5101
 1023MOL0     H35029   2.726   7.472   4.253 -0.8161 -1.6184  0.5327
 1023MOL0     H35030   2.777   7.686   4.125 -0.0818  0.7445 -0.9173
 1023MOL0     H35031   2.781   7.590   3.975  3.6247 -1.3975 -0.7864
 1023MOL0     H35032   2.964   7.570   4.210 -2.0361 -1.1829  0.8994
 1023MOL0     H35033   2.974   7.459   4.077 -1.6517 -0.1761  0.6383
 1023MOL0     H35034   3.176   7.779   3.909 -2.0945  2.5825 -0.4838
 1023MOL0     H35035   2.367   7.286   4.017 -0.6893 -0.2335 -1.0738
 1023MOL0     H35036   2.266   7.123   3.866 -2.2976 -0.8911  3.7411
 1024MOL0     O35037   3.039   0.810   1.126 -0.2330  0.2185  0.2202
 1024MOL0     C35038   3.116   0.771   1.039  0.0738 -0.2138  0.3610
 1024MOL0     O35039   3.087   0.746   0.913  0.7146  0.4962  0.6381
 1024MOL0     C35040   2.948   0.753   0.883  0.0997 -0.0630  0.3746
 1024MOL0     C35041   2.887   0.853   0.818  0.3675 -0.7094  0.7918
 1024MOL0     C35042   2.746   0.858   0.796 -0.9924  0.8914 -0.7240
 1024MOL0     C35043   2.669   0.759   0.839 -0.2947  0.9223  0.2494
 1024MOL0     O35044   2.533   0.750   0.816  0.1700 -0.5781 -0.3211
 1024MOL0     C35045   2.470   0.869   0.854 -0.4913  0.1972 -0.6211
 1024MOL0     C35046   2.336   0.819   0.912  0.7365 -0.1864 -0.2938
 1024MOL0     C35047   2.224   0.815   0.802  0.3380 -0.7924 -0.3260
 1024MOL0     C35048   2.100   0.769   0.865 -0.2222  1.1007  0.0970
 1024MOL0     C35049   1.989   0.757   0.752 -0.0129  0.0372 -0.6605
 1024MOL0     C35050   1.857   0.718   0.819  0.0681  0.3128  0.2224
 1024MOL0     C35051   1.751   0.711   0.714  0.3857  0.9236 -0.6027
 1024MOL0     C35052   1.616   0.693   0.795 -0.5543  0.2629 -0.0977
 1024MOL0     N35053   1.591   0.560   0.860  0.0628 -0.2893  0.3685
 1024MOL0     C35054   1.634   0.514   0.980 -0.0416  0.3627  0.1305
 1024MOL0     C35055   1.569   0.396   0.999 -0.6813 -0.1136 -0.3928
 1024MOL0     C35056   1.582   0.309   1.119 -0.2085 -0.0128 -0.6087
 1024MOL0     C35057   1.505   0.364   1.236  0.1689  0.4432 -1.0600
 1024MOL0     C35058   1.515   0.264   1.354 -1.0946 -0.1007  0.4926
 1024MOL0     C35059   1.656   0.212   1.390  0.6764 -0.4528  0.6205
 1024MOL0     O35060   1.742   0.321   1.424  0.1488 -0.0916  0.9732
 1024MOL0     C35061   1.876   0.302   1.419 -0.1722  0.7130  0.4216
 1024MOL0     C35062   1.960   0.418   1.394 -0.8904  0.8790 -0.5985
 1024MOL0     C35063   2.102   0.404   1.394  0.0912  0.3228  0.5890
 1024MOL0     C35064   2.165   0.285   1.407  0.6721  0.4806  0.3084
 1024MOL0     C35065   2.317   0.273   1.403 -0.5297 -0.7052  0.9489
 1024MOL0     O35066   2.366   0.150   1.428 -0.5870  0.1734  0.4156
 1024MOL0     C35067   2.502   0.135   1.413  0.4523 -0.0703 -0.2716
 1024MOL0     C35068   2.553   0.059   1.306 -0.0473 -0.0667  0.7342
 1024MOL0     C35069   2.694   0.033   1.294 -0.3565 -0.0156 -0.1339
 1024MOL0     C35070   2.784   0.083   1.389 -0.0964 -0.0451  0.1602
 1024MOL0     O35071   2.920   0.057   1.388  0.3946  0.2820  0.0840
 1024MOL0     C35072   2.964  -0.052   1.307 -0.2932  0.1841 -0.5635
 1024MOL0     C35073   3.099  -0.082   1.369 -1.1166 -0.3194 -0.4969
 1024MOL0     C35074   3.166  -0.196   1.294 -0.0405 -0.5834 -0.8707
 1024MOL0     C35075   3.318  -0.202   1.333  0.2615 -0.4243  0.7952
 1024MOL0     C35076   3.398  -0.284   1.230  0.5037  0.0503  0.8891
 1024MOL0     C35077   3.465  -0.205   1.117 -0.1304  0.1327 -0.5001
 1024MOL0     C35078   3.568  -0.304   1.050  0.2651  0.0503 -0.4529
 1024MOL0     C35079   3.637  -0.230   0.934  0.6676 -0.1423 -0.0430
 1024MOL0    Cl35080   3.514  -0.176   0.812  0.2776  0.5205 -0.2460
 1024MOL0     C35081   2.733   0.155   1.493 -0.5662 -0.1285  0.9025
 1024MOL0     C35082   2.598   0.191   1.506 -0.0291  0.1921  0.2929
 1024MOL0     O35083   2.386   0.376   1.370  0.0848  0.2316 -0.0376
 1024MOL0     C35084   2.082   0.169   1.431 -0.1933 -0.2040 -0.7612
 1024MOL0     C35085   1.942   0.182   1.438  0.2265  0.2441  0.4983
 1024MOL0     N35086   1.493   0.372   0.885 -0.0196  0.1234 -0.7681
 1024MOL0     N35087   1.517   0.465   0.794  0.2910  0.2969  0.1818
 1024MOL0     C35088   2.727   0.650   0.899 -0.4013  0.0982  0.3584
 1024MOL0     C35089   2.864   0.649   0.922 -0.1164 -0.0818  0.3754
 1024MOL0     C35090   3.258   0.747   1.076 -0.3842 -0.6033  0.3680
 1024MOL0     C35091   3.301   0.709   1.204  0.2309 -1.3247  0.5394
 1024MOL0     C35092   3.438   0.667   1.225  0.2930  0.2246  0.4668
 1024MOL0     C35093   3.526   0.651   1.119  0.5928 -0.6249  0.4201
 1024MOL0     O35094   3.654   0.599   1.150 -0.3894 -0.5486  0.6871
 1024MOL0     C35095   3.743   0.557   1.051  1.0700  0.4005  0.3257
 1024MOL0     C35096   3.879   0.615   1.070  0.1202 -0.2864 -0.3988
 1024MOL0     C35097   3.942   0.563   1.197  0.1993 -0.4729 -0.4324
 1024MOL0     C35098   3.990   0.420   1.205  0.5942  0.2261 -0.3464
 1024MOL0     C35099   4.110   0.397   1.136 -0.5260 -0.1230  0.3179
 1024MOL0     C35100   4.219   0.395   1.090  0.3137 -0.0302  0.2850
 1024MOL0     C35101   3.480   0.687   0.995 -0.1180  0.4849 -0.6182
 1024MOL0     C35102   3.356   0.742   0.974 -0.0397  0.6985 -0.5692
 1024MOL0     H35103   2.943   0.935   0.776  0.7628  0.1314  2.8290
 1024MOL0     H35104   2.704   0.931   0.727 -1.4908  2.9858  1.6546
 1024MOL0     H35105   2.465   0.935   0.767  1.8352  1.2198 -0.0515
 1024MOL0     H35106   2.517   0.921   0.938  0.4320  0.1302 -1.0871
 1024MOL0     H35107   2.301   0.892   0.986  0.3641 -0.6389 -0.0222
 1024MOL0     H35108   2.336   0.722   0.962 -1.4048 -1.7031 -2.9410
 1024MOL0     H35109   2.251   0.741   0.726  2.7309  2.9871 -3.5559
 1024MOL0     H35110   2.212   0.913   0.755  1.4049 -0.0730  0.8553
 1024MOL0     H35111   2.115   0.666   0.900 -1.4391  0.6514 -0.6378
 1024MOL0     H35112   2.068   0.826   0.953 -0.7993  0.6083  0.2097
 1024MOL0     H35113   2.010   0.673   0.685 -0.8727 -1.5250  0.9287
 1024MOL0     H35114   1.976   0.857   0.710 -4.3038  0.8609  1.9853
 1024MOL0     H35115   1.829   0.790   0.897  0.4276  0.1563  0.4989
 1024MOL0     H35116   1.874   0.625   0.875  0.4603 -0.5048 -1.2025
 1024MOL0     H35117   1.760   0.795   0.645 -0.4663  1.5540  0.0470
 1024MOL0     H35118   1.766   0.619   0.655 -0.1703  0.6747 -0.3586
 1024MOL0     H35119   1.531   0.702   0.727 -0.4208  0.6219 -0.2190
 1024MOL0     H35120   1.595   0.768   0.872 -3.5375 -0.5665  0.0283
 1024MOL0     H35121   1.701   0.558   1.053 -1.4012  0.8792  1.1016
 1024MOL0     H35122   1.685   0.301   1.156 -0.8744 -1.7909  1.0165
 1024MOL0     H35123   1.546   0.212   1.084  0.3985  0.6537 -3.3493
 1024MOL0     H35124   1.397   0.370   1.220 -0.6974 -0.1640  3.3717
 1024MOL0     H35125   1.549   0.460   1.262  3.4622 -0.5894 -2.1943
 1024MOL0     H35126   1.469   0.317   1.439  0.9904 -0.0948  1.6751
 1024MOL0     H35127   1.457   0.178   1.321 -1.3514  0.8475 -1.6771
 1024MOL0     H35128   1.694   0.146   1.312 -1.2572 -2.1635  1.0659
 1024MOL0     H35129   1.638   0.149   1.478 -0.0863 -0.9210  0.1350
 1024MOL0     H35130   1.929   0.521   1.382  1.8967  1.7784 -0.8328
 1024MOL0     H35131   2.165   0.490   1.374  1.0790 -0.2924  0.9553
 1024MOL0     H35132   2.471   0.011   1.254 -0.1601 -0.3393  1.1633
 1024MOL0     H35133   2.724  -0.031   1.212 -0.5438 -2.6291  1.7217
 1024MOL0     H35134   2.976  -0.027   1.201  1.8509 -1.0482 -0.6552
 1024MOL0     H35135   2.905  -0.142   1.326  0.1295  0.2033  0.9289
 1024MOL0     H35136   3.087  -0.109   1.474 -2.1317  0.9529 -0.2561
 1024MOL0     H35137   3.163   0.006   1.360 -1.0562 -0.4297 -1.2107
 1024MOL0     H35138   3.169  -0.183   1.185  1.3967  0.4475 -0.7433
 1024MOL0     H35139   3.111  -0.287   1.319  0.1571 -0.8971 -1.5703
 1024MOL0     H35140   3.358  -0.100   1.330 -0.2451 -0.2293 -1.6180
 1024MOL0     H35141   3.333  -0.244   1.433  0.0858  0.1417  1.0588
 1024MOL0     H35142   3.331  -0.365   1.200  0.7275 -0.8831  2.7643
 1024MOL0     H35143   3.484  -0.326   1.283  0.3130  1.2581  2.2298
 1024MOL0     H35144   3.530  -0.129   1.160  2.7677 -1.2652 -2.1025
 1024MOL0     H35145   3.388  -0.154   1.058 -1.5563 -1.1995  0.1203
 1024MOL0     H35146   3.647  -0.339   1.116 -1.6669 -0.1822  1.8817
 1024MOL0     H35147   3.512  -0.392   1.016 -1.4125  0.5679  0.8414
 1024MOL0     H35148   3.701  -0.307   0.888  2.9349  2.6487 -1.8794
 1024MOL0     H35149   3.708  -0.152   0.960  1.1706 -0.1410 -1.3525
 1024MOL0     H35150   2.801   0.199   1.565 -0.1016 -1.7615  1.5052
 1024MOL0     H35151   2.565   0.249   1.592  0.0362 -1.3378  1.3887
 1024MOL0     H35152   2.134   0.076   1.453  3.4979  1.7706 -0.3819
 1024MOL0     H35153   1.884   0.095   1.469  0.1070 -0.1001 -0.6488
 1024MOL0     H35154   2.665   0.574   0.946  1.2534 -1.7797 -0.3810
 1024MOL0     H35155   2.902   0.569   0.984  0.4352  0.4114  0.6856
 1024MOL0     H35156   3.226   0.707   1.282  1.7397 -0.8304  2.0828
 1024MOL0     H35157   3.479   0.631   1.319  1.2144 -1.3822 -0.5005
 1024MOL0     H35158   3.711   0.580   0.949  1.0262  4.5338  1.0858
 1024MOL0     H35159   3.759   0.449   1.050  0.4946  0.2580 -2.8248
 1024MOL0     H35160   3.934   0.609   0.976  0.1895 -1.9444 -0.2781
 1024MOL0     H35161   3.864   0.723   1.082  1.1333 -0.1092 -0.5836
 1024MOL0     H35162   3.870   0.573   1.279  0.6550  0.7211 -0.1513
 1024MOL0     H35163   4.017   0.641   1.217  1.0176 -0.9917 -1.3903
 1024MOL0     H35164   4.005   0.390   1.310 -1.4817  0.7290  0.1440
 1024MOL0     H35165   3.912   0.359   1.160  1.0463  2.1439 -4.1102
 1024MOL0     H35166   4.316   0.395   1.043  0.5652  0.4601  0.8018
 1024MOL0     H35167   3.545   0.682   0.908 -1.0641 -3.2416 -1.3101
 1024MOL0     H35168   3.327   0.777   0.875  0.5421  1.6545 -0.4171
  11.19319  11.19319  11.19319
